 Entering Gaussian System, Link 0=g16
 Input=SXIFAEWFOJETOA-UHFFFAOYSA-N_GeoFreq_c3_a1.com
 Output=SXIFAEWFOJETOA-UHFFFAOYSA-N_GeoFreq_c3_a1.log
 Initial command:
 /shared/centos7/gaussian/g16/l1.exe "/scratch/underkoffler.c/gaussian_scratch/Gau-26766.inp" -scrdir="/scratch/underkoffler.c/gaussian_scratch/"
 Entering Link 1 = /shared/centos7/gaussian/g16/l1.exe PID=     26767.
  
 Copyright (c) 1988,1990,1992,1993,1995,1998,2003,2009,2016,
            Gaussian, Inc.  All Rights Reserved.
  
 This is part of the Gaussian(R) 16 program.  It is based on
 the Gaussian(R) 09 system (copyright 2009, Gaussian, Inc.),
 the Gaussian(R) 03 system (copyright 2003, Gaussian, Inc.),
 the Gaussian(R) 98 system (copyright 1998, Gaussian, Inc.),
 the Gaussian(R) 94 system (copyright 1995, Gaussian, Inc.),
 the Gaussian 92(TM) system (copyright 1992, Gaussian, Inc.),
 the Gaussian 90(TM) system (copyright 1990, Gaussian, Inc.),
 the Gaussian 88(TM) system (copyright 1988, Gaussian, Inc.),
 the Gaussian 86(TM) system (copyright 1986, Carnegie Mellon
 University), and the Gaussian 82(TM) system (copyright 1983,
 Carnegie Mellon University). Gaussian is a federally registered
 trademark of Gaussian, Inc.
  
 This software contains proprietary and confidential information,
 including trade secrets, belonging to Gaussian, Inc.
  
 This software is provided under written license and may be
 used, copied, transmitted, or stored only in accord with that
 written license.
  
 The following legend is applicable only to US Government
 contracts under FAR:
  
                    RESTRICTED RIGHTS LEGEND
  
 Use, reproduction and disclosure by the US Government is
 subject to restrictions as set forth in subparagraphs (a)
 and (c) of the Commercial Computer Software - Restricted
 Rights clause in FAR 52.227-19.
  
 Gaussian, Inc.
 340 Quinnipiac St., Bldg. 40, Wallingford CT 06492
  
  
 ---------------------------------------------------------------
 Warning -- This program may not be used in any manner that
 competes with the business of Gaussian, Inc. or will provide
 assistance to any competitor of Gaussian, Inc.  The licensee
 of this program is prohibited from giving any competitor of
 Gaussian, Inc. access to this program.  By using this program,
 the user acknowledges that Gaussian, Inc. is engaged in the
 business of creating and licensing software in the field of
 computational chemistry and represents and warrants to the
 licensee that it is not a competitor of Gaussian, Inc. and that
 it will not use this program in any manner prohibited above.
 ---------------------------------------------------------------
  

 Cite this work as:
 Gaussian 16, Revision A.03,
 M. J. Frisch, G. W. Trucks, H. B. Schlegel, G. E. Scuseria, 
 M. A. Robb, J. R. Cheeseman, G. Scalmani, V. Barone, 
 G. A. Petersson, H. Nakatsuji, X. Li, M. Caricato, A. V. Marenich, 
 J. Bloino, B. G. Janesko, R. Gomperts, B. Mennucci, H. P. Hratchian, 
 J. V. Ortiz, A. F. Izmaylov, J. L. Sonnenberg, D. Williams-Young, 
 F. Ding, F. Lipparini, F. Egidi, J. Goings, B. Peng, A. Petrone, 
 T. Henderson, D. Ranasinghe, V. G. Zakrzewski, J. Gao, N. Rega, 
 G. Zheng, W. Liang, M. Hada, M. Ehara, K. Toyota, R. Fukuda, 
 J. Hasegawa, M. Ishida, T. Nakajima, Y. Honda, O. Kitao, H. Nakai, 
 T. Vreven, K. Throssell, J. A. Montgomery, Jr., J. E. Peralta, 
 F. Ogliaro, M. J. Bearpark, J. J. Heyd, E. N. Brothers, K. N. Kudin, 
 V. N. Staroverov, T. A. Keith, R. Kobayashi, J. Normand, 
 K. Raghavachari, A. P. Rendell, J. C. Burant, S. S. Iyengar, 
 J. Tomasi, M. Cossi, J. M. Millam, M. Klene, C. Adamo, R. Cammi, 
 J. W. Ochterski, R. L. Martin, K. Morokuma, O. Farkas, 
 J. B. Foresman, and D. J. Fox, Gaussian, Inc., Wallingford CT, 2016.
 
 ******************************************
 Gaussian 16:  EM64L-G16RevA.03 25-Dec-2016
                 9-Apr-2019 
 ******************************************
 %nprocshared=20
 Will use up to   20 processors via shared memory.
 %mem=5GB
 ----------------------------------------------------------------------
 #p m062x/6-311+g(2df,2p) opt=(calcfc,verytight,gdiis,maxcycles=900) fr
 eq iop(7/33=1,2/16=3)
 ----------------------------------------------------------------------

 Warning!  Use of Opt=GDIIS is deprecated since it is seldom a good choice.

 1/6=900,7=1,10=4,18=20,19=11,26=3,38=1/1,3;
 2/9=110,12=2,16=3,17=6,18=5,40=1/2;
 3/5=4,6=6,7=214,11=2,25=1,30=1,71=2,74=-55,140=1/1,2,3;
 4//1;
 5/5=2,38=5/2;
 8/6=4,10=90,11=11/1;
 11/6=1,8=1,9=11,15=111,16=1/1,2,10;
 10/6=1,13=1/2;
 6/7=2,8=2,9=2,10=2,28=1/1;
 7/10=1,18=20,25=1,33=1/1,2,3,16;
 1/6=900,7=1,10=4,18=20,19=11,26=3/3(2);
 2/9=110,16=3/2;
 99//99;
 2/9=110,16=3/2;
 3/5=4,6=6,7=214,11=2,25=1,30=1,71=1,74=-55/1,2,3;
 4/5=5,16=3,69=1/1;
 5/5=2,38=5/2;
 7/33=1/1,2,3,16;
 1/6=900,7=1,18=20,19=11,26=3/3(-5);
 2/9=110,16=3/2;
 6/7=2,8=2,9=2,10=2,19=2,28=1/1;
 99/9=1/99;
 Leave Link    1 at Tue Apr  9 01:19:06 2019, MaxMem=   671088640 cpu:              25.4 elap:               1.3
 (Enter /shared/centos7/gaussian/g16/l101.exe)
 ------------------------------
 Gaussian input prepared by ASE
 ------------------------------
 Symbolic Z-matrix:
 Charge =  0 Multiplicity = 2
 O                    -1.31013  -1.00445   1.31106 
 C                    -1.21727  -1.47552  -1.0698 
 C                     0.18279  -1.98666  -0.89224 
 C                    -1.71206  -0.59945   0.05546 
 C                     1.07278  -1.11544  -0.0762 
 H                    -1.90488  -2.34976  -1.19317 
 H                    -1.28479  -0.91131  -2.0089 
 H                     0.63847  -2.13793  -1.89422 
 H                     0.16425  -2.99389  -0.44177 
 H                    -2.83014  -0.58129   0.05018 
 H                    -1.37843   0.451    -0.13186 
 H                     2.07213  -1.49116   0.15729 
 H                     0.9883   -0.03067  -0.17615 
 H                    -0.33548  -1.18018   1.26228 
 
 ITRead=  0  0  0  0  0  0  0  0  0  0  0  0  0  0
 MicOpt= -1 -1 -1 -1 -1 -1 -1 -1 -1 -1 -1 -1 -1 -1
 NAtoms=     14 NQM=       14 NQMF=       0 NMMI=      0 NMMIF=      0
                NMic=       0 NMicF=      0.
                    Isotopes and Nuclear Properties:
 (Nuclear quadrupole moments (NQMom) in fm**2, nuclear magnetic moments (NMagM)
  in nuclear magnetons)

  Atom         1           2           3           4           5           6           7           8           9          10
 IAtWgt=          16          12          12          12          12           1           1           1           1           1
 AtmWgt=  15.9949146  12.0000000  12.0000000  12.0000000  12.0000000   1.0078250   1.0078250   1.0078250   1.0078250   1.0078250
 NucSpn=           0           0           0           0           0           1           1           1           1           1
 AtZEff=  -0.0000000  -0.0000000  -0.0000000  -0.0000000  -0.0000000  -0.0000000  -0.0000000  -0.0000000  -0.0000000  -0.0000000
 NQMom=    0.0000000   0.0000000   0.0000000   0.0000000   0.0000000   0.0000000   0.0000000   0.0000000   0.0000000   0.0000000
 NMagM=    0.0000000   0.0000000   0.0000000   0.0000000   0.0000000   2.7928460   2.7928460   2.7928460   2.7928460   2.7928460
 AtZNuc=   8.0000000   6.0000000   6.0000000   6.0000000   6.0000000   1.0000000   1.0000000   1.0000000   1.0000000   1.0000000

  Atom        11          12          13          14
 IAtWgt=           1           1           1           1
 AtmWgt=   1.0078250   1.0078250   1.0078250   1.0078250
 NucSpn=           1           1           1           1
 AtZEff=  -0.0000000  -0.0000000  -0.0000000  -0.0000000
 NQMom=    0.0000000   0.0000000   0.0000000   0.0000000
 NMagM=    2.7928460   2.7928460   2.7928460   2.7928460
 AtZNuc=   1.0000000   1.0000000   1.0000000   1.0000000
 Leave Link  101 at Tue Apr  9 01:19:06 2019, MaxMem=   671088640 cpu:               5.2 elap:               0.3
 (Enter /shared/centos7/gaussian/g16/l103.exe)

 GradGradGradGradGradGradGradGradGradGradGradGradGradGradGradGradGradGrad
 Berny optimization.
 Initialization pass.
                           ----------------------------
                           !    Initial Parameters    !
                           ! (Angstroms and Degrees)  !
 --------------------------                            --------------------------
 ! Name  Definition              Value          Derivative Info.                !
 --------------------------------------------------------------------------------
 ! R1    R(1,4)                  1.3792         calculate D2E/DX2 analytically  !
 ! R2    R(1,14)                 0.9916         calculate D2E/DX2 analytically  !
 ! R3    R(2,3)                  1.501          calculate D2E/DX2 analytically  !
 ! R4    R(2,4)                  1.5095         calculate D2E/DX2 analytically  !
 ! R5    R(2,6)                  1.1191         calculate D2E/DX2 analytically  !
 ! R6    R(2,7)                  1.0976         calculate D2E/DX2 analytically  !
 ! R7    R(3,5)                  1.489          calculate D2E/DX2 analytically  !
 ! R8    R(3,8)                  1.1111         calculate D2E/DX2 analytically  !
 ! R9    R(3,9)                  1.1035         calculate D2E/DX2 analytically  !
 ! R10   R(4,10)                 1.1182         calculate D2E/DX2 analytically  !
 ! R11   R(4,11)                 1.118          calculate D2E/DX2 analytically  !
 ! R12   R(5,12)                 1.0929         calculate D2E/DX2 analytically  !
 ! R13   R(5,13)                 1.0926         calculate D2E/DX2 analytically  !
 ! A1    A(4,1,14)             107.0801         calculate D2E/DX2 analytically  !
 ! A2    A(3,2,4)              114.5321         calculate D2E/DX2 analytically  !
 ! A3    A(3,2,6)              108.6713         calculate D2E/DX2 analytically  !
 ! A4    A(3,2,7)              109.4891         calculate D2E/DX2 analytically  !
 ! A5    A(4,2,6)              109.5226         calculate D2E/DX2 analytically  !
 ! A6    A(4,2,7)              108.6206         calculate D2E/DX2 analytically  !
 ! A7    A(6,2,7)              105.6316         calculate D2E/DX2 analytically  !
 ! A8    A(2,3,5)              115.0309         calculate D2E/DX2 analytically  !
 ! A9    A(2,3,8)              108.7977         calculate D2E/DX2 analytically  !
 ! A10   A(2,3,9)              110.0866         calculate D2E/DX2 analytically  !
 ! A11   A(5,3,8)              109.1937         calculate D2E/DX2 analytically  !
 ! A12   A(5,3,9)              108.6859         calculate D2E/DX2 analytically  !
 ! A13   A(8,3,9)              104.5222         calculate D2E/DX2 analytically  !
 ! A14   A(1,4,2)              114.3756         calculate D2E/DX2 analytically  !
 ! A15   A(1,4,10)             107.4845         calculate D2E/DX2 analytically  !
 ! A16   A(1,4,11)             109.9679         calculate D2E/DX2 analytically  !
 ! A17   A(2,4,10)             109.4905         calculate D2E/DX2 analytically  !
 ! A18   A(2,4,11)             108.8205         calculate D2E/DX2 analytically  !
 ! A19   A(10,4,11)            106.3994         calculate D2E/DX2 analytically  !
 ! A20   A(3,5,12)             117.5482         calculate D2E/DX2 analytically  !
 ! A21   A(3,5,13)             118.9833         calculate D2E/DX2 analytically  !
 ! A22   A(12,5,13)            115.5668         calculate D2E/DX2 analytically  !
 ! D1    D(14,1,4,2)            47.97           calculate D2E/DX2 analytically  !
 ! D2    D(14,1,4,10)          169.7579         calculate D2E/DX2 analytically  !
 ! D3    D(14,1,4,11)          -74.8131         calculate D2E/DX2 analytically  !
 ! D4    D(4,2,3,5)            -27.9859         calculate D2E/DX2 analytically  !
 ! D5    D(4,2,3,8)           -150.8216         calculate D2E/DX2 analytically  !
 ! D6    D(4,2,3,9)             95.1926         calculate D2E/DX2 analytically  !
 ! D7    D(6,2,3,5)           -150.8042         calculate D2E/DX2 analytically  !
 ! D8    D(6,2,3,8)             86.3602         calculate D2E/DX2 analytically  !
 ! D9    D(6,2,3,9)            -27.6256         calculate D2E/DX2 analytically  !
 ! D10   D(7,2,3,5)             94.2793         calculate D2E/DX2 analytically  !
 ! D11   D(7,2,3,8)            -28.5564         calculate D2E/DX2 analytically  !
 ! D12   D(7,2,3,9)           -142.5422         calculate D2E/DX2 analytically  !
 ! D13   D(3,2,4,1)            -38.2335         calculate D2E/DX2 analytically  !
 ! D14   D(3,2,4,10)          -158.9154         calculate D2E/DX2 analytically  !
 ! D15   D(3,2,4,11)            85.1693         calculate D2E/DX2 analytically  !
 ! D16   D(6,2,4,1)             84.1237         calculate D2E/DX2 analytically  !
 ! D17   D(6,2,4,10)           -36.5582         calculate D2E/DX2 analytically  !
 ! D18   D(6,2,4,11)          -152.4735         calculate D2E/DX2 analytically  !
 ! D19   D(7,2,4,1)           -160.9695         calculate D2E/DX2 analytically  !
 ! D20   D(7,2,4,10)            78.3486         calculate D2E/DX2 analytically  !
 ! D21   D(7,2,4,11)           -37.5667         calculate D2E/DX2 analytically  !
 ! D22   D(2,3,5,12)           174.4588         calculate D2E/DX2 analytically  !
 ! D23   D(2,3,5,13)           -37.8277         calculate D2E/DX2 analytically  !
 ! D24   D(8,3,5,12)           -62.9176         calculate D2E/DX2 analytically  !
 ! D25   D(8,3,5,13)            84.7959         calculate D2E/DX2 analytically  !
 ! D26   D(9,3,5,12)            50.537          calculate D2E/DX2 analytically  !
 ! D27   D(9,3,5,13)          -161.7495         calculate D2E/DX2 analytically  !
 --------------------------------------------------------------------------------
 Trust Radius=3.00D-01 FncErr=1.00D-07 GrdErr=1.00D-06 EigMax=2.50D+02 EigMin=1.00D-04
 Number of steps in this run=    100 maximum allowed number of steps=    100.
 GradGradGradGradGradGradGradGradGradGradGradGradGradGradGradGradGradGrad

 Leave Link  103 at Tue Apr  9 01:19:06 2019, MaxMem=   671088640 cpu:               0.2 elap:               0.0
 (Enter /shared/centos7/gaussian/g16/l202.exe)
                          Input orientation:                          
 ---------------------------------------------------------------------
 Center     Atomic      Atomic             Coordinates (Angstroms)
 Number     Number       Type             X           Y           Z
 ---------------------------------------------------------------------
      1          8           0       -1.310134   -1.004452    1.311062
      2          6           0       -1.217275   -1.475523   -1.069797
      3          6           0        0.182790   -1.986665   -0.892237
      4          6           0       -1.712062   -0.599455    0.055457
      5          6           0        1.072780   -1.115436   -0.076197
      6          1           0       -1.904881   -2.349758   -1.193169
      7          1           0       -1.284790   -0.911307   -2.008903
      8          1           0        0.638468   -2.137928   -1.894218
      9          1           0        0.164253   -2.993889   -0.441770
     10          1           0       -2.830144   -0.581293    0.050183
     11          1           0       -1.378433    0.450995   -0.131864
     12          1           0        2.072126   -1.491159    0.157287
     13          1           0        0.988300   -0.030672   -0.176155
     14          1           0       -0.335475   -1.180177    1.262280
 ---------------------------------------------------------------------
                    Distance matrix (angstroms):
                    1          2          3          4          5
     1  O    0.000000
     2  C    2.428790   0.000000
     3  C    2.836916   1.500992   0.000000
     4  C    1.379171   1.509472   2.532378   0.000000
     5  C    2.759544   2.522153   1.488974   2.835298   0.000000
     6  H    2.904263   1.119067   2.140273   2.158659   3.411399
     7  H    3.321368   1.097642   2.134743   2.131055   3.055349
     8  H    3.918627   2.135939   1.111076   3.419521   2.130568
     9  H    3.033825   2.146735   1.103523   3.082387   2.118408
    10  H    2.019730   2.157626   3.455575   1.118242   3.941331
    11  H    2.050616   2.148759   2.992954   1.117963   2.909511
    12  H    3.606628   3.510861   2.217345   3.889163   1.092875
    13  H    2.905660   2.784017   2.233277   2.769316   1.092630
    14  H    0.991574   2.510655   2.358170   1.920586   1.943938
                    6          7          8          9         10
     6  H    0.000000
     7  H    1.766091   0.000000
     8  H    2.646690   2.284004   0.000000
     9  H    2.293648   2.982076   1.751329   0.000000
    10  H    2.351490   2.595547   4.270255   3.876732   0.000000
    11  H    3.041009   2.321188   3.725092   3.787235   1.790593
    12  H    4.286901   4.037015   2.585026   2.501410   4.987141
    13  H    3.844864   3.049823   2.741286   3.087112   3.864573
    14  H    3.140094   3.416742   3.439380   2.538320   2.837466
                   11         12         13         14
    11  H    0.000000
    12  H    3.970130   0.000000
    13  H    2.415656   1.849022   0.000000
    14  H    2.385817   2.667258   2.267783   0.000000
 Stoichiometry    C4H9O(2)
 Framework group  C1[X(C4H9O)]
 Deg. of freedom    36
 Full point group                 C1      NOp   1
 Largest Abelian subgroup         C1      NOp   1
 Largest concise Abelian subgroup C1      NOp   1
                         Standard orientation:                         
 ---------------------------------------------------------------------
 Center     Atomic      Atomic             Coordinates (Angstroms)
 Number     Number       Type             X           Y           Z
 ---------------------------------------------------------------------
      1          8           0       -1.270969   -0.935322   -0.423897
      2          6           0       -0.092670    1.141162    0.022027
      3          6           0        1.199136    0.455751   -0.316244
      4          6           0       -1.231372    0.205934    0.349460
      5          6           0        1.387485   -0.879999    0.314104
      6          1           0       -0.383991    1.799496   -0.834733
      7          1           0        0.062808    1.815756    0.873829
      8          1           0        2.042593    1.118501   -0.026705
      9          1           0        1.295445    0.347196   -1.410184
     10          1           0       -2.204189    0.739662    0.210798
     11          1           0       -1.173174   -0.068119    1.431749
     12          1           0        2.269681   -1.456036    0.023784
     13          1           0        1.037832   -1.036591    1.337365
     14          1           0       -0.354731   -1.314373   -0.430810
 ---------------------------------------------------------------------
 Rotational constants (GHZ):           7.2847869           4.2969098           3.1872538
 Leave Link  202 at Tue Apr  9 01:19:06 2019, MaxMem=   671088640 cpu:               0.2 elap:               0.0
 (Enter /shared/centos7/gaussian/g16/l301.exe)
 Standard basis: 6-311+G(2df,2p) (5D, 7F)
 Ernie: Thresh=  0.10000D-02 Tol=  0.10000D-05 Strict=F.
 There are   276 symmetry adapted cartesian basis functions of A   symmetry.
 There are   251 symmetry adapted basis functions of A   symmetry.
   251 basis functions,   359 primitive gaussians,   276 cartesian basis functions
    21 alpha electrons       20 beta electrons
       nuclear repulsion energy       188.4221511298 Hartrees.
 IExCor= 4336 DFT=T Ex+Corr=M062X ExCW=0 ScaHFX=  0.540000
 ScaDFX=  1.000000  1.000000  1.000000  1.000000 ScalE2=  1.000000  1.000000
 IRadAn=      5 IRanWt=     -1 IRanGd=            0 ICorTp=0 IEmpDi=  4
 NAtoms=   14 NActive=   14 NUniq=   14 SFac= 1.00D+00 NAtFMM=   60 NAOKFM=F Big=F
 Integral buffers will be    131072 words long.
 Raffenetti 2 integral format.
 Two-electron integral symmetry is turned on.
 Leave Link  301 at Tue Apr  9 01:19:06 2019, MaxMem=   671088640 cpu:               1.1 elap:               0.1
 (Enter /shared/centos7/gaussian/g16/l302.exe)
 NPDir=0 NMtPBC=     1 NCelOv=     1 NCel=       1 NClECP=     1 NCelD=      1
         NCelK=      1 NCelE2=     1 NClLst=     1 CellRange=     0.0.
 One-electron integrals computed using PRISM.
 One-electron integral symmetry used in STVInt
 NBasis=   251 RedAO= T EigKep=  2.09D-05  NBF=   251
 NBsUse=   251 1.00D-06 EigRej= -1.00D+00 NBFU=   251
 Precomputing XC quadrature grid using
 IXCGrd= 4 IRadAn=           5 IRanWt=          -1 IRanGd=           0 AccXCQ= 0.00D+00.
 Generated NRdTot=       0 NPtTot=           0 NUsed=           0 NTot=          32
 NSgBfM=   276   276   276   276   276 MxSgAt=    14 MxSgA2=    14.
 Leave Link  302 at Tue Apr  9 01:19:07 2019, MaxMem=   671088640 cpu:               6.0 elap:               0.3
 (Enter /shared/centos7/gaussian/g16/l303.exe)
 DipDrv:  MaxL=1.
 Leave Link  303 at Tue Apr  9 01:19:07 2019, MaxMem=   671088640 cpu:               0.5 elap:               0.0
 (Enter /shared/centos7/gaussian/g16/l401.exe)
 ExpMin= 4.38D-02 ExpMax= 8.59D+03 ExpMxC= 1.30D+03 IAcc=3 IRadAn=         5 AccDes= 0.00D+00
 Harris functional with IExCor= 1009 and IRadAn=       5 diagonalized for initial guess.
 HarFok:  IExCor= 1009 AccDes= 0.00D+00 IRadAn=         5 IDoV= 1 UseB2=F ITyADJ=14
 ICtDFT=  3500011 ScaDFX=  1.000000  1.000000  1.000000  1.000000
 FoFCou: FMM=F IPFlag=           0 FMFlag=      100000 FMFlg1=           0
         NFxFlg=           0 DoJE=T BraDBF=F KetDBF=T FulRan=T
         wScrn=  0.000000 ICntrl=       500 IOpCl=  0 I1Cent=   200000004 NGrid=           0
         NMat0=    1 NMatS0=      1 NMatT0=    0 NMatD0=    1 NMtDS0=    0 NMtDT0=    0
 Petite list used in FoFCou.
 Harris En= -232.872528693247    
 JPrj=0 DoOrth=F DoCkMO=F.
 Initial guess <Sx>= 0.0000 <Sy>= 0.0000 <Sz>= 0.5000 <S**2>= 0.7500 S= 0.5000
 Leave Link  401 at Tue Apr  9 01:19:08 2019, MaxMem=   671088640 cpu:              16.7 elap:               0.9
 (Enter /shared/centos7/gaussian/g16/l502.exe)
 Integral symmetry usage will be decided dynamically.
 UHF open shell SCF:
 Using DIIS extrapolation, IDIIS=  1040.
 NGot=   671088640 LenX=   670928170 LenY=   670851553
 Requested convergence on RMS density matrix=1.00D-08 within 128 cycles.
 Requested convergence on MAX density matrix=1.00D-06.
 Requested convergence on             energy=1.00D-06.
 No special actions if energy rises.
 Fock matrices will be formed incrementally for  20 cycles.

 Cycle   1  Pass 1  IDiag  1:
 FoFJK:  IHMeth= 1 ICntrl=       0 DoSepK=F KAlg= 0 I1Cent=           0 FoldK=F
 IRaf= 990000000 NMat=       1 IRICut=       1 DoRegI=T DoRafI=F ISym2E= 0 IDoP0=0 IntGTp=1.
 FoFCou: FMM=F IPFlag=           0 FMFlag=      100000 FMFlg1=           0
         NFxFlg=           0 DoJE=F BraDBF=F KetDBF=F FulRan=T
         wScrn=  0.000000 ICntrl=         0 IOpCl=  1 I1Cent=           0 NGrid=           0
         NMat0=    1 NMatS0=      1 NMatT0=    0 NMatD0=    1 NMtDS0=    0 NMtDT0=    0
 Symmetry not used in FoFCou.
 E= -232.770945996298    
 DIIS: error= 2.17D-02 at cycle   1 NSaved=   1.
 NSaved= 1 IEnMin= 1 EnMin= -232.770945996298     IErMin= 1 ErrMin= 2.17D-02
 ErrMax= 2.17D-02  0.00D+00 EMaxC= 1.00D-01 BMatC= 8.75D-01 BMatP= 8.75D-01
 IDIUse=3 WtCom= 7.83D-01 WtEn= 2.17D-01
 Coeff-Com:  0.100D+01
 Coeff-En:   0.100D+01
 Coeff:      0.100D+01
 Gap=     0.270 Goal=   None    Shift=    0.000
 Gap=     0.267 Goal=   None    Shift=    0.000
 GapD=    0.267 DampG=1.000 DampE=0.500 DampFc=0.5000 IDamp=-1.
 Damping current iteration by 5.00D-01
 RMSDP=3.25D-03 MaxDP=9.06D-02              OVMax= 1.45D-01

 Cycle   2  Pass 1  IDiag  1:
 RMSU=  1.61D-03    CP:  9.77D-01
 E= -232.859590876053     Delta-E=       -0.088644879755 Rises=F Damp=T
 DIIS: error= 6.70D-03 at cycle   2 NSaved=   2.
 NSaved= 2 IEnMin= 2 EnMin= -232.859590876053     IErMin= 2 ErrMin= 6.70D-03
 ErrMax= 6.70D-03  0.00D+00 EMaxC= 1.00D-01 BMatC= 5.97D-02 BMatP= 8.75D-01
 IDIUse=3 WtCom= 9.33D-01 WtEn= 6.70D-02
 Coeff-Com: -0.688D-01 0.107D+01
 Coeff-En:   0.000D+00 0.100D+01
 Coeff:     -0.642D-01 0.106D+01
 Gap=     0.299 Goal=   None    Shift=    0.000
 Gap=     0.318 Goal=   None    Shift=    0.000
 RMSDP=1.39D-03 MaxDP=6.80D-02 DE=-8.86D-02 OVMax= 8.45D-02

 Cycle   3  Pass 1  IDiag  1:
 RMSU=  1.32D-03    CP:  9.66D-01  7.41D-01
 E= -232.948909819339     Delta-E=       -0.089318943286 Rises=F Damp=F
 DIIS: error= 2.61D-03 at cycle   3 NSaved=   3.
 NSaved= 3 IEnMin= 3 EnMin= -232.948909819339     IErMin= 3 ErrMin= 2.61D-03
 ErrMax= 2.61D-03  0.00D+00 EMaxC= 1.00D-01 BMatC= 1.45D-02 BMatP= 5.97D-02
 IDIUse=3 WtCom= 9.74D-01 WtEn= 2.61D-02
 Coeff-Com: -0.813D-01 0.321D+00 0.760D+00
 Coeff-En:   0.000D+00 0.000D+00 0.100D+01
 Coeff:     -0.792D-01 0.313D+00 0.767D+00
 Gap=     0.296 Goal=   None    Shift=    0.000
 Gap=     0.286 Goal=   None    Shift=    0.000
 RMSDP=2.79D-04 MaxDP=2.14D-02 DE=-8.93D-02 OVMax= 1.70D-02

 Cycle   4  Pass 1  IDiag  1:
 RMSU=  2.68D-04    CP:  9.61D-01  7.77D-01  9.90D-01
 E= -232.951381075597     Delta-E=       -0.002471256258 Rises=F Damp=F
 DIIS: error= 8.50D-04 at cycle   4 NSaved=   4.
 NSaved= 4 IEnMin= 4 EnMin= -232.951381075597     IErMin= 4 ErrMin= 8.50D-04
 ErrMax= 8.50D-04  0.00D+00 EMaxC= 1.00D-01 BMatC= 2.27D-03 BMatP= 1.45D-02
 IDIUse=3 WtCom= 9.91D-01 WtEn= 8.50D-03
 Coeff-Com: -0.292D-01 0.706D-01 0.330D+00 0.629D+00
 Coeff-En:   0.000D+00 0.000D+00 0.000D+00 0.100D+01
 Coeff:     -0.289D-01 0.700D-01 0.327D+00 0.632D+00
 Gap=     0.293 Goal=   None    Shift=    0.000
 Gap=     0.293 Goal=   None    Shift=    0.000
 RMSDP=8.98D-05 MaxDP=3.79D-03 DE=-2.47D-03 OVMax= 7.73D-03

 Cycle   5  Pass 1  IDiag  1:
 RMSU=  8.17D-05    CP:  9.61D-01  7.66D-01  9.94D-01  8.82D-01
 E= -232.951846201163     Delta-E=       -0.000465125566 Rises=F Damp=F
 DIIS: error= 4.16D-04 at cycle   5 NSaved=   5.
 NSaved= 5 IEnMin= 5 EnMin= -232.951846201163     IErMin= 5 ErrMin= 4.16D-04
 ErrMax= 4.16D-04  0.00D+00 EMaxC= 1.00D-01 BMatC= 2.19D-04 BMatP= 2.27D-03
 IDIUse=3 WtCom= 9.96D-01 WtEn= 4.16D-03
 Coeff-Com: -0.312D-02-0.516D-02 0.450D-01 0.243D+00 0.720D+00
 Coeff-En:   0.000D+00 0.000D+00 0.000D+00 0.000D+00 0.100D+01
 Coeff:     -0.311D-02-0.514D-02 0.448D-01 0.242D+00 0.721D+00
 Gap=     0.295 Goal=   None    Shift=    0.000
 Gap=     0.293 Goal=   None    Shift=    0.000
 RMSDP=4.82D-05 MaxDP=1.94D-03 DE=-4.65D-04 OVMax= 2.86D-03

 Cycle   6  Pass 1  IDiag  1:
 RMSU=  3.84D-05    CP:  9.61D-01  7.63D-01  1.01D+00  9.61D-01  9.76D-01
 E= -232.951910844237     Delta-E=       -0.000064643074 Rises=F Damp=F
 DIIS: error= 1.17D-04 at cycle   6 NSaved=   6.
 NSaved= 6 IEnMin= 6 EnMin= -232.951910844237     IErMin= 6 ErrMin= 1.17D-04
 ErrMax= 1.17D-04  0.00D+00 EMaxC= 1.00D-01 BMatC= 1.73D-05 BMatP= 2.19D-04
 IDIUse=3 WtCom= 9.99D-01 WtEn= 1.17D-03
 Coeff-Com:  0.505D-02-0.119D-01-0.574D-01-0.112D+00-0.220D-01 0.120D+01
 Coeff-En:   0.000D+00 0.000D+00 0.000D+00 0.000D+00 0.000D+00 0.100D+01
 Coeff:      0.505D-02-0.119D-01-0.573D-01-0.112D+00-0.219D-01 0.120D+01
 Gap=     0.295 Goal=   None    Shift=    0.000
 Gap=     0.294 Goal=   None    Shift=    0.000
 RMSDP=3.05D-05 MaxDP=1.77D-03 DE=-6.46D-05 OVMax= 2.66D-03

 Cycle   7  Pass 1  IDiag  1:
 RMSU=  1.29D-05    CP:  9.61D-01  7.59D-01  1.01D+00  1.03D+00  1.18D+00
                    CP:  1.24D+00
 E= -232.951924542046     Delta-E=       -0.000013697809 Rises=F Damp=F
 DIIS: error= 4.06D-05 at cycle   7 NSaved=   7.
 NSaved= 7 IEnMin= 7 EnMin= -232.951924542046     IErMin= 7 ErrMin= 4.06D-05
 ErrMax= 4.06D-05  0.00D+00 EMaxC= 1.00D-01 BMatC= 2.34D-06 BMatP= 1.73D-05
 IDIUse=1 WtCom= 1.00D+00 WtEn= 0.00D+00
 Coeff-Com:  0.153D-02-0.258D-02-0.190D-01-0.555D-01-0.785D-01 0.338D+00
 Coeff-Com:  0.816D+00
 Coeff:      0.153D-02-0.258D-02-0.190D-01-0.555D-01-0.785D-01 0.338D+00
 Coeff:      0.816D+00
 Gap=     0.295 Goal=   None    Shift=    0.000
 Gap=     0.294 Goal=   None    Shift=    0.000
 RMSDP=6.04D-06 MaxDP=4.12D-04 DE=-1.37D-05 OVMax= 5.77D-04

 Cycle   8  Pass 1  IDiag  1:
 RMSU=  3.95D-06    CP:  9.61D-01  7.59D-01  1.01D+00  1.04D+00  1.22D+00
                    CP:  1.30D+00  1.15D+00
 E= -232.951925537388     Delta-E=       -0.000000995342 Rises=F Damp=F
 DIIS: error= 1.42D-05 at cycle   8 NSaved=   8.
 NSaved= 8 IEnMin= 8 EnMin= -232.951925537388     IErMin= 8 ErrMin= 1.42D-05
 ErrMax= 1.42D-05  0.00D+00 EMaxC= 1.00D-01 BMatC= 2.51D-07 BMatP= 2.34D-06
 IDIUse=1 WtCom= 1.00D+00 WtEn= 0.00D+00
 Coeff-Com: -0.288D-03 0.829D-03 0.248D-02-0.589D-03-0.161D-01-0.621D-01
 Coeff-Com:  0.182D+00 0.893D+00
 Coeff:     -0.288D-03 0.829D-03 0.248D-02-0.589D-03-0.161D-01-0.621D-01
 Coeff:      0.182D+00 0.893D+00
 Gap=     0.295 Goal=   None    Shift=    0.000
 Gap=     0.294 Goal=   None    Shift=    0.000
 RMSDP=2.66D-06 MaxDP=1.37D-04 DE=-9.95D-07 OVMax= 1.78D-04

 Cycle   9  Pass 1  IDiag  1:
 RMSU=  1.46D-06    CP:  9.61D-01  7.59D-01  1.01D+00  1.04D+00  1.22D+00
                    CP:  1.31D+00  1.27D+00  1.24D+00
 E= -232.951925637641     Delta-E=       -0.000000100253 Rises=F Damp=F
 DIIS: error= 4.67D-06 at cycle   9 NSaved=   9.
 NSaved= 9 IEnMin= 9 EnMin= -232.951925637641     IErMin= 9 ErrMin= 4.67D-06
 ErrMax= 4.67D-06  0.00D+00 EMaxC= 1.00D-01 BMatC= 2.73D-08 BMatP= 2.51D-07
 IDIUse=1 WtCom= 1.00D+00 WtEn= 0.00D+00
 Coeff-Com: -0.259D-03 0.535D-03 0.297D-02 0.661D-02 0.672D-02-0.539D-01
 Coeff-Com: -0.632D-01 0.222D+00 0.878D+00
 Coeff:     -0.259D-03 0.535D-03 0.297D-02 0.661D-02 0.672D-02-0.539D-01
 Coeff:     -0.632D-01 0.222D+00 0.878D+00
 Gap=     0.295 Goal=   None    Shift=    0.000
 Gap=     0.294 Goal=   None    Shift=    0.000
 RMSDP=6.72D-07 MaxDP=2.99D-05 DE=-1.00D-07 OVMax= 4.10D-05

 Cycle  10  Pass 1  IDiag  1:
 RMSU=  4.55D-07    CP:  9.61D-01  7.59D-01  1.01D+00  1.04D+00  1.22D+00
                    CP:  1.31D+00  1.28D+00  1.32D+00  9.18D-01
 E= -232.951925647888     Delta-E=       -0.000000010247 Rises=F Damp=F
 DIIS: error= 7.85D-07 at cycle  10 NSaved=  10.
 NSaved=10 IEnMin=10 EnMin= -232.951925647888     IErMin=10 ErrMin= 7.85D-07
 ErrMax= 7.85D-07  0.00D+00 EMaxC= 1.00D-01 BMatC= 1.14D-09 BMatP= 2.73D-08
 IDIUse=1 WtCom= 1.00D+00 WtEn= 0.00D+00
 Coeff-Com:  0.820D-05-0.245D-04 0.378D-04 0.452D-03 0.142D-02-0.910D-05
 Coeff-Com: -0.166D-01-0.360D-01 0.609D-01 0.990D+00
 Coeff:      0.820D-05-0.245D-04 0.378D-04 0.452D-03 0.142D-02-0.910D-05
 Coeff:     -0.166D-01-0.360D-01 0.609D-01 0.990D+00
 Gap=     0.295 Goal=   None    Shift=    0.000
 Gap=     0.294 Goal=   None    Shift=    0.000
 RMSDP=1.84D-07 MaxDP=1.11D-05 DE=-1.02D-08 OVMax= 9.79D-06

 Cycle  11  Pass 1  IDiag  1:
 RMSU=  1.16D-07    CP:  9.61D-01  7.59D-01  1.01D+00  1.04D+00  1.22D+00
                    CP:  1.31D+00  1.27D+00  1.33D+00  9.49D-01  1.19D+00
 E= -232.951925648423     Delta-E=       -0.000000000535 Rises=F Damp=F
 DIIS: error= 3.35D-07 at cycle  11 NSaved=  11.
 NSaved=11 IEnMin=11 EnMin= -232.951925648423     IErMin=11 ErrMin= 3.35D-07
 ErrMax= 3.35D-07  0.00D+00 EMaxC= 1.00D-01 BMatC= 2.14D-10 BMatP= 1.14D-09
 IDIUse=1 WtCom= 1.00D+00 WtEn= 0.00D+00
 Coeff-Com:  0.249D-04-0.539D-04-0.241D-03-0.409D-03-0.120D-03 0.448D-02
 Coeff-Com:  0.278D-03-0.292D-01-0.563D-01 0.288D+00 0.794D+00
 Coeff:      0.249D-04-0.539D-04-0.241D-03-0.409D-03-0.120D-03 0.448D-02
 Coeff:      0.278D-03-0.292D-01-0.563D-01 0.288D+00 0.794D+00
 Gap=     0.295 Goal=   None    Shift=    0.000
 Gap=     0.294 Goal=   None    Shift=    0.000
 RMSDP=6.13D-08 MaxDP=4.33D-06 DE=-5.35D-10 OVMax= 2.69D-06

 Cycle  12  Pass 1  IDiag  1:
 RMSU=  3.68D-08    CP:  9.61D-01  7.59D-01  1.01D+00  1.04D+00  1.22D+00
                    CP:  1.31D+00  1.27D+00  1.34D+00  9.47D-01  1.25D+00
                    CP:  1.18D+00
 E= -232.951925648493     Delta-E=       -0.000000000070 Rises=F Damp=F
 DIIS: error= 1.09D-07 at cycle  12 NSaved=  12.
 NSaved=12 IEnMin=12 EnMin= -232.951925648493     IErMin=12 ErrMin= 1.09D-07
 ErrMax= 1.09D-07  0.00D+00 EMaxC= 1.00D-01 BMatC= 2.41D-11 BMatP= 2.14D-10
 IDIUse=1 WtCom= 1.00D+00 WtEn= 0.00D+00
 Coeff-Com:  0.339D-05-0.737D-05-0.520D-04-0.129D-03-0.186D-03 0.900D-03
 Coeff-Com:  0.225D-02-0.131D-02-0.205D-01-0.741D-01 0.189D+00 0.904D+00
 Coeff:      0.339D-05-0.737D-05-0.520D-04-0.129D-03-0.186D-03 0.900D-03
 Coeff:      0.225D-02-0.131D-02-0.205D-01-0.741D-01 0.189D+00 0.904D+00
 Gap=     0.295 Goal=   None    Shift=    0.000
 Gap=     0.294 Goal=   None    Shift=    0.000
 RMSDP=2.83D-08 MaxDP=1.46D-06 DE=-7.02D-11 OVMax= 1.24D-06

 Cycle  13  Pass 1  IDiag  1:
 RMSU=  1.39D-08    CP:  9.61D-01  7.59D-01  1.01D+00  1.04D+00  1.22D+00
                    CP:  1.31D+00  1.27D+00  1.34D+00  9.44D-01  1.26D+00
                    CP:  1.33D+00  1.30D+00
 E= -232.951925648505     Delta-E=       -0.000000000012 Rises=F Damp=F
 DIIS: error= 2.91D-08 at cycle  13 NSaved=  13.
 NSaved=13 IEnMin=13 EnMin= -232.951925648505     IErMin=13 ErrMin= 2.91D-08
 ErrMax= 2.91D-08  0.00D+00 EMaxC= 1.00D-01 BMatC= 1.25D-12 BMatP= 2.41D-11
 IDIUse=1 WtCom= 1.00D+00 WtEn= 0.00D+00
 Coeff-Com: -0.149D-05 0.304D-05 0.998D-05 0.150D-04-0.128D-04-0.195D-03
 Coeff-Com:  0.206D-03 0.169D-02 0.138D-02-0.274D-01-0.415D-01 0.840D-01
 Coeff-Com:  0.982D+00
 Coeff:     -0.149D-05 0.304D-05 0.998D-05 0.150D-04-0.128D-04-0.195D-03
 Coeff:      0.206D-03 0.169D-02 0.138D-02-0.274D-01-0.415D-01 0.840D-01
 Coeff:      0.982D+00
 Gap=     0.295 Goal=   None    Shift=    0.000
 Gap=     0.294 Goal=   None    Shift=    0.000
 RMSDP=1.09D-08 MaxDP=6.09D-07 DE=-1.19D-11 OVMax= 5.30D-07

 Cycle  14  Pass 1  IDiag  1:
 RMSU=  4.00D-09    CP:  9.61D-01  7.59D-01  1.01D+00  1.04D+00  1.22D+00
                    CP:  1.31D+00  1.27D+00  1.34D+00  9.44D-01  1.25D+00
                    CP:  1.38D+00  1.42D+00  1.23D+00
 E= -232.951925648505     Delta-E=        0.000000000000 Rises=F Damp=F
 DIIS: error= 1.05D-08 at cycle  14 NSaved=  14.
 NSaved=14 IEnMin=13 EnMin= -232.951925648505     IErMin=14 ErrMin= 1.05D-08
 ErrMax= 1.05D-08  0.00D+00 EMaxC= 1.00D-01 BMatC= 1.34D-13 BMatP= 1.25D-12
 IDIUse=1 WtCom= 1.00D+00 WtEn= 0.00D+00
 Coeff-Com: -0.446D-06 0.980D-06 0.485D-05 0.105D-04 0.810D-05-0.852D-04
 Coeff-Com: -0.111D-03 0.320D-03 0.179D-02 0.136D-02-0.218D-01-0.569D-01
 Coeff-Com:  0.146D+00 0.929D+00
 Coeff:     -0.446D-06 0.980D-06 0.485D-05 0.105D-04 0.810D-05-0.852D-04
 Coeff:     -0.111D-03 0.320D-03 0.179D-02 0.136D-02-0.218D-01-0.569D-01
 Coeff:      0.146D+00 0.929D+00
 Gap=     0.295 Goal=   None    Shift=    0.000
 Gap=     0.294 Goal=   None    Shift=    0.000
 RMSDP=2.35D-09 MaxDP=9.63D-08 DE= 3.98D-13 OVMax= 1.40D-07

 SCF Done:  E(UM062X) =  -232.951925649     A.U. after   14 cycles
            NFock= 14  Conv=0.23D-08     -V/T= 2.0039
 <Sx>= 0.0000 <Sy>= 0.0000 <Sz>= 0.5000 <S**2>= 0.7553 S= 0.5027
 <L.S>= 0.000000000000E+00
 KE= 2.320544781323D+02 PE=-9.197718814014D+02 EE= 2.663433264909D+02
 Annihilation of the first spin contaminant:
 S**2 before annihilation     0.7553,   after     0.7500
 Leave Link  502 at Tue Apr  9 01:19:54 2019, MaxMem=   671088640 cpu:             918.0 elap:              46.0
 (Enter /shared/centos7/gaussian/g16/l801.exe)
 DoSCS=F DFT=T ScalE2(SS,OS)=  1.000000  1.000000
 Range of M.O.s used for correlation:     1   251
 NBasis=   251 NAE=    21 NBE=    20 NFC=     0 NFV=     0
 NROrb=    251 NOA=    21 NOB=    20 NVA=   230 NVB=   231

 **** Warning!!: The largest alpha MO coefficient is  0.66995503D+02


 **** Warning!!: The largest beta MO coefficient is  0.64001239D+02

 Leave Link  801 at Tue Apr  9 01:19:54 2019, MaxMem=   671088640 cpu:               0.5 elap:               0.0
 (Enter /shared/centos7/gaussian/g16/l1101.exe)
 Using compressed storage, NAtomX=    14.
 Will process     15 centers per pass.
 Leave Link 1101 at Tue Apr  9 01:19:54 2019, MaxMem=   671088640 cpu:               6.3 elap:               0.3
 (Enter /shared/centos7/gaussian/g16/l1102.exe)
 Symmetrizing basis deriv contribution to polar:
 IMax=3 JMax=2 DiffMx= 0.00D+00
 Leave Link 1102 at Tue Apr  9 01:19:54 2019, MaxMem=   671088640 cpu:               0.5 elap:               0.1
 (Enter /shared/centos7/gaussian/g16/l1110.exe)
 Forming Gx(P) for the SCF density, NAtomX=    14.
 Integral derivatives from FoFJK, PRISM(SPDF).
 Do as many integral derivatives as possible in FoFJK.
 G2DrvN: MDV=     671087496.
 G2DrvN: will do    15 centers at a time, making    1 passes.
 Calling FoFCou, ICntrl=  3107 FMM=F I1Cent=   0 AccDes= 0.00D+00.
 FoFJK:  IHMeth= 1 ICntrl=    3107 DoSepK=F KAlg= 0 I1Cent=           0 FoldK=F
 IRaf=         0 NMat=       1 IRICut=       1 DoRegI=T DoRafI=F ISym2E= 0 IDoP0=0 IntGTp=1.
 FoFCou: FMM=F IPFlag=           0 FMFlag=      100000 FMFlg1=           0
         NFxFlg=           0 DoJE=F BraDBF=F KetDBF=F FulRan=T
         wScrn=  0.000000 ICntrl=      3107 IOpCl=  1 I1Cent=           0 NGrid=           0
         NMat0=    1 NMatS0=      1 NMatT0=    0 NMatD0=    1 NMtDS0=    0 NMtDT0=    0
 Symmetry not used in FoFCou.
 End of G2Drv F.D. properties file   721 does not exist.
 End of G2Drv F.D. properties file   722 does not exist.
 End of G2Drv F.D. properties file   788 does not exist.
 Leave Link 1110 at Tue Apr  9 01:21:23 2019, MaxMem=   671088640 cpu:            1786.4 elap:              89.3
 (Enter /shared/centos7/gaussian/g16/l1002.exe)
 Minotr:  UHF open shell wavefunction.
          IDoAtm=11111111111111
          Direct CPHF calculation.
          Differentiating once with respect to nuclear coordinates.
          Requested convergence is 1.0D-08 RMS, and 1.0D-07 maximum.
          Secondary convergence is 1.0D-12 RMS, and 1.0D-12 maximum.
          NewPWx=T KeepS1=F KeepF1=F KeepIn=T MapXYZ=F SortEE=F KeepMc=T.
         4243 words used for storage of precomputed grid.
 Two-electron integrals replicated using symmetry.
          MDV=     671088640 using IRadAn=       1.
          Solving linear equations simultaneously, MaxMat=     380.
 FoF2E skips out because all densities are zero.
 CalDSu exits because no D1Ps are significant.
 FoFJK:  IHMeth= 1 ICntrl=       0 DoSepK=F KAlg= 0 I1Cent=           0 FoldK=F
 IRaf= 990000000 NMat=      42 IRICut=     105 DoRegI=T DoRafI=T ISym2E= 2 IDoP0=3 IntGTp=3.
 FoFCou: FMM=F IPFlag=           0 FMFlag=      100000 FMFlg1=           0
         NFxFlg=           0 DoJE=F BraDBF=F KetDBF=F FulRan=T
         wScrn=  0.000000 ICntrl=         0 IOpCl=  1 I1Cent=           0 NGrid=           0
         NMat0=   42 NMatS0=     42 NMatT0=    0 NMatD0=   42 NMtDS0=    0 NMtDT0=    0
 Integrals replicated using symmetry in FoFCou.
 Raff kept on since  97.67% of shell-pairs survive, threshold=   0.20 IRatSp=98.
          There are    45 degrees of freedom in the 1st order CPHF.  IDoFFX=6 NUNeed=     0.
     39 vectors produced by pass  0 Test12= 2.10D-14 2.22D-09 XBig12= 1.23D-01 8.65D-02.
 AX will form    39 AO Fock derivatives at one time.
     39 vectors produced by pass  1 Test12= 2.10D-14 2.22D-09 XBig12= 1.38D-02 1.91D-02.
     39 vectors produced by pass  2 Test12= 2.10D-14 2.22D-09 XBig12= 8.00D-04 5.53D-03.
     39 vectors produced by pass  3 Test12= 2.10D-14 2.22D-09 XBig12= 1.63D-05 5.86D-04.
     39 vectors produced by pass  4 Test12= 2.10D-14 2.22D-09 XBig12= 1.94D-07 4.52D-05.
     39 vectors produced by pass  5 Test12= 2.10D-14 2.22D-09 XBig12= 1.94D-09 3.38D-06.
     39 vectors produced by pass  6 Test12= 2.10D-14 2.22D-09 XBig12= 1.39D-11 3.17D-07.
     15 vectors produced by pass  7 Test12= 2.10D-14 2.22D-09 XBig12= 9.15D-14 2.46D-08.
 InvSVY:  IOpt=1 It=  1 EMax= 2.00D-15
 Solved reduced A of dimension   288 with    39 vectors.
 End of Minotr F.D. properties file   721 does not exist.
 End of Minotr F.D. properties file   722 does not exist.
 End of Minotr F.D. properties file   788 does not exist.
 Leave Link 1002 at Tue Apr  9 01:23:48 2019, MaxMem=   671088640 cpu:            2884.2 elap:             144.2
 (Enter /shared/centos7/gaussian/g16/l601.exe)
 Copying SCF densities to generalized density rwf, IOpCl= 1 IROHF=0.

 **********************************************************************

            Population analysis using the SCF density.

 **********************************************************************

 Orbital symmetries:
 Alpha Orbitals:
       Occupied  (A) (A) (A) (A) (A) (A) (A) (A) (A) (A) (A) (A)
                 (A) (A) (A) (A) (A) (A) (A) (A) (A)
       Virtual   (A) (A) (A) (A) (A) (A) (A) (A) (A) (A) (A) (A)
                 (A) (A) (A) (A) (A) (A) (A) (A) (A) (A) (A) (A)
                 (A) (A) (A) (A) (A) (A) (A) (A) (A) (A) (A) (A)
                 (A) (A) (A) (A) (A) (A) (A) (A) (A) (A) (A) (A)
                 (A) (A) (A) (A) (A) (A) (A) (A) (A) (A) (A) (A)
                 (A) (A) (A) (A) (A) (A) (A) (A) (A) (A) (A) (A)
                 (A) (A) (A) (A) (A) (A) (A) (A) (A) (A) (A) (A)
                 (A) (A) (A) (A) (A) (A) (A) (A) (A) (A) (A) (A)
                 (A) (A) (A) (A) (A) (A) (A) (A) (A) (A) (A) (A)
                 (A) (A) (A) (A) (A) (A) (A) (A) (A) (A) (A) (A)
                 (A) (A) (A) (A) (A) (A) (A) (A) (A) (A) (A) (A)
                 (A) (A) (A) (A) (A) (A) (A) (A) (A) (A) (A) (A)
                 (A) (A) (A) (A) (A) (A) (A) (A) (A) (A) (A) (A)
                 (A) (A) (A) (A) (A) (A) (A) (A) (A) (A) (A) (A)
                 (A) (A) (A) (A) (A) (A) (A) (A) (A) (A) (A) (A)
                 (A) (A) (A) (A) (A) (A) (A) (A) (A) (A) (A) (A)
                 (A) (A) (A) (A) (A) (A) (A) (A) (A) (A) (A) (A)
                 (A) (A) (A) (A) (A) (A) (A) (A) (A) (A) (A) (A)
                 (A) (A) (A) (A) (A) (A) (A) (A) (A) (A) (A) (A)
                 (A) (A)
 Beta  Orbitals:
       Occupied  (A) (A) (A) (A) (A) (A) (A) (A) (A) (A) (A) (A)
                 (A) (A) (A) (A) (A) (A) (A) (A)
       Virtual   (A) (A) (A) (A) (A) (A) (A) (A) (A) (A) (A) (A)
                 (A) (A) (A) (A) (A) (A) (A) (A) (A) (A) (A) (A)
                 (A) (A) (A) (A) (A) (A) (A) (A) (A) (A) (A) (A)
                 (A) (A) (A) (A) (A) (A) (A) (A) (A) (A) (A) (A)
                 (A) (A) (A) (A) (A) (A) (A) (A) (A) (A) (A) (A)
                 (A) (A) (A) (A) (A) (A) (A) (A) (A) (A) (A) (A)
                 (A) (A) (A) (A) (A) (A) (A) (A) (A) (A) (A) (A)
                 (A) (A) (A) (A) (A) (A) (A) (A) (A) (A) (A) (A)
                 (A) (A) (A) (A) (A) (A) (A) (A) (A) (A) (A) (A)
                 (A) (A) (A) (A) (A) (A) (A) (A) (A) (A) (A) (A)
                 (A) (A) (A) (A) (A) (A) (A) (A) (A) (A) (A) (A)
                 (A) (A) (A) (A) (A) (A) (A) (A) (A) (A) (A) (A)
                 (A) (A) (A) (A) (A) (A) (A) (A) (A) (A) (A) (A)
                 (A) (A) (A) (A) (A) (A) (A) (A) (A) (A) (A) (A)
                 (A) (A) (A) (A) (A) (A) (A) (A) (A) (A) (A) (A)
                 (A) (A) (A) (A) (A) (A) (A) (A) (A) (A) (A) (A)
                 (A) (A) (A) (A) (A) (A) (A) (A) (A) (A) (A) (A)
                 (A) (A) (A) (A) (A) (A) (A) (A) (A) (A) (A) (A)
                 (A) (A) (A) (A) (A) (A) (A) (A) (A) (A) (A) (A)
                 (A) (A) (A)
 The electronic state is 2-A.
 Alpha  occ. eigenvalues --  -19.61149 -10.57710 -10.55988 -10.54803 -10.53486
 Alpha  occ. eigenvalues --   -1.14634  -0.91052  -0.81958  -0.72954  -0.66156
 Alpha  occ. eigenvalues --   -0.57945  -0.55645  -0.53974  -0.49371  -0.48321
 Alpha  occ. eigenvalues --   -0.46271  -0.42361  -0.40595  -0.39109  -0.33607
 Alpha  occ. eigenvalues --   -0.28159
 Alpha virt. eigenvalues --    0.01383   0.02876   0.02987   0.04298   0.05760
 Alpha virt. eigenvalues --    0.06356   0.07109   0.07598   0.08119   0.10545
 Alpha virt. eigenvalues --    0.10855   0.11754   0.12639   0.13377   0.14240
 Alpha virt. eigenvalues --    0.14948   0.17777   0.19331   0.21487   0.22127
 Alpha virt. eigenvalues --    0.22917   0.24319   0.24762   0.26326   0.26963
 Alpha virt. eigenvalues --    0.27958   0.29247   0.29902   0.30293   0.31133
 Alpha virt. eigenvalues --    0.32702   0.34906   0.37395   0.41266   0.44728
 Alpha virt. eigenvalues --    0.46030   0.46604   0.47912   0.49695   0.51681
 Alpha virt. eigenvalues --    0.53386   0.55230   0.56005   0.56908   0.57626
 Alpha virt. eigenvalues --    0.58801   0.59400   0.60946   0.61877   0.63482
 Alpha virt. eigenvalues --    0.64348   0.65413   0.66561   0.67579   0.68911
 Alpha virt. eigenvalues --    0.71422   0.74661   0.74902   0.79120   0.84739
 Alpha virt. eigenvalues --    0.85121   0.86686   0.90108   0.94389   0.94693
 Alpha virt. eigenvalues --    0.98937   1.00443   1.01555   1.04255   1.06596
 Alpha virt. eigenvalues --    1.07268   1.10268   1.11294   1.13205   1.15696
 Alpha virt. eigenvalues --    1.17190   1.18961   1.20143   1.22353   1.24160
 Alpha virt. eigenvalues --    1.25307   1.25755   1.28747   1.29290   1.33266
 Alpha virt. eigenvalues --    1.33912   1.34646   1.37179   1.37772   1.38955
 Alpha virt. eigenvalues --    1.41124   1.43793   1.44337   1.46869   1.47398
 Alpha virt. eigenvalues --    1.48653   1.48740   1.50638   1.52896   1.54476
 Alpha virt. eigenvalues --    1.56199   1.57813   1.59251   1.62209   1.64406
 Alpha virt. eigenvalues --    1.65988   1.74383   1.76856   1.83885   2.01187
 Alpha virt. eigenvalues --    2.12853   2.21025   2.31422   2.35796   2.43229
 Alpha virt. eigenvalues --    2.46431   2.52238   2.55287   2.60364   2.63087
 Alpha virt. eigenvalues --    2.69754   2.70804   2.74188   2.76251   2.76931
 Alpha virt. eigenvalues --    2.81122   2.83369   2.86474   2.88734   2.92195
 Alpha virt. eigenvalues --    2.96461   2.99563   3.02281   3.03937   3.05713
 Alpha virt. eigenvalues --    3.07884   3.09975   3.13225   3.18592   3.19692
 Alpha virt. eigenvalues --    3.22854   3.25306   3.25800   3.27807   3.30101
 Alpha virt. eigenvalues --    3.32778   3.33193   3.35380   3.37150   3.41073
 Alpha virt. eigenvalues --    3.42087   3.46695   3.49013   3.51770   3.53715
 Alpha virt. eigenvalues --    3.54485   3.57079   3.59900   3.65226   3.67496
 Alpha virt. eigenvalues --    3.72189   3.75705   3.76099   3.76952   3.80642
 Alpha virt. eigenvalues --    3.82463   3.83394   3.85800   3.89329   3.92076
 Alpha virt. eigenvalues --    3.97323   3.97859   4.00523   4.01284   4.03704
 Alpha virt. eigenvalues --    4.09526   4.12262   4.15457   4.15786   4.17386
 Alpha virt. eigenvalues --    4.20526   4.21380   4.24585   4.25290   4.28884
 Alpha virt. eigenvalues --    4.31260   4.32557   4.34298   4.39378   4.40294
 Alpha virt. eigenvalues --    4.43314   4.47453   4.50415   4.53797   4.55181
 Alpha virt. eigenvalues --    4.58822   4.63308   4.63439   4.70878   4.73609
 Alpha virt. eigenvalues --    4.89082   5.03499   5.17572   5.24236   5.26117
 Alpha virt. eigenvalues --    5.28931   5.40635   5.42613   5.45730   5.47837
 Alpha virt. eigenvalues --    5.51558   5.53429   5.56617   5.60169   5.62951
 Alpha virt. eigenvalues --    5.65963   5.94486   6.01153   6.62230   7.01277
 Alpha virt. eigenvalues --    7.10306   7.26171   7.31753   7.53253   7.66849
 Alpha virt. eigenvalues --   24.19948  24.30679  24.44565  24.53060  50.18439
  Beta  occ. eigenvalues --  -19.61011 -10.57714 -10.55303 -10.54850 -10.53480
  Beta  occ. eigenvalues --   -1.14182  -0.90175  -0.80580  -0.71355  -0.65088
  Beta  occ. eigenvalues --   -0.57288  -0.54863  -0.53448  -0.48844  -0.47600
  Beta  occ. eigenvalues --   -0.44966  -0.41857  -0.40295  -0.38063  -0.33413
  Beta virt. eigenvalues --   -0.03990   0.01082   0.02755   0.02988   0.04240
  Beta virt. eigenvalues --    0.05783   0.06424   0.06896   0.07435   0.08525
  Beta virt. eigenvalues --    0.10578   0.10928   0.11574   0.12277   0.13019
  Beta virt. eigenvalues --    0.14260   0.14627   0.17913   0.19699   0.21822
  Beta virt. eigenvalues --    0.22301   0.23567   0.24454   0.25184   0.26816
  Beta virt. eigenvalues --    0.27035   0.28011   0.29673   0.29986   0.30224
  Beta virt. eigenvalues --    0.31163   0.32805   0.35013   0.37352   0.41494
  Beta virt. eigenvalues --    0.45422   0.46258   0.46802   0.48028   0.50396
  Beta virt. eigenvalues --    0.52156   0.53631   0.55745   0.56270   0.56893
  Beta virt. eigenvalues --    0.58409   0.59017   0.59704   0.61353   0.62147
  Beta virt. eigenvalues --    0.63796   0.64830   0.65210   0.66701   0.67665
  Beta virt. eigenvalues --    0.69028   0.71389   0.74694   0.75337   0.79101
  Beta virt. eigenvalues --    0.84860   0.85098   0.86682   0.90969   0.94425
  Beta virt. eigenvalues --    0.94722   0.99012   0.99960   1.01767   1.04527
  Beta virt. eigenvalues --    1.06672   1.07241   1.10222   1.11148   1.13341
  Beta virt. eigenvalues --    1.15877   1.17440   1.19256   1.20348   1.22246
  Beta virt. eigenvalues --    1.24728   1.25405   1.26058   1.28895   1.29520
  Beta virt. eigenvalues --    1.33293   1.34196   1.34856   1.37465   1.38313
  Beta virt. eigenvalues --    1.39332   1.41309   1.44237   1.44551   1.47025
  Beta virt. eigenvalues --    1.47757   1.48670   1.49083   1.51341   1.53279
  Beta virt. eigenvalues --    1.54554   1.56599   1.57651   1.59260   1.62450
  Beta virt. eigenvalues --    1.64711   1.66913   1.74515   1.77052   1.83853
  Beta virt. eigenvalues --    2.01386   2.12929   2.21341   2.31691   2.36265
  Beta virt. eigenvalues --    2.43703   2.46864   2.52666   2.55796   2.61608
  Beta virt. eigenvalues --    2.63504   2.70550   2.71535   2.75999   2.77444
  Beta virt. eigenvalues --    2.78308   2.82987   2.84362   2.87077   2.90457
  Beta virt. eigenvalues --    2.94285   2.97985   3.01929   3.04394   3.07075
  Beta virt. eigenvalues --    3.08431   3.09712   3.11608   3.14010   3.19835
  Beta virt. eigenvalues --    3.21100   3.24206   3.26168   3.26452   3.28155
  Beta virt. eigenvalues --    3.31949   3.34540   3.34702   3.36889   3.39026
  Beta virt. eigenvalues --    3.42555   3.46588   3.47755   3.51826   3.52677
  Beta virt. eigenvalues --    3.54908   3.55679   3.58270   3.63553   3.66454
  Beta virt. eigenvalues --    3.68347   3.73092   3.75973   3.76687   3.77576
  Beta virt. eigenvalues --    3.81330   3.83597   3.84771   3.86525   3.89621
  Beta virt. eigenvalues --    3.92937   3.97870   3.98919   4.01601   4.02639
  Beta virt. eigenvalues --    4.04201   4.10712   4.12988   4.15832   4.17160
  Beta virt. eigenvalues --    4.19484   4.20662   4.22588   4.26107   4.26180
  Beta virt. eigenvalues --    4.29754   4.32002   4.33213   4.35202   4.40057
  Beta virt. eigenvalues --    4.41322   4.44356   4.48242   4.51725   4.54141
  Beta virt. eigenvalues --    4.55923   4.59345   4.63535   4.64662   4.71942
  Beta virt. eigenvalues --    4.75587   4.91231   5.04814   5.19117   5.24686
  Beta virt. eigenvalues --    5.26377   5.29277   5.41060   5.44222   5.46214
  Beta virt. eigenvalues --    5.52031   5.52544   5.54402   5.57315   5.60885
  Beta virt. eigenvalues --    5.63049   5.66324   5.94534   6.01332   6.62241
  Beta virt. eigenvalues --    7.01966   7.10387   7.26323   7.32284   7.53622
  Beta virt. eigenvalues --    7.67417  24.20773  24.31068  24.44805  24.53173
  Beta virt. eigenvalues --   50.18258
          Condensed to atoms (all electrons):
               1          2          3          4          5          6
     1  O    8.144209  -0.035511   0.011390   0.113667  -0.039081  -0.003359
     2  C   -0.035511   5.414839   0.003704   0.145656  -0.024685   0.464939
     3  C    0.011390   0.003704   5.465530   0.072181  -0.003071  -0.063523
     4  C    0.113667   0.145656   0.072181   5.194518  -0.038425  -0.048393
     5  C   -0.039081  -0.024685  -0.003071  -0.038425   5.824315   0.016627
     6  H   -0.003359   0.464939  -0.063523  -0.048393   0.016627   0.525772
     7  H    0.007691   0.467984  -0.047955  -0.063059  -0.001724  -0.030274
     8  H   -0.001898  -0.082966   0.461248   0.027505  -0.054135   0.001610
     9  H   -0.003397  -0.039510   0.455317  -0.011611  -0.058131  -0.013455
    10  H   -0.056427  -0.059721   0.020144   0.452046  -0.001019  -0.011575
    11  H   -0.061250  -0.015035  -0.019129   0.438367  -0.010064   0.006498
    12  H    0.001889   0.013999  -0.043664  -0.001346   0.407814  -0.000146
    13  H    0.000417   0.012140  -0.032481  -0.006617   0.381881  -0.000370
    14  H    0.266897  -0.052604   0.037109  -0.003841   0.013821  -0.000177
               7          8          9         10         11         12
     1  O    0.007691  -0.001898  -0.003397  -0.056427  -0.061250   0.001889
     2  C    0.467984  -0.082966  -0.039510  -0.059721  -0.015035   0.013999
     3  C   -0.047955   0.461248   0.455317   0.020144  -0.019129  -0.043664
     4  C   -0.063059   0.027505  -0.011611   0.452046   0.438367  -0.001346
     5  C   -0.001724  -0.054135  -0.058131  -0.001019  -0.010064   0.407814
     6  H   -0.030274   0.001610  -0.013455  -0.011575   0.006498  -0.000146
     7  H    0.522969  -0.012485   0.006216   0.001646  -0.012127  -0.000268
     8  H   -0.012485   0.547668  -0.033827  -0.000324   0.000050  -0.004317
     9  H    0.006216  -0.033827   0.513995   0.000147  -0.000934  -0.002399
    10  H    0.001646  -0.000324   0.000147   0.550526  -0.036453   0.000037
    11  H   -0.012127   0.000050  -0.000934  -0.036453   0.578794   0.000111
    12  H   -0.000268  -0.004317  -0.002399   0.000037   0.000111   0.476086
    13  H    0.000654  -0.000563   0.004645   0.000177  -0.002675  -0.018319
    14  H    0.000205   0.001279  -0.004425   0.007998  -0.002062  -0.001393
              13         14
     1  O    0.000417   0.266897
     2  C    0.012140  -0.052604
     3  C   -0.032481   0.037109
     4  C   -0.006617  -0.003841
     5  C    0.381881   0.013821
     6  H   -0.000370  -0.000177
     7  H    0.000654   0.000205
     8  H   -0.000563   0.001279
     9  H    0.004645  -0.004425
    10  H    0.000177   0.007998
    11  H   -0.002675  -0.002062
    12  H   -0.018319  -0.001393
    13  H    0.473039  -0.004229
    14  H   -0.004229   0.469189
          Atomic-Atomic Spin Densities.
               1          2          3          4          5          6
     1  O    0.068005   0.007209   0.009331  -0.012216  -0.048120  -0.000831
     2  C    0.007209   0.089310   0.001424  -0.055348  -0.053434  -0.007713
     3  C    0.009331   0.001424  -0.016086   0.000708  -0.096794   0.002520
     4  C   -0.012216  -0.055348   0.000708   0.056325   0.036977   0.003976
     5  C   -0.048120  -0.053434  -0.096794   0.036977   1.231734   0.001930
     6  H   -0.000831  -0.007713   0.002520   0.003976   0.001930  -0.000745
     7  H    0.000374   0.006295  -0.005396  -0.005107   0.003722   0.000105
     8  H   -0.001637  -0.039326   0.041176   0.014682  -0.031998   0.001069
     9  H    0.002761   0.023836   0.003754  -0.009454  -0.019191  -0.000883
    10  H    0.001932   0.010880  -0.000554  -0.011547  -0.002273  -0.000249
    11  H   -0.001181  -0.001765  -0.002338   0.001948   0.002221  -0.000061
    12  H    0.000826   0.004526   0.008728  -0.001492  -0.019761  -0.000017
    13  H    0.001598   0.005899   0.006936  -0.001344  -0.019910  -0.000034
    14  H    0.021690   0.006735  -0.006198  -0.001633   0.025781   0.000535
               7          8          9         10         11         12
     1  O    0.000374  -0.001637   0.002761   0.001932  -0.001181   0.000826
     2  C    0.006295  -0.039326   0.023836   0.010880  -0.001765   0.004526
     3  C   -0.005396   0.041176   0.003754  -0.000554  -0.002338   0.008728
     4  C   -0.005107   0.014682  -0.009454  -0.011547   0.001948  -0.001492
     5  C    0.003722  -0.031998  -0.019191  -0.002273   0.002221  -0.019761
     6  H    0.000105   0.001069  -0.000883  -0.000249  -0.000061  -0.000017
     7  H    0.000283  -0.001055   0.000257  -0.000039   0.000270  -0.000012
     8  H   -0.001055   0.086474  -0.012679  -0.000190   0.000032  -0.002503
     9  H    0.000257  -0.012679   0.027891   0.000195   0.000020   0.001864
    10  H   -0.000039  -0.000190   0.000195   0.005750   0.000459   0.000013
    11  H    0.000270   0.000032   0.000020   0.000459  -0.002275  -0.000039
    12  H   -0.000012  -0.002503   0.001864   0.000013  -0.000039  -0.037595
    13  H   -0.000072  -0.002021   0.000341   0.000132  -0.000159   0.006830
    14  H   -0.000276   0.000711  -0.001388  -0.002027   0.001480  -0.000463
              13         14
     1  O    0.001598   0.021690
     2  C    0.005899   0.006735
     3  C    0.006936  -0.006198
     4  C   -0.001344  -0.001633
     5  C   -0.019910   0.025781
     6  H   -0.000034   0.000535
     7  H   -0.000072  -0.000276
     8  H   -0.002021   0.000711
     9  H    0.000341  -0.001388
    10  H    0.000132  -0.002027
    11  H   -0.000159   0.001480
    12  H    0.006830  -0.000463
    13  H   -0.041181   0.000513
    14  H    0.000513  -0.056831
 Mulliken charges and spin densities:
               1          2
     1  O   -0.345235   0.049741
     2  C   -0.213227  -0.001472
     3  C   -0.316800  -0.052791
     4  C   -0.270647   0.016477
     5  C   -0.414124   1.010885
     6  H    0.155824  -0.000400
     7  H    0.160527  -0.000651
     8  H    0.151155   0.052735
     9  H    0.187369   0.017322
    10  H    0.132797   0.002481
    11  H    0.135910  -0.001389
    12  H    0.171915  -0.039095
    13  H    0.192302  -0.042472
    14  H    0.272233  -0.011371
 Sum of Mulliken charges =  -0.00000   1.00000
 Mulliken charges and spin densities with hydrogens summed into heavy atoms:
               1          2
     1  O   -0.073002   0.038371
     2  C    0.103124  -0.002523
     3  C    0.021724   0.017266
     4  C   -0.001940   0.017569
     5  C   -0.049907   0.929318
 APT charges:
               1
     1  O   -0.508206
     2  C   -0.783535
     3  C   -0.859160
     4  C   -0.715799
     5  C   -0.887756
     6  H    0.418849
     7  H    0.417632
     8  H    0.465861
     9  H    0.391609
    10  H    0.483480
    11  H    0.330513
    12  H    0.560796
    13  H    0.317516
    14  H    0.368200
 Sum of APT charges =  -0.00000
 APT charges with hydrogens summed into heavy atoms:
               1
     1  O   -0.140006
     2  C    0.052946
     3  C   -0.001689
     4  C    0.098194
     5  C   -0.009445
 Electronic spatial extent (au):  <R**2>=            453.7549
 Charge=             -0.0000 electrons
 Dipole moment (field-independent basis, Debye):
    X=              2.0199    Y=              1.1745    Z=              0.7523  Tot=              2.4547
 Quadrupole moment (field-independent basis, Debye-Ang):
   XX=            -34.2805   YY=            -33.4802   ZZ=            -33.1031
   XY=             -3.2437   XZ=             -1.6546   YZ=             -0.6821
 Traceless Quadrupole moment (field-independent basis, Debye-Ang):
   XX=             -0.6592   YY=              0.1411   ZZ=              0.5182
   XY=             -3.2437   XZ=             -1.6546   YZ=             -0.6821
 Octapole moment (field-independent basis, Debye-Ang**2):
  XXX=             -0.5252  YYY=             -1.8663  ZZZ=             -0.8416  XYY=              2.2802
  XXY=              3.8216  XXZ=              0.5589  XZZ=             -0.2514  YZZ=             -0.5147
  YYZ=             -0.4234  XYZ=              1.8791
 Hexadecapole moment (field-independent basis, Debye-Ang**3):
 XXXX=           -322.3153 YYYY=           -202.8607 ZZZZ=            -84.3559 XXXY=             -8.1010
 XXXZ=             -3.1801 YYYX=              0.7125 YYYZ=              3.1553 ZZZX=             -0.6257
 ZZZY=             -0.8067 XXYY=            -89.0699 XXZZ=            -73.0936 YYZZ=            -46.1967
 XXYZ=             -0.6957 YYXZ=              0.5254 ZZXY=              0.6180
 N-N= 1.884221511298D+02 E-N=-9.197718811667D+02  KE= 2.320544781323D+02
  Exact polarizability:   0.000   0.000   0.000   0.000   0.000   0.000
 Approx polarizability:  62.595  -1.373  61.874   0.081   0.056  60.235
                          Isotropic Fermi Contact Couplings
        Atom                 a.u.       MegaHertz       Gauss      10(-4) cm-1
     1  O(17)              0.01877     -11.37600      -4.05924      -3.79463
     2  C(13)              0.00233       2.62331       0.93606       0.87504
     3  C(13)             -0.02530     -28.43778     -10.14731      -9.48582
     4  C(13)             -0.00268      -3.01073      -1.07430      -1.00427
     5  C(13)              0.20939     235.39021      83.99308      78.51772
     6  H(1)              -0.00041      -1.81565      -0.64787      -0.60563
     7  H(1)              -0.00019      -0.86091      -0.30719      -0.28717
     8  H(1)               0.03030     135.42752      48.32391      45.17376
     9  H(1)               0.01037      46.33544      16.53364      15.45584
    10  H(1)               0.00146       6.54549       2.33559       2.18334
    11  H(1)              -0.00013      -0.56390      -0.20121      -0.18810
    12  H(1)              -0.01192     -53.30311     -19.01987     -17.78000
    13  H(1)              -0.01171     -52.32574     -18.67112     -17.45399
    14  H(1)              -0.00928     -41.50229     -14.80905     -13.84367
 --------------------------------------------------------
       Center         ----  Spin Dipole Couplings  ----
                      3XX-RR        3YY-RR        3ZZ-RR
 --------------------------------------------------------
     1   Atom        0.256973     -0.126112     -0.130861
     2   Atom        0.006557      0.004165     -0.010722
     3   Atom       -0.006451      0.018973     -0.012522
     4   Atom        0.008076     -0.000942     -0.007135
     5   Atom        0.250474     -0.108285     -0.142189
     6   Atom       -0.000398      0.003233     -0.002835
     7   Atom       -0.001282      0.005089     -0.003807
     8   Atom       -0.003567      0.012483     -0.008915
     9   Atom       -0.009058      0.001058      0.008000
    10   Atom        0.002623      0.000020     -0.002643
    11   Atom        0.004906     -0.003674     -0.001232
    12   Atom        0.048632     -0.009803     -0.038829
    13   Atom       -0.018297     -0.046993      0.065290
    14   Atom        0.074599     -0.037914     -0.036686
 --------------------------------------------------------
                        XY            XZ            YZ
 --------------------------------------------------------
     1   Atom       -0.096841      0.084395     -0.022864
     2   Atom       -0.011027     -0.000142     -0.000293
     3   Atom        0.013179      0.007484      0.003124
     4   Atom       -0.007587     -0.002398      0.003291
     5   Atom        0.557362      0.530085      0.392881
     6   Atom       -0.003706      0.001554     -0.002562
     7   Atom       -0.004418     -0.001428      0.002799
     8   Atom        0.007203      0.001176     -0.004470
     9   Atom        0.000892     -0.001016     -0.014287
    10   Atom       -0.003540     -0.000145      0.000691
    11   Atom       -0.004211     -0.005511      0.003456
    12   Atom       -0.037176     -0.011022      0.037169
    13   Atom        0.029364     -0.023462     -0.004627
    14   Atom       -0.011545      0.026950      0.003168
 --------------------------------------------------------


 ---------------------------------------------------------------------------------
              Anisotropic Spin Dipole Couplings in Principal Axis System
 ---------------------------------------------------------------------------------

       Atom             a.u.   MegaHertz   Gauss  10(-4) cm-1        Axes

              Baa    -0.1516    10.967     3.913     3.658  0.0425  0.7523  0.6575
     1 O(17)  Bbb    -0.1463    10.587     3.778     3.531 -0.3004 -0.6180  0.7265
              Bcc     0.2979   -21.554    -7.691    -7.190  0.9529 -0.2284  0.1997
 
              Baa    -0.0107    -1.442    -0.514    -0.481  0.0392  0.0486  0.9981
     2 C(13)  Bbb    -0.0057    -0.766    -0.273    -0.256  0.6668  0.7426 -0.0623
              Bcc     0.0165     2.208     0.788     0.736  0.7442 -0.6679  0.0033
 
              Baa    -0.0184    -2.466    -0.880    -0.823 -0.6500  0.1673  0.7413
     3 C(13)  Bbb    -0.0071    -0.953    -0.340    -0.318  0.6413 -0.4025  0.6532
              Bcc     0.0255     3.419     1.220     1.140  0.4077  0.9000  0.1543
 
              Baa    -0.0086    -1.157    -0.413    -0.386 -0.0818 -0.4597  0.8843
     4 C(13)  Bbb    -0.0045    -0.598    -0.213    -0.199  0.5263  0.7335  0.4300
              Bcc     0.0131     1.755     0.626     0.585  0.8463 -0.5006 -0.1819
 
              Baa    -0.5189   -69.632   -24.846   -23.227 -0.1508  0.7826 -0.6040
     5 C(13)  Bbb    -0.5096   -68.380   -24.400   -22.809  0.6949 -0.3506 -0.6278
              Bcc     1.0285   138.011    49.246    46.036  0.7031  0.5144  0.4910
 
              Baa    -0.0038    -2.026    -0.723    -0.676 -0.1339  0.2762  0.9517
     6 H(1)   Bbb    -0.0027    -1.445    -0.516    -0.482  0.8539  0.5195 -0.0306
              Bcc     0.0065     3.471     1.239     1.158 -0.5029  0.8086 -0.3054
 
              Baa    -0.0046    -2.471    -0.882    -0.824  0.1125 -0.2274  0.9673
     7 H(1)   Bbb    -0.0035    -1.890    -0.675    -0.631  0.8906  0.4547  0.0033
              Bcc     0.0082     4.362     1.556     1.455 -0.4406  0.8611  0.2537
 
              Baa    -0.0110    -5.873    -2.095    -1.959 -0.4187  0.2921  0.8599
     8 H(1)   Bbb    -0.0048    -2.568    -0.916    -0.856  0.8436 -0.2254  0.4874
              Bcc     0.0158     8.440     3.012     2.815  0.3361  0.9295 -0.1520
 
              Baa    -0.0102    -5.431    -1.938    -1.812 -0.0694  0.7862  0.6140
     9 H(1)   Bbb    -0.0091    -4.865    -1.736    -1.623  0.9965  0.0253  0.0802
              Bcc     0.0193    10.296     3.674     3.434 -0.0475 -0.6174  0.7852
 
              Baa    -0.0031    -1.632    -0.582    -0.545 -0.3148 -0.5375  0.7823
    10 H(1)   Bbb    -0.0021    -1.103    -0.394    -0.368  0.4850  0.6174  0.6193
              Bcc     0.0051     2.736     0.976     0.913  0.8159 -0.5744 -0.0663
 
              Baa    -0.0061    -3.272    -1.168    -1.091  0.0568  0.8449 -0.5319
    11 H(1)   Bbb    -0.0041    -2.188    -0.781    -0.730  0.6066  0.3940  0.6905
              Bcc     0.0102     5.460     1.948     1.821  0.7930 -0.3619 -0.4902
 
              Baa    -0.0657   -35.034   -12.501   -11.686 -0.1206 -0.6043  0.7876
    12 H(1)   Bbb    -0.0076    -4.063    -1.450    -1.355  0.5288  0.6323  0.5662
              Bcc     0.0733    39.097    13.951    13.041  0.8401 -0.4848 -0.2433
 
              Baa    -0.0659   -35.167   -12.549   -11.731 -0.5479  0.8337 -0.0686
    13 H(1)   Bbb    -0.0068    -3.617    -1.291    -1.206  0.7882  0.5420  0.2914
              Bcc     0.0727    38.784    13.839    12.937 -0.2801 -0.1056  0.9541
 
              Baa    -0.0469   -24.998    -8.920    -8.339 -0.2290 -0.5743  0.7860
    14 H(1)   Bbb    -0.0349   -18.600    -6.637    -6.204 -0.0565  0.8139  0.5782
              Bcc     0.0817    43.599    15.557    14.543  0.9718 -0.0880  0.2188
 

 ---------------------------------------------------------------------------------

 No NMR shielding tensors so no spin-rotation constants.
 Leave Link  601 at Tue Apr  9 01:23:48 2019, MaxMem=   671088640 cpu:               7.4 elap:               0.4
 (Enter /shared/centos7/gaussian/g16/l701.exe)
 SCFChk:  SCF convergence  2.35D-09 required  1.00D-08
 ... and contract with generalized density number  0.
 Compute integral second derivatives.
 Entering OneElI...
 Calculate overlap and kinetic energy integrals
    NBasis = 276  MinDer = 2  MaxDer = 2
 Requested accuracy = 0.1000D-12
 PrmmSu-InSpLW:  IPartL=    0 NPrtUS=   20 NPrtUL=    1 DoSpLW=F IThBeg=    0 IThEnd=   19 NThAct=   20.
 PrsmSu:  NPrtUS=  20 ThrOK=T IAlg=1 NPAlg=1 LenDen=           0 ISkipM=0 DoSpLW=F IThBeg=    0 IThEnd=   19.
 Prism:   IPart=     0 DynPar=F LinDyn=F Incr=           1.
 PRISM was handed    33455963 working-precision words and  3655 shell-pairs
 PRISM was handed    33455963 working-precision words and  3655 shell-pairs
 PRISM was handed    33455963 working-precision words and  3655 shell-pairs
 PRISM was handed    33455963 working-precision words and  3655 shell-pairs
 PRISM was handed    33455963 working-precision words and  3655 shell-pairs
 PRISM was handed    33455963 working-precision words and  3655 shell-pairs
 PRISM was handed    33455963 working-precision words and  3655 shell-pairs
 PRISM was handed    33455963 working-precision words and  3655 shell-pairs
 PRISM was handed    33455963 working-precision words and  3655 shell-pairs
 PRISM was handed    33455963 working-precision words and  3655 shell-pairs
 PRISM was handed    33455963 working-precision words and  3655 shell-pairs
 PRISM was handed    33455963 working-precision words and  3655 shell-pairs
 PRISM was handed    33455963 working-precision words and  3655 shell-pairs
 PRISM was handed    33455963 working-precision words and  3655 shell-pairs
 PRISM was handed    33455963 working-precision words and  3655 shell-pairs
 PRISM was handed    33455963 working-precision words and  3655 shell-pairs
 PRISM was handed    33455963 working-precision words and  3655 shell-pairs
 PRISM was handed    33455963 working-precision words and  3655 shell-pairs
 PRISM was handed    33455963 working-precision words and  3655 shell-pairs
 PRISM was handed    33455963 working-precision words and  3655 shell-pairs
 IPart=  0 NShTot=         212 NBatch=          52 AvBLen=         4.1
 IPart=  5 NShTot=         192 NBatch=          38 AvBLen=         5.1
 IPart=  6 NShTot=         192 NBatch=          38 AvBLen=         5.1
 IPart= 17 NShTot=         163 NBatch=          29 AvBLen=         5.6
 IPart=  9 NShTot=         188 NBatch=          36 AvBLen=         5.2
 IPart=  7 NShTot=         190 NBatch=          38 AvBLen=         5.0
 IPart= 10 NShTot=         176 NBatch=          35 AvBLen=         5.0
 IPart=  4 NShTot=         199 NBatch=          42 AvBLen=         4.7
 IPart=  1 NShTot=         209 NBatch=          49 AvBLen=         4.3
 IPart=  3 NShTot=         204 NBatch=          46 AvBLen=         4.4
 IPart=  2 NShTot=         205 NBatch=          47 AvBLen=         4.4
 IPart= 11 NShTot=         174 NBatch=          34 AvBLen=         5.1
 IPart= 15 NShTot=         164 NBatch=          30 AvBLen=         5.5
 IPart= 19 NShTot=         163 NBatch=          29 AvBLen=         5.6
 IPart= 18 NShTot=         163 NBatch=          29 AvBLen=         5.6
 IPart= 12 NShTot=         170 NBatch=          33 AvBLen=         5.2
 IPart= 14 NShTot=         169 NBatch=          32 AvBLen=         5.3
 IPart=  8 NShTot=         189 NBatch=          37 AvBLen=         5.1
 IPart= 16 NShTot=         163 NBatch=          29 AvBLen=         5.6
 IPart= 13 NShTot=         170 NBatch=          33 AvBLen=         5.2
 PrSmSu:  NxtVal=             21.
 Entering OneElI...
 Calculate potential energy integrals
    NBasis = 276  MinDer = 2  MaxDer = 2
 Requested accuracy = 0.1000D-12
 PrmmSu-InSpLW:  IPartL=    0 NPrtUS=   20 NPrtUL=    1 DoSpLW=F IThBeg=    0 IThEnd=   19 NThAct=   20.
 PrsmSu:  NPrtUS=  20 ThrOK=T IAlg=1 NPAlg=1 LenDen=           0 ISkipM=0 DoSpLW=F IThBeg=    0 IThEnd=   19.
 Prism:   IPart=     0 DynPar=F LinDyn=F Incr=          24.
 PRISM was handed    33467895 working-precision words and  3555 shell-pairs
 PRISM was handed    33467895 working-precision words and  3555 shell-pairs
 PRISM was handed    33467895 working-precision words and  3555 shell-pairs
 PRISM was handed    33467895 working-precision words and  3555 shell-pairs
 PRISM was handed    33467895 working-precision words and  3555 shell-pairs
 PRISM was handed    33467895 working-precision words and  3555 shell-pairs
 PRISM was handed    33467895 working-precision words and  3555 shell-pairs
 PRISM was handed    33467895 working-precision words and  3555 shell-pairs
 PRISM was handed    33467895 working-precision words and  3555 shell-pairs
 PRISM was handed    33467895 working-precision words and  3555 shell-pairs
 PRISM was handed    33467895 working-precision words and  3555 shell-pairs
 PRISM was handed    33467895 working-precision words and  3555 shell-pairs
 PRISM was handed    33467895 working-precision words and  3555 shell-pairs
 PRISM was handed    33467895 working-precision words and  3555 shell-pairs
 PRISM was handed    33467895 working-precision words and  3555 shell-pairs
 PRISM was handed    33467895 working-precision words and  3555 shell-pairs
 PRISM was handed    33467895 working-precision words and  3555 shell-pairs
 PRISM was handed    33467895 working-precision words and  3555 shell-pairs
 PRISM was handed    33467895 working-precision words and  3555 shell-pairs
 PRISM was handed    33467895 working-precision words and  3555 shell-pairs
 IPart=  0 NShTot=        2926 NBatch=         209 AvBLen=        14.0
 IPart=  7 NShTot=        2548 NBatch=         182 AvBLen=        14.0
 IPart=  6 NShTot=        2576 NBatch=         184 AvBLen=        14.0
 IPart=  1 NShTot=        2842 NBatch=         203 AvBLen=        14.0
 IPart=  3 NShTot=        2744 NBatch=         196 AvBLen=        14.0
 IPart= 13 NShTot=        2352 NBatch=         168 AvBLen=        14.0
 IPart= 15 NShTot=        2282 NBatch=         163 AvBLen=        14.0
 IPart= 10 NShTot=        2436 NBatch=         174 AvBLen=        14.0
 IPart= 16 NShTot=        2268 NBatch=         162 AvBLen=        14.0
 IPart= 17 NShTot=        2254 NBatch=         161 AvBLen=        14.0
 IPart=  2 NShTot=        2772 NBatch=         198 AvBLen=        14.0
 IPart= 12 NShTot=        2380 NBatch=         170 AvBLen=        14.0
 IPart=  8 NShTot=        2520 NBatch=         180 AvBLen=        14.0
 IPart=  9 NShTot=        2478 NBatch=         177 AvBLen=        14.0
 IPart= 14 NShTot=        2324 NBatch=         166 AvBLen=        14.0
 IPart=  4 NShTot=        2646 NBatch=         189 AvBLen=        14.0
 IPart=  5 NShTot=        2576 NBatch=         184 AvBLen=        14.0
 IPart= 19 NShTot=        2198 NBatch=         157 AvBLen=        14.0
 IPart= 18 NShTot=        2226 NBatch=         159 AvBLen=        14.0
 IPart= 11 NShTot=        2422 NBatch=         173 AvBLen=        14.0
 PrSmSu:  NxtVal=            481.
 Polarizability after L701:
                1             2             3 
      1  0.000000D+00
      2  0.000000D+00  0.000000D+00
      3  0.000000D+00  0.000000D+00  0.000000D+00
 Dipole Derivatives after L701:
                 1             2             3             4             5 
      1  -0.418815D+00 -0.365117D+00 -0.292344D+00  0.902226D-02  0.125096D+00
      2   0.384596D+00 -0.742862D+00 -0.132887D+00  0.270394D+00 -0.151755D+01
      3   0.127287D+00 -0.484226D-01 -0.362941D+00 -0.323381D+00  0.526728D-01
                 6             7             8             9            10 
      1  -0.333753D+00 -0.128697D+01 -0.806129D+00  0.567482D+00 -0.111170D+01
      2   0.107109D-01 -0.655171D+00 -0.340553D+00  0.411337D-01  0.427490D+00
      3  -0.842074D+00  0.169295D-01 -0.142900D+00 -0.949954D+00  0.143385D+00
                11            12            13            14            15 
      1   0.634654D+00  0.664841D+00 -0.945123D+00  0.986789D+00 -0.217401D+00
      2  -0.173651D+00  0.570885D-01  0.435476D+00 -0.899756D+00  0.286391D+00
      3   0.268821D-01 -0.862051D+00  0.274956D+00  0.126241D+00 -0.818390D+00
                16            17            18            19            20 
      1   0.222348D+00 -0.963756D-01  0.112214D+00  0.173225D+00  0.272031D-01
      2  -0.226030D+00  0.598823D+00 -0.589316D+00  0.155425D+00  0.626826D+00
      3   0.893950D-01 -0.200624D+00  0.435375D+00  0.614445D-01  0.222490D+00
                21            22            23            24            25 
      1   0.116720D-01  0.805986D+00  0.501380D+00  0.223667D+00  0.217554D+00
      2   0.593754D+00  0.336643D+00  0.430736D+00  0.135877D+00 -0.615375D-02
      3   0.452845D+00 -0.110068D-02  0.920079D-02  0.160862D+00 -0.449918D-02
                26            27            28            29            30 
      1  -0.389743D-01 -0.547117D+00  0.991459D+00 -0.474102D+00  0.160490D+00
      2   0.195910D+00 -0.142481D+00 -0.264175D+00  0.305676D+00 -0.341511D-01
      3   0.408205D-01  0.761364D+00 -0.775186D-01  0.625543D-01  0.153306D+00
                31            32            33            34            35 
      1   0.105926D+00  0.882576D-01 -0.477105D+00  0.103215D+01 -0.579654D+00
      2   0.598921D-02  0.215258D+00 -0.433434D-01 -0.587116D+00  0.520168D+00
      3   0.589166D-01 -0.115857D+00  0.670355D+00  0.636773D-02 -0.248763D-01
                36            37            38            39            40 
      1  -0.350311D+00 -0.252040D-01 -0.962379D-01  0.438871D+00  0.230141D+00
      2   0.204324D+00  0.160147D+00  0.234664D+00 -0.446899D+00 -0.437515D+00
      3   0.130071D+00 -0.233223D+00 -0.100938D+00  0.743087D+00 -0.138958D+00
                41            42 
      1   0.932097D-01  0.387914D-01
      2   0.546315D+00  0.597979D-01
      3   0.927581D-01  0.328143D+00
 Hessian after L701:
                1             2             3             4             5 
      1  0.755143D+01
      2  0.946277D+00  0.643335D+01
      3 -0.155936D+00 -0.330152D+01  0.112269D+02
      4  0.114585D+00  0.631183D+00  0.108245D+00  0.124431D+02
      5  0.582735D+00  0.533028D+00  0.981874D-01 -0.608295D+00  0.125452D+02
      6  0.101695D+00  0.149891D+00 -0.359001D+00  0.113212D+00  0.654122D-01
      7  0.152206D+00  0.220929D+00  0.754230D-01 -0.222888D+01 -0.147991D+01
      8  0.291226D+00 -0.176683D+00 -0.715424D-02 -0.155323D+01 -0.433355D+01
      9  0.177937D+00  0.595746D-01 -0.342693D+00 -0.729173D+00  0.426408D+00
     10 -0.707041D+01 -0.158881D+00 -0.397212D-01 -0.318654D+01  0.213624D+01
     11 -0.123581D+00 -0.205219D+01  0.330299D+01  0.218579D+01 -0.369734D+01
     12 -0.427628D-01  0.324752D+01 -0.515927D+01 -0.526313D+00 -0.524219D+00
     13  0.600710D+00  0.401562D-01  0.856738D-01  0.172605D+00 -0.194121D+00
     14  0.216374D+00 -0.196458D+00  0.413543D-01 -0.216535D+00  0.456216D-02
     15  0.102567D+00 -0.462681D-02 -0.246517D+00  0.770758D-01 -0.969346D-01
     16 -0.198083D-01  0.151545D-01 -0.342837D-02 -0.356911D+01 -0.454135D+00
     17  0.546406D-01  0.580516D-01 -0.192462D-01 -0.491372D+00 -0.263935D+01
     18 -0.243287D-01 -0.375636D-01 -0.163266D-01  0.536038D+00 -0.125247D+01
     19 -0.234818D-01  0.629618D-01  0.294381D-01 -0.380370D+01  0.222763D+00
     20  0.843969D-01  0.107682D+00  0.720819D-01  0.236245D+00 -0.265823D+01
     21  0.524830D-01  0.914011D-01 -0.766728D-02  0.259864D+00  0.130448D+01
     22  0.375900D-01  0.149075D-01  0.555070D-02 -0.591455D-01 -0.135549D-03
     23  0.332118D-01 -0.429430D-02  0.360967D-02 -0.459999D-02  0.127312D+00
     24  0.112646D-01  0.400598D-02 -0.113895D-01  0.562606D-01  0.120902D-01
     25  0.220774D-01  0.188002D-01 -0.455300D-01  0.146299D-01  0.714567D-01
     26  0.246961D-01 -0.116027D-01 -0.218749D-01  0.429979D-01  0.856039D-02
     27 -0.958939D-01 -0.353970D-01  0.237132D-01 -0.547132D-02 -0.499793D-01
     28  0.205426D+00 -0.756673D-01  0.849440D-01 -0.645704D-01 -0.284316D-01
     29 -0.497273D-01 -0.121206D-01 -0.170981D+00 -0.381018D-01  0.104222D+00
     30  0.797102D-01 -0.184945D+00 -0.373662D-01  0.564650D-01  0.280273D-02
     31  0.954899D-01  0.215330D-03  0.138729D-01  0.758599D-01 -0.932518D-01
     32 -0.322315D-01 -0.899180D-01 -0.204244D+00 -0.557616D-01 -0.270343D-01
     33  0.759657D-03 -0.213617D+00  0.362161D+00  0.275804D-01  0.123458D+00
     34  0.111067D+00 -0.291069D-01  0.723002D-02  0.539174D-01 -0.943491D-01
     35 -0.408454D-01 -0.163246D-01 -0.184471D-02 -0.953753D-01  0.487063D-01
     36 -0.623024D-02  0.263447D-02 -0.265323D-01 -0.810706D-02  0.726121D-02
     37  0.123980D-01 -0.960398D-02  0.426550D-01 -0.339672D-01 -0.288474D-01
     38 -0.156989D-01 -0.400268D-01 -0.112488D-01 -0.429692D-01  0.333418D-01
     39  0.122785D+00 -0.246127D-01  0.374981D-01  0.360357D-01 -0.601275D-01
[...]
 ! D3    D(14,1,4,11)          -49.5992         -DE/DX =    0.0                 !
 ! D4    D(4,2,3,5)            -54.498          -DE/DX =    0.0                 !
 ! D5    D(4,2,3,8)           -177.119          -DE/DX =    0.0                 !
 ! D6    D(4,2,3,9)             68.7596         -DE/DX =    0.0                 !
 ! D7    D(6,2,3,5)           -176.1468         -DE/DX =    0.0                 !
 ! D8    D(6,2,3,8)             61.2323         -DE/DX =    0.0                 !
 ! D9    D(6,2,3,9)            -52.8892         -DE/DX =    0.0                 !
 ! D10   D(7,2,3,5)             66.4708         -DE/DX =    0.0                 !
 ! D11   D(7,2,3,8)            -56.1502         -DE/DX =    0.0                 !
 ! D12   D(7,2,3,9)           -170.2716         -DE/DX =    0.0                 !
 ! D13   D(3,2,4,1)            -53.5209         -DE/DX =    0.0                 !
 ! D14   D(3,2,4,10)          -171.7253         -DE/DX =    0.0                 !
 ! D15   D(3,2,4,11)            69.9792         -DE/DX =    0.0                 !
 ! D16   D(6,2,4,1)             68.0056         -DE/DX =    0.0                 !
 ! D17   D(6,2,4,10)           -50.1989         -DE/DX =    0.0                 !
 ! D18   D(6,2,4,11)          -168.4944         -DE/DX =    0.0                 !
 ! D19   D(7,2,4,1)           -175.2825         -DE/DX =    0.0                 !
 ! D20   D(7,2,4,10)            66.513          -DE/DX =    0.0                 !
 ! D21   D(7,2,4,11)           -51.7825         -DE/DX =    0.0                 !
 ! D22   D(2,3,5,12)           157.6466         -DE/DX =    0.0                 !
 ! D23   D(2,3,5,13)           -36.8563         -DE/DX =    0.0                 !
 ! D24   D(8,3,5,12)           -80.6389         -DE/DX =    0.0                 !
 ! D25   D(8,3,5,13)            84.8582         -DE/DX =    0.0                 !
 ! D26   D(9,3,5,12)            34.681          -DE/DX =    0.0                 !
 ! D27   D(9,3,5,13)          -159.8219         -DE/DX =    0.0                 !
 --------------------------------------------------------------------------------
 GradGradGradGradGradGradGradGradGradGradGradGradGradGradGradGradGradGrad

 Leave Link  103 at Tue Apr  9 01:41:11 2019, MaxMem=   671088640 cpu:               0.5 elap:               0.1
 (Enter /shared/centos7/gaussian/g16/l9999.exe)

 ----------------------------------------------------------------------

 Electric dipole moment (input orientation):
 (Debye = 10**-18 statcoulomb cm , SI units = C m)
                  (au)            (Debye)         (10**-30 SI)
   Tot        0.723838D+00      0.183981D+01      0.613695D+01
   x          0.521231D+00      0.132484D+01      0.441918D+01
   y          0.145864D+00      0.370750D+00      0.123669D+01
   z         -0.480608D+00     -0.122158D+01     -0.407476D+01

 Dipole polarizability, Alpha (input orientation).
 (esu units = cm**3 , SI units = C**2 m**2 J**-1)
 Alpha(0;0):
               (au)            (10**-24 esu)      (10**-40 SI)
   iso        0.535899D+02      0.794121D+01      0.883579D+01
   aniso      0.639403D+01      0.947498D+00      0.105423D+01
   xx         0.575171D+02      0.852315D+01      0.948328D+01
   yx        -0.306762D+00     -0.454574D-01     -0.505782D-01
   yy         0.507602D+02      0.752188D+01      0.836922D+01
   zx        -0.175193D+00     -0.259609D-01     -0.288854D-01
   zy         0.108903D+01      0.161378D+00      0.179557D+00
   zz         0.524926D+02      0.777860D+01      0.865486D+01

 ----------------------------------------------------------------------

 Dipole orientation:
     8         -0.15251104          1.82142939         -4.45288830
     6         -2.78044572          2.84199761         -0.78953227
     6         -0.53923767          4.01294447          0.61828462
     6         -1.97205096          0.87829873         -2.73540496
     6          1.13700784          2.11130841          1.83159139
     1         -3.84119215          4.33802615         -1.73114228
     1         -4.05732651          1.93603638          0.55900723
     1         -1.27502848          5.32768791          2.04563630
     1          0.55200662          5.18773935         -0.68250924
     1         -3.59047133          0.30586342         -3.87130310
     1         -1.25091921         -0.81099335         -1.78470250
     1          3.07570584          2.55810216          2.28439226
     1          0.33965749          0.42910342          2.67413845
     1          1.43752737          1.94636566         -3.58771399

 Electric dipole moment (dipole orientation):
 (Debye = 10**-18 statcoulomb cm , SI units = C m)
                  (au)            (Debye)         (10**-30 SI)
   Tot        0.723838D+00      0.183981D+01      0.613695D+01
   x          0.000000D+00      0.000000D+00      0.000000D+00
   y          0.000000D+00      0.000000D+00      0.000000D+00
   z          0.723838D+00      0.183981D+01      0.613695D+01

 Dipole polarizability, Alpha (dipole orientation).
 (esu units = cm**3 , SI units = C**2 m**2 J**-1)
 Alpha(0;0):
               (au)            (10**-24 esu)      (10**-40 SI)
   iso        0.535899D+02      0.794121D+01      0.883579D+01
   aniso      0.639403D+01      0.947498D+00      0.105423D+01
   xx         0.545867D+02      0.808891D+01      0.900013D+01
   yx        -0.370053D+00     -0.548362D-01     -0.610135D-01
   yy         0.513684D+02      0.761202D+01      0.846951D+01
   zx         0.270807D+01      0.401294D+00      0.446500D+00
   zy         0.156301D+01      0.231615D+00      0.257706D+00
   zz         0.548147D+02      0.812270D+01      0.903772D+01

 ----------------------------------------------------------------------

 Test job not archived.
 1\1\GINC-C0233\Freq\UM062X\6-311+G(2df,2p)\C4H9O1(2)\UNDERKOFFLER.C\09
 -Apr-2019\0\\#P Geom=AllCheck Guess=TCheck SCRF=Check Test GenChk UM06
 2X/6-311+G(2df,2p) Freq\\Gaussian input prepared by ASE\\0,2\O,-1.6683
 043668,-1.4081413867,1.312212348\C,-1.1825450362,-1.4231000129,-1.0851
 614739\C,0.2243606695,-1.980917879,-0.8506483072\C,-1.7201775261,-0.65
 41228122,0.115984657\C,1.2095535996,-0.9471452142,-0.4354240325\H,-1.8
 587144735,-2.2469035256,-1.3180557265\H,-1.1756156278,-0.7526562574,-1
 .9489372965\H,0.5609069215,-2.4735074893,-1.772738805\H,0.1804088521,-
 2.7764923146,-0.1030540091\H,-2.7689822198,-0.405037959,-0.0405754186\
 H,-1.1731743698,0.2860975712,0.2368807444\H,2.1089296663,-1.2189895798
 ,0.0965900316\H,1.1625289744,0.047957613,-0.8559104471\H,-0.7536507274
 ,-1.4537584901,1.6007983505\\Version=EM64L-G16RevA.03\State=2-A\HF=-23
 2.9639918\S2=0.755036\S2-1=0.\S2A=0.75002\RMSD=5.282e-09\RMSF=9.127e-0
 7\ZeroPoint=0.1235687\Thermal=0.1303563\Dipole=0.5212308,0.1458641,-0.
 4806075\DipoleDeriv=-0.3474158,0.0618133,0.0074699,0.0368312,-0.565770
 5,0.1660892,0.0573885,0.1168669,-0.9337429,0.0767754,0.0203268,0.03865
 7,0.0271557,0.0599615,-0.0919604,0.038542,-0.0263009,-0.0043192,0.0741
 227,0.0330317,-0.0332717,0.0003195,0.0206695,0.0006376,-0.0663269,-0.0
 403717,0.0608934,0.2676612,-0.0018766,0.0106817,-0.0000899,0.3961942,-
 0.1739476,-0.0557798,-0.145181,0.7098797,-0.0729344,0.0268446,0.166537
 3,0.0666305,0.057793,-0.090101,0.2081746,-0.0734988,-0.2081943,-0.0660
 023,-0.0689054,-0.0336087,-0.0701679,-0.060118,-0.0644454,-0.0095683,-
 0.0328102,0.0408914,0.0298696,0.0088867,0.0292116,0.0344962,-0.0328732
 ,0.1041213,-0.0070926,0.080777,-0.0817476,-0.0073565,0.009213,0.036445
 6,0.0041635,0.0038612,-0.0837612,0.039023,-0.1091405,-0.060148,0.01187
 32,-0.031394,-0.0206124,-0.0090047,-0.0370462,0.0728734,-0.0319518,0.1
 075359,-0.0120493,-0.1372405,0.079433,-0.0239798,0.0333841,0.0437357,0
 .018328,0.0098854,0.0061335,0.0128434,0.0046496,-0.1159007,0.000056,-0
 .0713577,-0.1277064,0.021183,-0.0152544,-0.0092514,-0.0339431,-0.04950
 95,-0.0113613,-0.0783233,-0.0004924,0.0340053,0.0380589,-0.0964636,0.0
 249011,0.0884229,0.0489826,0.0061129,-0.0561585,-0.0363049,-0.0533845,
 0.049457,-0.0478544,0.0695517,0.0706622,0.1665247,-0.016224,-0.0431047
 ,-0.0155631,0.2606784,0.0334673,-0.0227216,0.0307884,0.3505515\Polar=5
 7.5170698,-0.3067621,50.7601532,-0.1751927,1.0890332,52.4926118\Quadru
 pole=-0.22425,0.8668819,-0.6426319,-0.9881105,2.9486408,0.0062604\PG=C
 01 [X(C4H9O1)]\NImag=0\\0.57607518,-0.01324492,0.14700909,0.14475425,-
 0.15201249,0.33128005,0.00331794,-0.00057048,0.00148131,0.49839350,-0.
 00559961,0.01098059,0.02638613,0.05533822,0.57676047,0.01088519,-0.003
 16959,-0.04259531,0.01746831,-0.03274475,0.53143718,0.00001169,0.00124
 190,-0.00230830,-0.16675246,0.03411522,-0.01772171,0.45969187,-0.00031
 197,-0.00160693,0.00113591,0.03735904,-0.09620491,0.01054423,0.0068520
 8,0.53377795,0.00014430,0.00003786,0.00161428,-0.01541526,0.01036275,-
 0.07949019,-0.00886212,-0.02979917,0.53149077,-0.09556126,-0.01520042,
 0.01296533,-0.09789646,0.02246510,0.02436615,-0.01675134,0.01880970,0.
 02804357,0.63536654,0.00999142,-0.12094212,0.08868217,0.02070518,-0.12
 156888,-0.04984980,0.00770488,-0.00663754,-0.00957576,0.01395903,0.551
 39947,-0.02736768,0.08307808,-0.19003966,0.02860038,-0.05724694,-0.137
 30987,0.00560189,-0.00015996,0.00530733,0.03800158,-0.00079387,0.46616
 546,-0.00068440,-0.00066701,-0.00040960,-0.02747895,-0.02175081,-0.011
 57199,-0.13840525,-0.07302771,-0.04576614,-0.00041711,0.00039819,0.000
 92059,0.46139160,-0.00031688,-0.00080608,0.00003560,0.00242789,0.01158
 690,0.00185931,-0.07390631,-0.16031668,-0.01853073,0.00191967,0.001700
 80,0.00068218,0.02777617,0.55416612,0.00158802,-0.00006449,0.00049243,
 -0.00894376,-0.00679249,-0.00375385,-0.04570237,-0.01838440,-0.0686313
 5,0.00112270,-0.00020090,-0.00089261,0.22317436,-0.13008792,0.23644038
 ,-0.00022128,-0.00025997,-0.00143882,-0.14888643,-0.12492183,-0.034016
 27,-0.02046679,-0.02308350,-0.00563285,0.00759007,0.01143866,0.0035983
 2,-0.00458020,0.00420253,-0.00166530,0.16481514,0.00062821,0.00227152,
 -0.00006273,-0.12539609,-0.19976113,-0.04079781,0.01026399,0.01028164,
 0.00299955,-0.01027656,-0.01655840,-0.00290971,0.00218764,-0.00084291,
 0.00063430,0.13237730,0.21737675,0.00021423,0.00193014,0.00236177,-0.0
 3306113,-0.03957266,-0.06013757,-0.00436710,-0.00348530,-0.00170538,-0
 .01644088,-0.02327148,-0.00613052,-0.00067548,0.00049579,0.00054674,0.
 03627554,0.04705916,0.06146334,0.00048077,0.00130257,0.00312152,-0.047
 18778,-0.00410400,0.00428824,-0.00157942,0.02086225,-0.02541335,-0.000
 37899,-0.00878074,0.00637388,0.00167555,0.00101681,0.00033332,-0.00042
 044,-0.01127045,0.01654972,0.05143902,0.00157316,-0.00010977,-0.004743
 93,-0.00398526,-0.14543732,0.12484003,0.00075457,-0.00918397,0.0096064
 6,-0.00106450,0.01040788,-0.01262085,-0.00046467,0.00059376,-0.0007650
 2,0.00017735,-0.01444897,0.01934626,0.00030931,0.15684908,0.00236643,-
 0.00305194,-0.00664927,0.00330646,0.12408359,-0.20933799,0.00026386,0.
 00193806,-0.00296406,-0.00151819,0.01939792,-0.01828880,0.00025014,0.0
 0023948,0.00013914,0.00054528,-0.00434334,0.00606930,-0.00427163,-0.13
 694952,0.22799156,0.00041735,-0.00003132,-0.00024041,-0.01187148,0.015
 31879,0.02642476,-0.06312652,0.02942635,0.05969392,-0.00579682,0.00134
 471,-0.00301518,0.00394275,-0.01093612,-0.01785416,0.00084646,-0.00095
 116,0.00028272,0.00160808,-0.00018377,-0.00027475,0.07598616,-0.000647
 82,0.00102217,0.00010805,0.00637805,-0.00652551,-0.01101283,0.03710096
 ,-0.08809628,-0.09342795,0.00271347,-0.00028555,0.00228199,-0.00074655
 ,-0.01487315,-0.01926999,-0.00017040,0.00039306,0.00036259,-0.00059601
 ,-0.00005323,-0.00020550,-0.03596572,0.09974444,0.00047861,-0.00084529
 ,0.00026529,-0.00323899,0.00407034,0.00486147,0.07055274,-0.08728455,-
 0.21851091,-0.00133339,0.00097274,-0.00032415,-0.00474485,-0.00877662,
 -0.00647274,0.00067823,-0.00015399,0.00000094,0.00025218,-0.00022170,0
 .00073131,-0.06942176,0.10157869,0.24066651,0.00039108,-0.00093103,0.0
 0118190,0.00032979,0.02226965,-0.02278036,-0.04954231,-0.00944603,0.00
 838253,0.00089138,-0.00004480,-0.00159343,0.00011547,-0.01721434,0.013
 55288,0.00125702,-0.00056962,-0.00009009,-0.00571475,0.00283105,-0.000
 30085,-0.00038453,-0.00674244,0.00776149,0.05439337,-0.00129476,0.0017
 6886,-0.00051333,0.00020621,-0.00848910,0.00744024,-0.00747435,-0.1800
 2660,0.13081417,-0.00024542,-0.00106969,0.00233756,-0.00177822,-0.0213
 2488,0.01325609,-0.00006484,0.00073122,-0.00041730,0.00200510,0.000209
 99,-0.00005187,0.00071019,0.00991316,-0.00906818,0.01079248,0.19995472
 ,0.00081352,-0.00115185,-0.00047405,-0.00164810,0.00340136,-0.00368628
 ,0.00706572,0.13114643,-0.16878272,-0.00008269,-0.00045056,-0.00071795
 ,-0.00025121,-0.01045739,0.00772661,-0.00044711,0.00002886,0.00013766,
 -0.00116867,-0.00013087,0.00081086,0.00180765,0.02000350,-0.02164419,-
 0.00609928,-0.14041127,0.18642549,0.00126876,0.00192012,-0.00470025,-0
 .00953642,0.00102668,-0.00124999,0.00073875,0.00046534,0.00219256,-0.3
 0278167,0.05423185,-0.03458348,0.00017972,0.00026191,0.00025628,0.0010
 2366,0.00027614,-0.00012691,-0.00026563,0.00008038,0.00059526,-0.00060
 496,0.00027536,-0.00024296,0.00009092,-0.00001565,-0.00005587,0.322456
 16,0.02133336,-0.00530160,0.01055259,0.01886981,-0.00435855,-0.0000496
 3,0.00035678,-0.00070608,-0.00318156,0.04658385,-0.06234550,0.00524472
 ,-0.00065000,-0.00007604,0.00010999,0.00003350,0.00038231,0.00096932,-
 0.00020804,0.00029791,-0.00016212,0.00099309,-0.00037708,0.00008293,-0
 .00014971,0.00013451,0.00013327,-0.06137674,0.06745611,-0.03457471,0.0
 1216622,-0.01610347,0.02628484,-0.00681059,0.00479398,0.00098926,-0.00
 218854,-0.00450576,-0.02561423,0.00472244,-0.04969385,-0.00056814,-0.0
 0043796,-0.00012749,-0.00062238,0.00030823,0.00112266,-0.00060981,0.00
 096848,0.00051443,0.00145608,-0.00073041,0.00018507,0.00000231,-0.0002
 2092,0.00002180,0.03830868,-0.01267389,0.06743621,0.00555136,0.0028235
 9,0.00151161,0.00652812,0.01068519,0.00254238,0.00111347,-0.00011375,-
 0.00089159,-0.12156156,-0.10939459,-0.01809646,-0.00126574,0.00015797,
 0.00030107,0.00004473,0.00182854,0.00183183,0.00057477,-0.00063381,-0.
 00087678,0.00006294,-0.00028550,-0.00001723,-0.00003881,0.00006398,0.0
 0007638,-0.01500795,-0.02654590,-0.00489347,0.12356606,-0.00697655,-0.
 02037517,0.01297149,-0.00979109,-0.01426558,-0.00498009,-0.00103714,0.
 00034490,0.00037589,-0.10542640,-0.22832054,-0.03121906,-0.00035627,-0
 .00058461,0.00053732,0.00142432,-0.00045082,-0.00276615,0.00016261,0.0
 0066178,-0.00040001,0.00022600,0.00014901,-0.00001675,0.00004548,0.000
 07070,0.00003931,0.00253304,0.00722625,-0.00004244,0.12006481,0.254165
 27,0.01578417,0.03736894,-0.00947707,-0.01422665,-0.02359237,-0.004679
 44,-0.00067987,0.00099853,0.00063030,-0.02195482,-0.03377256,-0.053566
 26,0.00008313,-0.00030233,0.00026971,0.00288384,-0.00309570,-0.0037621
 2,-0.00030798,0.00060228,0.00083375,-0.00000346,0.00009151,-0.00001192
 ,0.00012122,-0.00011171,-0.00003495,-0.00129716,-0.00366634,0.00055702
 ,0.01729219,0.02559649,0.06756567,0.00013405,-0.00004355,0.00051557,-0
 .00139727,-0.00339729,-0.00112024,-0.00871421,0.00716688,-0.00541172,0
 .00007528,-0.00007230,-0.00081310,-0.24947270,0.05920261,-0.14191823,-
 0.00099643,0.00049417,-0.00017310,0.00008368,0.00011112,-0.00003359,-0
 .00080012,-0.00020708,-0.00055237,0.00046599,0.00041261,0.00043442,-0.
 00002600,-0.00000152,0.00009590,-0.00001658,0.00002426,0.00004785,0.25
 817169,0.00000309,0.00018369,0.00001278,-0.00143545,-0.00378920,-0.001
 27020,-0.01824069,0.01027423,-0.00981283,0.00015052,-0.00043999,-0.000
 17499,0.06001881,-0.07411343,0.04938796,-0.00122711,0.00058824,-0.0002
 9233,-0.00021373,0.00009183,-0.00030815,0.00031913,-0.00035811,-0.0004
 9563,0.00080094,0.00106712,0.00067243,0.00003314,0.00011869,0.00010179
 ,-0.00002094,0.00029635,0.00026103,-0.06158355,0.06818561,-0.00011518,
 -0.00004956,0.00008856,0.00080145,-0.00212854,0.00042072,-0.00615184,0
 .00546695,-0.00094885,0.00025222,-0.00010930,-0.00013060,-0.13510515,0
 .04546365,-0.09365250,-0.00044358,0.00031853,0.00016388,0.00021980,-0.
 00007447,0.00007167,0.00091368,-0.00015468,0.00025040,0.00046019,-0.00
 100057,0.00062120,0.00001082,0.00008327,0.00002952,0.00014710,0.000070
 05,-0.00001963,0.14808243,-0.04971965,0.09460841,-0.00007347,0.0003436
 9,-0.00005700,0.00180644,-0.00041302,0.00146443,0.00359958,-0.01551164
 ,0.00829123,-0.00019345,-0.00018348,0.00014852,-0.04563721,0.00543499,
 -0.02320386,0.00019749,0.00027646,-0.00015349,0.00002038,0.00027911,-0
 .00049281,-0.00015377,-0.00087984,-0.00011460,-0.00210536,-0.00375092,
 -0.00119433,0.00007973,0.00016919,0.00002525,-0.00074487,0.00012533,0.
 00044903,0.00288326,0.02129133,-0.00924168,0.04031074,-0.00006728,0.00
 051269,-0.00017117,0.00117113,0.00064927,-0.00024674,0.00235141,-0.013
 63837,0.01080940,-0.00016402,-0.00059281,0.00010198,0.00821541,-0.2952
 8903,0.11220703,0.00009288,0.00018910,-0.00018028,-0.00083090,0.000290
 40,-0.00025515,0.00002700,-0.00012718,-0.00022880,-0.00213075,-0.00156
 636,-0.00228576,0.00001248,0.00017157,0.00011226,0.00029165,0.00055733
 ,0.00015764,-0.00200957,-0.00213955,0.00177484,-0.00697424,0.31125542,
 0.00000841,-0.00018794,-0.00001444,0.00028373,0.00020010,0.00055259,0.
 00087483,-0.01009504,0.00743021,0.00000226,0.00059147,0.00024230,-0.02
 581014,0.11935639,-0.07239452,0.00019011,-0.00007582,-0.00015805,0.000
 20947,0.00024430,-0.00027159,0.00035330,0.00070820,-0.00052141,-0.0013
 3699,-0.00060344,-0.00012359,-0.00010540,-0.00017035,-0.00001148,0.000
 39227,-0.00023083,-0.00013286,0.00093452,0.01166795,-0.00149109,0.0241
 6022,-0.12163040,0.06695134,-0.49110779,0.02331685,-0.15637709,0.00063
 145,-0.00103230,0.00102110,0.00018295,0.00055295,0.00064490,-0.0025846
 0,-0.00129802,0.00222418,0.00063649,-0.00002690,-0.00104096,-0.0002029
 9,0.00013141,-0.00006586,-0.00033525,0.00021597,0.00044116,-0.00012554
 ,-0.00022648,-0.00005708,-0.00014926,0.00043360,0.00074957,0.00238494,
 0.00059235,-0.00027958,0.00119405,-0.00101841,0.00180850,-0.00039064,0
 .00010450,0.00016975,0.00001051,0.00001481,-0.00015659,0.48985567,-0.0
 0506944,-0.01460693,0.01761893,-0.00127715,0.00042297,-0.00056237,-0.0
 0008331,0.00173864,-0.00067808,0.02577598,-0.00474712,0.01139887,0.000
 84503,0.00017923,-0.00056749,-0.00001890,-0.00015160,-0.00017778,0.000
 34522,-0.00016937,0.00006854,-0.00029717,-0.00052573,0.00038681,0.0004
 8911,-0.00137366,-0.00053747,0.00027596,-0.00262249,0.00472534,0.00107
 876,0.00052513,-0.00053544,-0.00009679,0.00003452,0.00005949,-0.000206
 95,-0.00027247,0.00022541,-0.02176034,0.02156888,-0.11497956,0.0259519
 1,-0.07074913,-0.00169260,0.00038406,-0.00107543,0.00044502,0.00016685
 ,-0.00093365,-0.03780962,0.00365748,-0.01462083,0.00047447,0.00046054,
 0.00031006,0.00009498,0.00009047,0.00002734,0.00042332,-0.00010147,0.0
 0034968,-0.00012239,-0.00033317,0.00052432,0.00073849,-0.00144948,-0.0
 0027989,0.00099842,0.00272781,-0.00421863,0.00068071,0.00006478,0.0018
 2779,-0.00008833,-0.00003017,-0.00001167,-0.00008090,-0.00016484,-0.00
 005741,0.15091799,-0.03142477,0.08890745\\0.00000090,0.00000174,0.0000
 0080,-0.00000040,-0.00000070,0.00000056,-0.00000028,-0.00000051,0.0000
 0037,0.00000025,0.00000060,-0.00000008,-0.00000003,-0.00000011,-0.0000
 0120,-0.00000054,-0.00000094,0.00000176,-0.00000084,-0.00000161,-0.000
 00011,-0.00000079,-0.00000147,0.00000070,0.00000009,0.00000024,0.00000
 121,0.00000020,0.00000037,0.00000039,0.00000035,0.00000060,-0.00000116
 ,0.00000023,0.00000040,-0.00000141,-0.00000022,-0.00000057,-0.00000221
 ,0.00000106,0.00000197,0.00000039\\\@


 A MAN SHOULD NEVER BE ASHAMED TO OWN HE HAS BEEN IN THE WRONG
 WHICH IS BUT SAYING IN OTHER WORDS,
 THAT HE IS WISER TODAY THAN HE WAS YESTERDAY.

                          -- JONATHAN SWIFT
 Job cpu time:       0 days  1 hours 50 minutes 48.3 seconds.
 Elapsed time:       0 days  0 hours  5 minutes 33.0 seconds.
 File lengths (MBytes):  RWF=   1376 Int=      0 D2E=      0 Chk=     32 Scr=     32
 Normal termination of Gaussian 16 at Tue Apr  9 01:41:12 2019.
