 Entering Gaussian System, Link 0=g16
 Input=SXIFAEWFOJETOA-UHFFFAOYSA-N_12by30.0_tor12_a1.com
 Output=SXIFAEWFOJETOA-UHFFFAOYSA-N_12by30.0_tor12_a1.log
 Initial command:
 /shared/centos7/gaussian/g16/l1.exe "/scratch/underkoffler.c/gaussian_scratch/Gau-20027.inp" -scrdir="/scratch/underkoffler.c/gaussian_scratch/"
 Entering Link 1 = /shared/centos7/gaussian/g16/l1.exe PID=     20028.
  
 Copyright (c) 1988,1990,1992,1993,1995,1998,2003,2009,2016,
            Gaussian, Inc.  All Rights Reserved.
  
 This is part of the Gaussian(R) 16 program.  It is based on
 the Gaussian(R) 09 system (copyright 2009, Gaussian, Inc.),
 the Gaussian(R) 03 system (copyright 2003, Gaussian, Inc.),
 the Gaussian(R) 98 system (copyright 1998, Gaussian, Inc.),
 the Gaussian(R) 94 system (copyright 1995, Gaussian, Inc.),
 the Gaussian 92(TM) system (copyright 1992, Gaussian, Inc.),
 the Gaussian 90(TM) system (copyright 1990, Gaussian, Inc.),
 the Gaussian 88(TM) system (copyright 1988, Gaussian, Inc.),
 the Gaussian 86(TM) system (copyright 1986, Carnegie Mellon
 University), and the Gaussian 82(TM) system (copyright 1983,
 Carnegie Mellon University). Gaussian is a federally registered
 trademark of Gaussian, Inc.
  
 This software contains proprietary and confidential information,
 including trade secrets, belonging to Gaussian, Inc.
  
 This software is provided under written license and may be
 used, copied, transmitted, or stored only in accord with that
 written license.
  
 The following legend is applicable only to US Government
 contracts under FAR:
  
                    RESTRICTED RIGHTS LEGEND
  
 Use, reproduction and disclosure by the US Government is
 subject to restrictions as set forth in subparagraphs (a)
 and (c) of the Commercial Computer Software - Restricted
 Rights clause in FAR 52.227-19.
  
 Gaussian, Inc.
 340 Quinnipiac St., Bldg. 40, Wallingford CT 06492
  
  
 ---------------------------------------------------------------
 Warning -- This program may not be used in any manner that
 competes with the business of Gaussian, Inc. or will provide
 assistance to any competitor of Gaussian, Inc.  The licensee
 of this program is prohibited from giving any competitor of
 Gaussian, Inc. access to this program.  By using this program,
 the user acknowledges that Gaussian, Inc. is engaged in the
 business of creating and licensing software in the field of
 computational chemistry and represents and warrants to the
 licensee that it is not a competitor of Gaussian, Inc. and that
 it will not use this program in any manner prohibited above.
 ---------------------------------------------------------------
  

 Cite this work as:
 Gaussian 16, Revision A.03,
 M. J. Frisch, G. W. Trucks, H. B. Schlegel, G. E. Scuseria, 
 M. A. Robb, J. R. Cheeseman, G. Scalmani, V. Barone, 
 G. A. Petersson, H. Nakatsuji, X. Li, M. Caricato, A. V. Marenich, 
 J. Bloino, B. G. Janesko, R. Gomperts, B. Mennucci, H. P. Hratchian, 
 J. V. Ortiz, A. F. Izmaylov, J. L. Sonnenberg, D. Williams-Young, 
 F. Ding, F. Lipparini, F. Egidi, J. Goings, B. Peng, A. Petrone, 
 T. Henderson, D. Ranasinghe, V. G. Zakrzewski, J. Gao, N. Rega, 
 G. Zheng, W. Liang, M. Hada, M. Ehara, K. Toyota, R. Fukuda, 
 J. Hasegawa, M. Ishida, T. Nakajima, Y. Honda, O. Kitao, H. Nakai, 
 T. Vreven, K. Throssell, J. A. Montgomery, Jr., J. E. Peralta, 
 F. Ogliaro, M. J. Bearpark, J. J. Heyd, E. N. Brothers, K. N. Kudin, 
 V. N. Staroverov, T. A. Keith, R. Kobayashi, J. Normand, 
 K. Raghavachari, A. P. Rendell, J. C. Burant, S. S. Iyengar, 
 J. Tomasi, M. Cossi, J. M. Millam, M. Klene, C. Adamo, R. Cammi, 
 J. W. Ochterski, R. L. Martin, K. Morokuma, O. Farkas, 
 J. B. Foresman, and D. J. Fox, Gaussian, Inc., Wallingford CT, 2016.
 
 ******************************************
 Gaussian 16:  EM64L-G16RevA.03 25-Dec-2016
                29-Mar-2019 
 ******************************************
 %nprocshared=20
 Will use up to   20 processors via shared memory.
 %mem=5GB
 ----------------------------------------------
 #p m062x/6-311+g(2df,2p) Opt=(CalcFC,ModRedun)
 ----------------------------------------------
 1/10=4,18=120,19=15,26=3,38=1/1,3;
 2/9=110,12=2,17=6,18=5,40=1/2;
 3/5=4,6=6,7=214,11=2,25=1,30=1,71=2,74=-55,140=1/1,2,3;
 4//1;
 5/5=2,38=5/2;
 8/6=4,10=90,11=11/1;
 11/6=1,8=1,9=11,15=111,16=1/1,2,10;
 10/6=1,13=1/2;
 6/7=2,8=2,9=2,10=2,28=1/1;
 7/10=1,18=20,25=1/1,2,3,16;
 1/10=4,18=20,19=15,26=3/3(2);
 2/9=110/2;
 99//99;
 2/9=110/2;
 3/5=4,6=6,7=214,11=2,25=1,30=1,71=1,74=-55/1,2,3;
 4/5=5,16=3,69=1/1;
 5/5=2,38=5/2;
 7//1,2,3,16;
 1/18=20,19=15,26=3/3(-5);
 2/9=110/2;
 6/7=2,8=2,9=2,10=2,19=2,28=1/1;
 99/9=1/99;
 Leave Link    1 at Fri Mar 29 09:11:01 2019, MaxMem=   671088640 cpu:              26.8 elap:               1.4
 (Enter /shared/centos7/gaussian/g16/l101.exe)
 ----------------------------------------
 Gaussian Input Prepared from Scan Object
 ----------------------------------------
 Symbolic Z-matrix:
 Charge =  0 Multiplicity = 2
 O                    -1.45279  -0.98873  -0.09195 
 C                    -0.05616   1.01588  -0.36799 
 C                     1.26405   0.52061   0.23158 
 C                    -1.28721   0.37097   0.25466 
 C                     1.57494  -0.90347  -0.06859 
 H                    -0.12646   2.0964   -0.22566 
 H                    -0.0686    0.8294   -1.44473 
 H                     1.25629   0.68206   1.31304 
 H                     2.07559   1.15391  -0.15389 
 H                    -2.18589   0.87535  -0.09915 
 H                    -1.25185   0.49033   1.3448 
 H                     2.20999  -1.48014   0.5874 
 H                     1.40846  -1.28705  -1.06611 
 H                    -0.66894  -1.47433   0.18197 
 
 The following ModRedundant input section has been read:
 B       3       5 B                                                           
 B       2       3 B                                                           
 B       2       7 B                                                           
 B       5      12 B                                                           
 B       2       6 B                                                           
 B       1      14 B                                                           
 B       1       4 B                                                           
 B       3       8 B                                                           
 B       3       9 B                                                           
 B       5      13 B                                                           
 B       4      10 B                                                           
 B       4      11 B                                                           
 B       2       4 B                                                           
 D       4       2       3       9 S  12 30.000                                
 
 ITRead=  0  0  0  0  0  0  0  0  0  0  0  0  0  0
 MicOpt= -1 -1 -1 -1 -1 -1 -1 -1 -1 -1 -1 -1 -1 -1
 NAtoms=     14 NQM=       14 NQMF=       0 NMMI=      0 NMMIF=      0
                NMic=       0 NMicF=      0.
                    Isotopes and Nuclear Properties:
 (Nuclear quadrupole moments (NQMom) in fm**2, nuclear magnetic moments (NMagM)
  in nuclear magnetons)

  Atom         1           2           3           4           5           6           7           8           9          10
 IAtWgt=          16          12          12          12          12           1           1           1           1           1
 AtmWgt=  15.9949146  12.0000000  12.0000000  12.0000000  12.0000000   1.0078250   1.0078250   1.0078250   1.0078250   1.0078250
 NucSpn=           0           0           0           0           0           1           1           1           1           1
 AtZEff=  -0.0000000  -0.0000000  -0.0000000  -0.0000000  -0.0000000  -0.0000000  -0.0000000  -0.0000000  -0.0000000  -0.0000000
 NQMom=    0.0000000   0.0000000   0.0000000   0.0000000   0.0000000   0.0000000   0.0000000   0.0000000   0.0000000   0.0000000
 NMagM=    0.0000000   0.0000000   0.0000000   0.0000000   0.0000000   2.7928460   2.7928460   2.7928460   2.7928460   2.7928460
 AtZNuc=   8.0000000   6.0000000   6.0000000   6.0000000   6.0000000   1.0000000   1.0000000   1.0000000   1.0000000   1.0000000

  Atom        11          12          13          14
 IAtWgt=           1           1           1           1
 AtmWgt=   1.0078250   1.0078250   1.0078250   1.0078250
 NucSpn=           1           1           1           1
 AtZEff=  -0.0000000  -0.0000000  -0.0000000  -0.0000000
 NQMom=    0.0000000   0.0000000   0.0000000   0.0000000
 NMagM=    2.7928460   2.7928460   2.7928460   2.7928460
 AtZNuc=   1.0000000   1.0000000   1.0000000   1.0000000
 Leave Link  101 at Fri Mar 29 09:11:01 2019, MaxMem=   671088640 cpu:               5.2 elap:               0.3
 (Enter /shared/centos7/gaussian/g16/l103.exe)

 GradGradGradGradGradGradGradGradGradGradGradGradGradGradGradGradGradGrad
 Berny optimization.
 Initialization pass.
                           ----------------------------
                           !    Initial Parameters    !
                           ! (Angstroms and Degrees)  !
 --------------------------                            --------------------------
 ! Name  Definition              Value          Derivative Info.                !
 --------------------------------------------------------------------------------
 ! R1    R(1,4)                  1.4129         calculate D2E/DX2 analytically  !
 ! R2    R(1,14)                 0.9619         calculate D2E/DX2 analytically  !
 ! R3    R(2,3)                  1.5322         calculate D2E/DX2 analytically  !
 ! R4    R(2,4)                  1.5229         calculate D2E/DX2 analytically  !
 ! R5    R(2,6)                  1.0921         calculate D2E/DX2 analytically  !
 ! R6    R(2,7)                  1.0928         calculate D2E/DX2 analytically  !
 ! R7    R(3,5)                  1.4882         calculate D2E/DX2 analytically  !
 ! R8    R(3,8)                  1.0935         calculate D2E/DX2 analytically  !
 ! R9    R(3,9)                  1.0992         calculate D2E/DX2 analytically  !
 ! R10   R(4,10)                 1.0896         calculate D2E/DX2 analytically  !
 ! R11   R(4,11)                 1.0972         calculate D2E/DX2 analytically  !
 ! R12   R(5,12)                 1.0799         calculate D2E/DX2 analytically  !
 ! R13   R(5,13)                 1.0816         calculate D2E/DX2 analytically  !
 ! A1    A(4,1,14)             108.6913         calculate D2E/DX2 analytically  !
 ! A2    A(3,2,4)              113.5559         calculate D2E/DX2 analytically  !
 ! A3    A(3,2,6)              108.9214         calculate D2E/DX2 analytically  !
 ! A4    A(3,2,7)              109.8887         calculate D2E/DX2 analytically  !
 ! A5    A(4,2,6)              108.2805         calculate D2E/DX2 analytically  !
 ! A6    A(4,2,7)              108.7465         calculate D2E/DX2 analytically  !
 ! A7    A(6,2,7)              107.2472         calculate D2E/DX2 analytically  !
 ! A8    A(2,3,5)              114.2282         calculate D2E/DX2 analytically  !
 ! A9    A(2,3,8)              109.461          calculate D2E/DX2 analytically  !
 ! A10   A(2,3,9)              108.2207         calculate D2E/DX2 analytically  !
 ! A11   A(5,3,8)              110.0148         calculate D2E/DX2 analytically  !
 ! A12   A(5,3,9)              109.0478         calculate D2E/DX2 analytically  !
 ! A13   A(8,3,9)              105.4857         calculate D2E/DX2 analytically  !
 ! A14   A(1,4,2)              113.7015         calculate D2E/DX2 analytically  !
 ! A15   A(1,4,10)             105.6143         calculate D2E/DX2 analytically  !
 ! A16   A(1,4,11)             110.6215         calculate D2E/DX2 analytically  !
 ! A17   A(2,4,10)             109.7515         calculate D2E/DX2 analytically  !
 ! A18   A(2,4,11)             109.5181         calculate D2E/DX2 analytically  !
 ! A19   A(10,4,11)            107.3882         calculate D2E/DX2 analytically  !
 ! A20   A(3,5,12)             120.752          calculate D2E/DX2 analytically  !
 ! A21   A(3,5,13)             119.5529         calculate D2E/DX2 analytically  !
 ! A22   A(12,5,13)            117.4746         calculate D2E/DX2 analytically  !
 ! D1    D(14,1,4,2)            58.1787         calculate D2E/DX2 analytically  !
 ! D2    D(14,1,4,10)          178.5701         calculate D2E/DX2 analytically  !
 ! D3    D(14,1,4,11)          -65.5361         calculate D2E/DX2 analytically  !
 ! D4    D(4,2,3,5)             67.6478         calculate D2E/DX2 analytically  !
 ! D5    D(4,2,3,8)            -56.2061         calculate D2E/DX2 analytically  !
 ! D6    D(4,2,3,9)           -170.6903         Scan                            !
 ! D7    D(6,2,3,5)           -171.6099         calculate D2E/DX2 analytically  !
 ! D8    D(6,2,3,8)             64.5363         calculate D2E/DX2 analytically  !
 ! D9    D(6,2,3,9)            -49.9479         calculate D2E/DX2 analytically  !
 ! D10   D(7,2,3,5)            -54.3953         calculate D2E/DX2 analytically  !
 ! D11   D(7,2,3,8)           -178.2491         calculate D2E/DX2 analytically  !
 ! D12   D(7,2,3,9)             67.2667         calculate D2E/DX2 analytically  !
 ! D13   D(3,2,4,1)            -70.8935         calculate D2E/DX2 analytically  !
 ! D14   D(3,2,4,10)           171.0749         calculate D2E/DX2 analytically  !
 ! D15   D(3,2,4,11)            53.4187         calculate D2E/DX2 analytically  !
 ! D16   D(6,2,4,1)            168.0041         calculate D2E/DX2 analytically  !
 ! D17   D(6,2,4,10)            49.9724         calculate D2E/DX2 analytically  !
 ! D18   D(6,2,4,11)           -67.6837         calculate D2E/DX2 analytically  !
 ! D19   D(7,2,4,1)             51.7815         calculate D2E/DX2 analytically  !
 ! D20   D(7,2,4,10)           -66.2501         calculate D2E/DX2 analytically  !
 ! D21   D(7,2,4,11)           176.0937         calculate D2E/DX2 analytically  !
 ! D22   D(2,3,5,12)          -154.4708         calculate D2E/DX2 analytically  !
 ! D23   D(2,3,5,13)            42.883          calculate D2E/DX2 analytically  !
 ! D24   D(8,3,5,12)           -30.9148         calculate D2E/DX2 analytically  !
 ! D25   D(8,3,5,13)           166.439          calculate D2E/DX2 analytically  !
 ! D26   D(9,3,5,12)            84.3235         calculate D2E/DX2 analytically  !
 ! D27   D(9,3,5,13)           -78.3227         calculate D2E/DX2 analytically  !
 --------------------------------------------------------------------------------
 Trust Radius=3.00D-01 FncErr=1.00D-07 GrdErr=1.00D-06 EigMax=2.50D+02 EigMin=1.00D-04
 Number of optimizations in scan=  13
 Number of steps in this run=     72 maximum allowed number of steps=    100.
 GradGradGradGradGradGradGradGradGradGradGradGradGradGradGradGradGradGrad

 Leave Link  103 at Fri Mar 29 09:11:01 2019, MaxMem=   671088640 cpu:               0.3 elap:               0.0
 (Enter /shared/centos7/gaussian/g16/l202.exe)
                          Input orientation:                          
 ---------------------------------------------------------------------
 Center     Atomic      Atomic             Coordinates (Angstroms)
 Number     Number       Type             X           Y           Z
 ---------------------------------------------------------------------
      1          8           0       -1.452787   -0.988728   -0.091950
      2          6           0       -0.056160    1.015879   -0.367991
      3          6           0        1.264052    0.520605    0.231583
      4          6           0       -1.287210    0.370966    0.254656
      5          6           0        1.574935   -0.903466   -0.068592
      6          1           0       -0.126461    2.096398   -0.225662
      7          1           0       -0.068600    0.829402   -1.444732
      8          1           0        1.256292    0.682062    1.313041
      9          1           0        2.075593    1.153910   -0.153890
     10          1           0       -2.185891    0.875346   -0.099152
     11          1           0       -1.251847    0.490328    1.344801
     12          1           0        2.209989   -1.480144    0.587399
     13          1           0        1.408461   -1.287051   -1.066114
     14          1           0       -0.668943   -1.474334    0.181973
 ---------------------------------------------------------------------
                    Distance matrix (angstroms):
                    1          2          3          4          5
     1  O    0.000000
     2  C    2.458702   0.000000
     3  C    3.124736   1.532235   0.000000
     4  C    1.412912   1.522855   2.555751   0.000000
     5  C    3.029012   2.536532   1.488197   3.149689   0.000000
     6  H    3.360807   1.092118   2.150749   2.134282   3.452333
     7  H    2.655483   1.092840   2.163643   2.140816   2.756411
     8  H    3.479173   2.158665   1.093472   2.772429   2.127050
     9  H    4.128462   2.146919   1.099210   3.476831   2.119134
    10  H    2.003064   2.151227   3.483868   1.089590   4.160399
    11  H    2.071771   2.153956   2.751349   1.097230   3.454133
    12  H    3.757517   3.504045   2.241517   3.970860   1.079896
    13  H    3.037224   2.817087   2.229908   3.429300   1.081620
    14  H    0.961904   2.622808   2.778257   1.947478   2.328876
                    6          7          8          9         10
     6  H    0.000000
     7  H    1.759193   0.000000
     8  H    2.505985   3.063064   0.000000
     9  H    2.396347   2.523716   1.745217   0.000000
    10  H    2.397546   2.509107   3.725624   4.270930   0.000000
    11  H    2.512431   3.049023   2.515657   3.709215   1.762293
    12  H    4.348761   3.828254   2.472090   2.739674   5.034227
    13  H    3.809209   2.608531   3.092077   2.689890   4.304688
    14  H    3.634636   2.883363   3.104173   3.814833   2.810900
                   11         12         13         14
    11  H    0.000000
    12  H    4.054717   0.000000
    13  H    4.006099   1.847657   0.000000
    14  H    2.356235   2.907345   2.430721   0.000000
 Stoichiometry    C4H9O(2)
 Framework group  C1[X(C4H9O)]
 Deg. of freedom    36
 Full point group                 C1      NOp   1
 Largest Abelian subgroup         C1      NOp   1
 Largest concise Abelian subgroup C1      NOp   1
                         Standard orientation:                         
 ---------------------------------------------------------------------
 Center     Atomic      Atomic             Coordinates (Angstroms)
 Number     Number       Type             X           Y           Z
 ---------------------------------------------------------------------
      1          8           0        1.452787    0.988728   -0.091950
      2          6           0        0.056160   -1.015879   -0.367991
      3          6           0       -1.264052   -0.520605    0.231583
      4          6           0        1.287210   -0.370966    0.254656
      5          6           0       -1.574935    0.903466   -0.068592
      6          1           0        0.126461   -2.096398   -0.225662
      7          1           0        0.068600   -0.829402   -1.444732
      8          1           0       -1.256292   -0.682062    1.313041
      9          1           0       -2.075593   -1.153910   -0.153890
     10          1           0        2.185891   -0.875346   -0.099152
     11          1           0        1.251847   -0.490328    1.344801
     12          1           0       -2.209989    1.480144    0.587399
     13          1           0       -1.408461    1.287051   -1.066114
     14          1           0        0.668943    1.474334    0.181973
 ---------------------------------------------------------------------
 Rotational constants (GHZ):           7.5427679           3.8012009           2.8243889
 Leave Link  202 at Fri Mar 29 09:11:01 2019, MaxMem=   671088640 cpu:               0.2 elap:               0.0
 (Enter /shared/centos7/gaussian/g16/l301.exe)
 Standard basis: 6-311+G(2df,2p) (5D, 7F)
 Ernie: Thresh=  0.10000D-02 Tol=  0.10000D-05 Strict=F.
 There are   276 symmetry adapted cartesian basis functions of A   symmetry.
 There are   251 symmetry adapted basis functions of A   symmetry.
   251 basis functions,   359 primitive gaussians,   276 cartesian basis functions
    21 alpha electrons       20 beta electrons
       nuclear repulsion energy       184.4289857409 Hartrees.
 IExCor= 4336 DFT=T Ex+Corr=M062X ExCW=0 ScaHFX=  0.540000
 ScaDFX=  1.000000  1.000000  1.000000  1.000000 ScalE2=  1.000000  1.000000
 IRadAn=      5 IRanWt=     -1 IRanGd=            0 ICorTp=0 IEmpDi=  4
 NAtoms=   14 NActive=   14 NUniq=   14 SFac= 1.00D+00 NAtFMM=   60 NAOKFM=F Big=F
 Integral buffers will be    131072 words long.
 Raffenetti 2 integral format.
 Two-electron integral symmetry is turned on.
 Leave Link  301 at Fri Mar 29 09:11:01 2019, MaxMem=   671088640 cpu:               0.9 elap:               0.1
 (Enter /shared/centos7/gaussian/g16/l302.exe)
 NPDir=0 NMtPBC=     1 NCelOv=     1 NCel=       1 NClECP=     1 NCelD=      1
         NCelK=      1 NCelE2=     1 NClLst=     1 CellRange=     0.0.
 One-electron integrals computed using PRISM.
 One-electron integral symmetry used in STVInt
 NBasis=   251 RedAO= T EigKep=  5.63D-05  NBF=   251
 NBsUse=   251 1.00D-06 EigRej= -1.00D+00 NBFU=   251
 Precomputing XC quadrature grid using
 IXCGrd= 4 IRadAn=           5 IRanWt=          -1 IRanGd=           0 AccXCQ= 0.00D+00.
 Generated NRdTot=       0 NPtTot=           0 NUsed=           0 NTot=          32
 NSgBfM=   276   276   276   276   276 MxSgAt=    14 MxSgA2=    14.
 Leave Link  302 at Fri Mar 29 09:11:02 2019, MaxMem=   671088640 cpu:               6.2 elap:               0.3
 (Enter /shared/centos7/gaussian/g16/l303.exe)
 DipDrv:  MaxL=1.
 Leave Link  303 at Fri Mar 29 09:11:02 2019, MaxMem=   671088640 cpu:               0.5 elap:               0.0
 (Enter /shared/centos7/gaussian/g16/l401.exe)
 ExpMin= 4.38D-02 ExpMax= 8.59D+03 ExpMxC= 1.30D+03 IAcc=3 IRadAn=         5 AccDes= 0.00D+00
 Harris functional with IExCor= 1009 and IRadAn=       5 diagonalized for initial guess.
 HarFok:  IExCor= 1009 AccDes= 0.00D+00 IRadAn=         5 IDoV= 1 UseB2=F ITyADJ=14
 ICtDFT=  3500011 ScaDFX=  1.000000  1.000000  1.000000  1.000000
 FoFCou: FMM=F IPFlag=           0 FMFlag=      100000 FMFlg1=           0
         NFxFlg=           0 DoJE=T BraDBF=F KetDBF=T FulRan=T
         wScrn=  0.000000 ICntrl=       500 IOpCl=  0 I1Cent=   200000004 NGrid=           0
         NMat0=    1 NMatS0=      1 NMatT0=    0 NMatD0=    1 NMtDS0=    0 NMtDT0=    0
 Petite list used in FoFCou.
 Harris En= -232.888158423113    
 JPrj=0 DoOrth=F DoCkMO=F.
 Initial guess <Sx>= 0.0000 <Sy>= 0.0000 <Sz>= 0.5000 <S**2>= 0.7500 S= 0.5000
 Leave Link  401 at Fri Mar 29 09:11:03 2019, MaxMem=   671088640 cpu:              16.4 elap:               0.8
 (Enter /shared/centos7/gaussian/g16/l502.exe)
 Integral symmetry usage will be decided dynamically.
 UHF open shell SCF:
 Using DIIS extrapolation, IDIIS=  1040.
 NGot=   671088640 LenX=   670928170 LenY=   670851553
 Requested convergence on RMS density matrix=1.00D-08 within 128 cycles.
 Requested convergence on MAX density matrix=1.00D-06.
 Requested convergence on             energy=1.00D-06.
 No special actions if energy rises.
 Fock matrices will be formed incrementally for  20 cycles.

 Cycle   1  Pass 1  IDiag  1:
 FoFJK:  IHMeth= 1 ICntrl=       0 DoSepK=F KAlg= 0 I1Cent=           0 FoldK=F
 IRaf= 990000000 NMat=       1 IRICut=       1 DoRegI=T DoRafI=F ISym2E= 0 IDoP0=0 IntGTp=1.
 FoFCou: FMM=F IPFlag=           0 FMFlag=      100000 FMFlg1=           0
         NFxFlg=           0 DoJE=F BraDBF=F KetDBF=F FulRan=T
         wScrn=  0.000000 ICntrl=         0 IOpCl=  1 I1Cent=           0 NGrid=           0
         NMat0=    1 NMatS0=      1 NMatT0=    0 NMatD0=    1 NMtDS0=    0 NMtDT0=    0
 Symmetry not used in FoFCou.
 E= -232.782427270984    
 DIIS: error= 2.17D-02 at cycle   1 NSaved=   1.
 NSaved= 1 IEnMin= 1 EnMin= -232.782427270984     IErMin= 1 ErrMin= 2.17D-02
 ErrMax= 2.17D-02  0.00D+00 EMaxC= 1.00D-01 BMatC= 8.80D-01 BMatP= 8.80D-01
 IDIUse=3 WtCom= 7.83D-01 WtEn= 2.17D-01
 Coeff-Com:  0.100D+01
 Coeff-En:   0.100D+01
 Coeff:      0.100D+01
 Gap=     0.247 Goal=   None    Shift=    0.000
 Gap=     0.297 Goal=   None    Shift=    0.000
 GapD=    0.247 DampG=1.000 DampE=0.500 DampFc=0.5000 IDamp=-1.
 Damping current iteration by 5.00D-01
 RMSDP=3.31D-03 MaxDP=1.73D-01              OVMax= 1.42D-01

 Cycle   2  Pass 1  IDiag  1:
 RMSU=  1.64D-03    CP:  9.79D-01
 E= -232.872834378948     Delta-E=       -0.090407107965 Rises=F Damp=T
 DIIS: error= 4.94D-03 at cycle   2 NSaved=   2.
 NSaved= 2 IEnMin= 2 EnMin= -232.872834378948     IErMin= 2 ErrMin= 4.94D-03
 ErrMax= 4.94D-03  0.00D+00 EMaxC= 1.00D-01 BMatC= 5.92D-02 BMatP= 8.80D-01
 IDIUse=3 WtCom= 9.51D-01 WtEn= 4.94D-02
 Coeff-Com: -0.794D-01 0.108D+01
 Coeff-En:   0.000D+00 0.100D+01
 Coeff:     -0.754D-01 0.108D+01
 Gap=     0.289 Goal=   None    Shift=    0.000
 Gap=     0.335 Goal=   None    Shift=    0.000
 RMSDP=1.26D-03 MaxDP=6.98D-02 DE=-9.04D-02 OVMax= 8.30D-02

 Cycle   3  Pass 1  IDiag  1:
 RMSU=  1.20D-03    CP:  9.69D-01  7.80D-01
 E= -232.961758936391     Delta-E=       -0.088924557443 Rises=F Damp=F
 DIIS: error= 3.08D-03 at cycle   3 NSaved=   3.
 NSaved= 3 IEnMin= 3 EnMin= -232.961758936391     IErMin= 3 ErrMin= 3.08D-03
 ErrMax= 3.08D-03  0.00D+00 EMaxC= 1.00D-01 BMatC= 1.45D-02 BMatP= 5.92D-02
 IDIUse=3 WtCom= 9.69D-01 WtEn= 3.08D-02
 Coeff-Com: -0.826D-01 0.328D+00 0.754D+00
 Coeff-En:   0.000D+00 0.000D+00 0.100D+01
 Coeff:     -0.800D-01 0.318D+00 0.762D+00
 Gap=     0.287 Goal=   None    Shift=    0.000
 Gap=     0.303 Goal=   None    Shift=    0.000
 RMSDP=2.22D-04 MaxDP=1.29D-02 DE=-8.89D-02 OVMax= 1.43D-02

 Cycle   4  Pass 1  IDiag  1:
 RMSU=  1.91D-04    CP:  9.68D-01  8.48D-01  9.89D-01
 E= -232.964052845217     Delta-E=       -0.002293908826 Rises=F Damp=F
 DIIS: error= 1.23D-03 at cycle   4 NSaved=   4.
 NSaved= 4 IEnMin= 4 EnMin= -232.964052845217     IErMin= 4 ErrMin= 1.23D-03
 ErrMax= 1.23D-03  0.00D+00 EMaxC= 1.00D-01 BMatC= 2.47D-03 BMatP= 1.45D-02
 IDIUse=3 WtCom= 9.88D-01 WtEn= 1.23D-02
 Coeff-Com: -0.294D-01 0.723D-01 0.339D+00 0.618D+00
 Coeff-En:   0.000D+00 0.000D+00 0.000D+00 0.100D+01
 Coeff:     -0.291D-01 0.714D-01 0.335D+00 0.623D+00
 Gap=     0.284 Goal=   None    Shift=    0.000
 Gap=     0.309 Goal=   None    Shift=    0.000
 RMSDP=9.35D-05 MaxDP=5.69D-03 DE=-2.29D-03 OVMax= 5.71D-03

 Cycle   5  Pass 1  IDiag  1:
 RMSU=  6.29D-05    CP:  9.67D-01  8.27D-01  1.01D+00  7.21D-01
 E= -232.964538067867     Delta-E=       -0.000485222650 Rises=F Damp=F
 DIIS: error= 4.38D-04 at cycle   5 NSaved=   5.
 NSaved= 5 IEnMin= 5 EnMin= -232.964538067867     IErMin= 5 ErrMin= 4.38D-04
 ErrMax= 4.38D-04  0.00D+00 EMaxC= 1.00D-01 BMatC= 1.71D-04 BMatP= 2.47D-03
 IDIUse=3 WtCom= 9.96D-01 WtEn= 4.38D-03
 Coeff-Com: -0.319D-02-0.299D-02 0.478D-01 0.222D+00 0.737D+00
 Coeff-En:   0.000D+00 0.000D+00 0.000D+00 0.000D+00 0.100D+01
 Coeff:     -0.318D-02-0.298D-02 0.475D-01 0.221D+00 0.738D+00
 Gap=     0.285 Goal=   None    Shift=    0.000
 Gap=     0.309 Goal=   None    Shift=    0.000
 RMSDP=4.05D-05 MaxDP=1.84D-03 DE=-4.85D-04 OVMax= 2.17D-03

 Cycle   6  Pass 1  IDiag  1:
 RMSU=  3.16D-05    CP:  9.67D-01  8.26D-01  1.02D+00  8.08D-01  9.10D-01
 E= -232.964587189900     Delta-E=       -0.000049122033 Rises=F Damp=F
 DIIS: error= 1.04D-04 at cycle   6 NSaved=   6.
 NSaved= 6 IEnMin= 6 EnMin= -232.964587189900     IErMin= 6 ErrMin= 1.04D-04
 ErrMax= 1.04D-04  0.00D+00 EMaxC= 1.00D-01 BMatC= 1.38D-05 BMatP= 1.71D-04
 IDIUse=3 WtCom= 9.99D-01 WtEn= 1.04D-03
 Coeff-Com:  0.435D-02-0.108D-01-0.508D-01-0.923D-01 0.484D-02 0.114D+01
 Coeff-En:   0.000D+00 0.000D+00 0.000D+00 0.000D+00 0.000D+00 0.100D+01
 Coeff:      0.435D-02-0.108D-01-0.507D-01-0.923D-01 0.483D-02 0.114D+01
 Gap=     0.286 Goal=   None    Shift=    0.000
 Gap=     0.310 Goal=   None    Shift=    0.000
 RMSDP=1.62D-05 MaxDP=8.48D-04 DE=-4.91D-05 OVMax= 1.82D-03

 Cycle   7  Pass 1  IDiag  1:
 RMSU=  1.07D-05    CP:  9.67D-01  8.23D-01  1.03D+00  8.26D-01  1.05D+00
                    CP:  1.14D+00
 E= -232.964596590622     Delta-E=       -0.000009400722 Rises=F Damp=F
 DIIS: error= 3.43D-05 at cycle   7 NSaved=   7.
 NSaved= 7 IEnMin= 7 EnMin= -232.964596590622     IErMin= 7 ErrMin= 3.43D-05
 ErrMax= 3.43D-05  0.00D+00 EMaxC= 1.00D-01 BMatC= 1.96D-06 BMatP= 1.38D-05
 IDIUse=1 WtCom= 1.00D+00 WtEn= 0.00D+00
 Coeff-Com:  0.134D-02-0.232D-02-0.177D-01-0.492D-01-0.803D-01 0.313D+00
 Coeff-Com:  0.835D+00
 Coeff:      0.134D-02-0.232D-02-0.177D-01-0.492D-01-0.803D-01 0.313D+00
 Coeff:      0.835D+00
 Gap=     0.286 Goal=   None    Shift=    0.000
 Gap=     0.310 Goal=   None    Shift=    0.000
 RMSDP=4.32D-06 MaxDP=4.05D-04 DE=-9.40D-06 OVMax= 3.95D-04

 Cycle   8  Pass 1  IDiag  1:
 RMSU=  3.21D-06    CP:  9.67D-01  8.22D-01  1.03D+00  8.26D-01  1.06D+00
                    CP:  1.21D+00  1.15D+00
 E= -232.964597406227     Delta-E=       -0.000000815605 Rises=F Damp=F
 DIIS: error= 1.26D-05 at cycle   8 NSaved=   8.
 NSaved= 8 IEnMin= 8 EnMin= -232.964597406227     IErMin= 8 ErrMin= 1.26D-05
 ErrMax= 1.26D-05  0.00D+00 EMaxC= 1.00D-01 BMatC= 2.17D-07 BMatP= 1.96D-06
 IDIUse=1 WtCom= 1.00D+00 WtEn= 0.00D+00
 Coeff-Com: -0.198D-03 0.652D-03 0.136D-02-0.301D-02-0.224D-01-0.466D-01
 Coeff-Com:  0.213D+00 0.857D+00
 Coeff:     -0.198D-03 0.652D-03 0.136D-02-0.301D-02-0.224D-01-0.466D-01
 Coeff:      0.213D+00 0.857D+00
 Gap=     0.286 Goal=   None    Shift=    0.000
 Gap=     0.310 Goal=   None    Shift=    0.000
 RMSDP=1.89D-06 MaxDP=8.60D-05 DE=-8.16D-07 OVMax= 1.81D-04

 Cycle   9  Pass 1  IDiag  1:
 RMSU=  1.41D-06    CP:  9.67D-01  8.23D-01  1.03D+00  8.26D-01  1.06D+00
                    CP:  1.22D+00  1.25D+00  1.16D+00
 E= -232.964597489702     Delta-E=       -0.000000083475 Rises=F Damp=F
 DIIS: error= 3.90D-06 at cycle   9 NSaved=   9.
 NSaved= 9 IEnMin= 9 EnMin= -232.964597489702     IErMin= 9 ErrMin= 3.90D-06
 ErrMax= 3.90D-06  0.00D+00 EMaxC= 1.00D-01 BMatC= 1.97D-08 BMatP= 2.17D-07
 IDIUse=1 WtCom= 1.00D+00 WtEn= 0.00D+00
 Coeff-Com: -0.210D-03 0.439D-03 0.246D-02 0.544D-02 0.638D-02-0.444D-01
 Coeff-Com: -0.741D-01 0.171D+00 0.933D+00
 Coeff:     -0.210D-03 0.439D-03 0.246D-02 0.544D-02 0.638D-02-0.444D-01
 Coeff:     -0.741D-01 0.171D+00 0.933D+00
 Gap=     0.286 Goal=   None    Shift=    0.000
 Gap=     0.310 Goal=   None    Shift=    0.000
 RMSDP=6.92D-07 MaxDP=2.75D-05 DE=-8.35D-08 OVMax= 3.19D-05

 Cycle  10  Pass 1  IDiag  1:
 RMSU=  3.11D-07    CP:  9.67D-01  8.23D-01  1.03D+00  8.25D-01  1.06D+00
                    CP:  1.21D+00  1.28D+00  1.28D+00  1.04D+00
 E= -232.964597497544     Delta-E=       -0.000000007842 Rises=F Damp=F
 DIIS: error= 8.99D-07 at cycle  10 NSaved=  10.
 NSaved=10 IEnMin=10 EnMin= -232.964597497544     IErMin=10 ErrMin= 8.99D-07
 ErrMax= 8.99D-07  0.00D+00 EMaxC= 1.00D-01 BMatC= 8.85D-10 BMatP= 1.97D-08
 IDIUse=1 WtCom= 1.00D+00 WtEn= 0.00D+00
 Coeff-Com: -0.817D-05 0.124D-04 0.207D-03 0.704D-03 0.172D-02-0.261D-02
 Coeff-Com: -0.199D-01-0.191D-01 0.102D+00 0.937D+00
 Coeff:     -0.817D-05 0.124D-04 0.207D-03 0.704D-03 0.172D-02-0.261D-02
 Coeff:     -0.199D-01-0.191D-01 0.102D+00 0.937D+00
 Gap=     0.286 Goal=   None    Shift=    0.000
 Gap=     0.310 Goal=   None    Shift=    0.000
 RMSDP=1.52D-07 MaxDP=8.14D-06 DE=-7.84D-09 OVMax= 8.73D-06

 Cycle  11  Pass 1  IDiag  1:
 RMSU=  1.02D-07    CP:  9.67D-01  8.23D-01  1.03D+00  8.25D-01  1.06D+00
                    CP:  1.21D+00  1.28D+00  1.30D+00  1.06D+00  1.23D+00
 E= -232.964597497923     Delta-E=       -0.000000000378 Rises=F Damp=F
 DIIS: error= 4.04D-07 at cycle  11 NSaved=  11.
 NSaved=11 IEnMin=11 EnMin= -232.964597497923     IErMin=11 ErrMin= 4.04D-07
 ErrMax= 4.04D-07  0.00D+00 EMaxC= 1.00D-01 BMatC= 2.18D-10 BMatP= 8.85D-10
 IDIUse=1 WtCom= 1.00D+00 WtEn= 0.00D+00
 Coeff-Com:  0.228D-04-0.489D-04-0.219D-03-0.392D-03-0.140D-03 0.430D-02
 Coeff-Com:  0.151D-02-0.259D-01-0.735D-01 0.319D+00 0.776D+00
 Coeff:      0.228D-04-0.489D-04-0.219D-03-0.392D-03-0.140D-03 0.430D-02
 Coeff:      0.151D-02-0.259D-01-0.735D-01 0.319D+00 0.776D+00
 Gap=     0.286 Goal=   None    Shift=    0.000
 Gap=     0.310 Goal=   None    Shift=    0.000
 RMSDP=5.64D-08 MaxDP=3.68D-06 DE=-3.78D-10 OVMax= 3.55D-06

 Cycle  12  Pass 1  IDiag  1:
 RMSU=  3.22D-08    CP:  9.67D-01  8.23D-01  1.03D+00  8.25D-01  1.06D+00
                    CP:  1.22D+00  1.28D+00  1.31D+00  1.06D+00  1.33D+00
                    CP:  1.15D+00
 E= -232.964597498005     Delta-E=       -0.000000000082 Rises=F Damp=F
 DIIS: error= 1.02D-07 at cycle  12 NSaved=  12.
 NSaved=12 IEnMin=12 EnMin= -232.964597498005     IErMin=12 ErrMin= 1.02D-07
 ErrMax= 1.02D-07  0.00D+00 EMaxC= 1.00D-01 BMatC= 1.52D-11 BMatP= 2.18D-10
 IDIUse=1 WtCom= 1.00D+00 WtEn= 0.00D+00
 Coeff-Com:  0.277D-05-0.615D-05-0.460D-04-0.112D-03-0.196D-03 0.766D-03
 Coeff-Com:  0.242D-02-0.479D-03-0.206D-01-0.788D-01 0.932D-01 0.100D+01
 Coeff:      0.277D-05-0.615D-05-0.460D-04-0.112D-03-0.196D-03 0.766D-03
 Coeff:      0.242D-02-0.479D-03-0.206D-01-0.788D-01 0.932D-01 0.100D+01
 Gap=     0.286 Goal=   None    Shift=    0.000
 Gap=     0.310 Goal=   None    Shift=    0.000
 RMSDP=2.37D-08 MaxDP=1.41D-06 DE=-8.23D-11 OVMax= 1.73D-06

 Cycle  13  Pass 1  IDiag  1:
 RMSU=  9.54D-09    CP:  9.67D-01  8.23D-01  1.03D+00  8.25D-01  1.06D+00
                    CP:  1.22D+00  1.27D+00  1.31D+00  1.06D+00  1.35D+00
                    CP:  1.31D+00  1.28D+00
 E= -232.964597498014     Delta-E=       -0.000000000009 Rises=F Damp=F
 DIIS: error= 2.98D-08 at cycle  13 NSaved=  13.
 NSaved=13 IEnMin=13 EnMin= -232.964597498014     IErMin=13 ErrMin= 2.98D-08
 ErrMax= 2.98D-08  0.00D+00 EMaxC= 1.00D-01 BMatC= 1.21D-12 BMatP= 1.52D-11
 IDIUse=1 WtCom= 1.00D+00 WtEn= 0.00D+00
 Coeff-Com: -0.162D-05 0.330D-05 0.114D-04 0.194D-04-0.126D-04-0.247D-03
 Coeff-Com:  0.146D-03 0.194D-02 0.349D-02-0.344D-01-0.582D-01 0.109D+00
 Coeff-Com:  0.978D+00
 Coeff:     -0.162D-05 0.330D-05 0.114D-04 0.194D-04-0.126D-04-0.247D-03
 Coeff:      0.146D-03 0.194D-02 0.349D-02-0.344D-01-0.582D-01 0.109D+00
 Coeff:      0.978D+00
 Gap=     0.286 Goal=   None    Shift=    0.000
 Gap=     0.310 Goal=   None    Shift=    0.000
 RMSDP=8.42D-09 MaxDP=5.20D-07 DE=-8.81D-12 OVMax= 5.97D-07

 SCF Done:  E(UM062X) =  -232.964597498     A.U. after   13 cycles
            NFock= 13  Conv=0.84D-08     -V/T= 2.0039
 <Sx>= 0.0000 <Sy>= 0.0000 <Sz>= 0.5000 <S**2>= 0.7553 S= 0.5027
 <L.S>= 0.000000000000E+00
 KE= 2.320645363729D+02 PE=-9.118508029978D+02 EE= 2.623926833860D+02
 Annihilation of the first spin contaminant:
 S**2 before annihilation     0.7553,   after     0.7500
 Leave Link  502 at Fri Mar 29 09:11:45 2019, MaxMem=   671088640 cpu:             850.7 elap:              42.6
 (Enter /shared/centos7/gaussian/g16/l801.exe)
 DoSCS=F DFT=T ScalE2(SS,OS)=  1.000000  1.000000
 Range of M.O.s used for correlation:     1   251
 NBasis=   251 NAE=    21 NBE=    20 NFC=     0 NFV=     0
 NROrb=    251 NOA=    21 NOB=    20 NVA=   230 NVB=   231

 **** Warning!!: The largest alpha MO coefficient is  0.34957872D+02


 **** Warning!!: The largest beta MO coefficient is  0.33684320D+02

 Leave Link  801 at Fri Mar 29 09:11:45 2019, MaxMem=   671088640 cpu:               0.4 elap:               0.0
 (Enter /shared/centos7/gaussian/g16/l1101.exe)
 Using compressed storage, NAtomX=    14.
 Will process     15 centers per pass.
 Leave Link 1101 at Fri Mar 29 09:11:46 2019, MaxMem=   671088640 cpu:               6.9 elap:               0.4
 (Enter /shared/centos7/gaussian/g16/l1102.exe)
 Symmetrizing basis deriv contribution to polar:
 IMax=3 JMax=2 DiffMx= 0.00D+00
 Leave Link 1102 at Fri Mar 29 09:11:46 2019, MaxMem=   671088640 cpu:               0.5 elap:               0.0
 (Enter /shared/centos7/gaussian/g16/l1110.exe)
 Forming Gx(P) for the SCF density, NAtomX=    14.
 Integral derivatives from FoFJK, PRISM(SPDF).
 Do as many integral derivatives as possible in FoFJK.
 G2DrvN: MDV=     671087496.
 G2DrvN: will do    15 centers at a time, making    1 passes.
 Calling FoFCou, ICntrl=  3107 FMM=F I1Cent=   0 AccDes= 0.00D+00.
 FoFJK:  IHMeth= 1 ICntrl=    3107 DoSepK=F KAlg= 0 I1Cent=           0 FoldK=F
 IRaf=         0 NMat=       1 IRICut=       1 DoRegI=T DoRafI=F ISym2E= 0 IDoP0=0 IntGTp=1.
 FoFCou: FMM=F IPFlag=           0 FMFlag=      100000 FMFlg1=           0
         NFxFlg=           0 DoJE=F BraDBF=F KetDBF=F FulRan=T
         wScrn=  0.000000 ICntrl=      3107 IOpCl=  1 I1Cent=           0 NGrid=           0
         NMat0=    1 NMatS0=      1 NMatT0=    0 NMatD0=    1 NMtDS0=    0 NMtDT0=    0
 Symmetry not used in FoFCou.
 End of G2Drv F.D. properties file   721 does not exist.
 End of G2Drv F.D. properties file   722 does not exist.
 End of G2Drv F.D. properties file   788 does not exist.
 Leave Link 1110 at Fri Mar 29 09:13:17 2019, MaxMem=   671088640 cpu:            1828.4 elap:              91.4
 (Enter /shared/centos7/gaussian/g16/l1002.exe)
 Minotr:  UHF open shell wavefunction.
          IDoAtm=11111111111111
          Direct CPHF calculation.
          Differentiating once with respect to nuclear coordinates.
          Requested convergence is 1.0D-08 RMS, and 1.0D-07 maximum.
          Secondary convergence is 1.0D-12 RMS, and 1.0D-12 maximum.
          NewPWx=T KeepS1=F KeepF1=F KeepIn=T MapXYZ=F SortEE=F KeepMc=T.
         4243 words used for storage of precomputed grid.
 Two-electron integrals replicated using symmetry.
          MDV=     671088640 using IRadAn=       1.
          Solving linear equations simultaneously, MaxMat=     380.
 FoF2E skips out because all densities are zero.
 CalDSu exits because no D1Ps are significant.
 FoFJK:  IHMeth= 1 ICntrl=       0 DoSepK=F KAlg= 0 I1Cent=           0 FoldK=F
 IRaf= 980000000 NMat=      42 IRICut=     105 DoRegI=T DoRafI=T ISym2E= 2 IDoP0=3 IntGTp=3.
 FoFCou: FMM=F IPFlag=           0 FMFlag=      100000 FMFlg1=           0
         NFxFlg=           0 DoJE=F BraDBF=F KetDBF=F FulRan=T
         wScrn=  0.000000 ICntrl=         0 IOpCl=  1 I1Cent=           0 NGrid=           0
         NMat0=   42 NMatS0=     42 NMatT0=    0 NMatD0=   42 NMtDS0=    0 NMtDT0=    0
 Integrals replicated using symmetry in FoFCou.
 Raff kept on since  97.05% of shell-pairs survive, threshold=   0.20 IRatSp=97.
          There are    45 degrees of freedom in the 1st order CPHF.  IDoFFX=6 NUNeed=     0.
     39 vectors produced by pass  0 Test12= 2.10D-14 2.22D-09 XBig12= 1.22D-01 6.58D-02.
 AX will form    39 AO Fock derivatives at one time.
     39 vectors produced by pass  1 Test12= 2.10D-14 2.22D-09 XBig12= 1.13D-02 1.28D-02.
     39 vectors produced by pass  2 Test12= 2.10D-14 2.22D-09 XBig12= 5.52D-04 4.47D-03.
     39 vectors produced by pass  3 Test12= 2.10D-14 2.22D-09 XBig12= 1.10D-05 4.69D-04.
     39 vectors produced by pass  4 Test12= 2.10D-14 2.22D-09 XBig12= 1.32D-07 4.81D-05.
     39 vectors produced by pass  5 Test12= 2.10D-14 2.22D-09 XBig12= 1.28D-09 3.12D-06.
     39 vectors produced by pass  6 Test12= 2.10D-14 2.22D-09 XBig12= 8.79D-12 2.41D-07.
     14 vectors produced by pass  7 Test12= 2.10D-14 2.22D-09 XBig12= 5.90D-14 1.91D-08.
 InvSVY:  IOpt=1 It=  1 EMax= 2.22D-15
 Solved reduced A of dimension   287 with    39 vectors.
 End of Minotr F.D. properties file   721 does not exist.
 End of Minotr F.D. properties file   722 does not exist.
 End of Minotr F.D. properties file   788 does not exist.
 Leave Link 1002 at Fri Mar 29 09:15:41 2019, MaxMem=   671088640 cpu:            2883.8 elap:             144.2
 (Enter /shared/centos7/gaussian/g16/l601.exe)
 Copying SCF densities to generalized density rwf, IOpCl= 1 IROHF=0.

 **********************************************************************

            Population analysis using the SCF density.

 **********************************************************************

 Orbital symmetries:
 Alpha Orbitals:
       Occupied  (A) (A) (A) (A) (A) (A) (A) (A) (A) (A) (A) (A)
                 (A) (A) (A) (A) (A) (A) (A) (A) (A)
       Virtual   (A) (A) (A) (A) (A) (A) (A) (A) (A) (A) (A) (A)
                 (A) (A) (A) (A) (A) (A) (A) (A) (A) (A) (A) (A)
                 (A) (A) (A) (A) (A) (A) (A) (A) (A) (A) (A) (A)
                 (A) (A) (A) (A) (A) (A) (A) (A) (A) (A) (A) (A)
                 (A) (A) (A) (A) (A) (A) (A) (A) (A) (A) (A) (A)
                 (A) (A) (A) (A) (A) (A) (A) (A) (A) (A) (A) (A)
                 (A) (A) (A) (A) (A) (A) (A) (A) (A) (A) (A) (A)
                 (A) (A) (A) (A) (A) (A) (A) (A) (A) (A) (A) (A)
                 (A) (A) (A) (A) (A) (A) (A) (A) (A) (A) (A) (A)
                 (A) (A) (A) (A) (A) (A) (A) (A) (A) (A) (A) (A)
                 (A) (A) (A) (A) (A) (A) (A) (A) (A) (A) (A) (A)
                 (A) (A) (A) (A) (A) (A) (A) (A) (A) (A) (A) (A)
                 (A) (A) (A) (A) (A) (A) (A) (A) (A) (A) (A) (A)
                 (A) (A) (A) (A) (A) (A) (A) (A) (A) (A) (A) (A)
                 (A) (A) (A) (A) (A) (A) (A) (A) (A) (A) (A) (A)
                 (A) (A) (A) (A) (A) (A) (A) (A) (A) (A) (A) (A)
                 (A) (A) (A) (A) (A) (A) (A) (A) (A) (A) (A) (A)
                 (A) (A) (A) (A) (A) (A) (A) (A) (A) (A) (A) (A)
                 (A) (A) (A) (A) (A) (A) (A) (A) (A) (A) (A) (A)
                 (A) (A)
 Beta  Orbitals:
       Occupied  (A) (A) (A) (A) (A) (A) (A) (A) (A) (A) (A) (A)
                 (A) (A) (A) (A) (A) (A) (A) (A)
       Virtual   (A) (A) (A) (A) (A) (A) (A) (A) (A) (A) (A) (A)
                 (A) (A) (A) (A) (A) (A) (A) (A) (A) (A) (A) (A)
                 (A) (A) (A) (A) (A) (A) (A) (A) (A) (A) (A) (A)
                 (A) (A) (A) (A) (A) (A) (A) (A) (A) (A) (A) (A)
                 (A) (A) (A) (A) (A) (A) (A) (A) (A) (A) (A) (A)
                 (A) (A) (A) (A) (A) (A) (A) (A) (A) (A) (A) (A)
                 (A) (A) (A) (A) (A) (A) (A) (A) (A) (A) (A) (A)
                 (A) (A) (A) (A) (A) (A) (A) (A) (A) (A) (A) (A)
                 (A) (A) (A) (A) (A) (A) (A) (A) (A) (A) (A) (A)
                 (A) (A) (A) (A) (A) (A) (A) (A) (A) (A) (A) (A)
                 (A) (A) (A) (A) (A) (A) (A) (A) (A) (A) (A) (A)
                 (A) (A) (A) (A) (A) (A) (A) (A) (A) (A) (A) (A)
                 (A) (A) (A) (A) (A) (A) (A) (A) (A) (A) (A) (A)
                 (A) (A) (A) (A) (A) (A) (A) (A) (A) (A) (A) (A)
                 (A) (A) (A) (A) (A) (A) (A) (A) (A) (A) (A) (A)
                 (A) (A) (A) (A) (A) (A) (A) (A) (A) (A) (A) (A)
                 (A) (A) (A) (A) (A) (A) (A) (A) (A) (A) (A) (A)
                 (A) (A) (A) (A) (A) (A) (A) (A) (A) (A) (A) (A)
                 (A) (A) (A) (A) (A) (A) (A) (A) (A) (A) (A) (A)
                 (A) (A) (A)
 The electronic state is 2-A.
 Alpha  occ. eigenvalues --  -19.61294 -10.57741 -10.55130 -10.54553 -10.53564
 Alpha  occ. eigenvalues --   -1.13971  -0.90518  -0.81943  -0.72561  -0.66834
 Alpha  occ. eigenvalues --   -0.58826  -0.54578  -0.52606  -0.50186  -0.47743
 Alpha  occ. eigenvalues --   -0.46371  -0.41988  -0.41437  -0.39179  -0.34567
 Alpha  occ. eigenvalues --   -0.27031
 Alpha virt. eigenvalues --    0.01566   0.02860   0.03457   0.03791   0.06302
 Alpha virt. eigenvalues --    0.06598   0.06991   0.07116   0.07480   0.10639
 Alpha virt. eigenvalues --    0.11139   0.11439   0.11642   0.11787   0.15705
 Alpha virt. eigenvalues --    0.16488   0.18785   0.19535   0.21275   0.22645
 Alpha virt. eigenvalues --    0.23383   0.24455   0.24863   0.25470   0.26876
 Alpha virt. eigenvalues --    0.27616   0.28227   0.29041   0.29353   0.30969
 Alpha virt. eigenvalues --    0.31962   0.33087   0.37455   0.41828   0.43807
 Alpha virt. eigenvalues --    0.44047   0.47384   0.48382   0.52163   0.52662
 Alpha virt. eigenvalues --    0.54453   0.55021   0.55965   0.57277   0.58860
 Alpha virt. eigenvalues --    0.59665   0.60351   0.60919   0.62072   0.64083
 Alpha virt. eigenvalues --    0.64273   0.65019   0.65735   0.67258   0.69352
 Alpha virt. eigenvalues --    0.69964   0.71375   0.76418   0.78336   0.80816
 Alpha virt. eigenvalues --    0.83710   0.85334   0.88454   0.93235   0.96068
 Alpha virt. eigenvalues --    0.98865   1.00070   1.00464   1.02517   1.03305
 Alpha virt. eigenvalues --    1.05412   1.09246   1.11235   1.12726   1.14848
 Alpha virt. eigenvalues --    1.15866   1.17436   1.19586   1.21618   1.22811
 Alpha virt. eigenvalues --    1.24422   1.25208   1.26443   1.29484   1.32061
 Alpha virt. eigenvalues --    1.32909   1.35171   1.36283   1.36861   1.39854
 Alpha virt. eigenvalues --    1.40892   1.42702   1.44858   1.46418   1.47211
 Alpha virt. eigenvalues --    1.49257   1.50794   1.51812   1.53524   1.54368
 Alpha virt. eigenvalues --    1.55547   1.57895   1.59466   1.62949   1.65253
 Alpha virt. eigenvalues --    1.68185   1.70515   1.75902   1.81388   1.99440
 Alpha virt. eigenvalues --    2.10857   2.15841   2.29203   2.32067   2.41584
 Alpha virt. eigenvalues --    2.46726   2.47681   2.51882   2.53683   2.64454
 Alpha virt. eigenvalues --    2.66311   2.72370   2.74040   2.77208   2.80128
 Alpha virt. eigenvalues --    2.82111   2.85951   2.87599   2.89940   2.90851
 Alpha virt. eigenvalues --    2.93619   2.96223   2.96757   2.99608   3.03081
 Alpha virt. eigenvalues --    3.06713   3.08293   3.11842   3.14970   3.16614
 Alpha virt. eigenvalues --    3.19685   3.20230   3.23844   3.27910   3.28716
 Alpha virt. eigenvalues --    3.31426   3.32445   3.35144   3.36981   3.38810
 Alpha virt. eigenvalues --    3.41998   3.42487   3.47144   3.51169   3.54736
 Alpha virt. eigenvalues --    3.57121   3.60826   3.63735   3.64317   3.66373
 Alpha virt. eigenvalues --    3.68426   3.70453   3.71333   3.76013   3.77190
 Alpha virt. eigenvalues --    3.78545   3.84489   3.86822   3.88592   3.92598
 Alpha virt. eigenvalues --    3.96467   3.97118   3.99371   4.01849   4.06283
 Alpha virt. eigenvalues --    4.08035   4.14016   4.14114   4.16839   4.18467
 Alpha virt. eigenvalues --    4.20057   4.20584   4.23523   4.27619   4.29397
 Alpha virt. eigenvalues --    4.31004   4.33768   4.36631   4.39480   4.41138
 Alpha virt. eigenvalues --    4.42968   4.46675   4.47655   4.52971   4.55547
 Alpha virt. eigenvalues --    4.58758   4.58957   4.65311   4.73145   4.75779
 Alpha virt. eigenvalues --    4.94202   5.04555   5.19773   5.24215   5.26984
 Alpha virt. eigenvalues --    5.29280   5.39893   5.41864   5.45827   5.50062
 Alpha virt. eigenvalues --    5.51967   5.55127   5.58782   5.60739   5.65290
 Alpha virt. eigenvalues --    5.69427   5.86761   5.96562   6.52630   7.01768
 Alpha virt. eigenvalues --    7.20299   7.23936   7.24843   7.52724   7.64400
 Alpha virt. eigenvalues --   24.22382  24.32774  24.44491  24.49513  50.15446
  Beta  occ. eigenvalues --  -19.61225 -10.57744 -10.54616 -10.54465 -10.53539
  Beta  occ. eigenvalues --   -1.13752  -0.89664  -0.80583  -0.71030  -0.65654
  Beta  occ. eigenvalues --   -0.58507  -0.54013  -0.51769  -0.49858  -0.46940
  Beta  occ. eigenvalues --   -0.45464  -0.41421  -0.41068  -0.38585  -0.34334
  Beta virt. eigenvalues --   -0.03325   0.01192   0.02525   0.03330   0.03803
  Beta virt. eigenvalues --    0.06423   0.06535   0.06671   0.07189   0.07871
  Beta virt. eigenvalues --    0.10324   0.10863   0.11295   0.11644   0.11732
  Beta virt. eigenvalues --    0.15127   0.16507   0.18913   0.20170   0.21502
  Beta virt. eigenvalues --    0.22602   0.23534   0.24598   0.25055   0.25706
  Beta virt. eigenvalues --    0.27154   0.27848   0.28123   0.29050   0.29470
  Beta virt. eigenvalues --    0.31016   0.32351   0.33204   0.37471   0.42094
  Beta virt. eigenvalues --    0.43949   0.44153   0.47563   0.49140   0.52545
  Beta virt. eigenvalues --    0.53417   0.54156   0.55348   0.55962   0.57609
  Beta virt. eigenvalues --    0.58877   0.59820   0.61089   0.61271   0.62744
  Beta virt. eigenvalues --    0.64191   0.64808   0.65427   0.66348   0.67497
  Beta virt. eigenvalues --    0.69468   0.70097   0.71908   0.76544   0.77811
  Beta virt. eigenvalues --    0.81181   0.83712   0.85827   0.88650   0.93316
  Beta virt. eigenvalues --    0.96129   0.98649   0.99912   1.00474   1.02542
  Beta virt. eigenvalues --    1.03453   1.05574   1.09329   1.11383   1.12763
  Beta virt. eigenvalues --    1.15124   1.16056   1.17666   1.19611   1.21839
  Beta virt. eigenvalues --    1.23074   1.24470   1.25343   1.26663   1.29607
  Beta virt. eigenvalues --    1.32132   1.33299   1.35441   1.36669   1.37155
  Beta virt. eigenvalues --    1.40050   1.41378   1.42688   1.44747   1.46658
  Beta virt. eigenvalues --    1.47756   1.49935   1.51095   1.51638   1.53594
  Beta virt. eigenvalues --    1.55067   1.55756   1.58577   1.59983   1.63168
  Beta virt. eigenvalues --    1.65347   1.68401   1.70511   1.76132   1.81584
  Beta virt. eigenvalues --    1.99687   2.10865   2.16040   2.29276   2.32291
  Beta virt. eigenvalues --    2.42295   2.47297   2.48373   2.52009   2.54246
  Beta virt. eigenvalues --    2.65009   2.67712   2.73328   2.75994   2.78862
  Beta virt. eigenvalues --    2.81744   2.83639   2.86749   2.89224   2.91457
  Beta virt. eigenvalues --    2.93546   2.94897   2.98102   2.99077   3.03199
  Beta virt. eigenvalues --    3.04051   3.09180   3.10427   3.13540   3.15901
  Beta virt. eigenvalues --    3.18441   3.20415   3.23128   3.25205   3.30228
  Beta virt. eigenvalues --    3.31332   3.33632   3.35224   3.35974   3.38561
  Beta virt. eigenvalues --    3.40072   3.43931   3.46004   3.49037   3.51350
  Beta virt. eigenvalues --    3.55088   3.59006   3.62368   3.63917   3.64675
  Beta virt. eigenvalues --    3.68779   3.69847   3.70951   3.71623   3.76881
  Beta virt. eigenvalues --    3.77963   3.79205   3.85606   3.87449   3.89778
  Beta virt. eigenvalues --    3.93204   3.97200   3.98235   4.00283   4.02447
  Beta virt. eigenvalues --    4.07589   4.09178   4.14547   4.15642   4.18622
  Beta virt. eigenvalues --    4.19521   4.20350   4.23521   4.24781   4.28444
  Beta virt. eigenvalues --    4.30738   4.31440   4.35456   4.37042   4.40063
  Beta virt. eigenvalues --    4.42774   4.44690   4.47323   4.47982   4.53493
  Beta virt. eigenvalues --    4.56378   4.59159   4.59396   4.65514   4.73476
  Beta virt. eigenvalues --    4.78443   4.97162   5.07571   5.20261   5.24339
  Beta virt. eigenvalues --    5.27185   5.30693   5.40088   5.41673   5.46535
  Beta virt. eigenvalues --    5.53529   5.55513   5.58100   5.58965   5.61047
  Beta virt. eigenvalues --    5.65115   5.69751   5.86826   5.96690   6.52626
  Beta virt. eigenvalues --    7.02115   7.20471   7.24010   7.25134   7.52867
  Beta virt. eigenvalues --    7.64661  24.23315  24.32862  24.44885  24.49670
  Beta virt. eigenvalues --   50.15359
          Condensed to atoms (all electrons):
               1          2          3          4          5          6
     1  O    8.092368   0.015447  -0.035320   0.143338  -0.028633   0.007372
     2  C    0.015447   5.437621  -0.023054   0.231113  -0.085397   0.423714
     3  C   -0.035320  -0.023054   5.510966  -0.092831   0.026945  -0.038796
     4  C    0.143338   0.231113  -0.092831   5.076130   0.099711  -0.034616
     5  C   -0.028633  -0.085397   0.026945   0.099711   5.791113   0.017667
     6  H    0.007372   0.423714  -0.038796  -0.034616   0.017667   0.517704
     7  H   -0.010464   0.460786  -0.003605  -0.055947  -0.031264  -0.024048
     8  H   -0.000037   0.002026   0.466854  -0.022368  -0.080810  -0.006549
     9  H   -0.001025  -0.060307   0.419511   0.014767  -0.028209  -0.004392
    10  H   -0.058959  -0.070250   0.027846   0.458469  -0.001855  -0.004317
    11  H   -0.042798   0.013637  -0.024093   0.412251  -0.011979  -0.002712
    12  H    0.000334   0.017659  -0.044381  -0.002482   0.411083  -0.000249
    13  H   -0.000607   0.005401  -0.022396  -0.002348   0.383316  -0.000194
    14  H    0.257692  -0.030097   0.006017  -0.012871   0.038809  -0.000159
               7          8          9         10         11         12
     1  O   -0.010464  -0.000037  -0.001025  -0.058959  -0.042798   0.000334
     2  C    0.460786   0.002026  -0.060307  -0.070250   0.013637   0.017659
     3  C   -0.003605   0.466854   0.419511   0.027846  -0.024093  -0.044381
     4  C   -0.055947  -0.022368   0.014767   0.458469   0.412251  -0.002482
     5  C   -0.031264  -0.080810  -0.028209  -0.001855  -0.011979   0.411083
     6  H   -0.024048  -0.006549  -0.004392  -0.004317  -0.002712  -0.000249
     7  H    0.478313   0.003826  -0.006042  -0.004257   0.004109   0.000047
     8  H    0.003826   0.499130  -0.032844  -0.000132   0.001036  -0.002992
     9  H   -0.006042  -0.032844   0.552453  -0.000342   0.000015  -0.001632
    10  H   -0.004257  -0.000132  -0.000342   0.537818  -0.034866   0.000023
    11  H    0.004109   0.001036   0.000015  -0.034866   0.551988   0.000168
    12  H    0.000047  -0.002992  -0.001632   0.000023   0.000168   0.463985
    13  H    0.000559   0.003817  -0.001987  -0.000083   0.000026  -0.019420
    14  H    0.000156  -0.001182   0.000460   0.008997  -0.006549  -0.000825
              13         14
     1  O   -0.000607   0.257692
     2  C    0.005401  -0.030097
     3  C   -0.022396   0.006017
     4  C   -0.002348  -0.012871
     5  C    0.383316   0.038809
     6  H   -0.000194  -0.000159
     7  H    0.000559   0.000156
     8  H    0.003817  -0.001182
     9  H   -0.001987   0.000460
    10  H   -0.000083   0.008997
    11  H    0.000026  -0.006549
    12  H   -0.019420  -0.000825
    13  H    0.457969  -0.003802
    14  H   -0.003802   0.497185
          Atomic-Atomic Spin Densities.
               1          2          3          4          5          6
     1  O    0.034818   0.004020   0.005095  -0.009517  -0.032140  -0.000241
     2  C    0.004020   0.077470   0.018303  -0.024829  -0.046856  -0.004358
     3  C    0.005095   0.018303  -0.033652  -0.006900  -0.092060   0.000801
     4  C   -0.009517  -0.024829  -0.006900   0.029296   0.024374   0.000378
     5  C   -0.032140  -0.046856  -0.092060   0.024374   1.274299   0.003211
     6  H   -0.000241  -0.004358   0.000801   0.000378   0.003211  -0.003163
     7  H    0.000239   0.005364  -0.001953  -0.003751  -0.001053   0.000822
     8  H    0.001006   0.023714  -0.000473  -0.007318  -0.018785  -0.000488
     9  H   -0.000801  -0.037104   0.032649   0.008106  -0.027826   0.001523
    10  H    0.000609   0.001485   0.001252  -0.001616  -0.002370  -0.000398
    11  H   -0.001034   0.001647  -0.001328  -0.001974   0.000847   0.000174
    12  H    0.000485   0.002809   0.011803  -0.001204  -0.018992  -0.000015
    13  H    0.001273   0.006759   0.001938  -0.001087  -0.016033  -0.000090
    14  H    0.012755   0.002522  -0.000585   0.003490   0.012986   0.000094
               7          8          9         10         11         12
     1  O    0.000239   0.001006  -0.000801   0.000609  -0.001034   0.000485
     2  C    0.005364   0.023714  -0.037104   0.001485   0.001647   0.002809
     3  C   -0.001953  -0.000473   0.032649   0.001252  -0.001328   0.011803
     4  C   -0.003751  -0.007318   0.008106  -0.001616  -0.001974  -0.001204
     5  C   -0.001053  -0.018785  -0.027826  -0.002370   0.000847  -0.018992
     6  H    0.000822  -0.000488   0.001523  -0.000398   0.000174  -0.000015
     7  H   -0.002716   0.000208  -0.001102   0.000329  -0.000004   0.000012
     8  H    0.000208   0.023081  -0.012103   0.000151   0.000080   0.001345
     9  H   -0.001102  -0.012103   0.091598  -0.000124  -0.000067  -0.001966
    10  H    0.000329   0.000151  -0.000124   0.002845   0.000519   0.000003
    11  H   -0.000004   0.000080  -0.000067   0.000519  -0.002746   0.000006
    12  H    0.000012   0.001345  -0.001966   0.000003   0.000006  -0.046069
    13  H    0.000017   0.000338  -0.001931   0.000035  -0.000016   0.006652
    14  H   -0.000142  -0.000653   0.000476  -0.001445   0.000660  -0.000339
              13         14
     1  O    0.001273   0.012755
     2  C    0.006759   0.002522
     3  C    0.001938  -0.000585
     4  C   -0.001087   0.003490
     5  C   -0.016033   0.012986
     6  H   -0.000090   0.000094
     7  H    0.000017  -0.000142
     8  H    0.000338  -0.000653
     9  H   -0.001931   0.000476
    10  H    0.000035  -0.001445
    11  H   -0.000016   0.000660
    12  H    0.006652  -0.000339
    13  H   -0.051489   0.000014
    14  H    0.000014  -0.034195
 Mulliken charges and spin densities:
               1          2
     1  O   -0.338709   0.016569
     2  C   -0.338299   0.030947
     3  C   -0.173663  -0.065109
     4  C   -0.212317   0.007449
     5  C   -0.500497   1.059604
     6  H    0.149575  -0.001751
     7  H    0.187830  -0.003728
     8  H    0.170225   0.010102
     9  H    0.149577   0.051329
    10  H    0.141907   0.001275
    11  H    0.139769  -0.003235
    12  H    0.178683  -0.045469
    13  H    0.199749  -0.053620
    14  H    0.246170  -0.004362
 Sum of Mulliken charges =  -0.00000   1.00000
 Mulliken charges and spin densities with hydrogens summed into heavy atoms:
               1          2
     1  O   -0.092539   0.012207
     2  C   -0.000894   0.025468
     3  C    0.146139  -0.003678
     4  C    0.069359   0.005489
     5  C   -0.122065   0.960515
 APT charges:
               1
     1  O   -0.535798
     2  C   -0.821104
     3  C   -0.810805
     4  C   -0.690816
     5  C   -0.890051
     6  H    0.449186
     7  H    0.357850
     8  H    0.369518
     9  H    0.472090
    10  H    0.492778
    11  H    0.338045
    12  H    0.539846
    13  H    0.342430
    14  H    0.386831
 Sum of APT charges =  -0.00000
 APT charges with hydrogens summed into heavy atoms:
               1
     1  O   -0.148967
     2  C   -0.014068
     3  C    0.030803
     4  C    0.140007
     5  C   -0.007775
 Electronic spatial extent (au):  <R**2>=            485.7127
 Charge=             -0.0000 electrons
 Dipole moment (field-independent basis, Debye):
    X=             -1.7433    Y=             -1.1572    Z=              0.5759  Tot=              2.1703
 Quadrupole moment (field-independent basis, Debye-Ang):
   XX=            -35.8699   YY=            -32.5078   ZZ=            -32.6034
   XY=             -3.4389   XZ=              0.3303   YZ=              0.6195
 Traceless Quadrupole moment (field-independent basis, Debye-Ang):
   XX=             -2.2095   YY=              1.1526   ZZ=              1.0570
   XY=             -3.4389   XZ=              0.3303   YZ=              0.6195
 Octapole moment (field-independent basis, Debye-Ang**2):
  XXX=              2.2180  YYY=              3.5689  ZZZ=              0.0111  XYY=             -1.4081
  XXY=             -5.9093  XXZ=              1.5816  XZZ=              0.9930  YZZ=              1.1022
  YYZ=              0.5992  XYZ=              0.3631
 Hexadecapole moment (field-independent basis, Debye-Ang**3):
 XXXX=           -387.5861 YYYY=           -195.3734 ZZZZ=            -73.3275 XXXY=             -7.9240
 XXXZ=             -5.3145 YYYX=              2.3777 YYYZ=              0.6977 ZZZX=             -0.1003
 ZZZY=             -1.2808 XXYY=            -99.8421 XXZZ=            -76.0692 YYZZ=            -47.0998
 XXYZ=              4.1454 YYXZ=             -0.0550 ZZXY=             -0.1050
 N-N= 1.844289857409D+02 E-N=-9.118508016625D+02  KE= 2.320645363729D+02
  Exact polarizability:   0.000   0.000   0.000   0.000   0.000   0.000
 Approx polarizability:  61.097  -1.049  63.211  -0.571  -0.598  58.989
                          Isotropic Fermi Contact Couplings
        Atom                 a.u.       MegaHertz       Gauss      10(-4) cm-1
     1  O(17)              0.00666      -4.03877      -1.44113      -1.34719
     2  C(13)              0.01403      15.77291       5.62817       5.26128
     3  C(13)             -0.03128     -35.16604     -12.54812     -11.73013
     4  C(13)             -0.00233      -2.61870      -0.93442      -0.87350
     5  C(13)              0.16996     191.06602      68.17711      63.73276
     6  H(1)              -0.00046      -2.06109      -0.73545      -0.68750
     7  H(1)              -0.00032      -1.42108      -0.50708      -0.47402
     8  H(1)               0.00561      25.08676       8.95158       8.36804
     9  H(1)               0.03125     139.68983      49.84480      46.59551
    10  H(1)               0.00098       4.36720       1.55833       1.45674
    11  H(1)               0.00001       0.05718       0.02040       0.01907
    12  H(1)              -0.01462     -65.34448     -23.31653     -21.79657
    13  H(1)              -0.01472     -65.78181     -23.47259     -21.94245
    14  H(1)              -0.00373     -16.66667      -5.94708      -5.55940
 --------------------------------------------------------
       Center         ----  Spin Dipole Couplings  ----
                      3XX-RR        3YY-RR        3ZZ-RR
 --------------------------------------------------------
     1   Atom        0.146500     -0.070746     -0.075754
     2   Atom        0.017376     -0.002750     -0.014626
     3   Atom        0.003082      0.008429     -0.011510
     4   Atom        0.006897     -0.000806     -0.006091
     5   Atom        0.634432     -0.325831     -0.308601
     6   Atom       -0.000612      0.005080     -0.004469
     7   Atom       -0.000442      0.000239      0.000203
     8   Atom       -0.007909      0.007135      0.000774
     9   Atom       -0.006029      0.016372     -0.010342
    10   Atom        0.002602     -0.000214     -0.002388
    11   Atom        0.003032     -0.001014     -0.002018
    12   Atom        0.026320     -0.020758     -0.005563
    13   Atom       -0.017118     -0.043746      0.060864
    14   Atom        0.037913     -0.015329     -0.022584
 --------------------------------------------------------
                        XY            XZ            YZ
 --------------------------------------------------------
     1   Atom       -0.042115     -0.025910      0.004869
     2   Atom       -0.017345     -0.012494      0.006076
     3   Atom        0.007921      0.009243      0.003383
     4   Atom       -0.006518      0.001504     -0.000717
     5   Atom        0.491343      0.501891      0.214233
     6   Atom       -0.004210     -0.000488      0.000563
     7   Atom       -0.005265     -0.005397      0.005594
     8   Atom       -0.001568      0.001568     -0.013330
     9   Atom        0.005179      0.002260      0.000420
    10   Atom       -0.002755     -0.000302      0.000193
    11   Atom       -0.003898      0.003440     -0.002486
    12   Atom       -0.023327     -0.030098      0.057049
    13   Atom        0.029105     -0.001458     -0.037462
    14   Atom       -0.003741     -0.005446      0.004986
 --------------------------------------------------------


 ---------------------------------------------------------------------------------
              Anisotropic Spin Dipole Couplings in Principal Axis System
 ---------------------------------------------------------------------------------

       Atom             a.u.   MegaHertz   Gauss  10(-4) cm-1        Axes

              Baa    -0.0787     5.698     2.033     1.900  0.0745 -0.2024  0.9765
     1 O(17)  Bbb    -0.0786     5.689     2.030     1.898  0.2012  0.9621  0.1840
              Bcc     0.1574   -11.386    -4.063    -3.798  0.9767 -0.1827 -0.1124
 
              Baa    -0.0189    -2.540    -0.906    -0.847  0.3199 -0.0128  0.9474
     2 C(13)  Bbb    -0.0126    -1.691    -0.603    -0.564  0.4513  0.8812 -0.1405
              Bcc     0.0315     4.231     1.510     1.411  0.8330 -0.4725 -0.2877
 
              Baa    -0.0160    -2.147    -0.766    -0.716 -0.4424  0.0193  0.8966
     3 C(13)  Bbb    -0.0006    -0.082    -0.029    -0.027 -0.6442  0.6887 -0.3327
              Bcc     0.0166     2.229     0.795     0.744  0.6239  0.7248  0.2923
 
              Baa    -0.0063    -0.841    -0.300    -0.280 -0.1198 -0.0127  0.9927
     4 C(13)  Bbb    -0.0045    -0.606    -0.216    -0.202  0.4877  0.8702  0.0700
              Bcc     0.0108     1.447     0.516     0.483  0.8647 -0.4926  0.0980
 
              Baa    -0.5336   -71.599   -25.548   -23.883 -0.2544  0.9174 -0.3061
     5 C(13)  Bbb    -0.5255   -70.512   -25.160   -23.520 -0.4505  0.1677  0.8769
              Bcc     1.0590   142.110    50.709    47.403  0.8558  0.3610  0.3706
 
              Baa    -0.0045    -2.417    -0.862    -0.806  0.1156 -0.0076  0.9933
     6 H(1)   Bbb    -0.0028    -1.510    -0.539    -0.504  0.8756  0.4730 -0.0983
              Bcc     0.0074     3.927     1.401     1.310 -0.4690  0.8811  0.0613
 
              Baa    -0.0055    -2.948    -1.052    -0.984  0.7223 -0.0113  0.6915
     7 H(1)   Bbb    -0.0053    -2.840    -1.013    -0.947  0.4122  0.8099 -0.4173
              Bcc     0.0108     5.788     2.065     1.931 -0.5553  0.5864  0.5897
 
              Baa    -0.0098    -5.223    -1.864    -1.742 -0.1506  0.6030  0.7834
     8 H(1)   Bbb    -0.0081    -4.299    -1.534    -1.434  0.9849  0.1598  0.0663
              Bcc     0.0178     9.523     3.398     3.176 -0.0852  0.7815 -0.6180
 
              Baa    -0.0114    -6.095    -2.175    -2.033 -0.4408  0.0686  0.8950
     9 H(1)   Bbb    -0.0061    -3.264    -1.165    -1.089  0.8708 -0.2089  0.4450
              Bcc     0.0175     9.359     3.339     3.122  0.2174  0.9755  0.0323
 
              Baa    -0.0024    -1.284    -0.458    -0.428  0.0388 -0.0389  0.9985
    10 H(1)   Bbb    -0.0019    -1.014    -0.362    -0.338  0.5226  0.8525  0.0129
              Bcc     0.0043     2.298     0.820     0.766  0.8517 -0.5213 -0.0534
 
              Baa    -0.0041    -2.173    -0.775    -0.725 -0.1062  0.5421  0.8336
    11 H(1)   Bbb    -0.0032    -1.732    -0.618    -0.578  0.6274  0.6869 -0.3668
              Bcc     0.0073     3.905     1.393     1.303  0.7714 -0.4841  0.4130
 
              Baa    -0.0708   -37.762   -13.474   -12.596 -0.0269  0.7462 -0.6652
    12 H(1)   Bbb    -0.0037    -1.956    -0.698    -0.653  0.7841  0.4286  0.4490
              Bcc     0.0744    39.718    14.172    13.249  0.6201 -0.5095 -0.5966
 
              Baa    -0.0700   -37.363   -13.332   -12.463 -0.4629  0.8535  0.2391
    13 H(1)   Bbb    -0.0041    -2.191    -0.782    -0.731  0.8783  0.4054  0.2534
              Bcc     0.0741    39.554    14.114    13.194 -0.1194 -0.3274  0.9373
 
              Baa    -0.0253   -13.492    -4.814    -4.500  0.0521 -0.4314  0.9007
    14 H(1)   Bbb    -0.0134    -7.169    -2.558    -2.391  0.1105  0.8988  0.4241
              Bcc     0.0387    20.661     7.372     6.892  0.9925 -0.0774 -0.0945
 

 ---------------------------------------------------------------------------------

 No NMR shielding tensors so no spin-rotation constants.
 Leave Link  601 at Fri Mar 29 09:15:42 2019, MaxMem=   671088640 cpu:               8.5 elap:               0.5
 (Enter /shared/centos7/gaussian/g16/l701.exe)
 ... and contract with generalized density number  0.
 Compute integral second derivatives.
 Leave Link  701 at Fri Mar 29 09:15:42 2019, MaxMem=   671088640 cpu:               7.0 elap:               0.4
 (Enter /shared/centos7/gaussian/g16/l702.exe)
 L702 exits ... SP integral derivatives will be done elsewhere.
 Leave Link  702 at Fri Mar 29 09:15:42 2019, MaxMem=   671088640 cpu:               0.3 elap:               0.0
 (Enter /shared/centos7/gaussian/g16/l703.exe)
 Integral derivatives from FoFJK, PRISM(SPDF).
 Compute integral second derivatives, UseDBF=F ICtDFT=           0.
 Calling FoFJK, ICntrl=    100147 FMM=F ISym2X=0 I1Cent= 0 IOpClX= 1 NMat=1 NMatS=1 NMatT=0.
 FoFJK:  IHMeth= 1 ICntrl=  100147 DoSepK=F KAlg= 0 I1Cent=           0 FoldK=F
 IRaf=         0 NMat=       1 IRICut=       1 DoRegI=T DoRafI=F ISym2E= 0 IDoP0=0 IntGTp=1.
 FoFCou: FMM=F IPFlag=           0 FMFlag=      100000 FMFlg1=         800
         NFxFlg=           0 DoJE=F BraDBF=F KetDBF=F FulRan=T
         wScrn=  0.000000 ICntrl=    100147 IOpCl=  1 I1Cent=           0 NGrid=           0
         NMat0=    1 NMatS0=      1 NMatT0=    0 NMatD0=    1 NMtDS0=    0 NMtDT0=    0
 Symmetry not used in FoFCou.
 Leave Link  703 at Fri Mar 29 09:17:08 2019, MaxMem=   671088640 cpu:            1718.6 elap:              86.0
 (Enter /shared/centos7/gaussian/g16/l716.exe)
 Dipole        =-6.85876260D-01-4.55295246D-01 2.26595122D-01
 Polarizability= 0.00000000D+00 0.00000000D+00 0.00000000D+00
                 0.00000000D+00 0.00000000D+00 0.00000000D+00
 ***** Axes restored to original set *****
 -------------------------------------------------------------------
 Center     Atomic                   Forces (Hartrees/Bohr)
 Number     Number              X              Y              Z
 -------------------------------------------------------------------
      1        8          -0.000000375    0.000000614   -0.000000758
      2        6           0.000000181    0.000000270    0.000001397
      3        6          -0.000000187    0.000000177    0.000000208
      4        6          -0.000000214   -0.000000775    0.000000295
      5        6           0.000000101    0.000000231   -0.000001883
      6        1          -0.000000311    0.000000317    0.000002252
      7        1          -0.000000657    0.000001573    0.000000678
      8        1           0.000000425   -0.000001293    0.000000002
      9        1          -0.000000245    0.000000287    0.000000547
     10        1          -0.000000151   -0.000000170    0.000001654
     11        1           0.000000491   -0.000001554    0.000001183
     12        1           0.000000450   -0.000000462   -0.000002333
     13        1          -0.000000242    0.000001381   -0.000001936
     14        1           0.000000733   -0.000000594   -0.000001305
 -------------------------------------------------------------------
 Cartesian Forces:  Max     0.000002333 RMS     0.000000970
 FormGI is forming the generalized inverse of G from B-inverse, IUseBI=4.
 Leave Link  716 at Fri Mar 29 09:17:08 2019, MaxMem=   671088640 cpu:               0.5 elap:               0.0
 (Enter /shared/centos7/gaussian/g16/l103.exe)

 GradGradGradGradGradGradGradGradGradGradGradGradGradGradGradGradGradGrad
 Berny optimization.
 Red2BG is reusing G-inverse.
 Internal  Forces:  Max     0.000000624 RMS     0.000000119
 Search for a local minimum.
 Step number   1 out of a maximum of   72 on scan point     1 out of    13
 All quantities printed in internal units (Hartrees-Bohrs-Radians)
 RMS Force = .11948D-06 SwitMx=.10000D-02 MixMth= 2
 Mixed Optimization -- En-DIIS/RFO-DIIS
 Second derivative matrix not updated -- analytic derivatives used.
 ITU=  0
     Eigenvalues ---    0.00167   0.00300   0.00600   0.01057   0.01493
     Eigenvalues ---    0.03766   0.03900   0.04175   0.04996   0.06099
     Eigenvalues ---    0.06970   0.07608   0.09163   0.10223   0.10461
     Eigenvalues ---    0.11115   0.12285   0.13572   0.17516   0.19793
     Eigenvalues ---    0.22464   0.25361   0.28216   0.30371   0.32015
     Eigenvalues ---    0.32483   0.33441   0.33881   0.33976   0.34073
     Eigenvalues ---    0.36248   0.36497   0.37092   0.40210   0.53170
     Eigenvalues --- 1000.000001000.000001000.000001000.000001000.00000
     Eigenvalues --- 1000.000001000.000001000.000001000.000001000.00000
     Eigenvalues --- 1000.000001000.000001000.000001000.000001000.00000
     Eigenvalues --- 1000.000001000.000001000.000001000.000001000.00000
     Eigenvalues --- 1000.000001000.000001000.000001000.000001000.00000
     Eigenvalues --- 1000.000001000.00000
 RFO step:  Lambda= 0.00000000D+00 EMin= 1.67021631D-03
 Linear search not attempted -- first point.
 Iteration  1 RMS(Cart)=  0.00000055 RMS(Int)=  0.00000000
 Iteration  1 RMS(Cart)=  0.00000000 RMS(Int)=  0.00000000
 ITry= 1 IFail=0 DXMaxC= 1.36D-06 DCOld= 1.00D+10 DXMaxT= 3.00D-01 DXLimC= 3.00D+00 Rises=F
 Variable       Old X    -DE/DX   Delta X   Delta X   Delta X     New X
                                 (Linear)    (Quad)   (Total)
    R1        2.67002  -0.00000   0.00000  -0.00000  -0.00000   2.67001
    R2        1.81773   0.00000   0.00000   0.00000   0.00000   1.81774
    R3        2.89551  -0.00000   0.00000  -0.00000  -0.00000   2.89550
    R4        2.87778   0.00000   0.00000   0.00000   0.00000   2.87778
    R5        2.06380   0.00000   0.00000   0.00000   0.00000   2.06380
    R6        2.06517   0.00000   0.00000   0.00000   0.00000   2.06517
    R7        2.81229   0.00000   0.00000   0.00000   0.00000   2.81229
    R8        2.06636  -0.00000   0.00000  -0.00000  -0.00000   2.06636
    R9        2.07721  -0.00000   0.00000  -0.00000  -0.00000   2.07721
   R10        2.05903  -0.00000   0.00000  -0.00000  -0.00000   2.05903
   R11        2.07346   0.00000   0.00000   0.00000   0.00000   2.07347
   R12        2.04071   0.00000   0.00000   0.00000   0.00000   2.04071
   R13        2.04397  -0.00000   0.00000  -0.00000  -0.00000   2.04396
    A1        1.89702   0.00000   0.00000   0.00000   0.00000   1.89702
    A2        1.98192   0.00000   0.00000   0.00000   0.00000   1.98192
    A3        1.90104  -0.00000   0.00000   0.00000   0.00000   1.90104
    A4        1.91792   0.00000   0.00000   0.00000   0.00000   1.91792
    A5        1.88985  -0.00000   0.00000  -0.00000  -0.00000   1.88985
    A6        1.89798  -0.00000   0.00000  -0.00000  -0.00000   1.89798
    A7        1.87182   0.00000   0.00000  -0.00000  -0.00000   1.87182
    A8        1.99366   0.00000   0.00000   0.00000   0.00000   1.99366
    A9        1.91046   0.00000   0.00000   0.00000   0.00000   1.91046
   A10        1.88881   0.00000   0.00000   0.00000   0.00000   1.88881
   A11        1.92012   0.00000   0.00000   0.00000   0.00000   1.92012
   A12        1.90324  -0.00000   0.00000  -0.00000  -0.00000   1.90324
   A13        1.84107  -0.00000   0.00000  -0.00000  -0.00000   1.84107
   A14        1.98446   0.00000   0.00000   0.00000   0.00000   1.98446
   A15        1.84332  -0.00000   0.00000   0.00000   0.00000   1.84332
   A16        1.93071   0.00000   0.00000   0.00000   0.00000   1.93071
   A17        1.91553   0.00000   0.00000   0.00000   0.00000   1.91553
   A18        1.91145  -0.00000   0.00000  -0.00000  -0.00000   1.91145
   A19        1.87428   0.00000   0.00000   0.00000   0.00000   1.87428
   A20        2.10752  -0.00000   0.00000  -0.00000  -0.00000   2.10752
   A21        2.08659  -0.00000   0.00000  -0.00000  -0.00000   2.08659
   A22        2.05032   0.00000   0.00000   0.00000   0.00000   2.05032
    D1        1.01541  -0.00000   0.00000  -0.00000  -0.00000   1.01541
    D2        3.11664   0.00000   0.00000  -0.00000  -0.00000   3.11664
    D3       -1.14382   0.00000   0.00000  -0.00000  -0.00000  -1.14382
    D4        1.18068   0.00000   0.00000   0.00000   0.00000   1.18068
    D5       -0.98098  -0.00000   0.00000  -0.00000  -0.00000  -0.98098
    D6       -2.97911  -0.00000   0.00000   0.00000   0.00000  -2.97911
    D7       -2.99516   0.00000   0.00000   0.00000   0.00000  -2.99516
    D8        1.12637  -0.00000   0.00000   0.00000   0.00000   1.12637
    D9       -0.87176  -0.00000   0.00000   0.00000   0.00000  -0.87175
   D10       -0.94938   0.00000   0.00000   0.00000   0.00000  -0.94938
   D11       -3.11103  -0.00000   0.00000   0.00000   0.00000  -3.11103
   D12        1.17403  -0.00000   0.00000   0.00000   0.00000   1.17403
   D13       -1.23732  -0.00000   0.00000   0.00000   0.00000  -1.23732
   D14        2.98582  -0.00000   0.00000  -0.00000  -0.00000   2.98582
   D15        0.93233  -0.00000   0.00000   0.00000   0.00000   0.93233
   D16        2.93222  -0.00000   0.00000  -0.00000  -0.00000   2.93222
   D17        0.87218  -0.00000   0.00000  -0.00000  -0.00000   0.87218
   D18       -1.18130  -0.00000   0.00000  -0.00000  -0.00000  -1.18130
   D19        0.90376   0.00000   0.00000   0.00000   0.00000   0.90376
   D20       -1.15628   0.00000   0.00000   0.00000   0.00000  -1.15628
   D21        3.07341   0.00000   0.00000   0.00000   0.00000   3.07342
   D22       -2.69602   0.00000   0.00000   0.00000   0.00000  -2.69602
   D23        0.74845  -0.00000   0.00000  -0.00000  -0.00000   0.74845
   D24       -0.53957   0.00000   0.00000   0.00000   0.00000  -0.53956
   D25        2.90491   0.00000   0.00000   0.00000   0.00000   2.90491
   D26        1.47172  -0.00000   0.00000   0.00000   0.00000   1.47173
   D27       -1.36699  -0.00000   0.00000  -0.00000  -0.00000  -1.36699
         Item               Value     Threshold  Converged?
 Maximum Force            0.000001     0.000450     YES
 RMS     Force            0.000000     0.000300     YES
 Maximum Displacement     0.000001     0.001800     YES
 RMS     Displacement     0.000001     0.001200     YES
 Predicted change in Energy=-1.468085D-12
 Optimization completed.
    -- Stationary point found.
                           ----------------------------
                           !   Optimized Parameters   !
                           ! (Angstroms and Degrees)  !
 --------------------------                            --------------------------
 ! Name  Definition              Value          Derivative Info.                !
 --------------------------------------------------------------------------------
 ! R1    R(1,4)                  1.4129         -DE/DX =    0.0                 !
 ! R2    R(1,14)                 0.9619         -DE/DX =    0.0                 !
 ! R3    R(2,3)                  1.5322         -DE/DX =    0.0                 !
 ! R4    R(2,4)                  1.5229         -DE/DX =    0.0                 !
 ! R5    R(2,6)                  1.0921         -DE/DX =    0.0                 !
 ! R6    R(2,7)                  1.0928         -DE/DX =    0.0                 !
 ! R7    R(3,5)                  1.4882         -DE/DX =    0.0                 !
 ! R8    R(3,8)                  1.0935         -DE/DX =    0.0                 !
 ! R9    R(3,9)                  1.0992         -DE/DX =    0.0                 !
 ! R10   R(4,10)                 1.0896         -DE/DX =    0.0                 !
 ! R11   R(4,11)                 1.0972         -DE/DX =    0.0                 !
 ! R12   R(5,12)                 1.0799         -DE/DX =    0.0                 !
 ! R13   R(5,13)                 1.0816         -DE/DX =    0.0                 !
 ! A1    A(4,1,14)             108.6913         -DE/DX =    0.0                 !
 ! A2    A(3,2,4)              113.5559         -DE/DX =    0.0                 !
 ! A3    A(3,2,6)              108.9214         -DE/DX =    0.0                 !
 ! A4    A(3,2,7)              109.8887         -DE/DX =    0.0                 !
 ! A5    A(4,2,6)              108.2805         -DE/DX =    0.0                 !
 ! A6    A(4,2,7)              108.7465         -DE/DX =    0.0                 !
 ! A7    A(6,2,7)              107.2472         -DE/DX =    0.0                 !
 ! A8    A(2,3,5)              114.2282         -DE/DX =    0.0                 !
 ! A9    A(2,3,8)              109.461          -DE/DX =    0.0                 !
 ! A10   A(2,3,9)              108.2207         -DE/DX =    0.0                 !
 ! A11   A(5,3,8)              110.0148         -DE/DX =    0.0                 !
 ! A12   A(5,3,9)              109.0478         -DE/DX =    0.0                 !
 ! A13   A(8,3,9)              105.4857         -DE/DX =    0.0                 !
 ! A14   A(1,4,2)              113.7015         -DE/DX =    0.0                 !
 ! A15   A(1,4,10)             105.6143         -DE/DX =    0.0                 !
 ! A16   A(1,4,11)             110.6215         -DE/DX =    0.0                 !
 ! A17   A(2,4,10)             109.7515         -DE/DX =    0.0                 !
 ! A18   A(2,4,11)             109.5181         -DE/DX =    0.0                 !
[...]
  Beta virt. eigenvalues --    1.03453   1.05574   1.09329   1.11384   1.12762
  Beta virt. eigenvalues --    1.15124   1.16056   1.17666   1.19611   1.21839
  Beta virt. eigenvalues --    1.23074   1.24469   1.25343   1.26662   1.29606
  Beta virt. eigenvalues --    1.32132   1.33299   1.35443   1.36669   1.37154
  Beta virt. eigenvalues --    1.40051   1.41379   1.42687   1.44747   1.46659
  Beta virt. eigenvalues --    1.47756   1.49935   1.51095   1.51638   1.53594
  Beta virt. eigenvalues --    1.55067   1.55756   1.58576   1.59983   1.63168
  Beta virt. eigenvalues --    1.65347   1.68400   1.70511   1.76132   1.81584
  Beta virt. eigenvalues --    1.99686   2.10865   2.16040   2.29276   2.32291
  Beta virt. eigenvalues --    2.42296   2.47297   2.48375   2.52009   2.54247
  Beta virt. eigenvalues --    2.65008   2.67712   2.73328   2.75993   2.78862
  Beta virt. eigenvalues --    2.81743   2.83639   2.86748   2.89225   2.91458
  Beta virt. eigenvalues --    2.93547   2.94897   2.98102   2.99076   3.03200
  Beta virt. eigenvalues --    3.04051   3.09179   3.10427   3.13541   3.15901
  Beta virt. eigenvalues --    3.18441   3.20415   3.23127   3.25202   3.30227
  Beta virt. eigenvalues --    3.31332   3.33632   3.35224   3.35975   3.38559
  Beta virt. eigenvalues --    3.40071   3.43931   3.46004   3.49037   3.51348
  Beta virt. eigenvalues --    3.55088   3.59006   3.62369   3.63917   3.64674
  Beta virt. eigenvalues --    3.68779   3.69848   3.70952   3.71622   3.76882
  Beta virt. eigenvalues --    3.77963   3.79205   3.85606   3.87449   3.89778
  Beta virt. eigenvalues --    3.93204   3.97200   3.98234   4.00283   4.02447
  Beta virt. eigenvalues --    4.07588   4.09177   4.14547   4.15641   4.18622
  Beta virt. eigenvalues --    4.19522   4.20350   4.23520   4.24783   4.28444
  Beta virt. eigenvalues --    4.30737   4.31440   4.35452   4.37043   4.40064
  Beta virt. eigenvalues --    4.42774   4.44690   4.47324   4.47981   4.53493
  Beta virt. eigenvalues --    4.56379   4.59158   4.59395   4.65513   4.73476
  Beta virt. eigenvalues --    4.78443   4.97166   5.07572   5.20261   5.24338
  Beta virt. eigenvalues --    5.27185   5.30692   5.40087   5.41673   5.46535
  Beta virt. eigenvalues --    5.53529   5.55513   5.58100   5.58965   5.61047
  Beta virt. eigenvalues --    5.65116   5.69752   5.86826   5.96691   6.52627
  Beta virt. eigenvalues --    7.02114   7.20471   7.24010   7.25134   7.52868
  Beta virt. eigenvalues --    7.64661  24.23315  24.32862  24.44885  24.49669
  Beta virt. eigenvalues --   50.15358
          Condensed to atoms (all electrons):
               1          2          3          4          5          6
     1  O    8.092359   0.015444  -0.035319   0.143346  -0.028632   0.007372
     2  C    0.015444   5.437619  -0.023056   0.231115  -0.085390   0.423717
     3  C   -0.035319  -0.023056   5.510985  -0.092826   0.026918  -0.038799
     4  C    0.143346   0.231115  -0.092826   5.076127   0.099701  -0.034618
     5  C   -0.028632  -0.085390   0.026918   0.099701   5.791144   0.017668
     6  H    0.007372   0.423717  -0.038799  -0.034618   0.017668   0.517704
     7  H   -0.010465   0.460782  -0.003602  -0.055943  -0.031266  -0.024048
     8  H   -0.000037   0.002021   0.466858  -0.022365  -0.080808  -0.006549
     9  H   -0.001025  -0.060306   0.419509   0.014764  -0.028207  -0.004392
    10  H   -0.058959  -0.070250   0.027846   0.458468  -0.001855  -0.004317
    11  H   -0.042799   0.013640  -0.024092   0.412250  -0.011981  -0.002712
    12  H   -0.000607   0.005401  -0.022394  -0.002347   0.383315  -0.000194
    13  H    0.000333   0.017655  -0.044377  -0.002483   0.411084  -0.000249
    14  H    0.257697  -0.030093   0.006013  -0.012876   0.038812  -0.000159
               7          8          9         10         11         12
     1  O   -0.010465  -0.000037  -0.001025  -0.058959  -0.042799  -0.000607
     2  C    0.460782   0.002021  -0.060306  -0.070250   0.013640   0.005401
     3  C   -0.003602   0.466858   0.419509   0.027846  -0.024092  -0.022394
     4  C   -0.055943  -0.022365   0.014764   0.458468   0.412250  -0.002347
     5  C   -0.031266  -0.080808  -0.028207  -0.001855  -0.011981   0.383315
     6  H   -0.024048  -0.006549  -0.004392  -0.004317  -0.002712  -0.000194
     7  H    0.478313   0.003826  -0.006043  -0.004257   0.004109   0.000560
     8  H    0.003826   0.499124  -0.032842  -0.000132   0.001035   0.003817
     9  H   -0.006043  -0.032842   0.552451  -0.000342   0.000015  -0.001988
    10  H   -0.004257  -0.000132  -0.000342   0.537819  -0.034866  -0.000083
    11  H    0.004109   0.001035   0.000015  -0.034866   0.551988   0.000026
    12  H    0.000560   0.003817  -0.001988  -0.000083   0.000026   0.457970
    13  H    0.000047  -0.002993  -0.001631   0.000023   0.000168  -0.019421
    14  H    0.000156  -0.001181   0.000460   0.008997  -0.006548  -0.003801
              13         14
     1  O    0.000333   0.257697
     2  C    0.017655  -0.030093
     3  C   -0.044377   0.006013
     4  C   -0.002483  -0.012876
     5  C    0.411084   0.038812
     6  H   -0.000249  -0.000159
     7  H    0.000047   0.000156
     8  H   -0.002993  -0.001181
     9  H   -0.001631   0.000460
    10  H    0.000023   0.008997
    11  H    0.000168  -0.006548
    12  H   -0.019421  -0.003801
    13  H    0.463981  -0.000826
    14  H   -0.000826   0.497179
          Atomic-Atomic Spin Densities.
               1          2          3          4          5          6
     1  O    0.034818   0.004019   0.005095  -0.009515  -0.032139  -0.000241
     2  C    0.004019   0.077478   0.018305  -0.024822  -0.046851  -0.004359
     3  C    0.005095   0.018305  -0.033657  -0.006899  -0.092060   0.000800
     4  C   -0.009515  -0.024822  -0.006899   0.029293   0.024364   0.000378
     5  C   -0.032139  -0.046851  -0.092060   0.024364   1.274309   0.003212
     6  H   -0.000241  -0.004359   0.000800   0.000378   0.003212  -0.003163
     7  H    0.000239   0.005365  -0.001952  -0.003752  -0.001055   0.000822
     8  H    0.001005   0.023710  -0.000475  -0.007316  -0.018778  -0.000489
     9  H   -0.000801  -0.037104   0.032651   0.008104  -0.027828   0.001523
    10  H    0.000609   0.001484   0.001252  -0.001615  -0.002369  -0.000398
    11  H   -0.001034   0.001648  -0.001327  -0.001974   0.000846   0.000174
    12  H    0.001273   0.006759   0.001939  -0.001086  -0.016032  -0.000090
    13  H    0.000485   0.002808   0.011802  -0.001204  -0.018990  -0.000015
    14  H    0.012752   0.002523  -0.000586   0.003488   0.012986   0.000094
               7          8          9         10         11         12
     1  O    0.000239   0.001005  -0.000801   0.000609  -0.001034   0.001273
     2  C    0.005365   0.023710  -0.037104   0.001484   0.001648   0.006759
     3  C   -0.001952  -0.000475   0.032651   0.001252  -0.001327   0.001939
     4  C   -0.003752  -0.007316   0.008104  -0.001615  -0.001974  -0.001086
     5  C   -0.001055  -0.018778  -0.027828  -0.002369   0.000846  -0.016032
     6  H    0.000822  -0.000489   0.001523  -0.000398   0.000174  -0.000090
     7  H   -0.002717   0.000208  -0.001102   0.000329  -0.000004   0.000017
     8  H    0.000208   0.023073  -0.012100   0.000151   0.000080   0.000338
     9  H   -0.001102  -0.012100   0.091593  -0.000124  -0.000067  -0.001931
    10  H    0.000329   0.000151  -0.000124   0.002845   0.000520   0.000035
    11  H   -0.000004   0.000080  -0.000067   0.000520  -0.002747  -0.000016
    12  H    0.000017   0.000338  -0.001931   0.000035  -0.000016  -0.051494
    13  H    0.000012   0.001344  -0.001966   0.000003   0.000006   0.006652
    14  H   -0.000142  -0.000653   0.000475  -0.001445   0.000660   0.000014
              13         14
     1  O    0.000485   0.012752
     2  C    0.002808   0.002523
     3  C    0.011802  -0.000586
     4  C   -0.001204   0.003488
     5  C   -0.018990   0.012986
     6  H   -0.000015   0.000094
     7  H    0.000012  -0.000142
     8  H    0.001344  -0.000653
     9  H   -0.001966   0.000475
    10  H    0.000003  -0.001445
    11  H    0.000006   0.000660
    12  H    0.006652   0.000014
    13  H   -0.046075  -0.000339
    14  H   -0.000339  -0.034192
 Mulliken charges and spin densities:
               1          2
     1  O   -0.338709   0.016567
     2  C   -0.338302   0.030962
     3  C   -0.173664  -0.065112
     4  C   -0.212313   0.007444
     5  C   -0.500504   1.059615
     6  H    0.149575  -0.001751
     7  H    0.187831  -0.003731
     8  H    0.170227   0.010098
     9  H    0.149577   0.051326
    10  H    0.141907   0.001275
    11  H    0.139768  -0.003236
    12  H    0.199746  -0.053622
    13  H    0.178688  -0.045476
    14  H    0.246172  -0.004362
 Sum of Mulliken charges =  -0.00000   1.00000
 Mulliken charges and spin densities with hydrogens summed into heavy atoms:
               1          2
     1  O   -0.092537   0.012205
     2  C   -0.000896   0.025481
     3  C    0.146141  -0.003687
     4  C    0.069363   0.005484
     5  C   -0.122070   0.960518
 Electronic spatial extent (au):  <R**2>=            485.7148
 Charge=             -0.0000 electrons
 Dipole moment (field-independent basis, Debye):
    X=             -1.7433    Y=             -1.1571    Z=              0.5760  Tot=              2.1702
 Quadrupole moment (field-independent basis, Debye-Ang):
   XX=            -35.8706   YY=            -32.5075   ZZ=            -32.6033
   XY=             -3.4388   XZ=              0.3304   YZ=              0.6196
 Traceless Quadrupole moment (field-independent basis, Debye-Ang):
   XX=             -2.2101   YY=              1.1530   ZZ=              1.0571
   XY=             -3.4388   XZ=              0.3304   YZ=              0.6196
 Octapole moment (field-independent basis, Debye-Ang**2):
  XXX=              2.2195  YYY=              3.5697  ZZZ=              0.0111  XYY=             -1.4079
  XXY=             -5.9099  XXZ=              1.5815  XZZ=              0.9927  YZZ=              1.1024
  YYZ=              0.5994  XYZ=              0.3629
 Hexadecapole moment (field-independent basis, Debye-Ang**3):
 XXXX=           -387.5958 YYYY=           -195.3719 ZZZZ=            -73.3280 XXXY=             -7.9222
 XXXZ=             -5.3132 YYYX=              2.3775 YYYZ=              0.6982 ZZZX=             -0.1004
 ZZZY=             -1.2806 XXYY=            -99.8424 XXZZ=            -76.0693 YYZZ=            -47.0995
 XXYZ=              4.1455 YYXZ=             -0.0556 ZZXY=             -0.1055
 N-N= 1.844286930303D+02 E-N=-9.118502120576D+02  KE= 2.320645309407D+02
                          Isotropic Fermi Contact Couplings
        Atom                 a.u.       MegaHertz       Gauss      10(-4) cm-1
     1  O(17)              0.00666      -4.03825      -1.44095      -1.34702
     2  C(13)              0.01404      15.78305       5.63179       5.26466
     3  C(13)             -0.03128     -35.16868     -12.54906     -11.73101
     4  C(13)             -0.00233      -2.61920      -0.93460      -0.87367
     5  C(13)              0.16994     191.04868      68.17092      63.72698
     6  H(1)              -0.00046      -2.05969      -0.73495      -0.68704
     7  H(1)              -0.00032      -1.42133      -0.50716      -0.47410
     8  H(1)               0.00561      25.07362       8.94689       8.36366
     9  H(1)               0.03125     139.68608      49.84347      46.59426
    10  H(1)               0.00098       4.36743       1.55841       1.45682
    11  H(1)               0.00001       0.05715       0.02039       0.01906
    12  H(1)              -0.01472     -65.78569     -23.47397     -21.94374
    13  H(1)              -0.01462     -65.35058     -23.31871     -21.79861
    14  H(1)              -0.00373     -16.66543      -5.94664      -5.55899
 --------------------------------------------------------
       Center         ----  Spin Dipole Couplings  ----
                      3XX-RR        3YY-RR        3ZZ-RR
 --------------------------------------------------------
     1   Atom        0.146494     -0.070741     -0.075753
     2   Atom        0.017384     -0.002753     -0.014630
     3   Atom        0.003087      0.008425     -0.011512
     4   Atom        0.006897     -0.000805     -0.006091
     5   Atom        0.634648     -0.325906     -0.308742
     6   Atom       -0.000612      0.005081     -0.004469
     7   Atom       -0.000443      0.000239      0.000204
     8   Atom       -0.007908      0.007135      0.000773
     9   Atom       -0.006030      0.016373     -0.010342
    10   Atom        0.002602     -0.000214     -0.002388
    11   Atom        0.003031     -0.001014     -0.002018
    12   Atom       -0.017112     -0.043751      0.060863
    13   Atom        0.026305     -0.020750     -0.005555
    14   Atom        0.037911     -0.015327     -0.022583
 --------------------------------------------------------
                        XY            XZ            YZ
 --------------------------------------------------------
     1   Atom       -0.042120     -0.025901      0.004868
     2   Atom       -0.017351     -0.012498      0.006078
     3   Atom        0.007919      0.009242      0.003380
     4   Atom       -0.006518      0.001505     -0.000717
     5   Atom        0.491306      0.501782      0.214131
     6   Atom       -0.004210     -0.000488      0.000563
     7   Atom       -0.005265     -0.005397      0.005594
     8   Atom       -0.001568      0.001569     -0.013330
     9   Atom        0.005179      0.002260      0.000421
    10   Atom       -0.002755     -0.000302      0.000193
    11   Atom       -0.003898      0.003440     -0.002486
    12   Atom        0.029100     -0.001454     -0.037465
    13   Atom       -0.023323     -0.030096      0.057058
    14   Atom       -0.003741     -0.005445      0.004985
 --------------------------------------------------------


 ---------------------------------------------------------------------------------
              Anisotropic Spin Dipole Couplings in Principal Axis System
 ---------------------------------------------------------------------------------

       Atom             a.u.   MegaHertz   Gauss  10(-4) cm-1        Axes

              Baa    -0.0787     5.697     2.033     1.900  0.0749 -0.2002  0.9769
     1 O(17)  Bbb    -0.0786     5.689     2.030     1.898  0.2010  0.9626  0.1819
              Bcc     0.1574   -11.386    -4.063    -3.798  0.9767 -0.1828 -0.1123
 
              Baa    -0.0189    -2.541    -0.907    -0.847  0.3199 -0.0129  0.9474
     2 C(13)  Bbb    -0.0126    -1.692    -0.604    -0.564  0.4513  0.8813 -0.1404
              Bcc     0.0315     4.232     1.510     1.412  0.8331 -0.4725 -0.2877
 
              Baa    -0.0160    -2.147    -0.766    -0.716 -0.4423  0.0193  0.8967
     3 C(13)  Bbb    -0.0006    -0.082    -0.029    -0.027 -0.6441  0.6889 -0.3325
              Bcc     0.0166     2.229     0.795     0.743  0.6241  0.7246  0.2922
 
              Baa    -0.0063    -0.841    -0.300    -0.280 -0.1198 -0.0128  0.9927
     4 C(13)  Bbb    -0.0045    -0.606    -0.216    -0.202  0.4877  0.8702  0.0701
              Bcc     0.0108     1.447     0.516     0.483  0.8647 -0.4926  0.0981
 
              Baa    -0.5336   -71.599   -25.548   -23.883 -0.2544  0.9174 -0.3060
     5 C(13)  Bbb    -0.5255   -70.512   -25.161   -23.520 -0.4503  0.1677  0.8770
              Bcc     1.0590   142.112    50.709    47.403  0.8559  0.3609  0.3705
 
              Baa    -0.0045    -2.417    -0.862    -0.806  0.1157 -0.0075  0.9933
     6 H(1)   Bbb    -0.0028    -1.510    -0.539    -0.504  0.8756  0.4729 -0.0984
              Bcc     0.0074     3.928     1.401     1.310 -0.4690  0.8811  0.0613
 
              Baa    -0.0055    -2.949    -1.052    -0.984  0.7231 -0.0098  0.6907
     7 H(1)   Bbb    -0.0053    -2.840    -1.013    -0.947  0.4108  0.8099 -0.4186
              Bcc     0.0108     5.788     2.065     1.931 -0.5553  0.5864  0.5897
 
              Baa    -0.0098    -5.223    -1.864    -1.742 -0.1507  0.6030  0.7834
     8 H(1)   Bbb    -0.0081    -4.299    -1.534    -1.434  0.9849  0.1599  0.0664
              Bcc     0.0178     9.522     3.398     3.176 -0.0852  0.7815 -0.6180
 
              Baa    -0.0114    -6.095    -2.175    -2.033 -0.4409  0.0686  0.8949
     9 H(1)   Bbb    -0.0061    -3.264    -1.165    -1.089  0.8708 -0.2088  0.4450
              Bcc     0.0175     9.359     3.339     3.122  0.2174  0.9755  0.0323
 
              Baa    -0.0024    -1.284    -0.458    -0.428  0.0388 -0.0390  0.9985
    10 H(1)   Bbb    -0.0019    -1.014    -0.362    -0.338  0.5226  0.8525  0.0130
              Bcc     0.0043     2.298     0.820     0.766  0.8517 -0.5213 -0.0534
 
              Baa    -0.0041    -2.173    -0.775    -0.725 -0.1062  0.5420  0.8336
    11 H(1)   Bbb    -0.0032    -1.732    -0.618    -0.578  0.6274  0.6869 -0.3667
              Bcc     0.0073     3.905     1.394     1.303  0.7714 -0.4841  0.4130
 
              Baa    -0.0700   -37.363   -13.332   -12.463 -0.4628  0.8536  0.2392
    12 H(1)   Bbb    -0.0041    -2.190    -0.782    -0.731  0.8784  0.4053  0.2534
              Bcc     0.0741    39.554    14.114    13.194 -0.1193 -0.3274  0.9373
 
              Baa    -0.0708   -37.763   -13.475   -12.596 -0.0270  0.7462 -0.6652
    13 H(1)   Bbb    -0.0037    -1.955    -0.698    -0.652  0.7842  0.4285  0.4488
              Bcc     0.0744    39.718    14.172    13.249  0.6199 -0.5095 -0.5967
 
              Baa    -0.0253   -13.491    -4.814    -4.500  0.0521 -0.4313  0.9007
    14 H(1)   Bbb    -0.0134    -7.168    -2.558    -2.391  0.1105  0.8989  0.4241
              Bcc     0.0387    20.659     7.372     6.891  0.9925 -0.0774 -0.0945
 

 ---------------------------------------------------------------------------------

 No NMR shielding tensors so no spin-rotation constants.
 Leave Link  601 at Fri Mar 29 10:35:11 2019, MaxMem=   671088640 cpu:               7.4 elap:               0.4
 (Enter /shared/centos7/gaussian/g16/l9999.exe)
 1\1\GINC-C0282\Scan\UM062X\6-311+G(2df,2p)\C4H9O1(2)\UNDERKOFFLER.C\29
 -Mar-2019\0\\#p m062x/6-311+g(2df,2p) Opt=(CalcFC,ModRedun)\\Gaussian 
 Input Prepared from Scan Object\\0,2\O,-0.8780612121,1.2666903758,1.27
 75241537\C,-0.4749236294,-0.3535278156,-0.527359294\C,1.0569948136,-0.
 3825226046,-0.539015649\C,-1.0550025688,0.9868316239,-0.0960435687\C,1
 .679906887,-0.2865457217,0.809131167\H,-0.8410245472,-0.5780520371,-1.
 5314911247\H,-0.8564498071,-1.1318493946,0.1381885054\H,1.4316369312,0
 .4184312243,-1.1822840642\H,1.3794136253,-1.3181922355,-1.0173776288\H
 ,-2.1321819986,0.9917470686,-0.2599551597\H,-0.6259598168,1.7871895984
 ,-0.7118882402\H,1.2655493794,-0.8560383591,1.6300373442\H,2.678651700
 8,0.1062054882,0.9292606662\H,0.0628732427,1.250805789,1.4766428928\\V
 ersion=EM64L-G16RevA.03\State=2-A\HF=-232.9645975,-232.9616707,-232.95
 81789,-232.960965,-232.9624155,-232.959628,-232.9580668,-232.9616733,-
 232.9639908,-232.9608804,-232.9584587,-232.9614353,-232.9645975\S2=0.7
 55339,0.755263,0.7553,0.755202,0.755175,0.75523,0.755248,0.755188,0.75
 5033,0.755111,0.755341,0.755517,0.755339\S2-1=0.,0.,0.,0.,0.,0.,0.,0.,
 0.,0.,0.,0.,0.\S2A=0.750023,0.750022,0.750022,0.750021,0.750021,0.7500
 22,0.750022,0.750021,0.75002,0.750021,0.750023,0.750025,0.750023\RMSD=
 8.421e-09,2.005e-09,8.561e-09,3.965e-09,4.355e-09,4.010e-09,9.205e-09,
 3.840e-09,3.994e-09,3.490e-09,8.512e-09,6.991e-09,8.648e-09\PG=C01 [X(
 C4H9O1)]\\@


 WHEN YOU REACH FOR THE STARS, YOU MAY NOT QUITE GET ONE,
 BUT YOU WON'T COME UP WITH A HANDFUL OF MUD, EITHER.

                                         -- LEO BURNETT (AD AGENCY HEAD)
 Job cpu time:       1 days  3 hours 48 minutes 48.4 seconds.
 Elapsed time:       0 days  1 hours 24 minutes  1.2 seconds.
 File lengths (MBytes):  RWF=   1376 Int=      0 D2E=      0 Chk=     32 Scr=     32
 Normal termination of Gaussian 16 at Fri Mar 29 10:35:11 2019.
