 Entering Gaussian System, Link 0=g16
 Input=ZMAYDFGNKOVZRH-UHFFFAOYSA-N_72by10.0_tor01_a1.com
 Output=ZMAYDFGNKOVZRH-UHFFFAOYSA-N_72by10.0_tor01_a1.log
 Initial command:
 /shared/centos7/gaussian/g16/l1.exe "/scratch/underkoffler.c/gaussian_scratch/Gau-46848.inp" -scrdir="/scratch/underkoffler.c/gaussian_scratch/"
 Entering Link 1 = /shared/centos7/gaussian/g16/l1.exe PID=     46849.
  
 Copyright (c) 1988,1990,1992,1993,1995,1998,2003,2009,2016,
            Gaussian, Inc.  All Rights Reserved.
  
 This is part of the Gaussian(R) 16 program.  It is based on
 the Gaussian(R) 09 system (copyright 2009, Gaussian, Inc.),
 the Gaussian(R) 03 system (copyright 2003, Gaussian, Inc.),
 the Gaussian(R) 98 system (copyright 1998, Gaussian, Inc.),
 the Gaussian(R) 94 system (copyright 1995, Gaussian, Inc.),
 the Gaussian 92(TM) system (copyright 1992, Gaussian, Inc.),
 the Gaussian 90(TM) system (copyright 1990, Gaussian, Inc.),
 the Gaussian 88(TM) system (copyright 1988, Gaussian, Inc.),
 the Gaussian 86(TM) system (copyright 1986, Carnegie Mellon
 University), and the Gaussian 82(TM) system (copyright 1983,
 Carnegie Mellon University). Gaussian is a federally registered
 trademark of Gaussian, Inc.
  
 This software contains proprietary and confidential information,
 including trade secrets, belonging to Gaussian, Inc.
  
 This software is provided under written license and may be
 used, copied, transmitted, or stored only in accord with that
 written license.
  
 The following legend is applicable only to US Government
 contracts under FAR:
  
                    RESTRICTED RIGHTS LEGEND
  
 Use, reproduction and disclosure by the US Government is
 subject to restrictions as set forth in subparagraphs (a)
 and (c) of the Commercial Computer Software - Restricted
 Rights clause in FAR 52.227-19.
  
 Gaussian, Inc.
 340 Quinnipiac St., Bldg. 40, Wallingford CT 06492
  
  
 ---------------------------------------------------------------
 Warning -- This program may not be used in any manner that
 competes with the business of Gaussian, Inc. or will provide
 assistance to any competitor of Gaussian, Inc.  The licensee
 of this program is prohibited from giving any competitor of
 Gaussian, Inc. access to this program.  By using this program,
 the user acknowledges that Gaussian, Inc. is engaged in the
 business of creating and licensing software in the field of
 computational chemistry and represents and warrants to the
 licensee that it is not a competitor of Gaussian, Inc. and that
 it will not use this program in any manner prohibited above.
 ---------------------------------------------------------------
  

 Cite this work as:
 Gaussian 16, Revision A.03,
 M. J. Frisch, G. W. Trucks, H. B. Schlegel, G. E. Scuseria, 
 M. A. Robb, J. R. Cheeseman, G. Scalmani, V. Barone, 
 G. A. Petersson, H. Nakatsuji, X. Li, M. Caricato, A. V. Marenich, 
 J. Bloino, B. G. Janesko, R. Gomperts, B. Mennucci, H. P. Hratchian, 
 J. V. Ortiz, A. F. Izmaylov, J. L. Sonnenberg, D. Williams-Young, 
 F. Ding, F. Lipparini, F. Egidi, J. Goings, B. Peng, A. Petrone, 
 T. Henderson, D. Ranasinghe, V. G. Zakrzewski, J. Gao, N. Rega, 
 G. Zheng, W. Liang, M. Hada, M. Ehara, K. Toyota, R. Fukuda, 
 J. Hasegawa, M. Ishida, T. Nakajima, Y. Honda, O. Kitao, H. Nakai, 
 T. Vreven, K. Throssell, J. A. Montgomery, Jr., J. E. Peralta, 
 F. Ogliaro, M. J. Bearpark, J. J. Heyd, E. N. Brothers, K. N. Kudin, 
 V. N. Staroverov, T. A. Keith, R. Kobayashi, J. Normand, 
 K. Raghavachari, A. P. Rendell, J. C. Burant, S. S. Iyengar, 
 J. Tomasi, M. Cossi, J. M. Millam, M. Klene, C. Adamo, R. Cammi, 
 J. W. Ochterski, R. L. Martin, K. Morokuma, O. Farkas, 
 J. B. Foresman, and D. J. Fox, Gaussian, Inc., Wallingford CT, 2016.
 
 ******************************************
 Gaussian 16:  EM64L-G16RevA.03 25-Dec-2016
                 9-Mar-2019 
 ******************************************
 %nprocshared=20
 Will use up to   20 processors via shared memory.
 %mem=5GB
 ----------------------------------------------
 #p m062x/6-311+g(2df,2p) Opt=(CalcFC,ModRedun)
 ----------------------------------------------
 1/10=4,18=120,19=15,26=3,38=1/1,3;
 2/9=110,12=2,17=6,18=5,40=1/2;
 3/5=4,6=6,7=214,11=2,25=1,30=1,71=2,74=-55,140=1/1,2,3;
 4//1;
 5/5=2,38=5/2;
 8/6=4,10=90,11=11/1;
 11/6=1,8=1,9=11,15=111,16=1/1,2,10;
 10/6=1,13=1/2;
 6/7=2,8=2,9=2,10=2,28=1/1;
 7/10=1,18=20,25=1/1,2,3,16;
 1/10=4,18=20,19=15,26=3/3(2);
 2/9=110/2;
 99//99;
 2/9=110/2;
 3/5=4,6=6,7=214,11=2,25=1,30=1,71=1,74=-55/1,2,3;
 4/5=5,16=3,69=1/1;
 5/5=2,38=5/2;
 7//1,2,3,16;
 1/18=20,19=15,26=3/3(-5);
 2/9=110/2;
 6/7=2,8=2,9=2,10=2,19=2,28=1/1;
 99/9=1/99;
 Leave Link    1 at Sat Mar  9 13:22:05 2019, MaxMem=   671088640 cpu:              36.7 elap:               1.9
 (Enter /shared/centos7/gaussian/g16/l101.exe)
 ----------------------------------------
 Gaussian Input Prepared from Scan Object
 ----------------------------------------
 Symbolic Z-matrix:
 Charge =  0 Multiplicity = 2
 O                     0.60734   0.72098   0.77413 
 C                    -0.72363   0.62312   0.31936 
 C                     1.35076  -0.4512    0.54933 
 C                    -0.83176   0.57873  -1.16184 
 H                    -1.23006   1.50913   0.71912 
 H                    -1.21291  -0.25311   0.76567 
 H                     2.34335  -0.28945   0.96194 
 H                     1.43693  -0.67716  -0.51775 
 H                     0.8889   -1.30931   1.05069 
 H                    -0.16223   1.18374  -1.75556 
 H                    -1.68136   0.1186   -1.64215 
 
 The following ModRedundant input section has been read:
 B       3       9 B                                                           
 B       3       8 B                                                           
 B       4      11 B                                                           
 B       4      10 B                                                           
 B       2       5 B                                                           
 B       1       2 B                                                           
 B       2       6 B                                                           
 B       1       3 B                                                           
 B       2       4 B                                                           
 B       3       7 B                                                           
 D      11       1       2       6 S  72 10.000                                
 
 ITRead=  0  0  0  0  0  0  0  0  0  0  0
 MicOpt= -1 -1 -1 -1 -1 -1 -1 -1 -1 -1 -1
 NAtoms=     11 NQM=       11 NQMF=       0 NMMI=      0 NMMIF=      0
                NMic=       0 NMicF=      0.
                    Isotopes and Nuclear Properties:
 (Nuclear quadrupole moments (NQMom) in fm**2, nuclear magnetic moments (NMagM)
  in nuclear magnetons)

  Atom         1           2           3           4           5           6           7           8           9          10
 IAtWgt=          16          12          12          12           1           1           1           1           1           1
 AtmWgt=  15.9949146  12.0000000  12.0000000  12.0000000   1.0078250   1.0078250   1.0078250   1.0078250   1.0078250   1.0078250
 NucSpn=           0           0           0           0           1           1           1           1           1           1
 AtZEff=  -0.0000000  -0.0000000  -0.0000000  -0.0000000  -0.0000000  -0.0000000  -0.0000000  -0.0000000  -0.0000000  -0.0000000
 NQMom=    0.0000000   0.0000000   0.0000000   0.0000000   0.0000000   0.0000000   0.0000000   0.0000000   0.0000000   0.0000000
 NMagM=    0.0000000   0.0000000   0.0000000   0.0000000   2.7928460   2.7928460   2.7928460   2.7928460   2.7928460   2.7928460
 AtZNuc=   8.0000000   6.0000000   6.0000000   6.0000000   1.0000000   1.0000000   1.0000000   1.0000000   1.0000000   1.0000000

  Atom        11
 IAtWgt=           1
 AtmWgt=   1.0078250
 NucSpn=           1
 AtZEff=  -0.0000000
 NQMom=    0.0000000
 NMagM=    2.7928460
 AtZNuc=   1.0000000
 Leave Link  101 at Sat Mar  9 13:22:06 2019, MaxMem=   671088640 cpu:               6.4 elap:               0.4
 (Enter /shared/centos7/gaussian/g16/l103.exe)

 GradGradGradGradGradGradGradGradGradGradGradGradGradGradGradGradGradGrad
 Berny optimization.
 Initialization pass.
                           ----------------------------
                           !    Initial Parameters    !
                           ! (Angstroms and Degrees)  !
 --------------------------                            --------------------------
 ! Name  Definition              Value          Derivative Info.                !
 --------------------------------------------------------------------------------
 ! R1    R(1,2)                  1.4099         calculate D2E/DX2 analytically  !
 ! R2    R(1,3)                  1.4061         calculate D2E/DX2 analytically  !
 ! R3    R(2,4)                  1.4858         calculate D2E/DX2 analytically  !
 ! R4    R(2,5)                  1.096          calculate D2E/DX2 analytically  !
 ! R5    R(2,6)                  1.0983         calculate D2E/DX2 analytically  !
 ! R6    R(3,7)                  1.087          calculate D2E/DX2 analytically  !
 ! R7    R(3,8)                  1.0941         calculate D2E/DX2 analytically  !
 ! R8    R(3,9)                  1.0959         calculate D2E/DX2 analytically  !
 ! R9    R(4,10)                 1.0802         calculate D2E/DX2 analytically  !
 ! R10   R(4,11)                 1.079          calculate D2E/DX2 analytically  !
 ! A1    A(2,1,3)              112.9339         calculate D2E/DX2 analytically  !
 ! A2    A(1,2,4)              113.0989         calculate D2E/DX2 analytically  !
 ! A3    A(1,2,5)              105.2149         calculate D2E/DX2 analytically  !
 ! A4    A(1,2,6)              110.171          calculate D2E/DX2 analytically  !
 ! A5    A(4,2,5)              110.7401         calculate D2E/DX2 analytically  !
 ! A6    A(4,2,6)              110.4158         calculate D2E/DX2 analytically  !
 ! A7    A(5,2,6)              106.9098         calculate D2E/DX2 analytically  !
 ! A8    A(1,3,7)              107.3395         calculate D2E/DX2 analytically  !
 ! A9    A(1,3,8)              111.6979         calculate D2E/DX2 analytically  !
 ! A10   A(1,3,9)              110.9027         calculate D2E/DX2 analytically  !
 ! A11   A(7,3,8)              109.2082         calculate D2E/DX2 analytically  !
 ! A12   A(7,3,9)              109.1282         calculate D2E/DX2 analytically  !
 ! A13   A(8,3,9)              108.5213         calculate D2E/DX2 analytically  !
 ! A14   A(2,4,10)             119.0846         calculate D2E/DX2 analytically  !
 ! A15   A(2,4,11)             120.9175         calculate D2E/DX2 analytically  !
 ! A16   A(10,4,11)            118.8311         calculate D2E/DX2 analytically  !
 ! D1    D(3,1,2,4)            -69.3541         calculate D2E/DX2 analytically  !
 ! D2    D(3,1,2,5)            169.6498         calculate D2E/DX2 analytically  !
 ! D3    D(3,1,2,6)             54.7498         calculate D2E/DX2 analytically  !
 ! D4    D(11,1,2,6)           109.8928         Scan                            !
 ! D5    D(2,1,3,7)           -178.0828         calculate D2E/DX2 analytically  !
 ! D6    D(2,1,3,8)             62.2353         calculate D2E/DX2 analytically  !
 ! D7    D(2,1,3,9)            -58.9583         calculate D2E/DX2 analytically  !
 ! D8    D(1,2,4,10)           -37.5379         calculate D2E/DX2 analytically  !
 ! D9    D(1,2,4,11)           154.951          calculate D2E/DX2 analytically  !
 ! D10   D(5,2,4,10)            80.2754         calculate D2E/DX2 analytically  !
 ! D11   D(5,2,4,11)           -87.2358         calculate D2E/DX2 analytically  !
 ! D12   D(6,2,4,10)          -161.5077         calculate D2E/DX2 analytically  !
 ! D13   D(6,2,4,11)            30.9812         calculate D2E/DX2 analytically  !
 --------------------------------------------------------------------------------
 Trust Radius=3.00D-01 FncErr=1.00D-07 GrdErr=1.00D-06 EigMax=2.50D+02 EigMin=1.00D-04
 Number of optimizations in scan=  73
 Number of steps in this run=     49 maximum allowed number of steps=    100.
 GradGradGradGradGradGradGradGradGradGradGradGradGradGradGradGradGradGrad

 Leave Link  103 at Sat Mar  9 13:22:06 2019, MaxMem=   671088640 cpu:               0.3 elap:               0.0
 (Enter /shared/centos7/gaussian/g16/l202.exe)
                          Input orientation:                          
 ---------------------------------------------------------------------
 Center     Atomic      Atomic             Coordinates (Angstroms)
 Number     Number       Type             X           Y           Z
 ---------------------------------------------------------------------
      1          8           0        0.607344    0.720976    0.774134
      2          6           0       -0.723634    0.623123    0.319363
      3          6           0        1.350761   -0.451202    0.549329
      4          6           0       -0.831757    0.578728   -1.161841
      5          1           0       -1.230064    1.509126    0.719118
      6          1           0       -1.212907   -0.253109    0.765668
      7          1           0        2.343350   -0.289450    0.961943
      8          1           0        1.436935   -0.677155   -0.517755
      9          1           0        0.888905   -1.309313    1.050687
     10          1           0       -0.162233    1.183741   -1.755559
     11          1           0       -1.681357    0.118595   -1.642148
 ---------------------------------------------------------------------
                    Distance matrix (angstroms):
                    1          2          3          4          5
     1  O    0.000000
     2  C    1.409927   0.000000
     3  C    1.406132   2.347376   0.000000
     4  C    2.416453   1.485809   2.958419   0.000000
     5  H    2.000069   1.096027   3.245361   2.135952   0.000000
     6  H    2.064516   1.098344   2.580395   2.133664   1.762933
     7  H    2.017412   3.263754   1.087036   3.917332   4.007883
     8  H    2.076528   2.656981   1.094143   2.671900   3.663681
     9  H    2.068292   2.620959   1.095913   3.379446   3.541689
    10  H    2.684352   2.221433   3.205417   1.080186   2.714804
    11  H    3.382223   2.240381   3.784307   1.078999   2.777196
                    6          7          8          9         10
     6  H    0.000000
     7  H    3.561855   0.000000
     8  H    2.974669   1.778035   0.000000
     9  H    2.369476   1.778597   1.777631   0.000000
    10  H    3.086266   3.979077   2.748169   3.898105   0.000000
    11  H    2.480965   4.811035   3.408991   3.987045   1.858799
                   11
    11  H    0.000000
 Stoichiometry    C3H7O(2)
 Framework group  C1[X(C3H7O)]
 Deg. of freedom    27
 Full point group                 C1      NOp   1
 Largest Abelian subgroup         C1      NOp   1
 Largest concise Abelian subgroup C1      NOp   1
                         Standard orientation:                         
 ---------------------------------------------------------------------
 Center     Atomic      Atomic             Coordinates (Angstroms)
 Number     Number       Type             X           Y           Z
 ---------------------------------------------------------------------
      1          8           0       -0.608635   -0.541166   -0.399022
      2          6           0        0.657674   -0.604651    0.217683
      3          6           0       -1.434232    0.457903    0.146376
      4          6           0        1.512940    0.572094   -0.084674
      5          1           0        1.116214   -1.525303   -0.161020
      6          1           0        0.544519   -0.727235    1.303283
      7          1           0       -2.390551    0.404214   -0.367646
      8          1           0       -1.006920    1.455662    0.008427
      9          1           0       -1.592745    0.292202    1.218030
     10          1           0        1.478962    1.005726   -1.073416
     11          1           0        2.301314    0.871990    0.588206
 ---------------------------------------------------------------------
 Rotational constants (GHZ):          16.4260178           5.6173061           4.8460809
 Leave Link  202 at Sat Mar  9 13:22:06 2019, MaxMem=   671088640 cpu:               0.3 elap:               0.0
 (Enter /shared/centos7/gaussian/g16/l301.exe)
 Standard basis: 6-311+G(2df,2p) (5D, 7F)
 Ernie: Thresh=  0.10000D-02 Tol=  0.10000D-05 Strict=F.
 There are   219 symmetry adapted cartesian basis functions of A   symmetry.
 There are   199 symmetry adapted basis functions of A   symmetry.
   199 basis functions,   285 primitive gaussians,   219 cartesian basis functions
    17 alpha electrons       16 beta electrons
       nuclear repulsion energy       127.7968336094 Hartrees.
 IExCor= 4336 DFT=T Ex+Corr=M062X ExCW=0 ScaHFX=  0.540000
 ScaDFX=  1.000000  1.000000  1.000000  1.000000 ScalE2=  1.000000  1.000000
 IRadAn=      5 IRanWt=     -1 IRanGd=            0 ICorTp=0 IEmpDi=  4
 NAtoms=   11 NActive=   11 NUniq=   11 SFac= 1.00D+00 NAtFMM=   60 NAOKFM=F Big=F
 Integral buffers will be    131072 words long.
 Raffenetti 2 integral format.
 Two-electron integral symmetry is turned on.
 Leave Link  301 at Sat Mar  9 13:22:06 2019, MaxMem=   671088640 cpu:               1.6 elap:               0.1
 (Enter /shared/centos7/gaussian/g16/l302.exe)
 NPDir=0 NMtPBC=     1 NCelOv=     1 NCel=       1 NClECP=     1 NCelD=      1
         NCelK=      1 NCelE2=     1 NClLst=     1 CellRange=     0.0.
 One-electron integrals computed using PRISM.
 One-electron integral symmetry used in STVInt
 NBasis=   199 RedAO= T EigKep=  9.86D-05  NBF=   199
 NBsUse=   199 1.00D-06 EigRej= -1.00D+00 NBFU=   199
 Precomputing XC quadrature grid using
 IXCGrd= 4 IRadAn=           5 IRanWt=          -1 IRanGd=           0 AccXCQ= 0.00D+00.
 Generated NRdTot=       0 NPtTot=           0 NUsed=           0 NTot=          32
 NSgBfM=   219   219   219   219   219 MxSgAt=    11 MxSgA2=    11.
 Leave Link  302 at Sat Mar  9 13:22:06 2019, MaxMem=   671088640 cpu:               5.9 elap:               0.3
 (Enter /shared/centos7/gaussian/g16/l303.exe)
 DipDrv:  MaxL=1.
 Leave Link  303 at Sat Mar  9 13:22:06 2019, MaxMem=   671088640 cpu:               0.6 elap:               0.1
 (Enter /shared/centos7/gaussian/g16/l401.exe)
 ExpMin= 4.38D-02 ExpMax= 8.59D+03 ExpMxC= 1.30D+03 IAcc=3 IRadAn=         5 AccDes= 0.00D+00
 Harris functional with IExCor= 1009 and IRadAn=       5 diagonalized for initial guess.
 HarFok:  IExCor= 1009 AccDes= 0.00D+00 IRadAn=         5 IDoV= 1 UseB2=F ITyADJ=14
 ICtDFT=  3500011 ScaDFX=  1.000000  1.000000  1.000000  1.000000
 FoFCou: FMM=F IPFlag=           0 FMFlag=      100000 FMFlg1=           0
         NFxFlg=           0 DoJE=T BraDBF=F KetDBF=T FulRan=T
         wScrn=  0.000000 ICntrl=       500 IOpCl=  0 I1Cent=   200000004 NGrid=           0
         NMat0=    1 NMatS0=      1 NMatT0=    0 NMatD0=    1 NMtDS0=    0 NMtDT0=    0
 Petite list used in FoFCou.
 Harris En= -193.557305740021    
 JPrj=0 DoOrth=F DoCkMO=F.
 Initial guess <Sx>= 0.0000 <Sy>= 0.0000 <Sz>= 0.5000 <S**2>= 0.7500 S= 0.5000
 Leave Link  401 at Sat Mar  9 13:22:07 2019, MaxMem=   671088640 cpu:              17.0 elap:               0.9
 (Enter /shared/centos7/gaussian/g16/l502.exe)
 Keep R1 and R2 ints in memory in canonical form, NReq=416958841.
 FoFCou: FMM=F IPFlag=           0 FMFlag=           0 FMFlg1=           0
         NFxFlg=           0 DoJE=F BraDBF=F KetDBF=F FulRan=T
         wScrn=  0.000000 ICntrl=       600 IOpCl=  0 I1Cent=           0 NGrid=           0
         NMat0=    1 NMatS0=  19900 NMatT0=    0 NMatD0=    1 NMtDS0=    0 NMtDT0=    0
 Symmetry not used in FoFCou.
 Two-electron integral symmetry not used.
 UHF open shell SCF:
 Using DIIS extrapolation, IDIIS=  1040.
 NGot=   671088640 LenX=   274956345 LenY=   274907943
 Requested convergence on RMS density matrix=1.00D-08 within 128 cycles.
 Requested convergence on MAX density matrix=1.00D-06.
 Requested convergence on             energy=1.00D-06.
 No special actions if energy rises.

 Cycle   1  Pass 1  IDiag  1:
 E= -193.526562348699    
 DIIS: error= 2.05D-02 at cycle   1 NSaved=   1.
 NSaved= 1 IEnMin= 1 EnMin= -193.526562348699     IErMin= 1 ErrMin= 2.05D-02
 ErrMax= 2.05D-02  0.00D+00 EMaxC= 1.00D-01 BMatC= 5.64D-01 BMatP= 5.64D-01
 IDIUse=3 WtCom= 7.95D-01 WtEn= 2.05D-01
 Coeff-Com:  0.100D+01
 Coeff-En:   0.100D+01
 Coeff:      0.100D+01
 Gap=     0.295 Goal=   None    Shift=    0.000
 Gap=     0.317 Goal=   None    Shift=    0.000
 GapD=    0.295 DampG=1.000 DampE=0.500 DampFc=0.5000 IDamp=-1.
 Damping current iteration by 5.00D-01
 RMSDP=2.59D-03 MaxDP=9.11D-02              OVMax= 1.31D-01

 Cycle   2  Pass 1  IDiag  1:
 E= -193.586910346127     Delta-E=       -0.060347997428 Rises=F Damp=T
 DIIS: error= 4.74D-03 at cycle   2 NSaved=   2.
 NSaved= 2 IEnMin= 2 EnMin= -193.586910346127     IErMin= 2 ErrMin= 4.74D-03
 ErrMax= 4.74D-03  0.00D+00 EMaxC= 1.00D-01 BMatC= 4.90D-02 BMatP= 5.64D-01
 IDIUse=3 WtCom= 9.53D-01 WtEn= 4.74D-02
 Coeff-Com: -0.173D+00 0.117D+01
 Coeff-En:   0.000D+00 0.100D+01
 Coeff:     -0.165D+00 0.117D+01
 Gap=     0.294 Goal=   None    Shift=    0.000
 Gap=     0.326 Goal=   None    Shift=    0.000
 RMSDP=9.50D-04 MaxDP=4.84D-02 DE=-6.03D-02 OVMax= 6.79D-02

 Cycle   3  Pass 1  IDiag  1:
 E= -193.641256591759     Delta-E=       -0.054346245632 Rises=F Damp=F
 DIIS: error= 2.74D-03 at cycle   3 NSaved=   3.
 NSaved= 3 IEnMin= 3 EnMin= -193.641256591759     IErMin= 3 ErrMin= 2.74D-03
 ErrMax= 2.74D-03  0.00D+00 EMaxC= 1.00D-01 BMatC= 1.06D-02 BMatP= 4.90D-02
 IDIUse=3 WtCom= 9.73D-01 WtEn= 2.74D-02
 Coeff-Com: -0.111D+00 0.369D+00 0.742D+00
 Coeff-En:   0.000D+00 0.000D+00 0.100D+01
 Coeff:     -0.108D+00 0.359D+00 0.749D+00
 Gap=     0.295 Goal=   None    Shift=    0.000
 Gap=     0.295 Goal=   None    Shift=    0.000
 RMSDP=1.91D-04 MaxDP=1.01D-02 DE=-5.43D-02 OVMax= 1.45D-02

 Cycle   4  Pass 1  IDiag  1:
 E= -193.642891238708     Delta-E=       -0.001634646949 Rises=F Damp=F
 DIIS: error= 1.19D-03 at cycle   4 NSaved=   4.
 NSaved= 4 IEnMin= 4 EnMin= -193.642891238708     IErMin= 4 ErrMin= 1.19D-03
 ErrMax= 1.19D-03  0.00D+00 EMaxC= 1.00D-01 BMatC= 2.60D-03 BMatP= 1.06D-02
 IDIUse=3 WtCom= 9.88D-01 WtEn= 1.19D-02
 Coeff-Com: -0.384D-01 0.893D-01 0.370D+00 0.579D+00
 Coeff-En:   0.000D+00 0.000D+00 0.686D-01 0.931D+00
 Coeff:     -0.379D-01 0.882D-01 0.366D+00 0.583D+00
 Gap=     0.292 Goal=   None    Shift=    0.000
 Gap=     0.302 Goal=   None    Shift=    0.000
 RMSDP=7.71D-05 MaxDP=3.74D-03 DE=-1.63D-03 OVMax= 5.43D-03

 Cycle   5  Pass 1  IDiag  1:
 E= -193.643365286484     Delta-E=       -0.000474047776 Rises=F Damp=F
 DIIS: error= 2.51D-04 at cycle   5 NSaved=   5.
 NSaved= 5 IEnMin= 5 EnMin= -193.643365286484     IErMin= 5 ErrMin= 2.51D-04
 ErrMax= 2.51D-04  0.00D+00 EMaxC= 1.00D-01 BMatC= 1.04D-04 BMatP= 2.60D-03
 IDIUse=3 WtCom= 9.97D-01 WtEn= 2.51D-03
 Coeff-Com:  0.239D-03-0.110D-01 0.294D-01 0.160D+00 0.822D+00
 Coeff-En:   0.000D+00 0.000D+00 0.000D+00 0.000D+00 0.100D+01
 Coeff:      0.239D-03-0.110D-01 0.293D-01 0.159D+00 0.822D+00
 Gap=     0.294 Goal=   None    Shift=    0.000
 Gap=     0.302 Goal=   None    Shift=    0.000
 RMSDP=2.75D-05 MaxDP=9.07D-04 DE=-4.74D-04 OVMax= 2.38D-03

 Cycle   6  Pass 1  IDiag  1:
 E= -193.643399959594     Delta-E=       -0.000034673111 Rises=F Damp=F
 DIIS: error= 9.46D-05 at cycle   6 NSaved=   6.
 NSaved= 6 IEnMin= 6 EnMin= -193.643399959594     IErMin= 6 ErrMin= 9.46D-05
 ErrMax= 9.46D-05  0.00D+00 EMaxC= 1.00D-01 BMatC= 8.95D-06 BMatP= 1.04D-04
 IDIUse=1 WtCom= 1.00D+00 WtEn= 0.00D+00
 Coeff-Com:  0.564D-02-0.121D-01-0.577D-01-0.100D+00-0.748D-01 0.124D+01
 Coeff:      0.564D-02-0.121D-01-0.577D-01-0.100D+00-0.748D-01 0.124D+01
 Gap=     0.294 Goal=   None    Shift=    0.000
 Gap=     0.303 Goal=   None    Shift=    0.000
 RMSDP=1.56D-05 MaxDP=8.24D-04 DE=-3.47D-05 OVMax= 1.66D-03

 Cycle   7  Pass 1  IDiag  1:
 E= -193.643406806953     Delta-E=       -0.000006847358 Rises=F Damp=F
 DIIS: error= 2.56D-05 at cycle   7 NSaved=   7.
 NSaved= 7 IEnMin= 7 EnMin= -193.643406806953     IErMin= 7 ErrMin= 2.56D-05
 ErrMax= 2.56D-05  0.00D+00 EMaxC= 1.00D-01 BMatC= 8.35D-07 BMatP= 8.95D-06
 IDIUse=1 WtCom= 1.00D+00 WtEn= 0.00D+00
 Coeff-Com:  0.968D-03-0.150D-02-0.141D-01-0.338D-01-0.748D-01 0.288D+00
 Coeff-Com:  0.835D+00
 Coeff:      0.968D-03-0.150D-02-0.141D-01-0.338D-01-0.748D-01 0.288D+00
 Coeff:      0.835D+00
 Gap=     0.294 Goal=   None    Shift=    0.000
 Gap=     0.303 Goal=   None    Shift=    0.000
 RMSDP=3.96D-06 MaxDP=2.36D-04 DE=-6.85D-06 OVMax= 2.53D-04

 Cycle   8  Pass 1  IDiag  1:
 E= -193.643407115130     Delta-E=       -0.000000308177 Rises=F Damp=F
 DIIS: error= 8.28D-06 at cycle   8 NSaved=   8.
 NSaved= 8 IEnMin= 8 EnMin= -193.643407115130     IErMin= 8 ErrMin= 8.28D-06
 ErrMax= 8.28D-06  0.00D+00 EMaxC= 1.00D-01 BMatC= 1.08D-07 BMatP= 8.35D-07
 IDIUse=1 WtCom= 1.00D+00 WtEn= 0.00D+00
 Coeff-Com: -0.455D-03 0.109D-02 0.313D-02 0.236D-02-0.915D-02-0.698D-01
 Coeff-Com:  0.205D+00 0.868D+00
 Coeff:     -0.455D-03 0.109D-02 0.313D-02 0.236D-02-0.915D-02-0.698D-01
 Coeff:      0.205D+00 0.868D+00
 Gap=     0.294 Goal=   None    Shift=    0.000
 Gap=     0.303 Goal=   None    Shift=    0.000
 RMSDP=1.60D-06 MaxDP=6.87D-05 DE=-3.08D-07 OVMax= 9.33D-05

 Cycle   9  Pass 1  IDiag  1:
 E= -193.643407152728     Delta-E=       -0.000000037598 Rises=F Damp=F
 DIIS: error= 3.79D-06 at cycle   9 NSaved=   9.
 NSaved= 9 IEnMin= 9 EnMin= -193.643407152728     IErMin= 9 ErrMin= 3.79D-06
 ErrMax= 3.79D-06  0.00D+00 EMaxC= 1.00D-01 BMatC= 1.16D-08 BMatP= 1.08D-07
 IDIUse=1 WtCom= 1.00D+00 WtEn= 0.00D+00
 Coeff-Com: -0.217D-03 0.442D-03 0.236D-02 0.424D-02 0.720D-02-0.500D-01
 Coeff-Com: -0.517D-01 0.223D+00 0.864D+00
 Coeff:     -0.217D-03 0.442D-03 0.236D-02 0.424D-02 0.720D-02-0.500D-01
 Coeff:     -0.517D-01 0.223D+00 0.864D+00
 Gap=     0.294 Goal=   None    Shift=    0.000
 Gap=     0.303 Goal=   None    Shift=    0.000
 RMSDP=4.36D-07 MaxDP=1.44D-05 DE=-3.76D-08 OVMax= 2.62D-05

 Cycle  10  Pass 1  IDiag  1:
 E= -193.643407156986     Delta-E=       -0.000000004258 Rises=F Damp=F
 DIIS: error= 6.82D-07 at cycle  10 NSaved=  10.
 NSaved=10 IEnMin=10 EnMin= -193.643407156986     IErMin=10 ErrMin= 6.82D-07
 ErrMax= 6.82D-07  0.00D+00 EMaxC= 1.00D-01 BMatC= 4.89D-10 BMatP= 1.16D-08
 IDIUse=1 WtCom= 1.00D+00 WtEn= 0.00D+00
 Coeff-Com:  0.199D-04-0.462D-04-0.514D-04 0.145D-03 0.869D-03 0.972D-03
 Coeff-Com: -0.169D-01-0.375D-01 0.608D-01 0.992D+00
 Coeff:      0.199D-04-0.462D-04-0.514D-04 0.145D-03 0.869D-03 0.972D-03
 Coeff:     -0.169D-01-0.375D-01 0.608D-01 0.992D+00
 Gap=     0.294 Goal=   None    Shift=    0.000
 Gap=     0.303 Goal=   None    Shift=    0.000
 RMSDP=1.48D-07 MaxDP=5.11D-06 DE=-4.26D-09 OVMax= 9.61D-06

 Cycle  11  Pass 1  IDiag  1:
 E= -193.643407157234     Delta-E=       -0.000000000248 Rises=F Damp=F
 DIIS: error= 3.29D-07 at cycle  11 NSaved=  11.
 NSaved=11 IEnMin=11 EnMin= -193.643407157234     IErMin=11 ErrMin= 3.29D-07
 ErrMax= 3.29D-07  0.00D+00 EMaxC= 1.00D-01 BMatC= 1.15D-10 BMatP= 4.89D-10
 IDIUse=1 WtCom= 1.00D+00 WtEn= 0.00D+00
 Coeff-Com:  0.262D-04-0.552D-04-0.227D-03-0.307D-03-0.331D-03 0.478D-02
 Coeff-Com: -0.154D-02-0.323D-01-0.561D-01 0.349D+00 0.737D+00
 Coeff:      0.262D-04-0.552D-04-0.227D-03-0.307D-03-0.331D-03 0.478D-02
 Coeff:     -0.154D-02-0.323D-01-0.561D-01 0.349D+00 0.737D+00
 Gap=     0.294 Goal=   None    Shift=    0.000
 Gap=     0.303 Goal=   None    Shift=    0.000
 RMSDP=3.62D-08 MaxDP=1.12D-06 DE=-2.48D-10 OVMax= 2.64D-06

 Cycle  12  Pass 1  IDiag  1:
 E= -193.643407157275     Delta-E=       -0.000000000041 Rises=F Damp=F
 DIIS: error= 1.08D-07 at cycle  12 NSaved=  12.
 NSaved=12 IEnMin=12 EnMin= -193.643407157275     IErMin=12 ErrMin= 1.08D-07
 ErrMax= 1.08D-07  0.00D+00 EMaxC= 1.00D-01 BMatC= 8.16D-12 BMatP= 1.15D-10
 IDIUse=1 WtCom= 1.00D+00 WtEn= 0.00D+00
 Coeff-Com:  0.119D-05-0.259D-05-0.277D-04-0.581D-04-0.138D-03 0.574D-03
 Coeff-Com:  0.189D-02 0.122D-03-0.167D-01-0.804D-01 0.928D-01 0.100D+01
 Coeff:      0.119D-05-0.259D-05-0.277D-04-0.581D-04-0.138D-03 0.574D-03
 Coeff:      0.189D-02 0.122D-03-0.167D-01-0.804D-01 0.928D-01 0.100D+01
 Gap=     0.294 Goal=   None    Shift=    0.000
 Gap=     0.303 Goal=   None    Shift=    0.000
 RMSDP=1.92D-08 MaxDP=6.78D-07 DE=-4.10D-11 OVMax= 1.42D-06

 Cycle  13  Pass 1  IDiag  1:
 E= -193.643407157280     Delta-E=       -0.000000000005 Rises=F Damp=F
 DIIS: error= 3.48D-08 at cycle  13 NSaved=  13.
 NSaved=13 IEnMin=13 EnMin= -193.643407157280     IErMin=13 ErrMin= 3.48D-08
 ErrMax= 3.48D-08  0.00D+00 EMaxC= 1.00D-01 BMatC= 6.08D-13 BMatP= 8.16D-12
 IDIUse=1 WtCom= 1.00D+00 WtEn= 0.00D+00
 Coeff-Com: -0.218D-05 0.452D-05 0.169D-04 0.214D-04 0.238D-04-0.376D-03
 Coeff-Com:  0.274D-03 0.264D-02 0.423D-02-0.339D-01-0.667D-01 0.466D-01
 Coeff-Com:  0.105D+01
 Coeff:     -0.218D-05 0.452D-05 0.169D-04 0.214D-04 0.238D-04-0.376D-03
 Coeff:      0.274D-03 0.264D-02 0.423D-02-0.339D-01-0.667D-01 0.466D-01
 Coeff:      0.105D+01
 Gap=     0.294 Goal=   None    Shift=    0.000
 Gap=     0.303 Goal=   None    Shift=    0.000
 RMSDP=6.61D-09 MaxDP=3.01D-07 DE=-4.77D-12 OVMax= 4.52D-07

 SCF Done:  E(UM062X) =  -193.643407157     A.U. after   13 cycles
            NFock= 13  Conv=0.66D-08     -V/T= 2.0037
 <Sx>= 0.0000 <Sy>= 0.0000 <Sz>= 0.5000 <S**2>= 0.7552 S= 0.5026
 <L.S>= 0.000000000000E+00
 KE= 1.929234470916D+02 PE=-7.075462924826D+02 EE= 1.931826046243D+02
 Annihilation of the first spin contaminant:
 S**2 before annihilation     0.7552,   after     0.7500
 Leave Link  502 at Sat Mar  9 13:22:47 2019, MaxMem=   671088640 cpu:             608.5 elap:              39.9
 (Enter /shared/centos7/gaussian/g16/l801.exe)
 DoSCS=F DFT=T ScalE2(SS,OS)=  1.000000  1.000000
 Range of M.O.s used for correlation:     1   199
 NBasis=   199 NAE=    17 NBE=    16 NFC=     0 NFV=     0
 NROrb=    199 NOA=    17 NOB=    16 NVA=   182 NVB=   183

 **** Warning!!: The largest alpha MO coefficient is  0.31497933D+02


 **** Warning!!: The largest beta MO coefficient is  0.34899664D+02

 Leave Link  801 at Sat Mar  9 13:22:47 2019, MaxMem=   671088640 cpu:               0.5 elap:               0.0
 (Enter /shared/centos7/gaussian/g16/l1101.exe)
 Using compressed storage, NAtomX=    11.
 Will process     12 centers per pass.
 Leave Link 1101 at Sat Mar  9 13:22:48 2019, MaxMem=   671088640 cpu:               7.6 elap:               0.4
 (Enter /shared/centos7/gaussian/g16/l1102.exe)
 Symmetrizing basis deriv contribution to polar:
 IMax=3 JMax=2 DiffMx= 0.00D+00
 Leave Link 1102 at Sat Mar  9 13:22:48 2019, MaxMem=   671088640 cpu:               0.5 elap:               0.1
 (Enter /shared/centos7/gaussian/g16/l1110.exe)
 Forming Gx(P) for the SCF density, NAtomX=    11.
 Integral derivatives from FoFJK, PRISM(SPDF).
 Do as many integral derivatives as possible in FoFJK.
 G2DrvN: MDV=     671087712.
 G2DrvN: will do    12 centers at a time, making    1 passes.
 Calling FoFCou, ICntrl=  3107 FMM=F I1Cent=   0 AccDes= 0.00D+00.
 FoFJK:  IHMeth= 1 ICntrl=    3107 DoSepK=F KAlg= 0 I1Cent=           0 FoldK=F
 IRaf=         0 NMat=       1 IRICut=       1 DoRegI=T DoRafI=F ISym2E= 0 IDoP0=0 IntGTp=1.
 FoFCou: FMM=F IPFlag=           0 FMFlag=      100000 FMFlg1=           0
         NFxFlg=           0 DoJE=F BraDBF=F KetDBF=F FulRan=T
         wScrn=  0.000000 ICntrl=      3107 IOpCl=  1 I1Cent=           0 NGrid=           0
         NMat0=    1 NMatS0=      1 NMatT0=    0 NMatD0=    1 NMtDS0=    0 NMtDT0=    0
 Symmetry not used in FoFCou.
 End of G2Drv F.D. properties file   721 does not exist.
 End of G2Drv F.D. properties file   722 does not exist.
 End of G2Drv F.D. properties file   788 does not exist.
 Leave Link 1110 at Sat Mar  9 13:23:53 2019, MaxMem=   671088640 cpu:            1315.5 elap:              65.8
 (Enter /shared/centos7/gaussian/g16/l1002.exe)
 Minotr:  UHF open shell wavefunction.
          IDoAtm=11111111111
          Direct CPHF calculation.
          Differentiating once with respect to nuclear coordinates.
          Requested convergence is 1.0D-08 RMS, and 1.0D-07 maximum.
          Secondary convergence is 1.0D-12 RMS, and 1.0D-12 maximum.
          NewPWx=T KeepS1=F KeepF1=F KeepIn=T MapXYZ=F SortEE=F KeepMc=T.
         3335 words used for storage of precomputed grid.
 Keep R1 and R2 ints in memory in canonical form, NReq=416899964.
 FoFCou: FMM=F IPFlag=           0 FMFlag=           0 FMFlg1=           0
         NFxFlg=           0 DoJE=F BraDBF=F KetDBF=F FulRan=T
         wScrn=  0.000000 ICntrl=       600 IOpCl=  0 I1Cent=           0 NGrid=           0
         NMat0=    1 NMatS0=  19900 NMatT0=    0 NMatD0=    1 NMtDS0=    0 NMtDT0=    0
 Symmetry not used in FoFCou.
 Two-electron integral symmetry not used.
          MDV=     671088640 using IRadAn=       1.
          Solving linear equations simultaneously, MaxMat=       0.
          There are    36 degrees of freedom in the 1st order CPHF.  IDoFFX=6 NUNeed=     0.
     30 vectors produced by pass  0 Test12= 1.67D-14 2.78D-09 XBig12= 1.39D-01 8.74D-02.
 AX will form    30 AO Fock derivatives at one time.
     30 vectors produced by pass  1 Test12= 1.67D-14 2.78D-09 XBig12= 5.12D-03 1.58D-02.
     30 vectors produced by pass  2 Test12= 1.67D-14 2.78D-09 XBig12= 1.64D-04 2.41D-03.
     30 vectors produced by pass  3 Test12= 1.67D-14 2.78D-09 XBig12= 2.40D-06 2.85D-04.
     30 vectors produced by pass  4 Test12= 1.67D-14 2.78D-09 XBig12= 3.70D-08 2.01D-05.
     30 vectors produced by pass  5 Test12= 1.67D-14 2.78D-09 XBig12= 3.89D-10 1.88D-06.
     29 vectors produced by pass  6 Test12= 1.67D-14 2.78D-09 XBig12= 3.09D-12 1.99D-07.
     12 vectors produced by pass  7 Test12= 1.67D-14 2.78D-09 XBig12= 2.25D-14 1.54D-08.
 InvSVY:  IOpt=1 It=  1 EMax= 1.22D-15
 Solved reduced A of dimension   221 with    30 vectors.
 End of Minotr F.D. properties file   721 does not exist.
 End of Minotr F.D. properties file   722 does not exist.
 End of Minotr F.D. properties file   788 does not exist.
 Leave Link 1002 at Sat Mar  9 13:25:22 2019, MaxMem=   671088640 cpu:            1772.4 elap:              88.7
 (Enter /shared/centos7/gaussian/g16/l601.exe)
 Copying SCF densities to generalized density rwf, IOpCl= 1 IROHF=0.

 **********************************************************************

            Population analysis using the SCF density.

 **********************************************************************

 Orbital symmetries:
 Alpha Orbitals:
       Occupied  (A) (A) (A) (A) (A) (A) (A) (A) (A) (A) (A) (A)
                 (A) (A) (A) (A) (A)
       Virtual   (A) (A) (A) (A) (A) (A) (A) (A) (A) (A) (A) (A)
                 (A) (A) (A) (A) (A) (A) (A) (A) (A) (A) (A) (A)
                 (A) (A) (A) (A) (A) (A) (A) (A) (A) (A) (A) (A)
                 (A) (A) (A) (A) (A) (A) (A) (A) (A) (A) (A) (A)
                 (A) (A) (A) (A) (A) (A) (A) (A) (A) (A) (A) (A)
                 (A) (A) (A) (A) (A) (A) (A) (A) (A) (A) (A) (A)
                 (A) (A) (A) (A) (A) (A) (A) (A) (A) (A) (A) (A)
                 (A) (A) (A) (A) (A) (A) (A) (A) (A) (A) (A) (A)
                 (A) (A) (A) (A) (A) (A) (A) (A) (A) (A) (A) (A)
                 (A) (A) (A) (A) (A) (A) (A) (A) (A) (A) (A) (A)
                 (A) (A) (A) (A) (A) (A) (A) (A) (A) (A) (A) (A)
                 (A) (A) (A) (A) (A) (A) (A) (A) (A) (A) (A) (A)
                 (A) (A) (A) (A) (A) (A) (A) (A) (A) (A) (A) (A)
                 (A) (A) (A) (A) (A) (A) (A) (A) (A) (A) (A) (A)
                 (A) (A) (A) (A) (A) (A) (A) (A) (A) (A) (A) (A)
                 (A) (A)
 Beta  Orbitals:
       Occupied  (A) (A) (A) (A) (A) (A) (A) (A) (A) (A) (A) (A)
                 (A) (A) (A) (A)
       Virtual   (A) (A) (A) (A) (A) (A) (A) (A) (A) (A) (A) (A)
                 (A) (A) (A) (A) (A) (A) (A) (A) (A) (A) (A) (A)
                 (A) (A) (A) (A) (A) (A) (A) (A) (A) (A) (A) (A)
                 (A) (A) (A) (A) (A) (A) (A) (A) (A) (A) (A) (A)
                 (A) (A) (A) (A) (A) (A) (A) (A) (A) (A) (A) (A)
                 (A) (A) (A) (A) (A) (A) (A) (A) (A) (A) (A) (A)
                 (A) (A) (A) (A) (A) (A) (A) (A) (A) (A) (A) (A)
                 (A) (A) (A) (A) (A) (A) (A) (A) (A) (A) (A) (A)
                 (A) (A) (A) (A) (A) (A) (A) (A) (A) (A) (A) (A)
                 (A) (A) (A) (A) (A) (A) (A) (A) (A) (A) (A) (A)
                 (A) (A) (A) (A) (A) (A) (A) (A) (A) (A) (A) (A)
                 (A) (A) (A) (A) (A) (A) (A) (A) (A) (A) (A) (A)
                 (A) (A) (A) (A) (A) (A) (A) (A) (A) (A) (A) (A)
                 (A) (A) (A) (A) (A) (A) (A) (A) (A) (A) (A) (A)
                 (A) (A) (A) (A) (A) (A) (A) (A) (A) (A) (A) (A)
                 (A) (A) (A)
 The electronic state is 2-A.
 Alpha  occ. eigenvalues --  -19.62410 -10.58716 -10.57306 -10.54625  -1.16145
 Alpha  occ. eigenvalues --   -0.86011  -0.77752  -0.68546  -0.57047  -0.55981
 Alpha  occ. eigenvalues --   -0.53589  -0.48850  -0.45960  -0.44924  -0.39150
 Alpha  occ. eigenvalues --   -0.33711  -0.27291
 Alpha virt. eigenvalues --    0.02134   0.03548   0.03731   0.04611   0.06456
 Alpha virt. eigenvalues --    0.07220   0.07344   0.08658   0.09768   0.11165
 Alpha virt. eigenvalues --    0.11909   0.14799   0.17734   0.19167   0.20940
 Alpha virt. eigenvalues --    0.22707   0.23060   0.24414   0.24998   0.26726
 Alpha virt. eigenvalues --    0.27434   0.30024   0.30964   0.31981   0.33092
 Alpha virt. eigenvalues --    0.36007   0.43381   0.43906   0.44992   0.49646
 Alpha virt. eigenvalues --    0.50605   0.52364   0.53175   0.55543   0.55822
 Alpha virt. eigenvalues --    0.56508   0.58671   0.60622   0.60907   0.62045
 Alpha virt. eigenvalues --    0.62530   0.64679   0.66115   0.67076   0.68484
 Alpha virt. eigenvalues --    0.77835   0.82868   0.84852   0.86440   0.90837
 Alpha virt. eigenvalues --    0.92883   0.94251   0.97747   1.00179   1.01115
 Alpha virt. eigenvalues --    1.05021   1.08118   1.09045   1.11693   1.14540
 Alpha virt. eigenvalues --    1.15853   1.18023   1.19383   1.20629   1.22969
 Alpha virt. eigenvalues --    1.26731   1.28347   1.31379   1.32740   1.33720
 Alpha virt. eigenvalues --    1.37524   1.39154   1.40106   1.42058   1.44848
 Alpha virt. eigenvalues --    1.46775   1.47613   1.49000   1.50412   1.53645
 Alpha virt. eigenvalues --    1.57842   1.60586   1.63253   1.67068   1.73350
 Alpha virt. eigenvalues --    1.99523   2.05936   2.11548   2.25249   2.32347
 Alpha virt. eigenvalues --    2.40381   2.43383   2.46808   2.55582   2.56602
 Alpha virt. eigenvalues --    2.61208   2.64430   2.76158   2.81828   2.86464
 Alpha virt. eigenvalues --    2.90019   2.92647   2.97332   2.98892   3.01625
 Alpha virt. eigenvalues --    3.05909   3.07584   3.10087   3.10883   3.13346
 Alpha virt. eigenvalues --    3.16124   3.17325   3.18355   3.23834   3.24867
 Alpha virt. eigenvalues --    3.27939   3.29510   3.34438   3.37249   3.38692
 Alpha virt. eigenvalues --    3.41577   3.46500   3.49808   3.52874   3.59597
 Alpha virt. eigenvalues --    3.60726   3.63606   3.67521   3.70538   3.73386
 Alpha virt. eigenvalues --    3.78594   3.79768   3.86856   3.87252   3.90428
 Alpha virt. eigenvalues --    3.91765   3.98915   4.03594   4.09220   4.11146
 Alpha virt. eigenvalues --    4.13336   4.17230   4.19720   4.21416   4.24843
 Alpha virt. eigenvalues --    4.25439   4.28831   4.30369   4.33011   4.37572
 Alpha virt. eigenvalues --    4.41662   4.44477   4.48701   4.53973   4.65106
 Alpha virt. eigenvalues --    4.88921   4.91257   5.13918   5.23670   5.26837
 Alpha virt. eigenvalues --    5.30384   5.43557   5.49372   5.51083   5.54243
 Alpha virt. eigenvalues --    5.54772   5.61510   5.69913   5.81864   5.89078
 Alpha virt. eigenvalues --    6.23579   6.46101   6.70184   7.19063   7.20367
 Alpha virt. eigenvalues --    7.31921   7.66759   7.74587  24.22563  24.43178
 Alpha virt. eigenvalues --   24.49192  50.15512
  Beta  occ. eigenvalues --  -19.62384 -10.58780 -10.57295 -10.53943  -1.16019
  Beta  occ. eigenvalues --   -0.84434  -0.76350  -0.66781  -0.56554  -0.55224
  Beta  occ. eigenvalues --   -0.53167  -0.47972  -0.45257  -0.44174  -0.38804
  Beta  occ. eigenvalues --   -0.33463
  Beta virt. eigenvalues --   -0.03155   0.01560   0.03472   0.03572   0.04326
  Beta virt. eigenvalues --    0.06552   0.07171   0.07355   0.08418   0.09877
  Beta virt. eigenvalues --    0.10899   0.11936   0.13892   0.17825   0.19347
  Beta virt. eigenvalues --    0.21130   0.22728   0.23167   0.24499   0.25466
  Beta virt. eigenvalues --    0.26927   0.27774   0.30353   0.31341   0.31936
  Beta virt. eigenvalues --    0.32748   0.36372   0.43746   0.44198   0.45035
  Beta virt. eigenvalues --    0.49828   0.51340   0.52786   0.54194   0.55748
  Beta virt. eigenvalues --    0.56065   0.58081   0.59059   0.61134   0.61196
  Beta virt. eigenvalues --    0.62259   0.63418   0.65174   0.66391   0.66737
  Beta virt. eigenvalues --    0.68786   0.77842   0.83168   0.84724   0.86347
  Beta virt. eigenvalues --    0.90813   0.92534   0.94025   0.97985   0.99643
  Beta virt. eigenvalues --    1.00951   1.04979   1.08676   1.09037   1.11706
  Beta virt. eigenvalues --    1.14421   1.16005   1.17846   1.19625   1.20756
  Beta virt. eigenvalues --    1.23450   1.26900   1.28810   1.31927   1.32882
  Beta virt. eigenvalues --    1.33857   1.37793   1.39498   1.40246   1.42201
  Beta virt. eigenvalues --    1.45079   1.46909   1.48131   1.49927   1.50795
  Beta virt. eigenvalues --    1.54114   1.58879   1.60579   1.63513   1.67104
  Beta virt. eigenvalues --    1.73720   2.00090   2.06160   2.11656   2.25391
  Beta virt. eigenvalues --    2.32528   2.40408   2.44007   2.47168   2.56208
  Beta virt. eigenvalues --    2.57474   2.61981   2.66021   2.81123   2.85746
  Beta virt. eigenvalues --    2.90360   2.92682   2.96860   2.97754   3.02679
  Beta virt. eigenvalues --    3.03988   3.07890   3.09307   3.11386   3.12312
  Beta virt. eigenvalues --    3.14582   3.17021   3.20540   3.22215   3.25187
  Beta virt. eigenvalues --    3.28639   3.29474   3.34293   3.35583   3.39195
  Beta virt. eigenvalues --    3.40047   3.43481   3.48433   3.51654   3.55243
  Beta virt. eigenvalues --    3.60273   3.61809   3.66125   3.68152   3.72474
  Beta virt. eigenvalues --    3.74370   3.79832   3.81214   3.87092   3.87488
  Beta virt. eigenvalues --    3.91204   3.92065   4.00138   4.05702   4.11361
  Beta virt. eigenvalues --    4.12385   4.15984   4.20015   4.21518   4.22656
  Beta virt. eigenvalues --    4.26236   4.26879   4.30228   4.31923   4.34641
  Beta virt. eigenvalues --    4.38238   4.41953   4.45310   4.49271   4.55268
  Beta virt. eigenvalues --    4.70292   4.91007   4.93183   5.17464   5.23736
  Beta virt. eigenvalues --    5.26927   5.31795   5.45933   5.51143   5.54049
  Beta virt. eigenvalues --    5.54967   5.58251   5.62227   5.70133   5.82000
  Beta virt. eigenvalues --    5.89395   6.23658   6.46121   6.70236   7.19154
  Beta virt. eigenvalues --    7.20452   7.32016   7.66841   7.74695  24.23649
  Beta virt. eigenvalues --   24.43201  24.49719  50.15493
          Condensed to atoms (all electrons):
               1          2          3          4          5          6
     1  O    8.219722   0.197201   0.131575  -0.137642  -0.070027  -0.030185
     2  C    0.197201   5.146753  -0.119203   0.113083   0.430553   0.475204
     3  C    0.131575  -0.119203   4.959774   0.015179   0.005855  -0.004120
     4  C   -0.137642   0.113083   0.015179   5.697234  -0.036440  -0.093078
     5  H   -0.070027   0.430553   0.005855  -0.036440   0.566581  -0.034680
     6  H   -0.030185   0.475204  -0.004120  -0.093078  -0.034680   0.536776
     7  H   -0.055494   0.006970   0.432167   0.002280   0.000070  -0.000331
     8  H   -0.039954  -0.022537   0.424478   0.021176  -0.000504  -0.002325
     9  H   -0.052635   0.008481   0.432087  -0.009767   0.000506   0.006489
    10  H    0.004829  -0.027312   0.000742   0.391837  -0.002134   0.004683
    11  H    0.007461  -0.022591  -0.001014   0.390932   0.000631  -0.001137
               7          8          9         10         11
     1  O   -0.055494  -0.039954  -0.052635   0.004829   0.007461
     2  C    0.006970  -0.022537   0.008481  -0.027312  -0.022591
     3  C    0.432167   0.424478   0.432087   0.000742  -0.001014
     4  C    0.002280   0.021176  -0.009767   0.391837   0.390932
     5  H    0.000070  -0.000504   0.000506  -0.002134   0.000631
     6  H   -0.000331  -0.002325   0.006489   0.004683  -0.001137
     7  H    0.537782  -0.027883  -0.025750  -0.000146   0.000040
     8  H   -0.027883   0.580173  -0.052746  -0.001999  -0.001164
     9  H   -0.025750  -0.052746   0.580095   0.000308   0.000239
    10  H   -0.000146  -0.001999   0.000308   0.468980  -0.020230
    11  H    0.000040  -0.001164   0.000239  -0.020230   0.482073
          Atomic-Atomic Spin Densities.
               1          2          3          4          5          6
     1  O    0.035468   0.006618  -0.007791  -0.029655  -0.017831   0.009254
     2  C    0.006618  -0.046288   0.009033  -0.053419   0.021851   0.009986
     3  C   -0.007791   0.009033   0.039227  -0.014784   0.001027  -0.000184
     4  C   -0.029655  -0.053419  -0.014784   1.236321  -0.029100  -0.022891
     5  H   -0.017831   0.021851   0.001027  -0.029100   0.081934  -0.012758
     6  H    0.009254   0.009986  -0.000184  -0.022891  -0.012758   0.026353
     7  H    0.000205  -0.001324  -0.004984   0.003463   0.000163  -0.000172
     8  H    0.002000   0.006636   0.006900  -0.012992   0.000061   0.000044
     9  H   -0.000779  -0.002057  -0.001264   0.002185   0.000011  -0.000235
    10  H    0.002584   0.004108   0.001624  -0.013599  -0.001505   0.000334
    11  H   -0.000025   0.010830   0.000164  -0.011510  -0.000860   0.000940
               7          8          9         10         11
     1  O    0.000205   0.002000  -0.000779   0.002584  -0.000025
     2  C   -0.001324   0.006636  -0.002057   0.004108   0.010830
     3  C   -0.004984   0.006900  -0.001264   0.001624   0.000164
     4  C    0.003463  -0.012992   0.002185  -0.013599  -0.011510
     5  H    0.000163   0.000061   0.000011  -0.001505  -0.000860
     6  H   -0.000172   0.000044  -0.000235   0.000334   0.000940
     7  H    0.001569   0.000309   0.000597  -0.000085  -0.000018
     8  H    0.000309  -0.018343   0.000609   0.000634   0.000322
     9  H    0.000597   0.000609  -0.001231  -0.000055  -0.000008
    10  H   -0.000085   0.000634  -0.000055  -0.048307   0.006184
    11  H   -0.000018   0.000322  -0.000008   0.006184  -0.044294
 Mulliken charges and spin densities:
               1          2
     1  O   -0.174852   0.000048
     2  C   -0.186601  -0.034025
     3  C   -0.277521   0.028967
     4  C   -0.354793   1.054019
     5  H    0.139590   0.042994
     6  H    0.142703   0.010671
     7  H    0.130296  -0.000276
     8  H    0.123285  -0.013820
     9  H    0.112691  -0.002225
    10  H    0.180442  -0.048081
    11  H    0.164760  -0.038273
 Sum of Mulliken charges =  -0.00000   1.00000
 Mulliken charges and spin densities with hydrogens summed into heavy atoms:
               1          2
     1  O   -0.174852   0.000048
     2  C    0.095692   0.019640
     3  C    0.088751   0.012646
     4  C   -0.009591   0.967665
 APT charges:
               1
     1  O   -0.129498
     2  C   -0.702807
     3  C   -1.049405
     4  C   -0.821928
     5  H    0.422958
     6  H    0.334944
     7  H    0.486541
     8  H    0.277383
     9  H    0.324635
    10  H    0.352557
    11  H    0.504619
 Sum of APT charges =  -0.00000
 APT charges with hydrogens summed into heavy atoms:
               1
     1  O   -0.129498
     2  C    0.055095
     3  C    0.039155
     4  C    0.035248
 Electronic spatial extent (au):  <R**2>=            312.2217
 Charge=             -0.0000 electrons
 Dipole moment (field-independent basis, Debye):
    X=              0.4714    Y=              0.6913    Z=              0.9595  Tot=              1.2731
 Quadrupole moment (field-independent basis, Debye-Ang):
   XX=            -24.4871   YY=            -26.8519   ZZ=            -26.3794
   XY=             -1.4885   XZ=             -0.2787   YZ=             -1.1165
 Traceless Quadrupole moment (field-independent basis, Debye-Ang):
   XX=              1.4190   YY=             -0.9457   ZZ=             -0.4733
   XY=             -1.4885   XZ=             -0.2787   YZ=             -1.1165
 Octapole moment (field-independent basis, Debye-Ang**2):
  XXX=             -7.6334  YYY=             -3.7890  ZZZ=             -0.4865  XYY=              0.7099
  XXY=              1.2405  XXZ=              0.4860  XZZ=             -0.3070  YZZ=             -0.2641
  YYZ=             -1.1288  XYZ=              0.5465
 Hexadecapole moment (field-independent basis, Debye-Ang**3):
 XXXX=           -266.5311 YYYY=            -99.4468 ZZZZ=            -56.3997 XXXY=              2.1228
 XXXZ=              9.5471 YYYX=             -3.4249 YYYZ=             -0.0274 ZZZX=             -0.3467
 ZZZY=             -1.7040 XXYY=            -61.7810 XXZZ=            -53.4170 YYZZ=            -26.0501
 XXYZ=              0.8566 YYXZ=             -1.0487 ZZXY=              1.0735
 N-N= 1.277968336094D+02 E-N=-7.075462917196D+02  KE= 1.929234470916D+02
  Exact polarizability:   0.000   0.000   0.000   0.000   0.000   0.000
 Approx polarizability:  47.750  -0.226  45.823   0.628   0.013  45.253
                          Isotropic Fermi Contact Couplings
        Atom                 a.u.       MegaHertz       Gauss      10(-4) cm-1
     1  O(17)              0.02809     -17.03057      -6.07693      -5.68079
     2  C(13)             -0.03480     -39.11955     -13.95883     -13.04888
     3  C(13)              0.00263       2.95681       1.05506       0.98629
     4  C(13)              0.17219     193.56923      69.07031      64.56774
     5  H(1)               0.02685     120.02761      42.82884      40.03690
     6  H(1)               0.00745      33.31954      11.88924      11.11420
     7  H(1)              -0.00017      -0.74131      -0.26452      -0.24727
     8  H(1)               0.00043       1.91392       0.68294       0.63842
     9  H(1)              -0.00020      -0.87377      -0.31178      -0.29146
    10  H(1)              -0.01514     -67.67654     -24.14867     -22.57446
    11  H(1)              -0.01607     -71.81616     -25.62579     -23.95529
 --------------------------------------------------------
       Center         ----  Spin Dipole Couplings  ----
                      3XX-RR        3YY-RR        3ZZ-RR
 --------------------------------------------------------
     1   Atom        0.041881     -0.021479     -0.020403
     2   Atom       -0.007652      0.009085     -0.001433
     3   Atom        0.003286      0.011196     -0.014482
     4   Atom        0.141801      0.158486     -0.300287
     5   Atom       -0.004096      0.016579     -0.012483
     6   Atom       -0.003320      0.002915      0.000405
     7   Atom        0.005269     -0.002215     -0.003055
     8   Atom        0.016941     -0.005534     -0.011406
     9   Atom        0.005063     -0.003672     -0.001391
    10   Atom       -0.042202     -0.017911      0.060113
    11   Atom        0.036851     -0.031543     -0.005308
 --------------------------------------------------------
                        XY            XZ            YZ
 --------------------------------------------------------
     1   Atom        0.012500      0.028403      0.009371
     2   Atom        0.010090      0.001341      0.012459
     3   Atom        0.006436     -0.000748     -0.000426
     4   Atom       -0.696310     -0.404547      0.412807
     5   Atom        0.004632     -0.001392     -0.000014
     6   Atom        0.007619     -0.009144     -0.011834
     7   Atom        0.000591      0.001635      0.000142
     8   Atom       -0.003237      0.000251     -0.000691
     9   Atom        0.001685     -0.004136     -0.000845
    10   Atom       -0.032271     -0.009618     -0.038961
    11   Atom       -0.000491      0.051554      0.041884
 --------------------------------------------------------


 ---------------------------------------------------------------------------------
              Anisotropic Spin Dipole Couplings in Principal Axis System
 ---------------------------------------------------------------------------------

       Atom             a.u.   MegaHertz   Gauss  10(-4) cm-1        Axes

              Baa    -0.0333     2.412     0.861     0.805 -0.2604 -0.4145  0.8720
     1 O(17)  Bbb    -0.0225     1.627     0.581     0.543 -0.3176  0.8897  0.3281
              Bcc     0.0558    -4.039    -1.441    -1.347  0.9118  0.1915  0.3633
 
              Baa    -0.0145    -1.940    -0.692    -0.647  0.7143 -0.5410  0.4439
     2 C(13)  Bbb    -0.0059    -0.798    -0.285    -0.266 -0.6242 -0.2058  0.7537
              Bcc     0.0204     2.738     0.977     0.913  0.3164  0.8155  0.4847
 
              Baa    -0.0145    -1.948    -0.695    -0.650  0.0396  0.0067  0.9992
     3 C(13)  Bbb    -0.0003    -0.040    -0.014    -0.013  0.8716 -0.4892 -0.0313
              Bcc     0.0148     1.988     0.709     0.663  0.4886  0.8722 -0.0252
 
              Baa    -0.5470   -73.405   -26.193   -24.485  0.5749  0.7537 -0.3184
     4 C(13)  Bbb    -0.5402   -72.495   -25.868   -24.182  0.4990 -0.0146  0.8665
              Bcc     1.0873   145.900    52.061    48.667 -0.6484  0.6570  0.3845
 
              Baa    -0.0127    -6.791    -2.423    -2.265  0.1732 -0.0269  0.9845
     5 H(1)   Bbb    -0.0048    -2.585    -0.922    -0.862  0.9623 -0.2082 -0.1750
              Bcc     0.0176     9.376     3.345     3.127  0.2097  0.9777 -0.0102
 
              Baa    -0.0114    -6.079    -2.169    -2.028  0.5421  0.3451  0.7662
     6 H(1)   Bbb    -0.0082    -4.395    -1.568    -1.466  0.7045 -0.6836 -0.1906
              Bcc     0.0196    10.475     3.738     3.494  0.4580  0.6432 -0.6137
 
              Baa    -0.0034    -1.795    -0.641    -0.599 -0.1843 -0.0266  0.9825
     7 H(1)   Bbb    -0.0023    -1.206    -0.430    -0.402 -0.0808  0.9967  0.0119
              Bcc     0.0056     3.002     1.071     1.001  0.9796  0.0772  0.1858
 
              Baa    -0.0115    -6.129    -2.187    -2.044  0.0046  0.1177  0.9930
     8 H(1)   Bbb    -0.0059    -3.156    -1.126    -1.053  0.1405  0.9831 -0.1172
              Bcc     0.0174     9.285     3.313     3.097  0.9901 -0.1401  0.0120
 
              Baa    -0.0040    -2.131    -0.760    -0.711 -0.1352  0.9852  0.1051
     9 H(1)   Bbb    -0.0034    -1.819    -0.649    -0.607  0.4439 -0.0346  0.8954
              Bcc     0.0074     3.950     1.409     1.317  0.8858  0.1678 -0.4327
 
              Baa    -0.0719   -38.366   -13.690   -12.798  0.7490  0.6187  0.2372
    10 H(1)   Bbb    -0.0044    -2.368    -0.845    -0.790 -0.6619  0.6813  0.3126
              Bcc     0.0763    40.735    14.535    13.588  0.0318 -0.3911  0.9198
 
              Baa    -0.0727   -38.781   -13.838   -12.936  0.3152  0.6789 -0.6632
    11 H(1)   Bbb    -0.0042    -2.220    -0.792    -0.740 -0.5571  0.6981  0.4498
              Bcc     0.0768    41.001    14.630    13.677  0.7683  0.2277  0.5982
 

 ---------------------------------------------------------------------------------

 No NMR shielding tensors so no spin-rotation constants.
 Leave Link  601 at Sat Mar  9 13:25:23 2019, MaxMem=   671088640 cpu:              10.2 elap:               0.6
 (Enter /shared/centos7/gaussian/g16/l701.exe)
 ... and contract with generalized density number  0.
 Compute integral second derivatives.
 Leave Link  701 at Sat Mar  9 13:25:23 2019, MaxMem=   671088640 cpu:               8.7 elap:               0.5
 (Enter /shared/centos7/gaussian/g16/l702.exe)
 L702 exits ... SP integral derivatives will be done elsewhere.
 Leave Link  702 at Sat Mar  9 13:25:23 2019, MaxMem=   671088640 cpu:               0.4 elap:               0.0
 (Enter /shared/centos7/gaussian/g16/l703.exe)
 Integral derivatives from FoFJK, PRISM(SPDF).
 Compute integral second derivatives, UseDBF=F ICtDFT=           0.
 Calling FoFJK, ICntrl=    100147 FMM=F ISym2X=0 I1Cent= 0 IOpClX= 1 NMat=1 NMatS=1 NMatT=0.
 FoFJK:  IHMeth= 1 ICntrl=  100147 DoSepK=F KAlg= 0 I1Cent=           0 FoldK=F
 IRaf=         0 NMat=       1 IRICut=       1 DoRegI=T DoRafI=F ISym2E= 0 IDoP0=0 IntGTp=1.
 FoFCou: FMM=F IPFlag=           0 FMFlag=      100000 FMFlg1=         800
         NFxFlg=           0 DoJE=F BraDBF=F KetDBF=F FulRan=T
         wScrn=  0.000000 ICntrl=    100147 IOpCl=  1 I1Cent=           0 NGrid=           0
         NMat0=    1 NMatS0=      1 NMatT0=    0 NMatD0=    1 NMtDS0=    0 NMtDT0=    0
 Symmetry not used in FoFCou.
 Leave Link  703 at Sat Mar  9 13:26:39 2019, MaxMem=   671088640 cpu:            1513.1 elap:              75.7
 (Enter /shared/centos7/gaussian/g16/l716.exe)
 Dipole        = 1.85460239D-01 2.71959564D-01 3.77495192D-01
 Polarizability= 0.00000000D+00 0.00000000D+00 0.00000000D+00
                 0.00000000D+00 0.00000000D+00 0.00000000D+00
 ***** Axes restored to original set *****
 -------------------------------------------------------------------
 Center     Atomic                   Forces (Hartrees/Bohr)
 Number     Number              X              Y              Z
 -------------------------------------------------------------------
      1        8          -0.000000088   -0.000000460    0.000000383
      2        6           0.000000054    0.000000089   -0.000000065
      3        6          -0.000000297   -0.000000562    0.000000103
      4        6           0.000000446    0.000000746   -0.000000075
      5        1           0.000000142    0.000000051    0.000000182
      6        1          -0.000000339    0.000000008   -0.000000536
      7        1          -0.000000400   -0.000000991    0.000000473
      8        1          -0.000000074   -0.000000145    0.000000063
      9        1          -0.000000697   -0.000000654   -0.000000357
     10        1           0.000000823    0.000000730    0.000000351
     11        1           0.000000430    0.000001188   -0.000000523
 -------------------------------------------------------------------
 Cartesian Forces:  Max     0.000001188 RMS     0.000000482
 Force constants in Cartesian coordinates: 
                1             2             3             4             5 
      1  0.456472D+00
      2 -0.100225D+00  0.352182D+00
      3  0.728449D-01  0.673301D-01  0.151983D+00
      4 -0.222114D+00  0.277378D-02 -0.456824D-01  0.494976D+00
      5 -0.333818D-01 -0.885445D-01 -0.142657D-01  0.440045D-02  0.573059D+00
      6 -0.561929D-01 -0.572494D-02 -0.804607D-01 -0.322288D-01 -0.110957D-01
      7 -0.126624D+00  0.527021D-01  0.705608D-03 -0.405823D-01  0.370478D-01
      8  0.911935D-01 -0.210813D+00 -0.301215D-01  0.100990D-01 -0.250596D-02
      9  0.123631D-01 -0.414083D-01 -0.744002D-01 -0.641230D-02  0.147813D-01
     10 -0.176567D-01 -0.176052D-02 -0.442878D-01 -0.722251D-01 -0.197021D-01
     11 -0.536875D-02  0.336500D-02 -0.117909D-01 -0.210844D-01 -0.612117D-01
     12 -0.180400D-01 -0.420241D-02 -0.181593D-01 -0.165286D-02  0.180172D-02
     13 -0.321561D-01  0.328592D-01  0.662310D-02 -0.873018D-01  0.798340D-01
     14  0.461497D-03  0.258303D-02  0.160611D-02  0.917076D-01 -0.215404D+00
     15 -0.851218D-02  0.102868D-01  0.521228D-02  0.489757D-01 -0.823287D-01
     16 -0.357610D-01 -0.263477D-01  0.576265D-02 -0.884002D-01 -0.749308D-01
     17 -0.799405D-02 -0.231700D-03 -0.278930D-02 -0.799009D-01 -0.208595D+00
     18 -0.917935D-02 -0.100086D-01  0.691573D-02  0.398455D-01  0.848175D-01
     19 -0.225209D-01  0.360946D-02 -0.604693D-02  0.106303D-02  0.362847D-02
     20  0.373076D-01 -0.298699D-03  0.123777D-01  0.139317D-02 -0.468084D-02
     21  0.773159D-02  0.106337D-02  0.360099D-02  0.106729D-02 -0.811291D-03
     22 -0.575560D-02  0.134445D-01  0.193757D-01  0.349976D-02 -0.846360D-03
     23  0.129514D-01 -0.180383D-01 -0.338702D-01 -0.399424D-02  0.100999D-02
     24  0.707961D-02 -0.103557D-01  0.137257D-03 -0.239628D-02 -0.103275D-02
     25  0.510281D-02  0.217621D-01 -0.939383D-02  0.510556D-02  0.408475D-02
     26  0.208647D-02 -0.406688D-01  0.100090D-01 -0.570499D-02  0.329279D-03
     27 -0.447444D-02 -0.567394D-02  0.787061D-02  0.145108D-03 -0.182999D-03
     28  0.178532D-02  0.542961D-03  0.118202D-02  0.221180D-02 -0.368034D-03
     29  0.604738D-03 -0.612224D-03  0.221772D-03  0.226024D-02  0.451462D-02
     30 -0.587216D-03 -0.113053D-02  0.400834D-02  0.198642D-01  0.188264D-01
     31 -0.771092D-03  0.639149D-03 -0.108303D-02  0.376711D-02  0.233575D-03
     32  0.236441D-02  0.107764D-02  0.129284D-02 -0.194980D-02  0.202872D-02
     33 -0.303316D-02 -0.175891D-03 -0.670811D-02 -0.215251D-01 -0.105097D-01
                6             7             8             9            10 
      6  0.492445D+00
      7  0.436689D-02  0.597678D+00
      8  0.406641D-02  0.429454D-01  0.509916D+00
      9  0.303047D-03  0.281471D-01 -0.272823D-02  0.570528D+00
     10  0.328926D-02  0.401697D-03 -0.238499D-02 -0.344422D-02  0.464187D+00
     11  0.262183D-02  0.228238D-02 -0.114319D-02  0.345175D-03  0.271112D+00
     12 -0.232255D+00 -0.332632D-03  0.359949D-04  0.131753D-02  0.256279D-01
     13  0.363751D-01 -0.486496D-02 -0.335904D-02 -0.160269D-02  0.410811D-02
     14 -0.677346D-01 -0.286590D-03  0.161958D-02  0.333022D-03 -0.133371D-02
     15 -0.773673D-01 -0.261132D-02  0.265382D-03  0.685018D-04  0.998650D-02
     16  0.398020D-01  0.306671D-02 -0.683294D-02  0.652831D-03  0.275434D-02
     17  0.833919D-01  0.287012D-02  0.271283D-02 -0.175257D-02  0.152955D-02
     18 -0.921048D-01  0.571476D-03 -0.180289D-02  0.129207D-03  0.169084D-01
     19  0.150626D-02 -0.271367D+00 -0.425861D-01 -0.945671D-01  0.341608D-04
     20 -0.117482D-02 -0.541660D-01 -0.578558D-01 -0.212073D-01  0.741575D-04
     21  0.150791D-03 -0.993284D-01 -0.175015D-01 -0.926976D-01 -0.306686D-03
     22  0.325052D-02 -0.532180D-01 -0.476292D-03  0.112681D-01 -0.451506D-03
     23 -0.152274D-02  0.820667D-03 -0.563569D-01 -0.367427D-01  0.520012D-03
     24  0.407436D-03  0.140380D-01 -0.407624D-01 -0.295347D+00 -0.220282D-03
     25 -0.114230D-02 -0.104781D+00 -0.882233D-01  0.535215D-01 -0.449653D-03
     26 -0.141263D-02 -0.840196D-01 -0.185957D+00  0.879634D-01  0.639918D-03
     27  0.165735D-03  0.537054D-01  0.898615D-01 -0.109431D+00  0.235124D-03
     28 -0.226310D-02 -0.137881D-03  0.298857D-03  0.201475D-03 -0.152755D+00
     29 -0.351285D-02 -0.378806D-03  0.427689D-03  0.470390D-03 -0.128118D+00
     30 -0.107098D-01 -0.200456D-03  0.198246D-03 -0.173804D-03  0.969844D-01
     31  0.323708D-02  0.428621D-03 -0.674129D-03 -0.127750D-03 -0.227947D+00
     32  0.209809D-02  0.182414D-03 -0.439452D-04 -0.541062D-04 -0.120576D+00
     33 -0.574800D-03  0.938376D-03 -0.151110D-02 -0.297399D-03 -0.104773D+00
               11            12            13            14            15 
     11  0.252623D+00
     12 -0.350593D-01  0.544693D+00
     13 -0.448751D-03  0.243886D-02  0.114552D+00
     14  0.218359D-02 -0.588111D-02 -0.101625D+00  0.230857D+00
     15 -0.231863D-01 -0.208942D-01 -0.406768D-01  0.823187D-01  0.879630D-01
     16  0.672604D-03  0.303165D-02  0.742023D-02  0.104856D-01 -0.555587D-02
     17  0.221536D-02 -0.176904D-02 -0.999928D-02 -0.219980D-01  0.111520D-01
     18  0.255434D-01 -0.172859D-01 -0.435369D-02 -0.923271D-02  0.598619D-02
     19 -0.112888D-03  0.399234D-03 -0.992722D-03  0.200407D-03 -0.512670D-03
     20  0.370386D-03 -0.270641D-03  0.156994D-02  0.494481D-04  0.337080D-03
     21  0.400822D-03  0.115384D-03  0.296996D-03 -0.303681D-03  0.218643D-03
     22  0.237625D-03 -0.992454D-03 -0.214909D-03 -0.227647D-05 -0.383631D-03
     23  0.768010D-04  0.454939D-03  0.281618D-03 -0.536176D-04  0.223683D-03
     24  0.135644D-02 -0.515789D-03  0.298452D-03 -0.800612D-04  0.124454D-04
     25 -0.689795D-03  0.161013D-03  0.222546D-03 -0.515307D-04  0.661276D-04
     26  0.567891D-04  0.274546D-03  0.245775D-03  0.440645D-03 -0.256738D-03
     27  0.176567D-04 -0.313465D-03 -0.214104D-03 -0.136949D-03  0.184330D-04
     28 -0.121488D+00  0.967322D-01  0.860447D-04  0.221973D-04 -0.529304D-03
     29 -0.121235D+00  0.961644D-01 -0.173971D-03 -0.259469D-03  0.967430D-03
     30  0.915926D-01 -0.142612D+00  0.656030D-04 -0.309312D-03 -0.798858D-04
     31 -0.125112D+00 -0.107373D+00 -0.858921D-03  0.421706D-03 -0.246528D-03
     32 -0.773012D-01 -0.515491D-01  0.815485D-03 -0.182835D-04  0.220733D-03
     33 -0.518414D-01 -0.114090D+00  0.749176D-03 -0.579417D-03 -0.113812D-02
               16            17            18            19            20 
     16  0.109385D+00
     17  0.943566D-01  0.224012D+00
     18 -0.429723D-01 -0.886975D-01  0.101036D+00
     19  0.265668D-03  0.320051D-05 -0.951366D-05  0.300131D+00
     20  0.416658D-03  0.287127D-03 -0.261853D-03  0.389856D-01  0.647727D-01
     21 -0.185781D-03 -0.183594D-03 -0.229480D-04  0.104216D+00  0.209568D-01
     22 -0.355943D-03 -0.132133D-03  0.852696D-04  0.419702D-02 -0.454621D-02
     23  0.627871D-03 -0.201026D-03  0.322206D-03 -0.493524D-03 -0.158196D-03
     24  0.273280D-03  0.294429D-03 -0.129758D-03  0.703352D-03 -0.440572D-03
     25  0.643669D-03 -0.159232D-02  0.856402D-03 -0.108032D-01 -0.210339D-01
     26  0.156448D-02  0.864314D-03  0.139763D-03 -0.326422D-02 -0.240838D-02
     27 -0.544860D-03  0.392748D-03 -0.175877D-03 -0.548566D-02 -0.105496D-01
     28  0.922323D-03  0.921800D-03 -0.132648D-02 -0.851922D-05 -0.138704D-04
     29 -0.683856D-03  0.499191D-03 -0.156977D-04  0.469126D-04 -0.538208D-04
     30 -0.598036D-03 -0.889158D-03 -0.541839D-02 -0.909358D-04  0.498827D-04
     31  0.589184D-04 -0.626235D-04 -0.425692D-03  0.186751D-05  0.128155D-04
     32  0.671434D-03  0.435674D-03 -0.803655D-03 -0.173308D-04 -0.239187D-04
     33  0.334458D-03  0.850095D-03  0.107041D-02 -0.111556D-03  0.183236D-03
               21            22            23            24            25 
     21  0.920049D-01
     22 -0.287853D-01  0.524920D-01
     23 -0.604115D-02 -0.923343D-02  0.681402D-01
     24 -0.103911D-01 -0.193188D-01  0.523493D-01  0.320050D+00
     25  0.152563D-01 -0.232039D-04 -0.153924D-02 -0.338953D-03  0.104967D+00
     26  0.255793D-02  0.111068D-02  0.604308D-02 -0.156603D-02  0.872899D-01
     27  0.693882D-02  0.157350D-01  0.241727D-01 -0.143812D-01 -0.590114D-01
     28 -0.683849D-05 -0.814617D-04  0.154999D-03 -0.302836D-03  0.316443D-04
     29 -0.110212D-03  0.250128D-03 -0.332886D-03  0.979971D-04  0.200265D-04
     30  0.587464D-04 -0.175035D-03  0.365578D-03 -0.744881D-04  0.125147D-03
     31  0.453433D-04 -0.881874D-04 -0.961334D-04  0.184462D-03 -0.165585D-04
     32 -0.275076D-04  0.193717D-03 -0.129098D-03  0.139344D-03 -0.266549D-04
     33  0.233843D-04 -0.593513D-04  0.288382D-03  0.232403D-03 -0.999827D-04
               26            27            28            29            30 
     26  0.221347D+00
     27 -0.978195D-01  0.109232D+00
     28 -0.399193D-04 -0.362262D-05  0.155575D+00
     29 -0.545324D-04 -0.107578D-03  0.130370D+00  0.119629D+00
     30 -0.138653D-03  0.739885D-04 -0.106519D+00 -0.100762D+00  0.144666D+00
     31  0.914892D-04 -0.865261D-04 -0.762936D-02 -0.419723D-02 -0.886876D-02
     32  0.727748D-05  0.258936D-04 -0.104003D-01 -0.252269D-02 -0.780344D-02
     33  0.248908D-03  0.206329D-05  0.128354D-01  0.658595D-02  0.102618D-01
               31            32            33 
     31  0.233055D+00
     32  0.128743D+00  0.764898D-01
     33  0.114744D+00  0.564609D-01  0.111218D+00
 FormGI is forming the generalized inverse of G from B-inverse, IUseBI=4.
 Force constants in internal coordinates: 
                1             2             3             4             5 
      1  0.367486D+00
      2  0.805924D-02  0.376051D+00
      3  0.302251D-01  0.400132D-03  0.306509D+00
      4  0.124312D-01 -0.141410D-02  0.154823D-01  0.325193D+00
      5  0.172313D-01  0.253220D-03  0.788219D-02  0.457280D-02  0.321095D+00
      6 -0.163836D-02  0.106116D-01 -0.225414D-03  0.190750D-03 -0.997218D-04
      7 -0.265101D-02  0.168746D-01  0.631091D-04  0.203088D-03  0.429799D-03
      8 -0.916115D-04  0.182496D-01  0.468909D-03 -0.622403D-04  0.409501D-03
      9  0.135263D-02  0.394882D-05  0.311806D-02  0.165055D-03 -0.437097D-03
     10  0.114596D-02 -0.126463D-02  0.480766D-02 -0.325778D-03  0.106239D-02
     11  0.577749D-01  0.516666D-01  0.236302D-02  0.441316D-02 -0.342271D-02
     12  0.261197D-01 -0.646268D-03  0.200076D-01 -0.588371D-02 -0.385449D-02
     13  0.138797D-01  0.438726D-02 -0.137459D-01  0.345991D-02  0.197163D-03
     14  0.122251D-01 -0.597850D-02 -0.149418D-01 -0.898685D-04  0.105984D-02
     15 -0.256112D-01 -0.254686D-02  0.135126D-01  0.230395D-02 -0.502276D-02
     16 -0.221274D-01  0.407353D-02 -0.468146D-03 -0.204207D-02  0.307920D-02
     17 -0.451740D-02  0.672220D-03 -0.626454D-02  0.301832D-02  0.483278D-02
     18  0.711921D-02  0.275358D-01 -0.585486D-03  0.123605D-02 -0.885547D-04
     19 -0.383480D-02  0.274440D-01  0.255279D-02 -0.174976D-03 -0.405433D-03
     20 -0.982712D-02  0.280509D-01 -0.212357D-03 -0.482185D-03  0.277157D-02
     21  0.168501D-02 -0.279141D-01 -0.985730D-03 -0.371625D-03 -0.359590D-03
     22  0.258958D-02 -0.275236D-01 -0.216339D-03 -0.135731D-03 -0.133790D-02
     23  0.254229D-02 -0.291528D-01 -0.612006D-03 -0.687896D-04 -0.642367D-03
     24 -0.497347D-02  0.118124D-02  0.983561D-02 -0.986389D-03  0.277898D-02
     25  0.711294D-02 -0.102340D-02  0.225114D-02  0.253238D-02 -0.177133D-02
     26 -0.231433D-02 -0.200814D-03 -0.112147D-01 -0.158543D-02 -0.888364D-03
     27 -0.349473D-02 -0.146703D-02  0.501849D-02  0.340074D-02 -0.396736D-02
     28  0.383165D-02 -0.865682D-03 -0.139798D-01  0.165637D-02  0.428670D-02
     29 -0.403140D-02 -0.116716D-02  0.764629D-02 -0.365443D-02 -0.194461D-02
     30 -0.146043D-02 -0.102966D-02  0.180293D-01 -0.482426D-02  0.344742D-02
     31  0.155948D-02 -0.224773D-03  0.332869D-03 -0.185438D-03  0.795357D-05
     32 -0.278522D-02  0.386309D-03  0.416888D-03 -0.413507D-03  0.742612D-03
     33  0.344772D-02 -0.783534D-03 -0.408421D-03  0.130408D-03 -0.884857D-04
     34  0.993195D-03 -0.299646D-02 -0.273714D-02 -0.278849D-02  0.166329D-02
     35  0.223339D-02 -0.274967D-02 -0.595751D-02 -0.237409D-02  0.113399D-02
     36  0.181894D-01  0.408731D-03  0.211226D-02 -0.671983D-03 -0.402958D-02
     37  0.194296D-01  0.655515D-03 -0.110811D-02 -0.257592D-03 -0.455888D-02
     38 -0.173575D-01  0.221233D-02  0.251010D-02  0.322321D-02  0.753543D-03
     39 -0.161173D-01  0.245911D-02 -0.710274D-03  0.363760D-02  0.224250D-03
                6             7             8             9            10 
      6  0.350143D+00
      7  0.323797D-02  0.331996D+00
      8  0.308060D-02  0.414083D-02  0.327663D+00
      9  0.180388D-04  0.169167D-03 -0.351505D-04  0.366152D+00
     10  0.947230D-05  0.238180D-03  0.174445D-03  0.592483D-03  0.365003D+00
     11  0.480667D-02 -0.507828D-02 -0.221806D-02  0.207325D-03 -0.337113D-03
     12 -0.181304D-03 -0.100251D-02 -0.638029D-03 -0.372556D-02  0.327465D-02
     13  0.685052D-03  0.477901D-03  0.119859D-03  0.824975D-03 -0.503475D-02
     14 -0.191819D-03  0.539485D-03  0.176330D-02 -0.509216D-04 -0.604169D-03
     15 -0.465563D-03  0.686104D-03 -0.410752D-05  0.148817D-03 -0.384849D-02
     16  0.146068D-03 -0.375417D-03 -0.751549D-03  0.388018D-02  0.967582D-02
     17  0.322680D-04 -0.238325D-03 -0.425653D-03 -0.113740D-02 -0.470734D-02
     18  0.355468D-02 -0.496286D-02 -0.523123D-02  0.115500D-03  0.585858D-04
     19 -0.515329D-02  0.104177D-02 -0.543630D-02  0.444873D-03 -0.430891D-04
     20 -0.491312D-02 -0.517648D-02  0.189387D-02 -0.138998D-03  0.160704D-03
     21  0.592111D-02  0.667114D-02 -0.559581D-02 -0.220622D-03 -0.711987D-04
     22  0.578556D-02 -0.540522D-02  0.640914D-02  0.495766D-05 -0.850352D-04
     23 -0.463620D-02  0.767317D-02  0.793486D-02 -0.211575D-03 -0.245429D-04
     24  0.370946D-05 -0.340306D-03 -0.143675D-03  0.594200D-02 -0.116221D-01
     25  0.957062D-04  0.453035D-03  0.131885D-03 -0.100580D-01  0.877132D-02
     26 -0.941483D-04 -0.106151D-03  0.159844D-04  0.437102D-02  0.261871D-02
     27 -0.712075D-04  0.166744D-02 -0.541549D-03 -0.156291D-02 -0.675428D-02
     28  0.152235D-03  0.108320D-02 -0.249803D-03 -0.154443D-03 -0.574188D-03
     29 -0.159050D-03  0.853100D-03 -0.647177D-03  0.755812D-03  0.786666D-02
     30 -0.150752D-03 -0.533604D-03  0.345313D-03  0.119567D-03 -0.172973D-01
     31 -0.127268D-03  0.593128D-02 -0.620154D-02  0.373328D-04 -0.386826D-04
     32 -0.662369D-02  0.301103D-03  0.716972D-02 -0.265117D-04  0.365731D-04
     33  0.626069D-02 -0.660906D-02 -0.545452D-03  0.346766D-04 -0.143794D-04
     34 -0.227086D-03 -0.143805D-03  0.516835D-03  0.148282D-02  0.619918D-02
     35 -0.242917D-03 -0.163419D-03  0.493342D-03 -0.446314D-03  0.714486D-02
     36  0.205819D-03  0.275443D-03  0.249331D-03  0.197325D-03 -0.672046D-03
     37  0.189988D-03  0.255829D-03  0.225838D-03 -0.173181D-02  0.273637D-03
     38  0.464848D-04  0.173106D-03 -0.753628D-03  0.132375D-02 -0.282083D-02
     39  0.306538D-04  0.153492D-03 -0.777121D-03 -0.605383D-03 -0.187515D-02
               11            12            13            14            15 
     11  0.295915D+00
     12  0.127429D-01  0.167246D+00
     13  0.760951D-02 -0.607736D-01  0.713540D-01
     14 -0.832160D-02 -0.603400D-01  0.616041D-02  0.767225D-01
     15 -0.149378D-01 -0.365782D-01 -0.288458D-01  0.186635D-01  0.674685D-01
     16  0.216623D-02 -0.380220D-01  0.251535D-01 -0.298902D-01 -0.115576D-03
     17  0.668756D-04  0.200162D-01 -0.929107D-02 -0.600377D-02 -0.203102D-01
     18  0.178643D-01 -0.236022D-02  0.300346D-02  0.369037D-03 -0.636082D-03
     19 -0.168869D-02  0.187764D-02 -0.413813D-03  0.427574D-03 -0.179058D-02
     20 -0.606994D-02  0.214699D-02 -0.111908D-02 -0.153470D-02  0.415271D-03
     21 -0.575498D-02 -0.300892D-03 -0.886489D-03  0.224195D-03  0.106820D-02
     22 -0.477158D-02 -0.630770D-03 -0.535805D-03  0.552506D-03  0.376415D-03
     23  0.313356D-03 -0.809237D-03 -0.508478D-04 -0.453230D-05  0.612389D-03
     24  0.619082D-03 -0.184224D-01  0.504118D-02  0.955908D-03  0.115823D-02
     25 -0.979541D-03  0.200014D-01 -0.423868D-02 -0.263121D-02 -0.604086D-03
     26  0.266842D-03 -0.182905D-02 -0.718501D-03  0.158972D-02 -0.705616D-03
     27 -0.770992D-02 -0.104695D-01 -0.355076D-02  0.767099D-02  0.204171D-01
     28 -0.168676D-02 -0.212586D-01  0.195980D-01  0.152647D-01 -0.224684D-01
     29 -0.189297D-02  0.160991D-01 -0.103862D-01 -0.171040D-01  0.772958D-02
     30  0.152044D-02 -0.466175D-02 -0.201551D-02 -0.334993D-02 -0.471352D-03
     31  0.579178D-03  0.591400D-03 -0.158883D-03  0.347355D-03 -0.515489D-03
     32 -0.273900D-02  0.136053D-02 -0.739974D-03 -0.412725D-03 -0.370494D-03
     33  0.224870D-02 -0.391857D-03  0.388734D-03  0.367913D-03 -0.210911D-03
     34 -0.278560D-02  0.239222D-02 -0.162470D-01  0.176648D-01  0.354592D-02
     35 -0.232850D-02  0.403008D-02 -0.166223D-01  0.179096D-01  0.442947D-02
     36  0.500069D-02  0.960305D-02  0.148832D-01 -0.120381D-02 -0.109161D-01
     37  0.545779D-02  0.112409D-01  0.145079D-01 -0.958974D-03 -0.100326D-01
     38 -0.289792D-02 -0.124161D-01  0.116023D-02 -0.157804D-01  0.605760D-02
     39 -0.244082D-02 -0.107782D-01  0.784928D-03 -0.155356D-01  0.694116D-02
               16            17            18            19            20 
     16  0.533411D-01
     17 -0.113547D-01  0.276458D-01
     18  0.489450D-03 -0.698621D-03  0.136454D+00
     19 -0.484534D-03  0.300162D-03 -0.308900D-01  0.140629D+00
     20 -0.363992D-03  0.335849D-03 -0.304845D-01 -0.330444D-01  0.141267D+00
     21 -0.692103D-04 -0.421912D-04 -0.379661D-01 -0.369816D-01 -0.130363D-02
     22  0.100554D-03  0.159855D-03 -0.371773D-01 -0.152975D-02 -0.372129D-01
     23  0.337169D-03 -0.615281D-04 -0.471226D-03 -0.403626D-01 -0.407942D-01
     24  0.150516D-01 -0.367965D-02 -0.134283D-03  0.564051D-03 -0.669621D-03
     25 -0.175988D-01  0.514526D-02  0.363216D-03 -0.137801D-03  0.525636D-03
     26  0.303364D-02 -0.156815D-02 -0.231755D-03 -0.477274D-03  0.134191D-03
     27 -0.762350D-02 -0.572224D-02  0.105609D-02 -0.229714D-02  0.228755D-03
     28 -0.230062D-02  0.139036D-01  0.120639D-02 -0.899568D-03 -0.773347D-03
     29  0.116191D-01 -0.105317D-01  0.250814D-03 -0.123040D-02  0.151917D-03
     30  0.151818D-01 -0.575036D-02 -0.587524D-03  0.108011D-02 -0.580083D-03
     31 -0.177754D-03 -0.124523D-03  0.659974D-03  0.187465D-01 -0.193555D-01
     32 -0.120185D-03  0.195531D-03 -0.214833D-01  0.128066D-02  0.209986D-01
     33  0.357815D-04 -0.166106D-03  0.215810D-01 -0.208291D-01 -0.256925D-02
     34 -0.111310D-01  0.401558D-02 -0.895914D-03  0.318415D-03 -0.267419D-03
     35 -0.141535D-01  0.477326D-02 -0.850911D-03  0.645716D-03 -0.229692D-03
     36 -0.414188D-02 -0.854597D-02  0.937943D-03 -0.201217D-03 -0.123677D-05
     37 -0.716439D-02 -0.778828D-02  0.982946D-03  0.126084D-03  0.364909D-04
     38  0.152950D-01  0.584995D-02 -0.173871D-04 -0.125453D-02  0.445504D-03
     39  0.122725D-01  0.660764D-02  0.276150D-04 -0.927229D-03  0.483231D-03
               21            22            23            24            25 
     21  0.704268D-01
     22  0.369421D-02  0.703098D-01
     23  0.415510D-02  0.441946D-02  0.729885D-01
     24 -0.329573D-04  0.232068D-03  0.439930D-04  0.716806D-01
     25 -0.100640D-03 -0.347062D-03 -0.312418D-03 -0.364472D-01  0.689689D-01
     26  0.171954D-03  0.126064D-03  0.284457D-03 -0.340854D-01 -0.317645D-01
     27  0.364543D-03 -0.800546D-04  0.758848D-03 -0.471593D-02  0.631849D-02
     28 -0.189950D-03  0.173171D-03  0.503842D-03  0.109396D-02 -0.160854D-02
     29  0.224675D-03  0.117760D-04  0.604639D-03  0.225138D-02 -0.411106D-02
     30 -0.102834D-03  0.292041D-03 -0.106751D-03  0.226747D-02  0.360258D-02
     31  0.198203D-01 -0.203507D-01  0.164111D-03  0.193636D-03 -0.155653D-03
     32 -0.206676D-01 -0.338174D-03  0.190309D-01 -0.112046D-04 -0.182530D-03
     33  0.354540D-03  0.209845D-01 -0.180245D-01  0.112155D-04 -0.548885D-04
     34  0.350386D-03  0.406288D-03  0.100482D-03  0.202364D-02 -0.299196D-02
     35  0.126288D-03  0.330758D-03 -0.204999D-04 -0.317085D-04 -0.277595D-02
     36 -0.241941D-03 -0.428520D-03 -0.749036D-04 -0.282516D-02  0.428384D-02
     37 -0.466039D-03 -0.504050D-03 -0.195885D-03 -0.488051D-02  0.449985D-02
     38  0.330484D-03  0.682943D-04  0.444212D-03  0.281521D-02 -0.797570D-03
     39  0.106387D-03 -0.723602D-05  0.323230D-03  0.759860D-03 -0.581552D-03
               26            27            28            29            30 
     26  0.641698D-01
     27 -0.179127D-02  0.135636D-01
     28  0.599926D-03 -0.318103D-02  0.236748D-01
     29  0.206007D-02  0.176100D-02 -0.101081D-01  0.157195D-01
     30 -0.528385D-02 -0.662928D-02 -0.204417D-02  0.729887D-02  0.195715D-01
     31 -0.361671D-04 -0.104453D-02 -0.645070D-03 -0.579034D-03  0.433988D-03
     32  0.180248D-03 -0.816396D-03 -0.652196D-03 -0.292662D-03  0.300524D-03
     33  0.516069D-04 -0.365758D-03 -0.138716D-03 -0.324843D-03  0.983618D-04
     34  0.157217D-02 -0.196275D-02  0.304536D-02 -0.130874D-02  0.302864D-02
     35  0.243172D-02 -0.717159D-03  0.251363D-02 -0.263862D-02  0.597401D-03
     36 -0.101491D-02  0.620160D-03 -0.130684D-02  0.130499D-02 -0.289374D-02
     37 -0.155354D-03  0.186575D-02 -0.183856D-02 -0.248893D-04 -0.532498D-02
     38 -0.148949D-02  0.150531D-02  0.413484D-03  0.407090D-03 -0.756179D-03
[...]
 Variable       Old X    -DE/DX   Delta X   Delta X   Delta X     New X
                                 (Linear)    (Quad)   (Total)
    R1        2.66935   0.00632   0.00000   0.00571   0.00571   2.67507
    R2        2.64562   0.00581   0.00000   0.00593   0.00593   2.65155
    R3        2.76769   0.01275   0.00000   0.01714   0.01710   2.78479
    R4        2.06606   0.00218   0.00000   0.00569   0.00569   2.07175
    R5        2.07651   0.00109   0.00000   0.00249   0.00249   2.07900
    R6        2.05247   0.00107   0.00000   0.00110   0.00110   2.05357
    R7        2.06591   0.00104   0.00000   0.00160   0.00160   2.06751
    R8        2.06807   0.00107   0.00000   0.00113   0.00113   2.06920
    R9        2.03890  -0.00038   0.00000   0.00490   0.00490   2.04380
   R10        2.08912  -0.01322   0.00000  -0.01565  -0.01560   2.07352
    A1        1.96664   0.00257   0.00000   0.00173   0.00173   1.96836
    A2        2.10496  -0.01043   0.00000   0.00613   0.00622   2.11117
    A3        1.74087   0.00502   0.00000   0.00405   0.00402   1.74489
    A4        1.88571   0.00943   0.00000   0.01678   0.01675   1.90246
    A5        1.79119   0.00531   0.00000  -0.00720  -0.00733   1.78386
    A6        2.11743  -0.00568   0.00000  -0.01628  -0.01631   2.10112
    A7        1.73086   0.00113   0.00000  -0.00610  -0.00630   1.72456
    A8        1.87332   0.00124   0.00000  -0.00176  -0.00176   1.87155
    A9        1.94989   0.00021   0.00000   0.00285   0.00285   1.95274
   A10        1.93718   0.00018   0.00000  -0.00269  -0.00269   1.93449
   A11        1.89895  -0.00058   0.00000   0.00039   0.00039   1.89934
   A12        1.90478  -0.00058   0.00000   0.00274   0.00274   1.90751
   A13        1.89887  -0.00051   0.00000  -0.00142  -0.00142   1.89746
   A14        2.20077  -0.00407   0.00000   0.02252   0.02214   2.22291
   A15        1.94729   0.00979   0.00000   0.00383   0.00332   1.95061
   A16        2.12970  -0.00561   0.00000  -0.02119  -0.02157   2.10813
    D1       -1.33929   0.00598   0.00000   0.03476   0.03463  -1.30467
    D2        3.00558   0.00021   0.00000   0.03828   0.03827   3.04386
    D3        1.20680  -0.00527   0.00000   0.03913   0.03927   1.24608
    D4        3.13972  -0.02439   0.00000   0.00000  -0.00000   3.13972
    D5       -3.09013  -0.00009   0.00000  -0.00972  -0.00972  -3.09985
    D6        1.11273  -0.00029   0.00000  -0.01074  -0.01074   1.10199
    D7       -1.01003   0.00008   0.00000  -0.00902  -0.00901  -1.01904
    D8        1.15405  -0.00417   0.00000   0.00290   0.00295   1.15701
    D9       -1.87699  -0.00499   0.00000  -0.04801  -0.04797  -1.92496
   D10        3.06544   0.00117   0.00000   0.00559   0.00552   3.07096
   D11        0.03439   0.00035   0.00000  -0.04532  -0.04539  -0.01100
   D12       -1.31329   0.00388   0.00000  -0.01454  -0.01451  -1.32780
   D13        1.93885   0.00306   0.00000  -0.06545  -0.06543   1.87342
         Item               Value     Threshold  Converged?
 Maximum Force            0.008683     0.000450     NO 
 RMS     Force            0.002847     0.000300     NO 
 Maximum Displacement     0.060168     0.001800     NO 
 RMS     Displacement     0.021032     0.001200     NO 
 Predicted change in Energy=-6.945293D-03
 Lowest energy point so far.  Saving SCF results.
 GradGradGradGradGradGradGradGradGradGradGradGradGradGradGradGradGradGrad

 Leave Link  103 at Sat Mar  9 14:53:49 2019, MaxMem=   671088640 cpu:               0.8 elap:               0.1
 (Enter /shared/centos7/gaussian/g16/l202.exe)
                          Input orientation:                          
 ---------------------------------------------------------------------
 Center     Atomic      Atomic             Coordinates (Angstroms)
 Number     Number       Type             X           Y           Z
 ---------------------------------------------------------------------
      1          8           0        0.528533    0.696276    0.816554
      2          6           0       -0.738615    0.423337    0.247589
      3          6           0        1.459738   -0.327562    0.585440
      4          6           0       -0.957140    0.534920   -1.205487
      5          1           0       -1.308045    1.276837    0.633871
      6          1           0       -1.224778   -0.378106    0.823511
      7          1           0        2.378902   -0.047307    1.092903
      8          1           0        1.669767   -0.454736   -0.480732
      9          1           0        1.099754   -1.279815    0.988666
     10          1           0       -0.521992   -0.077383   -1.983591
     11          1           0       -1.600777    1.387597   -1.455783
 ---------------------------------------------------------------------
                    Distance matrix (angstroms):
                    1          2          3          4          5
     1  O    0.000000
     2  C    1.415585   0.000000
     3  C    1.403139   2.347498   0.000000
     4  C    2.514341   1.473647   3.129312   0.000000
     5  H    1.934798   1.096324   3.199541   2.014153   0.000000
     6  H    2.056318   1.100159   2.695525   2.240999   1.667853
     7  H    2.013244   3.264196   1.086703   4.092770   3.944318
     8  H    2.076102   2.664915   1.094080   2.899195   3.620505
     9  H    2.064183   2.613336   1.094973   3.512604   3.529851
    10  H    3.089169   2.296914   3.254192   1.081534   3.050066
    11  H    3.189890   2.138831   4.058955   1.097258   2.112963
                    6          7          8          9         10
     6  H    0.000000
     7  H    3.628844   0.000000
     8  H    3.175738   1.773471   0.000000
     9  H    2.498761   1.779371   1.778989   0.000000
    10  H    2.909324   4.228582   2.684174   3.593079   0.000000
    11  H    2.907621   4.938886   3.878322   4.514785   1.894341
                   11
    11  H    0.000000
 Stoichiometry    C3H7O(2)
 Framework group  C1[X(C3H7O)]
 Deg. of freedom    27
 Full point group                 C1      NOp   1
 RotChk:  IX=0 Diff= 6.58D-03
 Largest Abelian subgroup         C1      NOp   1
 Largest concise Abelian subgroup C1      NOp   1
                         Standard orientation:                         
 ---------------------------------------------------------------------
 Center     Atomic      Atomic             Coordinates (Angstroms)
 Number     Number       Type             X           Y           Z
 ---------------------------------------------------------------------
      1          8           0       -0.620327   -0.558718   -0.365319
      2          6           0        0.639513   -0.500252    0.277537
      3          6           0       -1.502287    0.439346    0.076060
      4          6           0        1.621832    0.540865   -0.072832
      5          1           0        1.104074   -1.404689   -0.132470
      6          1           0        0.524616   -0.828221    1.321369
      7          1           0       -2.446480    0.285568   -0.439476
      8          1           0       -1.132365    1.442384   -0.156495
      9          1           0       -1.663969    0.366241    1.156560
     10          1           0        1.535370    1.606478    0.090604
     11          1           0        2.487024    0.122229   -0.602133
 ---------------------------------------------------------------------
 Rotational constants (GHZ):          17.9317383           5.2178471           4.5371965
 Leave Link  202 at Sat Mar  9 14:53:49 2019, MaxMem=   671088640 cpu:               0.2 elap:               0.0
 (Enter /shared/centos7/gaussian/g16/l301.exe)
 Standard basis: 6-311+G(2df,2p) (5D, 7F)
 Ernie: Thresh=  0.10000D-02 Tol=  0.10000D-05 Strict=F.
 There are   219 symmetry adapted cartesian basis functions of A   symmetry.
 There are   199 symmetry adapted basis functions of A   symmetry.
   199 basis functions,   285 primitive gaussians,   219 cartesian basis functions
    17 alpha electrons       16 beta electrons
       nuclear repulsion energy       126.7552268288 Hartrees.
 IExCor= 4336 DFT=T Ex+Corr=M062X ExCW=0 ScaHFX=  0.540000
 ScaDFX=  1.000000  1.000000  1.000000  1.000000 ScalE2=  1.000000  1.000000
 IRadAn=      5 IRanWt=     -1 IRanGd=            0 ICorTp=0 IEmpDi=  4
 NAtoms=   11 NActive=   11 NUniq=   11 SFac= 1.00D+00 NAtFMM=   60 NAOKFM=F Big=F
 Integral buffers will be    131072 words long.
 Raffenetti 2 integral format.
 Two-electron integral symmetry is turned on.
 Leave Link  301 at Sat Mar  9 14:53:49 2019, MaxMem=   671088640 cpu:               1.3 elap:               0.1
 (Enter /shared/centos7/gaussian/g16/l302.exe)
 NPDir=0 NMtPBC=     1 NCelOv=     1 NCel=       1 NClECP=     1 NCelD=      1
         NCelK=      1 NCelE2=     1 NClLst=     1 CellRange=     0.0.
 One-electron integrals computed using PRISM.
 One-electron integral symmetry used in STVInt
 NBasis=   199 RedAO= T EigKep=  1.07D-04  NBF=   199
 NBsUse=   199 1.00D-06 EigRej= -1.00D+00 NBFU=   199
 Precomputing XC quadrature grid using
 IXCGrd= 4 IRadAn=           5 IRanWt=          -1 IRanGd=           0 AccXCQ= 0.00D+00.
 Generated NRdTot=       0 NPtTot=           0 NUsed=           0 NTot=          32
 NSgBfM=   219   219   219   219   219 MxSgAt=    11 MxSgA2=    11.
 Leave Link  302 at Sat Mar  9 14:53:50 2019, MaxMem=   671088640 cpu:               7.5 elap:               0.4
 (Enter /shared/centos7/gaussian/g16/l303.exe)
 DipDrv:  MaxL=1.
 Leave Link  303 at Sat Mar  9 14:53:50 2019, MaxMem=   671088640 cpu:               0.5 elap:               0.1
 (Enter /shared/centos7/gaussian/g16/l401.exe)
 Initial guess from the checkpoint file:  "/scratch/underkoffler.c/gaussian_scratch/Gau-46849.chk"
 B after Tr=    -0.000000    0.000000    0.000000
         Rot=    0.999999   -0.000089   -0.001349    0.000923 Ang=  -0.19 deg.
 Guess basis will be translated and rotated to current coordinates.
 JPrj=2 DoOrth=T DoCkMO=T.
 Initial guess <Sx>= 0.0000 <Sy>= 0.0000 <Sz>= 0.5000 <S**2>= 0.7553 S= 0.5027
 Generating alternative initial guess.
 ExpMin= 4.38D-02 ExpMax= 8.59D+03 ExpMxC= 1.30D+03 IAcc=2 IRadAn=         4 AccDes= 0.00D+00
 Harris functional with IExCor= 1009 and IRadAn=       4 diagonalized for initial guess.
 HarFok:  IExCor= 1009 AccDes= 0.00D+00 IRadAn=         4 IDoV= 1 UseB2=F ITyADJ=14
 ICtDFT=  3500011 ScaDFX=  1.000000  1.000000  1.000000  1.000000
 FoFCou: FMM=F IPFlag=           0 FMFlag=      100000 FMFlg1=           0
         NFxFlg=           0 DoJE=T BraDBF=F KetDBF=T FulRan=T
         wScrn=  0.000000 ICntrl=       500 IOpCl=  0 I1Cent=   200000004 NGrid=           0
         NMat0=    1 NMatS0=      1 NMatT0=    0 NMatD0=    1 NMtDS0=    0 NMtDT0=    0
 Petite list used in FoFCou.
 Harris En= -193.544522590042    
 Leave Link  401 at Sat Mar  9 14:53:51 2019, MaxMem=   671088640 cpu:              15.3 elap:               0.8
 (Enter /shared/centos7/gaussian/g16/l502.exe)
 Keep R1 and R2 ints in memory in canonical form, NReq=416958841.
 FoFCou: FMM=F IPFlag=           0 FMFlag=           0 FMFlg1=           0
         NFxFlg=           0 DoJE=F BraDBF=F KetDBF=F FulRan=T
         wScrn=  0.000000 ICntrl=       600 IOpCl=  0 I1Cent=           0 NGrid=           0
         NMat0=    1 NMatS0=  19900 NMatT0=    0 NMatD0=    1 NMtDS0=    0 NMtDT0=    0
 Symmetry not used in FoFCou.
 Two-electron integral symmetry not used.
 UHF open shell SCF:
 Using DIIS extrapolation, IDIIS=  1040.
 NGot=   671088640 LenX=   274956345 LenY=   274907943
 Requested convergence on RMS density matrix=1.00D-08 within 128 cycles.
 Requested convergence on MAX density matrix=1.00D-06.
 Requested convergence on             energy=1.00D-06.
 No special actions if energy rises.

 Cycle   1  Pass 1  IDiag  1:
 E= -193.628045225444    
 DIIS: error= 9.07D-04 at cycle   1 NSaved=   1.
 NSaved= 1 IEnMin= 1 EnMin= -193.628045225444     IErMin= 1 ErrMin= 9.07D-04
 ErrMax= 9.07D-04  0.00D+00 EMaxC= 1.00D-01 BMatC= 1.33D-03 BMatP= 1.33D-03
 IDIUse=3 WtCom= 9.91D-01 WtEn= 9.07D-03
 Coeff-Com:  0.100D+01
 Coeff-En:   0.100D+01
 Coeff:      0.100D+01
 Gap=     0.577 Goal=   None    Shift=    0.000
 Gap=     0.601 Goal=   None    Shift=    0.000
 RMSDP=1.49D-04 MaxDP=5.18D-03              OVMax= 7.61D-03

 Cycle   2  Pass 1  IDiag  1:
 E= -193.628490296452     Delta-E=       -0.000445071008 Rises=F Damp=F
 DIIS: error= 2.39D-04 at cycle   2 NSaved=   2.
 NSaved= 2 IEnMin= 2 EnMin= -193.628490296452     IErMin= 2 ErrMin= 2.39D-04
 ErrMax= 2.39D-04  0.00D+00 EMaxC= 1.00D-01 BMatC= 5.68D-05 BMatP= 1.33D-03
 IDIUse=3 WtCom= 9.98D-01 WtEn= 2.39D-03
 Coeff-Com: -0.862D-01 0.109D+01
 Coeff-En:   0.000D+00 0.100D+01
 Coeff:     -0.860D-01 0.109D+01
 Gap=     0.305 Goal=   None    Shift=    0.000
 Gap=     0.287 Goal=   None    Shift=    0.000
 RMSDP=4.05D-05 MaxDP=1.78D-03 DE=-4.45D-04 OVMax= 3.22D-03

 Cycle   3  Pass 1  IDiag  1:
 E= -193.628523254116     Delta-E=       -0.000032957664 Rises=F Damp=F
 DIIS: error= 1.60D-04 at cycle   3 NSaved=   3.
 NSaved= 3 IEnMin= 3 EnMin= -193.628523254116     IErMin= 3 ErrMin= 1.60D-04
 ErrMax= 1.60D-04  0.00D+00 EMaxC= 1.00D-01 BMatC= 1.70D-05 BMatP= 5.68D-05
 IDIUse=3 WtCom= 9.98D-01 WtEn= 1.60D-03
 Coeff-Com: -0.568D-01 0.340D+00 0.717D+00
 Coeff-En:   0.000D+00 0.000D+00 0.100D+01
 Coeff:     -0.567D-01 0.339D+00 0.718D+00
 Gap=     0.305 Goal=   None    Shift=    0.000
 Gap=     0.287 Goal=   None    Shift=    0.000
 RMSDP=1.28D-05 MaxDP=4.93D-04 DE=-3.30D-05 OVMax= 9.26D-04

 Cycle   4  Pass 1  IDiag  1:
 E= -193.628529354171     Delta-E=       -0.000006100055 Rises=F Damp=F
 DIIS: error= 6.59D-05 at cycle   4 NSaved=   4.
 NSaved= 4 IEnMin= 4 EnMin= -193.628529354171     IErMin= 4 ErrMin= 6.59D-05
 ErrMax= 6.59D-05  0.00D+00 EMaxC= 1.00D-01 BMatC= 2.65D-06 BMatP= 1.70D-05
 IDIUse=1 WtCom= 1.00D+00 WtEn= 0.00D+00
 Coeff-Com:  0.561D-02-0.140D+00 0.148D+00 0.986D+00
 Coeff:      0.561D-02-0.140D+00 0.148D+00 0.986D+00
 Gap=     0.305 Goal=   None    Shift=    0.000
 Gap=     0.287 Goal=   None    Shift=    0.000
 RMSDP=1.29D-05 MaxDP=7.95D-04 DE=-6.10D-06 OVMax= 7.24D-04

 Cycle   5  Pass 1  IDiag  1:
 E= -193.628531151646     Delta-E=       -0.000001797475 Rises=F Damp=F
 DIIS: error= 3.03D-05 at cycle   5 NSaved=   5.
 NSaved= 5 IEnMin= 5 EnMin= -193.628531151646     IErMin= 5 ErrMin= 3.03D-05
 ErrMax= 3.03D-05  0.00D+00 EMaxC= 1.00D-01 BMatC= 3.35D-07 BMatP= 2.65D-06
 IDIUse=1 WtCom= 1.00D+00 WtEn= 0.00D+00
 Coeff-Com:  0.778D-02-0.667D-01-0.620D-01 0.177D+00 0.944D+00
 Coeff:      0.778D-02-0.667D-01-0.620D-01 0.177D+00 0.944D+00
 Gap=     0.305 Goal=   None    Shift=    0.000
 Gap=     0.287 Goal=   None    Shift=    0.000
 RMSDP=5.75D-06 MaxDP=3.60D-04 DE=-1.80D-06 OVMax= 3.04D-04

 Cycle   6  Pass 1  IDiag  1:
 E= -193.628531385620     Delta-E=       -0.000000233974 Rises=F Damp=F
 DIIS: error= 1.07D-05 at cycle   6 NSaved=   6.
 NSaved= 6 IEnMin= 6 EnMin= -193.628531385620     IErMin= 6 ErrMin= 1.07D-05
 ErrMax= 1.07D-05  0.00D+00 EMaxC= 1.00D-01 BMatC= 1.19D-07 BMatP= 3.35D-07
 IDIUse=1 WtCom= 1.00D+00 WtEn= 0.00D+00
 Coeff-Com:  0.252D-02-0.370D-02-0.585D-01-0.102D+00 0.439D+00 0.722D+00
 Coeff:      0.252D-02-0.370D-02-0.585D-01-0.102D+00 0.439D+00 0.722D+00
 Gap=     0.305 Goal=   None    Shift=    0.000
 Gap=     0.287 Goal=   None    Shift=    0.000
 RMSDP=1.89D-06 MaxDP=1.14D-04 DE=-2.34D-07 OVMax= 1.24D-04

 Cycle   7  Pass 1  IDiag  1:
 E= -193.628531426993     Delta-E=       -0.000000041373 Rises=F Damp=F
 DIIS: error= 3.55D-06 at cycle   7 NSaved=   7.
 NSaved= 7 IEnMin= 7 EnMin= -193.628531426993     IErMin= 7 ErrMin= 3.55D-06
 ErrMax= 3.55D-06  0.00D+00 EMaxC= 1.00D-01 BMatC= 1.18D-08 BMatP= 1.19D-07
 IDIUse=1 WtCom= 1.00D+00 WtEn= 0.00D+00
 Coeff-Com: -0.518D-03 0.109D-01-0.910D-02-0.659D-01-0.260D-01 0.255D+00
 Coeff-Com:  0.836D+00
 Coeff:     -0.518D-03 0.109D-01-0.910D-02-0.659D-01-0.260D-01 0.255D+00
 Coeff:      0.836D+00
 Gap=     0.305 Goal=   None    Shift=    0.000
 Gap=     0.287 Goal=   None    Shift=    0.000
 RMSDP=4.34D-07 MaxDP=1.56D-05 DE=-4.14D-08 OVMax= 4.00D-05

 Cycle   8  Pass 1  IDiag  1:
 E= -193.628531431174     Delta-E=       -0.000000004181 Rises=F Damp=F
 DIIS: error= 7.28D-07 at cycle   8 NSaved=   8.
 NSaved= 8 IEnMin= 8 EnMin= -193.628531431174     IErMin= 8 ErrMin= 7.28D-07
 ErrMax= 7.28D-07  0.00D+00 EMaxC= 1.00D-01 BMatC= 5.13D-10 BMatP= 1.18D-08
 IDIUse=1 WtCom= 1.00D+00 WtEn= 0.00D+00
 Coeff-Com: -0.266D-03 0.326D-02 0.657D-03-0.129D-01-0.303D-01 0.337D-01
 Coeff-Com:  0.242D+00 0.764D+00
 Coeff:     -0.266D-03 0.326D-02 0.657D-03-0.129D-01-0.303D-01 0.337D-01
 Coeff:      0.242D+00 0.764D+00
 Gap=     0.305 Goal=   None    Shift=    0.000
 Gap=     0.287 Goal=   None    Shift=    0.000
 RMSDP=8.98D-08 MaxDP=3.39D-06 DE=-4.18D-09 OVMax= 6.97D-06

 Cycle   9  Pass 1  IDiag  1:
 E= -193.628531431341     Delta-E=       -0.000000000167 Rises=F Damp=F
 DIIS: error= 2.38D-07 at cycle   9 NSaved=   9.
 NSaved= 9 IEnMin= 9 EnMin= -193.628531431341     IErMin= 9 ErrMin= 2.38D-07
 ErrMax= 2.38D-07  0.00D+00 EMaxC= 1.00D-01 BMatC= 6.56D-11 BMatP= 5.13D-10
 IDIUse=1 WtCom= 1.00D+00 WtEn= 0.00D+00
 Coeff-Com: -0.105D-04-0.411D-03 0.136D-02 0.443D-02-0.550D-02-0.211D-01
 Coeff-Com: -0.332D-01 0.211D+00 0.843D+00
 Coeff:     -0.105D-04-0.411D-03 0.136D-02 0.443D-02-0.550D-02-0.211D-01
 Coeff:     -0.332D-01 0.211D+00 0.843D+00
 Gap=     0.305 Goal=   None    Shift=    0.000
 Gap=     0.287 Goal=   None    Shift=    0.000
 RMSDP=5.87D-08 MaxDP=3.66D-06 DE=-1.67D-10 OVMax= 3.00D-06

 Cycle  10  Pass 1  IDiag  1:
 E= -193.628531431370     Delta-E=       -0.000000000029 Rises=F Damp=F
 DIIS: error= 7.13D-08 at cycle  10 NSaved=  10.
 NSaved=10 IEnMin=10 EnMin= -193.628531431370     IErMin=10 ErrMin= 7.13D-08
 ErrMax= 7.13D-08  0.00D+00 EMaxC= 1.00D-01 BMatC= 6.50D-12 BMatP= 6.56D-11
 IDIUse=1 WtCom= 1.00D+00 WtEn= 0.00D+00
 Coeff-Com:  0.334D-04-0.488D-03 0.108D-03 0.244D-02 0.337D-02-0.774D-02
 Coeff-Com: -0.409D-01-0.649D-01 0.128D+00 0.980D+00
 Coeff:      0.334D-04-0.488D-03 0.108D-03 0.244D-02 0.337D-02-0.774D-02
 Coeff:     -0.409D-01-0.649D-01 0.128D+00 0.980D+00
 Gap=     0.305 Goal=   None    Shift=    0.000
 Gap=     0.287 Goal=   None    Shift=    0.000
 RMSDP=2.82D-08 MaxDP=1.84D-06 DE=-2.89D-11 OVMax= 1.69D-06

 Cycle  11  Pass 1  IDiag  1:
 E= -193.628531431376     Delta-E=       -0.000000000006 Rises=F Damp=F
 DIIS: error= 3.16D-08 at cycle  11 NSaved=  11.
 NSaved=11 IEnMin=11 EnMin= -193.628531431376     IErMin=11 ErrMin= 3.16D-08
 ErrMax= 3.16D-08  0.00D+00 EMaxC= 1.00D-01 BMatC= 5.68D-13 BMatP= 6.50D-12
 IDIUse=1 WtCom= 1.00D+00 WtEn= 0.00D+00
 Coeff-Com:  0.805D-07 0.630D-04-0.204D-03-0.593D-03 0.659D-03 0.296D-02
 Coeff-Com:  0.457D-02-0.164D-01-0.976D-01-0.680D-01 0.117D+01
 Coeff:      0.805D-07 0.630D-04-0.204D-03-0.593D-03 0.659D-03 0.296D-02
 Coeff:      0.457D-02-0.164D-01-0.976D-01-0.680D-01 0.117D+01
 Gap=     0.305 Goal=   None    Shift=    0.000
 Gap=     0.287 Goal=   None    Shift=    0.000
 RMSDP=6.90D-09 MaxDP=3.62D-07 DE=-6.14D-12 OVMax= 7.92D-07

 SCF Done:  E(UM062X) =  -193.628531431     A.U. after   11 cycles
            NFock= 11  Conv=0.69D-08     -V/T= 2.0037
 <Sx>= 0.0000 <Sy>= 0.0000 <Sz>= 0.5000 <S**2>= 0.7553 S= 0.5027
 <L.S>= 0.000000000000E+00
 KE= 1.929229179582D+02 PE=-7.054301798749D+02 EE= 1.921235036566D+02
 Annihilation of the first spin contaminant:
 S**2 before annihilation     0.7553,   after     0.7500
 Leave Link  502 at Sat Mar  9 14:54:23 2019, MaxMem=   671088640 cpu:             496.6 elap:              32.6
 (Enter /shared/centos7/gaussian/g16/l701.exe)
 ... and contract with generalized density number  0.
 Compute integral first derivatives.
 Leave Link  701 at Sat Mar  9 14:54:24 2019, MaxMem=   671088640 cpu:               5.9 elap:               0.3
 (Enter /shared/centos7/gaussian/g16/l702.exe)
 L702 exits ... SP integral derivatives will be done elsewhere.
 Leave Link  702 at Sat Mar  9 14:54:24 2019, MaxMem=   671088640 cpu:               0.4 elap:               0.0
