 Entering Gaussian System, Link 0=g16
 Input=OJWHOIQFDAGZNF-UHFFFAOYSA-N_GeoFreq_a1.com
 Output=OJWHOIQFDAGZNF-UHFFFAOYSA-N_GeoFreq_a1.log
 Initial command:
 /shared/centos7/gaussian/g16/l1.exe "/scratch/underkoffler.c/gaussian_scratch/Gau-6354.inp" -scrdir="/scratch/underkoffler.c/gaussian_scratch/"
 Entering Link 1 = /shared/centos7/gaussian/g16/l1.exe PID=      6355.
  
 Copyright (c) 1988,1990,1992,1993,1995,1998,2003,2009,2016,
            Gaussian, Inc.  All Rights Reserved.
  
 This is part of the Gaussian(R) 16 program.  It is based on
 the Gaussian(R) 09 system (copyright 2009, Gaussian, Inc.),
 the Gaussian(R) 03 system (copyright 2003, Gaussian, Inc.),
 the Gaussian(R) 98 system (copyright 1998, Gaussian, Inc.),
 the Gaussian(R) 94 system (copyright 1995, Gaussian, Inc.),
 the Gaussian 92(TM) system (copyright 1992, Gaussian, Inc.),
 the Gaussian 90(TM) system (copyright 1990, Gaussian, Inc.),
 the Gaussian 88(TM) system (copyright 1988, Gaussian, Inc.),
 the Gaussian 86(TM) system (copyright 1986, Carnegie Mellon
 University), and the Gaussian 82(TM) system (copyright 1983,
 Carnegie Mellon University). Gaussian is a federally registered
 trademark of Gaussian, Inc.
  
 This software contains proprietary and confidential information,
 including trade secrets, belonging to Gaussian, Inc.
  
 This software is provided under written license and may be
 used, copied, transmitted, or stored only in accord with that
 written license.
  
 The following legend is applicable only to US Government
 contracts under FAR:
  
                    RESTRICTED RIGHTS LEGEND
  
 Use, reproduction and disclosure by the US Government is
 subject to restrictions as set forth in subparagraphs (a)
 and (c) of the Commercial Computer Software - Restricted
 Rights clause in FAR 52.227-19.
  
 Gaussian, Inc.
 340 Quinnipiac St., Bldg. 40, Wallingford CT 06492
  
  
 ---------------------------------------------------------------
 Warning -- This program may not be used in any manner that
 competes with the business of Gaussian, Inc. or will provide
 assistance to any competitor of Gaussian, Inc.  The licensee
 of this program is prohibited from giving any competitor of
 Gaussian, Inc. access to this program.  By using this program,
 the user acknowledges that Gaussian, Inc. is engaged in the
 business of creating and licensing software in the field of
 computational chemistry and represents and warrants to the
 licensee that it is not a competitor of Gaussian, Inc. and that
 it will not use this program in any manner prohibited above.
 ---------------------------------------------------------------
  

 Cite this work as:
 Gaussian 16, Revision A.03,
 M. J. Frisch, G. W. Trucks, H. B. Schlegel, G. E. Scuseria, 
 M. A. Robb, J. R. Cheeseman, G. Scalmani, V. Barone, 
 G. A. Petersson, H. Nakatsuji, X. Li, M. Caricato, A. V. Marenich, 
 J. Bloino, B. G. Janesko, R. Gomperts, B. Mennucci, H. P. Hratchian, 
 J. V. Ortiz, A. F. Izmaylov, J. L. Sonnenberg, D. Williams-Young, 
 F. Ding, F. Lipparini, F. Egidi, J. Goings, B. Peng, A. Petrone, 
 T. Henderson, D. Ranasinghe, V. G. Zakrzewski, J. Gao, N. Rega, 
 G. Zheng, W. Liang, M. Hada, M. Ehara, K. Toyota, R. Fukuda, 
 J. Hasegawa, M. Ishida, T. Nakajima, Y. Honda, O. Kitao, H. Nakai, 
 T. Vreven, K. Throssell, J. A. Montgomery, Jr., J. E. Peralta, 
 F. Ogliaro, M. J. Bearpark, J. J. Heyd, E. N. Brothers, K. N. Kudin, 
 V. N. Staroverov, T. A. Keith, R. Kobayashi, J. Normand, 
 K. Raghavachari, A. P. Rendell, J. C. Burant, S. S. Iyengar, 
 J. Tomasi, M. Cossi, J. M. Millam, M. Klene, C. Adamo, R. Cammi, 
 J. W. Ochterski, R. L. Martin, K. Morokuma, O. Farkas, 
 J. B. Foresman, and D. J. Fox, Gaussian, Inc., Wallingford CT, 2016.
 
 ******************************************
 Gaussian 16:  EM64L-G16RevA.03 25-Dec-2016
                 9-Mar-2019 
 ******************************************
 %nprocshared=20
 Will use up to   20 processors via shared memory.
 %mem=5GB
 ----------------------------------------------------------------------
 #p m062x/6-311+g(2df,2p) opt=(calcfc,verytight,gdiis,maxcycles=900) fr
 eq iop(7/33=1,2/16=3)
 ----------------------------------------------------------------------

 Warning!  Use of Opt=GDIIS is deprecated since it is seldom a good choice.

 1/6=900,7=1,10=4,18=20,19=11,26=3,38=1/1,3;
 2/9=110,12=2,16=3,17=6,18=5,40=1/2;
 3/5=4,6=6,7=214,11=2,25=1,30=1,71=2,74=-55,140=1/1,2,3;
 4//1;
 5/5=2,38=5/2;
 8/6=4,10=90,11=11/1;
 11/6=1,8=1,9=11,15=111,16=1/1,2,10;
 10/6=1,13=1/2;
 6/7=2,8=2,9=2,10=2,28=1/1;
 7/10=1,18=20,25=1,33=1/1,2,3,16;
 1/6=900,7=1,10=4,18=20,19=11,26=3/3(2);
 2/9=110,16=3/2;
 99//99;
 2/9=110,16=3/2;
 3/5=4,6=6,7=214,11=2,25=1,30=1,71=1,74=-55/1,2,3;
 4/5=5,16=3,69=1/1;
 5/5=2,38=5/2;
 7/33=1/1,2,3,16;
 1/6=900,7=1,18=20,19=11,26=3/3(-5);
 2/9=110,16=3/2;
 6/7=2,8=2,9=2,10=2,19=2,28=1/1;
 99/9=1/99;
 Leave Link    1 at Sat Mar  9 02:31:15 2019, MaxMem=   671088640 cpu:              30.8 elap:               1.6
 (Enter /shared/centos7/gaussian/g16/l101.exe)
 ------------------------------
 Gaussian input prepared by ASE
 ------------------------------
 Symbolic Z-matrix:
 Charge =  0 Multiplicity = 2
 O                     1.79699  -0.24259  -0.43729 
 O                     0.59543   0.78519   1.26236 
 C                     0.50873   1.77328  -0.95463 
 C                     1.64312   2.28306  -1.80466 
 C                     0.92409   0.7853    0.09639 
 C                     2.12962  -1.2228    0.52818 
 H                    -0.01791   2.63147  -0.46508 
 H                    -0.2486    1.28218  -1.62526 
 H                     2.39836   2.82515  -1.18333 
 H                     2.16089   1.43874  -2.32465 
 H                     1.26018   2.99135  -2.58132 
 H                     2.10764  -0.82961   1.5768 
 H                     3.04886  -1.77358   0.2121 
 
 Add atom      6 valence  3 ND=      2 dihedral       1      6     12     13
 ITRead=  0  0  0  0  0  0  0  0  0  0  0  0  0
 MicOpt= -1 -1 -1 -1 -1 -1 -1 -1 -1 -1 -1 -1 -1
 NAtoms=     13 NQM=       13 NQMF=       0 NMMI=      0 NMMIF=      0
                NMic=       0 NMicF=      0.
                    Isotopes and Nuclear Properties:
 (Nuclear quadrupole moments (NQMom) in fm**2, nuclear magnetic moments (NMagM)
  in nuclear magnetons)

  Atom         1           2           3           4           5           6           7           8           9          10
 IAtWgt=          16          16          12          12          12          12           1           1           1           1
 AtmWgt=  15.9949146  15.9949146  12.0000000  12.0000000  12.0000000  12.0000000   1.0078250   1.0078250   1.0078250   1.0078250
 NucSpn=           0           0           0           0           0           0           1           1           1           1
 AtZEff=  -0.0000000  -0.0000000  -0.0000000  -0.0000000  -0.0000000  -0.0000000  -0.0000000  -0.0000000  -0.0000000  -0.0000000
 NQMom=    0.0000000   0.0000000   0.0000000   0.0000000   0.0000000   0.0000000   0.0000000   0.0000000   0.0000000   0.0000000
 NMagM=    0.0000000   0.0000000   0.0000000   0.0000000   0.0000000   0.0000000   2.7928460   2.7928460   2.7928460   2.7928460
 AtZNuc=   8.0000000   8.0000000   6.0000000   6.0000000   6.0000000   6.0000000   1.0000000   1.0000000   1.0000000   1.0000000

  Atom        11          12          13
 IAtWgt=           1           1           1
 AtmWgt=   1.0078250   1.0078250   1.0078250
 NucSpn=           1           1           1
 AtZEff=  -0.0000000  -0.0000000  -0.0000000
 NQMom=    0.0000000   0.0000000   0.0000000
 NMagM=    2.7928460   2.7928460   2.7928460
 AtZNuc=   1.0000000   1.0000000   1.0000000
 Leave Link  101 at Sat Mar  9 02:31:15 2019, MaxMem=   671088640 cpu:               4.8 elap:               0.3
 (Enter /shared/centos7/gaussian/g16/l103.exe)

 GradGradGradGradGradGradGradGradGradGradGradGradGradGradGradGradGradGrad
 Berny optimization.
 Initialization pass.
                           ----------------------------
                           !    Initial Parameters    !
                           ! (Angstroms and Degrees)  !
 --------------------------                            --------------------------
 ! Name  Definition              Value          Derivative Info.                !
 --------------------------------------------------------------------------------
 ! R1    R(1,5)                  1.4503         calculate D2E/DX2 analytically  !
 ! R2    R(1,6)                  1.4155         calculate D2E/DX2 analytically  !
 ! R3    R(2,5)                  1.2114         calculate D2E/DX2 analytically  !
 ! R4    R(3,4)                  1.5064         calculate D2E/DX2 analytically  !
 ! R5    R(3,5)                  1.5011         calculate D2E/DX2 analytically  !
 ! R6    R(3,7)                  1.1196         calculate D2E/DX2 analytically  !
 ! R7    R(3,8)                  1.1245         calculate D2E/DX2 analytically  !
 ! R8    R(4,9)                  1.1182         calculate D2E/DX2 analytically  !
 ! R9    R(4,10)                 1.1186         calculate D2E/DX2 analytically  !
 ! R10   R(4,11)                 1.1187         calculate D2E/DX2 analytically  !
 ! R11   R(6,12)                 1.1201         calculate D2E/DX2 analytically  !
 ! R12   R(6,13)                 1.1173         calculate D2E/DX2 analytically  !
 ! A1    A(5,1,6)              112.4115         calculate D2E/DX2 analytically  !
 ! A2    A(4,3,5)              114.1701         calculate D2E/DX2 analytically  !
 ! A3    A(4,3,7)              109.9716         calculate D2E/DX2 analytically  !
 ! A4    A(4,3,8)              108.5685         calculate D2E/DX2 analytically  !
 ! A5    A(5,3,7)              109.1781         calculate D2E/DX2 analytically  !
 ! A6    A(5,3,8)              108.4504         calculate D2E/DX2 analytically  !
 ! A7    A(7,3,8)              106.1849         calculate D2E/DX2 analytically  !
 ! A8    A(3,4,9)              111.0474         calculate D2E/DX2 analytically  !
 ! A9    A(3,4,10)             110.8194         calculate D2E/DX2 analytically  !
 ! A10   A(3,4,11)             110.3789         calculate D2E/DX2 analytically  !
 ! A11   A(9,4,10)             108.1546         calculate D2E/DX2 analytically  !
 ! A12   A(9,4,11)             108.0612         calculate D2E/DX2 analytically  !
 ! A13   A(10,4,11)            108.2764         calculate D2E/DX2 analytically  !
 ! A14   A(1,5,2)              121.1584         calculate D2E/DX2 analytically  !
 ! A15   A(1,5,3)              112.0478         calculate D2E/DX2 analytically  !
 ! A16   A(2,5,3)              126.791          calculate D2E/DX2 analytically  !
 ! A17   A(1,6,12)             113.0073         calculate D2E/DX2 analytically  !
 ! A18   A(1,6,13)             109.9843         calculate D2E/DX2 analytically  !
 ! A19   A(12,6,13)            117.0028         calculate D2E/DX2 analytically  !
 ! D1    D(6,1,5,2)              2.9356         calculate D2E/DX2 analytically  !
 ! D2    D(6,1,5,3)           -176.4954         calculate D2E/DX2 analytically  !
 ! D3    D(5,1,6,12)           -27.6001         calculate D2E/DX2 analytically  !
 ! D4    D(5,1,6,13)          -160.3888         calculate D2E/DX2 analytically  !
 ! D5    D(5,3,4,9)            -61.6803         calculate D2E/DX2 analytically  !
 ! D6    D(5,3,4,10)            58.5517         calculate D2E/DX2 analytically  !
 ! D7    D(5,3,4,11)           178.4965         calculate D2E/DX2 analytically  !
 ! D8    D(7,3,4,9)             61.4269         calculate D2E/DX2 analytically  !
 ! D9    D(7,3,4,10)          -178.3411         calculate D2E/DX2 analytically  !
 ! D10   D(7,3,4,11)           -58.3963         calculate D2E/DX2 analytically  !
 ! D11   D(8,3,4,9)            177.2084         calculate D2E/DX2 analytically  !
 ! D12   D(8,3,4,10)           -62.5596         calculate D2E/DX2 analytically  !
 ! D13   D(8,3,4,11)            57.3851         calculate D2E/DX2 analytically  !
 ! D14   D(4,3,5,1)            -47.1831         calculate D2E/DX2 analytically  !
 ! D15   D(4,3,5,2)            133.4249         calculate D2E/DX2 analytically  !
 ! D16   D(7,3,5,1)           -170.7194         calculate D2E/DX2 analytically  !
 ! D17   D(7,3,5,2)              9.8885         calculate D2E/DX2 analytically  !
 ! D18   D(8,3,5,1)             73.9938         calculate D2E/DX2 analytically  !
 ! D19   D(8,3,5,2)           -105.3982         calculate D2E/DX2 analytically  !
 ! D20   D(1,6,12,13)         -129.2801         calculate D2E/DX2 analytically  !
 --------------------------------------------------------------------------------
 Trust Radius=3.00D-01 FncErr=1.00D-07 GrdErr=1.00D-06 EigMax=2.50D+02 EigMin=1.00D-04
 Number of steps in this run=    100 maximum allowed number of steps=    100.
 GradGradGradGradGradGradGradGradGradGradGradGradGradGradGradGradGradGrad

 Leave Link  103 at Sat Mar  9 02:31:15 2019, MaxMem=   671088640 cpu:               0.1 elap:               0.0
 (Enter /shared/centos7/gaussian/g16/l202.exe)
                          Input orientation:                          
 ---------------------------------------------------------------------
 Center     Atomic      Atomic             Coordinates (Angstroms)
 Number     Number       Type             X           Y           Z
 ---------------------------------------------------------------------
      1          8           0        1.796988   -0.242595   -0.437287
      2          8           0        0.595425    0.785192    1.262362
      3          6           0        0.508728    1.773280   -0.954633
      4          6           0        1.643123    2.283064   -1.804661
      5          6           0        0.924092    0.785304    0.096388
      6          6           0        2.129618   -1.222798    0.528177
      7          1           0       -0.017915    2.631473   -0.465083
      8          1           0       -0.248599    1.282177   -1.625258
      9          1           0        2.398364    2.825146   -1.183334
     10          1           0        2.160892    1.438738   -2.324647
     11          1           0        1.260180    2.991352   -2.581317
     12          1           0        2.107637   -0.829611    1.576805
     13          1           0        3.048857   -1.773578    0.212098
 ---------------------------------------------------------------------
                    Distance matrix (angstroms):
                    1          2          3          4          5
     1  O    0.000000
     2  O    2.321402   0.000000
     3  C    2.447654   2.428765   0.000000
     4  C    2.876167   3.570423   1.506412   0.000000
     5  C    1.450287   1.211411   1.501089   2.524733   0.000000
     6  C    1.415472   2.631502   3.715171   4.239089   2.381640
     7  H    3.399251   2.601731   1.119601   2.162153   2.147315
     8  H    2.814361   3.049216   1.124484   2.147690   2.141529
     9  H    3.213918   3.659703   2.174729   1.118164   2.823494
    10  H    2.553710   3.967927   2.172212   1.118640   2.796080
    11  H    3.917070   4.481396   2.166675   1.118710   3.485643
    12  H    2.120768   2.234558   3.967333   4.619397   2.490053
    13  H    2.081535   3.697254   4.515940   4.743390   3.328047
                    6          7          8          9         10
     6  C    0.000000
     7  H    4.522595   0.000000
     8  H    4.070392   1.794386   0.000000
     9  H    4.403106   2.528200   3.095555   0.000000
    10  H    3.901712   3.102869   2.513823   1.811384   0.000000
    11  H    5.308854   2.498297   2.472194   1.810371   1.813222
    12  H    1.120134   4.546028   4.501633   4.589132   4.513267
    13  H    1.117258   5.410003   4.856617   4.849601   4.188381
                   11         12         13
    11  H    0.000000
    12  H    5.710335   0.000000
    13  H    5.805781   1.907719   0.000000
 Stoichiometry    C4H7O2(2)
 Framework group  C1[X(C4H7O2)]
 Deg. of freedom    33
 Full point group                 C1      NOp   1
 Largest Abelian subgroup         C1      NOp   1
 Largest concise Abelian subgroup C1      NOp   1
                         Standard orientation:                         
 ---------------------------------------------------------------------
 Center     Atomic      Atomic             Coordinates (Angstroms)
 Number     Number       Type             X           Y           Z
 ---------------------------------------------------------------------
      1          8           0        0.762921   -0.776782    0.222203
      2          8           0        0.733650    1.499063   -0.234504
      3          6           0       -1.363298    0.427815    0.360589
      4          6           0       -2.061283   -0.721094   -0.319192
      5          6           0        0.108111    0.508846    0.074831
      6          6           0        2.163137   -0.694172    0.032124
      7          1           0       -1.847932    1.394762    0.071367
      8          1           0       -1.505018    0.326136    1.471464
      9          1           0       -1.989121   -0.633305   -1.431566
     10          1           0       -1.607054   -1.697497   -0.016422
     11          1           0       -3.145022   -0.737411   -0.042142
     12          1           0        2.464287    0.146245   -0.644418
     13          1           0        2.577295   -1.705538   -0.199986
 ---------------------------------------------------------------------
 Rotational constants (GHZ):           6.2449380           2.6390763           1.9890971
 Leave Link  202 at Sat Mar  9 02:31:15 2019, MaxMem=   671088640 cpu:               0.2 elap:               0.0
 (Enter /shared/centos7/gaussian/g16/l301.exe)
 Standard basis: 6-311+G(2df,2p) (5D, 7F)
 Ernie: Thresh=  0.10000D-02 Tol=  0.10000D-05 Strict=F.
 There are   297 symmetry adapted cartesian basis functions of A   symmetry.
 There are   267 symmetry adapted basis functions of A   symmetry.
   267 basis functions,   389 primitive gaussians,   297 cartesian basis functions
    24 alpha electrons       23 beta electrons
       nuclear repulsion energy       233.7620420752 Hartrees.
 IExCor= 4336 DFT=T Ex+Corr=M062X ExCW=0 ScaHFX=  0.540000
 ScaDFX=  1.000000  1.000000  1.000000  1.000000 ScalE2=  1.000000  1.000000
 IRadAn=      5 IRanWt=     -1 IRanGd=            0 ICorTp=0 IEmpDi=  4
 NAtoms=   13 NActive=   13 NUniq=   13 SFac= 1.00D+00 NAtFMM=   60 NAOKFM=F Big=F
 Integral buffers will be    131072 words long.
 Raffenetti 2 integral format.
 Two-electron integral symmetry is turned on.
 Leave Link  301 at Sat Mar  9 02:31:15 2019, MaxMem=   671088640 cpu:               0.9 elap:               0.1
 (Enter /shared/centos7/gaussian/g16/l302.exe)
 NPDir=0 NMtPBC=     1 NCelOv=     1 NCel=       1 NClECP=     1 NCelD=      1
         NCelK=      1 NCelE2=     1 NClLst=     1 CellRange=     0.0.
 One-electron integrals computed using PRISM.
 One-electron integral symmetry used in STVInt
 NBasis=   267 RedAO= T EigKep=  2.98D-05  NBF=   267
 NBsUse=   267 1.00D-06 EigRej= -1.00D+00 NBFU=   267
 Precomputing XC quadrature grid using
 IXCGrd= 4 IRadAn=           5 IRanWt=          -1 IRanGd=           0 AccXCQ= 0.00D+00.
 Generated NRdTot=       0 NPtTot=           0 NUsed=           0 NTot=          32
 NSgBfM=   297   297   297   297   297 MxSgAt=    13 MxSgA2=    13.
 Leave Link  302 at Sat Mar  9 02:31:16 2019, MaxMem=   671088640 cpu:               5.2 elap:               0.3
 (Enter /shared/centos7/gaussian/g16/l303.exe)
 DipDrv:  MaxL=1.
 Leave Link  303 at Sat Mar  9 02:31:16 2019, MaxMem=   671088640 cpu:               0.5 elap:               0.0
 (Enter /shared/centos7/gaussian/g16/l401.exe)
 ExpMin= 4.38D-02 ExpMax= 8.59D+03 ExpMxC= 1.30D+03 IAcc=3 IRadAn=         5 AccDes= 0.00D+00
 Harris functional with IExCor= 1009 and IRadAn=       5 diagonalized for initial guess.
 HarFok:  IExCor= 1009 AccDes= 0.00D+00 IRadAn=         5 IDoV= 1 UseB2=F ITyADJ=14
 ICtDFT=  3500011 ScaDFX=  1.000000  1.000000  1.000000  1.000000
 FoFCou: FMM=F IPFlag=           0 FMFlag=      100000 FMFlg1=           0
         NFxFlg=           0 DoJE=T BraDBF=F KetDBF=T FulRan=T
         wScrn=  0.000000 ICntrl=       500 IOpCl=  0 I1Cent=   200000004 NGrid=           0
         NMat0=    1 NMatS0=      1 NMatT0=    0 NMatD0=    1 NMtDS0=    0 NMtDT0=    0
 Petite list used in FoFCou.
 Harris En= -306.844066789636    
 JPrj=0 DoOrth=F DoCkMO=F.
 Initial guess <Sx>= 0.0000 <Sy>= 0.0000 <Sz>= 0.5000 <S**2>= 0.7500 S= 0.5000
 Leave Link  401 at Sat Mar  9 02:31:16 2019, MaxMem=   671088640 cpu:              14.8 elap:               0.8
 (Enter /shared/centos7/gaussian/g16/l502.exe)
 Integral symmetry usage will be decided dynamically.
 UHF open shell SCF:
 Using DIIS extrapolation, IDIIS=  1040.
 NGot=   671088640 LenX=   670903575 LenY=   670814925
 Requested convergence on RMS density matrix=1.00D-08 within 128 cycles.
 Requested convergence on MAX density matrix=1.00D-06.
 Requested convergence on             energy=1.00D-06.
 No special actions if energy rises.
 Fock matrices will be formed incrementally for  20 cycles.

 Cycle   1  Pass 1  IDiag  1:
 FoFJK:  IHMeth= 1 ICntrl=       0 DoSepK=F KAlg= 0 I1Cent=           0 FoldK=F
 IRaf= 960000000 NMat=       1 IRICut=       1 DoRegI=T DoRafI=F ISym2E= 0 IDoP0=0 IntGTp=1.
 FoFCou: FMM=F IPFlag=           0 FMFlag=      100000 FMFlg1=           0
         NFxFlg=           0 DoJE=F BraDBF=F KetDBF=F FulRan=T
         wScrn=  0.000000 ICntrl=         0 IOpCl=  1 I1Cent=           0 NGrid=           0
         NMat0=    1 NMatS0=      1 NMatT0=    0 NMatD0=    1 NMtDS0=    0 NMtDT0=    0
 Symmetry not used in FoFCou.
 E= -306.810679503400    
 DIIS: error= 1.89D-02 at cycle   1 NSaved=   1.
 NSaved= 1 IEnMin= 1 EnMin= -306.810679503400     IErMin= 1 ErrMin= 1.89D-02
 ErrMax= 1.89D-02  0.00D+00 EMaxC= 1.00D-01 BMatC= 9.80D-01 BMatP= 9.80D-01
 IDIUse=3 WtCom= 8.11D-01 WtEn= 1.89D-01
 Coeff-Com:  0.100D+01
 Coeff-En:   0.100D+01
 Coeff:      0.100D+01
 Gap=     0.280 Goal=   None    Shift=    0.000
 Gap=     0.271 Goal=   None    Shift=    0.000
 GapD=    0.271 DampG=1.000 DampE=0.500 DampFc=0.5000 IDamp=-1.
 Damping current iteration by 5.00D-01
 RMSDP=2.45D-03 MaxDP=1.04D-01              OVMax= 1.67D-01

 Cycle   2  Pass 1  IDiag  1:
 RMSU=  1.21D-03    CP:  9.82D-01
 E= -306.891770817336     Delta-E=       -0.081091313936 Rises=F Damp=T
 DIIS: error= 6.25D-03 at cycle   2 NSaved=   2.
 NSaved= 2 IEnMin= 2 EnMin= -306.891770817336     IErMin= 2 ErrMin= 6.25D-03
 ErrMax= 6.25D-03  0.00D+00 EMaxC= 1.00D-01 BMatC= 9.56D-02 BMatP= 9.80D-01
 IDIUse=3 WtCom= 9.38D-01 WtEn= 6.25D-02
 Coeff-Com:  0.131D-01 0.987D+00
 Coeff-En:   0.410D-01 0.959D+00
 Coeff:      0.148D-01 0.985D+00
 Gap=     0.270 Goal=   None    Shift=    0.000
 Gap=     0.344 Goal=   None    Shift=    0.000
 RMSDP=9.39D-04 MaxDP=6.21D-02 DE=-8.11D-02 OVMax= 1.11D-01

 Cycle   3  Pass 1  IDiag  1:
 RMSU=  9.10D-04    CP:  9.60D-01  9.74D-01
 E= -306.978103729688     Delta-E=       -0.086332912352 Rises=F Damp=F
 DIIS: error= 6.49D-03 at cycle   3 NSaved=   3.
 NSaved= 3 IEnMin= 3 EnMin= -306.978103729688     IErMin= 2 ErrMin= 6.25D-03
 ErrMax= 6.49D-03  0.00D+00 EMaxC= 1.00D-01 BMatC= 7.02D-02 BMatP= 9.56D-02
 IDIUse=3 WtCom= 9.35D-01 WtEn= 6.49D-02
 Coeff-Com: -0.792D-01 0.486D+00 0.593D+00
 Coeff-En:   0.000D+00 0.000D+00 0.100D+01
 Coeff:     -0.740D-01 0.454D+00 0.620D+00
 Gap=     0.282 Goal=   None    Shift=    0.000
 Gap=     0.326 Goal=   None    Shift=    0.000
 RMSDP=4.81D-04 MaxDP=3.68D-02 DE=-8.63D-02 OVMax= 4.94D-02

 Cycle   4  Pass 1  IDiag  1:
 RMSU=  4.47D-04    CP:  9.55D-01  1.08D+00  8.90D-01
 E= -306.988993764793     Delta-E=       -0.010890035105 Rises=F Damp=F
 DIIS: error= 2.57D-03 at cycle   4 NSaved=   4.
 NSaved= 4 IEnMin= 4 EnMin= -306.988993764793     IErMin= 4 ErrMin= 2.57D-03
 ErrMax= 2.57D-03  0.00D+00 EMaxC= 1.00D-01 BMatC= 1.29D-02 BMatP= 7.02D-02
 IDIUse=3 WtCom= 9.74D-01 WtEn= 2.57D-02
 Coeff-Com: -0.342D-01 0.803D-01 0.333D+00 0.621D+00
 Coeff-En:   0.000D+00 0.000D+00 0.138D+00 0.862D+00
 Coeff:     -0.333D-01 0.783D-01 0.328D+00 0.627D+00
 Gap=     0.282 Goal=   None    Shift=    0.000
 Gap=     0.326 Goal=   None    Shift=    0.000
 RMSDP=1.50D-04 MaxDP=5.37D-03 DE=-1.09D-02 OVMax= 1.22D-02

 Cycle   5  Pass 1  IDiag  1:
 RMSU=  9.74D-05    CP:  9.53D-01  1.06D+00  9.65D-01  8.09D-01
 E= -306.991602780565     Delta-E=       -0.002609015772 Rises=F Damp=F
 DIIS: error= 4.77D-04 at cycle   5 NSaved=   5.
 NSaved= 5 IEnMin= 5 EnMin= -306.991602780565     IErMin= 5 ErrMin= 4.77D-04
 ErrMax= 4.77D-04  0.00D+00 EMaxC= 1.00D-01 BMatC= 3.66D-04 BMatP= 1.29D-02
 IDIUse=3 WtCom= 9.95D-01 WtEn= 4.77D-03
 Coeff-Com: -0.557D-02 0.186D-02 0.742D-01 0.195D+00 0.735D+00
 Coeff-En:   0.000D+00 0.000D+00 0.000D+00 0.000D+00 0.100D+01
 Coeff:     -0.555D-02 0.185D-02 0.738D-01 0.194D+00 0.736D+00
 Gap=     0.282 Goal=   None    Shift=    0.000
 Gap=     0.327 Goal=   None    Shift=    0.000
 RMSDP=4.33D-05 MaxDP=2.65D-03 DE=-2.61D-03 OVMax= 6.63D-03

 Cycle   6  Pass 1  IDiag  1:
 RMSU=  3.77D-05    CP:  9.53D-01  1.06D+00  9.77D-01  8.40D-01  1.11D+00
 E= -306.991747648621     Delta-E=       -0.000144868056 Rises=F Damp=F
 DIIS: error= 3.69D-04 at cycle   6 NSaved=   6.
 NSaved= 6 IEnMin= 6 EnMin= -306.991747648621     IErMin= 6 ErrMin= 3.69D-04
 ErrMax= 3.69D-04  0.00D+00 EMaxC= 1.00D-01 BMatC= 1.57D-04 BMatP= 3.66D-04
 IDIUse=3 WtCom= 9.96D-01 WtEn= 3.69D-03
 Coeff-Com:  0.589D-02-0.203D-01-0.497D-01-0.796D-01 0.337D+00 0.806D+00
 Coeff-En:   0.000D+00 0.000D+00 0.000D+00 0.000D+00 0.000D+00 0.100D+01
 Coeff:      0.587D-02-0.202D-01-0.495D-01-0.793D-01 0.336D+00 0.807D+00
 Gap=     0.284 Goal=   None    Shift=    0.000
 Gap=     0.328 Goal=   None    Shift=    0.000
 RMSDP=3.44D-05 MaxDP=1.25D-03 DE=-1.45D-04 OVMax= 4.45D-03

 Cycle   7  Pass 1  IDiag  1:
 RMSU=  2.14D-05    CP:  9.53D-01  1.06D+00  9.87D-01  8.59D-01  1.33D+00
                    CP:  1.25D+00
 E= -306.991813459643     Delta-E=       -0.000065811022 Rises=F Damp=F
 DIIS: error= 1.14D-04 at cycle   7 NSaved=   7.
 NSaved= 7 IEnMin= 7 EnMin= -306.991813459643     IErMin= 7 ErrMin= 1.14D-04
 ErrMax= 1.14D-04  0.00D+00 EMaxC= 1.00D-01 BMatC= 2.12D-05 BMatP= 1.57D-04
 IDIUse=3 WtCom= 9.99D-01 WtEn= 1.14D-03
 Coeff-Com:  0.389D-02-0.749D-02-0.389D-01-0.922D-01-0.743D-01 0.257D+00
 Coeff-Com:  0.952D+00
 Coeff-En:   0.000D+00 0.000D+00 0.000D+00 0.000D+00 0.000D+00 0.000D+00
 Coeff-En:   0.100D+01
 Coeff:      0.388D-02-0.748D-02-0.389D-01-0.921D-01-0.742D-01 0.257D+00
 Coeff:      0.952D+00
 Gap=     0.285 Goal=   None    Shift=    0.000
 Gap=     0.328 Goal=   None    Shift=    0.000
 RMSDP=2.23D-05 MaxDP=1.08D-03 DE=-6.58D-05 OVMax= 3.07D-03

 Cycle   8  Pass 1  IDiag  1:
 RMSU=  9.23D-06    CP:  9.53D-01  1.06D+00  9.91D-01  8.73D-01  1.48D+00
                    CP:  1.51D+00  1.28D+00
 E= -306.991828411131     Delta-E=       -0.000014951487 Rises=F Damp=F
 DIIS: error= 3.26D-05 at cycle   8 NSaved=   8.
 NSaved= 8 IEnMin= 8 EnMin= -306.991828411131     IErMin= 8 ErrMin= 3.26D-05
 ErrMax= 3.26D-05  0.00D+00 EMaxC= 1.00D-01 BMatC= 2.50D-06 BMatP= 2.12D-05
 IDIUse=1 WtCom= 1.00D+00 WtEn= 0.00D+00
 Coeff-Com:  0.239D-03 0.482D-03-0.413D-02-0.159D-01-0.619D-01-0.271D-01
 Coeff-Com:  0.286D+00 0.822D+00
 Coeff:      0.239D-03 0.482D-03-0.413D-02-0.159D-01-0.619D-01-0.271D-01
 Coeff:      0.286D+00 0.822D+00
 Gap=     0.285 Goal=   None    Shift=    0.000
 Gap=     0.328 Goal=   None    Shift=    0.000
 RMSDP=5.10D-06 MaxDP=4.68D-04 DE=-1.50D-05 OVMax= 6.01D-04

 Cycle   9  Pass 1  IDiag  1:
 RMSU=  2.67D-06    CP:  9.53D-01  1.06D+00  9.91D-01  8.70D-01  1.49D+00
                    CP:  1.57D+00  1.43D+00  1.02D+00
 E= -306.991829512961     Delta-E=       -0.000001101831 Rises=F Damp=F
 DIIS: error= 8.22D-06 at cycle   9 NSaved=   9.
 NSaved= 9 IEnMin= 9 EnMin= -306.991829512961     IErMin= 9 ErrMin= 8.22D-06
 ErrMax= 8.22D-06  0.00D+00 EMaxC= 1.00D-01 BMatC= 2.03D-07 BMatP= 2.50D-06
 IDIUse=1 WtCom= 1.00D+00 WtEn= 0.00D+00
 Coeff-Com: -0.553D-03 0.113D-02 0.463D-02 0.114D-01 0.287D-02-0.316D-01
 Coeff-Com: -0.102D+00 0.518D-01 0.106D+01
 Coeff:     -0.553D-03 0.113D-02 0.463D-02 0.114D-01 0.287D-02-0.316D-01
 Coeff:     -0.102D+00 0.518D-01 0.106D+01
 Gap=     0.285 Goal=   None    Shift=    0.000
 Gap=     0.328 Goal=   None    Shift=    0.000
 RMSDP=1.98D-06 MaxDP=1.31D-04 DE=-1.10D-06 OVMax= 2.08D-04

 Cycle  10  Pass 1  IDiag  1:
 RMSU=  1.01D-06    CP:  9.53D-01  1.06D+00  9.90D-01  8.69D-01  1.49D+00
                    CP:  1.58D+00  1.46D+00  1.14D+00  1.26D+00
 E= -306.991829648923     Delta-E=       -0.000000135961 Rises=F Damp=F
 DIIS: error= 3.14D-06 at cycle  10 NSaved=  10.
 NSaved=10 IEnMin=10 EnMin= -306.991829648923     IErMin=10 ErrMin= 3.14D-06
 ErrMax= 3.14D-06  0.00D+00 EMaxC= 1.00D-01 BMatC= 2.06D-08 BMatP= 2.03D-07
 IDIUse=1 WtCom= 1.00D+00 WtEn= 0.00D+00
 Coeff-Com: -0.364D-04 0.329D-04 0.319D-03 0.157D-02 0.455D-02 0.303D-03
 Coeff-Com: -0.234D-01-0.545D-01 0.341D-01 0.104D+01
 Coeff:     -0.364D-04 0.329D-04 0.319D-03 0.157D-02 0.455D-02 0.303D-03
 Coeff:     -0.234D-01-0.545D-01 0.341D-01 0.104D+01
 Gap=     0.285 Goal=   None    Shift=    0.000
 Gap=     0.328 Goal=   None    Shift=    0.000
 RMSDP=6.29D-07 MaxDP=2.81D-05 DE=-1.36D-07 OVMax= 1.22D-04

 Cycle  11  Pass 1  IDiag  1:
 RMSU=  3.73D-07    CP:  9.53D-01  1.06D+00  9.90D-01  8.69D-01  1.49D+00
                    CP:  1.58D+00  1.47D+00  1.15D+00  1.38D+00  1.30D+00
 E= -306.991829666216     Delta-E=       -0.000000017293 Rises=F Damp=F
 DIIS: error= 1.68D-06 at cycle  11 NSaved=  11.
 NSaved=11 IEnMin=11 EnMin= -306.991829666216     IErMin=11 ErrMin= 1.68D-06
 ErrMax= 1.68D-06  0.00D+00 EMaxC= 1.00D-01 BMatC= 5.90D-09 BMatP= 2.06D-08
 IDIUse=1 WtCom= 1.00D+00 WtEn= 0.00D+00
 Coeff-Com:  0.781D-04-0.179D-03-0.669D-03-0.135D-02 0.101D-02 0.493D-02
 Coeff-Com:  0.944D-02-0.230D-01-0.179D+00 0.284D+00 0.905D+00
 Coeff:      0.781D-04-0.179D-03-0.669D-03-0.135D-02 0.101D-02 0.493D-02
 Coeff:      0.944D-02-0.230D-01-0.179D+00 0.284D+00 0.905D+00
 Gap=     0.285 Goal=   None    Shift=    0.000
 Gap=     0.328 Goal=   None    Shift=    0.000
 RMSDP=3.13D-07 MaxDP=1.16D-05 DE=-1.73D-08 OVMax= 4.76D-05

 Cycle  12  Pass 1  IDiag  1:
 RMSU=  1.51D-07    CP:  9.53D-01  1.06D+00  9.90D-01  8.69D-01  1.49D+00
                    CP:  1.58D+00  1.47D+00  1.15D+00  1.42D+00  1.53D+00
                    CP:  1.25D+00
 E= -306.991829670065     Delta-E=       -0.000000003849 Rises=F Damp=F
 DIIS: error= 7.03D-07 at cycle  12 NSaved=  12.
 NSaved=12 IEnMin=12 EnMin= -306.991829670065     IErMin=12 ErrMin= 7.03D-07
 ErrMax= 7.03D-07  0.00D+00 EMaxC= 1.00D-01 BMatC= 8.13D-10 BMatP= 5.90D-09
 IDIUse=1 WtCom= 1.00D+00 WtEn= 0.00D+00
 Coeff-Com:  0.251D-04-0.471D-04-0.231D-03-0.615D-03-0.505D-03 0.122D-02
 Coeff-Com:  0.643D-02 0.476D-02-0.503D-01-0.110D+00 0.206D+00 0.944D+00
 Coeff:      0.251D-04-0.471D-04-0.231D-03-0.615D-03-0.505D-03 0.122D-02
 Coeff:      0.643D-02 0.476D-02-0.503D-01-0.110D+00 0.206D+00 0.944D+00
 Gap=     0.285 Goal=   None    Shift=    0.000
 Gap=     0.328 Goal=   None    Shift=    0.000
 RMSDP=1.30D-07 MaxDP=7.43D-06 DE=-3.85D-09 OVMax= 2.19D-05

 Cycle  13  Pass 1  IDiag  1:
 RMSU=  6.53D-08    CP:  9.53D-01  1.06D+00  9.90D-01  8.69D-01  1.49D+00
                    CP:  1.58D+00  1.47D+00  1.15D+00  1.43D+00  1.59D+00
                    CP:  1.44D+00  1.15D+00
 E= -306.991829670646     Delta-E=       -0.000000000581 Rises=F Damp=F
 DIIS: error= 2.52D-07 at cycle  13 NSaved=  13.
 NSaved=13 IEnMin=13 EnMin= -306.991829670646     IErMin=13 ErrMin= 2.52D-07
 ErrMax= 2.52D-07  0.00D+00 EMaxC= 1.00D-01 BMatC= 1.01D-10 BMatP= 8.13D-10
 IDIUse=1 WtCom= 1.00D+00 WtEn= 0.00D+00
 Coeff-Com: -0.814D-05 0.184D-04 0.673D-04 0.116D-03-0.192D-03-0.468D-03
 Coeff-Com: -0.694D-03 0.321D-02 0.186D-01-0.522D-01-0.113D+00 0.133D+00
 Coeff-Com:  0.101D+01
 Coeff:     -0.814D-05 0.184D-04 0.673D-04 0.116D-03-0.192D-03-0.468D-03
 Coeff:     -0.694D-03 0.321D-02 0.186D-01-0.522D-01-0.113D+00 0.133D+00
 Coeff:      0.101D+01
 Gap=     0.285 Goal=   None    Shift=    0.000
 Gap=     0.328 Goal=   None    Shift=    0.000
 RMSDP=4.75D-08 MaxDP=4.66D-06 DE=-5.81D-10 OVMax= 4.14D-06

 Cycle  14  Pass 1  IDiag  1:
 RMSU=  2.27D-08    CP:  9.53D-01  1.06D+00  9.90D-01  8.69D-01  1.49D+00
                    CP:  1.58D+00  1.47D+00  1.15D+00  1.43D+00  1.60D+00
                    CP:  1.50D+00  1.31D+00  1.22D+00
 E= -306.991829670722     Delta-E=       -0.000000000076 Rises=F Damp=F
 DIIS: error= 9.32D-08 at cycle  14 NSaved=  14.
 NSaved=14 IEnMin=14 EnMin= -306.991829670722     IErMin=14 ErrMin= 9.32D-08
 ErrMax= 9.32D-08  0.00D+00 EMaxC= 1.00D-01 BMatC= 1.19D-11 BMatP= 1.01D-10
 IDIUse=1 WtCom= 1.00D+00 WtEn= 0.00D+00
 Coeff-Com: -0.312D-05 0.644D-05 0.325D-04 0.732D-04 0.314D-04-0.183D-03
 Coeff-Com: -0.702D-03-0.200D-03 0.768D-02 0.758D-02-0.315D-01-0.909D-01
 Coeff-Com:  0.877D-01 0.102D+01
 Coeff:     -0.312D-05 0.644D-05 0.325D-04 0.732D-04 0.314D-04-0.183D-03
 Coeff:     -0.702D-03-0.200D-03 0.768D-02 0.758D-02-0.315D-01-0.909D-01
 Coeff:      0.877D-01 0.102D+01
 Gap=     0.285 Goal=   None    Shift=    0.000
 Gap=     0.328 Goal=   None    Shift=    0.000
 RMSDP=1.48D-08 MaxDP=9.13D-07 DE=-7.59D-11 OVMax= 1.58D-06

 Cycle  15  Pass 1  IDiag  1:
 RMSU=  9.55D-09    CP:  9.53D-01  1.06D+00  9.90D-01  8.69D-01  1.49D+00
                    CP:  1.58D+00  1.47D+00  1.15D+00  1.43D+00  1.60D+00
                    CP:  1.50D+00  1.33D+00  1.34D+00  1.20D+00
 E= -306.991829670727     Delta-E=       -0.000000000006 Rises=F Damp=F
 DIIS: error= 4.77D-08 at cycle  15 NSaved=  15.
 NSaved=15 IEnMin=15 EnMin= -306.991829670727     IErMin=15 ErrMin= 4.77D-08
 ErrMax= 4.77D-08  0.00D+00 EMaxC= 1.00D-01 BMatC= 2.54D-12 BMatP= 1.19D-11
 IDIUse=1 WtCom= 1.00D+00 WtEn= 0.00D+00
 Coeff-Com:  0.915D-06-0.205D-05-0.420D-05-0.762D-05 0.306D-04 0.262D-04
 Coeff-Com:  0.259D-04-0.453D-03-0.160D-02 0.806D-02 0.128D-01-0.334D-01
 Coeff-Com: -0.129D+00 0.137D+00 0.101D+01
 Coeff:      0.915D-06-0.205D-05-0.420D-05-0.762D-05 0.306D-04 0.262D-04
 Coeff:      0.259D-04-0.453D-03-0.160D-02 0.806D-02 0.128D-01-0.334D-01
 Coeff:     -0.129D+00 0.137D+00 0.101D+01
 Gap=     0.285 Goal=   None    Shift=    0.000
 Gap=     0.328 Goal=   None    Shift=    0.000
 RMSDP=6.83D-09 MaxDP=3.20D-07 DE=-5.68D-12 OVMax= 9.03D-07

 SCF Done:  E(UM062X) =  -306.991829671     A.U. after   15 cycles
            NFock= 15  Conv=0.68D-08     -V/T= 2.0053
 <Sx>= 0.0000 <Sy>= 0.0000 <Sz>= 0.5000 <S**2>= 0.7544 S= 0.5022
 <L.S>= 0.000000000000E+00
 KE= 3.053601740485D+02 PE=-1.185289124860D+03 EE= 3.391750790657D+02
 Annihilation of the first spin contaminant:
 S**2 before annihilation     0.7544,   after     0.7500
 Leave Link  502 at Sat Mar  9 02:32:03 2019, MaxMem=   671088640 cpu:             928.8 elap:              46.5
 (Enter /shared/centos7/gaussian/g16/l801.exe)
 DoSCS=F DFT=T ScalE2(SS,OS)=  1.000000  1.000000
 Range of M.O.s used for correlation:     1   267
 NBasis=   267 NAE=    24 NBE=    23 NFC=     0 NFV=     0
 NROrb=    267 NOA=    24 NOB=    23 NVA=   243 NVB=   244

 **** Warning!!: The largest alpha MO coefficient is  0.58028646D+02


 **** Warning!!: The largest beta MO coefficient is  0.51868827D+02

 Leave Link  801 at Sat Mar  9 02:32:03 2019, MaxMem=   671088640 cpu:               0.3 elap:               0.0
 (Enter /shared/centos7/gaussian/g16/l1101.exe)
 Using compressed storage, NAtomX=    13.
 Will process     14 centers per pass.
 Leave Link 1101 at Sat Mar  9 02:32:03 2019, MaxMem=   671088640 cpu:               6.2 elap:               0.3
 (Enter /shared/centos7/gaussian/g16/l1102.exe)
 Symmetrizing basis deriv contribution to polar:
 IMax=3 JMax=2 DiffMx= 0.00D+00
 Leave Link 1102 at Sat Mar  9 02:32:03 2019, MaxMem=   671088640 cpu:               0.5 elap:               0.0
 (Enter /shared/centos7/gaussian/g16/l1110.exe)
 Forming Gx(P) for the SCF density, NAtomX=    13.
 Integral derivatives from FoFJK, PRISM(SPDF).
 Do as many integral derivatives as possible in FoFJK.
 G2DrvN: MDV=     671087568.
 G2DrvN: will do    14 centers at a time, making    1 passes.
 Calling FoFCou, ICntrl=  3107 FMM=F I1Cent=   0 AccDes= 0.00D+00.
 FoFJK:  IHMeth= 1 ICntrl=    3107 DoSepK=F KAlg= 0 I1Cent=           0 FoldK=F
 IRaf=         0 NMat=       1 IRICut=       1 DoRegI=T DoRafI=F ISym2E= 0 IDoP0=0 IntGTp=1.
 FoFCou: FMM=F IPFlag=           0 FMFlag=      100000 FMFlg1=           0
         NFxFlg=           0 DoJE=F BraDBF=F KetDBF=F FulRan=T
         wScrn=  0.000000 ICntrl=      3107 IOpCl=  1 I1Cent=           0 NGrid=           0
         NMat0=    1 NMatS0=      1 NMatT0=    0 NMatD0=    1 NMtDS0=    0 NMtDT0=    0
 Symmetry not used in FoFCou.
 End of G2Drv F.D. properties file   721 does not exist.
 End of G2Drv F.D. properties file   722 does not exist.
 End of G2Drv F.D. properties file   788 does not exist.
 Leave Link 1110 at Sat Mar  9 02:33:22 2019, MaxMem=   671088640 cpu:            1574.3 elap:              78.7
 (Enter /shared/centos7/gaussian/g16/l1002.exe)
 Minotr:  UHF open shell wavefunction.
          IDoAtm=1111111111111
          Direct CPHF calculation.
          Differentiating once with respect to nuclear coordinates.
          Requested convergence is 1.0D-08 RMS, and 1.0D-07 maximum.
          Secondary convergence is 1.0D-12 RMS, and 1.0D-12 maximum.
          NewPWx=T KeepS1=F KeepF1=F KeepIn=T MapXYZ=F SortEE=F KeepMc=T.
         3966 words used for storage of precomputed grid.
 Two-electron integrals replicated using symmetry.
          MDV=     671088640 using IRadAn=       1.
          Solving linear equations simultaneously, MaxMat=     380.
 FoF2E skips out because all densities are zero.
 CalDSu exits because no D1Ps are significant.
 FoFJK:  IHMeth= 1 ICntrl=       0 DoSepK=F KAlg= 0 I1Cent=           0 FoldK=F
 IRaf= 950000000 NMat=      39 IRICut=      97 DoRegI=T DoRafI=T ISym2E= 2 IDoP0=3 IntGTp=3.
 FoFCou: FMM=F IPFlag=           0 FMFlag=      100000 FMFlg1=           0
         NFxFlg=           0 DoJE=F BraDBF=F KetDBF=F FulRan=T
         wScrn=  0.000000 ICntrl=         0 IOpCl=  1 I1Cent=           0 NGrid=           0
         NMat0=   39 NMatS0=     39 NMatT0=    0 NMatD0=   39 NMtDS0=    0 NMtDT0=    0
 Integrals replicated using symmetry in FoFCou.
 Raff kept on since  93.80% of shell-pairs survive, threshold=   0.20 IRatSp=94.
          There are    42 degrees of freedom in the 1st order CPHF.  IDoFFX=6 NUNeed=     0.
     36 vectors produced by pass  0 Test12= 2.72D-14 2.38D-09 XBig12= 1.47D-01 7.37D-02.
 AX will form    36 AO Fock derivatives at one time.
     36 vectors produced by pass  1 Test12= 2.72D-14 2.38D-09 XBig12= 1.60D-02 3.24D-02.
     36 vectors produced by pass  2 Test12= 2.72D-14 2.38D-09 XBig12= 9.29D-04 8.82D-03.
     36 vectors produced by pass  3 Test12= 2.72D-14 2.38D-09 XBig12= 1.57D-05 7.31D-04.
     36 vectors produced by pass  4 Test12= 2.72D-14 2.38D-09 XBig12= 2.18D-07 6.36D-05.
     36 vectors produced by pass  5 Test12= 2.72D-14 2.38D-09 XBig12= 3.76D-09 6.36D-06.
     34 vectors produced by pass  6 Test12= 2.72D-14 2.38D-09 XBig12= 3.77D-11 6.38D-07.
     19 vectors produced by pass  7 Test12= 2.72D-14 2.38D-09 XBig12= 2.42D-13 4.33D-08.
      2 vectors produced by pass  8 Test12= 2.72D-14 2.38D-09 XBig12= 2.00D-15 4.00D-09.
 InvSVY:  IOpt=1 It=  1 EMax= 1.67D-15
 Solved reduced A of dimension   271 with    36 vectors.
 End of Minotr F.D. properties file   721 does not exist.
 End of Minotr F.D. properties file   722 does not exist.
 End of Minotr F.D. properties file   788 does not exist.
 Leave Link 1002 at Sat Mar  9 02:35:27 2019, MaxMem=   671088640 cpu:            2489.5 elap:             124.5
 (Enter /shared/centos7/gaussian/g16/l601.exe)
 Copying SCF densities to generalized density rwf, IOpCl= 1 IROHF=0.

 **********************************************************************

            Population analysis using the SCF density.

 **********************************************************************

 Orbital symmetries:
 Alpha Orbitals:
       Occupied  (A) (A) (A) (A) (A) (A) (A) (A) (A) (A) (A) (A)
                 (A) (A) (A) (A) (A) (A) (A) (A) (A) (A) (A) (A)
       Virtual   (A) (A) (A) (A) (A) (A) (A) (A) (A) (A) (A) (A)
                 (A) (A) (A) (A) (A) (A) (A) (A) (A) (A) (A) (A)
                 (A) (A) (A) (A) (A) (A) (A) (A) (A) (A) (A) (A)
                 (A) (A) (A) (A) (A) (A) (A) (A) (A) (A) (A) (A)
                 (A) (A) (A) (A) (A) (A) (A) (A) (A) (A) (A) (A)
                 (A) (A) (A) (A) (A) (A) (A) (A) (A) (A) (A) (A)
                 (A) (A) (A) (A) (A) (A) (A) (A) (A) (A) (A) (A)
                 (A) (A) (A) (A) (A) (A) (A) (A) (A) (A) (A) (A)
                 (A) (A) (A) (A) (A) (A) (A) (A) (A) (A) (A) (A)
                 (A) (A) (A) (A) (A) (A) (A) (A) (A) (A) (A) (A)
                 (A) (A) (A) (A) (A) (A) (A) (A) (A) (A) (A) (A)
                 (A) (A) (A) (A) (A) (A) (A) (A) (A) (A) (A) (A)
                 (A) (A) (A) (A) (A) (A) (A) (A) (A) (A) (A) (A)
                 (A) (A) (A) (A) (A) (A) (A) (A) (A) (A) (A) (A)
                 (A) (A) (A) (A) (A) (A) (A) (A) (A) (A) (A) (A)
                 (A) (A) (A) (A) (A) (A) (A) (A) (A) (A) (A) (A)
                 (A) (A) (A) (A) (A) (A) (A) (A) (A) (A) (A) (A)
                 (A) (A) (A) (A) (A) (A) (A) (A) (A) (A) (A) (A)
                 (A) (A) (A) (A) (A) (A) (A) (A) (A) (A) (A) (A)
                 (A) (A) (A) (A) (A) (A) (A) (A) (A) (A) (A) (A)
                 (A) (A) (A)
 Beta  Orbitals:
       Occupied  (A) (A) (A) (A) (A) (A) (A) (A) (A) (A) (A) (A)
                 (A) (A) (A) (A) (A) (A) (A) (A) (A) (A) (A)
       Virtual   (A) (A) (A) (A) (A) (A) (A) (A) (A) (A) (A) (A)
                 (A) (A) (A) (A) (A) (A) (A) (A) (A) (A) (A) (A)
                 (A) (A) (A) (A) (A) (A) (A) (A) (A) (A) (A) (A)
                 (A) (A) (A) (A) (A) (A) (A) (A) (A) (A) (A) (A)
                 (A) (A) (A) (A) (A) (A) (A) (A) (A) (A) (A) (A)
                 (A) (A) (A) (A) (A) (A) (A) (A) (A) (A) (A) (A)
                 (A) (A) (A) (A) (A) (A) (A) (A) (A) (A) (A) (A)
                 (A) (A) (A) (A) (A) (A) (A) (A) (A) (A) (A) (A)
                 (A) (A) (A) (A) (A) (A) (A) (A) (A) (A) (A) (A)
                 (A) (A) (A) (A) (A) (A) (A) (A) (A) (A) (A) (A)
                 (A) (A) (A) (A) (A) (A) (A) (A) (A) (A) (A) (A)
                 (A) (A) (A) (A) (A) (A) (A) (A) (A) (A) (A) (A)
                 (A) (A) (A) (A) (A) (A) (A) (A) (A) (A) (A) (A)
                 (A) (A) (A) (A) (A) (A) (A) (A) (A) (A) (A) (A)
                 (A) (A) (A) (A) (A) (A) (A) (A) (A) (A) (A) (A)
                 (A) (A) (A) (A) (A) (A) (A) (A) (A) (A) (A) (A)
                 (A) (A) (A) (A) (A) (A) (A) (A) (A) (A) (A) (A)
                 (A) (A) (A) (A) (A) (A) (A) (A) (A) (A) (A) (A)
                 (A) (A) (A) (A) (A) (A) (A) (A) (A) (A) (A) (A)
                 (A) (A) (A) (A) (A) (A) (A) (A) (A) (A) (A) (A)
                 (A) (A) (A) (A)
 The electronic state is 2-A.
 Alpha  occ. eigenvalues --  -19.68571 -19.63669 -10.69142 -10.60679 -10.57076
 Alpha  occ. eigenvalues --  -10.55022  -1.22593  -1.15036  -0.90455  -0.79284
 Alpha  occ. eigenvalues --   -0.73560  -0.64572  -0.59061  -0.57316  -0.55710
 Alpha  occ. eigenvalues --   -0.51784  -0.50126  -0.47465  -0.45009  -0.44093
 Alpha  occ. eigenvalues --   -0.42827  -0.41556  -0.36855  -0.27882
 Alpha virt. eigenvalues --    0.00607   0.02741   0.02995   0.03410   0.04120
 Alpha virt. eigenvalues --    0.05011   0.06360   0.07244   0.07929   0.08159
 Alpha virt. eigenvalues --    0.10105   0.10487   0.11070   0.12606   0.13021
 Alpha virt. eigenvalues --    0.14939   0.16335   0.17990   0.18987   0.19558
 Alpha virt. eigenvalues --    0.19874   0.21550   0.22500   0.24603   0.25566
 Alpha virt. eigenvalues --    0.26268   0.26596   0.27891   0.28056   0.30202
 Alpha virt. eigenvalues --    0.32087   0.32843   0.33529   0.36119   0.36239
 Alpha virt. eigenvalues --    0.38639   0.41871   0.43489   0.46444   0.47447
 Alpha virt. eigenvalues --    0.49365   0.50434   0.51349   0.53029   0.55547
 Alpha virt. eigenvalues --    0.55934   0.57350   0.57667   0.58340   0.59479
 Alpha virt. eigenvalues --    0.60527   0.63245   0.63474   0.65386   0.67177
 Alpha virt. eigenvalues --    0.67761   0.68414   0.72511   0.74284   0.79155
 Alpha virt. eigenvalues --    0.79383   0.81645   0.83163   0.85991   0.87846
 Alpha virt. eigenvalues --    0.88395   0.90828   0.93913   0.96452   0.97973
 Alpha virt. eigenvalues --    0.99736   1.03731   1.05460   1.09907   1.10546
 Alpha virt. eigenvalues --    1.11304   1.12019   1.14594   1.14975   1.15963
 Alpha virt. eigenvalues --    1.17417   1.18976   1.20925   1.22863   1.24547
 Alpha virt. eigenvalues --    1.25668   1.27512   1.28347   1.30600   1.32283
 Alpha virt. eigenvalues --    1.34354   1.37281   1.37957   1.39369   1.41188
 Alpha virt. eigenvalues --    1.42130   1.44996   1.45549   1.47408   1.50084
 Alpha virt. eigenvalues --    1.51058   1.52145   1.57297   1.58814   1.59740
 Alpha virt. eigenvalues --    1.64156   1.66738   1.67494   1.69646   1.81210
 Alpha virt. eigenvalues --    1.82852   1.87484   2.01741   2.09080   2.16321
 Alpha virt. eigenvalues --    2.24979   2.29562   2.41276   2.43860   2.48078
 Alpha virt. eigenvalues --    2.49929   2.51521   2.55448   2.62327   2.64148
 Alpha virt. eigenvalues --    2.67462   2.76024   2.77605   2.81228   2.83666
 Alpha virt. eigenvalues --    2.84803   2.87734   2.93293   2.95199   2.96962
 Alpha virt. eigenvalues --    2.97347   2.97995   3.01333   3.03002   3.04759
 Alpha virt. eigenvalues --    3.06921   3.07274   3.11926   3.13882   3.16689
 Alpha virt. eigenvalues --    3.18698   3.20642   3.21445   3.22594   3.25880
 Alpha virt. eigenvalues --    3.27999   3.31634   3.32436   3.34485   3.36957
 Alpha virt. eigenvalues --    3.40891   3.42604   3.44753   3.48285   3.49710
 Alpha virt. eigenvalues --    3.52704   3.54284   3.57702   3.60095   3.60271
 Alpha virt. eigenvalues --    3.62066   3.66906   3.72167   3.74833   3.76742
 Alpha virt. eigenvalues --    3.77246   3.78579   3.82666   3.84892   3.86461
 Alpha virt. eigenvalues --    3.92600   3.94881   3.96527   3.99090   4.03435
 Alpha virt. eigenvalues --    4.04578   4.07992   4.09263   4.15168   4.18858
 Alpha virt. eigenvalues --    4.19945   4.21822   4.24827   4.25614   4.28581
 Alpha virt. eigenvalues --    4.31144   4.39393   4.43154   4.44122   4.49582
 Alpha virt. eigenvalues --    4.52000   4.53507   4.56026   4.64596   4.87990
 Alpha virt. eigenvalues --    5.00796   5.07905   5.09370   5.14853   5.16796
 Alpha virt. eigenvalues --    5.19444   5.20574   5.24572   5.33382   5.34657
 Alpha virt. eigenvalues --    5.35737   5.38367   5.43900   5.45742   5.48393
 Alpha virt. eigenvalues --    5.50788   5.54029   5.60523   5.67043   5.70923
 Alpha virt. eigenvalues --    5.76523   5.93531   6.30315   6.33840   6.51232
 Alpha virt. eigenvalues --    6.82146   6.85295   6.91020   7.03833   7.05237
 Alpha virt. eigenvalues --    7.15074   7.18335   7.26843   7.47932   7.60868
 Alpha virt. eigenvalues --    7.71731   7.74016  24.18056  24.20985  24.37389
 Alpha virt. eigenvalues --   24.65469  50.11205  50.26352
  Beta  occ. eigenvalues --  -19.68380 -19.63648 -10.69135 -10.59809 -10.57079
  Beta  occ. eigenvalues --  -10.55020  -1.22141  -1.14518  -0.90313  -0.77633
  Beta  occ. eigenvalues --   -0.72520  -0.63441  -0.58730  -0.56857  -0.54886
  Beta  occ. eigenvalues --   -0.50827  -0.49510  -0.46848  -0.44509  -0.43215
  Beta  occ. eigenvalues --   -0.41790  -0.41162  -0.36749
  Beta virt. eigenvalues --   -0.03945   0.00848   0.02416   0.03189   0.03830
  Beta virt. eigenvalues --    0.04161   0.05116   0.06298   0.07844   0.08123
  Beta virt. eigenvalues --    0.08220   0.09664   0.10355   0.11803   0.12508
  Beta virt. eigenvalues --    0.13263   0.14871   0.15724   0.18188   0.18768
  Beta virt. eigenvalues --    0.19725   0.20374   0.22045   0.22652   0.24532
  Beta virt. eigenvalues --    0.25646   0.26284   0.27058   0.27846   0.28479
  Beta virt. eigenvalues --    0.30044   0.32051   0.32657   0.33667   0.35789
  Beta virt. eigenvalues --    0.36287   0.38678   0.41851   0.43543   0.46483
  Beta virt. eigenvalues --    0.47461   0.49971   0.50268   0.51511   0.53136
  Beta virt. eigenvalues --    0.55682   0.56035   0.57644   0.57850   0.58759
  Beta virt. eigenvalues --    0.59637   0.60887   0.63339   0.63646   0.65512
  Beta virt. eigenvalues --    0.67242   0.67901   0.68559   0.72635   0.73998
  Beta virt. eigenvalues --    0.79072   0.79264   0.81575   0.83381   0.85693
  Beta virt. eigenvalues --    0.87865   0.88816   0.90773   0.93611   0.96176
  Beta virt. eigenvalues --    0.97846   0.99727   1.03298   1.05601   1.09895
  Beta virt. eigenvalues --    1.10574   1.11286   1.12125   1.14597   1.14964
  Beta virt. eigenvalues --    1.16006   1.17477   1.18895   1.20773   1.22931
  Beta virt. eigenvalues --    1.24683   1.25689   1.27599   1.28478   1.30636
  Beta virt. eigenvalues --    1.32398   1.34479   1.37245   1.38443   1.39463
  Beta virt. eigenvalues --    1.41347   1.42171   1.45037   1.45702   1.47487
  Beta virt. eigenvalues --    1.50210   1.51078   1.52986   1.57383   1.58838
  Beta virt. eigenvalues --    1.59623   1.64831   1.66870   1.67580   1.69593
  Beta virt. eigenvalues --    1.81510   1.83005   1.88050   2.01859   2.09335
  Beta virt. eigenvalues --    2.16576   2.25275   2.30341   2.42077   2.44517
  Beta virt. eigenvalues --    2.48319   2.50563   2.51634   2.56190   2.62453
  Beta virt. eigenvalues --    2.64312   2.67827   2.76483   2.78201   2.81555
  Beta virt. eigenvalues --    2.83856   2.85046   2.91447   2.94490   2.97126
  Beta virt. eigenvalues --    2.97846   2.99787   3.01273   3.02899   3.04268
  Beta virt. eigenvalues --    3.06493   3.08002   3.10251   3.12448   3.15022
  Beta virt. eigenvalues --    3.19084   3.21295   3.21645   3.23998   3.25389
  Beta virt. eigenvalues --    3.26442   3.30614   3.32559   3.33374   3.36569
  Beta virt. eigenvalues --    3.37664   3.42443   3.43804   3.46264   3.50519
  Beta virt. eigenvalues --    3.51425   3.53560   3.56784   3.59026   3.60355
  Beta virt. eigenvalues --    3.62793   3.63169   3.67219   3.72311   3.76125
  Beta virt. eigenvalues --    3.77330   3.77780   3.80330   3.83250   3.87272
  Beta virt. eigenvalues --    3.88994   3.92979   3.95064   3.96613   3.99383
  Beta virt. eigenvalues --    4.03571   4.06210   4.09810   4.11558   4.15804
  Beta virt. eigenvalues --    4.19936   4.21582   4.22553   4.25348   4.26803
  Beta virt. eigenvalues --    4.29017   4.31428   4.41349   4.43384   4.44297
  Beta virt. eigenvalues --    4.49788   4.52065   4.53546   4.56136   4.64649
  Beta virt. eigenvalues --    4.88287   5.04257   5.08190   5.10840   5.15592
  Beta virt. eigenvalues --    5.17475   5.19511   5.21576   5.25852   5.34058
  Beta virt. eigenvalues --    5.34890   5.38400   5.40962   5.44057   5.45881
  Beta virt. eigenvalues --    5.48540   5.50927   5.54085   5.61000   5.67629
  Beta virt. eigenvalues --    5.71169   5.77081   5.94184   6.30513   6.34030
  Beta virt. eigenvalues --    6.51954   6.82418   6.85457   6.91269   7.03949
  Beta virt. eigenvalues --    7.05600   7.15460   7.18659   7.27120   7.48121
  Beta virt. eigenvalues --    7.60975   7.71832   7.73983  24.19495  24.20994
  Beta virt. eigenvalues --   24.37391  24.65536  50.11048  50.26318
          Condensed to atoms (all electrons):
               1          2          3          4          5          6
     1  O    8.121136  -0.077619  -0.112376  -0.006704   0.211565   0.086734
     2  O   -0.077619   8.100800  -0.031426  -0.014616   0.428790  -0.046714
     3  C   -0.112376  -0.031426   6.062062  -0.024811  -0.287748  -0.118905
     4  C   -0.006704  -0.014616  -0.024811   5.293901   0.010093  -0.000756
     5  C    0.211565   0.428790  -0.287748   0.010093   5.512347  -0.048670
     6  C    0.086734  -0.046714  -0.118905  -0.000756  -0.048670   5.496827
     7  H    0.005830  -0.003258   0.471467  -0.020622  -0.080258  -0.001581
     8  H   -0.003948   0.002130   0.420225  -0.051293  -0.034853   0.001740
     9  H   -0.002324   0.001454  -0.017368   0.402015  -0.017031   0.000527
    10  H   -0.004340   0.000223  -0.002539   0.411693  -0.029944   0.000006
    11  H    0.000568  -0.000695  -0.075977   0.415921   0.042908   0.000119
    12  H   -0.029035  -0.009300   0.006995  -0.001360  -0.005175   0.400226
    13  H   -0.049023   0.002375   0.005174   0.000066   0.005013   0.405193
               7          8          9         10         11         12
     1  O    0.005830  -0.003948  -0.002324  -0.004340   0.000568  -0.029035
     2  O   -0.003258   0.002130   0.001454   0.000223  -0.000695  -0.009300
     3  C    0.471467   0.420225  -0.017368  -0.002539  -0.075977   0.006995
     4  C   -0.020622  -0.051293   0.402015   0.411693   0.415921  -0.001360
     5  C   -0.080258  -0.034853  -0.017031  -0.029944   0.042908  -0.005175
     6  C   -0.001581   0.001740   0.000527   0.000006   0.000119   0.400226
     7  H    0.495612  -0.027211  -0.006352   0.004760  -0.005022   0.000008
     8  H   -0.027211   0.530350   0.005652  -0.006505  -0.004044  -0.000085
     9  H   -0.006352   0.005652   0.541622  -0.029386  -0.022895  -0.000022
    10  H    0.004760  -0.006505  -0.029386   0.525992  -0.025248  -0.000018
    11  H   -0.005022  -0.004044  -0.022895  -0.025248   0.536555   0.000005
    12  H    0.000008  -0.000085  -0.000022  -0.000018   0.000005   0.505078
    13  H    0.000013  -0.000010   0.000005   0.000056  -0.000002  -0.031361
              13
     1  O   -0.049023
     2  O    0.002375
     3  C    0.005174
     4  C    0.000066
     5  C    0.005013
     6  C    0.405193
     7  H    0.000013
     8  H   -0.000010
     9  H    0.000005
    10  H    0.000056
    11  H   -0.000002
    12  H   -0.031361
    13  H    0.515477
          Atomic-Atomic Spin Densities.
               1          2          3          4          5          6
     1  O    0.144121  -0.003609  -0.004947   0.006929   0.021059  -0.170896
     2  O   -0.003609   0.011390  -0.001664  -0.000573   0.000013   0.009250
     3  C   -0.004947  -0.001664   0.106680  -0.047191  -0.045618  -0.016163
     4  C    0.006929  -0.000573  -0.047191   0.029967   0.015646   0.000442
     5  C    0.021059   0.000013  -0.045618   0.015646   0.044305  -0.003112
     6  C   -0.170896   0.009250  -0.016163   0.000442  -0.003112   1.215365
     7  H   -0.000137   0.000075   0.001441   0.000188  -0.001509  -0.000095
     8  H   -0.000776   0.000434  -0.010432   0.003474   0.004296   0.000885
     9  H   -0.000256   0.000081   0.002142  -0.001531  -0.000784   0.000051
    10  H   -0.001279   0.000067   0.004441  -0.001902  -0.002756   0.000240
    11  H    0.000104  -0.000024  -0.003772   0.002114   0.001643  -0.000018
    12  H    0.002032   0.003600   0.002997  -0.000136  -0.003627  -0.020641
    13  H    0.005015  -0.000049   0.003271  -0.000422  -0.001635  -0.021862
               7          8          9         10         11         12
     1  O   -0.000137  -0.000776  -0.000256  -0.001279   0.000104   0.002032
     2  O    0.000075   0.000434   0.000081   0.000067  -0.000024   0.003600
     3  C    0.001441  -0.010432   0.002142   0.004441  -0.003772   0.002997
     4  C    0.000188   0.003474  -0.001531  -0.001902   0.002114  -0.000136
     5  C   -0.001509   0.004296  -0.000784  -0.002756   0.001643  -0.003627
     6  C   -0.000095   0.000885   0.000051   0.000240  -0.000018  -0.020641
     7  H    0.000015  -0.000186  -0.000036   0.000008   0.000004   0.000010
     8  H   -0.000186   0.004389  -0.000050  -0.000300   0.000234  -0.000048
     9  H   -0.000036  -0.000050  -0.000684  -0.000046   0.000033  -0.000004
    10  H    0.000008  -0.000300  -0.000046   0.000119  -0.000059   0.000031
    11  H    0.000004   0.000234   0.000033  -0.000059   0.000146  -0.000001
    12  H    0.000010  -0.000048  -0.000004   0.000031  -0.000001  -0.009311
    13  H    0.000001  -0.000019   0.000001   0.000052  -0.000001   0.006935
              13
     1  O    0.005015
     2  O   -0.000049
     3  C    0.003271
     4  C   -0.000422
     5  C   -0.001635
     6  C   -0.021862
     7  H    0.000001
     8  H   -0.000019
     9  H    0.000001
    10  H    0.000052
    11  H   -0.000001
    12  H    0.006935
    13  H   -0.008649
 Mulliken charges and spin densities:
               1          2
     1  O   -0.140466  -0.002640
     2  O   -0.352143   0.018989
     3  C   -0.294772  -0.008815
     4  C   -0.413528   0.007005
     5  C    0.292962   0.027921
     6  C   -0.174745   0.993446
     7  H    0.166612  -0.000221
     8  H    0.167853   0.001900
     9  H    0.144102  -0.001083
    10  H    0.155251  -0.001383
    11  H    0.137807   0.000404
    12  H    0.164044  -0.018162
    13  H    0.147023  -0.017361
 Sum of Mulliken charges =  -0.00000   1.00000
 Mulliken charges and spin densities with hydrogens summed into heavy atoms:
               1          2
     1  O   -0.140466  -0.002640
     2  O   -0.352143   0.018989
     3  C    0.039693  -0.007136
     4  C    0.023632   0.004943
     5  C    0.292962   0.027921
     6  C    0.136322   0.957923
 APT charges:
               1
     1  O   -0.104601
     2  O   -0.268380
     3  C   -0.845240
     4  C   -1.171812
     5  C    0.318134
     6  C   -0.893248
     7  H    0.484778
     8  H    0.399114
     9  H    0.312046
    10  H    0.267764
    11  H    0.586997
    12  H    0.343893
    13  H    0.570555
 Sum of APT charges =  -0.00000
 APT charges with hydrogens summed into heavy atoms:
               1
     1  O   -0.104601
     2  O   -0.268380
     3  C    0.038652
     4  C   -0.005005
     5  C    0.318134
     6  C    0.021200
 Electronic spatial extent (au):  <R**2>=            638.2750
 Charge=             -0.0000 electrons
 Dipole moment (field-independent basis, Debye):
    X=             -1.6710    Y=             -1.2933    Z=             -0.0604  Tot=              2.1139
 Quadrupole moment (field-independent basis, Debye-Ang):
   XX=            -33.1220   YY=            -40.4633   ZZ=            -36.5933
   XY=             -3.1680   XZ=             -1.9488   YZ=              1.2742
 Traceless Quadrupole moment (field-independent basis, Debye-Ang):
   XX=              3.6042   YY=             -3.7371   ZZ=              0.1329
   XY=             -3.1680   XZ=             -1.9488   YZ=              1.2742
 Octapole moment (field-independent basis, Debye-Ang**2):
  XXX=              1.9323  YYY=             -6.0613  ZZZ=              0.0281  XYY=             -0.1893
  XXY=             -2.6995  XXZ=             -3.5455  XZZ=             -1.3789  YZZ=              1.9143
  YYZ=              0.5354  XYZ=              1.1743
 Hexadecapole moment (field-independent basis, Debye-Ang**3):
 XXXX=           -553.7991 YYYY=           -222.7765 ZZZZ=            -66.0610 XXXY=             -9.0278
 XXXZ=            -17.9596 YYYX=            -12.5010 YYYZ=              0.2650 ZZZX=             -3.3320
 ZZZY=             -0.7647 XXYY=           -124.6234 XXZZ=           -109.9321 YYZZ=            -49.9886
 XXYZ=              0.5539 YYXZ=             -1.4553 ZZXY=              2.0486
 N-N= 2.337620420752D+02 E-N=-1.185289124773D+03  KE= 3.053601740485D+02
  Exact polarizability:   0.000   0.000   0.000   0.000   0.000   0.000
 Approx polarizability:  68.459  -0.346  71.072  -2.536  -3.547  56.313
                          Isotropic Fermi Contact Couplings
        Atom                 a.u.       MegaHertz       Gauss      10(-4) cm-1
     1  O(17)              0.02231     -13.52570      -4.82631      -4.51169
     2  O(17)              0.00093      -0.56147      -0.20035      -0.18729
     3  C(13)             -0.00202      -2.27486      -0.81173      -0.75881
     4  C(13)              0.00207       2.32590       0.82994       0.77584
     5  C(13)              0.00211       2.36689       0.84456       0.78951
     6  C(13)              0.34921     392.57349     140.07998     130.94842
     7  H(1)              -0.00010      -0.43599      -0.15557      -0.14543
     8  H(1)               0.00103       4.61173       1.64558       1.53831
     9  H(1)              -0.00003      -0.14347      -0.05119      -0.04786
    10  H(1)               0.00008       0.35665       0.12726       0.11897
    11  H(1)               0.00019       0.86043       0.30702       0.28701
    12  H(1)              -0.00397     -17.72882      -6.32608      -5.91370
    13  H(1)              -0.00391     -17.45564      -6.22861      -5.82257
 --------------------------------------------------------
       Center         ----  Spin Dipole Couplings  ----
                      3XX-RR        3YY-RR        3ZZ-RR
 --------------------------------------------------------
     1   Atom       -0.194770     -0.166786      0.361555
     2   Atom       -0.036667     -0.017957      0.054623
     3   Atom        0.003030     -0.001861     -0.001169
     4   Atom        0.004661     -0.002401     -0.002260
     5   Atom       -0.005199     -0.008932      0.014131
     6   Atom       -0.365776     -0.410152      0.775929
     7   Atom        0.002291     -0.000595     -0.001696
     8   Atom        0.003677     -0.002176     -0.001500
     9   Atom        0.002867     -0.001957     -0.000911
    10   Atom        0.004422     -0.001648     -0.002774
    11   Atom        0.002131     -0.001105     -0.001026
    12   Atom       -0.044347      0.023596      0.020751
    13   Atom       -0.036265      0.049017     -0.012752
 --------------------------------------------------------
                        XY            XZ            YZ
 --------------------------------------------------------
     1   Atom        0.043594      0.250483      0.162300
     2   Atom       -0.003615      0.005426      0.021207
     3   Atom       -0.002852     -0.000294      0.000697
     4   Atom        0.000870      0.001228      0.000247
     5   Atom       -0.008962      0.007562      0.006553
     6   Atom        0.113733      0.439168      0.336841
     7   Atom       -0.002204      0.000135     -0.000013
     8   Atom       -0.001690     -0.002206      0.000604
     9   Atom        0.000075      0.002045      0.000087
    10   Atom        0.002467      0.000225      0.000099
    11   Atom        0.000124      0.000140      0.000043
    12   Atom        0.030669     -0.006671     -0.041364
    13   Atom       -0.041784      0.006329      0.025393
 --------------------------------------------------------


 ---------------------------------------------------------------------------------
              Anisotropic Spin Dipole Couplings in Principal Axis System
 ---------------------------------------------------------------------------------

       Atom             a.u.   MegaHertz   Gauss  10(-4) cm-1        Axes

              Baa    -0.2943    21.296     7.599     7.103  0.9007  0.1896 -0.3909
     1 O(17)  Bbb    -0.2054    14.859     5.302     4.956 -0.2672  0.9512 -0.1543
              Bcc     0.4997   -36.155   -12.901   -12.060  0.3426  0.2434  0.9074
 
              Baa    -0.0385     2.785     0.994     0.929  0.9483  0.2931 -0.1220
     2 O(17)  Bbb    -0.0221     1.597     0.570     0.533 -0.3144  0.9204 -0.2323
              Bcc     0.0606    -4.382    -1.564    -1.462  0.0442  0.2586  0.9650
 
              Baa    -0.0033    -0.442    -0.158    -0.148  0.3900  0.8897 -0.2375
     3 C(13)  Bbb    -0.0011    -0.148    -0.053    -0.049  0.1894  0.1749  0.9662
              Bcc     0.0044     0.590     0.211     0.197  0.9011 -0.4218 -0.1003
 
              Baa    -0.0026    -0.347    -0.124    -0.116  0.0158  0.7694 -0.6385
     4 C(13)  Bbb    -0.0024    -0.321    -0.115    -0.107 -0.2080  0.6272  0.7506
              Bcc     0.0050     0.668     0.239     0.223  0.9780  0.1210  0.1700
 
              Baa    -0.0192    -2.570    -0.917    -0.857  0.6226  0.7288 -0.2850
     5 C(13)  Bbb     0.0019     0.257     0.092     0.086  0.7374 -0.6683 -0.0980
              Bcc     0.0172     2.312     0.825     0.771  0.2619  0.1491  0.9535
 
              Baa    -0.5152   -69.135   -24.669   -23.061  0.9420  0.0462 -0.3325
     6 C(13)  Bbb    -0.4989   -66.943   -23.887   -22.330 -0.1229  0.9691 -0.2137
              Bcc     1.0141   136.077    48.556    45.391  0.3123  0.2422  0.9186
 
              Baa    -0.0018    -0.966    -0.345    -0.322  0.4394  0.7917 -0.4244
     7 H(1)   Bbb    -0.0017    -0.894    -0.319    -0.298  0.1826  0.3839  0.9051
              Bcc     0.0035     1.860     0.664     0.620  0.8795 -0.4752  0.0241
 
              Baa    -0.0026    -1.403    -0.501    -0.468  0.2472  0.9683 -0.0352
     8 H(1)   Bbb    -0.0023    -1.234    -0.440    -0.411  0.3326 -0.0507  0.9417
              Bcc     0.0049     2.637     0.941     0.880  0.9101 -0.2445 -0.3346
 
              Baa    -0.0020    -1.053    -0.376    -0.351  0.0985  0.9583 -0.2684
     9 H(1)   Bbb    -0.0018    -0.955    -0.341    -0.319 -0.3891  0.2853  0.8759
              Bcc     0.0038     2.008     0.717     0.670  0.9159  0.0181  0.4010
 
              Baa    -0.0028    -1.484    -0.530    -0.495 -0.0045 -0.0775  0.9970
    10 H(1)   Bbb    -0.0025    -1.346    -0.480    -0.449 -0.3360  0.9392  0.0715
              Bcc     0.0053     2.831     1.010     0.944  0.9419  0.3346  0.0303
 
              Baa    -0.0011    -0.600    -0.214    -0.200 -0.0190  0.9256 -0.3781
    11 H(1)   Bbb    -0.0010    -0.543    -0.194    -0.181 -0.0560  0.3766  0.9247
              Bcc     0.0021     1.143     0.408     0.381  0.9983  0.0387  0.0447
 
              Baa    -0.0574   -30.616   -10.925   -10.212  0.8995 -0.4132 -0.1419
    12 H(1)   Bbb    -0.0126    -6.714    -2.396    -2.240  0.3695  0.5462  0.7517
              Bcc     0.0700    37.330    13.320    12.452  0.2331  0.7286 -0.6440
 
              Baa    -0.0589   -31.443   -11.220   -10.488  0.8471  0.4080 -0.3404
    13 H(1)   Bbb    -0.0126    -6.702    -2.392    -2.236  0.4104 -0.0955  0.9069
              Bcc     0.0715    38.145    13.611    12.724 -0.3375  0.9080  0.2483
 

 ---------------------------------------------------------------------------------

 No NMR shielding tensors so no spin-rotation constants.
 Leave Link  601 at Sat Mar  9 02:35:27 2019, MaxMem=   671088640 cpu:               8.7 elap:               0.5
 (Enter /shared/centos7/gaussian/g16/l701.exe)
 SCFChk:  SCF convergence  6.83D-09 required  1.00D-08
 ... and contract with generalized density number  0.
 Compute integral second derivatives.
 Entering OneElI...
 Calculate overlap and kinetic energy integrals
    NBasis = 297  MinDer = 2  MaxDer = 2
 Requested accuracy = 0.1000D-12
 PrmmSu-InSpLW:  IPartL=    0 NPrtUS=   20 NPrtUL=    1 DoSpLW=F IThBeg=    0 IThEnd=   19 NThAct=   20.
 PrsmSu:  NPrtUS=  20 ThrOK=T IAlg=1 NPAlg=1 LenDen=           0 ISkipM=0 DoSpLW=F IThBeg=    0 IThEnd=   19.
 Prism:   IPart=     0 DynPar=F LinDyn=F Incr=           1.
 PRISM was handed    33455065 working-precision words and  3475 shell-pairs
 PRISM was handed    33455065 working-precision words and  3475 shell-pairs
 PRISM was handed    33455065 working-precision words and  3475 shell-pairs
 PRISM was handed    33455065 working-precision words and  3475 shell-pairs
 PRISM was handed    33455065 working-precision words and  3475 shell-pairs
 PRISM was handed    33455065 working-precision words and  3475 shell-pairs
 PRISM was handed    33455065 working-precision words and  3475 shell-pairs
 PRISM was handed    33455065 working-precision words and  3475 shell-pairs
 PRISM was handed    33455065 working-precision words and  3475 shell-pairs
 PRISM was handed    33455065 working-precision words and  3475 shell-pairs
 PRISM was handed    33455065 working-precision words and  3475 shell-pairs
 PRISM was handed    33455065 working-precision words and  3475 shell-pairs
 PRISM was handed    33455065 working-precision words and  3475 shell-pairs
 PRISM was handed    33455065 working-precision words and  3475 shell-pairs
 PRISM was handed    33455065 working-precision words and  3475 shell-pairs
 PRISM was handed    33455065 working-precision words and  3475 shell-pairs
 PRISM was handed    33455065 working-precision words and  3475 shell-pairs
 PRISM was handed    33455065 working-precision words and  3475 shell-pairs
 PRISM was handed    33455065 working-precision words and  3475 shell-pairs
 PRISM was handed    33455065 working-precision words and  3475 shell-pairs
 IPart=  2 NShTot=         196 NBatch=          51 AvBLen=         3.8
 IPart=  0 NShTot=         209 NBatch=          61 AvBLen=         3.4
 IPart=  3 NShTot=         195 NBatch=          50 AvBLen=         3.9
 IPart=  8 NShTot=         176 NBatch=          36 AvBLen=         4.9
 IPart=  6 NShTot=         180 NBatch=          38 AvBLen=         4.7
 IPart= 11 NShTot=         165 NBatch=          31 AvBLen=         5.3
 IPart=  9 NShTot=         173 NBatch=          33 AvBLen=         5.2
 IPart= 12 NShTot=         164 NBatch=          31 AvBLen=         5.3
 IPart= 14 NShTot=         162 NBatch=          31 AvBLen=         5.2
 IPart= 18 NShTot=         151 NBatch=          30 AvBLen=         5.0
 IPart= 10 NShTot=         171 NBatch=          32 AvBLen=         5.3
 IPart= 16 NShTot=         156 NBatch=          31 AvBLen=         5.0
 IPart= 15 NShTot=         161 NBatch=          31 AvBLen=         5.2
 IPart=  1 NShTot=         198 NBatch=          52 AvBLen=         3.8
 IPart= 17 NShTot=         154 NBatch=          31 AvBLen=         5.0
 IPart=  4 NShTot=         189 NBatch=          46 AvBLen=         4.1
 IPart=  5 NShTot=         184 NBatch=          42 AvBLen=         4.4
 IPart= 13 NShTot=         163 NBatch=          31 AvBLen=         5.3
 IPart= 19 NShTot=         150 NBatch=          30 AvBLen=         5.0
 IPart=  7 NShTot=         178 NBatch=          36 AvBLen=         4.9
 PrSmSu:  NxtVal=             21.
 Entering OneElI...
 Calculate potential energy integrals
    NBasis = 297  MinDer = 2  MaxDer = 2
 Requested accuracy = 0.1000D-12
 PrmmSu-InSpLW:  IPartL=    0 NPrtUS=   20 NPrtUL=    1 DoSpLW=F IThBeg=    0 IThEnd=   19 NThAct=   20.
 PrsmSu:  NPrtUS=  20 ThrOK=T IAlg=1 NPAlg=1 LenDen=           0 ISkipM=0 DoSpLW=F IThBeg=    0 IThEnd=   19.
 Prism:   IPart=     0 DynPar=F LinDyn=F Incr=          21.
 PRISM was handed    33469212 working-precision words and  3259 shell-pairs
 PRISM was handed    33469212 working-precision words and  3259 shell-pairs
 PRISM was handed    33469212 working-precision words and  3259 shell-pairs
 PRISM was handed    33469212 working-precision words and  3259 shell-pairs
 PRISM was handed    33469212 working-precision words and  3259 shell-pairs
 PRISM was handed    33469212 working-precision words and  3259 shell-pairs
 PRISM was handed    33469212 working-precision words and  3259 shell-pairs
 PRISM was handed    33469212 working-precision words and  3259 shell-pairs
 PRISM was handed    33469212 working-precision words and  3259 shell-pairs
 PRISM was handed    33469212 working-precision words and  3259 shell-pairs
 PRISM was handed    33469212 working-precision words and  3259 shell-pairs
 PRISM was handed    33469212 working-precision words and  3259 shell-pairs
 PRISM was handed    33469212 working-precision words and  3259 shell-pairs
 PRISM was handed    33469212 working-precision words and  3259 shell-pairs
 PRISM was handed    33469212 working-precision words and  3259 shell-pairs
 PRISM was handed    33469212 working-precision words and  3259 shell-pairs
 PRISM was handed    33469212 working-precision words and  3259 shell-pairs
 PRISM was handed    33469212 working-precision words and  3259 shell-pairs
 PRISM was handed    33469212 working-precision words and  3259 shell-pairs
 PRISM was handed    33469212 working-precision words and  3259 shell-pairs
 IPart=  2 NShTot=        2340 NBatch=         180 AvBLen=        13.0
 IPart=  0 NShTot=        2574 NBatch=         198 AvBLen=        13.0
 IPart= 19 NShTot=        1859 NBatch=         143 AvBLen=        13.0
 IPart= 18 NShTot=        1885 NBatch=         145 AvBLen=        13.0
 IPart=  1 NShTot=        2470 NBatch=         190 AvBLen=        13.0
 IPart=  8 NShTot=        2158 NBatch=         166 AvBLen=        13.0
 IPart= 13 NShTot=        1963 NBatch=         151 AvBLen=        13.0
 IPart=  9 NShTot=        2132 NBatch=         164 AvBLen=        13.0
 IPart=  6 NShTot=        2197 NBatch=         169 AvBLen=        13.0
 IPart=  3 NShTot=        2327 NBatch=         179 AvBLen=        13.0
 IPart= 10 NShTot=        2093 NBatch=         161 AvBLen=        13.0
 IPart= 11 NShTot=        2028 NBatch=         156 AvBLen=        13.0
 IPart= 14 NShTot=        1924 NBatch=         148 AvBLen=        13.0
 IPart= 15 NShTot=        1911 NBatch=         147 AvBLen=        13.0
 IPart=  4 NShTot=        2301 NBatch=         177 AvBLen=        13.0
 IPart= 17 NShTot=        1885 NBatch=         145 AvBLen=        13.0
 IPart= 12 NShTot=        2002 NBatch=         154 AvBLen=        13.0
 IPart= 16 NShTot=        1885 NBatch=         145 AvBLen=        13.0
 IPart=  5 NShTot=        2262 NBatch=         174 AvBLen=        13.0
 IPart=  7 NShTot=        2171 NBatch=         167 AvBLen=        13.0
 PrSmSu:  NxtVal=            421.
 Polarizability after L701:
                1             2             3 
      1  0.000000D+00
      2  0.000000D+00  0.000000D+00
      3  0.000000D+00  0.000000D+00  0.000000D+00
 Dipole Derivatives after L701:
                 1             2             3             4             5 
      1   0.149838D+00 -0.215559D-04 -0.440717D-01 -0.237256D+00  0.873145D-01
      2  -0.112155D-01 -0.191310D+00 -0.318530D-01  0.246629D+00 -0.567058D-01
      3  -0.353426D-01 -0.472173D-01 -0.272331D+00 -0.374835D-01 -0.550292D-01
                 6             7             8             9            10 
      1  -0.895094D-01 -0.819356D+00  0.960109D+00  0.678258D+00 -0.152726D+01
      2  -0.186628D+00  0.389158D+00 -0.656475D+00  0.897933D-01  0.328476D-02
      3  -0.511179D+00  0.440331D-01  0.850310D-01 -0.105989D+01  0.113677D+00
                11            12            13            14            15 
      1  -0.905277D+00 -0.557325D+00  0.344244D+00 -0.254614D+00  0.101831D+00
      2  -0.106499D+01 -0.552150D-01 -0.307689D+00 -0.602371D-01  0.236973D+00
      3   0.133484D-01 -0.923181D+00  0.143778D-01  0.136248D+00  0.670395D+00
                16            17            18            19            20 
      1  -0.141383D+01  0.372853D+00  0.105529D+01  0.609739D+00 -0.712729D+00
      2   0.411644D+00 -0.977712D+00 -0.152306D+00 -0.332298D+00  0.689688D+00
      3   0.175893D+00  0.141323D+00 -0.288204D+00 -0.864208D-02  0.191990D-01
                21            22            23            24            25 
      1   0.200661D+00  0.275830D+00  0.854072D-01 -0.620606D+00  0.496140D-01
      2  -0.157991D+00 -0.183296D-01  0.151777D+00  0.131508D+00 -0.153519D-01
      3   0.154906D+00 -0.102614D+00 -0.835080D-01  0.769736D+00 -0.544612D-01
                26            27            28            29            30 
      1  -0.470476D-01  0.835251D+00 -0.137321D+00  0.589047D+00 -0.165349D+00
      2   0.127333D+00  0.250560D+00 -0.328228D+00  0.791617D+00 -0.201152D+00
      3  -0.583515D-01  0.759190D+00  0.103397D-01 -0.321272D-02  0.148996D+00
                31            32            33            34            35 
      1   0.149738D+01  0.379375D-01 -0.358927D+00  0.513705D+00  0.888165D+00
      2   0.308742D+00  0.141704D+00 -0.677688D-01 -0.106726D-01  0.215416D+00
      3   0.618337D-02  0.143851D-01  0.121903D+00 -0.850153D-01 -0.230513D+00
                36            37            38            39 
      1  -0.737397D+00  0.694667D+00 -0.110114D+01 -0.298109D+00
      2  -0.348053D-01 -0.335673D+00  0.889899D+00  0.178884D+00
      3   0.302558D+00 -0.409452D-01  0.682970D-01  0.127100D+00
 Hessian after L701:
                1             2             3             4             5 
      1  0.323553D+01
      2  0.444294D+01  0.655660D+01
      3  0.418618D+00  0.947611D+00  0.150721D+02
      4 -0.232316D+00 -0.387953D+00  0.128554D+00  0.108382D+02
      5 -0.474429D+00  0.796018D+00 -0.369733D-02 -0.696773D+01  0.336215D+01
      6  0.134839D+00 -0.405827D-01 -0.436535D-01  0.265566D+01  0.422580D+01
      7  0.561513D+00 -0.234714D+00  0.237544D+00  0.890516D+00  0.316384D+00
      8 -0.153004D+00 -0.510067D-04 -0.689239D-01  0.300489D+00 -0.242724D+00
      9  0.193288D+00 -0.949979D-01 -0.610853D-01 -0.297806D+00 -0.770754D-01
     10  0.475239D+00 -0.452500D-02  0.132075D-01  0.138672D+00  0.247793D+00
     11 -0.118939D+00 -0.285915D+00 -0.326213D-02  0.211860D+00  0.322410D-01
     12  0.273330D-01  0.402437D-01 -0.312978D+00  0.286797D-01  0.236066D-01
     13 -0.530513D+01 -0.397303D+01  0.183075D+00 -0.117564D+02  0.726415D+01
     14 -0.394462D+01 -0.578121D+00 -0.847166D+00  0.727364D+01 -0.437683D+01
     15  0.222546D+00 -0.827927D+00 -0.809621D+01 -0.249599D+01 -0.402848D+01
     16  0.115533D+01  0.238100D+00 -0.963545D+00 -0.105642D+00 -0.391097D+00
     17  0.224602D+00 -0.680686D+01  0.156534D-01 -0.444378D+00  0.444808D+00
     18 -0.903986D+00  0.123646D-01 -0.671497D+01  0.905058D-01 -0.153900D+00
     19  0.812879D-01 -0.115653D+00  0.124115D-01  0.119545D+00  0.413679D-01
     20 -0.128609D+00  0.628302D-01 -0.105155D-01 -0.612729D-01 -0.614710D-01
     21  0.149723D-01 -0.122467D-01 -0.433604D-01  0.142097D-01 -0.145676D-02
     22  0.705143D-02 -0.107395D-01 -0.603531D-01  0.141751D-01  0.359853D-01
     23 -0.370650D-02 -0.296163D-01  0.201786D-01  0.300329D-01 -0.224829D-01
     24 -0.952971D-01  0.446890D-01  0.449769D-01 -0.105677D+00 -0.691066D-01
     25  0.196563D-01  0.110785D-02  0.305130D-01  0.191237D-01  0.398246D-01
     26 -0.459173D-02 -0.238496D-01 -0.420485D-02  0.351920D-01  0.541967D-02
     27  0.723130D-01 -0.361784D-02  0.220147D-01  0.559437D-01  0.498028D-01
     28  0.500756D-01  0.582796D-01  0.323770D-01 -0.685346D-02  0.159488D-01
     29  0.140360D+00  0.201365D-02  0.252102D-01  0.521011D-01  0.567801D-01
     30  0.695498D-02  0.458825D-02 -0.520229D-01 -0.961531D-02 -0.137933D-01
     31  0.779437D-01 -0.856046D-02  0.359132D-02  0.371489D-01  0.303673D-01
     32 -0.855229D-03 -0.182155D-01  0.767906D-03  0.104643D-01 -0.270441D-02
     33 -0.497768D-02  0.804840D-03 -0.190233D-01 -0.987542D-02 -0.565264D-02
     34 -0.347730D-01 -0.625380D-02 -0.434104D-01  0.383078D-01 -0.842919D-01
     35  0.824248D-01  0.149669D+00 -0.107107D+00 -0.385683D-02 -0.917018D-01
     36 -0.821874D-01 -0.961480D-01  0.143584D+00 -0.491037D-01  0.456402D-01
     37 -0.914105D-01  0.994882D-03  0.741774D-02  0.554176D-02 -0.742741D-01
     38 -0.615719D-01  0.175497D+00  0.354562D-01 -0.485841D-01  0.100496D+00
     39 -0.441557D-02  0.252197D-01  0.606534D-01 -0.547784D-02  0.830981D-02
                6             7             8             9            10 
      6  0.171867D+02
      7 -0.391585D+00  0.996700D+01
      8 -0.119136D+00 -0.464553D+00  0.145562D+02
      9 -0.141449D+00  0.407369D+00 -0.437073D+00  0.151456D+02
     10  0.991434D-01 -0.417877D+01  0.167986D+01  0.942207D+00  0.110240D+02
     11  0.691163D-01  0.165602D+01 -0.265324D+01  0.141602D+01 -0.101401D+01
     12 -0.155318D+00  0.929929D+00  0.142147D+01 -0.429971D+01 -0.542725D+00
     13 -0.247009D+01 -0.241769D+00  0.713520D-01 -0.988480D+00  0.322446D+00
     14 -0.400162D+01  0.296216D-01 -0.599986D+01  0.234042D-01  0.785978D-01
     15 -0.164124D+02 -0.100571D+01  0.242247D-01 -0.569055D+01 -0.951001D-03
[...]
 ! R4    R(3,4)                  1.5309         -DE/DX =    0.0                 !
 ! R5    R(3,5)                  1.5018         -DE/DX =    0.0                 !
 ! R6    R(3,7)                  1.0868         -DE/DX =    0.0                 !
 ! R7    R(3,8)                  1.0903         -DE/DX =    0.0                 !
 ! R8    R(4,9)                  1.0892         -DE/DX =    0.0                 !
 ! R9    R(4,10)                 1.0881         -DE/DX =    0.0                 !
 ! R10   R(4,11)                 1.0881         -DE/DX =    0.0                 !
 ! R11   R(6,12)                 1.0753         -DE/DX =    0.0                 !
 ! R12   R(6,13)                 1.074          -DE/DX =    0.0                 !
 ! A1    A(5,1,6)              118.2107         -DE/DX =    0.0                 !
 ! A2    A(4,3,5)              111.2938         -DE/DX =    0.0                 !
 ! A3    A(4,3,7)              111.1455         -DE/DX =    0.0                 !
 ! A4    A(4,3,8)              109.9328         -DE/DX =    0.0                 !
 ! A5    A(5,3,7)              107.1446         -DE/DX =    0.0                 !
 ! A6    A(5,3,8)              108.3914         -DE/DX =    0.0                 !
 ! A7    A(7,3,8)              108.8322         -DE/DX =    0.0                 !
 ! A8    A(3,4,9)              110.7391         -DE/DX =    0.0                 !
 ! A9    A(3,4,10)             110.7872         -DE/DX =    0.0                 !
 ! A10   A(3,4,11)             110.1777         -DE/DX =    0.0                 !
 ! A11   A(9,4,10)             108.4692         -DE/DX =    0.0                 !
 ! A12   A(9,4,11)             108.1759         -DE/DX =    0.0                 !
 ! A13   A(10,4,11)            108.4105         -DE/DX =    0.0                 !
 ! A14   A(1,5,2)              122.7103         -DE/DX =    0.0                 !
 ! A15   A(1,5,3)              110.7138         -DE/DX =    0.0                 !
 ! A16   A(2,5,3)              126.5651         -DE/DX =    0.0                 !
 ! A17   A(1,6,12)             118.5166         -DE/DX =    0.0                 !
 ! A18   A(1,6,13)             113.9467         -DE/DX =    0.0                 !
 ! A19   A(12,6,13)            125.7765         -DE/DX =    0.0                 !
 ! D1    D(6,1,5,2)              0.4523         -DE/DX =    0.0                 !
 ! D2    D(6,1,5,3)            179.3287         -DE/DX =    0.0                 !
 ! D3    D(5,1,6,12)            -8.3502         -DE/DX =    0.0                 !
 ! D4    D(5,1,6,13)          -174.1188         -DE/DX =    0.0                 !
 ! D5    D(5,3,4,9)            -59.3975         -DE/DX =    0.0                 !
 ! D6    D(5,3,4,10)            61.0049         -DE/DX =    0.0                 !
 ! D7    D(5,3,4,11)          -179.0347         -DE/DX =    0.0                 !
 ! D8    D(7,3,4,9)             59.9415         -DE/DX =    0.0                 !
 ! D9    D(7,3,4,10)          -179.6561         -DE/DX =    0.0                 !
 ! D10   D(7,3,4,11)           -59.6956         -DE/DX =    0.0                 !
 ! D11   D(8,3,4,9)           -179.4999         -DE/DX =    0.0                 !
 ! D12   D(8,3,4,10)           -59.0975         -DE/DX =    0.0                 !
 ! D13   D(8,3,4,11)            60.863          -DE/DX =    0.0                 !
 ! D14   D(4,3,5,1)            -68.4202         -DE/DX =    0.0                 !
 ! D15   D(4,3,5,2)            110.4027         -DE/DX =    0.0                 !
 ! D16   D(7,3,5,1)            169.8838         -DE/DX =    0.0                 !
 ! D17   D(7,3,5,2)            -11.2933         -DE/DX =    0.0                 !
 ! D18   D(8,3,5,1)             52.5894         -DE/DX =    0.0                 !
 ! D19   D(8,3,5,2)           -128.5876         -DE/DX =    0.0                 !
 ! D20   D(1,6,12,13)         -163.9227         -DE/DX =    0.0                 !
 --------------------------------------------------------------------------------
 GradGradGradGradGradGradGradGradGradGradGradGradGradGradGradGradGradGrad

 Leave Link  103 at Sat Mar  9 02:52:05 2019, MaxMem=   671088640 cpu:               0.4 elap:               0.1
 (Enter /shared/centos7/gaussian/g16/l9999.exe)

 ----------------------------------------------------------------------

 Electric dipole moment (input orientation):
 (Debye = 10**-18 statcoulomb cm , SI units = C m)
                  (au)            (Debye)         (10**-30 SI)
   Tot        0.843415D+00      0.214375D+01      0.715077D+01
   x          0.158968D+00      0.404055D+00      0.134778D+01
   y         -0.289246D-02     -0.735189D-02     -0.245233D-01
   z         -0.828293D+00     -0.210531D+01     -0.702256D+01

 Dipole polarizability, Alpha (input orientation).
 (esu units = cm**3 , SI units = C**2 m**2 J**-1)
 Alpha(0;0):
               (au)            (10**-24 esu)      (10**-40 SI)
   iso        0.558243D+02      0.827230D+01      0.920418D+01
   aniso      0.190449D+02      0.282217D+01      0.314008D+01
   xx         0.495329D+02      0.734002D+01      0.816688D+01
   yx        -0.723305D+01     -0.107183D+01     -0.119257D+01
   yy         0.616397D+02      0.913406D+01      0.101630D+02
   zx        -0.123127D+00     -0.182455D-01     -0.203008D-01
   zy        -0.563539D+01     -0.835078D+00     -0.929150D+00
   zz         0.563001D+02      0.834282D+01      0.928264D+01

 ----------------------------------------------------------------------

 Dipole orientation:
     8          2.90114817          0.50246235          1.25809139
     8          2.11394552         -1.99732307         -2.08193507
     6          0.56006824         -3.20984670          2.03048599
     6          2.43674759         -4.42962531          3.86335116
     6          1.89065497         -1.57889993          0.12674283
     6          4.19861479          2.16915845         -0.20314559
     1         -0.48449432         -4.63429158          0.98264887
     1         -0.77621761         -2.03636328          3.07096810
     1          3.79488701         -5.59553479          2.84723383
     1          3.46802429         -2.99437514          4.91443490
     1          1.44075064         -5.62730515          5.20556565
     1          4.60002800          1.66259851         -2.12966727
     1          5.09686574          3.65748243          0.84415844

 Electric dipole moment (dipole orientation):
 (Debye = 10**-18 statcoulomb cm , SI units = C m)
                  (au)            (Debye)         (10**-30 SI)
   Tot        0.843415D+00      0.214375D+01      0.715077D+01
   x          0.000000D+00      0.000000D+00      0.000000D+00
   y          0.000000D+00      0.000000D+00      0.000000D+00
   z          0.843415D+00      0.214375D+01      0.715077D+01

 Dipole polarizability, Alpha (dipole orientation).
 (esu units = cm**3 , SI units = C**2 m**2 J**-1)
 Alpha(0;0):
               (au)            (10**-24 esu)      (10**-40 SI)
   iso        0.558243D+02      0.827230D+01      0.920418D+01
   aniso      0.190449D+02      0.282217D+01      0.314008D+01
   xx         0.497224D+02      0.736810D+01      0.819812D+01
   yx         0.816554D+01      0.121001D+01      0.134632D+01
   yy         0.616736D+02      0.913908D+01      0.101686D+02
   zx        -0.110889D+01     -0.164321D+00     -0.182831D+00
   zy        -0.415236D+01     -0.615317D+00     -0.684632D+00
   zz         0.560768D+02      0.830972D+01      0.924581D+01

 ----------------------------------------------------------------------

 Test job not archived.
 1\1\GINC-C0144\Freq\UM062X\6-311+G(2df,2p)\C4H7O2(2)\UNDERKOFFLER.C\09
 -Mar-2019\0\\#P Geom=AllCheck Guess=TCheck SCRF=Check Test GenChk UM06
 2X/6-311+G(2df,2p) Freq\\Gaussian input prepared by ASE\\0,2\O,1.63310
 05401,-0.2676725575,-0.3635448779\O,0.891294691,1.0610746712,1.2891797
 427\C,0.494137699,1.6949793888,-1.005186337\C,1.652454403,2.3374521965
 ,-1.7727410202\C,0.9954732805,0.8356091689,0.1198413927\C,2.1613531807
 ,-1.1467691666,0.5282785174\H,-0.1529791004,2.4504800241,-0.5674059909
 \H,-0.0967451913,1.0718835192,-1.6770653262\H,2.2571232689,2.956499682
 4,-1.1113307321\H,2.2929885936,1.5762254894,-2.2135141183\H,1.26892110
 26,2.9686255863,-2.5717899573\H,2.1779010676,-0.8751452692,1.568589219
 1\H,2.7323687206,-1.936097254,0.0762980334\\Version=EM64L-G16RevA.03\S
 tate=2-A\HF=-307.0074267\S2=0.75487\S2-1=0.\S2A=0.750018\RMSD=2.777e-0
 9\RMSF=3.365e-07\ZeroPoint=0.1048087\Thermal=0.1122499\Dipole=0.158967
 6,-0.0028925,-0.8282928\DipoleDeriv=-0.4805092,0.713799,-0.0761915,0.6
 56474,-1.3562129,0.1161958,-0.0002862,0.0009716,-0.6780568,-0.414324,0
 .1717051,-0.0273377,0.1515477,-0.6331886,0.0094735,0.2820811,-0.395102
 2,-1.094992,0.0504598,0.0010035,0.0075381,0.0280057,-0.0058381,0.12075
 11,-0.0389405,0.1514194,-0.1388389,0.036152,0.0869143,-0.0761428,0.019
 393,0.057487,0.0115669,-0.0026,-0.0018912,0.0653262,0.594397,-0.743151
 6,0.0626722,-0.6544232,1.5355089,-0.0570026,-0.3455573,0.4936734,1.405
 2003,-0.0530602,-0.4151869,0.1172031,-0.3478602,0.3043209,-0.1494603,0
 .1614517,-0.2425482,0.3424785,0.0037233,0.0434323,0.0286782,0.0570036,
 -0.0056515,-0.0030278,0.0546734,-0.0189759,0.018369,0.0149236,-0.03501
 08,-0.042037,-0.0621261,-0.0158872,-0.0178594,-0.0487238,-0.0181571,0.
 0174907,-0.0034211,-0.0697437,-0.0147632,-0.0649117,0.0131099,-0.03184
 88,-0.0552507,-0.0685887,-0.0110335,-0.0092985,0.0306034,0.0535545,0.0
 651917,-0.0119251,-0.0592641,0.0487056,-0.0296644,0.0472511,0.032281,0
 .0174729,-0.0284552,0.0185777,-0.0100035,0.1057865,-0.0268899,0.109093
 5,-0.049082,0.1264347,0.0852321,-0.0028252,0.0576551,0.0628874,-0.0547
 409,-0.0432414,0.0403732,0.0463429,0.1022416,0.1129304,-0.0018937,0.07
 54728,0.0653927,0.0094299,0.0145778,-0.0206036,0.0295447\Polar=49.5329
 366,-7.2330522,61.6396908,-0.1231266,-5.6353864,56.3001226\Quadrupole=
 0.5969489,1.6710576,-2.2680065,-1.4404073,1.7812769,-2.0621142\PG=C01 
 [X(C4H7O2)]\NImag=0\\0.17237169,-0.22485860,0.41904062,0.03567932,-0.0
 4316997,0.37891829,0.01054030,0.02960986,0.03425450,0.05890355,0.02938
 927,-0.02545452,-0.06164499,-0.05164275,0.12335260,0.03851228,-0.06838
 947,-0.05195707,-0.07088260,0.15368057,0.86648264,-0.00360662,0.024118
 89,-0.01510930,0.02199701,0.00639080,0.00171716,0.51874135,0.02458848,
 -0.03104234,0.02287759,0.00584087,0.01748504,-0.00585351,-0.04655578,0
 .56517651,0.00395216,-0.00713009,0.01063163,-0.01022630,0.01759613,-0.
 04484109,0.01288377,0.07837639,0.52985157,-0.00299912,0.00304201,0.000
 66460,-0.00384461,-0.00006153,-0.00593819,-0.14389343,-0.03132370,0.04
 030043,0.51514487,0.00120832,0.00057606,-0.00003781,0.00145636,0.00085
 121,-0.00042817,-0.03693457,-0.09852335,0.02250987,-0.03875547,0.56421
 237,0.00068495,-0.00093523,-0.00050868,-0.00412185,-0.00033005,-0.0014
 5993,0.04721318,0.02396245,-0.10094218,0.04346905,0.02224764,0.5546606
 6,-0.10307577,0.06144972,0.01161038,-0.08941468,0.02080646,0.03573717,
 -0.10556266,0.02321158,-0.03680035,0.01706628,-0.01692232,0.02069620,0
 .31775317,0.06306941,-0.17412619,-0.02149137,0.02113902,-0.11814236,-0
 .08737012,0.02706245,-0.12619205,0.05582703,-0.00330933,-0.01216012,0.
 01622245,-0.14020503,0.47885233,0.01016642,-0.01938923,-0.11959000,0.0
 4528125,-0.10480889,-0.76524252,-0.03674743,0.05228071,-0.14038791,0.0
 0426277,0.01316914,-0.01935748,-0.00244997,0.03033654,1.04020195,-0.06
 497956,0.09528015,-0.05471322,-0.00071749,-0.00451010,-0.00580844,0.00
 160672,0.00153086,0.00194472,-0.00015645,0.00039091,-0.00034623,-0.017
 15231,0.03494291,-0.01091696,0.20329362,0.08810697,-0.16560691,0.07452
 118,-0.00468729,0.00539764,0.00543510,0.00141120,0.00029827,-0.0028684
 4,0.00012614,-0.00018647,-0.00035217,0.03322526,-0.05309535,0.02477495
 ,-0.28899110,0.47741286,-0.06211064,0.10290517,-0.20843369,0.00377893,
 -0.00628888,-0.00584243,0.00279899,-0.00434289,-0.00093639,-0.00006317
 ,0.00039304,0.00012125,-0.00877071,0.01535585,0.02185600,-0.00058332,0
 .08758521,0.65513928,-0.00004946,0.00181192,-0.00190890,0.00107732,-0.
 00195618,0.00018938,-0.14394689,0.11419318,0.06035921,-0.01510265,0.01
 639519,0.01024531,-0.00845243,0.00804030,0.00701740,0.00020487,0.00030
 995,0.00047099,0.15520290,0.00309304,-0.00356698,0.00441454,-0.0021966
 1,0.00206701,-0.00035708,0.11413965,-0.18465389,-0.07609687,-0.0105235
 0,0.01275073,0.00703062,0.01081063,-0.01537759,-0.01150820,0.00012923,
 0.00020891,-0.00090721,-0.12368880,0.20007553,-0.00268168,0.00483441,-
 0.00386582,0.00086965,-0.00062320,0.00100809,0.06532195,-0.08279976,-0
 .09461897,0.01004659,-0.01116629,-0.00700677,-0.01565974,0.01806407,0.
 01045240,-0.00031300,0.00081432,0.00073889,-0.07118150,0.08109610,0.10
 066324,0.00087829,0.00079928,0.00112683,0.00037719,0.00108782,-0.00080
 961,-0.12276059,-0.07621854,-0.09164788,-0.01592775,-0.01565914,-0.014
 51284,-0.00678139,-0.00910812,-0.00661700,-0.00012648,0.00065556,-0.00
 031840,0.01230119,0.00981337,0.01243444,0.13295171,-0.00050187,-0.0010
 4269,-0.00030512,-0.00166173,-0.00266209,0.00387946,-0.07712801,-0.136
 00890,-0.09672176,-0.00857956,-0.00827067,-0.00856289,0.01234436,0.014
 03758,0.01032135,-0.00018011,-0.00016027,0.00024660,-0.01287072,-0.011
 51885,-0.01281207,0.08952764,0.14466189,0.00196270,0.00020884,0.001927
 93,0.00000653,0.00550095,-0.00384956,-0.09388619,-0.09651443,-0.150306
 32,0.01158406,0.01141797,0.01223152,-0.01308185,-0.01884414,-0.0184898
 8,0.00003060,0.00088098,-0.00041813,-0.00619236,-0.00517191,-0.0071271
 4,0.09767320,0.10177258,0.16576992,0.00015103,-0.00030514,0.00026436,0
 .00007228,0.00021412,0.00109278,-0.01451488,-0.01495115,-0.01407259,-0
 .12808121,-0.08209018,-0.09120510,0.00004830,0.00060894,-0.00244028,-0
 .00007323,-0.00001834,-0.00009782,0.00050123,0.00063065,-0.00057368,-0
 .00291478,-0.00205321,0.00343334,0.13927251,0.00047318,-0.00036683,0.0
 0043224,0.00034881,0.00010268,0.00084474,-0.00739337,-0.00868890,-0.00
 674424,-0.08255325,-0.13518597,-0.09462081,-0.00111832,-0.00001305,-0.
 00224489,-0.00005843,0.00006364,-0.00004039,0.00046171,0.00059436,0.00
 031901,-0.00192584,-0.00001823,0.00181098,0.09411524,0.14351774,-0.000
 12310,-0.00033855,-0.00007876,-0.00009836,-0.00072503,0.00003877,0.010
 99374,0.01188458,0.01118728,-0.09267806,-0.09537206,-0.15194807,0.0001
 5281,0.00061660,0.00222388,0.00001788,0.00003584,0.00002469,-0.0008221
 7,-0.00053018,0.00070613,0.00339556,0.00223325,-0.00142965,0.09769038,
 0.10202687,0.16157799,0.00057120,-0.00016403,-0.00082658,0.00045662,-0
 .00047881,0.00003983,-0.01623179,0.01731505,0.01100381,-0.13951150,0.1
 1178501,0.06269162,-0.00079061,0.00218076,-0.00024650,0.00028057,-0.00
 047978,0.00005552,-0.00277181,-0.00319445,0.00236941,0.00065212,0.0004
 8895,-0.00067996,0.01228209,-0.01341168,-0.00691072,0.15210218,-0.0005
 8554,-0.00042945,0.00048098,0.00006205,-0.00013055,-0.00007098,-0.0099
 6565,0.01159193,0.00682783,0.11402963,-0.18563042,-0.07959767,0.000399
 68,0.00095499,0.00007231,0.00005166,-0.00016561,0.00003065,-0.00277206
 ,-0.00085643,0.00230269,0.00066397,0.00085210,-0.00052531,0.01041421,-
 0.01224138,-0.00548847,-0.12144463,0.19865640,-0.00076954,0.00052436,0
 .00061536,-0.00041195,0.00076723,0.00015803,0.01001273,-0.01071557,-0.
 00813266,0.06222669,-0.07784255,-0.09200918,0.00176167,-0.00326506,-0.
 00057919,-0.00038372,0.00052665,-0.00028520,0.00230346,0.00209523,-0.0
 0072078,-0.00071166,0.00025006,0.00070958,0.01246229,-0.01354515,-0.00
 812666,-0.07210118,0.08399420,0.09689366,0.00138984,-0.00073527,-0.000
 40398,0.00155720,-0.00007774,0.00196349,0.00809577,-0.01819590,0.02175
 442,-0.08263664,0.05907720,-0.07479512,-0.00684871,-0.00027140,0.00090
 891,0.00020446,-0.00016301,0.00002400,0.00111072,0.00079269,-0.0004844
 2,0.00134085,0.00055621,-0.00087677,-0.00675710,0.01110163,-0.01161044
 ,-0.00702464,0.00914977,-0.01449313,0.08957768,0.00009721,-0.00042543,
 0.00047456,0.00054915,0.00001482,0.00119381,0.00440915,-0.00855547,0.0
 0949642,0.05783988,-0.13850662,0.11499850,-0.00284023,-0.00007014,-0.0
 0055863,-0.00015959,0.00021232,-0.00014159,-0.00005167,0.00061694,-0.0
 0031110,0.00051701,-0.00005120,-0.00030216,-0.00654304,0.01232295,-0.0
 1434236,0.00733036,-0.01262274,0.01722187,-0.06119522,0.14709540,-0.00
 056287,0.00024492,0.00046825,-0.00072424,0.00021939,-0.00064795,-0.004
 58208,0.00969214,-0.01234083,-0.07372590,0.11513551,-0.19382065,0.0042
 4830,-0.00069306,0.00031093,-0.00017024,0.00017382,-0.00013126,-0.0003
 4057,-0.00043449,0.00004256,-0.00008943,-0.00029182,0.00085170,-0.0065
 8461,0.01171581,-0.01416447,0.00462134,-0.00797992,0.01144967,0.077963
 10,-0.12777731,0.20800009,-0.00084943,0.00005130,-0.01387240,-0.001293
 68,0.00112907,0.00268136,-0.00003729,0.00007319,0.00023620,0.00005451,
 -0.00000012,0.00002242,0.00105961,-0.00280440,-0.00432664,-0.01724295,
 0.02282795,-0.00722211,-0.00004342,0.00010263,-0.00003225,0.00002086,0
 .00003254,0.00004299,0.00000160,-0.00001997,-0.00000619,-0.00004310,-0
 .00000710,0.00008286,-0.00003799,0.00001399,-0.00000462,0.01665652,0.0
 0387657,0.00302265,0.02849990,0.00126649,-0.00301364,-0.00198953,-0.00
 009666,-0.00023676,-0.00041798,0.00000233,0.00003956,-0.00004114,-0.00
 177474,0.00316565,0.00373408,0.02336079,-0.06609548,-0.09573214,0.0000
 5368,-0.00014257,0.00002264,-0.00012172,0.00012893,-0.00019286,-0.0000
 1072,-0.00005610,0.00000317,0.00006694,0.00003458,-0.00004478,0.000006
 25,-0.00001954,-0.00001055,-0.02189058,0.06265130,-0.00588932,0.002614
 64,-0.01880091,0.00152169,-0.00225515,0.00233876,-0.00017745,0.0001570
 0,0.00008230,-0.00002696,-0.00003928,0.00000070,0.00256487,-0.00389852
 ,-0.00323070,-0.00562531,-0.07692485,-0.34020582,-0.00000753,0.0001112
 2,-0.00001768,0.00007777,0.00002526,0.00006950,0.00000526,0.00004329,0
 .00000116,-0.00005773,-0.00004013,0.00003509,0.00000542,0.00003069,0.0
 0001508,0.00962153,0.07988103,0.35939538,-0.01034239,0.00989991,0.0032
 3438,0.00028897,-0.00029044,0.00150539,0.00011329,0.00049186,0.0003124
 1,-0.00011231,0.00004881,-0.00004159,0.00215121,-0.00134551,-0.0038919
 7,-0.10514176,0.14767650,0.07203773,-0.00003158,0.00009146,-0.00011576
 ,-0.00001121,0.00002550,-0.00001631,0.00001217,-0.00001970,-0.00000135
 ,0.00002866,0.00000402,0.00002150,0.00002855,0.00003300,-0.00004817,0.
 00175477,-0.00473863,-0.00201223,0.11126162,0.01204356,-0.02057800,-0.
 00505174,-0.00008424,0.00013215,-0.00057481,0.00054191,-0.00065010,-0.
 00065430,0.00006634,0.00003368,-0.00002169,0.00061296,0.00216630,0.003
 82077,0.13821282,-0.19828356,-0.09906341,0.00007349,-0.00019718,0.0002
 5917,-0.00003127,0.00005239,-0.00004150,-0.00001136,-0.00003090,-0.000
 00364,0.00000631,-0.00001342,0.00003352,-0.00004522,-0.00001130,0.0000
 0554,0.00049150,0.00052140,0.00029478,-0.15187678,0.21685854,-0.018820
 68,0.02802020,0.01067346,0.00075275,-0.00108808,0.00381425,-0.00043907
 ,0.00099531,0.00075357,-0.00012189,0.00001300,0.00003882,-0.00000878,-
 0.00086028,-0.00816748,0.07686725,-0.11460259,-0.12162720,-0.00013274,
 0.00025823,-0.00025415,-0.00000098,-0.00003491,0.00006054,0.00002567,0
 .00000253,-0.00001229,0.00004115,-0.00000618,-0.00000773,0.00004452,0.
 00001730,-0.00003311,0.01277684,-0.01371184,0.00031712,-0.07098404,0.1
 0099731,0.11444419\\-0.00000016,-0.00000009,0.00000010,-0.00000048,0.0
 0000017,-0.00000008,0.00000017,0.00000007,-0.00000033,0.00000049,-0.00
 000014,-0.00000005,-0.00000015,0.00000003,0.,-0.00000056,0.00000015,0.
 00000017,0.00000018,0.00000016,-0.00000053,0.00000033,0.00000012,-0.00
 000044,0.00000034,-0.00000014,0.00000009,0.00000048,-0.00000017,0.0000
 0023,0.00000078,-0.00000013,-0.00000013,-0.00000086,0.00000007,0.00000
 040,-0.00000056,-0.00000012,0.00000057\\\@


 ROSE IS A RED
 TY COBB IS BLUE
 'CAUSE PETE JUST HIT
 NO. 4592.
 Job cpu time:       0 days  1 hours 46 minutes 26.4 seconds.
 Elapsed time:       0 days  0 hours  5 minutes 20.0 seconds.
 File lengths (MBytes):  RWF=   1392 Int=      0 D2E=      0 Chk=     32 Scr=     32
 Normal termination of Gaussian 16 at Sat Mar  9 02:52:05 2019.
