 Entering Gaussian System, Link 0=g16
 Input=ZMAYDFGNKOVZRH-UHFFFAOYSA-N_36by10.0_tor13_a1.com
 Output=ZMAYDFGNKOVZRH-UHFFFAOYSA-N_36by10.0_tor13_a1.log
 Initial command:
 /shared/centos7/gaussian/g16/l1.exe "/scratch/underkoffler.c/gaussian_scratch/Gau-43214.inp" -scrdir="/scratch/underkoffler.c/gaussian_scratch/"
 Entering Link 1 = /shared/centos7/gaussian/g16/l1.exe PID=     43215.
  
 Copyright (c) 1988,1990,1992,1993,1995,1998,2003,2009,2016,
            Gaussian, Inc.  All Rights Reserved.
  
 This is part of the Gaussian(R) 16 program.  It is based on
 the Gaussian(R) 09 system (copyright 2009, Gaussian, Inc.),
 the Gaussian(R) 03 system (copyright 2003, Gaussian, Inc.),
 the Gaussian(R) 98 system (copyright 1998, Gaussian, Inc.),
 the Gaussian(R) 94 system (copyright 1995, Gaussian, Inc.),
 the Gaussian 92(TM) system (copyright 1992, Gaussian, Inc.),
 the Gaussian 90(TM) system (copyright 1990, Gaussian, Inc.),
 the Gaussian 88(TM) system (copyright 1988, Gaussian, Inc.),
 the Gaussian 86(TM) system (copyright 1986, Carnegie Mellon
 University), and the Gaussian 82(TM) system (copyright 1983,
 Carnegie Mellon University). Gaussian is a federally registered
 trademark of Gaussian, Inc.
  
 This software contains proprietary and confidential information,
 including trade secrets, belonging to Gaussian, Inc.
  
 This software is provided under written license and may be
 used, copied, transmitted, or stored only in accord with that
 written license.
  
 The following legend is applicable only to US Government
 contracts under FAR:
  
                    RESTRICTED RIGHTS LEGEND
  
 Use, reproduction and disclosure by the US Government is
 subject to restrictions as set forth in subparagraphs (a)
 and (c) of the Commercial Computer Software - Restricted
 Rights clause in FAR 52.227-19.
  
 Gaussian, Inc.
 340 Quinnipiac St., Bldg. 40, Wallingford CT 06492
  
  
 ---------------------------------------------------------------
 Warning -- This program may not be used in any manner that
 competes with the business of Gaussian, Inc. or will provide
 assistance to any competitor of Gaussian, Inc.  The licensee
 of this program is prohibited from giving any competitor of
 Gaussian, Inc. access to this program.  By using this program,
 the user acknowledges that Gaussian, Inc. is engaged in the
 business of creating and licensing software in the field of
 computational chemistry and represents and warrants to the
 licensee that it is not a competitor of Gaussian, Inc. and that
 it will not use this program in any manner prohibited above.
 ---------------------------------------------------------------
  

 Cite this work as:
 Gaussian 16, Revision A.03,
 M. J. Frisch, G. W. Trucks, H. B. Schlegel, G. E. Scuseria, 
 M. A. Robb, J. R. Cheeseman, G. Scalmani, V. Barone, 
 G. A. Petersson, H. Nakatsuji, X. Li, M. Caricato, A. V. Marenich, 
 J. Bloino, B. G. Janesko, R. Gomperts, B. Mennucci, H. P. Hratchian, 
 J. V. Ortiz, A. F. Izmaylov, J. L. Sonnenberg, D. Williams-Young, 
 F. Ding, F. Lipparini, F. Egidi, J. Goings, B. Peng, A. Petrone, 
 T. Henderson, D. Ranasinghe, V. G. Zakrzewski, J. Gao, N. Rega, 
 G. Zheng, W. Liang, M. Hada, M. Ehara, K. Toyota, R. Fukuda, 
 J. Hasegawa, M. Ishida, T. Nakajima, Y. Honda, O. Kitao, H. Nakai, 
 T. Vreven, K. Throssell, J. A. Montgomery, Jr., J. E. Peralta, 
 F. Ogliaro, M. J. Bearpark, J. J. Heyd, E. N. Brothers, K. N. Kudin, 
 V. N. Staroverov, T. A. Keith, R. Kobayashi, J. Normand, 
 K. Raghavachari, A. P. Rendell, J. C. Burant, S. S. Iyengar, 
 J. Tomasi, M. Cossi, J. M. Millam, M. Klene, C. Adamo, R. Cammi, 
 J. W. Ochterski, R. L. Martin, K. Morokuma, O. Farkas, 
 J. B. Foresman, and D. J. Fox, Gaussian, Inc., Wallingford CT, 2016.
 
 ******************************************
 Gaussian 16:  EM64L-G16RevA.03 25-Dec-2016
                11-Mar-2019 
 ******************************************
 %nprocshared=20
 Will use up to   20 processors via shared memory.
 %mem=5GB
 ----------------------------------------------
 #p m062x/6-311+g(2df,2p) Opt=(CalcFC,ModRedun)
 ----------------------------------------------
 1/10=4,18=120,19=15,26=3,38=1/1,3;
 2/9=110,12=2,17=6,18=5,40=1/2;
 3/5=4,6=6,7=214,11=2,25=1,30=1,71=2,74=-55,140=1/1,2,3;
 4//1;
 5/5=2,38=5/2;
 8/6=4,10=90,11=11/1;
 11/6=1,8=1,9=11,15=111,16=1/1,2,10;
 10/6=1,13=1/2;
 6/7=2,8=2,9=2,10=2,28=1/1;
 7/10=1,18=20,25=1/1,2,3,16;
 1/10=4,18=20,19=15,26=3/3(2);
 2/9=110/2;
 99//99;
 2/9=110/2;
 3/5=4,6=6,7=214,11=2,25=1,30=1,71=1,74=-55/1,2,3;
 4/5=5,16=3,69=1/1;
 5/5=2,38=5/2;
 7//1,2,3,16;
 1/18=20,19=15,26=3/3(-5);
 2/9=110/2;
 6/7=2,8=2,9=2,10=2,19=2,28=1/1;
 99/9=1/99;
 Leave Link    1 at Mon Mar 11 00:05:13 2019, MaxMem=   671088640 cpu:              37.4 elap:               2.0
 (Enter /shared/centos7/gaussian/g16/l101.exe)
 ----------------------------------------
 Gaussian Input Prepared from Scan Object
 ----------------------------------------
 Symbolic Z-matrix:
 Charge =  0 Multiplicity = 2
 O                     0.6234   -0.74188   0.57214 
 C                    -0.72907  -0.71545   0.19034 
 C                     1.31729   0.40542   0.15995 
 C                    -1.40632  -1.93323   0.68142 
 H                    -1.20703   0.19397   0.59728 
 H                    -0.8129   -0.63662  -0.90488 
 H                     0.88405   1.31051   0.6001 
 H                     2.3469    0.30499   0.49355 
 H                     1.3025    0.50737  -0.93086 
 H                    -0.95974  -2.49979   1.48267 
 H                    -2.40156  -2.17389   0.34409 
 
 The following ModRedundant input section has been read:
 B       4      11 B                                                           
 B       1       2 B                                                           
 B       2       6 B                                                           
 B       2       4 B                                                           
 B       3       7 B                                                           
 B       3       8 B                                                           
 B       3       9 B                                                           
 B       2       5 B                                                           
 B       4      10 B                                                           
 B       1       3 B                                                           
 D       6       2       4      11 S  36 10.000                                
 
 ITRead=  0  0  0  0  0  0  0  0  0  0  0
 MicOpt= -1 -1 -1 -1 -1 -1 -1 -1 -1 -1 -1
 NAtoms=     11 NQM=       11 NQMF=       0 NMMI=      0 NMMIF=      0
                NMic=       0 NMicF=      0.
                    Isotopes and Nuclear Properties:
 (Nuclear quadrupole moments (NQMom) in fm**2, nuclear magnetic moments (NMagM)
  in nuclear magnetons)

  Atom         1           2           3           4           5           6           7           8           9          10
 IAtWgt=          16          12          12          12           1           1           1           1           1           1
 AtmWgt=  15.9949146  12.0000000  12.0000000  12.0000000   1.0078250   1.0078250   1.0078250   1.0078250   1.0078250   1.0078250
 NucSpn=           0           0           0           0           1           1           1           1           1           1
 AtZEff=  -0.0000000  -0.0000000  -0.0000000  -0.0000000  -0.0000000  -0.0000000  -0.0000000  -0.0000000  -0.0000000  -0.0000000
 NQMom=    0.0000000   0.0000000   0.0000000   0.0000000   0.0000000   0.0000000   0.0000000   0.0000000   0.0000000   0.0000000
 NMagM=    0.0000000   0.0000000   0.0000000   0.0000000   2.7928460   2.7928460   2.7928460   2.7928460   2.7928460   2.7928460
 AtZNuc=   8.0000000   6.0000000   6.0000000   6.0000000   1.0000000   1.0000000   1.0000000   1.0000000   1.0000000   1.0000000

  Atom        11
 IAtWgt=           1
 AtmWgt=   1.0078250
 NucSpn=           1
 AtZEff=  -0.0000000
 NQMom=    0.0000000
 NMagM=    2.7928460
 AtZNuc=   1.0000000
 Leave Link  101 at Mon Mar 11 00:05:14 2019, MaxMem=   671088640 cpu:               5.2 elap:               0.3
 (Enter /shared/centos7/gaussian/g16/l103.exe)

 GradGradGradGradGradGradGradGradGradGradGradGradGradGradGradGradGradGrad
 Berny optimization.
 Initialization pass.
                           ----------------------------
                           !    Initial Parameters    !
                           ! (Angstroms and Degrees)  !
 --------------------------                            --------------------------
 ! Name  Definition              Value          Derivative Info.                !
 --------------------------------------------------------------------------------
 ! R1    R(1,2)                  1.4056         calculate D2E/DX2 analytically  !
 ! R2    R(1,3)                  1.4027         calculate D2E/DX2 analytically  !
 ! R3    R(2,4)                  1.4774         calculate D2E/DX2 analytically  !
 ! R4    R(2,5)                  1.105          calculate D2E/DX2 analytically  !
 ! R5    R(2,6)                  1.1012         calculate D2E/DX2 analytically  !
 ! R6    R(3,7)                  1.0957         calculate D2E/DX2 analytically  !
 ! R7    R(3,8)                  1.087          calculate D2E/DX2 analytically  !
 ! R8    R(3,9)                  1.0957         calculate D2E/DX2 analytically  !
 ! R9    R(4,10)                 1.0782         calculate D2E/DX2 analytically  !
 ! R10   R(4,11)                 1.0781         calculate D2E/DX2 analytically  !
 ! A1    A(2,1,3)              112.3824         calculate D2E/DX2 analytically  !
 ! A2    A(1,2,4)              109.5906         calculate D2E/DX2 analytically  !
 ! A3    A(1,2,5)              109.3676         calculate D2E/DX2 analytically  !
 ! A4    A(1,2,6)              110.1653         calculate D2E/DX2 analytically  !
 ! A5    A(4,2,5)              110.9576         calculate D2E/DX2 analytically  !
 ! A6    A(4,2,6)              110.7739         calculate D2E/DX2 analytically  !
 ! A7    A(5,2,6)              105.9263         calculate D2E/DX2 analytically  !
 ! A8    A(1,3,7)              111.2213         calculate D2E/DX2 analytically  !
 ! A9    A(1,3,8)              107.6266         calculate D2E/DX2 analytically  !
 ! A10   A(1,3,9)              111.2216         calculate D2E/DX2 analytically  !
 ! A11   A(7,3,8)              109.121          calculate D2E/DX2 analytically  !
 ! A12   A(7,3,9)              108.525          calculate D2E/DX2 analytically  !
 ! A13   A(8,3,9)              109.0832         calculate D2E/DX2 analytically  !
 ! A14   A(2,4,10)             119.3592         calculate D2E/DX2 analytically  !
 ! A15   A(2,4,11)             120.2106         calculate D2E/DX2 analytically  !
 ! A16   A(10,4,11)            119.8425         calculate D2E/DX2 analytically  !
 ! D1    D(3,1,2,4)           -178.6727         calculate D2E/DX2 analytically  !
 ! D2    D(3,1,2,5)            -56.8338         calculate D2E/DX2 analytically  !
 ! D3    D(3,1,2,6)             59.2029         calculate D2E/DX2 analytically  !
 ! D4    D(2,1,3,7)             60.4809         calculate D2E/DX2 analytically  !
 ! D5    D(2,1,3,8)            179.9583         calculate D2E/DX2 analytically  !
 ! D6    D(2,1,3,9)            -60.6105         calculate D2E/DX2 analytically  !
 ! D7    D(1,2,4,10)            19.3575         calculate D2E/DX2 analytically  !
 ! D8    D(1,2,4,11)          -169.445          calculate D2E/DX2 analytically  !
 ! D9    D(5,2,4,10)          -101.5234         calculate D2E/DX2 analytically  !
 ! D10   D(5,2,4,11)            69.6741         calculate D2E/DX2 analytically  !
 ! D11   D(6,2,4,10)           141.1175         calculate D2E/DX2 analytically  !
 ! D12   D(6,2,4,11)           -47.685          Scan                            !
 --------------------------------------------------------------------------------
 Trust Radius=3.00D-01 FncErr=1.00D-07 GrdErr=1.00D-06 EigMax=2.50D+02 EigMin=1.00D-04
 Number of optimizations in scan=  37
 Number of steps in this run=     48 maximum allowed number of steps=    100.
 GradGradGradGradGradGradGradGradGradGradGradGradGradGradGradGradGradGrad

 Leave Link  103 at Mon Mar 11 00:05:14 2019, MaxMem=   671088640 cpu:               0.1 elap:               0.0
 (Enter /shared/centos7/gaussian/g16/l202.exe)
                          Input orientation:                          
 ---------------------------------------------------------------------
 Center     Atomic      Atomic             Coordinates (Angstroms)
 Number     Number       Type             X           Y           Z
 ---------------------------------------------------------------------
      1          8           0        0.623402   -0.741876    0.572138
      2          6           0       -0.729071   -0.715453    0.190343
      3          6           0        1.317293    0.405419    0.159946
      4          6           0       -1.406320   -1.933228    0.681420
      5          1           0       -1.207026    0.193969    0.597276
      6          1           0       -0.812896   -0.636617   -0.904878
      7          1           0        0.884052    1.310513    0.600103
      8          1           0        2.346900    0.304986    0.493546
      9          1           0        1.302499    0.507375   -0.930858
     10          1           0       -0.959736   -2.499792    1.482668
     11          1           0       -2.401565   -2.173892    0.344087
 ---------------------------------------------------------------------
                    Distance matrix (angstroms):
                    1          2          3          4          5
     1  O    0.000000
     2  C    1.405578   0.000000
     3  C    1.402738   2.333427   0.000000
     4  C    2.356062   1.477429   3.627570   0.000000
     5  H    2.055943   1.105027   2.570632   2.138169   0.000000
     6  H    2.062911   1.101249   2.599498   2.133000   1.761158
     7  H    2.069063   2.621948   1.095733   3.971683   2.370503
     8  H    2.018055   3.254970   1.086953   4.373964   3.557172
     9  H    2.069009   2.622914   1.095659   3.986688   2.954849
    10  H    2.534888   2.215215   3.921059   1.078161   2.846300
    11  H    3.354564   2.224391   4.529531   1.078066   2.664169
                    6          7          8          9         10
     6  H    0.000000
     7  H    2.989300   0.000000
     8  H    3.581412   1.778304   0.000000
     9  H    2.405054   1.778755   1.777825   0.000000
    10  H    3.032055   4.323992   4.447357   4.470556   0.000000
    11  H    2.539094   4.796030   5.358647   4.747080   1.865864
                   11
    11  H    0.000000
 Stoichiometry    C3H7O(2)
 Framework group  C1[X(C3H7O)]
 Deg. of freedom    27
 Full point group                 C1      NOp   1
 Largest Abelian subgroup         C1      NOp   1
 Largest concise Abelian subgroup C1      NOp   1
                         Standard orientation:                         
 ---------------------------------------------------------------------
 Center     Atomic      Atomic             Coordinates (Angstroms)
 Number     Number       Type             X           Y           Z
 ---------------------------------------------------------------------
      1          8           0        0.449200   -0.505755   -0.051685
      2          6           0       -0.557413    0.472411    0.022960
      3          6           0        1.736903    0.047179    0.009622
      4          6           0       -1.883612   -0.177639   -0.014818
      5          1           0       -0.430798    1.058458    0.951185
      6          1           0       -0.450820    1.190790   -0.804880
      7          1           0        1.892357    0.587039    0.950375
      8          1           0        2.449752   -0.770955   -0.053382
      9          1           0        1.911387    0.739149   -0.821763
     10          1           0       -1.965566   -1.225745    0.224323
     11          1           0       -2.775175    0.415597   -0.138963
 ---------------------------------------------------------------------
 Rotational constants (GHZ):          31.3443507           4.4178814           4.0764894
 Leave Link  202 at Mon Mar 11 00:05:14 2019, MaxMem=   671088640 cpu:               0.2 elap:               0.0
 (Enter /shared/centos7/gaussian/g16/l301.exe)
 Standard basis: 6-311+G(2df,2p) (5D, 7F)
 Ernie: Thresh=  0.10000D-02 Tol=  0.10000D-05 Strict=F.
 There are   219 symmetry adapted cartesian basis functions of A   symmetry.
 There are   199 symmetry adapted basis functions of A   symmetry.
   199 basis functions,   285 primitive gaussians,   219 cartesian basis functions
    17 alpha electrons       16 beta electrons
       nuclear repulsion energy       126.4067851384 Hartrees.
 IExCor= 4336 DFT=T Ex+Corr=M062X ExCW=0 ScaHFX=  0.540000
 ScaDFX=  1.000000  1.000000  1.000000  1.000000 ScalE2=  1.000000  1.000000
 IRadAn=      5 IRanWt=     -1 IRanGd=            0 ICorTp=0 IEmpDi=  4
 NAtoms=   11 NActive=   11 NUniq=   11 SFac= 1.00D+00 NAtFMM=   60 NAOKFM=F Big=F
 Integral buffers will be    131072 words long.
 Raffenetti 2 integral format.
 Two-electron integral symmetry is turned on.
 Leave Link  301 at Mon Mar 11 00:05:14 2019, MaxMem=   671088640 cpu:               0.9 elap:               0.1
 (Enter /shared/centos7/gaussian/g16/l302.exe)
 NPDir=0 NMtPBC=     1 NCelOv=     1 NCel=       1 NClECP=     1 NCelD=      1
         NCelK=      1 NCelE2=     1 NClLst=     1 CellRange=     0.0.
 One-electron integrals computed using PRISM.
 One-electron integral symmetry used in STVInt
 NBasis=   199 RedAO= T EigKep=  8.53D-05  NBF=   199
 NBsUse=   199 1.00D-06 EigRej= -1.00D+00 NBFU=   199
 Precomputing XC quadrature grid using
 IXCGrd= 4 IRadAn=           5 IRanWt=          -1 IRanGd=           0 AccXCQ= 0.00D+00.
 Generated NRdTot=       0 NPtTot=           0 NUsed=           0 NTot=          32
 NSgBfM=   219   219   219   219   219 MxSgAt=    11 MxSgA2=    11.
 Leave Link  302 at Mon Mar 11 00:05:14 2019, MaxMem=   671088640 cpu:               6.0 elap:               0.3
 (Enter /shared/centos7/gaussian/g16/l303.exe)
 DipDrv:  MaxL=1.
 Leave Link  303 at Mon Mar 11 00:05:14 2019, MaxMem=   671088640 cpu:               0.8 elap:               0.1
 (Enter /shared/centos7/gaussian/g16/l401.exe)
 ExpMin= 4.38D-02 ExpMax= 8.59D+03 ExpMxC= 1.30D+03 IAcc=3 IRadAn=         5 AccDes= 0.00D+00
 Harris functional with IExCor= 1009 and IRadAn=       5 diagonalized for initial guess.
 HarFok:  IExCor= 1009 AccDes= 0.00D+00 IRadAn=         5 IDoV= 1 UseB2=F ITyADJ=14
 ICtDFT=  3500011 ScaDFX=  1.000000  1.000000  1.000000  1.000000
 FoFCou: FMM=F IPFlag=           0 FMFlag=      100000 FMFlg1=           0
         NFxFlg=           0 DoJE=T BraDBF=F KetDBF=T FulRan=T
         wScrn=  0.000000 ICntrl=       500 IOpCl=  0 I1Cent=   200000004 NGrid=           0
         NMat0=    1 NMatS0=      1 NMatT0=    0 NMatD0=    1 NMtDS0=    0 NMtDT0=    0
 Petite list used in FoFCou.
 Harris En= -193.557517127971    
 JPrj=0 DoOrth=F DoCkMO=F.
 Initial guess <Sx>= 0.0000 <Sy>= 0.0000 <Sz>= 0.5000 <S**2>= 0.7500 S= 0.5000
 Leave Link  401 at Mon Mar 11 00:05:15 2019, MaxMem=   671088640 cpu:              11.7 elap:               0.6
 (Enter /shared/centos7/gaussian/g16/l502.exe)
 Keep R1 and R2 ints in memory in canonical form, NReq=416958841.
 FoFCou: FMM=F IPFlag=           0 FMFlag=           0 FMFlg1=           0
         NFxFlg=           0 DoJE=F BraDBF=F KetDBF=F FulRan=T
         wScrn=  0.000000 ICntrl=       600 IOpCl=  0 I1Cent=           0 NGrid=           0
         NMat0=    1 NMatS0=  19900 NMatT0=    0 NMatD0=    1 NMtDS0=    0 NMtDT0=    0
 Symmetry not used in FoFCou.
 Two-electron integral symmetry not used.
 UHF open shell SCF:
 Using DIIS extrapolation, IDIIS=  1040.
 NGot=   671088640 LenX=   274956345 LenY=   274907943
 Requested convergence on RMS density matrix=1.00D-08 within 128 cycles.
 Requested convergence on MAX density matrix=1.00D-06.
 Requested convergence on             energy=1.00D-06.
 No special actions if energy rises.

 Cycle   1  Pass 1  IDiag  1:
 E= -193.523128626788    
 DIIS: error= 2.20D-02 at cycle   1 NSaved=   1.
 NSaved= 1 IEnMin= 1 EnMin= -193.523128626788     IErMin= 1 ErrMin= 2.20D-02
 ErrMax= 2.20D-02  0.00D+00 EMaxC= 1.00D-01 BMatC= 5.72D-01 BMatP= 5.72D-01
 IDIUse=3 WtCom= 7.80D-01 WtEn= 2.20D-01
 Coeff-Com:  0.100D+01
 Coeff-En:   0.100D+01
 Coeff:      0.100D+01
 Gap=     0.279 Goal=   None    Shift=    0.000
 Gap=     0.335 Goal=   None    Shift=    0.000
 GapD=    0.279 DampG=1.000 DampE=0.500 DampFc=0.5000 IDamp=-1.
 Damping current iteration by 5.00D-01
 RMSDP=2.24D-03 MaxDP=9.37D-02              OVMax= 1.40D-01

 Cycle   2  Pass 1  IDiag  1:
 E= -193.585031801844     Delta-E=       -0.061903175056 Rises=F Damp=T
 DIIS: error= 4.97D-03 at cycle   2 NSaved=   2.
 NSaved= 2 IEnMin= 2 EnMin= -193.585031801844     IErMin= 2 ErrMin= 4.97D-03
 ErrMax= 4.97D-03  0.00D+00 EMaxC= 1.00D-01 BMatC= 4.82D-02 BMatP= 5.72D-01
 IDIUse=3 WtCom= 9.50D-01 WtEn= 4.97D-02
 Coeff-Com: -0.169D+00 0.117D+01
 Coeff-En:   0.000D+00 0.100D+01
 Coeff:     -0.161D+00 0.116D+01
 Gap=     0.281 Goal=   None    Shift=    0.000
 Gap=     0.372 Goal=   None    Shift=    0.000
 RMSDP=6.76D-04 MaxDP=3.01D-02 DE=-6.19D-02 OVMax= 7.53D-02

 Cycle   3  Pass 1  IDiag  1:
 E= -193.640776286837     Delta-E=       -0.055744484993 Rises=F Damp=F
 DIIS: error= 2.99D-03 at cycle   3 NSaved=   3.
 NSaved= 3 IEnMin= 3 EnMin= -193.640776286837     IErMin= 3 ErrMin= 2.99D-03
 ErrMax= 2.99D-03  0.00D+00 EMaxC= 1.00D-01 BMatC= 1.15D-02 BMatP= 4.82D-02
 IDIUse=3 WtCom= 9.70D-01 WtEn= 2.99D-02
 Coeff-Com: -0.110D+00 0.378D+00 0.732D+00
 Coeff-En:   0.000D+00 0.000D+00 0.100D+01
 Coeff:     -0.106D+00 0.366D+00 0.740D+00
 Gap=     0.283 Goal=   None    Shift=    0.000
 Gap=     0.302 Goal=   None    Shift=    0.000
 RMSDP=1.95D-04 MaxDP=1.07D-02 DE=-5.57D-02 OVMax= 1.81D-02

 Cycle   4  Pass 1  IDiag  1:
 E= -193.642488726070     Delta-E=       -0.001712439233 Rises=F Damp=F
 DIIS: error= 1.58D-03 at cycle   4 NSaved=   4.
 NSaved= 4 IEnMin= 4 EnMin= -193.642488726070     IErMin= 4 ErrMin= 1.58D-03
 ErrMax= 1.58D-03  0.00D+00 EMaxC= 1.00D-01 BMatC= 3.20D-03 BMatP= 1.15D-02
 IDIUse=3 WtCom= 9.84D-01 WtEn= 1.58D-02
 Coeff-Com: -0.362D-01 0.782D-01 0.378D+00 0.580D+00
 Coeff-En:   0.000D+00 0.000D+00 0.114D+00 0.886D+00
 Coeff:     -0.357D-01 0.769D-01 0.373D+00 0.585D+00
 Gap=     0.281 Goal=   None    Shift=    0.000
 Gap=     0.310 Goal=   None    Shift=    0.000
 RMSDP=7.68D-05 MaxDP=4.01D-03 DE=-1.71D-03 OVMax= 7.36D-03

 Cycle   5  Pass 1  IDiag  1:
 E= -193.643086053015     Delta-E=       -0.000597326945 Rises=F Damp=F
 DIIS: error= 4.09D-04 at cycle   5 NSaved=   5.
 NSaved= 5 IEnMin= 5 EnMin= -193.643086053015     IErMin= 5 ErrMin= 4.09D-04
 ErrMax= 4.09D-04  0.00D+00 EMaxC= 1.00D-01 BMatC= 6.91D-05 BMatP= 3.20D-03
 IDIUse=3 WtCom= 9.96D-01 WtEn= 4.09D-03
 Coeff-Com:  0.559D-02-0.220D-01-0.188D-01 0.607D-01 0.974D+00
 Coeff-En:   0.000D+00 0.000D+00 0.000D+00 0.000D+00 0.100D+01
 Coeff:      0.557D-02-0.219D-01-0.187D-01 0.605D-01 0.975D+00
 Gap=     0.282 Goal=   None    Shift=    0.000
 Gap=     0.310 Goal=   None    Shift=    0.000
 RMSDP=2.85D-05 MaxDP=1.13D-03 DE=-5.97D-04 OVMax= 4.26D-03

 Cycle   6  Pass 1  IDiag  1:
 E= -193.643122779387     Delta-E=       -0.000036726373 Rises=F Damp=F
 DIIS: error= 1.39D-04 at cycle   6 NSaved=   6.
 NSaved= 6 IEnMin= 6 EnMin= -193.643122779387     IErMin= 6 ErrMin= 1.39D-04
 ErrMax= 1.39D-04  0.00D+00 EMaxC= 1.00D-01 BMatC= 9.03D-06 BMatP= 6.91D-05
 IDIUse=3 WtCom= 9.99D-01 WtEn= 1.39D-03
 Coeff-Com:  0.505D-02-0.111D-01-0.550D-01-0.822D-01 0.675D-02 0.114D+01
 Coeff-En:   0.000D+00 0.000D+00 0.000D+00 0.000D+00 0.000D+00 0.100D+01
 Coeff:      0.504D-02-0.111D-01-0.549D-01-0.821D-01 0.674D-02 0.114D+01
 Gap=     0.283 Goal=   None    Shift=    0.000
 Gap=     0.310 Goal=   None    Shift=    0.000
 RMSDP=1.57D-05 MaxDP=7.73D-04 DE=-3.67D-05 OVMax= 2.23D-03

 Cycle   7  Pass 1  IDiag  1:
 E= -193.643129034656     Delta-E=       -0.000006255269 Rises=F Damp=F
 DIIS: error= 5.09D-05 at cycle   7 NSaved=   7.
 NSaved= 7 IEnMin= 7 EnMin= -193.643129034656     IErMin= 7 ErrMin= 5.09D-05
 ErrMax= 5.09D-05  0.00D+00 EMaxC= 1.00D-01 BMatC= 1.93D-06 BMatP= 9.03D-06
 IDIUse=1 WtCom= 1.00D+00 WtEn= 0.00D+00
 Coeff-Com:  0.119D-02-0.181D-02-0.186D-01-0.374D-01-0.850D-01 0.454D+00
 Coeff-Com:  0.688D+00
 Coeff:      0.119D-02-0.181D-02-0.186D-01-0.374D-01-0.850D-01 0.454D+00
 Coeff:      0.688D+00
 Gap=     0.283 Goal=   None    Shift=    0.000
 Gap=     0.310 Goal=   None    Shift=    0.000
 RMSDP=3.38D-06 MaxDP=2.15D-04 DE=-6.26D-06 OVMax= 3.42D-04

 Cycle   8  Pass 1  IDiag  1:
 E= -193.643129582110     Delta-E=       -0.000000547453 Rises=F Damp=F
 DIIS: error= 1.39D-05 at cycle   8 NSaved=   8.
 NSaved= 8 IEnMin= 8 EnMin= -193.643129582110     IErMin= 8 ErrMin= 1.39D-05
 ErrMax= 1.39D-05  0.00D+00 EMaxC= 1.00D-01 BMatC= 8.45D-08 BMatP= 1.93D-06
 IDIUse=1 WtCom= 1.00D+00 WtEn= 0.00D+00
 Coeff-Com: -0.593D-03 0.130D-02 0.541D-02 0.621D-02-0.414D-02-0.102D+00
 Coeff-Com:  0.405D-01 0.105D+01
 Coeff:     -0.593D-03 0.130D-02 0.541D-02 0.621D-02-0.414D-02-0.102D+00
 Coeff:      0.405D-01 0.105D+01
 Gap=     0.283 Goal=   None    Shift=    0.000
 Gap=     0.310 Goal=   None    Shift=    0.000
 RMSDP=1.40D-06 MaxDP=5.42D-05 DE=-5.47D-07 OVMax= 8.87D-05

 Cycle   9  Pass 1  IDiag  1:
 E= -193.643129619382     Delta-E=       -0.000000037272 Rises=F Damp=F
 DIIS: error= 3.45D-06 at cycle   9 NSaved=   9.
 NSaved= 9 IEnMin= 9 EnMin= -193.643129619382     IErMin= 9 ErrMin= 3.45D-06
 ErrMax= 3.45D-06  0.00D+00 EMaxC= 1.00D-01 BMatC= 5.99D-09 BMatP= 8.45D-08
 IDIUse=1 WtCom= 1.00D+00 WtEn= 0.00D+00
 Coeff-Com: -0.156D-03 0.314D-03 0.191D-02 0.313D-02 0.455D-02-0.442D-01
 Coeff-Com: -0.399D-01 0.167D+00 0.907D+00
 Coeff:     -0.156D-03 0.314D-03 0.191D-02 0.313D-02 0.455D-02-0.442D-01
 Coeff:     -0.399D-01 0.167D+00 0.907D+00
 Gap=     0.283 Goal=   None    Shift=    0.000
 Gap=     0.310 Goal=   None    Shift=    0.000
 RMSDP=3.33D-07 MaxDP=1.23D-05 DE=-3.73D-08 OVMax= 2.36D-05

 Cycle  10  Pass 1  IDiag  1:
 E= -193.643129621885     Delta-E=       -0.000000002502 Rises=F Damp=F
 DIIS: error= 1.48D-06 at cycle  10 NSaved=  10.
 NSaved=10 IEnMin=10 EnMin= -193.643129621885     IErMin=10 ErrMin= 1.48D-06
 ErrMax= 1.48D-06  0.00D+00 EMaxC= 1.00D-01 BMatC= 9.84D-10 BMatP= 5.99D-09
 IDIUse=1 WtCom= 1.00D+00 WtEn= 0.00D+00
 Coeff-Com:  0.184D-04-0.431D-04-0.236D-04 0.242D-03 0.136D-02-0.149D-02
 Coeff-Com: -0.142D-01-0.555D-01 0.247D+00 0.823D+00
 Coeff:      0.184D-04-0.431D-04-0.236D-04 0.242D-03 0.136D-02-0.149D-02
 Coeff:     -0.142D-01-0.555D-01 0.247D+00 0.823D+00
 Gap=     0.283 Goal=   None    Shift=    0.000
 Gap=     0.310 Goal=   None    Shift=    0.000
 RMSDP=1.31D-07 MaxDP=5.75D-06 DE=-2.50D-09 OVMax= 7.55D-06

 Cycle  11  Pass 1  IDiag  1:
 E= -193.643129622222     Delta-E=       -0.000000000337 Rises=F Damp=F
 DIIS: error= 4.32D-07 at cycle  11 NSaved=  11.
 NSaved=11 IEnMin=11 EnMin= -193.643129622222     IErMin=11 ErrMin= 4.32D-07
 ErrMax= 4.32D-07  0.00D+00 EMaxC= 1.00D-01 BMatC= 1.10D-10 BMatP= 9.84D-10
 IDIUse=1 WtCom= 1.00D+00 WtEn= 0.00D+00
 Coeff-Com:  0.263D-04-0.554D-04-0.260D-03-0.327D-03-0.201D-03 0.545D-02
 Coeff-Com:  0.752D-03-0.384D-01-0.419D-01 0.235D+00 0.840D+00
 Coeff:      0.263D-04-0.554D-04-0.260D-03-0.327D-03-0.201D-03 0.545D-02
 Coeff:      0.752D-03-0.384D-01-0.419D-01 0.235D+00 0.840D+00
 Gap=     0.283 Goal=   None    Shift=    0.000
 Gap=     0.310 Goal=   None    Shift=    0.000
 RMSDP=5.95D-08 MaxDP=3.75D-06 DE=-3.37D-10 OVMax= 4.09D-06

 Cycle  12  Pass 1  IDiag  1:
 E= -193.643129622268     Delta-E=       -0.000000000046 Rises=F Damp=F
 DIIS: error= 8.10D-08 at cycle  12 NSaved=  12.
 NSaved=12 IEnMin=12 EnMin= -193.643129622268     IErMin=12 ErrMin= 8.10D-08
 ErrMax= 8.10D-08  0.00D+00 EMaxC= 1.00D-01 BMatC= 4.50D-12 BMatP= 1.10D-10
 IDIUse=1 WtCom= 1.00D+00 WtEn= 0.00D+00
 Coeff-Com: -0.257D-05 0.518D-05 0.105D-04-0.118D-05-0.493D-04-0.879D-04
 Coeff-Com:  0.813D-03 0.499D-02-0.163D-01-0.717D-01-0.354D-01 0.112D+01
 Coeff:     -0.257D-05 0.518D-05 0.105D-04-0.118D-05-0.493D-04-0.879D-04
 Coeff:      0.813D-03 0.499D-02-0.163D-01-0.717D-01-0.354D-01 0.112D+01
 Gap=     0.283 Goal=   None    Shift=    0.000
 Gap=     0.310 Goal=   None    Shift=    0.000
 RMSDP=2.59D-08 MaxDP=1.94D-06 DE=-4.61D-11 OVMax= 1.22D-06

 Cycle  13  Pass 1  IDiag  1:
 E= -193.643129622272     Delta-E=       -0.000000000004 Rises=F Damp=F
 DIIS: error= 2.51D-08 at cycle  13 NSaved=  13.
 NSaved=13 IEnMin=13 EnMin= -193.643129622272     IErMin=13 ErrMin= 2.51D-08
 ErrMax= 2.51D-08  0.00D+00 EMaxC= 1.00D-01 BMatC= 3.17D-13 BMatP= 4.50D-12
 IDIUse=1 WtCom= 1.00D+00 WtEn= 0.00D+00
 Coeff-Com: -0.136D-05 0.287D-05 0.122D-04 0.149D-04 0.698D-05-0.276D-03
 Coeff-Com:  0.553D-04 0.207D-02 0.168D-02-0.121D-01-0.524D-01-0.420D-02
 Coeff-Com:  0.107D+01
 Coeff:     -0.136D-05 0.287D-05 0.122D-04 0.149D-04 0.698D-05-0.276D-03
 Coeff:      0.553D-04 0.207D-02 0.168D-02-0.121D-01-0.524D-01-0.420D-02
 Coeff:      0.107D+01
 Gap=     0.283 Goal=   None    Shift=    0.000
 Gap=     0.310 Goal=   None    Shift=    0.000
 RMSDP=7.39D-09 MaxDP=5.63D-07 DE=-3.81D-12 OVMax= 3.50D-07

 SCF Done:  E(UM062X) =  -193.643129622     A.U. after   13 cycles
            NFock= 13  Conv=0.74D-08     -V/T= 2.0037
 <Sx>= 0.0000 <Sy>= 0.0000 <Sz>= 0.5000 <S**2>= 0.7552 S= 0.5026
 <L.S>= 0.000000000000E+00
 KE= 1.929230358270D+02 PE=-7.047346705123D+02 EE= 1.917617199246D+02
 Annihilation of the first spin contaminant:
 S**2 before annihilation     0.7552,   after     0.7500
 Leave Link  502 at Mon Mar 11 00:05:42 2019, MaxMem=   671088640 cpu:             373.7 elap:              27.0
 (Enter /shared/centos7/gaussian/g16/l801.exe)
 DoSCS=F DFT=T ScalE2(SS,OS)=  1.000000  1.000000
 Range of M.O.s used for correlation:     1   199
 NBasis=   199 NAE=    17 NBE=    16 NFC=     0 NFV=     0
 NROrb=    199 NOA=    17 NOB=    16 NVA=   182 NVB=   183

 **** Warning!!: The largest alpha MO coefficient is  0.40093078D+02


 **** Warning!!: The largest beta MO coefficient is  0.43532790D+02

 Leave Link  801 at Mon Mar 11 00:05:42 2019, MaxMem=   671088640 cpu:               0.4 elap:               0.0
 (Enter /shared/centos7/gaussian/g16/l1101.exe)
 Using compressed storage, NAtomX=    11.
 Will process     12 centers per pass.
 Leave Link 1101 at Mon Mar 11 00:05:42 2019, MaxMem=   671088640 cpu:               5.9 elap:               0.3
 (Enter /shared/centos7/gaussian/g16/l1102.exe)
 Symmetrizing basis deriv contribution to polar:
 IMax=3 JMax=2 DiffMx= 0.00D+00
 Leave Link 1102 at Mon Mar 11 00:05:42 2019, MaxMem=   671088640 cpu:               0.5 elap:               0.0
 (Enter /shared/centos7/gaussian/g16/l1110.exe)
 Forming Gx(P) for the SCF density, NAtomX=    11.
 Integral derivatives from FoFJK, PRISM(SPDF).
 Do as many integral derivatives as possible in FoFJK.
 G2DrvN: MDV=     671087712.
 G2DrvN: will do    12 centers at a time, making    1 passes.
 Calling FoFCou, ICntrl=  3107 FMM=F I1Cent=   0 AccDes= 0.00D+00.
 FoFJK:  IHMeth= 1 ICntrl=    3107 DoSepK=F KAlg= 0 I1Cent=           0 FoldK=F
 IRaf=         0 NMat=       1 IRICut=       1 DoRegI=T DoRafI=F ISym2E= 0 IDoP0=0 IntGTp=1.
 FoFCou: FMM=F IPFlag=           0 FMFlag=      100000 FMFlg1=           0
         NFxFlg=           0 DoJE=F BraDBF=F KetDBF=F FulRan=T
         wScrn=  0.000000 ICntrl=      3107 IOpCl=  1 I1Cent=           0 NGrid=           0
         NMat0=    1 NMatS0=      1 NMatT0=    0 NMatD0=    1 NMtDS0=    0 NMtDT0=    0
 Symmetry not used in FoFCou.
 End of G2Drv F.D. properties file   721 does not exist.
 End of G2Drv F.D. properties file   722 does not exist.
 End of G2Drv F.D. properties file   788 does not exist.
 Leave Link 1110 at Mon Mar 11 00:06:19 2019, MaxMem=   671088640 cpu:             727.8 elap:              36.4
 (Enter /shared/centos7/gaussian/g16/l1002.exe)
 Minotr:  UHF open shell wavefunction.
          IDoAtm=11111111111
          Direct CPHF calculation.
          Differentiating once with respect to nuclear coordinates.
          Requested convergence is 1.0D-08 RMS, and 1.0D-07 maximum.
          Secondary convergence is 1.0D-12 RMS, and 1.0D-12 maximum.
          NewPWx=T KeepS1=F KeepF1=F KeepIn=T MapXYZ=F SortEE=F KeepMc=T.
         3349 words used for storage of precomputed grid.
 Keep R1 and R2 ints in memory in canonical form, NReq=416899978.
 FoFCou: FMM=F IPFlag=           0 FMFlag=           0 FMFlg1=           0
         NFxFlg=           0 DoJE=F BraDBF=F KetDBF=F FulRan=T
         wScrn=  0.000000 ICntrl=       600 IOpCl=  0 I1Cent=           0 NGrid=           0
         NMat0=    1 NMatS0=  19900 NMatT0=    0 NMatD0=    1 NMtDS0=    0 NMtDT0=    0
 Symmetry not used in FoFCou.
 Two-electron integral symmetry not used.
          MDV=     671088640 using IRadAn=       1.
          Solving linear equations simultaneously, MaxMat=       0.
          There are    36 degrees of freedom in the 1st order CPHF.  IDoFFX=6 NUNeed=     0.
     30 vectors produced by pass  0 Test12= 1.67D-14 2.78D-09 XBig12= 1.34D-01 9.03D-02.
 AX will form    30 AO Fock derivatives at one time.
     30 vectors produced by pass  1 Test12= 1.67D-14 2.78D-09 XBig12= 5.30D-03 1.45D-02.
     30 vectors produced by pass  2 Test12= 1.67D-14 2.78D-09 XBig12= 1.97D-04 2.57D-03.
     30 vectors produced by pass  3 Test12= 1.67D-14 2.78D-09 XBig12= 2.45D-06 2.64D-04.
     30 vectors produced by pass  4 Test12= 1.67D-14 2.78D-09 XBig12= 3.15D-08 3.05D-05.
     30 vectors produced by pass  5 Test12= 1.67D-14 2.78D-09 XBig12= 3.53D-10 1.93D-06.
     28 vectors produced by pass  6 Test12= 1.67D-14 2.78D-09 XBig12= 2.87D-12 1.71D-07.
     11 vectors produced by pass  7 Test12= 1.67D-14 2.78D-09 XBig12= 2.15D-14 1.47D-08.
 InvSVY:  IOpt=1 It=  1 EMax= 2.33D-15
 Solved reduced A of dimension   219 with    30 vectors.
 End of Minotr F.D. properties file   721 does not exist.
 End of Minotr F.D. properties file   722 does not exist.
 End of Minotr F.D. properties file   788 does not exist.
 Leave Link 1002 at Mon Mar 11 00:07:05 2019, MaxMem=   671088640 cpu:             926.4 elap:              46.4
 (Enter /shared/centos7/gaussian/g16/l601.exe)
 Copying SCF densities to generalized density rwf, IOpCl= 1 IROHF=0.

 **********************************************************************

            Population analysis using the SCF density.

 **********************************************************************

 Orbital symmetries:
 Alpha Orbitals:
       Occupied  (A) (A) (A) (A) (A) (A) (A) (A) (A) (A) (A) (A)
                 (A) (A) (A) (A) (A)
       Virtual   (A) (A) (A) (A) (A) (A) (A) (A) (A) (A) (A) (A)
                 (A) (A) (A) (A) (A) (A) (A) (A) (A) (A) (A) (A)
                 (A) (A) (A) (A) (A) (A) (A) (A) (A) (A) (A) (A)
                 (A) (A) (A) (A) (A) (A) (A) (A) (A) (A) (A) (A)
                 (A) (A) (A) (A) (A) (A) (A) (A) (A) (A) (A) (A)
                 (A) (A) (A) (A) (A) (A) (A) (A) (A) (A) (A) (A)
                 (A) (A) (A) (A) (A) (A) (A) (A) (A) (A) (A) (A)
                 (A) (A) (A) (A) (A) (A) (A) (A) (A) (A) (A) (A)
                 (A) (A) (A) (A) (A) (A) (A) (A) (A) (A) (A) (A)
                 (A) (A) (A) (A) (A) (A) (A) (A) (A) (A) (A) (A)
                 (A) (A) (A) (A) (A) (A) (A) (A) (A) (A) (A) (A)
                 (A) (A) (A) (A) (A) (A) (A) (A) (A) (A) (A) (A)
                 (A) (A) (A) (A) (A) (A) (A) (A) (A) (A) (A) (A)
                 (A) (A) (A) (A) (A) (A) (A) (A) (A) (A) (A) (A)
                 (A) (A) (A) (A) (A) (A) (A) (A) (A) (A) (A) (A)
                 (A) (A)
 Beta  Orbitals:
       Occupied  (A) (A) (A) (A) (A) (A) (A) (A) (A) (A) (A) (A)
                 (A) (A) (A) (A)
       Virtual   (A) (A) (A) (A) (A) (A) (A) (A) (A) (A) (A) (A)
                 (A) (A) (A) (A) (A) (A) (A) (A) (A) (A) (A) (A)
                 (A) (A) (A) (A) (A) (A) (A) (A) (A) (A) (A) (A)
                 (A) (A) (A) (A) (A) (A) (A) (A) (A) (A) (A) (A)
                 (A) (A) (A) (A) (A) (A) (A) (A) (A) (A) (A) (A)
                 (A) (A) (A) (A) (A) (A) (A) (A) (A) (A) (A) (A)
                 (A) (A) (A) (A) (A) (A) (A) (A) (A) (A) (A) (A)
                 (A) (A) (A) (A) (A) (A) (A) (A) (A) (A) (A) (A)
                 (A) (A) (A) (A) (A) (A) (A) (A) (A) (A) (A) (A)
                 (A) (A) (A) (A) (A) (A) (A) (A) (A) (A) (A) (A)
                 (A) (A) (A) (A) (A) (A) (A) (A) (A) (A) (A) (A)
                 (A) (A) (A) (A) (A) (A) (A) (A) (A) (A) (A) (A)
                 (A) (A) (A) (A) (A) (A) (A) (A) (A) (A) (A) (A)
                 (A) (A) (A) (A) (A) (A) (A) (A) (A) (A) (A) (A)
                 (A) (A) (A) (A) (A) (A) (A) (A) (A) (A) (A) (A)
                 (A) (A) (A)
 The electronic state is 2-A.
 Alpha  occ. eigenvalues --  -19.62685 -10.58860 -10.57680 -10.54131  -1.16581
 Alpha  occ. eigenvalues --   -0.86554  -0.76575  -0.69355  -0.57125  -0.56362
 Alpha  occ. eigenvalues --   -0.53731  -0.48362  -0.46505  -0.44398  -0.39845
 Alpha  occ. eigenvalues --   -0.34039  -0.26302
 Alpha virt. eigenvalues --    0.01990   0.03410   0.04254   0.04800   0.05530
 Alpha virt. eigenvalues --    0.06661   0.08278   0.08834   0.11074   0.11266
 Alpha virt. eigenvalues --    0.13156   0.15104   0.18921   0.19132   0.21237
 Alpha virt. eigenvalues --    0.21947   0.22193   0.22802   0.25471   0.26512
 Alpha virt. eigenvalues --    0.27070   0.28083   0.29499   0.31557   0.35374
 Alpha virt. eigenvalues --    0.37280   0.44186   0.44514   0.48028   0.49234
 Alpha virt. eigenvalues --    0.50592   0.53097   0.53843   0.54576   0.56969
 Alpha virt. eigenvalues --    0.57991   0.58457   0.59642   0.60434   0.60988
 Alpha virt. eigenvalues --    0.62308   0.64337   0.66257   0.67121   0.69267
 Alpha virt. eigenvalues --    0.75306   0.84618   0.85445   0.88150   0.88885
 Alpha virt. eigenvalues --    0.92393   0.95296   0.96488   0.99052   1.01830
 Alpha virt. eigenvalues --    1.05418   1.06552   1.07999   1.08724   1.12136
 Alpha virt. eigenvalues --    1.16322   1.17986   1.19224   1.20577   1.21674
 Alpha virt. eigenvalues --    1.25849   1.28584   1.29402   1.32469   1.33209
 Alpha virt. eigenvalues --    1.35594   1.39751   1.41808   1.42413   1.44667
 Alpha virt. eigenvalues --    1.45526   1.46708   1.47400   1.51887   1.53411
 Alpha virt. eigenvalues --    1.53983   1.59020   1.60833   1.75532   1.77279
 Alpha virt. eigenvalues --    1.99926   2.09172   2.11845   2.22615   2.35154
 Alpha virt. eigenvalues --    2.39893   2.44099   2.46521   2.49275   2.60331
 Alpha virt. eigenvalues --    2.62591   2.71294   2.74305   2.79835   2.80809
 Alpha virt. eigenvalues --    2.88756   2.94437   2.96459   2.97429   3.03074
 Alpha virt. eigenvalues --    3.05876   3.07054   3.08063   3.11629   3.13515
 Alpha virt. eigenvalues --    3.14743   3.16044   3.21199   3.22538   3.24119
 Alpha virt. eigenvalues --    3.25914   3.31346   3.34555   3.38492   3.40428
 Alpha virt. eigenvalues --    3.41837   3.44955   3.47377   3.50063   3.54125
 Alpha virt. eigenvalues --    3.57812   3.61744   3.65043   3.67426   3.72007
 Alpha virt. eigenvalues --    3.79012   3.86549   3.86753   3.88594   3.89444
 Alpha virt. eigenvalues --    3.97010   4.02313   4.06231   4.07716   4.09394
 Alpha virt. eigenvalues --    4.14080   4.15663   4.16758   4.19118   4.22018
 Alpha virt. eigenvalues --    4.24112   4.27401   4.29356   4.34922   4.38401
 Alpha virt. eigenvalues --    4.42146   4.44263   4.50310   4.53772   4.64833
 Alpha virt. eigenvalues --    4.89362   4.92089   5.18106   5.20375   5.24057
 Alpha virt. eigenvalues --    5.31772   5.46221   5.49303   5.51052   5.52308
 Alpha virt. eigenvalues --    5.58060   5.63129   5.66808   5.82849   5.87075
 Alpha virt. eigenvalues --    6.23517   6.48911   6.71933   7.18276   7.21073
 Alpha virt. eigenvalues --    7.31403   7.66641   7.76756  24.27153  24.43656
 Alpha virt. eigenvalues --   24.50847  50.16776
  Beta  occ. eigenvalues --  -19.62681 -10.58929 -10.57680 -10.53436  -1.16536
  Beta  occ. eigenvalues --   -0.85001  -0.75545  -0.67229  -0.56710  -0.55762
  Beta  occ. eigenvalues --   -0.53332  -0.47381  -0.45583  -0.43721  -0.39653
  Beta  occ. eigenvalues --   -0.33614
  Beta virt. eigenvalues --   -0.02569   0.01714   0.03030   0.04054   0.04785
  Beta virt. eigenvalues --    0.05600   0.06785   0.08408   0.08612   0.09620
  Beta virt. eigenvalues --    0.12221   0.13210   0.14218   0.18831   0.19413
  Beta virt. eigenvalues --    0.21187   0.21993   0.22504   0.23042   0.25473
  Beta virt. eigenvalues --    0.26168   0.27081   0.28578   0.29825   0.31853
  Beta virt. eigenvalues --    0.35215   0.37453   0.44130   0.44325   0.48293
  Beta virt. eigenvalues --    0.50258   0.51442   0.53435   0.53886   0.55068
  Beta virt. eigenvalues --    0.57181   0.58436   0.58610   0.60210   0.60893
  Beta virt. eigenvalues --    0.61752   0.63144   0.64778   0.66230   0.67148
  Beta virt. eigenvalues --    0.68466   0.75477   0.84350   0.84952   0.87924
  Beta virt. eigenvalues --    0.88834   0.92471   0.95076   0.95895   0.98986
  Beta virt. eigenvalues --    1.00020   1.05425   1.06574   1.07989   1.08656
  Beta virt. eigenvalues --    1.13011   1.16172   1.17968   1.19424   1.20343
  Beta virt. eigenvalues --    1.21692   1.25952   1.28826   1.29632   1.32314
  Beta virt. eigenvalues --    1.33279   1.35615   1.40158   1.41820   1.42562
  Beta virt. eigenvalues --    1.44866   1.45726   1.47277   1.47623   1.51905
  Beta virt. eigenvalues --    1.53643   1.55402   1.59340   1.61305   1.75560
  Beta virt. eigenvalues --    1.77374   2.00136   2.09329   2.11912   2.22921
  Beta virt. eigenvalues --    2.35264   2.40109   2.44269   2.47327   2.49529
  Beta virt. eigenvalues --    2.61436   2.62962   2.72446   2.78434   2.82818
  Beta virt. eigenvalues --    2.85377   2.91808   2.96944   2.98754   3.00755
  Beta virt. eigenvalues --    3.05989   3.07648   3.08385   3.09222   3.13359
  Beta virt. eigenvalues --    3.15314   3.16938   3.17886   3.22402   3.26453
  Beta virt. eigenvalues --    3.27637   3.30491   3.33546   3.34933   3.39556
  Beta virt. eigenvalues --    3.42581   3.44324   3.45927   3.50560   3.51593
  Beta virt. eigenvalues --    3.56601   3.59243   3.61979   3.65444   3.68868
  Beta virt. eigenvalues --    3.72548   3.79485   3.86629   3.88681   3.88762
  Beta virt. eigenvalues --    3.90999   3.98214   4.02762   4.07478   4.09517
  Beta virt. eigenvalues --    4.11071   4.16707   4.17163   4.17759   4.21013
  Beta virt. eigenvalues --    4.23252   4.26804   4.28985   4.30549   4.36475
  Beta virt. eigenvalues --    4.39409   4.42915   4.44704   4.50853   4.55186
  Beta virt. eigenvalues --    4.69936   4.91077   4.94237   5.20326   5.21584
  Beta virt. eigenvalues --    5.24304   5.32215   5.48549   5.50701   5.54402
  Beta virt. eigenvalues --    5.55392   5.60216   5.63158   5.67610   5.82924
  Beta virt. eigenvalues --    5.87125   6.23776   6.48986   6.71983   7.18293
  Beta virt. eigenvalues --    7.21114   7.31439   7.66696   7.76796  24.28221
  Beta virt. eigenvalues --   24.43657  24.51420  50.16770
          Condensed to atoms (all electrons):
               1          2          3          4          5          6
     1  O    8.279932   0.113458   0.127006  -0.104007  -0.058696  -0.047377
     2  C    0.113458   5.003910  -0.097706   0.345233   0.434255   0.453208
     3  C    0.127006  -0.097706   4.933793  -0.019754   0.003129   0.002519
     4  C   -0.104007   0.345233  -0.019754   5.438355  -0.055597  -0.068214
     5  H   -0.058696   0.434255   0.003129  -0.055597   0.606621  -0.064553
     6  H   -0.047377   0.453208   0.002519  -0.068214  -0.064553   0.583014
     7  H   -0.047002  -0.004133   0.435907  -0.002639   0.008909  -0.003594
     8  H   -0.055608   0.013042   0.424853   0.002640   0.000051   0.000054
     9  H   -0.047575  -0.004244   0.436942  -0.002276  -0.003972   0.007850
    10  H   -0.002369  -0.017663   0.002530   0.398240   0.001142   0.003756
    11  H    0.008648  -0.032729   0.000240   0.407834  -0.001555  -0.002116
               7          8          9         10         11
     1  O   -0.047002  -0.055608  -0.047575  -0.002369   0.008648
     2  C   -0.004133   0.013042  -0.004244  -0.017663  -0.032729
     3  C    0.435907   0.424853   0.436942   0.002530   0.000240
     4  C   -0.002639   0.002640  -0.002276   0.398240   0.407834
     5  H    0.008909   0.000051  -0.003972   0.001142  -0.001555
     6  H   -0.003594   0.000054   0.007850   0.003756  -0.002116
     7  H    0.578969  -0.025629  -0.053137  -0.000017  -0.000008
     8  H   -0.025629   0.536501  -0.025368   0.000007   0.000011
     9  H   -0.053137  -0.025368   0.579352  -0.000034   0.000017
    10  H   -0.000017   0.000007  -0.000034   0.457426  -0.021253
    11  H   -0.000008   0.000011   0.000017  -0.021253   0.476809
          Atomic-Atomic Spin Densities.
               1          2          3          4          5          6
     1  O    0.003163   0.009377   0.000129  -0.006881  -0.010462   0.005991
     2  C    0.009377  -0.045664   0.000606  -0.067523   0.036350   0.015224
     3  C    0.000129   0.000606   0.005619  -0.000719  -0.003210   0.001719
     4  C   -0.006881  -0.067523  -0.000719   1.201692  -0.043864  -0.030702
     5  H   -0.010462   0.036350  -0.003210  -0.043864   0.086564  -0.020481
     6  H    0.005991   0.015224   0.001719  -0.030702  -0.020481   0.055112
     7  H   -0.000530   0.002029   0.000193  -0.001098   0.000381  -0.000086
     8  H    0.000143   0.000024  -0.000785   0.000060   0.000004  -0.000005
     9  H    0.000043  -0.000889   0.000277   0.000306  -0.000189   0.000354
    10  H    0.001825   0.005180   0.000814  -0.007914   0.000059  -0.000016
    11  H   -0.000146   0.005004  -0.000017  -0.003387  -0.000608   0.001001
               7          8          9         10         11
     1  O   -0.000530   0.000143   0.000043   0.001825  -0.000146
     2  C    0.002029   0.000024  -0.000889   0.005180   0.005004
     3  C    0.000193  -0.000785   0.000277   0.000814  -0.000017
     4  C   -0.001098   0.000060   0.000306  -0.007914  -0.003387
     5  H    0.000381   0.000004  -0.000189   0.000059  -0.000608
     6  H   -0.000086  -0.000005   0.000354  -0.000016   0.001001
     7  H   -0.001645   0.000128  -0.000152   0.000024  -0.000000
     8  H    0.000128  -0.000077   0.000164  -0.000001  -0.000001
     9  H   -0.000152   0.000164  -0.000318  -0.000008   0.000000
    10  H    0.000024  -0.000001  -0.000008  -0.042074   0.004226
    11  H   -0.000000  -0.000001   0.000000   0.004226  -0.046285
 Mulliken charges and spin densities:
               1          2
     1  O   -0.166409   0.002652
     2  C   -0.206632  -0.040282
     3  C   -0.249459   0.004625
     4  C   -0.339815   1.039969
     5  H    0.130266   0.044543
     6  H    0.135453   0.028110
     7  H    0.112372  -0.000759
     8  H    0.129447  -0.000346
     9  H    0.112443  -0.000413
    10  H    0.178234  -0.037885
    11  H    0.164101  -0.040214
 Sum of Mulliken charges =  -0.00000   1.00000
 Mulliken charges and spin densities with hydrogens summed into heavy atoms:
               1          2
     1  O   -0.166409   0.002652
     2  C    0.059087   0.032371
     3  C    0.104803   0.003107
     4  C    0.002519   0.961870
 APT charges:
               1
     1  O   -0.073991
     2  C   -0.604813
     3  C   -1.156812
     4  C   -0.907284
     5  H    0.326443
     6  H    0.335404
     7  H    0.332543
     8  H    0.479804
     9  H    0.335724
    10  H    0.375633
    11  H    0.557351
 Sum of APT charges =  -0.00000
 APT charges with hydrogens summed into heavy atoms:
               1
     1  O   -0.073991
     2  C    0.057033
     3  C   -0.008742
     4  C    0.025700
 Electronic spatial extent (au):  <R**2>=            344.9741
 Charge=             -0.0000 electrons
 Dipole moment (field-independent basis, Debye):
    X=              0.3827    Y=              1.3656    Z=              0.2231  Tot=              1.4357
 Quadrupole moment (field-independent basis, Debye-Ang):
   XX=            -23.2856   YY=            -26.5040   ZZ=            -27.1997
   XY=             -0.2120   XZ=             -0.0903   YZ=             -0.4763
 Traceless Quadrupole moment (field-independent basis, Debye-Ang):
   XX=              2.3775   YY=             -0.8409   ZZ=             -1.5366
   XY=             -0.2120   XZ=             -0.0903   YZ=             -0.4763
 Octapole moment (field-independent basis, Debye-Ang**2):
  XXX=              6.2352  YYY=             -2.4916  ZZZ=              0.2990  XYY=              0.0150
  XXY=             -1.1741  XXZ=             -0.3314  XZZ=              3.4491  YZZ=              1.0250
  YYZ=              0.1373  XYZ=              0.7550
 Hexadecapole moment (field-independent basis, Debye-Ang**3):
 XXXX=           -349.9343 YYYY=            -70.5194 ZZZZ=            -44.5491 XXXY=            -10.0660
 XXXZ=              0.7635 YYYX=             -0.8234 YYYZ=             -1.2366 ZZZX=             -0.2271
 ZZZY=             -0.2561 XXYY=            -68.1921 XXZZ=            -73.7575 YYZZ=            -18.8390
 XXYZ=             -1.6376 YYXZ=             -1.0123 ZZXY=             -0.2868
 N-N= 1.264067851384D+02 E-N=-7.047346694923D+02  KE= 1.929230358270D+02
  Exact polarizability:   0.000   0.000   0.000   0.000   0.000   0.000
 Approx polarizability:  48.712   0.549  46.239   0.256   0.142  43.452
                          Isotropic Fermi Contact Couplings
        Atom                 a.u.       MegaHertz       Gauss      10(-4) cm-1
     1  O(17)              0.00649      -3.93593      -1.40444      -1.31289
     2  C(13)             -0.03746     -42.11613     -15.02808     -14.04843
     3  C(13)             -0.00124      -1.39494      -0.49775      -0.46530
     4  C(13)              0.17166     192.97763      68.85922      64.37041
     5  H(1)               0.02664     119.07922      42.49043      39.72055
     6  H(1)               0.01627      72.73877      25.95500      24.26304
     7  H(1)               0.00013       0.58873       0.21007       0.19638
     8  H(1)              -0.00010      -0.46066      -0.16438      -0.15366
     9  H(1)               0.00003       0.13474       0.04808       0.04494
    10  H(1)              -0.01610     -71.96941     -25.68047     -24.00641
    11  H(1)              -0.01616     -72.25510     -25.78242     -24.10171
 --------------------------------------------------------
       Center         ----  Spin Dipole Couplings  ----
                      3XX-RR        3YY-RR        3ZZ-RR
 --------------------------------------------------------
     1   Atom        0.020334     -0.003439     -0.016895
     2   Atom        0.004803     -0.012219      0.007416
     3   Atom        0.004047     -0.003430     -0.000618
     4   Atom       -0.545850     -0.495515      1.041365
     5   Atom        0.005556     -0.000180     -0.005376
     6   Atom        0.003972      0.002799     -0.006771
     7   Atom        0.004506     -0.002452     -0.002054
     8   Atom        0.003075     -0.001452     -0.001623
     9   Atom        0.004006     -0.002065     -0.001941
    10   Atom       -0.072367      0.072053      0.000313
    11   Atom        0.028791     -0.023963     -0.004829
 --------------------------------------------------------
                        XY            XZ            YZ
 --------------------------------------------------------
     1   Atom       -0.011843      0.002116      0.003569
     2   Atom        0.005249      0.007799     -0.000960
     3   Atom        0.000088      0.001616      0.001047
     4   Atom       -0.023487     -0.108166      0.290447
     5   Atom        0.010818      0.005866      0.008109
     6   Atom        0.013265     -0.006379     -0.005704
     7   Atom        0.000384      0.001166      0.000553
     8   Atom       -0.000979      0.000046      0.000156
     9   Atom        0.001128     -0.001285     -0.000278
    10   Atom        0.008932     -0.006951     -0.018327
    11   Atom       -0.070090      0.009424      0.003321
 --------------------------------------------------------


 ---------------------------------------------------------------------------------
              Anisotropic Spin Dipole Couplings in Principal Axis System
 ---------------------------------------------------------------------------------

       Atom             a.u.   MegaHertz   Gauss  10(-4) cm-1        Axes

              Baa    -0.0186     1.342     0.479     0.448 -0.1540 -0.3398  0.9278
     1 O(17)  Bbb    -0.0067     0.484     0.173     0.161  0.3479  0.8602  0.3727
              Bcc     0.0252    -1.826    -0.652    -0.609  0.9248 -0.3802  0.0142
 
              Baa    -0.0142    -1.905    -0.680    -0.635 -0.3226  0.9333  0.1579
     2 C(13)  Bbb    -0.0001    -0.014    -0.005    -0.005  0.6734  0.3435 -0.6547
              Bcc     0.0143     1.919     0.685     0.640  0.6652  0.1049  0.7393
 
              Baa    -0.0038    -0.510    -0.182    -0.170  0.0592  0.9390 -0.3388
     3 C(13)  Bbb    -0.0008    -0.103    -0.037    -0.035 -0.3047  0.3402  0.8896
              Bcc     0.0046     0.614     0.219     0.205  0.9506  0.0505  0.3062
 
              Baa    -0.5553   -74.513   -26.588   -24.855  0.8758  0.4819 -0.0283
     4 C(13)  Bbb    -0.5466   -73.345   -26.171   -24.465 -0.4781  0.8577 -0.1894
              Bcc     1.1019   147.858    52.759    49.320 -0.0670  0.1794  0.9815
 
              Baa    -0.0116    -6.192    -2.209    -2.065  0.1859 -0.6796  0.7096
     5 H(1)   Bbb    -0.0063    -3.353    -1.196    -1.118  0.6841 -0.4289 -0.5899
              Bcc     0.0179     9.545     3.406     3.184  0.7053  0.5951  0.3852
 
              Baa    -0.0100    -5.361    -1.913    -1.788  0.7105 -0.5262  0.4672
     6 H(1)   Bbb    -0.0094    -5.018    -1.791    -1.674 -0.1429  0.5423  0.8280
              Bcc     0.0195    10.379     3.703     3.462  0.6890  0.6550 -0.3101
 
              Baa    -0.0029    -1.527    -0.545    -0.509  0.0572  0.7831 -0.6192
     7 H(1)   Bbb    -0.0019    -1.001    -0.357    -0.334 -0.1770  0.6184  0.7657
              Bcc     0.0047     2.528     0.902     0.843  0.9825  0.0659  0.1740
 
              Baa    -0.0018    -0.961    -0.343    -0.321  0.1518  0.7244 -0.6724
     8 H(1)   Bbb    -0.0015    -0.788    -0.281    -0.263  0.1342  0.6589  0.7401
              Bcc     0.0033     1.749     0.624     0.583  0.9793 -0.2026  0.0028
 
              Baa    -0.0023    -1.223    -0.436    -0.408 -0.0609  0.8789  0.4732
     9 H(1)   Bbb    -0.0022    -1.166    -0.416    -0.389  0.2589 -0.4439  0.8579
              Bcc     0.0045     2.389     0.852     0.797  0.9640  0.1747 -0.2005
 
              Baa    -0.0734   -39.158   -13.972   -13.062  0.9954 -0.0509  0.0812
    10 H(1)   Bbb    -0.0038    -2.020    -0.721    -0.674 -0.0666  0.2418  0.9680
              Bcc     0.0772    41.178    14.693    13.735  0.0689  0.9690 -0.2373
 
              Baa    -0.0734   -39.180   -13.980   -13.069  0.5689  0.8139 -0.1175
    11 H(1)   Bbb    -0.0043    -2.288    -0.816    -0.763  0.0084  0.1372  0.9905
              Bcc     0.0777    41.468    14.797    13.832  0.8223 -0.5645  0.0712
 

 ---------------------------------------------------------------------------------

 No NMR shielding tensors so no spin-rotation constants.
 Leave Link  601 at Mon Mar 11 00:07:05 2019, MaxMem=   671088640 cpu:               7.7 elap:               0.4
 (Enter /shared/centos7/gaussian/g16/l701.exe)
 ... and contract with generalized density number  0.
 Compute integral second derivatives.
 Leave Link  701 at Mon Mar 11 00:07:06 2019, MaxMem=   671088640 cpu:               4.9 elap:               0.3
 (Enter /shared/centos7/gaussian/g16/l702.exe)
 L702 exits ... SP integral derivatives will be done elsewhere.
 Leave Link  702 at Mon Mar 11 00:07:06 2019, MaxMem=   671088640 cpu:               0.4 elap:               0.0
 (Enter /shared/centos7/gaussian/g16/l703.exe)
 Integral derivatives from FoFJK, PRISM(SPDF).
 Compute integral second derivatives, UseDBF=F ICtDFT=           0.
 Calling FoFJK, ICntrl=    100147 FMM=F ISym2X=0 I1Cent= 0 IOpClX= 1 NMat=1 NMatS=1 NMatT=0.
 FoFJK:  IHMeth= 1 ICntrl=  100147 DoSepK=F KAlg= 0 I1Cent=           0 FoldK=F
 IRaf=         0 NMat=       1 IRICut=       1 DoRegI=T DoRafI=F ISym2E= 0 IDoP0=0 IntGTp=1.
 FoFCou: FMM=F IPFlag=           0 FMFlag=      100000 FMFlg1=         800
         NFxFlg=           0 DoJE=F BraDBF=F KetDBF=F FulRan=T
         wScrn=  0.000000 ICntrl=    100147 IOpCl=  1 I1Cent=           0 NGrid=           0
         NMat0=    1 NMatS0=      1 NMatT0=    0 NMatD0=    1 NMtDS0=    0 NMtDT0=    0
 Symmetry not used in FoFCou.
 Leave Link  703 at Mon Mar 11 00:07:46 2019, MaxMem=   671088640 cpu:             806.7 elap:              40.4
 (Enter /shared/centos7/gaussian/g16/l716.exe)
 Dipole        = 1.50581536D-01 5.37265211D-01 8.77880542D-02
 Polarizability= 0.00000000D+00 0.00000000D+00 0.00000000D+00
                 0.00000000D+00 0.00000000D+00 0.00000000D+00
 ***** Axes restored to original set *****
 -------------------------------------------------------------------
 Center     Atomic                   Forces (Hartrees/Bohr)
 Number     Number              X              Y              Z
 -------------------------------------------------------------------
      1        8           0.000000446   -0.000000014   -0.000001142
      2        6          -0.000000088   -0.000000184    0.000000581
      3        6          -0.000000560    0.000000789   -0.000000688
      4        6           0.000001067   -0.000000963    0.000000103
      5        1           0.000000053   -0.000000804    0.000002224
      6        1          -0.000001447    0.000001054    0.000000792
      7        1          -0.000000425    0.000000075    0.000000867
      8        1          -0.000000131    0.000000830   -0.000002085
      9        1          -0.000001984    0.000001981   -0.000000553
     10        1           0.000002284   -0.000001676   -0.000001114
     11        1           0.000000785   -0.000001087    0.000001015
 -------------------------------------------------------------------
 Cartesian Forces:  Max     0.000002284 RMS     0.000001115
 Force constants in Cartesian coordinates: 
                1             2             3             4             5 
      1  0.474008D+00
      2  0.108291D+00  0.348503D+00
      3  0.447338D-01 -0.101789D+00  0.163969D+00
      4 -0.234137D+00 -0.801926D-02 -0.424627D-01  0.495491D+00
      5  0.309422D-01 -0.830253D-01  0.209950D-01  0.159628D-01  0.525851D+00
      6 -0.614415D-01  0.123349D-01 -0.870642D-01  0.107335D-02 -0.240236D-01
      7 -0.126205D+00 -0.492611D-01  0.902196D-02 -0.387622D-01 -0.396429D-01
      8 -0.887285D-01 -0.206054D+00  0.510283D-01 -0.106211D-01 -0.607202D-02
      9  0.294311D-01  0.615869D-01 -0.875301D-01 -0.396019D-02 -0.914634D-02
     10 -0.329773D-01 -0.408129D-01  0.120585D-01 -0.105839D+00 -0.591698D-01
     11 -0.688179D-02 -0.169567D-02 -0.651556D-03 -0.759056D-01 -0.185053D+00
     12 -0.789657D-02 -0.121935D-01  0.610230D-02  0.147128D-01  0.696716D-01
     13 -0.398880D-01  0.270009D-01  0.704017D-02 -0.788736D-01  0.646252D-01
     14  0.714099D-02  0.166057D-03  0.237109D-02  0.788733D-01 -0.198028D+00
     15 -0.814983D-02  0.100405D-01  0.812603D-02  0.365163D-01 -0.726337D-01
     16 -0.214008D-01 -0.525192D-03 -0.408377D-01 -0.498992D-01 -0.132030D-02
     17 -0.597428D-03  0.107036D-02  0.390269D-02 -0.104665D-02 -0.456325D-01
     18 -0.151384D-01  0.144747D-02 -0.822152D-02 -0.767313D-02  0.112243D-01
     19  0.508832D-02 -0.208454D-01 -0.718967D-02  0.481778D-02 -0.334129D-02
     20 -0.212744D-02 -0.406639D-01 -0.460165D-02  0.573942D-02  0.667115D-03
     21 -0.446425D-02  0.132172D-01  0.907032D-02 -0.774400D-03  0.382876D-03
     22 -0.211332D-01 -0.455777D-02 -0.336569D-02  0.145685D-02 -0.337794D-02
     23 -0.374808D-01 -0.204650D-02 -0.902942D-02 -0.916085D-03 -0.429800D-02
     24  0.138614D-01 -0.205690D-03  0.401860D-02  0.856122D-03  0.142774D-02
     25 -0.403625D-02 -0.963128D-02  0.198208D-01  0.384421D-02  0.621454D-04
     26 -0.986651D-02 -0.133999D-01  0.369267D-01  0.442991D-02  0.448568D-03
     27  0.732201D-02  0.138968D-01 -0.870367D-02 -0.287522D-02 -0.491736D-03
     28  0.189252D-02  0.144841D-02  0.152788D-03  0.737913D-02 -0.835148D-02
     29  0.127360D-02  0.214843D-02 -0.155527D-02  0.111888D-01 -0.751570D-02
     30 -0.279201D-03 -0.834321D-03  0.213015D-03 -0.418843D-02  0.212234D-02
     31 -0.121106D-02 -0.308746D-02  0.102763D-02 -0.547882D-02  0.361139D-02
     32 -0.196541D-02 -0.500249D-02  0.240288D-02 -0.196855D-01  0.265813D-02
     33  0.202142D-02  0.249837D-02  0.204659D-04  0.877551D-02  0.471555D-03
                6             7             8             9            10 
      6  0.534031D+00
      7  0.119124D-01  0.607611D+00
      8 -0.161182D-02 -0.330716D-01  0.516277D+00
      9 -0.199972D-03  0.301131D-01  0.136915D-01  0.561471D+00
     10  0.454529D-02 -0.543308D-02  0.117421D-02 -0.215966D-02  0.534304D+00
     11  0.631744D-01 -0.173188D-03 -0.104109D-02  0.317486D-03  0.114878D+00
     12 -0.861050D-01 -0.215778D-02  0.827939D-03 -0.915355D-03  0.197972D+00
     13  0.333817D-01  0.259519D-02  0.693102D-02 -0.565614D-03  0.783574D-02
     14 -0.788352D-01 -0.231341D-02  0.244209D-02  0.115957D-02  0.267359D-02
     15 -0.834592D-01  0.131389D-04  0.654248D-03  0.335448D-03 -0.427503D-02
     16 -0.188459D-03  0.314212D-02  0.461254D-02 -0.441697D-02  0.478546D-02
     17  0.148389D-01  0.717453D-04  0.104197D-02 -0.232853D-02  0.194072D-02
     18 -0.280155D+00  0.176887D-02  0.178440D-02  0.142410D-02  0.123925D-02
     19 -0.114123D-02 -0.988421D-01  0.873654D-01  0.448734D-01 -0.180750D-03
     20  0.106753D-02  0.834719D-01 -0.203906D+00 -0.840824D-01 -0.543121D-03
     21  0.252251D-03  0.452183D-01 -0.864499D-01 -0.982654D-01 -0.171938D-03
     22  0.217076D-02 -0.290108D+00  0.296638D-01 -0.807841D-01 -0.844532D-03
     23  0.213993D-02  0.409398D-01 -0.533532D-01  0.123792D-01 -0.163110D-02
     24 -0.390119D-03 -0.867909D-01  0.932507D-02 -0.794816D-01  0.595185D-03
     25  0.459075D-02 -0.538014D-01  0.234531D-02 -0.122634D-01 -0.244734D-03
     26  0.254452D-02  0.118891D-02 -0.504304D-01  0.709938D-02 -0.114493D-03
     27  0.139451D-02 -0.992837D-02  0.109164D-01 -0.297786D+00  0.372865D-03
     28  0.982829D-02 -0.156534D-03 -0.285402D-03  0.233925D-03 -0.969568D-01
     29  0.194870D-01 -0.123344D-03  0.803123D-04 -0.144486D-03  0.515942D-01
     30 -0.240596D-02  0.825456D-04 -0.296265D-03  0.208431D-03 -0.109722D+00
     31 -0.473131D-02 -0.391093D-04  0.614331D-03 -0.501722D-03 -0.304449D+00
     32 -0.111166D-01 -0.108680D-02  0.101589D-02 -0.532290D-03 -0.699892D-01
     33  0.410130D-02  0.746720D-03  0.130071D-03  0.739667D-03 -0.100454D+00
               11            12            13            14            15 
     11  0.396836D+00
     12 -0.218139D+00  0.343747D+00
     13 -0.101511D-01 -0.310785D-02  0.105252D+00
     14 -0.268733D-01 -0.291357D-02 -0.873315D-01  0.221974D+00
     15  0.104781D-01  0.524602D-02 -0.381177D-01  0.798058D-01  0.870724D-01
     16 -0.158592D-02  0.116746D-01  0.316473D-02  0.510860D-03  0.129354D-01
     17 -0.748836D-02  0.275657D-01  0.123971D-02  0.829699D-03 -0.276734D-01
     18  0.542067D-02 -0.822100D-02  0.143657D-02 -0.139327D-02 -0.158903D-01
     19 -0.284433D-03  0.180911D-03  0.682493D-03  0.145366D-02  0.700185D-03
     20  0.398920D-03  0.181029D-03 -0.162361D-02  0.698619D-03 -0.671949D-04
     21  0.201729D-03 -0.120767D-03 -0.374255D-03 -0.625134D-03 -0.155815D-03
     22  0.266738D-03 -0.615460D-03  0.214242D-03  0.299831D-04 -0.701373D-05
     23  0.365478D-03 -0.627109D-03 -0.446766D-03  0.409528D-03  0.263646D-03
     24  0.889587D-04  0.604247D-03 -0.193363D-03  0.179259D-03 -0.537167D-04
     25 -0.210989D-03 -0.905551D-04 -0.306654D-03  0.171545D-03 -0.135739D-03
     26 -0.170756D-03 -0.156920D-03 -0.636594D-03 -0.220992D-03 -0.480698D-03
     27 -0.128988D-03  0.627132D-03  0.312794D-03 -0.244627D-03 -0.480269D-03
     28  0.545000D-01 -0.108316D+00 -0.421767D-03 -0.554372D-03  0.494851D-03
     29 -0.120415D+00  0.134631D+00 -0.545710D-03 -0.123112D-02 -0.152221D-03
     30  0.139744D+00 -0.198767D+00  0.128535D-03 -0.702909D-04 -0.106616D-02
     31 -0.744517D-01 -0.102356D+00 -0.253961D-03 -0.654556D-03  0.254225D-04
     32 -0.548637D-01  0.115249D-02  0.938540D-03 -0.166632D-03 -0.235043D-03
     33 -0.506453D-03 -0.621970D-01  0.590592D-04  0.566419D-03  0.325585D-03
               16            17            18            19            20 
     16  0.611614D-01
     17 -0.133236D-03  0.521317D-01
     18  0.176810D-01 -0.172504D-01  0.311033D+00
     19 -0.419662D-03  0.297487D-03  0.117816D-03  0.980057D-01
     20 -0.560748D-03 -0.132932D-03 -0.347578D-03 -0.873367D-01  0.240665D+00
     21  0.454482D-03 -0.187595D-03 -0.432476D-03 -0.500371D-01  0.901660D-01
     22  0.276225D-04  0.622402D-04 -0.164790D-03 -0.104177D-01  0.240738D-02
     23  0.000000D+00 -0.122878D-03 -0.179845D-03  0.235914D-01 -0.107164D-02
     24  0.346388D-03  0.101073D-03  0.557877D-03  0.141951D-01 -0.167493D-02
     25  0.594351D-03  0.276682D-03 -0.116588D-02  0.129008D-02  0.533068D-03
     26 -0.116649D-03  0.401947D-03 -0.129882D-02 -0.101498D-02  0.330755D-02
     27  0.179566D-02  0.325755D-03  0.159041D-03 -0.165699D-02 -0.540621D-03
     28 -0.126886D-02 -0.207332D-02  0.170985D-02 -0.100201D-04  0.153268D-03
     29 -0.132254D-02 -0.278708D-02 -0.285989D-03  0.585388D-04  0.884388D-04
     30  0.809685D-03  0.170732D-02 -0.774604D-03 -0.516196D-04 -0.111521D-03
     31  0.112829D-03 -0.379487D-04  0.188820D-03 -0.141029D-04 -0.113471D-03
     32  0.441603D-03  0.688054D-03  0.879044D-03  0.563587D-04 -0.514012D-04
     33 -0.254147D-03 -0.100156D-02  0.520664D-03  0.916141D-05  0.113859D-04
               21            22            23            24            25 
     21  0.976814D-01
     22 -0.449023D-02  0.319362D+00
     23  0.928841D-02 -0.251428D-01  0.600637D-01
     24  0.514709D-02  0.874492D-01 -0.136227D-01  0.781129D-01
     25  0.145699D-01  0.157197D-02  0.114611D-02 -0.302979D-01  0.511455D-01
     26 -0.259885D-01  0.991716D-03  0.424094D-03  0.427172D-02  0.519953D-02
     27 -0.131671D-01 -0.404402D-03 -0.883148D-03 -0.842927D-02  0.517192D-02
     28  0.478710D-04 -0.252535D-05  0.960803D-04 -0.766718D-04 -0.295659D-04
     29  0.497232D-04 -0.471490D-04  0.363891D-04 -0.477927D-04  0.126636D-03
     30  0.171707D-04  0.436845D-04  0.531351D-04  0.154734D-05 -0.127643D-03
     31  0.216393D-04 -0.126480D-03 -0.155301D-03  0.554785D-04 -0.274981D-04
     32 -0.547878D-04 -0.296185D-03 -0.406903D-03  0.157301D-03 -0.187534D-04
     33 -0.266662D-04  0.168052D-03  0.217885D-03 -0.875783D-04 -0.722982D-04
               26            27            28            29            30 
     26  0.595439D-01
     27 -0.227356D-01  0.326415D+00
     28  0.122810D-04 -0.215708D-03  0.941258D-01
     29  0.126069D-03 -0.200094D-03 -0.586443D-01  0.122809D+00
     30 -0.913257D-04  0.732313D-05  0.113213D+00 -0.145438D+00  0.204116D+00
     31 -0.731157D-04  0.105445D-03 -0.455130D-02 -0.355876D-02  0.916759D-04
     32 -0.300462D-04  0.857952D-04  0.136988D-01  0.666025D-02  0.321479D-02
     33 -0.904424D-04 -0.360532D-04 -0.170718D-01 -0.634364D-02 -0.154976D-02
               31            32            33 
     31  0.316038D+00
     32  0.779066D-01  0.494989D-01
     33  0.106073D+00  0.404640D-02  0.581894D-01
 FormGI is forming the generalized inverse of G from B-inverse, IUseBI=4.
 Force constants in internal coordinates: 
                1             2             3             4             5 
      1  0.374501D+00
      2  0.266265D-02  0.383231D+00
      3  0.210676D-01  0.167923D-02  0.328687D+00
      4  0.185454D-01 -0.178109D-03  0.144441D-01  0.304543D+00
      5  0.179890D-01 -0.101421D-04  0.100701D-01  0.656491D-02  0.313394D+00
      6 -0.358834D-03  0.183270D-01 -0.261426D-03  0.400900D-03  0.492587D-03
      7 -0.187189D-02  0.107455D-01  0.225892D-03 -0.583687D-04 -0.354409D-04
      8 -0.283448D-03  0.182902D-01 -0.282095D-03  0.500162D-03  0.383553D-03
      9  0.184799D-03 -0.585731D-03  0.205711D-02  0.258086D-04 -0.209615D-03
     10  0.709932D-03 -0.318158D-03  0.177206D-02  0.352790D-03  0.556217D-03
     11  0.489208D-01  0.496481D-01  0.928832D-02 -0.289151D-02 -0.222990D-02
     12  0.226215D-01  0.119775D-01  0.232092D-01 -0.516285D-02 -0.409821D-02
     13  0.147412D-01 -0.816736D-02 -0.167556D-01  0.331419D-02 -0.614072D-03
     14  0.130640D-01 -0.798204D-02 -0.146023D-01 -0.705543D-03  0.184072D-02
     15 -0.233596D-01  0.161977D-02  0.858898D-02  0.323200D-02 -0.595245D-02
     16 -0.225306D-01  0.122561D-02  0.826487D-02 -0.571274D-02  0.373033D-02
     17 -0.505916D-02  0.569295D-03 -0.104965D-01  0.548644D-02  0.537752D-02
     18 -0.810493D-02  0.275395D-01  0.100452D-03  0.254632D-02 -0.495623D-03
     19  0.803063D-02  0.272296D-01  0.107789D-02  0.888613D-04  0.580692D-04
     20 -0.813474D-02  0.275974D-01 -0.768378D-04 -0.459780D-03  0.257331D-02
     21  0.282374D-02 -0.274269D-01 -0.472914D-03 -0.131428D-02 -0.286635D-03
     22  0.294942D-02 -0.291493D-01 -0.181030D-03 -0.597574D-03 -0.624054D-03
     23  0.278489D-02 -0.274548D-01 -0.466581D-03 -0.326408D-03 -0.128446D-02
     24 -0.482023D-02 -0.438442D-03  0.943407D-02  0.326974D-03  0.132248D-02
     25  0.617940D-02  0.607242D-03  0.562475D-02  0.712362D-03 -0.278392D-03
     26 -0.138279D-02 -0.175151D-03 -0.148366D-01 -0.976317D-03 -0.107973D-02
     27 -0.501600D-04 -0.379152D-03  0.567585D-03 -0.443688D-02  0.433427D-02
     28 -0.518771D-02  0.402287D-02  0.152461D-01 -0.160505D-02 -0.602034D-02
     29  0.470947D-02 -0.458465D-02 -0.154972D-01  0.654645D-02  0.117235D-02
     30 -0.364716D-02  0.404243D-03 -0.122679D-03 -0.464543D-04  0.675471D-03
     31  0.896424D-04  0.305478D-04  0.326792D-04 -0.108179D-03  0.719656D-04
     32  0.376119D-02 -0.366277D-03  0.917516D-04 -0.719753D-03  0.420107D-04
     33  0.126100D-03 -0.550172D-04 -0.105030D-02  0.312558D-02 -0.222529D-02
     34 -0.180633D-03 -0.118588D-03 -0.711363D-03  0.350732D-02 -0.258499D-02
     35 -0.181649D-01  0.121226D-02 -0.942012D-03  0.307053D-03  0.507504D-02
     36 -0.184716D-01  0.114868D-02 -0.603076D-03  0.688791D-03  0.471534D-02
     37  0.168546D-01 -0.127567D-02  0.151676D-02 -0.493238D-02 -0.212150D-03
     38  0.165478D-01 -0.133924D-02  0.185570D-02 -0.455064D-02 -0.571851D-03
                6             7             8             9            10 
      6  0.328073D+00
      7  0.316652D-02  0.350437D+00
      8  0.430137D-02  0.319044D-02  0.328387D+00
      9 -0.230651D-04  0.491294D-04 -0.263408D-04  0.371616D+00
     10  0.980355D-04  0.882193D-04  0.106061D-03  0.457633D-03  0.371473D+00
     11 -0.270699D-02  0.488547D-02 -0.230296D-02  0.493170D-04  0.919658D-03
     12 -0.292802D-03  0.103492D-02 -0.381325D-03 -0.488151D-02  0.516885D-02
     13  0.175749D-02 -0.453754D-03 -0.877325D-04  0.108135D-02 -0.169753D-02
     14 -0.125485D-03 -0.436642D-03  0.183028D-02  0.697573D-03 -0.161791D-02
     15 -0.123428D-02 -0.958343D-04 -0.814263D-04  0.119488D-02 -0.953594D-03
     16 -0.535603D-04 -0.123638D-03 -0.125228D-02  0.336721D-02 -0.132144D-02
     17 -0.124954D-04  0.179875D-04  0.230575D-04 -0.127745D-02  0.161137D-03
     18  0.208485D-02 -0.496840D-02 -0.554584D-02 -0.143938D-03  0.364138D-05
     19 -0.530336D-02  0.336578D-02 -0.526999D-02  0.218892D-03  0.271380D-03
     20 -0.551897D-02 -0.503297D-02  0.198054D-02 -0.294102D-03  0.944853D-04
     21  0.642392D-02  0.588047D-02 -0.549456D-02  0.543369D-04 -0.130559D-03
     22  0.772903D-02 -0.460560D-02  0.771991D-02  0.689546D-04 -0.105845D-03
     23 -0.548369D-02  0.589059D-02  0.655296D-02  0.105643D-03 -0.139055D-03
     24 -0.261463D-03 -0.738635D-04 -0.464813D-03  0.596029D-02 -0.104120D-01
     25  0.208420D-03  0.271314D-03  0.319450D-03 -0.957353D-02  0.587468D-02
     26  0.584921D-04 -0.194557D-03  0.141063D-03  0.376506D-02  0.465969D-02
     27  0.435317D-03 -0.101479D-04 -0.308396D-03  0.858454D-03 -0.142160D-03
     28 -0.157173D-03  0.239137D-03 -0.707065D-03 -0.733814D-04  0.877855D-03
     29  0.776248D-03 -0.251667D-03  0.314290D-03 -0.591465D-03 -0.835964D-03
     30  0.506809D-03 -0.635019D-02  0.701138D-02 -0.372518D-04 -0.447423D-04
     31  0.625499D-02  0.354833D-04 -0.623940D-02  0.819491D-04 -0.323226D-04
     32 -0.698020D-02  0.639527D-02 -0.373783D-03  0.176085D-03  0.226528D-04
     33  0.496907D-03 -0.741145D-05 -0.537732D-03 -0.114643D-02 -0.580393D-03
     34  0.542267D-03 -0.341484D-05 -0.557790D-03  0.328508D-03  0.730648D-03
     35 -0.711421D-03 -0.609192D-04 -0.124358D-03 -0.492115D-04 -0.125246D-02
     36 -0.666061D-03 -0.569226D-04 -0.144416D-03  0.142573D-02  0.585839D-04
     37  0.109491D-03  0.542893D-04  0.683824D-03 -0.132535D-02 -0.267233D-04
     38  0.154851D-03  0.582860D-04  0.663767D-03  0.149591D-03  0.128432D-02
               11            12            13            14            15 
     11  0.280924D+00
     12  0.196000D-01  0.164013D+00
     13 -0.634287D-02 -0.594860D-01  0.729205D-01
     14 -0.731859D-02 -0.585590D-01  0.567436D-02  0.721721D-01
     15 -0.475005D-02 -0.361518D-01 -0.261213D-01  0.178126D-01  0.673883D-01
     16 -0.454682D-02 -0.411149D-01  0.192658D-01 -0.253019D-01 -0.300701D-02
     17  0.239374D-02  0.232642D-01 -0.878748D-02 -0.815657D-02 -0.188968D-01
     18 -0.515752D-02 -0.200495D-03 -0.143300D-02  0.156929D-02  0.619029D-03
     19  0.188761D-01  0.373984D-02 -0.100523D-02 -0.839034D-03 -0.122228D-02
     20 -0.534422D-02  0.195733D-03  0.145387D-02 -0.163957D-02 -0.283436D-03
     21 -0.455633D-02 -0.174776D-02  0.793136D-03  0.381548D-03  0.447776D-03
     22  0.821644D-03 -0.219127D-03 -0.218745D-03 -0.214156D-03  0.184812D-03
     23 -0.469488D-02 -0.184802D-02  0.443269D-03  0.773431D-03  0.261350D-03
     24 -0.125443D-02 -0.175295D-01  0.391253D-02  0.216246D-02  0.490925D-02
     25  0.393724D-02  0.183304D-01 -0.467330D-02 -0.326583D-02 -0.500870D-02
     26 -0.264548D-02 -0.785779D-03  0.801214D-03  0.108323D-02  0.374234D-04
     27 -0.572124D-03 -0.123098D-02  0.390593D-02 -0.371381D-02 -0.197891D-01
     28  0.195309D-02  0.202644D-01 -0.196947D-01 -0.152401D-01  0.239617D-01
     29 -0.301196D-02 -0.195647D-01  0.152500D-01  0.193799D-01 -0.387285D-02
     30 -0.279013D-02 -0.188169D-03 -0.280820D-03  0.550181D-04  0.429041D-03
     31  0.438975D-03 -0.100679D-03 -0.778352D-03  0.913391D-03  0.573148D-03
     32  0.338400D-02  0.943172D-04 -0.164428D-04  0.376213D-03 -0.372038D-04
     33  0.349022D-03  0.338589D-03  0.186464D-01 -0.186405D-01 -0.293945D-02
     34  0.387965D-03  0.353805D-03  0.190247D-01 -0.186900D-01 -0.338991D-02
     35 -0.158693D-02 -0.101692D-01 -0.164396D-01  0.140053D-02  0.101453D-01
     36 -0.154799D-02 -0.101540D-01 -0.160613D-01  0.135108D-02  0.969482D-02
     37  0.126829D-02  0.938952D-02 -0.129897D-02  0.162548D-01 -0.667332D-02
     38  0.130723D-02  0.940474D-02 -0.920611D-03  0.162053D-01 -0.712378D-02
               16            17            18            19            20 
     16  0.705779D-01
     17 -0.197163D-01  0.319345D-01
     18 -0.190863D-03 -0.364278D-03  0.140728D+00
     19 -0.137812D-02  0.537498D-03 -0.308952D-01  0.136869D+00
     20  0.638844D-03 -0.386837D-03 -0.327411D-01 -0.309391D-01  0.141325D+00
     21  0.248819D-03 -0.317227D-04 -0.372693D-01 -0.376819D-01 -0.140491D-02
     22  0.161913D-03  0.314709D-03 -0.404810D-01 -0.442005D-03 -0.406340D-01
     23  0.527212D-03 -0.649059D-04 -0.133827D-02 -0.376242D-01 -0.375453D-01
     24  0.106684D-01 -0.343345D-02 -0.575156D-05 -0.739218D-03  0.206001D-04
     25 -0.902862D-02  0.286693D-02 -0.176069D-03  0.129385D-02 -0.233611D-03
     26 -0.163099D-02  0.584356D-03  0.171510D-03 -0.544393D-03  0.218135D-03
     27  0.208822D-01 -0.185155D-03  0.879195D-03 -0.246738D-05 -0.886119D-03
     28  0.334070D-02 -0.143881D-01  0.604395D-03  0.219272D-03 -0.185987D-03
     29 -0.237418D-01  0.144499D-01  0.227872D-03 -0.193422D-03 -0.745177D-03
     30  0.698822D-04 -0.827739D-04  0.171770D-02 -0.215253D-01  0.209909D-01
     31 -0.599914D-03  0.184557D-05  0.191100D-01  0.151763D-04 -0.192181D-01
     32 -0.444460D-03  0.326960D-04 -0.209545D-01  0.215555D-01 -0.189613D-02
     33  0.293298D-02 -0.330864D-03 -0.110470D-02 -0.633105D-04  0.110662D-02
     34  0.286885D-02 -0.151128D-03 -0.116603D-02 -0.370281D-04  0.116428D-02
     35  0.789697D-02  0.747932D-02  0.419399D-03 -0.485500D-03 -0.656454D-03
     36  0.783284D-02  0.765905D-02  0.358069D-03 -0.459218D-03 -0.598794D-03
     37 -0.100643D-01 -0.793171D-02  0.603810D-03  0.477113D-03 -0.400426D-03
     38 -0.101284D-01 -0.775198D-02  0.542480D-03  0.503396D-03 -0.342766D-03
               21            22            23            24            25 
     21  0.705602D-01
     22  0.434560D-02  0.730565D-01
     23  0.375847D-02  0.435284D-02  0.707096D-01
     24  0.296699D-03  0.112222D-03  0.327709D-03  0.707199D-01
     25 -0.368726D-03 -0.110433D-03 -0.414383D-03 -0.376493D-01  0.714612D-01
     26  0.722884D-04 -0.240959D-05  0.819810D-04 -0.325681D-01 -0.334426D-01
     27 -0.433394D-03 -0.287220D-04  0.472774D-03  0.196898D-02 -0.128856D-02
     28 -0.483645D-03 -0.786372D-04 -0.946257D-04 -0.593674D-03  0.117469D-02
     29  0.156115D-03  0.525164D-04  0.525573D-03 -0.123803D-02  0.632090D-04
     30 -0.208235D-01  0.186508D-01 -0.227893D-03  0.419209D-04 -0.196645D-03
     31  0.200170D-01  0.232323D-04 -0.199578D-01 -0.614691D-04  0.594865D-04
     32  0.231981D-03 -0.186625D-01  0.209623D-01 -0.111282D-03  0.225767D-03
     33  0.222678D-03  0.167862D-04 -0.176884D-03 -0.780721D-03  0.892338D-04
     34  0.231544D-03  0.121208D-04 -0.203949D-03  0.149067D-03 -0.214659D-03
     35  0.954378D-04  0.315555D-03  0.319105D-03  0.272460D-02 -0.292938D-02
     36  0.104303D-03  0.310890D-03  0.292039D-03  0.365439D-02 -0.323328D-02
     37 -0.301368D-03 -0.291869D-03 -0.946814D-04 -0.278247D-02  0.231332D-02
     38 -0.292502D-03 -0.296535D-03 -0.121747D-03 -0.185268D-02  0.200943D-02
               26            27            28            29            30 
     26  0.652044D-01
     27 -0.681552D-03  0.172994D-01
     28 -0.623518D-03 -0.546770D-02  0.244811D-01
     29  0.116587D-02 -0.554350D-02 -0.130351D-01  0.243382D-01
     30  0.161965D-03 -0.339353D-03 -0.107115D-03 -0.338754D-03  0.277225D-01
     31  0.992139D-05 -0.356484D-03 -0.207517D-03 -0.135870D-03 -0.101793D-01
     32 -0.102887D-03 -0.297998D-03 -0.294617D-03 -0.499692D-04 -0.116569D-01
     33  0.535348D-03 -0.577611D-02  0.268518D-02  0.247169D-02 -0.124016D-03
     34  0.325705D-03 -0.584249D-02  0.231243D-02  0.250756D-02 -0.556155D-04
     35  0.281104D-04  0.289412D-02 -0.148928D-02 -0.119362D-02  0.746867D-04
     36 -0.181533D-03  0.282774D-02 -0.186203D-02 -0.115776D-02  0.143087D-03
     37  0.303596D-03  0.239352D-02 -0.727309D-03 -0.179134D-02 -0.134807D-03
     38  0.939527D-04  0.232714D-02 -0.110005D-02 -0.175548D-02 -0.664071D-04
               31            32            33            34            35 
     31  0.254527D-01
     32 -0.101346D-01  0.278352D-01
     33 -0.537254D-03 -0.146722D-03  0.150411D-01
     34 -0.477425D-03 -0.698537D-04  0.139268D-01  0.158904D-01
     35  0.132651D-03 -0.164394D-03 -0.658739D-02 -0.789452D-02  0.141247D-01
     36  0.192480D-03 -0.875263D-04 -0.770173D-02 -0.593092D-02  0.128176D-01
[...]
 Alpha virt. eigenvalues --    0.75306   0.84618   0.85445   0.88150   0.88885
 Alpha virt. eigenvalues --    0.92392   0.95296   0.96488   0.99052   1.01830
 Alpha virt. eigenvalues --    1.05418   1.06552   1.07999   1.08724   1.12136
 Alpha virt. eigenvalues --    1.16322   1.17986   1.19224   1.20577   1.21674
 Alpha virt. eigenvalues --    1.25849   1.28583   1.29402   1.32469   1.33209
 Alpha virt. eigenvalues --    1.35594   1.39751   1.41807   1.42413   1.44666
 Alpha virt. eigenvalues --    1.45526   1.46708   1.47400   1.51886   1.53411
 Alpha virt. eigenvalues --    1.53982   1.59020   1.60833   1.75531   1.77279
 Alpha virt. eigenvalues --    1.99927   2.09171   2.11845   2.22615   2.35154
 Alpha virt. eigenvalues --    2.39893   2.44099   2.46521   2.49275   2.60330
 Alpha virt. eigenvalues --    2.62591   2.71294   2.74304   2.79835   2.80810
 Alpha virt. eigenvalues --    2.88756   2.94436   2.96459   2.97429   3.03074
 Alpha virt. eigenvalues --    3.05878   3.07054   3.08063   3.11627   3.13515
 Alpha virt. eigenvalues --    3.14742   3.16043   3.21200   3.22539   3.24120
 Alpha virt. eigenvalues --    3.25915   3.31347   3.34555   3.38493   3.40427
 Alpha virt. eigenvalues --    3.41836   3.44955   3.47376   3.50062   3.54125
 Alpha virt. eigenvalues --    3.57813   3.61744   3.65043   3.67426   3.72007
 Alpha virt. eigenvalues --    3.79012   3.86549   3.86752   3.88594   3.89444
 Alpha virt. eigenvalues --    3.97011   4.02313   4.06231   4.07716   4.09394
 Alpha virt. eigenvalues --    4.14080   4.15663   4.16758   4.19119   4.22017
 Alpha virt. eigenvalues --    4.24113   4.27402   4.29356   4.34922   4.38401
 Alpha virt. eigenvalues --    4.42145   4.44263   4.50310   4.53772   4.64832
 Alpha virt. eigenvalues --    4.89361   4.92088   5.18106   5.20375   5.24057
 Alpha virt. eigenvalues --    5.31773   5.46221   5.49303   5.51052   5.52308
 Alpha virt. eigenvalues --    5.58059   5.63129   5.66808   5.82849   5.87076
 Alpha virt. eigenvalues --    6.23517   6.48911   6.71933   7.18276   7.21073
 Alpha virt. eigenvalues --    7.31403   7.66642   7.76756  24.27153  24.43656
 Alpha virt. eigenvalues --   24.50847  50.16776
  Beta  occ. eigenvalues --  -19.62681 -10.58929 -10.57680 -10.53437  -1.16536
  Beta  occ. eigenvalues --   -0.85001  -0.75545  -0.67229  -0.56710  -0.55762
  Beta  occ. eigenvalues --   -0.53332  -0.47381  -0.45583  -0.43721  -0.39653
  Beta  occ. eigenvalues --   -0.33614
  Beta virt. eigenvalues --   -0.02569   0.01714   0.03030   0.04054   0.04785
  Beta virt. eigenvalues --    0.05600   0.06786   0.08408   0.08612   0.09620
  Beta virt. eigenvalues --    0.12221   0.13210   0.14218   0.18831   0.19412
  Beta virt. eigenvalues --    0.21187   0.21993   0.22503   0.23042   0.25473
  Beta virt. eigenvalues --    0.26168   0.27081   0.28578   0.29825   0.31853
  Beta virt. eigenvalues --    0.35215   0.37453   0.44130   0.44325   0.48293
  Beta virt. eigenvalues --    0.50258   0.51442   0.53435   0.53886   0.55068
  Beta virt. eigenvalues --    0.57181   0.58436   0.58610   0.60210   0.60893
  Beta virt. eigenvalues --    0.61752   0.63144   0.64778   0.66230   0.67148
  Beta virt. eigenvalues --    0.68466   0.75477   0.84350   0.84952   0.87925
  Beta virt. eigenvalues --    0.88835   0.92471   0.95075   0.95895   0.98986
  Beta virt. eigenvalues --    1.00020   1.05425   1.06574   1.07989   1.08657
  Beta virt. eigenvalues --    1.13011   1.16172   1.17968   1.19424   1.20343
  Beta virt. eigenvalues --    1.21692   1.25951   1.28826   1.29632   1.32314
  Beta virt. eigenvalues --    1.33279   1.35615   1.40158   1.41820   1.42562
  Beta virt. eigenvalues --    1.44865   1.45726   1.47277   1.47623   1.51905
  Beta virt. eigenvalues --    1.53643   1.55401   1.59341   1.61305   1.75559
  Beta virt. eigenvalues --    1.77375   2.00136   2.09329   2.11912   2.22921
  Beta virt. eigenvalues --    2.35264   2.40109   2.44269   2.47327   2.49529
  Beta virt. eigenvalues --    2.61435   2.62962   2.72445   2.78433   2.82818
  Beta virt. eigenvalues --    2.85378   2.91808   2.96944   2.98754   3.00755
  Beta virt. eigenvalues --    3.05989   3.07649   3.08385   3.09222   3.13359
  Beta virt. eigenvalues --    3.15313   3.16938   3.17884   3.22403   3.26453
  Beta virt. eigenvalues --    3.27638   3.30492   3.33547   3.34933   3.39557
  Beta virt. eigenvalues --    3.42580   3.44323   3.45927   3.50561   3.51592
  Beta virt. eigenvalues --    3.56602   3.59243   3.61979   3.65445   3.68868
  Beta virt. eigenvalues --    3.72548   3.79486   3.86629   3.88681   3.88761
  Beta virt. eigenvalues --    3.90999   3.98215   4.02762   4.07478   4.09516
  Beta virt. eigenvalues --    4.11071   4.16707   4.17163   4.17758   4.21014
  Beta virt. eigenvalues --    4.23252   4.26804   4.28985   4.30550   4.36475
  Beta virt. eigenvalues --    4.39410   4.42914   4.44704   4.50853   4.55186
  Beta virt. eigenvalues --    4.69936   4.91078   4.94235   5.20326   5.21584
  Beta virt. eigenvalues --    5.24304   5.32215   5.48549   5.50701   5.54402
  Beta virt. eigenvalues --    5.55392   5.60215   5.63158   5.67609   5.82924
  Beta virt. eigenvalues --    5.87126   6.23776   6.48986   6.71983   7.18293
  Beta virt. eigenvalues --    7.21114   7.31439   7.66696   7.76796  24.28221
  Beta virt. eigenvalues --   24.43657  24.51420  50.16770
          Condensed to atoms (all electrons):
               1          2          3          4          5          6
     1  O    8.279936   0.113456   0.127005  -0.104008  -0.058697  -0.047377
     2  C    0.113456   5.003904  -0.097702   0.345237   0.434254   0.453209
     3  C    0.127005  -0.097702   4.933792  -0.019755   0.003128   0.002519
     4  C   -0.104008   0.345237  -0.019755   5.438346  -0.055595  -0.068214
     5  H   -0.058697   0.434254   0.003128  -0.055595   0.606623  -0.064553
     6  H   -0.047377   0.453209   0.002519  -0.068214  -0.064553   0.583010
     7  H   -0.047002  -0.004132   0.435906  -0.002639   0.008909  -0.003594
     8  H   -0.055608   0.013042   0.424853   0.002640   0.000051   0.000054
     9  H   -0.047575  -0.004244   0.436943  -0.002275  -0.003972   0.007850
    10  H   -0.002370  -0.017662   0.002529   0.398239   0.001141   0.003757
    11  H    0.008649  -0.032729   0.000241   0.407833  -0.001555  -0.002116
               7          8          9         10         11
     1  O   -0.047002  -0.055608  -0.047575  -0.002370   0.008649
     2  C   -0.004132   0.013042  -0.004244  -0.017662  -0.032729
     3  C    0.435906   0.424853   0.436943   0.002529   0.000241
     4  C   -0.002639   0.002640  -0.002275   0.398239   0.407833
     5  H    0.008909   0.000051  -0.003972   0.001141  -0.001555
     6  H   -0.003594   0.000054   0.007850   0.003757  -0.002116
     7  H    0.578970  -0.025629  -0.053137  -0.000017  -0.000008
     8  H   -0.025629   0.536501  -0.025368   0.000007   0.000011
     9  H   -0.053137  -0.025368   0.579351  -0.000034   0.000017
    10  H   -0.000017   0.000007  -0.000034   0.457432  -0.021253
    11  H   -0.000008   0.000011   0.000017  -0.021253   0.476810
          Atomic-Atomic Spin Densities.
               1          2          3          4          5          6
     1  O    0.003166   0.009376   0.000129  -0.006883  -0.010464   0.005992
     2  C    0.009376  -0.045661   0.000607  -0.067519   0.036351   0.015223
     3  C    0.000129   0.000607   0.005618  -0.000719  -0.003211   0.001719
     4  C   -0.006883  -0.067519  -0.000719   1.201684  -0.043863  -0.030701
     5  H   -0.010464   0.036351  -0.003211  -0.043863   0.086566  -0.020480
     6  H    0.005992   0.015223   0.001719  -0.030701  -0.020480   0.055106
     7  H   -0.000530   0.002029   0.000193  -0.001099   0.000381  -0.000086
     8  H    0.000143   0.000024  -0.000785   0.000060   0.000004  -0.000005
     9  H    0.000043  -0.000889   0.000277   0.000306  -0.000189   0.000354
    10  H    0.001825   0.005180   0.000814  -0.007914   0.000059  -0.000016
    11  H   -0.000146   0.005004  -0.000017  -0.003388  -0.000609   0.001001
               7          8          9         10         11
     1  O   -0.000530   0.000143   0.000043   0.001825  -0.000146
     2  C    0.002029   0.000024  -0.000889   0.005180   0.005004
     3  C    0.000193  -0.000785   0.000277   0.000814  -0.000017
     4  C   -0.001099   0.000060   0.000306  -0.007914  -0.003388
     5  H    0.000381   0.000004  -0.000189   0.000059  -0.000609
     6  H   -0.000086  -0.000005   0.000354  -0.000016   0.001001
     7  H   -0.001645   0.000128  -0.000152   0.000024  -0.000000
     8  H    0.000128  -0.000077   0.000164  -0.000001  -0.000001
     9  H   -0.000152   0.000164  -0.000318  -0.000008   0.000000
    10  H    0.000024  -0.000001  -0.000008  -0.042072   0.004226
    11  H   -0.000000  -0.000001   0.000000   0.004226  -0.046283
 Mulliken charges and spin densities:
               1          2
     1  O   -0.166409   0.002651
     2  C   -0.206633  -0.040276
     3  C   -0.249459   0.004624
     4  C   -0.339809   1.039964
     5  H    0.130265   0.044545
     6  H    0.135453   0.028106
     7  H    0.112372  -0.000759
     8  H    0.129446  -0.000346
     9  H    0.112444  -0.000413
    10  H    0.178231  -0.037884
    11  H    0.164099  -0.040213
 Sum of Mulliken charges =  -0.00000   1.00000
 Mulliken charges and spin densities with hydrogens summed into heavy atoms:
               1          2
     1  O   -0.166409   0.002651
     2  C    0.059085   0.032375
     3  C    0.104803   0.003106
     4  C    0.002521   0.961867
 Electronic spatial extent (au):  <R**2>=            344.9739
 Charge=             -0.0000 electrons
 Dipole moment (field-independent basis, Debye):
    X=              0.3827    Y=              1.3656    Z=              0.2233  Tot=              1.4357
 Quadrupole moment (field-independent basis, Debye-Ang):
   XX=            -23.2856   YY=            -26.5040   ZZ=            -27.1997
   XY=             -0.2120   XZ=             -0.0905   YZ=             -0.4765
 Traceless Quadrupole moment (field-independent basis, Debye-Ang):
   XX=              2.3775   YY=             -0.8409   ZZ=             -1.5366
   XY=             -0.2120   XZ=             -0.0905   YZ=             -0.4765
 Octapole moment (field-independent basis, Debye-Ang**2):
  XXX=              6.2351  YYY=             -2.4914  ZZZ=              0.2992  XYY=              0.0151
  XXY=             -1.1741  XXZ=             -0.3310  XZZ=              3.4490  YZZ=              1.0249
  YYZ=              0.1374  XYZ=              0.7552
 Hexadecapole moment (field-independent basis, Debye-Ang**3):
 XXXX=           -349.9340 YYYY=            -70.5195 ZZZZ=            -44.5493 XXXY=            -10.0661
 XXXZ=              0.7623 YYYX=             -0.8236 YYYZ=             -1.2369 ZZZX=             -0.2275
 ZZZY=             -0.2562 XXYY=            -68.1922 XXZZ=            -73.7572 YYZZ=            -18.8389
 XXYZ=             -1.6380 YYXZ=             -1.0127 ZZXY=             -0.2867
 N-N= 1.264068071983D+02 E-N=-7.047347158582D+02  KE= 1.929230388906D+02
                          Isotropic Fermi Contact Couplings
        Atom                 a.u.       MegaHertz       Gauss      10(-4) cm-1
     1  O(17)              0.00650      -3.93836      -1.40531      -1.31370
     2  C(13)             -0.03746     -42.11611     -15.02807     -14.04842
     3  C(13)             -0.00124      -1.39499      -0.49777      -0.46532
     4  C(13)              0.17167     192.98914      68.86333      64.37425
     5  H(1)               0.02664     119.08255      42.49162      39.72166
     6  H(1)               0.01627      72.72975      25.95178      24.26003
     7  H(1)               0.00013       0.58881       0.21010       0.19641
     8  H(1)              -0.00010      -0.46063      -0.16436      -0.15365
     9  H(1)               0.00003       0.13467       0.04805       0.04492
    10  H(1)              -0.01610     -71.96528     -25.67900     -24.00503
    11  H(1)              -0.01616     -72.25361     -25.78188     -24.10121
 --------------------------------------------------------
       Center         ----  Spin Dipole Couplings  ----
                      3XX-RR        3YY-RR        3ZZ-RR
 --------------------------------------------------------
     1   Atom        0.020336     -0.003440     -0.016896
     2   Atom        0.004805     -0.012219      0.007415
     3   Atom        0.004048     -0.003430     -0.000618
     4   Atom       -0.545847     -0.495481      1.041328
     5   Atom        0.005556     -0.000180     -0.005375
     6   Atom        0.003971      0.002800     -0.006771
     7   Atom        0.004506     -0.002452     -0.002054
     8   Atom        0.003075     -0.001452     -0.001623
     9   Atom        0.004006     -0.002065     -0.001941
    10   Atom       -0.072366      0.072049      0.000317
    11   Atom        0.028790     -0.023960     -0.004830
 --------------------------------------------------------
                        XY            XZ            YZ
 --------------------------------------------------------
     1   Atom       -0.011845      0.002116      0.003570
     2   Atom        0.005249      0.007803     -0.000960
     3   Atom        0.000088      0.001617      0.001047
     4   Atom       -0.023493     -0.108166      0.290527
     5   Atom        0.010817      0.005866      0.008109
     6   Atom        0.013265     -0.006379     -0.005704
     7   Atom        0.000384      0.001166      0.000553
     8   Atom       -0.000979      0.000046      0.000156
     9   Atom        0.001128     -0.001285     -0.000278
    10   Atom        0.008933     -0.006952     -0.018335
    11   Atom       -0.070090      0.009423      0.003324
 --------------------------------------------------------


 ---------------------------------------------------------------------------------
              Anisotropic Spin Dipole Couplings in Principal Axis System
 ---------------------------------------------------------------------------------

       Atom             a.u.   MegaHertz   Gauss  10(-4) cm-1        Axes

              Baa    -0.0186     1.343     0.479     0.448 -0.1540 -0.3398  0.9278
     1 O(17)  Bbb    -0.0067     0.484     0.173     0.161  0.3479  0.8602  0.3728
              Bcc     0.0252    -1.826    -0.652    -0.609  0.9248 -0.3802  0.0142
 
              Baa    -0.0142    -1.905    -0.680    -0.635 -0.3227  0.9332  0.1579
     2 C(13)  Bbb    -0.0001    -0.014    -0.005    -0.005  0.6732  0.3436 -0.6547
              Bcc     0.0143     1.919     0.685     0.640  0.6653  0.1049  0.7392
 
              Baa    -0.0038    -0.510    -0.182    -0.170  0.0592  0.9390 -0.3389
     3 C(13)  Bbb    -0.0008    -0.103    -0.037    -0.035 -0.3047  0.3403  0.8896
              Bcc     0.0046     0.614     0.219     0.205  0.9506  0.0506  0.3063
 
              Baa    -0.5553   -74.512   -26.588   -24.855  0.8758  0.4819 -0.0284
     4 C(13)  Bbb    -0.5466   -73.345   -26.171   -24.465 -0.4781  0.8576 -0.1895
              Bcc     1.1018   147.857    52.759    49.320 -0.0670  0.1795  0.9815
 
              Baa    -0.0116    -6.192    -2.209    -2.065  0.1859 -0.6796  0.7096
     5 H(1)   Bbb    -0.0063    -3.352    -1.196    -1.118  0.6842 -0.4288 -0.5899
              Bcc     0.0179     9.544     3.406     3.184  0.7053  0.5951  0.3853
 
              Baa    -0.0100    -5.361    -1.913    -1.788  0.7105 -0.5262  0.4673
     6 H(1)   Bbb    -0.0094    -5.018    -1.791    -1.674 -0.1429  0.5423  0.8280
              Bcc     0.0195    10.379     3.704     3.462  0.6890  0.6551 -0.3101
 
              Baa    -0.0029    -1.527    -0.545    -0.509  0.0572  0.7831 -0.6192
     7 H(1)   Bbb    -0.0019    -1.001    -0.357    -0.334 -0.1770  0.6184  0.7657
              Bcc     0.0047     2.528     0.902     0.843  0.9825  0.0659  0.1740
 
              Baa    -0.0018    -0.961    -0.343    -0.321  0.1518  0.7244 -0.6725
     8 H(1)   Bbb    -0.0015    -0.788    -0.281    -0.263  0.1342  0.6590  0.7401
              Bcc     0.0033     1.749     0.624     0.583  0.9793 -0.2026  0.0028
 
              Baa    -0.0023    -1.223    -0.436    -0.408 -0.0610  0.8790  0.4728
     9 H(1)   Bbb    -0.0022    -1.166    -0.416    -0.389  0.2589 -0.4436  0.8580
              Bcc     0.0045     2.389     0.852     0.797  0.9640  0.1747 -0.2005
 
              Baa    -0.0734   -39.157   -13.972   -13.061  0.9954 -0.0509  0.0812
    10 H(1)   Bbb    -0.0038    -2.020    -0.721    -0.674 -0.0666  0.2419  0.9680
              Bcc     0.0772    41.177    14.693    13.735  0.0689  0.9690 -0.2374
 
              Baa    -0.0734   -39.180   -13.980   -13.069  0.5689  0.8139 -0.1176
    11 H(1)   Bbb    -0.0043    -2.288    -0.817    -0.763  0.0085  0.1372  0.9905
              Bcc     0.0777    41.468    14.797    13.832  0.8223 -0.5645  0.0711
 

 ---------------------------------------------------------------------------------

 No NMR shielding tensors so no spin-rotation constants.
 Leave Link  601 at Mon Mar 11 01:11:01 2019, MaxMem=   671088640 cpu:               7.4 elap:               0.4
 (Enter /shared/centos7/gaussian/g16/l9999.exe)
 1\1\GINC-C0310\Scan\UM062X\6-311+G(2df,2p)\C3H7O1(2)\UNDERKOFFLER.C\11
 -Mar-2019\0\\#p m062x/6-311+g(2df,2p) Opt=(CalcFC,ModRedun)\\Gaussian 
 Input Prepared from Scan Object\\0,2\O,0.4882325726,-0.8196680172,-0.1
 636039536\C,-0.6873038077,-0.642599585,0.5863364793\C,1.2633862366,0.3
 478080947,-0.2253204597\C,-1.4382800423,-1.9138900952,0.6377970679\H,-
 0.4250552924,-0.2970356133,1.6026520413\H,-1.3025517277,0.1568838418,0
 .1446972549\H,1.5740719962,0.6709303061,0.7745282466\H,2.146865994,0.1
 253468208,-0.8181463065\H,0.7105581569,1.1663158691,-0.6995502458\H,-0
 .9270563609,-2.8388293823,0.4243285522\H,-2.4453353306,-1.9338581638,1
 .022070063\\Version=EM64L-G16RevA.03\State=2-A\HF=-193.6431296,-193.64
 30761,-193.6429167,-193.642696,-193.6424662,-193.6422617,-193.6420983,
 -193.6419835,-193.6419204,-193.641929,-193.6420265,-193.6422655,-193.6
 426391,-193.6429429,-193.643097,-193.6431294,-193.6431088,-193.6430956
 ,-193.6431137,-193.6431292,-193.6430753,-193.6428803,-193.6425291,-193
 .6421612,-193.6419758,-193.6419161,-193.6419388,-193.6420193,-193.6421
 507,-193.6423246,-193.6425333,-193.6427582,-193.6429615,-193.6430979,-
 193.6431278,-193.6430968,-193.6431296\S2=0.755228,0.75522,0.755221,0.7
 55217,0.755196,0.755156,0.755102,0.755044,0.755009,0.755026,0.755102,0
 .755166,0.755134,0.75514,0.755181,0.755233,0.755274,0.75529,0.755267,0
 .755223,0.755175,0.755136,0.75514,0.755156,0.755065,0.755011,0.75502,0
 .755067,0.755124,0.755171,0.755203,0.755217,0.755217,0.755216,0.755235
 ,0.755284,0.755228\S2-1=0.,0.,0.,0.,0.,0.,0.,0.,0.,0.,0.,0.,0.,0.,0.,0
 .,0.,0.,0.,0.,0.,0.,0.,0.,0.,0.,0.,0.,0.,0.,0.,0.,0.,0.,0.,0.,0.\S2A=0
 .750021,0.750021,0.750021,0.750021,0.750021,0.75002,0.75002,0.750019,0
 .750019,0.750019,0.75002,0.75002,0.75002,0.75002,0.750021,0.750021,0.7
 50022,0.750022,0.750022,0.750021,0.750021,0.75002,0.75002,0.75002,0.75
 0019,0.750019,0.750019,0.750019,0.75002,0.75002,0.750021,0.750021,0.75
 0021,0.750021,0.750021,0.750022,0.750021\RMSD=7.393e-09,2.879e-09,6.85
 4e-09,3.741e-09,6.775e-09,2.309e-09,2.388e-09,3.077e-09,8.335e-09,6.49
 3e-09,6.257e-09,2.845e-09,5.969e-09,5.449e-09,7.047e-09,4.922e-09,4.16
 2e-09,4.683e-09,2.900e-09,4.474e-09,4.433e-09,7.236e-09,8.592e-09,8.34
 3e-09,7.605e-09,9.486e-09,7.349e-09,4.656e-09,2.984e-09,2.627e-09,2.03
 4e-09,3.442e-09,5.253e-09,4.579e-09,9.329e-09,4.721e-09,7.488e-09\PG=C
 01 [X(C3H7O1)]\\@


 THE MOLECULE ALSO HAS A BODY.  WHEN THIS BODY IS HIT, THE MOLECULE
 FEELS HURT ALL OVER -- A. KITAIGORODSKI
 Job cpu time:       0 days 16 hours 19 minutes 30.1 seconds.
 Elapsed time:       0 days  1 hours  5 minutes 35.3 seconds.
 File lengths (MBytes):  RWF=   1328 Int=      0 D2E=      0 Chk=     32 Scr=     32
 Normal termination of Gaussian 16 at Mon Mar 11 01:11:01 2019.
