 Entering Gaussian System, Link 0=g16
 Input=QOOQLKSEGVNYLA-UHFFFAOYSA-N_GeoFreq_a1.com
 Output=QOOQLKSEGVNYLA-UHFFFAOYSA-N_GeoFreq_a1.log
 Initial command:
 /shared/centos7/gaussian/g16/l1.exe "/scratch/underkoffler.c/gaussian_scratch/Gau-39444.inp" -scrdir="/scratch/underkoffler.c/gaussian_scratch/"
 Entering Link 1 = /shared/centos7/gaussian/g16/l1.exe PID=     39446.
  
 Copyright (c) 1988,1990,1992,1993,1995,1998,2003,2009,2016,
            Gaussian, Inc.  All Rights Reserved.
  
 This is part of the Gaussian(R) 16 program.  It is based on
 the Gaussian(R) 09 system (copyright 2009, Gaussian, Inc.),
 the Gaussian(R) 03 system (copyright 2003, Gaussian, Inc.),
 the Gaussian(R) 98 system (copyright 1998, Gaussian, Inc.),
 the Gaussian(R) 94 system (copyright 1995, Gaussian, Inc.),
 the Gaussian 92(TM) system (copyright 1992, Gaussian, Inc.),
 the Gaussian 90(TM) system (copyright 1990, Gaussian, Inc.),
 the Gaussian 88(TM) system (copyright 1988, Gaussian, Inc.),
 the Gaussian 86(TM) system (copyright 1986, Carnegie Mellon
 University), and the Gaussian 82(TM) system (copyright 1983,
 Carnegie Mellon University). Gaussian is a federally registered
 trademark of Gaussian, Inc.
  
 This software contains proprietary and confidential information,
 including trade secrets, belonging to Gaussian, Inc.
  
 This software is provided under written license and may be
 used, copied, transmitted, or stored only in accord with that
 written license.
  
 The following legend is applicable only to US Government
 contracts under FAR:
  
                    RESTRICTED RIGHTS LEGEND
  
 Use, reproduction and disclosure by the US Government is
 subject to restrictions as set forth in subparagraphs (a)
 and (c) of the Commercial Computer Software - Restricted
 Rights clause in FAR 52.227-19.
  
 Gaussian, Inc.
 340 Quinnipiac St., Bldg. 40, Wallingford CT 06492
  
  
 ---------------------------------------------------------------
 Warning -- This program may not be used in any manner that
 competes with the business of Gaussian, Inc. or will provide
 assistance to any competitor of Gaussian, Inc.  The licensee
 of this program is prohibited from giving any competitor of
 Gaussian, Inc. access to this program.  By using this program,
 the user acknowledges that Gaussian, Inc. is engaged in the
 business of creating and licensing software in the field of
 computational chemistry and represents and warrants to the
 licensee that it is not a competitor of Gaussian, Inc. and that
 it will not use this program in any manner prohibited above.
 ---------------------------------------------------------------
  

 Cite this work as:
 Gaussian 16, Revision A.03,
 M. J. Frisch, G. W. Trucks, H. B. Schlegel, G. E. Scuseria, 
 M. A. Robb, J. R. Cheeseman, G. Scalmani, V. Barone, 
 G. A. Petersson, H. Nakatsuji, X. Li, M. Caricato, A. V. Marenich, 
 J. Bloino, B. G. Janesko, R. Gomperts, B. Mennucci, H. P. Hratchian, 
 J. V. Ortiz, A. F. Izmaylov, J. L. Sonnenberg, D. Williams-Young, 
 F. Ding, F. Lipparini, F. Egidi, J. Goings, B. Peng, A. Petrone, 
 T. Henderson, D. Ranasinghe, V. G. Zakrzewski, J. Gao, N. Rega, 
 G. Zheng, W. Liang, M. Hada, M. Ehara, K. Toyota, R. Fukuda, 
 J. Hasegawa, M. Ishida, T. Nakajima, Y. Honda, O. Kitao, H. Nakai, 
 T. Vreven, K. Throssell, J. A. Montgomery, Jr., J. E. Peralta, 
 F. Ogliaro, M. J. Bearpark, J. J. Heyd, E. N. Brothers, K. N. Kudin, 
 V. N. Staroverov, T. A. Keith, R. Kobayashi, J. Normand, 
 K. Raghavachari, A. P. Rendell, J. C. Burant, S. S. Iyengar, 
 J. Tomasi, M. Cossi, J. M. Millam, M. Klene, C. Adamo, R. Cammi, 
 J. W. Ochterski, R. L. Martin, K. Morokuma, O. Farkas, 
 J. B. Foresman, and D. J. Fox, Gaussian, Inc., Wallingford CT, 2016.
 
 ******************************************
 Gaussian 16:  EM64L-G16RevA.03 25-Dec-2016
                 9-Mar-2019 
 ******************************************
 %nprocshared=20
 Will use up to   20 processors via shared memory.
 %mem=5GB
 ----------------------------------------------------------------------
 #p m062x/6-311+g(2df,2p) opt=(calcfc,verytight,gdiis,maxcycles=900) fr
 eq iop(7/33=1,2/16=3)
 ----------------------------------------------------------------------

 Warning!  Use of Opt=GDIIS is deprecated since it is seldom a good choice.

 1/6=900,7=1,10=4,18=20,19=11,26=3,38=1/1,3;
 2/9=110,12=2,16=3,17=6,18=5,40=1/2;
 3/5=4,6=6,7=214,11=2,25=1,30=1,71=2,74=-55,140=1/1,2,3;
 4//1;
 5/5=2,38=5/2;
 8/6=4,10=90,11=11/1;
 11/6=1,8=1,9=11,15=111,16=1/1,2,10;
 10/6=1,13=1/2;
 6/7=2,8=2,9=2,10=2,28=1/1;
 7/10=1,18=20,25=1,33=1/1,2,3,16;
 1/6=900,7=1,10=4,18=20,19=11,26=3/3(2);
 2/9=110,16=3/2;
 99//99;
 2/9=110,16=3/2;
 3/5=4,6=6,7=214,11=2,25=1,30=1,71=1,74=-55/1,2,3;
 4/5=5,16=3,69=1/1;
 5/5=2,38=5/2;
 7/33=1/1,2,3,16;
 1/6=900,7=1,18=20,19=11,26=3/3(-5);
 2/9=110,16=3/2;
 6/7=2,8=2,9=2,10=2,19=2,28=1/1;
 99/9=1/99;
 Leave Link    1 at Sat Mar  9 00:01:40 2019, MaxMem=   671088640 cpu:              27.9 elap:               1.5
 (Enter /shared/centos7/gaussian/g16/l101.exe)
 ------------------------------
 Gaussian input prepared by ASE
 ------------------------------
 Symbolic Z-matrix:
 Charge =  0 Multiplicity = 2
 O                    -2.67994  -0.89444   1.00271 
 C                     0.90934  -0.64044   0.01792 
 C                    -0.51975  -1.12231  -0.0569 
 C                     1.02254   0.84645   0.22035 
 C                    -1.31146  -0.75083   1.21138 
 H                     1.43657  -0.93081  -0.93062 
 H                     1.43892  -1.17583   0.85016 
 H                    -0.55482  -2.23614  -0.18527 
 H                    -1.03622  -0.66859  -0.941 
 H                     2.05381   1.13479   0.54558 
 H                     0.78593   1.39434  -0.72632 
 H                     0.28786   1.17695   1.00741 
 H                    -0.9497   -1.39384   2.07443 
 H                    -1.05011   0.34503   1.4235 
 
 ITRead=  0  0  0  0  0  0  0  0  0  0  0  0  0  0
 MicOpt= -1 -1 -1 -1 -1 -1 -1 -1 -1 -1 -1 -1 -1 -1
 NAtoms=     14 NQM=       14 NQMF=       0 NMMI=      0 NMMIF=      0
                NMic=       0 NMicF=      0.
                    Isotopes and Nuclear Properties:
 (Nuclear quadrupole moments (NQMom) in fm**2, nuclear magnetic moments (NMagM)
  in nuclear magnetons)

  Atom         1           2           3           4           5           6           7           8           9          10
 IAtWgt=          16          12          12          12          12           1           1           1           1           1
 AtmWgt=  15.9949146  12.0000000  12.0000000  12.0000000  12.0000000   1.0078250   1.0078250   1.0078250   1.0078250   1.0078250
 NucSpn=           0           0           0           0           0           1           1           1           1           1
 AtZEff=  -0.0000000  -0.0000000  -0.0000000  -0.0000000  -0.0000000  -0.0000000  -0.0000000  -0.0000000  -0.0000000  -0.0000000
 NQMom=    0.0000000   0.0000000   0.0000000   0.0000000   0.0000000   0.0000000   0.0000000   0.0000000   0.0000000   0.0000000
 NMagM=    0.0000000   0.0000000   0.0000000   0.0000000   0.0000000   2.7928460   2.7928460   2.7928460   2.7928460   2.7928460
 AtZNuc=   8.0000000   6.0000000   6.0000000   6.0000000   6.0000000   1.0000000   1.0000000   1.0000000   1.0000000   1.0000000

  Atom        11          12          13          14
 IAtWgt=           1           1           1           1
 AtmWgt=   1.0078250   1.0078250   1.0078250   1.0078250
 NucSpn=           1           1           1           1
 AtZEff=  -0.0000000  -0.0000000  -0.0000000  -0.0000000
 NQMom=    0.0000000   0.0000000   0.0000000   0.0000000
 NMagM=    2.7928460   2.7928460   2.7928460   2.7928460
 AtZNuc=   1.0000000   1.0000000   1.0000000   1.0000000
 Leave Link  101 at Sat Mar  9 00:01:40 2019, MaxMem=   671088640 cpu:               6.2 elap:               0.4
 (Enter /shared/centos7/gaussian/g16/l103.exe)

 GradGradGradGradGradGradGradGradGradGradGradGradGradGradGradGradGradGrad
 Berny optimization.
 Initialization pass.
                           ----------------------------
                           !    Initial Parameters    !
                           ! (Angstroms and Degrees)  !
 --------------------------                            --------------------------
 ! Name  Definition              Value          Derivative Info.                !
 --------------------------------------------------------------------------------
 ! R1    R(1,5)                  1.3917         calculate D2E/DX2 analytically  !
 ! R2    R(2,3)                  1.51           calculate D2E/DX2 analytically  !
 ! R3    R(2,4)                  1.5049         calculate D2E/DX2 analytically  !
 ! R4    R(2,6)                  1.1234         calculate D2E/DX2 analytically  !
 ! R5    R(2,7)                  1.1224         calculate D2E/DX2 analytically  !
 ! R6    R(3,5)                  1.5406         calculate D2E/DX2 analytically  !
 ! R7    R(3,8)                  1.1218         calculate D2E/DX2 analytically  !
 ! R8    R(3,9)                  1.1199         calculate D2E/DX2 analytically  !
 ! R9    R(4,10)                 1.1191         calculate D2E/DX2 analytically  !
 ! R10   R(4,11)                 1.1191         calculate D2E/DX2 analytically  !
 ! R11   R(4,12)                 1.1263         calculate D2E/DX2 analytically  !
 ! R12   R(5,13)                 1.1354         calculate D2E/DX2 analytically  !
 ! R13   R(5,14)                 1.1464         calculate D2E/DX2 analytically  !
 ! A1    A(3,2,4)              113.1517         calculate D2E/DX2 analytically  !
 ! A2    A(3,2,6)              108.654          calculate D2E/DX2 analytically  !
 ! A3    A(3,2,7)              109.3343         calculate D2E/DX2 analytically  !
 ! A4    A(4,2,6)              109.491          calculate D2E/DX2 analytically  !
 ! A5    A(4,2,7)              109.6379         calculate D2E/DX2 analytically  !
 ! A6    A(6,2,7)              106.3404         calculate D2E/DX2 analytically  !
 ! A7    A(2,3,5)              111.6311         calculate D2E/DX2 analytically  !
 ! A8    A(2,3,8)              110.6178         calculate D2E/DX2 analytically  !
 ! A9    A(2,3,9)              110.2603         calculate D2E/DX2 analytically  !
 ! A10   A(5,3,8)              108.5161         calculate D2E/DX2 analytically  !
 ! A11   A(5,3,9)              108.3736         calculate D2E/DX2 analytically  !
 ! A12   A(8,3,9)              107.3083         calculate D2E/DX2 analytically  !
 ! A13   A(2,4,10)             111.2832         calculate D2E/DX2 analytically  !
 ! A14   A(2,4,11)             110.7344         calculate D2E/DX2 analytically  !
 ! A15   A(2,4,12)             109.5649         calculate D2E/DX2 analytically  !
 ! A16   A(10,4,11)            108.3332         calculate D2E/DX2 analytically  !
 ! A17   A(10,4,12)            108.8095         calculate D2E/DX2 analytically  !
 ! A18   A(11,4,12)            108.0333         calculate D2E/DX2 analytically  !
 ! A19   A(1,5,3)              110.9169         calculate D2E/DX2 analytically  !
 ! A20   A(1,5,13)             111.6429         calculate D2E/DX2 analytically  !
 ! A21   A(1,5,14)             110.5209         calculate D2E/DX2 analytically  !
 ! A22   A(3,5,13)             108.9942         calculate D2E/DX2 analytically  !
 ! A23   A(3,5,14)             105.4072         calculate D2E/DX2 analytically  !
 ! A24   A(13,5,14)            109.1517         calculate D2E/DX2 analytically  !
 ! D1    D(4,2,3,5)            -57.8151         calculate D2E/DX2 analytically  !
 ! D2    D(4,2,3,8)           -178.7594         calculate D2E/DX2 analytically  !
 ! D3    D(4,2,3,9)             62.7045         calculate D2E/DX2 analytically  !
 ! D4    D(6,2,3,5)           -179.6421         calculate D2E/DX2 analytically  !
 ! D5    D(6,2,3,8)             59.4136         calculate D2E/DX2 analytically  !
 ! D6    D(6,2,3,9)            -59.1225         calculate D2E/DX2 analytically  !
 ! D7    D(7,2,3,5)             64.6909         calculate D2E/DX2 analytically  !
 ! D8    D(7,2,3,8)            -56.2534         calculate D2E/DX2 analytically  !
 ! D9    D(7,2,3,9)           -174.7894         calculate D2E/DX2 analytically  !
 ! D10   D(3,2,4,10)           164.6095         calculate D2E/DX2 analytically  !
 ! D11   D(3,2,4,11)           -74.8327         calculate D2E/DX2 analytically  !
 ! D12   D(3,2,4,12)            44.234          calculate D2E/DX2 analytically  !
 ! D13   D(6,2,4,10)           -74.034          calculate D2E/DX2 analytically  !
 ! D14   D(6,2,4,11)            46.5238         calculate D2E/DX2 analytically  !
 ! D15   D(6,2,4,12)           165.5905         calculate D2E/DX2 analytically  !
 ! D16   D(7,2,4,10)            42.2726         calculate D2E/DX2 analytically  !
 ! D17   D(7,2,4,11)           162.8304         calculate D2E/DX2 analytically  !
 ! D18   D(7,2,4,12)           -78.1029         calculate D2E/DX2 analytically  !
 ! D19   D(2,3,5,1)            165.1623         calculate D2E/DX2 analytically  !
 ! D20   D(2,3,5,13)           -71.5299         calculate D2E/DX2 analytically  !
 ! D21   D(2,3,5,14)            45.5192         calculate D2E/DX2 analytically  !
 ! D22   D(8,3,5,1)            -72.6768         calculate D2E/DX2 analytically  !
 ! D23   D(8,3,5,13)            50.631          calculate D2E/DX2 analytically  !
 ! D24   D(8,3,5,14)           167.6801         calculate D2E/DX2 analytically  !
 ! D25   D(9,3,5,1)             43.545          calculate D2E/DX2 analytically  !
 ! D26   D(9,3,5,13)           166.8527         calculate D2E/DX2 analytically  !
 ! D27   D(9,3,5,14)           -76.0981         calculate D2E/DX2 analytically  !
 --------------------------------------------------------------------------------
 Trust Radius=3.00D-01 FncErr=1.00D-07 GrdErr=1.00D-06 EigMax=2.50D+02 EigMin=1.00D-04
 Number of steps in this run=    100 maximum allowed number of steps=    100.
 GradGradGradGradGradGradGradGradGradGradGradGradGradGradGradGradGradGrad

 Leave Link  103 at Sat Mar  9 00:01:40 2019, MaxMem=   671088640 cpu:               0.3 elap:               0.1
 (Enter /shared/centos7/gaussian/g16/l202.exe)
                          Input orientation:                          
 ---------------------------------------------------------------------
 Center     Atomic      Atomic             Coordinates (Angstroms)
 Number     Number       Type             X           Y           Z
 ---------------------------------------------------------------------
      1          8           0       -2.679936   -0.894438    1.002715
      2          6           0        0.909338   -0.640440    0.017919
      3          6           0       -0.519748   -1.122311   -0.056904
      4          6           0        1.022542    0.846453    0.220348
      5          6           0       -1.311461   -0.750830    1.211376
      6          1           0        1.436574   -0.930808   -0.930617
      7          1           0        1.438923   -1.175826    0.850162
      8          1           0       -0.554825   -2.236144   -0.185274
      9          1           0       -1.036217   -0.668591   -0.941003
     10          1           0        2.053809    1.134787    0.545578
     11          1           0        0.785925    1.394338   -0.726325
     12          1           0        0.287860    1.176950    1.007407
     13          1           0       -0.949698   -1.393839    2.074429
     14          1           0       -1.050113    0.345034    1.423498
 ---------------------------------------------------------------------
                    Distance matrix (angstroms):
                    1          2          3          4          5
     1  O    0.000000
     2  C    3.730580   0.000000
     3  C    2.416843   1.509995   0.000000
     4  C    4.165471   1.504874   2.516259   0.000000
     5  C    1.391720   2.523584   1.540566   2.996836   0.000000
     6  H    4.548048   1.123393   2.151102   2.157498   3.488871
     7  H    4.131277   1.122375   2.159172   2.158623   2.806370
     8  H    2.779854   2.175163   1.121755   3.486406   2.174693
     9  H    2.555554   2.169219   1.119925   2.807594   2.171465
    10  H    5.170596   2.177078   3.475725   1.119116   3.914572
    11  H    4.498918   2.170127   2.913147   1.119086   3.571478
    12  H    3.619183   2.160608   2.659246   1.126254   2.513119
    13  H    2.095637   2.872779   2.191157   3.513724   1.135426
    14  H    2.090376   2.605045   2.150809   2.448447   1.146393
                    6          7          8          9         10
     6  H    0.000000
     7  H    1.797557   0.000000
     8  H    2.495017   2.484237   0.000000
     9  H    2.486677   3.097075   1.805571   0.000000
    10  H    2.612817   2.410350   4.324615   3.874319   0.000000
    11  H    2.423094   3.085038   3.907780   2.760790   1.814561
    12  H    3.085146   2.623972   3.712387   2.992575   1.825825
    13  H    3.865099   2.692930   2.443699   3.102628   4.213358
    14  H    3.654209   2.972714   3.081548   2.572643   3.320961
                   11         12         13         14
    11  H    0.000000
    12  H    1.816907   0.000000
    13  H    4.316310   3.046152   0.000000
    14  H    3.015595   1.629536   1.859428   0.000000
 Stoichiometry    C4H9O(2)
 Framework group  C1[X(C4H9O)]
 Deg. of freedom    36
 Full point group                 C1      NOp   1
 Largest Abelian subgroup         C1      NOp   1
 Largest concise Abelian subgroup C1      NOp   1
                         Standard orientation:                         
 ---------------------------------------------------------------------
 Center     Atomic      Atomic             Coordinates (Angstroms)
 Number     Number       Type             X           Y           Z
 ---------------------------------------------------------------------
      1          8           0        2.299351   -0.290967   -0.238658
      2          6           0       -1.297174    0.604010    0.187080
      3          6           0        0.140034    0.794606   -0.235046
      4          6           0       -1.839117   -0.757266   -0.156242
      5          6           0        1.063543   -0.261925    0.400734
      6          1           0       -1.924818    1.393167   -0.308203
      7          1           0       -1.385963    0.777584    1.292392
      8          1           0        0.506879    1.812618    0.060609
      9          1           0        0.230516    0.718285   -1.348698
     10          1           0       -2.786547   -0.969510    0.400309
     11          1           0       -2.049961   -0.834822   -1.252546
     12          1           0       -1.078138   -1.544047    0.108965
     13          1           0        1.170627   -0.040182    1.509137
     14          1           0        0.518875   -1.261910    0.268142
 ---------------------------------------------------------------------
 Rotational constants (GHZ):          11.2434504           2.6405226           2.3783874
 Leave Link  202 at Sat Mar  9 00:01:40 2019, MaxMem=   671088640 cpu:               0.8 elap:               0.1
 (Enter /shared/centos7/gaussian/g16/l301.exe)
 Standard basis: 6-311+G(2df,2p) (5D, 7F)
 Ernie: Thresh=  0.10000D-02 Tol=  0.10000D-05 Strict=F.
 There are   276 symmetry adapted cartesian basis functions of A   symmetry.
 There are   251 symmetry adapted basis functions of A   symmetry.
   251 basis functions,   359 primitive gaussians,   276 cartesian basis functions
    21 alpha electrons       20 beta electrons
       nuclear repulsion energy       179.2407874924 Hartrees.
 IExCor= 4336 DFT=T Ex+Corr=M062X ExCW=0 ScaHFX=  0.540000
 ScaDFX=  1.000000  1.000000  1.000000  1.000000 ScalE2=  1.000000  1.000000
 IRadAn=      5 IRanWt=     -1 IRanGd=            0 ICorTp=0 IEmpDi=  4
 NAtoms=   14 NActive=   14 NUniq=   14 SFac= 1.00D+00 NAtFMM=   60 NAOKFM=F Big=F
 Integral buffers will be    131072 words long.
 Raffenetti 2 integral format.
 Two-electron integral symmetry is turned on.
 Leave Link  301 at Sat Mar  9 00:01:41 2019, MaxMem=   671088640 cpu:               1.4 elap:               0.1
 (Enter /shared/centos7/gaussian/g16/l302.exe)
 NPDir=0 NMtPBC=     1 NCelOv=     1 NCel=       1 NClECP=     1 NCelD=      1
         NCelK=      1 NCelE2=     1 NClLst=     1 CellRange=     0.0.
 One-electron integrals computed using PRISM.
 One-electron integral symmetry used in STVInt
 NBasis=   251 RedAO= T EigKep=  4.59D-05  NBF=   251
 NBsUse=   251 1.00D-06 EigRej= -1.00D+00 NBFU=   251
 Precomputing XC quadrature grid using
 IXCGrd= 4 IRadAn=           5 IRanWt=          -1 IRanGd=           0 AccXCQ= 0.00D+00.
 Generated NRdTot=       0 NPtTot=           0 NUsed=           0 NTot=          32
 NSgBfM=   276   276   276   276   276 MxSgAt=    14 MxSgA2=    14.
 Leave Link  302 at Sat Mar  9 00:01:41 2019, MaxMem=   671088640 cpu:               9.3 elap:               0.5
 (Enter /shared/centos7/gaussian/g16/l303.exe)
 DipDrv:  MaxL=1.
 Leave Link  303 at Sat Mar  9 00:01:42 2019, MaxMem=   671088640 cpu:               1.3 elap:               0.2
 (Enter /shared/centos7/gaussian/g16/l401.exe)
 ExpMin= 4.38D-02 ExpMax= 8.59D+03 ExpMxC= 1.30D+03 IAcc=3 IRadAn=         5 AccDes= 0.00D+00
 Harris functional with IExCor= 1009 and IRadAn=       5 diagonalized for initial guess.
 HarFok:  IExCor= 1009 AccDes= 0.00D+00 IRadAn=         5 IDoV= 1 UseB2=F ITyADJ=14
 ICtDFT=  3500011 ScaDFX=  1.000000  1.000000  1.000000  1.000000
 FoFCou: FMM=F IPFlag=           0 FMFlag=      100000 FMFlg1=           0
         NFxFlg=           0 DoJE=T BraDBF=F KetDBF=T FulRan=T
         wScrn=  0.000000 ICntrl=       500 IOpCl=  0 I1Cent=   200000004 NGrid=           0
         NMat0=    1 NMatS0=      1 NMatT0=    0 NMatD0=    1 NMtDS0=    0 NMtDT0=    0
 Petite list used in FoFCou.
 Harris En= -232.852729716406    
 JPrj=0 DoOrth=F DoCkMO=F.
 Initial guess <Sx>= 0.0000 <Sy>= 0.0000 <Sz>= 0.5000 <S**2>= 0.7500 S= 0.5000
 Leave Link  401 at Sat Mar  9 00:01:43 2019, MaxMem=   671088640 cpu:              30.7 elap:               1.6
 (Enter /shared/centos7/gaussian/g16/l502.exe)
 Integral symmetry usage will be decided dynamically.
 UHF open shell SCF:
 Using DIIS extrapolation, IDIIS=  1040.
 NGot=   671088640 LenX=   670928170 LenY=   670851553
 Requested convergence on RMS density matrix=1.00D-08 within 128 cycles.
 Requested convergence on MAX density matrix=1.00D-06.
 Requested convergence on             energy=1.00D-06.
 No special actions if energy rises.
 Fock matrices will be formed incrementally for  20 cycles.

 Cycle   1  Pass 1  IDiag  1:
 FoFJK:  IHMeth= 1 ICntrl=       0 DoSepK=F KAlg= 0 I1Cent=           0 FoldK=F
 IRaf= 980000000 NMat=       1 IRICut=       1 DoRegI=T DoRafI=F ISym2E= 0 IDoP0=0 IntGTp=1.
 FoFCou: FMM=F IPFlag=           0 FMFlag=      100000 FMFlg1=           0
         NFxFlg=           0 DoJE=F BraDBF=F KetDBF=F FulRan=T
         wScrn=  0.000000 ICntrl=         0 IOpCl=  1 I1Cent=           0 NGrid=           0
         NMat0=    1 NMatS0=      1 NMatT0=    0 NMatD0=    1 NMtDS0=    0 NMtDT0=    0
 Symmetry not used in FoFCou.
 E= -232.761059412902    
 DIIS: error= 2.59D-02 at cycle   1 NSaved=   1.
 NSaved= 1 IEnMin= 1 EnMin= -232.761059412902     IErMin= 1 ErrMin= 2.59D-02
 ErrMax= 2.59D-02  0.00D+00 EMaxC= 1.00D-01 BMatC= 7.93D-01 BMatP= 7.93D-01
 IDIUse=3 WtCom= 7.41D-01 WtEn= 2.59D-01
 Coeff-Com:  0.100D+01
 Coeff-En:   0.100D+01
 Coeff:      0.100D+01
 Gap=     0.393 Goal=   None    Shift=    0.000
 Gap=     0.223 Goal=   None    Shift=    0.000
 GapD=    0.223 DampG=1.000 DampE=0.500 DampFc=0.5000 IDamp=-1.
 Damping current iteration by 5.00D-01
 RMSDP=2.29D-03 MaxDP=1.03D-01              OVMax= 1.54D-01

 Cycle   2  Pass 1  IDiag  1:
 RMSU=  1.11D-03    CP:  9.70D-01
 E= -232.850478590058     Delta-E=       -0.089419177156 Rises=F Damp=T
 DIIS: error= 5.30D-03 at cycle   2 NSaved=   2.
 NSaved= 2 IEnMin= 2 EnMin= -232.850478590058     IErMin= 2 ErrMin= 5.30D-03
 ErrMax= 5.30D-03  0.00D+00 EMaxC= 1.00D-01 BMatC= 5.43D-02 BMatP= 7.93D-01
 IDIUse=3 WtCom= 9.47D-01 WtEn= 5.30D-02
 Coeff-Com: -0.997D-01 0.110D+01
 Coeff-En:   0.000D+00 0.100D+01
 Coeff:     -0.944D-01 0.109D+01
 Gap=     0.375 Goal=   None    Shift=    0.000
 Gap=     0.243 Goal=   None    Shift=    0.000
 RMSDP=9.28D-04 MaxDP=3.16D-02 DE=-8.94D-02 OVMax= 8.47D-02

 Cycle   3  Pass 1  IDiag  1:
 RMSU=  9.25D-04    CP:  9.66D-01  1.05D+00
 E= -232.938828417973     Delta-E=       -0.088349827915 Rises=F Damp=F
 DIIS: error= 2.93D-03 at cycle   3 NSaved=   3.
 NSaved= 3 IEnMin= 3 EnMin= -232.938828417973     IErMin= 3 ErrMin= 2.93D-03
 ErrMax= 2.93D-03  0.00D+00 EMaxC= 1.00D-01 BMatC= 7.33D-03 BMatP= 5.43D-02
 IDIUse=3 WtCom= 9.71D-01 WtEn= 2.93D-02
 Coeff-Com: -0.714D-01 0.226D+00 0.846D+00
 Coeff-En:   0.000D+00 0.000D+00 0.100D+01
 Coeff:     -0.694D-01 0.219D+00 0.850D+00
 Gap=     0.365 Goal=   None    Shift=    0.000
 Gap=     0.240 Goal=   None    Shift=    0.000
 RMSDP=1.79D-04 MaxDP=5.29D-03 DE=-8.83D-02 OVMax= 1.99D-02

 Cycle   4  Pass 1  IDiag  1:
 RMSU=  1.67D-04    CP:  9.62D-01  1.09D+00  1.01D+00
 E= -232.941063938159     Delta-E=       -0.002235520186 Rises=F Damp=F
 DIIS: error= 1.28D-03 at cycle   4 NSaved=   4.
 NSaved= 4 IEnMin= 4 EnMin= -232.941063938159     IErMin= 4 ErrMin= 1.28D-03
 ErrMax= 1.28D-03  0.00D+00 EMaxC= 1.00D-01 BMatC= 1.15D-03 BMatP= 7.33D-03
 IDIUse=3 WtCom= 9.87D-01 WtEn= 1.28D-02
 Coeff-Com: -0.171D-01 0.255D-01 0.284D+00 0.708D+00
 Coeff-En:   0.000D+00 0.000D+00 0.000D+00 0.100D+01
 Coeff:     -0.169D-01 0.252D-01 0.280D+00 0.712D+00
 Gap=     0.362 Goal=   None    Shift=    0.000
 Gap=     0.245 Goal=   None    Shift=    0.000
 RMSDP=7.28D-05 MaxDP=3.92D-03 DE=-2.24D-03 OVMax= 1.46D-02

 Cycle   5  Pass 1  IDiag  1:
 RMSU=  6.45D-05    CP:  9.62D-01  1.09D+00  1.04D+00  8.79D-01
 E= -232.941508186561     Delta-E=       -0.000444248402 Rises=F Damp=F
 DIIS: error= 5.06D-04 at cycle   5 NSaved=   5.
 NSaved= 5 IEnMin= 5 EnMin= -232.941508186561     IErMin= 5 ErrMin= 5.06D-04
 ErrMax= 5.06D-04  0.00D+00 EMaxC= 1.00D-01 BMatC= 3.08D-04 BMatP= 1.15D-03
 IDIUse=3 WtCom= 9.95D-01 WtEn= 5.06D-03
 Coeff-Com:  0.882D-02-0.362D-01-0.690D-01 0.248D+00 0.849D+00
 Coeff-En:   0.000D+00 0.000D+00 0.000D+00 0.000D+00 0.100D+01
 Coeff:      0.877D-02-0.361D-01-0.686D-01 0.247D+00 0.849D+00
 Gap=     0.365 Goal=   None    Shift=    0.000
 Gap=     0.248 Goal=   None    Shift=    0.000
 RMSDP=4.76D-05 MaxDP=2.01D-03 DE=-4.44D-04 OVMax= 8.44D-03

 Cycle   6  Pass 1  IDiag  1:
 RMSU=  2.67D-05    CP:  9.62D-01  1.08D+00  1.06D+00  1.08D+00  1.23D+00
 E= -232.941670096663     Delta-E=       -0.000161910102 Rises=F Damp=F
 DIIS: error= 3.21D-04 at cycle   6 NSaved=   6.
 NSaved= 6 IEnMin= 6 EnMin= -232.941670096663     IErMin= 6 ErrMin= 3.21D-04
 ErrMax= 3.21D-04  0.00D+00 EMaxC= 1.00D-01 BMatC= 4.48D-05 BMatP= 3.08D-04
 IDIUse=3 WtCom= 9.97D-01 WtEn= 3.21D-03
 Coeff-Com:  0.693D-02-0.160D-01-0.911D-01-0.947D-01 0.212D+00 0.983D+00
 Coeff-En:   0.000D+00 0.000D+00 0.000D+00 0.000D+00 0.000D+00 0.100D+01
 Coeff:      0.691D-02-0.159D-01-0.908D-01-0.944D-01 0.212D+00 0.983D+00
 Gap=     0.365 Goal=   None    Shift=    0.000
 Gap=     0.251 Goal=   None    Shift=    0.000
 RMSDP=2.80D-05 MaxDP=1.65D-03 DE=-1.62D-04 OVMax= 7.04D-03

 Cycle   7  Pass 1  IDiag  1:
 RMSU=  1.67D-05    CP:  9.62D-01  1.08D+00  1.06D+00  1.17D+00  1.42D+00
                    CP:  1.26D+00
 E= -232.941719877912     Delta-E=       -0.000049781249 Rises=F Damp=F
 DIIS: error= 8.83D-05 at cycle   7 NSaved=   7.
 NSaved= 7 IEnMin= 7 EnMin= -232.941719877912     IErMin= 7 ErrMin= 8.83D-05
 ErrMax= 8.83D-05  0.00D+00 EMaxC= 1.00D-01 BMatC= 1.30D-05 BMatP= 4.48D-05
 IDIUse=1 WtCom= 1.00D+00 WtEn= 0.00D+00
 Coeff-Com:  0.142D-02-0.163D-02-0.243D-01-0.636D-01-0.342D-01 0.373D+00
 Coeff-Com:  0.749D+00
 Coeff:      0.142D-02-0.163D-02-0.243D-01-0.636D-01-0.342D-01 0.373D+00
 Coeff:      0.749D+00
 Gap=     0.365 Goal=   None    Shift=    0.000
 Gap=     0.251 Goal=   None    Shift=    0.000
 RMSDP=1.22D-05 MaxDP=7.45D-04 DE=-4.98D-05 OVMax= 3.64D-03

 Cycle   8  Pass 1  IDiag  1:
 RMSU=  7.59D-06    CP:  9.62D-01  1.08D+00  1.07D+00  1.19D+00  1.46D+00
                    CP:  1.49D+00  1.35D+00
 E= -232.941734329015     Delta-E=       -0.000014451104 Rises=F Damp=F
 DIIS: error= 8.13D-05 at cycle   8 NSaved=   8.
 NSaved= 8 IEnMin= 8 EnMin= -232.941734329015     IErMin= 8 ErrMin= 8.13D-05
 ErrMax= 8.13D-05  0.00D+00 EMaxC= 1.00D-01 BMatC= 5.48D-06 BMatP= 1.30D-05
 IDIUse=1 WtCom= 1.00D+00 WtEn= 0.00D+00
 Coeff-Com: -0.832D-03 0.216D-02 0.108D-01 0.696D-02-0.328D-01-0.834D-01
 Coeff-Com:  0.115D+00 0.982D+00
 Coeff:     -0.832D-03 0.216D-02 0.108D-01 0.696D-02-0.328D-01-0.834D-01
 Coeff:      0.115D+00 0.982D+00
 Gap=     0.365 Goal=   None    Shift=    0.000
 Gap=     0.251 Goal=   None    Shift=    0.000
 RMSDP=1.23D-05 MaxDP=7.60D-04 DE=-1.45D-05 OVMax= 4.64D-03

 Cycle   9  Pass 1  IDiag  1:
 RMSU=  5.48D-06    CP:  9.62D-01  1.08D+00  1.07D+00  1.20D+00  1.46D+00
                    CP:  1.64D+00  1.78D+00  1.91D+00
 E= -232.941748246930     Delta-E=       -0.000013917915 Rises=F Damp=F
 DIIS: error= 7.96D-05 at cycle   9 NSaved=   9.
 NSaved= 9 IEnMin= 9 EnMin= -232.941748246930     IErMin= 9 ErrMin= 7.96D-05
 ErrMax= 7.96D-05  0.00D+00 EMaxC= 1.00D-01 BMatC= 4.90D-06 BMatP= 5.48D-06
 IDIUse=1 WtCom= 1.00D+00 WtEn= 0.00D+00
 Coeff-Com: -0.257D-03 0.468D-03 0.618D-02 0.121D-01-0.104D-03-0.849D-01
 Coeff-Com: -0.124D+00 0.153D+00 0.104D+01
 Coeff:     -0.257D-03 0.468D-03 0.618D-02 0.121D-01-0.104D-03-0.849D-01
 Coeff:     -0.124D+00 0.153D+00 0.104D+01
 Gap=     0.365 Goal=   None    Shift=    0.000
 Gap=     0.251 Goal=   None    Shift=    0.000
 RMSDP=1.40D-05 MaxDP=8.41D-04 DE=-1.39D-05 OVMax= 5.37D-03

 Cycle  10  Pass 1  IDiag  1:
 RMSU=  2.50D-06    CP:  9.62D-01  1.08D+00  1.07D+00  1.22D+00  1.47D+00
                    CP:  1.78D+00  2.22D+00  3.00D+00  2.16D+00
 E= -232.941763853250     Delta-E=       -0.000015606319 Rises=F Damp=F
 DIIS: error= 7.87D-05 at cycle  10 NSaved=  10.
 NSaved=10 IEnMin=10 EnMin= -232.941763853250     IErMin=10 ErrMin= 7.87D-05
 ErrMax= 7.87D-05  0.00D+00 EMaxC= 1.00D-01 BMatC= 4.77D-06 BMatP= 4.90D-06
 IDIUse=1 WtCom= 1.00D+00 WtEn= 0.00D+00
 Coeff-Com:  0.456D-03-0.960D-03-0.400D-02-0.476D-02 0.139D-01 0.338D-01
 Coeff-Com: -0.150D-03-0.360D+00-0.390D+00 0.171D+01
 Coeff:      0.456D-03-0.960D-03-0.400D-02-0.476D-02 0.139D-01 0.338D-01
 Coeff:     -0.150D-03-0.360D+00-0.390D+00 0.171D+01
 Gap=     0.365 Goal=   None    Shift=    0.000
 Gap=     0.251 Goal=   None    Shift=    0.000
 RMSDP=2.39D-05 MaxDP=1.41D-03 DE=-1.56D-05 OVMax= 9.30D-03

 Cycle  11  Pass 1  IDiag  1:
 RMSU=  1.61D-05    CP:  9.61D-01  1.08D+00  1.07D+00  1.24D+00  1.49D+00
                    CP:  2.02D+00  2.91D+00  3.00D+00  3.00D+00  2.87D+00
 E= -232.941790457893     Delta-E=       -0.000026604644 Rises=F Damp=F
 DIIS: error= 7.83D-05 at cycle  11 NSaved=  11.
 NSaved=11 IEnMin=11 EnMin= -232.941790457893     IErMin=11 ErrMin= 7.83D-05
 ErrMax= 7.83D-05  0.00D+00 EMaxC= 1.00D-01 BMatC= 4.69D-06 BMatP= 4.77D-06
 IDIUse=1 WtCom= 1.00D+00 WtEn= 0.00D+00
 Coeff-Com: -0.743D-04 0.306D-03 0.736D-03-0.230D-02 0.464D-02 0.715D-03
 Coeff-Com:  0.641D-01 0.532D-01-0.481D+00-0.226D+01 0.362D+01
 Coeff:     -0.743D-04 0.306D-03 0.736D-03-0.230D-02 0.464D-02 0.715D-03
 Coeff:      0.641D-01 0.532D-01-0.481D+00-0.226D+01 0.362D+01
 Gap=     0.366 Goal=   None    Shift=    0.000
 Gap=     0.252 Goal=   None    Shift=    0.000
 RMSDP=7.59D-05 MaxDP=4.30D-03 DE=-2.66D-05 OVMax= 2.96D-02

 Cycle  12  Pass 1  IDiag  1:
 RMSU=  4.80D-05    CP:  9.61D-01  1.08D+00  1.09D+00  1.30D+00  1.54D+00
                    CP:  2.74D+00  3.00D+00  3.00D+00  3.00D+00  3.00D+00
                    CP:  3.00D+00
 E= -232.941873360228     Delta-E=       -0.000082902335 Rises=F Damp=F
 DIIS: error= 7.67D-05 at cycle  12 NSaved=  12.
 NSaved=12 IEnMin=12 EnMin= -232.941873360228     IErMin=12 ErrMin= 7.67D-05
 ErrMax= 7.67D-05  0.00D+00 EMaxC= 1.00D-01 BMatC= 4.55D-06 BMatP= 4.69D-06
 IDIUse=1 WtCom= 1.00D+00 WtEn= 0.00D+00
 Coeff-Com: -0.538D-03 0.138D-02 0.782D-02 0.994D-02-0.139D-02-0.776D-01
 Coeff-Com: -0.293D-01 0.365D+00 0.364D+00-0.309D+01 0.235D+01 0.109D+01
 Coeff:     -0.538D-03 0.138D-02 0.782D-02 0.994D-02-0.139D-02-0.776D-01
 Coeff:     -0.293D-01 0.365D+00 0.364D+00-0.309D+01 0.235D+01 0.109D+01
 Gap=     0.366 Goal=   None    Shift=    0.000
 Gap=     0.253 Goal=   None    Shift=    0.000
 RMSDP=6.46D-05 MaxDP=3.46D-03 DE=-8.29D-05 OVMax= 2.53D-02

 Cycle  13  Pass 1  IDiag  1:
 RMSU=  2.46D-05    CP:  9.60D-01  1.08D+00  1.10D+00  1.35D+00  1.57D+00
                    CP:  3.00D+00  3.00D+00  3.00D+00  3.00D+00  3.00D+00
                    CP:  3.00D+00  2.17D+00
 E= -232.941942058049     Delta-E=       -0.000068697821 Rises=F Damp=F
 DIIS: error= 7.56D-05 at cycle  13 NSaved=  13.
 NSaved=13 IEnMin=13 EnMin= -232.941942058049     IErMin=13 ErrMin= 7.56D-05
 ErrMax= 7.56D-05  0.00D+00 EMaxC= 1.00D-01 BMatC= 4.44D-06 BMatP= 4.55D-06
 IDIUse=1 WtCom= 1.00D+00 WtEn= 0.00D+00
 Coeff-Com: -0.806D-04 0.433D-03 0.324D-02 0.574D-02 0.970D-02-0.342D-01
 Coeff-Com: -0.419D-01-0.278D-01-0.136D-01-0.157D+00 0.671D+00-0.656D+00
 Coeff-Com:  0.124D+01
 Coeff:     -0.806D-04 0.433D-03 0.324D-02 0.574D-02 0.970D-02-0.342D-01
 Coeff:     -0.419D-01-0.278D-01-0.136D-01-0.157D+00 0.671D+00-0.656D+00
 Coeff:      0.124D+01
 Gap=     0.366 Goal=   None    Shift=    0.000
 Gap=     0.252 Goal=   None    Shift=    0.000
 RMSDP=3.75D-06 MaxDP=1.91D-04 DE=-6.87D-05 OVMax= 1.41D-03

 Cycle  14  Pass 1  IDiag  1:
 RMSU=  1.70D-06    CP:  9.60D-01  1.08D+00  1.10D+00  1.35D+00  1.57D+00
                    CP:  3.00D+00  3.00D+00  3.00D+00  3.00D+00  3.00D+00
                    CP:  3.00D+00  2.24D+00  1.06D+00
 E= -232.941945750817     Delta-E=       -0.000003692767 Rises=F Damp=F
 DIIS: error= 7.43D-05 at cycle  14 NSaved=  14.
 NSaved=14 IEnMin=14 EnMin= -232.941945750817     IErMin=14 ErrMin= 7.43D-05
 ErrMax= 7.43D-05  0.00D+00 EMaxC= 1.00D-01 BMatC= 4.20D-06 BMatP= 4.44D-06
 IDIUse=1 WtCom= 1.00D+00 WtEn= 0.00D+00
 Coeff-Com:  0.387D-03-0.863D-03-0.673D-03 0.832D-03-0.141D-01-0.347D-01
 Coeff-Com: -0.562D-01 0.581D-01 0.852D+00-0.226D+01-0.318D+01-0.563D+01
 Coeff-Com:  0.219D+01 0.908D+01
 Coeff:      0.387D-03-0.863D-03-0.673D-03 0.832D-03-0.141D-01-0.347D-01
 Coeff:     -0.562D-01 0.581D-01 0.852D+00-0.226D+01-0.318D+01-0.563D+01
 Coeff:      0.219D+01 0.908D+01
 Gap=     0.372 Goal=   None    Shift=    0.000
 Gap=     0.266 Goal=   None    Shift=    0.000
 RMSDP=8.49D-04 MaxDP=5.14D-02 DE=-3.69D-06 OVMax= 2.79D-01

 Cycle  15  Pass 1  IDiag  1:
 RMSU=  7.73D-04    CP:  9.51D-01  1.01D+00  1.23D+00  2.06D+00  1.99D+00
                    CP:  3.00D+00  3.00D+00  3.00D+00  3.00D+00  3.00D+00
                    CP:  3.00D+00  3.00D+00  3.00D+00 -3.00D+00
 E= -232.942132208918     Delta-E=       -0.000186458101 Rises=F Damp=F
 DIIS: error= 1.84D-03 at cycle  15 NSaved=  15.
 NSaved=15 IEnMin=15 EnMin= -232.942132208918     IErMin=14 ErrMin= 7.43D-05
 ErrMax= 1.84D-03  0.00D+00 EMaxC= 1.00D-01 BMatC= 1.76D-03 BMatP= 4.20D-06
 IDIUse=1 WtCom= 1.00D+00 WtEn= 0.00D+00
 Coeff-Com:  0.386D-03-0.886D-03-0.374D-02-0.618D-02-0.105D-01 0.828D-02
 Coeff-Com:  0.260D-01-0.117D-01 0.220D+00-0.227D+01-0.152D+01-0.503D+01
 Coeff-Com:  0.669D+00 0.890D+01 0.209D-01
 Coeff:      0.386D-03-0.886D-03-0.374D-02-0.618D-02-0.105D-01 0.828D-02
 Coeff:      0.260D-01-0.117D-01 0.220D+00-0.227D+01-0.152D+01-0.503D+01
 Coeff:      0.669D+00 0.890D+01 0.209D-01
 Gap=     0.366 Goal=   None    Shift=    0.000
 Gap=     0.320 Goal=   None    Shift=    0.000
 RMSDP=9.01D-05 MaxDP=5.67D-03 DE=-1.86D-04 OVMax= 2.90D-02

 Cycle  16  Pass 1  IDiag  1:
 RMSU=  2.86D-05    CP:  9.52D-01  1.02D+00  1.22D+00  2.00D+00  1.95D+00
                    CP:  3.00D+00  3.00D+00  3.00D+00  3.00D+00  3.00D+00
                    CP:  3.00D+00  3.00D+00  3.00D+00 -3.00D+00  8.93D-01
 E= -232.942280733036     Delta-E=       -0.000148524118 Rises=F Damp=F
 DIIS: error= 1.42D-03 at cycle  16 NSaved=  16.
 NSaved=16 IEnMin=16 EnMin= -232.942280733036     IErMin=14 ErrMin= 7.43D-05
 ErrMax= 1.42D-03  0.00D+00 EMaxC= 1.00D-01 BMatC= 1.04D-03 BMatP= 4.20D-06
 IDIUse=1 WtCom= 1.00D+00 WtEn= 0.00D+00
 Coeff-Com:  0.312D-03-0.733D-03-0.263D-02-0.446D-02-0.126D-01-0.642D-02
 Coeff-Com:  0.846D-02 0.587D-01 0.432D+00-0.247D+01-0.191D+01-0.477D+01
 Coeff-Com:  0.113D+01 0.855D+01 0.932D-01-0.102D+00
 Coeff:      0.312D-03-0.733D-03-0.263D-02-0.446D-02-0.126D-01-0.642D-02
 Coeff:      0.846D-02 0.587D-01 0.432D+00-0.247D+01-0.191D+01-0.477D+01
 Coeff:      0.113D+01 0.855D+01 0.932D-01-0.102D+00
 Gap=     0.366 Goal=   None    Shift=    0.000
 Gap=     0.321 Goal=   None    Shift=    0.000
 RMSDP=3.73D-06 MaxDP=1.82D-04 DE=-1.49D-04 OVMax= 9.30D-04

 Cycle  17  Pass 1  IDiag  1:
 RMSU=  1.24D-06    CP:  9.52D-01  1.02D+00  1.22D+00  2.00D+00  1.95D+00
                    CP:  3.00D+00  3.00D+00  3.00D+00  3.00D+00  3.00D+00
                    CP:  3.00D+00  3.00D+00  3.00D+00 -3.00D+00  8.97D-01
                    CP:  9.49D-01
 E= -232.942268226227     Delta-E=        0.000012506809 Rises=F Damp=F
 DIIS: error= 1.46D-03 at cycle  17 NSaved=  17.
 NSaved=17 IEnMin=16 EnMin= -232.942280733036     IErMin=14 ErrMin= 7.43D-05
 ErrMax= 1.46D-03  0.00D+00 EMaxC= 1.00D-01 BMatC= 1.10D-03 BMatP= 4.20D-06
 IDIUse=1 WtCom= 1.00D+00 WtEn= 0.00D+00
 Coeff-Com:  0.327D-04-0.102D-03-0.297D-04-0.189D-02-0.162D-01-0.251D-01
 Coeff-Com:  0.154D-01 0.248D+00 0.485D+00-0.362D+01-0.101D+01-0.387D+01
 Coeff-Com:  0.712D+00 0.799D+01 0.207D+00 0.538D+01-0.549D+01
 Coeff:      0.327D-04-0.102D-03-0.297D-04-0.189D-02-0.162D-01-0.251D-01
 Coeff:      0.154D-01 0.248D+00 0.485D+00-0.362D+01-0.101D+01-0.387D+01
 Coeff:      0.712D+00 0.799D+01 0.207D+00 0.538D+01-0.549D+01
 Gap=     0.366 Goal=   None    Shift=    0.000
 Gap=     0.321 Goal=   None    Shift=    0.000
 RMSDP=2.68D-05 MaxDP=1.85D-03 DE= 1.25D-05 OVMax= 9.60D-03

 Cycle  18  Pass 1  IDiag  1:
 RMSU=  2.14D-06    CP:  9.52D-01  1.01D+00  1.22D+00  2.01D+00  1.95D+00
                    CP:  3.00D+00  3.00D+00  3.00D+00  3.00D+00  3.00D+00
                    CP:  3.00D+00  3.00D+00  3.00D+00 -3.00D+00  9.30D-01
                    CP:  7.82D-01 -3.00D+00
 E= -232.942280735149     Delta-E=       -0.000012508922 Rises=F Damp=F
 DIIS: error= 1.45D-03 at cycle  18 NSaved=  18.
 NSaved=18 IEnMin=18 EnMin= -232.942280735149     IErMin=14 ErrMin= 7.43D-05
 ErrMax= 1.45D-03  0.00D+00 EMaxC= 1.00D-01 BMatC= 1.10D-03 BMatP= 4.20D-06
 IDIUse=1 WtCom= 1.00D+00 WtEn= 0.00D+00
 Large coefficients: NSaved= 18 BigCof=   11.75 CofMax=   10.00 Det=-1.86D-09
 Inversion failed.  Reducing to 17 matrices.
 Large coefficients: NSaved= 17 BigCof=   11.05 CofMax=   10.00 Det=-2.01D-09
 Inversion failed.  Reducing to 16 matrices.
 Large coefficients: NSaved= 16 BigCof=   11.05 CofMax=   10.00 Det=-2.01D-09
 Inversion failed.  Reducing to 15 matrices.
 Large coefficients: NSaved= 15 BigCof=   11.11 CofMax=   10.00 Det=-2.03D-09
 Inversion failed.  Reducing to 14 matrices.
 Large coefficients: NSaved= 14 BigCof=   11.13 CofMax=   10.00 Det=-2.03D-09
 Inversion failed.  Reducing to 13 matrices.
 Large coefficients: NSaved= 13 BigCof=   11.49 CofMax=   10.00 Det=-2.05D-09
 Inversion failed.  Reducing to 12 matrices.
 Large coefficients: NSaved= 12 BigCof=   11.73 CofMax=   10.00 Det=-2.07D-09
 Inversion failed.  Reducing to 11 matrices.
 Large coefficients: NSaved= 11 BigCof=   11.77 CofMax=   10.00 Det=-2.07D-09
 Inversion failed.  Reducing to 10 matrices.
 Large coefficients: NSaved= 10 BigCof=   11.21 CofMax=   10.00 Det=-2.16D-09
 Inversion failed.  Reducing to  9 matrices.
 Large coefficients: NSaved=  9 BigCof=   11.21 CofMax=   10.00 Det=-2.16D-09
 Inversion failed.  Reducing to  8 matrices.
 Large coefficients: NSaved=  8 BigCof=   11.11 CofMax=   10.00 Det=-2.16D-09
 Inversion failed.  Reducing to  7 matrices.
 Large coefficients: NSaved=  7 BigCof=   11.09 CofMax=   10.00 Det=-2.16D-09
 Inversion failed.  Reducing to  6 matrices.
 Large coefficients: NSaved=  6 BigCof=   14.74 CofMax=   10.00 Det=-2.57D-09
 Inversion failed.  Reducing to  5 matrices.
 Large coefficients: NSaved=  5 BigCof=   14.91 CofMax=   10.00 Det=-2.59D-09
 Inversion failed.  Reducing to  4 matrices.
 Large coefficients: NSaved=  4 BigCof=   29.06 CofMax=   10.00 Det=-6.22D-09
 Inversion failed.  Reducing to  3 matrices.
 Large coefficients: NSaved=  3 BigCof=   43.55 CofMax=   10.00 Det=-2.75D-07
 Inversion failed.  Reducing to  2 matrices.
 Coeff-Com: -0.307D+00 0.131D+01
 Coeff:     -0.307D+00 0.131D+01
 Gap=     0.371 Goal=   None    Shift=    0.000
 Gap=     0.265 Goal=   None    Shift=    0.000
 RMSDP=8.38D-05 MaxDP=2.57D-03 DE=-1.25D-05 OVMax= 9.93D-03

 Cycle  19  Pass 1  IDiag  1:
 RMSU=  6.33D-05    CP:  9.51D-01  1.02D+00  1.20D+00  1.99D+00  1.89D+00
                    CP:  3.00D+00  3.00D+00  3.00D+00  3.00D+00  3.00D+00
                    CP:  3.00D+00  3.00D+00  3.00D+00  3.00D+00  9.21D-01
                    CP:  1.99D+00 -3.00D+00  3.00D+00
 E= -232.942548824758     Delta-E=       -0.000268089609 Rises=F Damp=F
 DIIS: error= 2.53D-04 at cycle  19 NSaved=   3.
 NSaved= 3 IEnMin= 3 EnMin= -232.942548824758     IErMin= 3 ErrMin= 2.53D-04
 ErrMax= 2.53D-04  0.00D+00 EMaxC= 1.00D-01 BMatC= 6.88D-05 BMatP= 1.10D-03
 IDIUse=1 WtCom= 1.00D+00 WtEn= 0.00D+00
 Coeff-Com: -0.122D+00 0.108D+00 0.101D+01
 Coeff:     -0.122D+00 0.108D+00 0.101D+01
 Gap=     0.372 Goal=   None    Shift=    0.000
 Gap=     0.257 Goal=   None    Shift=    0.000
 RMSDP=2.91D-05 MaxDP=1.14D-03 DE=-2.68D-04 OVMax= 4.10D-03

 Cycle  20  Pass 1  IDiag  1:
 RMSU=  2.66D-05    CP:  9.52D-01  1.01D+00  1.20D+00  1.95D+00  1.85D+00
                    CP:  3.00D+00  3.00D+00  3.00D+00  3.00D+00  3.00D+00
                    CP:  3.00D+00  3.00D+00  3.00D+00  3.00D+00  9.25D-01
                    CP:  2.07D+00 -3.00D+00  3.00D+00  1.01D+00
 E= -232.942579049642     Delta-E=       -0.000030224884 Rises=F Damp=F
 DIIS: error= 1.52D-04 at cycle  20 NSaved=   4.
 NSaved= 4 IEnMin= 4 EnMin= -232.942579049642     IErMin= 4 ErrMin= 1.52D-04
 ErrMax= 1.52D-04  0.00D+00 EMaxC= 1.00D-01 BMatC= 2.38D-05 BMatP= 6.88D-05
 IDIUse=1 WtCom= 1.00D+00 WtEn= 0.00D+00
 Coeff-Com: -0.364D-01-0.256D-01 0.310D+00 0.752D+00
 Coeff:     -0.364D-01-0.256D-01 0.310D+00 0.752D+00
 Gap=     0.371 Goal=   None    Shift=    0.000
 Gap=     0.256 Goal=   None    Shift=    0.000
 RMSDP=1.20D-05 MaxDP=4.23D-04 DE=-3.02D-05 OVMax= 2.40D-03

 Cycle  21  Pass 1  IDiag  1:
 Restarting incremental Fock formation.
 E= -232.942588558178     Delta-E=       -0.000009508537 Rises=F Damp=F
 DIIS: error= 5.63D-05 at cycle  21 NSaved=   5.
 NSaved= 5 IEnMin= 5 EnMin= -232.942588558178     IErMin= 5 ErrMin= 5.63D-05
 ErrMax= 5.63D-05  0.00D+00 EMaxC= 1.00D-01 BMatC= 3.61D-06 BMatP= 2.38D-05
 IDIUse=1 WtCom= 1.00D+00 WtEn= 0.00D+00
 Coeff-Com: -0.733D+00 0.725D+00-0.151D+00 0.109D+00 0.105D+01
 Coeff:     -0.733D+00 0.725D+00-0.151D+00 0.109D+00 0.105D+01
 Gap=     0.371 Goal=   None    Shift=    0.000
 Gap=     0.256 Goal=   None    Shift=    0.000
 RMSDP=2.60D-05 MaxDP=1.76D-03 DE=-9.51D-06 OVMax= 1.05D-02

 Cycle  22  Pass 1  IDiag  1:
 RMSU=  2.60D-05    CP:  1.00D+00
 E= -232.942602223807     Delta-E=       -0.000013665629 Rises=F Damp=F
 DIIS: error= 3.13D-05 at cycle  22 NSaved=   6.
 NSaved= 6 IEnMin= 6 EnMin= -232.942602223807     IErMin= 6 ErrMin= 3.13D-05
 ErrMax= 3.13D-05  0.00D+00 EMaxC= 1.00D-01 BMatC= 9.11D-07 BMatP= 3.61D-06
 IDIUse=1 WtCom= 1.00D+00 WtEn= 0.00D+00
 Coeff-Com: -0.562D+00 0.561D+00-0.518D-01-0.401D-01 0.185D+00 0.908D+00
 Coeff:     -0.562D+00 0.561D+00-0.518D-01-0.401D-01 0.185D+00 0.908D+00
 Gap=     0.372 Goal=   None    Shift=    0.000
 Gap=     0.256 Goal=   None    Shift=    0.000
 RMSDP=1.76D-05 MaxDP=1.21D-03 DE=-1.37D-05 OVMax= 7.26D-03

 Cycle  23  Pass 1  IDiag  1:
 RMSU=  3.25D-06    CP:  1.00D+00  1.66D+00
 E= -232.942610364167     Delta-E=       -0.000008140360 Rises=F Damp=F
 DIIS: error= 3.20D-05 at cycle  23 NSaved=   7.
 NSaved= 7 IEnMin= 7 EnMin= -232.942610364167     IErMin= 6 ErrMin= 3.13D-05
 ErrMax= 3.20D-05  0.00D+00 EMaxC= 1.00D-01 BMatC= 7.36D-07 BMatP= 9.11D-07
 IDIUse=1 WtCom= 1.00D+00 WtEn= 0.00D+00
 Coeff-Com: -0.541D+00 0.537D+00 0.336D-01-0.157D-01-0.229D+00-0.130D+00
 Coeff-Com:  0.134D+01
 Coeff:     -0.541D+00 0.537D+00 0.336D-01-0.157D-01-0.229D+00-0.130D+00
 Coeff:      0.134D+01
 Gap=     0.372 Goal=   None    Shift=    0.000
 Gap=     0.256 Goal=   None    Shift=    0.000
 RMSDP=2.97D-05 MaxDP=2.04D-03 DE=-8.14D-06 OVMax= 1.21D-02

 Cycle  24  Pass 1  IDiag  1:
 RMSU=  2.80D-06    CP:  1.00D+00  2.78D+00  2.82D+00
 E= -232.942623188462     Delta-E=       -0.000012824294 Rises=F Damp=F
 DIIS: error= 2.98D-05 at cycle  24 NSaved=   8.
 NSaved= 8 IEnMin= 8 EnMin= -232.942623188462     IErMin= 8 ErrMin= 2.98D-05
 ErrMax= 2.98D-05  0.00D+00 EMaxC= 1.00D-01 BMatC= 6.25D-07 BMatP= 7.36D-07
 IDIUse=1 WtCom= 1.00D+00 WtEn= 0.00D+00
 Coeff-Com: -0.425D+00 0.415D+00 0.293D-01 0.292D-01-0.109D+00-0.497D+00
 Coeff-Com: -0.897D-01 0.165D+01
 Coeff:     -0.425D+00 0.415D+00 0.293D-01 0.292D-01-0.109D+00-0.497D+00
 Coeff:     -0.897D-01 0.165D+01
 Gap=     0.372 Goal=   None    Shift=    0.000
 Gap=     0.256 Goal=   None    Shift=    0.000
 RMSDP=4.50D-05 MaxDP=3.10D-03 DE=-1.28D-05 OVMax= 1.84D-02

 Cycle  25  Pass 1  IDiag  1:
 RMSU=  3.90D-05    CP:  1.00D+00  3.00D+00  3.00D+00  2.64D+00
 E= -232.942641010653     Delta-E=       -0.000017822191 Rises=F Damp=F
 DIIS: error= 2.75D-05 at cycle  25 NSaved=   9.
 NSaved= 9 IEnMin= 9 EnMin= -232.942641010653     IErMin= 9 ErrMin= 2.75D-05
 ErrMax= 2.75D-05  0.00D+00 EMaxC= 1.00D-01 BMatC= 5.71D-07 BMatP= 6.25D-07
 IDIUse=1 WtCom= 1.00D+00 WtEn= 0.00D+00
 Coeff-Com: -0.214D+00 0.197D+00-0.124D-01 0.340D-01 0.144D+00-0.864D-01
 Coeff-Com: -0.171D+01 0.589D+00 0.206D+01
 Coeff:     -0.214D+00 0.197D+00-0.124D-01 0.340D-01 0.144D+00-0.864D-01
 Coeff:     -0.171D+01 0.589D+00 0.206D+01
 Gap=     0.373 Goal=   None    Shift=    0.000
 Gap=     0.257 Goal=   None    Shift=    0.000
 RMSDP=9.95D-05 MaxDP=6.84D-03 DE=-1.78D-05 OVMax= 4.08D-02

 Cycle  26  Pass 1  IDiag  1:
 RMSU=  2.39D-05    CP:  9.99D-01  3.00D+00  3.00D+00  3.00D+00  3.00D+00
 E= -232.942673435446     Delta-E=       -0.000032424793 Rises=F Damp=F
 DIIS: error= 3.49D-05 at cycle  26 NSaved=  10.
 NSaved=10 IEnMin=10 EnMin= -232.942673435446     IErMin= 9 ErrMin= 2.75D-05
 ErrMax= 3.49D-05  0.00D+00 EMaxC= 1.00D-01 BMatC= 9.05D-07 BMatP= 5.71D-07
 IDIUse=1 WtCom= 1.00D+00 WtEn= 0.00D+00
 Coeff-Com:  0.785D-01-0.105D+00-0.943D-02 0.616D-02 0.777D-01 0.165D+00
 Coeff-Com: -0.863D+00-0.485D+00 0.125D+01 0.889D+00
 Coeff:      0.785D-01-0.105D+00-0.943D-02 0.616D-02 0.777D-01 0.165D+00
 Coeff:     -0.863D+00-0.485D+00 0.125D+01 0.889D+00
 Gap=     0.373 Goal=   None    Shift=    0.000
 Gap=     0.257 Goal=   None    Shift=    0.000
 RMSDP=5.43D-05 MaxDP=3.72D-03 DE=-3.24D-05 OVMax= 2.24D-02

 Cycle  27  Pass 1  IDiag  1:
 RMSU=  1.98D-05    CP:  9.99D-01  3.00D+00  3.00D+00  3.00D+00  3.00D+00
                    CP:  3.00D+00
 E= -232.942687185765     Delta-E=       -0.000013750320 Rises=F Damp=F
 DIIS: error= 3.29D-05 at cycle  27 NSaved=  11.
 NSaved=11 IEnMin=11 EnMin= -232.942687185765     IErMin= 9 ErrMin= 2.75D-05
 ErrMax= 3.29D-05  0.00D+00 EMaxC= 1.00D-01 BMatC= 7.66D-07 BMatP= 5.71D-07
 IDIUse=1 WtCom= 1.00D+00 WtEn= 0.00D+00
 Coeff-Com:  0.361D+00-0.381D+00 0.490D-01-0.142D-01-0.277D+00-0.301D+00
 Coeff-Com:  0.101D+01 0.301D+00-0.963D+00-0.215D+01 0.336D+01
 Coeff:      0.361D+00-0.381D+00 0.490D-01-0.142D-01-0.277D+00-0.301D+00
 Coeff:      0.101D+01 0.301D+00-0.963D+00-0.215D+01 0.336D+01
 Gap=     0.374 Goal=   None    Shift=    0.000
 Gap=     0.256 Goal=   None    Shift=    0.000
 RMSDP=1.11D-04 MaxDP=7.52D-03 DE=-1.38D-05 OVMax= 4.60D-02

 Cycle  28  Pass 1  IDiag  1:
 RMSU=  9.88D-05    CP:  9.98D-01  3.00D+00  3.00D+00  3.00D+00  3.00D+00
                    CP:  3.00D+00  3.00D+00
 E= -232.942706227135     Delta-E=       -0.000019041370 Rises=F Damp=F
 DIIS: error= 1.68D-05 at cycle  28 NSaved=  12.
 NSaved=12 IEnMin=12 EnMin= -232.942706227135     IErMin=12 ErrMin= 1.68D-05
 ErrMax= 1.68D-05  0.00D+00 EMaxC= 1.00D-01 BMatC= 2.37D-07 BMatP= 5.71D-07
 IDIUse=1 WtCom= 1.00D+00 WtEn= 0.00D+00
 Coeff-Com:  0.224D+00-0.223D+00 0.357D-01-0.179D-02-0.200D+00-0.387D+00
 Coeff-Com:  0.846D+00 0.909D+00-0.103D+01-0.301D+01 0.275D+01 0.109D+01
 Coeff:      0.224D+00-0.223D+00 0.357D-01-0.179D-02-0.200D+00-0.387D+00
 Coeff:      0.846D+00 0.909D+00-0.103D+01-0.301D+01 0.275D+01 0.109D+01
 Gap=     0.374 Goal=   None    Shift=    0.000
 Gap=     0.257 Goal=   None    Shift=    0.000
 RMSDP=9.11D-05 MaxDP=6.05D-03 DE=-1.90D-05 OVMax= 3.78D-02

 Cycle  29  Pass 1  IDiag  1:
 RMSU=  2.87D-05    CP:  9.98D-01  3.00D+00  3.00D+00  3.00D+00  3.00D+00
                    CP:  3.00D+00  3.00D+00  1.87D+00
 E= -232.942712291968     Delta-E=       -0.000006064833 Rises=F Damp=F
 DIIS: error= 2.01D-05 at cycle  29 NSaved=  13.
 NSaved=13 IEnMin=13 EnMin= -232.942712291968     IErMin=12 ErrMin= 1.68D-05
 ErrMax= 2.01D-05  0.00D+00 EMaxC= 1.00D-01 BMatC= 3.26D-07 BMatP= 2.37D-07
 IDIUse=1 WtCom= 1.00D+00 WtEn= 0.00D+00
 Coeff-Com:  0.203D+00-0.201D+00 0.235D-01 0.224D-02-0.122D+00-0.310D+00
 Coeff-Com:  0.359D+00 0.864D+00-0.418D+00-0.200D+01 0.133D+01 0.761D+00
 Coeff-Com:  0.502D+00
 Coeff:      0.203D+00-0.201D+00 0.235D-01 0.224D-02-0.122D+00-0.310D+00
 Coeff:      0.359D+00 0.864D+00-0.418D+00-0.200D+01 0.133D+01 0.761D+00
 Coeff:      0.502D+00
 Gap=     0.374 Goal=   None    Shift=    0.000
 Gap=     0.256 Goal=   None    Shift=    0.000
 RMSDP=2.37D-06 MaxDP=8.03D-05 DE=-6.06D-06 OVMax= 3.71D-04

 Cycle  30  Pass 1  IDiag  1:
 RMSU=  2.22D-06    CP:  9.98D-01  3.00D+00  3.00D+00  3.00D+00  3.00D+00
                    CP:  3.00D+00  3.00D+00  1.87D+00  1.03D+00
 E= -232.942712383684     Delta-E=       -0.000000091716 Rises=F Damp=F
 DIIS: error= 7.18D-06 at cycle  30 NSaved=  14.
 NSaved=14 IEnMin=14 EnMin= -232.942712383684     IErMin=14 ErrMin= 7.18D-06
 ErrMax= 7.18D-06  0.00D+00 EMaxC= 1.00D-01 BMatC= 3.04D-08 BMatP= 2.37D-07
 IDIUse=1 WtCom= 1.00D+00 WtEn= 0.00D+00
 Coeff-Com: -0.942D-01 0.982D-01-0.582D-02-0.153D-02 0.201D-01 0.485D-01
 Coeff-Com: -0.876D-01-0.143D+00 0.411D-01-0.163D+00 0.284D+00 0.192D+00
 Coeff-Com: -0.244D+00 0.105D+01
 Coeff:     -0.942D-01 0.982D-01-0.582D-02-0.153D-02 0.201D-01 0.485D-01
 Coeff:     -0.876D-01-0.143D+00 0.411D-01-0.163D+00 0.284D+00 0.192D+00
 Coeff:     -0.244D+00 0.105D+01
 Gap=     0.374 Goal=   None    Shift=    0.000
 Gap=     0.258 Goal=   None    Shift=    0.000
 RMSDP=1.89D-05 MaxDP=1.22D-03 DE=-9.17D-08 OVMax= 7.55D-03

 Cycle  31  Pass 1  IDiag  1:
 RMSU=  8.94D-07    CP:  9.98D-01  3.00D+00  3.00D+00  3.00D+00  3.00D+00
                    CP:  3.00D+00  3.00D+00  2.06D+00  1.19D+00 -2.67D-01
 E= -232.942712349328     Delta-E=        0.000000034356 Rises=F Damp=F
 DIIS: error= 3.14D-05 at cycle  31 NSaved=  15.
 NSaved=15 IEnMin=14 EnMin= -232.942712383684     IErMin=14 ErrMin= 7.18D-06
 ErrMax= 3.14D-05  0.00D+00 EMaxC= 1.00D-01 BMatC= 7.86D-07 BMatP= 3.04D-08
 IDIUse=1 WtCom= 1.00D+00 WtEn= 0.00D+00
 Coeff-Com: -0.135D-01 0.134D-01-0.459D-02-0.182D-03 0.247D-01 0.438D-01
 Coeff-Com: -0.911D-01-0.132D+00 0.943D-01 0.174D+00-0.971D-01-0.241D-01
 Coeff-Com: -0.798D+00 0.117D+01 0.635D+00
 Coeff:     -0.135D-01 0.134D-01-0.459D-02-0.182D-03 0.247D-01 0.438D-01
 Coeff:     -0.911D-01-0.132D+00 0.943D-01 0.174D+00-0.971D-01-0.241D-01
 Coeff:     -0.798D+00 0.117D+01 0.635D+00
 Gap=     0.374 Goal=   None    Shift=    0.000
 Gap=     0.257 Goal=   None    Shift=    0.000
 RMSDP=2.09D-06 MaxDP=6.49D-05 DE= 3.44D-08 OVMax= 2.64D-04

 Cycle  32  Pass 1  IDiag  1:
 RMSU=  7.91D-08    CP:  9.98D-01  3.00D+00  3.00D+00  3.00D+00  3.00D+00
                    CP:  3.00D+00  3.00D+00  2.05D+00  1.21D+00  6.18D-01
                    CP:  9.92D-01
 E= -232.942712548256     Delta-E=       -0.000000198929 Rises=F Damp=F
 DIIS: error= 9.10D-06 at cycle  32 NSaved=  16.
 NSaved=16 IEnMin=16 EnMin= -232.942712548256     IErMin=14 ErrMin= 7.18D-06
 ErrMax= 9.10D-06  0.00D+00 EMaxC= 1.00D-01 BMatC= 6.66D-08 BMatP= 3.04D-08
 IDIUse=1 WtCom= 1.00D+00 WtEn= 0.00D+00
 Coeff-Com:  0.724D-02-0.783D-02-0.170D-02 0.127D-03 0.104D-01 0.158D-01
 Coeff-Com: -0.372D-01-0.542D-01 0.401D-01 0.720D-01-0.386D-01-0.126D-01
 Coeff-Com: -0.461D+00 0.618D+00 0.199D+00 0.650D+00
 Coeff:      0.724D-02-0.783D-02-0.170D-02 0.127D-03 0.104D-01 0.158D-01
 Coeff:     -0.372D-01-0.542D-01 0.401D-01 0.720D-01-0.386D-01-0.126D-01
 Coeff:     -0.461D+00 0.618D+00 0.199D+00 0.650D+00
 Gap=     0.374 Goal=   None    Shift=    0.000
 Gap=     0.256 Goal=   None    Shift=    0.000
 RMSDP=5.29D-07 MaxDP=1.61D-05 DE=-1.99D-07 OVMax= 6.36D-05

 Cycle  33  Pass 1  IDiag  1:
 RMSU=  2.23D-08    CP:  9.98D-01  3.00D+00  3.00D+00  3.00D+00  3.00D+00
                    CP:  3.00D+00  3.00D+00  2.05D+00  1.22D+00  8.43D-01
                    CP:  9.87D-01  1.20D+00
 E= -232.942712564061     Delta-E=       -0.000000015804 Rises=F Damp=F
 DIIS: error= 3.52D-06 at cycle  33 NSaved=  17.
 NSaved=17 IEnMin=17 EnMin= -232.942712564061     IErMin=17 ErrMin= 3.52D-06
 ErrMax= 3.52D-06  0.00D+00 EMaxC= 1.00D-01 BMatC= 9.98D-09 BMatP= 3.04D-08
 IDIUse=1 WtCom= 1.00D+00 WtEn= 0.00D+00
 Coeff-Com: -0.578D-03 0.658D-03 0.895D-03-0.103D-03-0.584D-02-0.736D-02
 Coeff-Com:  0.272D-01 0.136D-01-0.327D-01-0.665D-01 0.773D-01 0.237D-01
 Coeff-Com:  0.107D+00-0.159D+00-0.196D+00-0.283D+00 0.150D+01
 Coeff:     -0.578D-03 0.658D-03 0.895D-03-0.103D-03-0.584D-02-0.736D-02
 Coeff:      0.272D-01 0.136D-01-0.327D-01-0.665D-01 0.773D-01 0.237D-01
 Coeff:      0.107D+00-0.159D+00-0.196D+00-0.283D+00 0.150D+01
 Gap=     0.374 Goal=   None    Shift=    0.000
 Gap=     0.256 Goal=   None    Shift=    0.000
 RMSDP=3.38D-07 MaxDP=1.44D-05 DE=-1.58D-08 OVMax= 7.95D-05

 Cycle  34  Pass 1  IDiag  1:
 RMSU=  1.95D-08    CP:  9.98D-01  3.00D+00  3.00D+00  3.00D+00  3.00D+00
                    CP:  3.00D+00  3.00D+00  2.05D+00  1.22D+00  9.49D-01
                    CP:  9.79D-01  1.41D+00  1.61D+00
 E= -232.942712566758     Delta-E=       -0.000000002698 Rises=F Damp=F
 DIIS: error= 8.16D-07 at cycle  34 NSaved=  18.
 NSaved=18 IEnMin=18 EnMin= -232.942712566758     IErMin=18 ErrMin= 8.16D-07
 ErrMax= 8.16D-07  0.00D+00 EMaxC= 1.00D-01 BMatC= 5.40D-10 BMatP= 9.98D-09
 IDIUse=1 WtCom= 1.00D+00 WtEn= 0.00D+00
 Coeff-Com: -0.305D-02 0.319D-02 0.233D-03-0.105D-03-0.185D-02-0.132D-02
 Coeff-Com:  0.943D-02 0.107D-02-0.948D-02-0.927D-02 0.143D-01 0.150D-02
 Coeff-Com:  0.329D-01-0.532D-01-0.339D-01-0.160D+00 0.129D+00 0.108D+01
 Coeff:     -0.305D-02 0.319D-02 0.233D-03-0.105D-03-0.185D-02-0.132D-02
 Coeff:      0.943D-02 0.107D-02-0.948D-02-0.927D-02 0.143D-01 0.150D-02
 Coeff:      0.329D-01-0.532D-01-0.339D-01-0.160D+00 0.129D+00 0.108D+01
 Gap=     0.374 Goal=   None    Shift=    0.000
 Gap=     0.256 Goal=   None    Shift=    0.000
 RMSDP=1.11D-07 MaxDP=5.07D-06 DE=-2.70D-09 OVMax= 2.76D-05

 Cycle  35  Pass 1  IDiag  1:
 RMSU=  6.37D-09    CP:  9.98D-01  3.00D+00  3.00D+00  3.00D+00  3.00D+00
                    CP:  3.00D+00  3.00D+00  2.05D+00  1.22D+00  9.82D-01
                    CP:  9.78D-01  1.46D+00  1.80D+00  1.40D+00
 E= -232.942712566908     Delta-E=       -0.000000000149 Rises=F Damp=F
 DIIS: error= 3.27D-08 at cycle  35 NSaved=  19.
 NSaved=19 IEnMin=19 EnMin= -232.942712566908     IErMin=19 ErrMin= 3.27D-08
 ErrMax= 3.27D-08  0.00D+00 EMaxC= 1.00D-01 BMatC= 1.50D-12 BMatP= 5.40D-10
 IDIUse=1 WtCom= 1.00D+00 WtEn= 0.00D+00
 Coeff-Com:  0.712D-03-0.761D-03-0.217D-03 0.301D-04 0.154D-02 0.194D-02
 Coeff-Com: -0.650D-02-0.440D-02 0.800D-02 0.172D-01-0.194D-01-0.626D-02
 Coeff-Com: -0.388D-01 0.578D-01 0.656D-01 0.111D+00-0.460D+00-0.234D+00
 Coeff-Com:  0.151D+01
 Coeff:      0.712D-03-0.761D-03-0.217D-03 0.301D-04 0.154D-02 0.194D-02
 Coeff:     -0.650D-02-0.440D-02 0.800D-02 0.172D-01-0.194D-01-0.626D-02
 Coeff:     -0.388D-01 0.578D-01 0.656D-01 0.111D+00-0.460D+00-0.234D+00
 Coeff:      0.151D+01
 Gap=     0.374 Goal=   None    Shift=    0.000
 Gap=     0.256 Goal=   None    Shift=    0.000
 RMSDP=2.00D-08 MaxDP=9.38D-07 DE=-1.49D-10 OVMax= 7.14D-06

 Cycle  36  Pass 1  IDiag  1:
 RMSU=  4.28D-09    CP:  9.98D-01  3.00D+00  3.00D+00  3.00D+00  3.00D+00
                    CP:  3.00D+00  3.00D+00  2.05D+00  1.22D+00  9.86D-01
                    CP:  9.81D-01  1.48D+00  1.90D+00  1.68D+00  1.61D+00
 E= -232.942712566908     Delta-E=       -0.000000000000 Rises=F Damp=F
 DIIS: error= 1.16D-07 at cycle  36 NSaved=  20.
 NSaved=20 IEnMin=20 EnMin= -232.942712566908     IErMin=19 ErrMin= 3.27D-08
 ErrMax= 1.16D-07  0.00D+00 EMaxC= 1.00D-01 BMatC= 1.17D-11 BMatP= 1.50D-12
 IDIUse=1 WtCom= 1.00D+00 WtEn= 0.00D+00
 Coeff-Com:  0.408D-03-0.436D-03-0.495D-04 0.871D-05 0.366D-03 0.462D-03
 Coeff-Com: -0.149D-02-0.133D-02 0.139D-02 0.186D-02-0.157D-02-0.833D-04
 Coeff-Com: -0.115D-01 0.188D-01 0.159D-01 0.377D-01-0.695D-01-0.155D+00
 Coeff-Com:  0.138D+00 0.103D+01
 Coeff:      0.408D-03-0.436D-03-0.495D-04 0.871D-05 0.366D-03 0.462D-03
 Coeff:     -0.149D-02-0.133D-02 0.139D-02 0.186D-02-0.157D-02-0.833D-04
 Coeff:     -0.115D-01 0.188D-01 0.159D-01 0.377D-01-0.695D-01-0.155D+00
 Coeff:      0.138D+00 0.103D+01
 Gap=     0.374 Goal=   None    Shift=    0.000
 Gap=     0.256 Goal=   None    Shift=    0.000
 RMSDP=3.78D-08 MaxDP=1.85D-06 DE=-1.14D-13 OVMax= 1.11D-05

 Cycle  37  Pass 1  IDiag  1:
 RMSU=  9.83D-10    CP:  9.98D-01  3.00D+00  3.00D+00  3.00D+00  3.00D+00
                    CP:  3.00D+00  3.00D+00  2.05D+00  1.22D+00  9.76D-01
                    CP:  9.83D-01  1.47D+00  1.89D+00  1.70D+00  1.75D+00
                    CP:  1.22D+00
 E= -232.942712566908     Delta-E=       -0.000000000000 Rises=F Damp=F
 DIIS: error= 1.38D-07 at cycle  37 NSaved=  20.
 NSaved=20 IEnMin=20 EnMin= -232.942712566908     IErMin=18 ErrMin= 3.27D-08
 ErrMax= 1.38D-07  0.00D+00 EMaxC= 1.00D-01 BMatC= 1.52D-11 BMatP= 1.50D-12
 IDIUse=1 WtCom= 1.00D+00 WtEn= 0.00D+00
 Coeff-Com:  0.346D-05 0.146D-04 0.105D-05-0.101D-03-0.158D-03 0.261D-03
 Coeff-Com:  0.555D-03-0.152D-03-0.214D-03-0.241D-03-0.967D-04 0.428D-02
 Coeff-Com: -0.640D-02-0.782D-02-0.165D-01 0.356D-01 0.401D-01-0.164D+00
 Coeff-Com:  0.113D+00 0.100D+01
 Coeff:      0.346D-05 0.146D-04 0.105D-05-0.101D-03-0.158D-03 0.261D-03
 Coeff:      0.555D-03-0.152D-03-0.214D-03-0.241D-03-0.967D-04 0.428D-02
 Coeff:     -0.640D-02-0.782D-02-0.165D-01 0.356D-01 0.401D-01-0.164D+00
 Coeff:      0.113D+00 0.100D+01
 Gap=     0.374 Goal=   None    Shift=    0.000
 Gap=     0.256 Goal=   None    Shift=    0.000
 RMSDP=2.14D-08 MaxDP=6.49D-07 DE=-4.55D-13 OVMax= 3.28D-06

 Cycle  38  Pass 1  IDiag  1:
 RMSU=  4.52D-10    CP:  9.98D-01  3.00D+00  3.00D+00  3.00D+00  3.00D+00
                    CP:  3.00D+00  3.00D+00  2.05D+00  1.22D+00  9.85D-01
                    CP:  9.82D-01  1.48D+00  1.91D+00  1.72D+00  1.79D+00
                    CP:  1.27D+00  1.02D+00
 E= -232.942712566910     Delta-E=       -0.000000000001 Rises=F Damp=F
 DIIS: error= 6.73D-08 at cycle  38 NSaved=  20.
 NSaved=20 IEnMin=20 EnMin= -232.942712566910     IErMin=17 ErrMin= 3.27D-08
 ErrMax= 6.73D-08  0.00D+00 EMaxC= 1.00D-01 BMatC= 3.70D-12 BMatP= 1.50D-12
 IDIUse=1 WtCom= 1.00D+00 WtEn= 0.00D+00
 Coeff-Com:  0.425D-05-0.634D-07-0.326D-04-0.350D-04 0.137D-03 0.425D-04
 Coeff-Com: -0.123D-03-0.151D-03 0.237D-03 0.163D-04 0.645D-03-0.125D-02
 Coeff-Com: -0.211D-02-0.356D-02 0.148D-01 0.114D-01-0.600D-01-0.537D-01
 Coeff-Com:  0.401D+00 0.692D+00
 Coeff:      0.425D-05-0.634D-07-0.326D-04-0.350D-04 0.137D-03 0.425D-04
 Coeff:     -0.123D-03-0.151D-03 0.237D-03 0.163D-04 0.645D-03-0.125D-02
 Coeff:     -0.211D-02-0.356D-02 0.148D-01 0.114D-01-0.600D-01-0.537D-01
 Coeff:      0.401D+00 0.692D+00
 Gap=     0.374 Goal=   None    Shift=    0.000
 Gap=     0.256 Goal=   None    Shift=    0.000
 RMSDP=7.80D-09 MaxDP=3.29D-07 DE=-1.36D-12 OVMax= 1.89D-06

 SCF Done:  E(UM062X) =  -232.942712567     A.U. after   38 cycles
            NFock= 38  Conv=0.78D-08     -V/T= 2.0053
 <Sx>= 0.0000 <Sy>= 0.0000 <Sz>= 0.5000 <S**2>= 0.7546 S= 0.5023
 <L.S>= 0.000000000000E+00
 KE= 2.317173446288D+02 PE=-9.010077536991D+02 EE= 2.571069090110D+02
 Annihilation of the first spin contaminant:
 S**2 before annihilation     0.7546,   after     0.7500
 Leave Link  502 at Sat Mar  9 00:05:33 2019, MaxMem=   671088640 cpu:            4592.6 elap:             229.7
 (Enter /shared/centos7/gaussian/g16/l801.exe)
 DoSCS=F DFT=T ScalE2(SS,OS)=  1.000000  1.000000
 Range of M.O.s used for correlation:     1   251
 NBasis=   251 NAE=    21 NBE=    20 NFC=     0 NFV=     0
 NROrb=    251 NOA=    21 NOB=    20 NVA=   230 NVB=   231

 **** Warning!!: The largest alpha MO coefficient is  0.39945503D+02


 **** Warning!!: The largest beta MO coefficient is  0.39082033D+02

 Leave Link  801 at Sat Mar  9 00:05:33 2019, MaxMem=   671088640 cpu:               1.2 elap:               0.1
 (Enter /shared/centos7/gaussian/g16/l1101.exe)
 Using compressed storage, NAtomX=    14.
 Will process     15 centers per pass.
 Leave Link 1101 at Sat Mar  9 00:05:34 2019, MaxMem=   671088640 cpu:              10.5 elap:               0.6
 (Enter /shared/centos7/gaussian/g16/l1102.exe)
 Symmetrizing basis deriv contribution to polar:
 IMax=3 JMax=2 DiffMx= 0.00D+00
 Leave Link 1102 at Sat Mar  9 00:05:34 2019, MaxMem=   671088640 cpu:               1.8 elap:               0.2
 (Enter /shared/centos7/gaussian/g16/l1110.exe)
 Forming Gx(P) for the SCF density, NAtomX=    14.
 Integral derivatives from FoFJK, PRISM(SPDF).
 Do as many integral derivatives as possible in FoFJK.
 G2DrvN: MDV=     671087496.
 G2DrvN: will do    15 centers at a time, making    1 passes.
 Calling FoFCou, ICntrl=  3107 FMM=F I1Cent=   0 AccDes= 0.00D+00.
 FoFJK:  IHMeth= 1 ICntrl=    3107 DoSepK=F KAlg= 0 I1Cent=           0 FoldK=F
 IRaf=         0 NMat=       1 IRICut=       1 DoRegI=T DoRafI=F ISym2E= 0 IDoP0=0 IntGTp=1.
 FoFCou: FMM=F IPFlag=           0 FMFlag=      100000 FMFlg1=           0
         NFxFlg=           0 DoJE=F BraDBF=F KetDBF=F FulRan=T
         wScrn=  0.000000 ICntrl=      3107 IOpCl=  1 I1Cent=           0 NGrid=           0
         NMat0=    1 NMatS0=      1 NMatT0=    0 NMatD0=    1 NMtDS0=    0 NMtDT0=    0
 Symmetry not used in FoFCou.
 End of G2Drv F.D. properties file   721 does not exist.
 End of G2Drv F.D. properties file   722 does not exist.
 End of G2Drv F.D. properties file   788 does not exist.
 Leave Link 1110 at Sat Mar  9 00:08:21 2019, MaxMem=   671088640 cpu:            3332.2 elap:             166.7
 (Enter /shared/centos7/gaussian/g16/l1002.exe)
 Minotr:  UHF open shell wavefunction.
          IDoAtm=11111111111111
          Direct CPHF calculation.
          Differentiating once with respect to nuclear coordinates.
          Requested convergence is 1.0D-08 RMS, and 1.0D-07 maximum.
          Secondary convergence is 1.0D-12 RMS, and 1.0D-12 maximum.
          NewPWx=T KeepS1=F KeepF1=F KeepIn=T MapXYZ=F SortEE=F KeepMc=T.
         4250 words used for storage of precomputed grid.
 Two-electron integrals replicated using symmetry.
          MDV=     671088640 using IRadAn=       1.
          Solving linear equations simultaneously, MaxMat=     380.
 FoF2E skips out because all densities are zero.
 CalDSu exits because no D1Ps are significant.
 FoFJK:  IHMeth= 1 ICntrl=       0 DoSepK=F KAlg= 0 I1Cent=           0 FoldK=F
 IRaf= 980000000 NMat=      42 IRICut=     105 DoRegI=T DoRafI=T ISym2E= 2 IDoP0=3 IntGTp=3.
 FoFCou: FMM=F IPFlag=           0 FMFlag=      100000 FMFlg1=           0
         NFxFlg=           0 DoJE=F BraDBF=F KetDBF=F FulRan=T
         wScrn=  0.000000 ICntrl=         0 IOpCl=  1 I1Cent=           0 NGrid=           0
         NMat0=   42 NMatS0=     42 NMatT0=    0 NMatD0=   42 NMtDS0=    0 NMtDT0=    0
 Integrals replicated using symmetry in FoFCou.
 Raff kept on since  96.42% of shell-pairs survive, threshold=   0.20 IRatSp=96.
          There are    45 degrees of freedom in the 1st order CPHF.  IDoFFX=6 NUNeed=     0.
     39 vectors produced by pass  0 Test12= 2.10D-14 2.22D-09 XBig12= 1.19D-01 1.07D-01.
 AX will form    39 AO Fock derivatives at one time.
     39 vectors produced by pass  1 Test12= 2.10D-14 2.22D-09 XBig12= 7.98D-03 1.87D-02.
     39 vectors produced by pass  2 Test12= 2.10D-14 2.22D-09 XBig12= 8.88D-04 5.16D-03.
     39 vectors produced by pass  3 Test12= 2.10D-14 2.22D-09 XBig12= 8.81D-06 2.73D-04.
     39 vectors produced by pass  4 Test12= 2.10D-14 2.22D-09 XBig12= 1.08D-07 3.51D-05.
     39 vectors produced by pass  5 Test12= 2.10D-14 2.22D-09 XBig12= 1.43D-09 3.05D-06.
     34 vectors produced by pass  6 Test12= 2.10D-14 2.22D-09 XBig12= 1.02D-11 2.42D-07.
     13 vectors produced by pass  7 Test12= 2.10D-14 2.22D-09 XBig12= 5.85D-14 1.99D-08.
 InvSVY:  IOpt=1 It=  1 EMax= 1.67D-15
 Solved reduced A of dimension   281 with    39 vectors.
 End of Minotr F.D. properties file   721 does not exist.
 End of Minotr F.D. properties file   722 does not exist.
 End of Minotr F.D. properties file   788 does not exist.
 Leave Link 1002 at Sat Mar  9 00:12:51 2019, MaxMem=   671088640 cpu:            5385.1 elap:             269.3
 (Enter /shared/centos7/gaussian/g16/l601.exe)
 Copying SCF densities to generalized density rwf, IOpCl= 1 IROHF=0.

 **********************************************************************

            Population analysis using the SCF density.

 **********************************************************************

 Orbital symmetries:
 Alpha Orbitals:
       Occupied  (A) (A) (A) (A) (A) (A) (A) (A) (A) (A) (A) (A)
                 (A) (A) (A) (A) (A) (A) (A) (A) (A)
       Virtual   (A) (A) (A) (A) (A) (A) (A) (A) (A) (A) (A) (A)
                 (A) (A) (A) (A) (A) (A) (A) (A) (A) (A) (A) (A)
                 (A) (A) (A) (A) (A) (A) (A) (A) (A) (A) (A) (A)
                 (A) (A) (A) (A) (A) (A) (A) (A) (A) (A) (A) (A)
                 (A) (A) (A) (A) (A) (A) (A) (A) (A) (A) (A) (A)
                 (A) (A) (A) (A) (A) (A) (A) (A) (A) (A) (A) (A)
                 (A) (A) (A) (A) (A) (A) (A) (A) (A) (A) (A) (A)
                 (A) (A) (A) (A) (A) (A) (A) (A) (A) (A) (A) (A)
                 (A) (A) (A) (A) (A) (A) (A) (A) (A) (A) (A) (A)
                 (A) (A) (A) (A) (A) (A) (A) (A) (A) (A) (A) (A)
                 (A) (A) (A) (A) (A) (A) (A) (A) (A) (A) (A) (A)
                 (A) (A) (A) (A) (A) (A) (A) (A) (A) (A) (A) (A)
                 (A) (A) (A) (A) (A) (A) (A) (A) (A) (A) (A) (A)
                 (A) (A) (A) (A) (A) (A) (A) (A) (A) (A) (A) (A)
                 (A) (A) (A) (A) (A) (A) (A) (A) (A) (A) (A) (A)
                 (A) (A) (A) (A) (A) (A) (A) (A) (A) (A) (A) (A)
                 (A) (A) (A) (A) (A) (A) (A) (A) (A) (A) (A) (A)
                 (A) (A) (A) (A) (A) (A) (A) (A) (A) (A) (A) (A)
                 (A) (A) (A) (A) (A) (A) (A) (A) (A) (A) (A) (A)
                 (A) (A)
 Beta  Orbitals:
       Occupied  (A) (A) (A) (A) (A) (A) (A) (A) (A) (A) (A) (A)
                 (A) (A) (A) (A) (A) (A) (A) (A)
       Virtual   (A) (A) (A) (A) (A) (A) (A) (A) (A) (A) (A) (A)
                 (A) (A) (A) (A) (A) (A) (A) (A) (A) (A) (A) (A)
                 (A) (A) (A) (A) (A) (A) (A) (A) (A) (A) (A) (A)
                 (A) (A) (A) (A) (A) (A) (A) (A) (A) (A) (A) (A)
                 (A) (A) (A) (A) (A) (A) (A) (A) (A) (A) (A) (A)
                 (A) (A) (A) (A) (A) (A) (A) (A) (A) (A) (A) (A)
                 (A) (A) (A) (A) (A) (A) (A) (A) (A) (A) (A) (A)
                 (A) (A) (A) (A) (A) (A) (A) (A) (A) (A) (A) (A)
                 (A) (A) (A) (A) (A) (A) (A) (A) (A) (A) (A) (A)
                 (A) (A) (A) (A) (A) (A) (A) (A) (A) (A) (A) (A)
                 (A) (A) (A) (A) (A) (A) (A) (A) (A) (A) (A) (A)
                 (A) (A) (A) (A) (A) (A) (A) (A) (A) (A) (A) (A)
                 (A) (A) (A) (A) (A) (A) (A) (A) (A) (A) (A) (A)
                 (A) (A) (A) (A) (A) (A) (A) (A) (A) (A) (A) (A)
                 (A) (A) (A) (A) (A) (A) (A) (A) (A) (A) (A) (A)
                 (A) (A) (A) (A) (A) (A) (A) (A) (A) (A) (A) (A)
                 (A) (A) (A) (A) (A) (A) (A) (A) (A) (A) (A) (A)
                 (A) (A) (A) (A) (A) (A) (A) (A) (A) (A) (A) (A)
                 (A) (A) (A) (A) (A) (A) (A) (A) (A) (A) (A) (A)
                 (A) (A) (A)
 The electronic state is 2-A.
 Alpha  occ. eigenvalues --  -19.66613 -10.59752 -10.55310 -10.54851 -10.54124
 Alpha  occ. eigenvalues --   -1.14476  -0.91222  -0.80767  -0.72692  -0.65558
 Alpha  occ. eigenvalues --   -0.57170  -0.54587  -0.52789  -0.50702  -0.47767
 Alpha  occ. eigenvalues --   -0.45822  -0.44122  -0.41290  -0.39730  -0.36721
 Alpha  occ. eigenvalues --   -0.36103
 Alpha virt. eigenvalues --    0.01282   0.02450   0.03066   0.03565   0.06082
 Alpha virt. eigenvalues --    0.06321   0.06590   0.07142   0.07324   0.10131
 Alpha virt. eigenvalues --    0.10622   0.11315   0.11838   0.12264   0.13858
 Alpha virt. eigenvalues --    0.15209   0.16742   0.18629   0.20971   0.21992
 Alpha virt. eigenvalues --    0.23115   0.24697   0.24990   0.25814   0.25907
 Alpha virt. eigenvalues --    0.27012   0.27349   0.29603   0.30287   0.31163
 Alpha virt. eigenvalues --    0.32326   0.33548   0.37506   0.40581   0.42072
 Alpha virt. eigenvalues --    0.43710   0.44500   0.46443   0.48250   0.50294
 Alpha virt. eigenvalues --    0.50609   0.52708   0.54444   0.55905   0.57903
 Alpha virt. eigenvalues --    0.58243   0.58758   0.59588   0.60470   0.62531
 Alpha virt. eigenvalues --    0.63502   0.66279   0.66656   0.67521   0.68103
 Alpha virt. eigenvalues --    0.71316   0.74956   0.78649   0.81571   0.82549
 Alpha virt. eigenvalues --    0.85853   0.86163   0.87676   0.90443   0.95709
 Alpha virt. eigenvalues --    0.98737   1.01023   1.02160   1.04833   1.07320
 Alpha virt. eigenvalues --    1.08973   1.12228   1.13188   1.14582   1.15472
 Alpha virt. eigenvalues --    1.16154   1.17942   1.19054   1.19666   1.20766
 Alpha virt. eigenvalues --    1.22740   1.24852   1.25508   1.28269   1.30820
 Alpha virt. eigenvalues --    1.31601   1.33446   1.34806   1.35847   1.36805
 Alpha virt. eigenvalues --    1.39132   1.40332   1.41658   1.45043   1.46136
 Alpha virt. eigenvalues --    1.47413   1.48038   1.49485   1.51311   1.52250
 Alpha virt. eigenvalues --    1.54178   1.57003   1.60318   1.60883   1.64440
 Alpha virt. eigenvalues --    1.66054   1.67301   1.73520   1.78092   1.81143
 Alpha virt. eigenvalues --    1.88004   2.04097   2.16696   2.35100   2.40936
 Alpha virt. eigenvalues --    2.44416   2.46965   2.54726   2.56974   2.62442
 Alpha virt. eigenvalues --    2.65282   2.68596   2.73660   2.79095   2.80765
 Alpha virt. eigenvalues --    2.82061   2.84081   2.85360   2.88361   2.91472
 Alpha virt. eigenvalues --    2.95382   2.97836   3.00733   3.03829   3.04742
 Alpha virt. eigenvalues --    3.10455   3.12552   3.15434   3.16443   3.19595
 Alpha virt. eigenvalues --    3.22765   3.24422   3.27890   3.29057   3.30179
 Alpha virt. eigenvalues --    3.31721   3.35985   3.36908   3.37949   3.41345
 Alpha virt. eigenvalues --    3.44143   3.52021   3.52290   3.56236   3.58216
 Alpha virt. eigenvalues --    3.60708   3.63116   3.66109   3.68451   3.69197
 Alpha virt. eigenvalues --    3.69994   3.70727   3.75638   3.78483   3.79773
 Alpha virt. eigenvalues --    3.83229   3.86586   3.88872   3.92229   3.94375
 Alpha virt. eigenvalues --    3.96205   3.97120   3.97983   4.02057   4.05715
 Alpha virt. eigenvalues --    4.07959   4.13064   4.14288   4.15006   4.16905
 Alpha virt. eigenvalues --    4.17929   4.20083   4.24347   4.26223   4.29295
 Alpha virt. eigenvalues --    4.30192   4.33421   4.36329   4.38491   4.42108
 Alpha virt. eigenvalues --    4.43575   4.48865   4.52725   4.54123   4.56477
 Alpha virt. eigenvalues --    4.59906   4.62350   4.64902   4.66900   4.72906
 Alpha virt. eigenvalues --    4.92112   5.04471   5.07214   5.11324   5.17132
 Alpha virt. eigenvalues --    5.18895   5.23067   5.27673   5.36325   5.37170
 Alpha virt. eigenvalues --    5.40628   5.42481   5.44809   5.47630   5.52021
 Alpha virt. eigenvalues --    5.54252   5.57230   5.81342   5.86392   6.53696
 Alpha virt. eigenvalues --    6.77110   6.78022   7.18685   7.22325   7.52147
 Alpha virt. eigenvalues --   24.18309  24.26800  24.34770  24.42916  50.06007
  Beta  occ. eigenvalues --  -19.65109 -10.59806 -10.55226 -10.54847 -10.54116
  Beta  occ. eigenvalues --   -1.08342  -0.90774  -0.80003  -0.71747  -0.65020
  Beta  occ. eigenvalues --   -0.55891  -0.53624  -0.51194  -0.47670  -0.46249
  Beta  occ. eigenvalues --   -0.45166  -0.41324  -0.39859  -0.39336  -0.33715
  Beta virt. eigenvalues --   -0.08092   0.01320   0.02482   0.03095   0.03577
  Beta virt. eigenvalues --    0.06114   0.06485   0.06630   0.07105   0.07421
  Beta virt. eigenvalues --    0.10290   0.10660   0.11373   0.11870   0.12387
  Beta virt. eigenvalues --    0.13860   0.15285   0.16944   0.18752   0.21129
  Beta virt. eigenvalues --    0.22037   0.23149   0.24737   0.25183   0.25916
  Beta virt. eigenvalues --    0.26044   0.27369   0.27854   0.29462   0.30462
  Beta virt. eigenvalues --    0.31238   0.32466   0.33668   0.37156   0.40599
  Beta virt. eigenvalues --    0.42086   0.43744   0.44577   0.46535   0.48351
  Beta virt. eigenvalues --    0.50514   0.50787   0.52778   0.54540   0.56037
  Beta virt. eigenvalues --    0.57937   0.58318   0.58790   0.59676   0.60529
  Beta virt. eigenvalues --    0.62581   0.63510   0.66420   0.66719   0.67683
  Beta virt. eigenvalues --    0.68111   0.71526   0.75033   0.78677   0.81637
  Beta virt. eigenvalues --    0.82502   0.85738   0.86177   0.87828   0.90608
  Beta virt. eigenvalues --    0.95777   0.98961   1.01082   1.02267   1.04977
  Beta virt. eigenvalues --    1.07445   1.09581   1.12593   1.13953   1.14907
  Beta virt. eigenvalues --    1.15646   1.16678   1.18317   1.19158   1.20416
  Beta virt. eigenvalues --    1.21009   1.23157   1.24982   1.25809   1.28492
  Beta virt. eigenvalues --    1.30990   1.31811   1.33472   1.34963   1.35899
  Beta virt. eigenvalues --    1.36978   1.39424   1.40583   1.41706   1.45182
  Beta virt. eigenvalues --    1.46279   1.47719   1.48383   1.49804   1.51616
  Beta virt. eigenvalues --    1.52524   1.54407   1.57341   1.60421   1.61334
  Beta virt. eigenvalues --    1.64444   1.66863   1.68206   1.75291   1.78552
  Beta virt. eigenvalues --    1.82619   1.89256   2.05142   2.17707   2.36213
  Beta virt. eigenvalues --    2.41019   2.44869   2.47018   2.54723   2.57074
  Beta virt. eigenvalues --    2.62439   2.65355   2.68703   2.73685   2.79194
  Beta virt. eigenvalues --    2.80692   2.82079   2.83963   2.85554   2.88433
  Beta virt. eigenvalues --    2.91347   2.95437   2.97857   3.00746   3.03857
  Beta virt. eigenvalues --    3.04647   3.10408   3.12311   3.15441   3.16454
  Beta virt. eigenvalues --    3.19418   3.22605   3.24391   3.27945   3.29106
  Beta virt. eigenvalues --    3.30209   3.31662   3.35969   3.36882   3.37901
  Beta virt. eigenvalues --    3.41442   3.44247   3.51443   3.52168   3.56191
  Beta virt. eigenvalues --    3.58254   3.60689   3.62585   3.66157   3.68523
  Beta virt. eigenvalues --    3.69017   3.70210   3.70718   3.75524   3.78546
  Beta virt. eigenvalues --    3.79719   3.83171   3.86605   3.88871   3.92225
  Beta virt. eigenvalues --    3.94373   3.96193   3.97180   3.97998   4.02034
  Beta virt. eigenvalues --    4.05625   4.07948   4.13049   4.14226   4.14929
  Beta virt. eigenvalues --    4.16892   4.17986   4.20122   4.24296   4.26157
  Beta virt. eigenvalues --    4.29294   4.30040   4.33367   4.36201   4.38436
  Beta virt. eigenvalues --    4.41989   4.43566   4.48867   4.52819   4.54168
  Beta virt. eigenvalues --    4.56528   4.59942   4.62230   4.64894   4.67110
  Beta virt. eigenvalues --    4.72895   4.92679   5.09053   5.10787   5.14749
  Beta virt. eigenvalues --    5.18359   5.23816   5.25043   5.28879   5.36366
  Beta virt. eigenvalues --    5.38977   5.40949   5.43006   5.45175   5.47739
  Beta virt. eigenvalues --    5.52138   5.54412   5.57378   5.84451   5.87963
  Beta virt. eigenvalues --    6.54627   6.90280   6.91399   7.25334   7.32064
  Beta virt. eigenvalues --    7.56785  24.18318  24.26772  24.34604  24.42927
  Beta virt. eigenvalues --   50.05624
          Condensed to atoms (all electrons):
               1          2          3          4          5          6
     1  O    8.129653   0.024755  -0.098364  -0.005638   0.215713  -0.000302
     2  C    0.024755   5.346807   0.099345   0.089561  -0.032743   0.430229
     3  C   -0.098364   0.099345   5.368087  -0.041380   0.171241  -0.050246
     4  C   -0.005638   0.089561  -0.041380   5.239297   0.017734  -0.029686
     5  C    0.215713  -0.032743   0.171241   0.017734   5.090854   0.015319
     6  H   -0.000302   0.430229  -0.050246  -0.029686   0.015319   0.533429
     7  H   -0.000215   0.460366  -0.011505  -0.063574  -0.027492  -0.026687
     8  H    0.001380  -0.039499   0.423227   0.013902  -0.029476  -0.004522
     9  H   -0.001889  -0.012870   0.465516  -0.020214  -0.066697  -0.007868
    10  H   -0.000026  -0.055368   0.024313   0.419734  -0.000764  -0.001760
    11  H    0.000121  -0.014975  -0.012167   0.411692  -0.003066  -0.011312
    12  H    0.000550  -0.032994  -0.018109   0.407787  -0.003152   0.006701
    13  H   -0.045738   0.012077  -0.031441  -0.007670   0.424496  -0.000265
    14  H   -0.030626  -0.004568  -0.037131  -0.015993   0.422665  -0.000173
               7          8          9         10         11         12
     1  O   -0.000215   0.001380  -0.001889  -0.000026   0.000121   0.000550
     2  C    0.460366  -0.039499  -0.012870  -0.055368  -0.014975  -0.032994
     3  C   -0.011505   0.423227   0.465516   0.024313  -0.012167  -0.018109
     4  C   -0.063574   0.013902  -0.020214   0.419734   0.411692   0.407787
     5  C   -0.027492  -0.029476  -0.066697  -0.000764  -0.003066  -0.003152
     6  H   -0.026687  -0.004522  -0.007868  -0.001760  -0.011312   0.006701
     7  H    0.518757  -0.007437   0.004345  -0.007722   0.005754  -0.003257
     8  H   -0.007437   0.518938  -0.025025  -0.000216  -0.000046  -0.000140
     9  H    0.004345  -0.025025   0.484402  -0.000179   0.001049  -0.000638
    10  H   -0.007722  -0.000216  -0.000179   0.534733  -0.021957  -0.027879
    11  H    0.005754  -0.000046   0.001049  -0.021957   0.533584  -0.033764
    12  H   -0.003257  -0.000140  -0.000638  -0.027879  -0.033764   0.583250
    13  H   -0.000503  -0.011805   0.004700  -0.000067  -0.000085   0.000606
    14  H   -0.000378   0.005938  -0.004240   0.000640   0.001050   0.002019
              13         14
     1  O   -0.045738  -0.030626
     2  C    0.012077  -0.004568
     3  C   -0.031441  -0.037131
     4  C   -0.007670  -0.015993
     5  C    0.424496   0.422665
     6  H   -0.000265  -0.000173
     7  H   -0.000503  -0.000378
     8  H   -0.011805   0.005938
     9  H    0.004700  -0.004240
    10  H   -0.000067   0.000640
    11  H   -0.000085   0.001050
    12  H    0.000606   0.002019
    13  H    0.570352  -0.046206
    14  H   -0.046206   0.558227
          Atomic-Atomic Spin Densities.
               1          2          3          4          5          6
     1  O    0.954430   0.006903  -0.008481  -0.000961  -0.037203  -0.000177
     2  C    0.006903   0.052878  -0.046701  -0.005027  -0.001241  -0.006375
     3  C   -0.008481  -0.046701   0.114511   0.001128   0.018702   0.006369
     4  C   -0.000961  -0.005027   0.001128   0.013820   0.000568  -0.000981
     5  C   -0.037203  -0.001241   0.018702   0.000568  -0.055048  -0.001173
[...]
 ! D2    D(4,2,3,8)            176.6383         -DE/DX =    0.0                 !
 ! D3    D(4,2,3,9)             58.7413         -DE/DX =    0.0                 !
 ! D4    D(6,2,3,5)            175.2284         -DE/DX =    0.0                 !
 ! D5    D(6,2,3,8)             54.8065         -DE/DX =    0.0                 !
 ! D6    D(6,2,3,9)            -63.0906         -DE/DX =    0.0                 !
 ! D7    D(7,2,3,5)             59.6878         -DE/DX =    0.0                 !
 ! D8    D(7,2,3,8)            -60.7341         -DE/DX =    0.0                 !
 ! D9    D(7,2,3,9)           -178.6311         -DE/DX =    0.0                 !
 ! D10   D(3,2,4,10)          -174.3559         -DE/DX =    0.0                 !
 ! D11   D(3,2,4,11)           -54.4318         -DE/DX =    0.0                 !
 ! D12   D(3,2,4,12)            65.7772         -DE/DX =    0.0                 !
 ! D13   D(6,2,4,10)           -52.8952         -DE/DX =    0.0                 !
 ! D14   D(6,2,4,11)            67.0289         -DE/DX =    0.0                 !
 ! D15   D(6,2,4,12)          -172.762          -DE/DX =    0.0                 !
 ! D16   D(7,2,4,10)            63.1727         -DE/DX =    0.0                 !
 ! D17   D(7,2,4,11)          -176.9032         -DE/DX =    0.0                 !
 ! D18   D(7,2,4,12)           -56.6942         -DE/DX =    0.0                 !
 ! D19   D(2,3,5,1)           -177.4343         -DE/DX =    0.0                 !
 ! D20   D(2,3,5,13)           -50.1528         -DE/DX =    0.0                 !
 ! D21   D(2,3,5,14)            66.233          -DE/DX =    0.0                 !
 ! D22   D(8,3,5,1)            -55.8677         -DE/DX =    0.0                 !
 ! D23   D(8,3,5,13)            71.4138         -DE/DX =    0.0                 !
 ! D24   D(8,3,5,14)          -172.2003         -DE/DX =    0.0                 !
 ! D25   D(9,3,5,1)             59.8987         -DE/DX =    0.0                 !
 ! D26   D(9,3,5,13)          -172.8198         -DE/DX =    0.0                 !
 ! D27   D(9,3,5,14)           -56.4339         -DE/DX =    0.0                 !
 --------------------------------------------------------------------------------
 GradGradGradGradGradGradGradGradGradGradGradGradGradGradGradGradGradGrad

 Leave Link  103 at Sat Mar  9 01:05:33 2019, MaxMem=   671088640 cpu:               0.5 elap:               0.1
 (Enter /shared/centos7/gaussian/g16/l9999.exe)

 ----------------------------------------------------------------------

 Electric dipole moment (input orientation):
 (Debye = 10**-18 statcoulomb cm , SI units = C m)
                  (au)            (Debye)         (10**-30 SI)
   Tot        0.911662D+00      0.231721D+01      0.772940D+01
   x          0.862972D+00      0.219346D+01      0.731658D+01
   y          0.289411D+00      0.735609D+00      0.245373D+01
   z         -0.514701D-01     -0.130824D+00     -0.436382D+00

 Dipole polarizability, Alpha (input orientation).
 (esu units = cm**3 , SI units = C**2 m**2 J**-1)
 Alpha(0;0):
               (au)            (10**-24 esu)      (10**-40 SI)
   iso        0.540745D+02      0.801301D+01      0.891567D+01
   aniso      0.134379D+02      0.199129D+01      0.221561D+01
   xx         0.597915D+02      0.886018D+01      0.985828D+01
   yx         0.522406D+01      0.774125D+00      0.861331D+00
   yy         0.515031D+02      0.763198D+01      0.849172D+01
   zx        -0.287492D+01     -0.426019D+00     -0.474010D+00
   zy        -0.202459D+00     -0.300013D-01     -0.333810D-01
   zz         0.509288D+02      0.754687D+01      0.839702D+01

 ----------------------------------------------------------------------

 Dipole orientation:
     8         -1.46701412         -1.06812637         -5.59391899
     6          0.38023329         -1.70236990          1.25277697
     6          0.76377639         -1.45870884         -1.59649764
     6         -0.83294275          0.62589196          2.44667601
     6         -1.72129536         -1.18670075         -3.03000750
     1          2.20886040         -2.05014680          2.13834775
     1         -0.77772835         -3.36731893          1.64726673
     1          1.73586271         -3.12684139         -2.32079536
     1          1.95596320          0.17025410         -2.02584721
     1         -0.90416579          0.45860891          4.49669160
     1          0.24007381          2.32605273          1.98729847
     1         -2.76539668          0.90489553          1.78810904
     1         -3.09168832         -2.65341795         -2.48282829
     1         -2.64419118          0.62390711         -2.54316916

 Electric dipole moment (dipole orientation):
 (Debye = 10**-18 statcoulomb cm , SI units = C m)
                  (au)            (Debye)         (10**-30 SI)
   Tot        0.911662D+00      0.231721D+01      0.772940D+01
   x          0.000000D+00      0.000000D+00      0.000000D+00
   y          0.000000D+00      0.000000D+00      0.000000D+00
   z          0.911662D+00      0.231721D+01      0.772940D+01

 Dipole polarizability, Alpha (dipole orientation).
 (esu units = cm**3 , SI units = C**2 m**2 J**-1)
 Alpha(0;0):
               (au)            (10**-24 esu)      (10**-40 SI)
   iso        0.540745D+02      0.801301D+01      0.891567D+01
   aniso      0.134379D+02      0.199129D+01      0.221561D+01
   xx         0.509939D+02      0.755652D+01      0.840776D+01
   yx        -0.210730D+00     -0.312269D-01     -0.347446D-01
   yy         0.488473D+02      0.723842D+01      0.805383D+01
   zx         0.151433D+01      0.224401D+00      0.249680D+00
   zy         0.222256D+01      0.329350D+00      0.366451D+00
   zz         0.623821D+02      0.924408D+01      0.102854D+02

 ----------------------------------------------------------------------

 Test job not archived.
 1\1\GINC-C0274\Freq\UM062X\6-311+G(2df,2p)\C4H9O1(2)\UNDERKOFFLER.C\09
 -Mar-2019\0\\#P Geom=AllCheck Guess=TCheck SCRF=Check Test GenChk UM06
 2X/6-311+G(2df,2p) Freq\\Gaussian input prepared by ASE\\0,2\O,-2.6611
 494297,-1.197337452,1.0814066133\C,0.9245693823,-0.6582660907,0.058087
 5942\C,-0.5335198067,-1.0863849881,-0.089842349\C,1.0979002342,0.84722
 5591,0.2389932293\C,-1.3636399172,-0.7798181529,1.1520996691\H,1.47549
 80389,-0.9820614866,-0.8259330804\H,1.3719200545,-1.1837926773,0.90603
 55057\H,-0.5892970472,-2.1603422882,-0.2749070854\H,-0.9913555679,-0.5
 894916115,-0.9478473963\H,2.1510780873,1.1245421509,0.2415254274\H,0.6
 098487453,1.3928107946,-0.5703810519\H,0.6695052985,1.1941471492,1.179
 7935122\H,-0.8788732867,-1.150197288,2.0685949661\H,-1.4495106211,0.31
 33003276,1.2956841598\\Version=EM64L-G16RevA.03\State=2-A\HF=-232.9573
 321\S2=0.754377\S2-1=0.\S2A=0.750014\RMSD=4.133e-09\RMSF=1.813e-06\Zer
 oPoint=0.1235164\Thermal=0.1299657\Dipole=0.862972,0.2894107,-0.051470
 1\DipoleDeriv=-0.357212,0.1193732,0.0682338,0.0623079,-0.2207958,-0.05
 59291,-0.0004083,-0.0384174,-0.1121677,0.099649,0.0098011,0.0075718,0.
 0423068,0.1374395,-0.0293796,0.0547604,0.0155944,0.0278005,-0.003098,-
 0.0332762,0.0864065,0.0613233,0.0934345,-0.0738516,-0.01675,-0.0847428
 ,0.170278,0.0143774,-0.0388448,0.0114929,-0.0390616,-0.0186663,-0.0081
 004,-0.0205358,-0.0282512,0.0914094,0.3275159,-0.1552953,-0.0605786,-0
 .3393853,0.0929883,0.0831666,0.0375679,0.0593348,-0.1317665,-0.0455153
 ,0.0065954,0.1002972,-0.0027197,-0.0040661,-0.0366251,0.0930514,-0.069
 0056,-0.0574591,0.0018067,0.0140484,-0.0481686,0.0195624,-0.0425746,0.
 0663745,-0.0964548,0.0825361,-0.0563698,0.0064119,-0.0351654,0.0064843
 ,-0.023621,-0.1239805,-0.0523541,0.0398649,-0.0110647,0.0318075,-0.011
 549,0.0231189,-0.0434551,0.045698,0.0202481,0.086069,-0.036853,0.04930
 99,-0.068394,-0.1273594,-0.084177,-0.0009831,-0.0505115,0.0151015,-0.0
 020855,0.007407,0.0013345,0.0721881,0.0242022,0.0632294,-0.0780182,0.0
 21159,-0.014938,0.0374645,-0.0657931,0.078758,-0.0453343,0.0320267,0.0
 412001,0.0825484,0.02037,0.0072741,-0.0239618,0.0804034,-0.0567984,-0.
 0913381,-0.0032032,0.035497,-0.1736769,0.0802279,0.0559259,0.0696918,-
 0.0476232,0.0338277,-0.0303907,0.0419472,0.0338951,0.0418456,0.1023437
 ,0.0026093,-0.0604791,-0.0286368,-0.0324153,0.1997368\Polar=59.7914825
 ,5.2240576,51.5031278,-2.874917,-0.202459,50.9287859\Quadrupole=-3.320
 6985,1.6483578,1.6723407,-1.8395111,0.7241952,0.2829203\PG=C01 [X(C4H9
 O1)]\NImag=0\\0.33620488,0.08723094,0.05556002,0.01257905,0.01175690,0
 .03505331,-0.00082517,0.00022248,0.00246788,0.50510273,0.00249245,0.00
 033664,-0.00149164,-0.03917451,0.49667565,0.00650041,-0.00234761,0.000
 26583,-0.01492304,-0.01265942,0.59543025,-0.04302032,0.00062349,0.0250
 7833,-0.18439069,-0.02868844,-0.00926814,0.48091026,-0.01820184,-0.000
 88009,0.01441785,-0.02744285,-0.08824200,-0.00290184,-0.01460547,0.592
 45669,0.00927995,0.00786501,-0.00432116,-0.01208313,-0.00409799,-0.079
 09298,0.03832777,-0.01746998,0.52095138,0.00043998,0.00043503,-0.00083
 949,-0.08063644,-0.00830173,-0.00114869,-0.00483654,-0.03617062,-0.005
 04865,0.58057914,0.00122445,0.00037706,-0.00139014,-0.01012433,-0.1971
 3137,-0.01463378,-0.00657045,-0.01194209,-0.00160675,-0.00805226,0.479
 25795,0.00083700,0.00026197,-0.00086951,0.00047073,-0.01337930,-0.0824
 8336,-0.00159925,-0.00274187,-0.00092064,0.00037731,-0.00800949,0.5708
 4570,-0.25029989,-0.06051657,-0.01127402,-0.02405300,0.00571041,0.0249
 7968,-0.08866311,0.02327963,0.03519405,-0.00020895,-0.00086734,-0.0015
 7634,0.48565903,-0.03018061,-0.03740195,-0.00862858,-0.00371072,0.0023
 9904,0.01097204,0.01640085,-0.07795064,-0.03262691,-0.00126836,0.00011
 673,0.00030458,-0.04478558,0.45039090,-0.00036853,-0.01352726,-0.01888
 277,0.00144953,0.00129361,-0.00746269,0.05308801,-0.03446072,-0.133001
 78,0.00122364,0.00273105,0.00224876,0.01779196,0.00469638,0.39554229,-
 0.00241160,0.00045443,0.00012442,-0.11246595,0.03982680,0.10800935,-0.
 01978745,0.00854039,0.02682990,0.00202285,-0.00179496,-0.00427496,-0.0
 0360348,-0.00311133,-0.00003658,0.12471591,-0.00045370,0.00038585,-0.0
 0027385,0.03926313,-0.06867401,-0.06110742,-0.00515895,0.00210027,0.00
 785779,0.01590956,-0.01251734,-0.02928749,-0.00232529,-0.00025832,0.00
 115793,-0.03911478,0.07833377,-0.00031927,-0.00005057,-0.00042740,0.10
 815342,-0.06169393,-0.22499894,-0.00372499,0.00181294,0.00355752,0.000
 76399,-0.00135440,-0.00229319,-0.00051516,-0.00019412,0.00221350,-0.11
 716920,0.06909269,0.24093235,0.00010857,-0.00024299,0.00044023,-0.0897
 2765,0.04952578,-0.07964125,-0.01555736,0.01543648,-0.02638900,0.00172
 005,-0.00197102,0.00361947,0.00133146,0.00063934,-0.00150713,0.0068427
 6,-0.00849549,0.01268587,0.09936984,-0.00000232,-0.00012269,0.00019374
 ,0.04963159,-0.10521028,0.09520350,-0.00393376,0.00458251,-0.00799973,
 0.01349880,-0.01837147,0.02652811,0.00013929,0.00008398,-0.00065574,-0
 .00444558,0.00429251,-0.00705880,-0.05207965,0.11785709,-0.00021797,0.
 00014308,-0.00052564,-0.07994928,0.09628260,-0.20637677,-0.00246247,0.
 00088054,-0.00331919,0.00259326,-0.00306508,0.00443537,0.00133907,-0.0
 0086491,0.00215234,-0.01096531,0.01264293,-0.02149745,0.08980013,-0.10
 453726,0.22216766,0.00313481,0.00020491,-0.00023095,-0.00179550,-0.033
 67382,-0.00516604,-0.04604498,-0.01043039,-0.00322401,-0.00661553,-0.0
 0004136,-0.00051429,-0.00327508,0.01848470,0.00329888,0.00143627,0.000
 31351,0.00054462,0.00120265,0.00059974,-0.00034527,0.05363222,-0.00042
 052,0.00070338,0.00084995,0.00021798,-0.00732543,-0.00084628,-0.010456
 41,-0.30584517,-0.04070806,-0.00234829,0.00107053,0.00009928,0.0008628
 2,-0.00574092,-0.00268232,-0.00018831,0.00034608,0.00044673,-0.0002355
 8,0.00037195,-0.00028738,0.01300667,0.32989637,-0.00375655,-0.00015747
 ,0.00211920,-0.00076293,-0.00265988,-0.00168390,-0.00229157,-0.0411432
 1,-0.05500696,-0.00023476,0.00049808,0.00068350,0.00262254,-0.02753799
 ,-0.00846034,0.00006817,0.00056926,0.00018280,0.00020469,-0.00029368,0
 .00006411,-0.00020208,0.04698166,0.05923506,0.00159709,0.00037288,-0.0
 0137555,-0.01535709,0.01470113,-0.02607197,-0.09099510,0.05046390,-0.0
 8597292,0.00153195,0.00160090,0.00003184,0.00657593,-0.00874712,0.0162
 9657,0.00101688,0.00040102,0.00048976,-0.00577543,-0.00234269,-0.00022
 410,0.00030420,-0.00063421,0.00165690,0.10191858,-0.00054188,-0.000045
 94,-0.00004292,-0.00394870,0.00342016,-0.00748652,0.05073193,-0.106617
 25,0.09600108,-0.00019483,0.00138617,-0.00126192,-0.00305355,0.0026795
 7,-0.00640810,0.00066149,0.00005781,0.00011908,-0.00206169,0.00030074,
 -0.00092207,0.01324246,-0.01438465,0.02536834,-0.05530604,0.11134366,-
 0.00013914,-0.00030244,0.00282878,-0.00092172,0.00077147,-0.00102415,-
 0.08409359,0.09543406,-0.20771482,0.00034712,-0.00003700,0.00000499,-0
 .01232440,0.01255967,-0.02474370,-0.00042330,-0.00032637,0.00040814,0.
 00007566,0.00002215,0.00102972,0.00275841,-0.00232081,0.00460875,0.091
 83743,-0.10339238,0.22761856,-0.00000737,-0.00004194,-0.00001882,-0.00
 095803,0.00056395,-0.00001368,0.00126852,-0.00075351,-0.00001058,-0.30
 321544,-0.06405621,-0.00016734,0.00010726,0.00009053,-0.00011479,0.000
 51978,-0.00027437,-0.00036858,0.00013498,-0.00048686,0.00016648,-0.000
 27987,0.00000063,0.00013809,0.00021552,0.00013116,0.00014670,0.3270792
 3,-0.00042976,0.00018893,-0.00009032,-0.03364275,-0.00740278,-0.000328
 63,0.00122185,-0.00683092,-0.00058696,-0.06279448,-0.06179712,0.000573
 99,0.00095862,-0.00030633,-0.00004579,0.00023754,0.00160349,-0.0003181
 8,0.00032749,0.00097630,0.00068081,-0.00198220,-0.00058543,-0.00014116
 ,0.00012455,0.00006777,-0.00017656,0.07031969,0.06866193,-0.00028244,0
 .00002282,0.00021740,-0.00428862,-0.00089083,-0.00134612,-0.00009566,-
 0.00143862,0.00032281,0.00023087,0.00065479,-0.04704254,0.00063566,0.0
 0003114,-0.00036365,-0.00040569,0.00015573,0.00007794,0.00036446,0.000
 03246,-0.00002123,-0.00031276,-0.00030989,0.00032928,0.00042531,0.0000
 6780,0.00024398,-0.00009675,0.00098665,0.04658806,-0.00000434,0.000028
 71,-0.00006399,0.00092200,-0.00213432,0.00315542,0.00106345,-0.0006474
 9,0.00115585,-0.10154346,0.05848703,-0.08884958,0.00011267,0.00007499,
 0.00003032,-0.00019178,0.00045544,-0.00011218,0.00061975,-0.00126427,0
 .00030976,0.00005564,0.00008900,0.00002526,0.00027312,0.00017500,-0.00
 028181,-0.01309994,0.01588123,-0.02423539,0.10558092,-0.00014463,0.000
 01047,0.00001861,0.01460416,-0.01833563,0.02618905,0.00149270,0.001731
 26,0.00088882,0.05813163,-0.10896767,0.09630794,-0.00016979,0.00003381
 ,0.00007515,0.00031716,0.00116327,-0.00030775,-0.00106599,-0.00637933,
 -0.00161769,0.00015475,0.00042609,-0.00042733,-0.00098382,0.00010851,-
 0.00059382,-0.00298995,0.00356958,-0.00691391,-0.06364454,0.12204156,0
 .00017849,0.00000212,0.00006047,0.00219564,-0.00218264,0.00387458,0.00
 026913,-0.00014584,0.00049778,-0.08893054,0.09670477,-0.19664107,-0.00
 015125,0.00012567,-0.00007046,0.00028877,0.00055110,0.00050154,-0.0001
 9567,-0.00136018,0.00131175,0.00020959,-0.00007206,0.00012123,0.000372
 62,0.00040492,-0.00003776,0.00067663,-0.00139650,0.00048116,0.09854968
 ,-0.10622210,0.21049755,0.00032010,0.00015064,-0.00034611,0.00114981,-
 0.00034495,-0.00395875,0.00036650,0.00048144,-0.00081194,-0.08914567,0
 .03195588,0.09103341,-0.00100939,-0.00049092,0.00087446,0.00079313,-0.
 00082625,-0.00044891,-0.00001622,0.00047754,0.00018408,0.00004128,0.00
 011257,0.00019033,-0.00002684,-0.00005308,-0.00001958,-0.01196469,0.00
 981850,0.02844846,0.00614989,-0.00574283,-0.01350616,0.09477282,-0.000
 09631,0.00022683,-0.00012633,0.01468442,-0.01032863,-0.02998788,0.0005
 6402,0.00133754,-0.00018502,0.03184235,-0.07142521,-0.06935304,-0.0003
 5435,-0.00001478,0.00073356,-0.00140845,-0.00677265,-0.00050131,0.0003
 6258,0.00161563,0.00046698,0.00004126,0.00011509,0.00026520,-0.0001102
 1,-0.00006899,0.00003953,-0.00240094,0.00170477,0.00744655,-0.00778371
 ,0.00469599,0.01363463,-0.03448218,0.07914323,-0.00068266,0.00001093,0
 .00062395,0.00037765,-0.00060566,-0.00177766,0.00043182,-0.00043404,0.
 00003479,0.09109382,-0.07003527,-0.24789772,0.00143280,0.00015934,-0.0
 0114299,-0.00027880,-0.00021295,0.00159056,-0.00025195,-0.00040678,0.0
 0078565,-0.00019451,-0.00005625,0.00009238,0.00002913,-0.00000307,0.00
 003679,-0.00021298,0.00092277,0.00044094,0.01031290,-0.00735160,-0.020
 31038,-0.10160212,0.07763375,0.26699423,-0.03430503,-0.00154764,-0.018
 68879,0.00193811,-0.00090811,-0.00259197,0.01066849,-0.00891819,0.0216
 5227,0.00063158,0.00049916,0.00036802,-0.08471543,0.04631319,-0.102900
 67,0.00118094,0.00055639,0.00018915,-0.00005456,0.00016465,-0.00012421
 ,0.00006144,-0.00008055,-0.00117069,-0.00191813,0.00114304,0.00362097,
 0.00002473,0.00012410,-0.00015449,0.00002252,0.00013078,0.00000998,0.0
 0024721,0.00023079,-0.00047342,0.10248362,-0.01581712,0.00347245,-0.01
 381248,-0.00037894,0.00034430,0.00081958,-0.00339715,0.00382644,-0.007
 85420,-0.00014650,0.00011111,0.00024698,0.04454550,-0.07332576,0.07743
 603,-0.00026518,-0.00021374,-0.00003390,-0.00011589,0.00004510,0.00017
 545,-0.00050495,0.00023911,0.00019969,0.00056351,0.00086524,-0.0016158
 1,-0.00000846,-0.00003081,-0.00009830,0.00007803,0.00001667,-0.0001750
 0,0.00013738,-0.00030476,-0.00010463,-0.03859737,0.07815503,-0.0175233
 5,-0.00324726,-0.00365595,-0.00128214,0.00034131,0.00230695,-0.0135317
 0,0.01349300,-0.02683467,-0.00001018,-0.00017409,-0.00016211,-0.066231
 43,0.07201854,-0.19845191,-0.00044925,-0.00044030,0.00022984,0.0009826
 7,0.00005882,0.00022018,-0.00013094,-0.00043585,0.00098285,0.00321667,
 -0.00210288,-0.00392920,0.00003789,-0.00003367,0.00008252,-0.00007086,
 -0.00020774,0.00008228,-0.00000047,0.00011680,-0.00001683,0.09601620,-
 0.07910277,0.23277062,-0.01093172,-0.02737436,-0.00785218,0.00109687,0
 .00040534,0.00013867,-0.00098168,0.01896852,0.00110046,-0.00072352,-0.
 00028948,0.00024398,-0.03795802,0.01029103,0.01087434,-0.00006827,-0.0
 0025022,-0.00016855,-0.00019885,0.00004354,-0.00010418,-0.00185754,0.0
 0007421,0.00351258,0.00063933,-0.00092531,-0.00058275,0.00017532,-0.00
 016438,-0.00023295,0.00003956,-0.00008964,0.00003308,-0.00167792,-0.00
 108928,0.00001832,0.00373453,0.01390713,-0.00102309,0.04871192,-0.0246
 5914,-0.02281095,-0.00138078,-0.00020098,-0.00052568,-0.00088477,0.001
 77582,-0.00772656,0.00052289,-0.00054028,-0.00016728,-0.00028973,0.036
 57620,-0.26070533,-0.03034378,0.00029077,0.00015301,0.00004151,-0.0000
 2337,-0.00004207,0.00002199,0.00058472,0.00071302,-0.00152151,-0.00010
 381,0.00088720,-0.00006169,-0.00009373,0.00018061,0.00025361,0.0002049
 0,-0.00011458,0.00013111,-0.00119374,0.00007594,0.00048346,0.00088975,
 -0.01320039,-0.00028393,-0.01350709,0.30328305,-0.00608499,-0.00043023
 ,-0.01248650,-0.00090399,0.00097231,0.00436896,-0.00012769,-0.02530227
 ,-0.01515209,-0.00041768,-0.00028270,0.00009182,0.00807683,-0.03101484
 ,-0.00957659,-0.00131754,-0.00037905,-0.00047721,-0.00018819,0.0002733
 9,-0.00042652,0.00350936,-0.00065872,-0.00326796,-0.00071169,-0.000341
 37,0.00066991,-0.00016227,-0.00004645,-0.00001055,0.00007462,0.0001623
 7,-0.00036865,-0.00003672,-0.00018341,0.00054628,0.00424766,0.02391936
 ,-0.00362456,-0.00595772,0.03331161,0.03971365\\-0.00000061,0.00000408
 ,0.00000290,-0.00000078,-0.00000152,-0.00000087,-0.00000155,0.00000063
 ,0.00000078,0.00000170,-0.00000172,-0.00000138,0.00000005,0.00000236,0
 .00000109,-0.00000213,-0.00000256,-0.00000127,-0.00000077,-0.00000198,
 -0.00000113,-0.00000341,0.00000072,0.00000100,-0.00000167,0.00000117,0
 .00000101,0.00000209,-0.00000333,-0.00000246,0.00000172,-0.00000118,-0
 .00000104,0.00000310,-0.00000083,-0.00000104,0.00000033,0.00000175,0.0
 0000109,0.00000193,0.00000243,0.00000132\\\@


 LENDING MONEY TO FRIENDS CAUSES THEM TO LOSE THEIR MEMORIES.

    --  PETER'S THEORY OF RECIPROCAL INHIBITION OF FISCAL RECALL
 Job cpu time:       0 days  3 hours 26 minutes 45.5 seconds.
 Elapsed time:       0 days  0 hours 10 minutes 21.0 seconds.
 File lengths (MBytes):  RWF=   1376 Int=      0 D2E=      0 Chk=     32 Scr=     32
 Normal termination of Gaussian 16 at Sat Mar  9 01:05:34 2019.
