 Entering Gaussian System, Link 0=g16
 Input=QOOQLKSEGVNYLA-UHFFFAOYSA-N_72by10.0_tor12_a1.com
 Output=QOOQLKSEGVNYLA-UHFFFAOYSA-N_72by10.0_tor12_a1.log
 Initial command:
 /shared/centos7/gaussian/g16/l1.exe "/scratch/underkoffler.c/gaussian_scratch/Gau-34451.inp" -scrdir="/scratch/underkoffler.c/gaussian_scratch/"
 Entering Link 1 = /shared/centos7/gaussian/g16/l1.exe PID=     34452.
  
 Copyright (c) 1988,1990,1992,1993,1995,1998,2003,2009,2016,
            Gaussian, Inc.  All Rights Reserved.
  
 This is part of the Gaussian(R) 16 program.  It is based on
 the Gaussian(R) 09 system (copyright 2009, Gaussian, Inc.),
 the Gaussian(R) 03 system (copyright 2003, Gaussian, Inc.),
 the Gaussian(R) 98 system (copyright 1998, Gaussian, Inc.),
 the Gaussian(R) 94 system (copyright 1995, Gaussian, Inc.),
 the Gaussian 92(TM) system (copyright 1992, Gaussian, Inc.),
 the Gaussian 90(TM) system (copyright 1990, Gaussian, Inc.),
 the Gaussian 88(TM) system (copyright 1988, Gaussian, Inc.),
 the Gaussian 86(TM) system (copyright 1986, Carnegie Mellon
 University), and the Gaussian 82(TM) system (copyright 1983,
 Carnegie Mellon University). Gaussian is a federally registered
 trademark of Gaussian, Inc.
  
 This software contains proprietary and confidential information,
 including trade secrets, belonging to Gaussian, Inc.
  
 This software is provided under written license and may be
 used, copied, transmitted, or stored only in accord with that
 written license.
  
 The following legend is applicable only to US Government
 contracts under FAR:
  
                    RESTRICTED RIGHTS LEGEND
  
 Use, reproduction and disclosure by the US Government is
 subject to restrictions as set forth in subparagraphs (a)
 and (c) of the Commercial Computer Software - Restricted
 Rights clause in FAR 52.227-19.
  
 Gaussian, Inc.
 340 Quinnipiac St., Bldg. 40, Wallingford CT 06492
  
  
 ---------------------------------------------------------------
 Warning -- This program may not be used in any manner that
 competes with the business of Gaussian, Inc. or will provide
 assistance to any competitor of Gaussian, Inc.  The licensee
 of this program is prohibited from giving any competitor of
 Gaussian, Inc. access to this program.  By using this program,
 the user acknowledges that Gaussian, Inc. is engaged in the
 business of creating and licensing software in the field of
 computational chemistry and represents and warrants to the
 licensee that it is not a competitor of Gaussian, Inc. and that
 it will not use this program in any manner prohibited above.
 ---------------------------------------------------------------
  

 Cite this work as:
 Gaussian 16, Revision A.03,
 M. J. Frisch, G. W. Trucks, H. B. Schlegel, G. E. Scuseria, 
 M. A. Robb, J. R. Cheeseman, G. Scalmani, V. Barone, 
 G. A. Petersson, H. Nakatsuji, X. Li, M. Caricato, A. V. Marenich, 
 J. Bloino, B. G. Janesko, R. Gomperts, B. Mennucci, H. P. Hratchian, 
 J. V. Ortiz, A. F. Izmaylov, J. L. Sonnenberg, D. Williams-Young, 
 F. Ding, F. Lipparini, F. Egidi, J. Goings, B. Peng, A. Petrone, 
 T. Henderson, D. Ranasinghe, V. G. Zakrzewski, J. Gao, N. Rega, 
 G. Zheng, W. Liang, M. Hada, M. Ehara, K. Toyota, R. Fukuda, 
 J. Hasegawa, M. Ishida, T. Nakajima, Y. Honda, O. Kitao, H. Nakai, 
 T. Vreven, K. Throssell, J. A. Montgomery, Jr., J. E. Peralta, 
 F. Ogliaro, M. J. Bearpark, J. J. Heyd, E. N. Brothers, K. N. Kudin, 
 V. N. Staroverov, T. A. Keith, R. Kobayashi, J. Normand, 
 K. Raghavachari, A. P. Rendell, J. C. Burant, S. S. Iyengar, 
 J. Tomasi, M. Cossi, J. M. Millam, M. Klene, C. Adamo, R. Cammi, 
 J. W. Ochterski, R. L. Martin, K. Morokuma, O. Farkas, 
 J. B. Foresman, and D. J. Fox, Gaussian, Inc., Wallingford CT, 2016.
 
 ******************************************
 Gaussian 16:  EM64L-G16RevA.03 25-Dec-2016
                 9-Mar-2019 
 ******************************************
 %nprocshared=20
 Will use up to   20 processors via shared memory.
 %mem=5GB
 ----------------------------------------------
 #p m062x/6-311+g(2df,2p) Opt=(CalcFC,ModRedun)
 ----------------------------------------------
 1/10=4,18=120,19=15,26=3,38=1/1,3;
 2/9=110,12=2,17=6,18=5,40=1/2;
 3/5=4,6=6,7=214,11=2,25=1,30=1,71=2,74=-55,140=1/1,2,3;
 4//1;
 5/5=2,38=5/2;
 8/6=4,10=90,11=11/1;
 11/6=1,8=1,9=11,15=111,16=1/1,2,10;
 10/6=1,13=1/2;
 6/7=2,8=2,9=2,10=2,28=1/1;
 7/10=1,18=20,25=1/1,2,3,16;
 1/10=4,18=20,19=15,26=3/3(2);
 2/9=110/2;
 99//99;
 2/9=110/2;
 3/5=4,6=6,7=214,11=2,25=1,30=1,71=1,74=-55/1,2,3;
 4/5=5,16=3,69=1/1;
 5/5=2,38=5/2;
 7//1,2,3,16;
 1/18=20,19=15,26=3/3(-5);
 2/9=110/2;
 6/7=2,8=2,9=2,10=2,19=2,28=1/1;
 99/9=1/99;
 Leave Link    1 at Sat Mar  9 13:21:34 2019, MaxMem=   671088640 cpu:              34.1 elap:               1.8
 (Enter /shared/centos7/gaussian/g16/l101.exe)
 ----------------------------------------
 Gaussian Input Prepared from Scan Object
 ----------------------------------------
 Symbolic Z-matrix:
 Charge =  0 Multiplicity = 2
 O                    -2.66115  -1.19734   1.08141 
 C                     0.92457  -0.65827   0.05809 
 C                    -0.53352  -1.08638  -0.08984 
 C                     1.0979    0.84723   0.23899 
 C                    -1.36364  -0.77982   1.1521 
 H                     1.4755   -0.98206  -0.82593 
 H                     1.37192  -1.18379   0.90604 
 H                    -0.5893   -2.16034  -0.27491 
 H                    -0.99136  -0.58949  -0.94785 
 H                     2.15108   1.12454   0.24153 
 H                     0.60985   1.39281  -0.57038 
 H                     0.66951   1.19415   1.17979 
 H                    -0.87887  -1.1502    2.06859 
 H                    -1.44951   0.3133    1.29568 
 
 The following ModRedundant input section has been read:
 B       4      10 B                                                           
 B       3       8 B                                                           
 B       5      13 B                                                           
 B       2       3 B                                                           
 B       2       4 B                                                           
 B       5      14 B                                                           
 B       3       5 B                                                           
 B       3       9 B                                                           
 B       1       5 B                                                           
 B       2       7 B                                                           
 B       2       6 B                                                           
 B       4      11 B                                                           
 B       4      12 B                                                           
 D      14       2       3       9 S  72 10.000                                
 
 ITRead=  0  0  0  0  0  0  0  0  0  0  0  0  0  0
 MicOpt= -1 -1 -1 -1 -1 -1 -1 -1 -1 -1 -1 -1 -1 -1
 NAtoms=     14 NQM=       14 NQMF=       0 NMMI=      0 NMMIF=      0
                NMic=       0 NMicF=      0.
                    Isotopes and Nuclear Properties:
 (Nuclear quadrupole moments (NQMom) in fm**2, nuclear magnetic moments (NMagM)
  in nuclear magnetons)

  Atom         1           2           3           4           5           6           7           8           9          10
 IAtWgt=          16          12          12          12          12           1           1           1           1           1
 AtmWgt=  15.9949146  12.0000000  12.0000000  12.0000000  12.0000000   1.0078250   1.0078250   1.0078250   1.0078250   1.0078250
 NucSpn=           0           0           0           0           0           1           1           1           1           1
 AtZEff=  -0.0000000  -0.0000000  -0.0000000  -0.0000000  -0.0000000  -0.0000000  -0.0000000  -0.0000000  -0.0000000  -0.0000000
 NQMom=    0.0000000   0.0000000   0.0000000   0.0000000   0.0000000   0.0000000   0.0000000   0.0000000   0.0000000   0.0000000
 NMagM=    0.0000000   0.0000000   0.0000000   0.0000000   0.0000000   2.7928460   2.7928460   2.7928460   2.7928460   2.7928460
 AtZNuc=   8.0000000   6.0000000   6.0000000   6.0000000   6.0000000   1.0000000   1.0000000   1.0000000   1.0000000   1.0000000

  Atom        11          12          13          14
 IAtWgt=           1           1           1           1
 AtmWgt=   1.0078250   1.0078250   1.0078250   1.0078250
 NucSpn=           1           1           1           1
 AtZEff=  -0.0000000  -0.0000000  -0.0000000  -0.0000000
 NQMom=    0.0000000   0.0000000   0.0000000   0.0000000
 NMagM=    2.7928460   2.7928460   2.7928460   2.7928460
 AtZNuc=   1.0000000   1.0000000   1.0000000   1.0000000
 Leave Link  101 at Sat Mar  9 13:21:34 2019, MaxMem=   671088640 cpu:               5.6 elap:               0.3
 (Enter /shared/centos7/gaussian/g16/l103.exe)

 GradGradGradGradGradGradGradGradGradGradGradGradGradGradGradGradGradGrad
 Berny optimization.
 Initialization pass.
                           ----------------------------
                           !    Initial Parameters    !
                           ! (Angstroms and Degrees)  !
 --------------------------                            --------------------------
 ! Name  Definition              Value          Derivative Info.                !
 --------------------------------------------------------------------------------
 ! R1    R(1,5)                  1.3649         calculate D2E/DX2 analytically  !
 ! R2    R(2,3)                  1.5268         calculate D2E/DX2 analytically  !
 ! R3    R(2,4)                  1.5262         calculate D2E/DX2 analytically  !
 ! R4    R(2,6)                  1.0908         calculate D2E/DX2 analytically  !
 ! R5    R(2,7)                  1.0933         calculate D2E/DX2 analytically  !
 ! R6    R(3,5)                  1.525          calculate D2E/DX2 analytically  !
 ! R7    R(3,8)                  1.0912         calculate D2E/DX2 analytically  !
 ! R8    R(3,9)                  1.0921         calculate D2E/DX2 analytically  !
 ! R9    R(4,10)                 1.0891         calculate D2E/DX2 analytically  !
 ! R10   R(4,11)                 1.0913         calculate D2E/DX2 analytically  !
 ! R11   R(4,12)                 1.0904         calculate D2E/DX2 analytically  !
 ! R12   R(5,13)                 1.101          calculate D2E/DX2 analytically  !
 ! R13   R(5,14)                 1.1058         calculate D2E/DX2 analytically  !
 ! A1    A(3,2,4)              113.3618         calculate D2E/DX2 analytically  !
 ! A2    A(3,2,6)              108.6977         calculate D2E/DX2 analytically  !
 ! A3    A(3,2,7)              109.3365         calculate D2E/DX2 analytically  !
 ! A4    A(4,2,6)              109.3608         calculate D2E/DX2 analytically  !
 ! A5    A(4,2,7)              109.6184         calculate D2E/DX2 analytically  !
 ! A6    A(6,2,7)              106.2131         calculate D2E/DX2 analytically  !
 ! A7    A(2,3,5)              112.6173         calculate D2E/DX2 analytically  !
 ! A8    A(2,3,8)              109.9506         calculate D2E/DX2 analytically  !
 ! A9    A(2,3,9)              110.4196         calculate D2E/DX2 analytically  !
 ! A10   A(5,3,8)              107.9477         calculate D2E/DX2 analytically  !
 ! A11   A(5,3,9)              108.6727         calculate D2E/DX2 analytically  !
 ! A12   A(8,3,9)              107.045          calculate D2E/DX2 analytically  !
 ! A13   A(2,4,10)             111.1789         calculate D2E/DX2 analytically  !
 ! A14   A(2,4,11)             110.76           calculate D2E/DX2 analytically  !
 ! A15   A(2,4,12)             111.8078         calculate D2E/DX2 analytically  !
 ! A16   A(10,4,11)            107.8725         calculate D2E/DX2 analytically  !
 ! A17   A(10,4,12)            107.2719         calculate D2E/DX2 analytically  !
 ! A18   A(11,4,12)            107.7666         calculate D2E/DX2 analytically  !
 ! A19   A(1,5,3)              114.4446         calculate D2E/DX2 analytically  !
 ! A20   A(1,5,13)             111.0256         calculate D2E/DX2 analytically  !
 ! A21   A(1,5,14)             103.6087         calculate D2E/DX2 analytically  !
 ! A22   A(3,5,13)             111.7548         calculate D2E/DX2 analytically  !
 ! A23   A(3,5,14)             110.2876         calculate D2E/DX2 analytically  !
 ! A24   A(13,5,14)            104.9896         calculate D2E/DX2 analytically  !
 ! D1    D(4,2,3,5)            -62.9396         calculate D2E/DX2 analytically  !
 ! D2    D(4,2,3,8)            176.6385         calculate D2E/DX2 analytically  !
 ! D3    D(4,2,3,9)             58.7415         calculate D2E/DX2 analytically  !
 ! D4    D(6,2,3,5)            175.2285         calculate D2E/DX2 analytically  !
 ! D5    D(6,2,3,8)             54.8066         calculate D2E/DX2 analytically  !
 ! D6    D(6,2,3,9)            -63.0904         calculate D2E/DX2 analytically  !
 ! D7    D(7,2,3,5)             59.688          calculate D2E/DX2 analytically  !
 ! D8    D(7,2,3,8)            -60.7339         calculate D2E/DX2 analytically  !
 ! D9    D(7,2,3,9)           -178.6309         calculate D2E/DX2 analytically  !
 ! D10   D(14,2,3,9)            95.4008         Scan                            !
 ! D11   D(3,2,4,10)          -174.356          calculate D2E/DX2 analytically  !
 ! D12   D(3,2,4,11)           -54.4319         calculate D2E/DX2 analytically  !
 ! D13   D(3,2,4,12)            65.7772         calculate D2E/DX2 analytically  !
 ! D14   D(6,2,4,10)           -52.8952         calculate D2E/DX2 analytically  !
 ! D15   D(6,2,4,11)            67.0289         calculate D2E/DX2 analytically  !
 ! D16   D(6,2,4,12)          -172.7621         calculate D2E/DX2 analytically  !
 ! D17   D(7,2,4,10)            63.1726         calculate D2E/DX2 analytically  !
 ! D18   D(7,2,4,11)          -176.9033         calculate D2E/DX2 analytically  !
 ! D19   D(7,2,4,12)           -56.6942         calculate D2E/DX2 analytically  !
 ! D20   D(2,3,5,1)           -177.4337         calculate D2E/DX2 analytically  !
 ! D21   D(2,3,5,13)           -50.1524         calculate D2E/DX2 analytically  !
 ! D22   D(2,3,5,14)            66.2334         calculate D2E/DX2 analytically  !
 ! D23   D(8,3,5,1)            -55.867          calculate D2E/DX2 analytically  !
 ! D24   D(8,3,5,13)            71.4143         calculate D2E/DX2 analytically  !
 ! D25   D(8,3,5,14)          -172.1999         calculate D2E/DX2 analytically  !
 ! D26   D(9,3,5,1)             59.8994         calculate D2E/DX2 analytically  !
 ! D27   D(9,3,5,13)          -172.8193         calculate D2E/DX2 analytically  !
 ! D28   D(9,3,5,14)           -56.4336         calculate D2E/DX2 analytically  !
 --------------------------------------------------------------------------------
 Trust Radius=3.00D-01 FncErr=1.00D-07 GrdErr=1.00D-06 EigMax=2.50D+02 EigMin=1.00D-04
 Number of optimizations in scan=  73
 Number of steps in this run=     75 maximum allowed number of steps=    100.
 GradGradGradGradGradGradGradGradGradGradGradGradGradGradGradGradGradGrad

 Leave Link  103 at Sat Mar  9 13:21:34 2019, MaxMem=   671088640 cpu:               0.2 elap:               0.0
 (Enter /shared/centos7/gaussian/g16/l202.exe)
                          Input orientation:                          
 ---------------------------------------------------------------------
 Center     Atomic      Atomic             Coordinates (Angstroms)
 Number     Number       Type             X           Y           Z
 ---------------------------------------------------------------------
      1          8           0       -2.661149   -1.197337    1.081407
      2          6           0        0.924569   -0.658266    0.058088
      3          6           0       -0.533520   -1.086385   -0.089842
      4          6           0        1.097900    0.847226    0.238993
      5          6           0       -1.363640   -0.779818    1.152100
      6          1           0        1.475498   -0.982061   -0.825933
      7          1           0        1.371920   -1.183793    0.906036
      8          1           0       -0.589297   -2.160342   -0.274907
      9          1           0       -0.991356   -0.589492   -0.947847
     10          1           0        2.151078    1.124542    0.241525
     11          1           0        0.609849    1.392811   -0.570381
     12          1           0        0.669505    1.194147    1.179794
     13          1           0       -0.878873   -1.150197    2.068595
     14          1           0       -1.449511    0.313300    1.295684
 ---------------------------------------------------------------------
                    Distance matrix (angstroms):
                    1          2          3          4          5
     1  O    0.000000
     2  C    3.767646   0.000000
     3  C    2.431243   1.526825   0.000000
     4  C    4.361233   1.526196   2.551179   0.000000
     5  C    1.364863   2.539200   1.524960   3.088724   0.000000
     6  H    4.560279   1.090806   2.142164   2.150102   3.466154
     7  H    4.036903   1.093305   2.152199   2.155242   2.776154
     8  H    2.656979   2.158451   1.091212   3.486573   2.131150
     9  H    2.697325   2.165041   1.092103   2.799596   2.141167
    10  H    5.408702   2.171722   3.493575   1.089080   4.099875
    11  H    4.487393   2.168165   2.772115   1.091304   3.403221
    12  H    4.101480   2.180531   2.874034   1.090404   2.833899
    13  H    2.037958   2.745276   2.186823   3.353323   1.100974
    14  H    1.948335   2.848130   2.172059   2.809088   1.105847
                    6          7          8          9         10
     6  H    0.000000
     7  H    1.746751   0.000000
     8  H    2.440359   2.488905   0.000000
     9  H    2.500868   3.061886   1.755583   0.000000
    10  H    2.456350   2.525286   4.308924   3.771924   0.000000
    11  H    2.540605   3.065851   3.761669   2.576016   1.762540
    12  H    3.067319   2.494580   3.866954   3.235225   1.755064
    13  H    3.734920   2.533524   2.568316   3.070174   4.206332
    14  H    3.838606   3.217699   3.053790   2.461376   3.838438
                   11         12         13         14
    11  H    0.000000
    12  H    1.762424   0.000000
    13  H    3.955677   2.946760   0.000000
    14  H    2.981359   2.297727   1.750669   0.000000
 Stoichiometry    C4H9O(2)
 Framework group  C1[X(C4H9O)]
 Deg. of freedom    36
 Full point group                 C1      NOp   1
 Largest Abelian subgroup         C1      NOp   1
 Largest concise Abelian subgroup C1      NOp   1
                         Standard orientation:                         
 ---------------------------------------------------------------------
 Center     Atomic      Atomic             Coordinates (Angstroms)
 Number     Number       Type             X           Y           Z
 ---------------------------------------------------------------------
      1          8           0        2.379210   -0.211029   -0.130886
      2          6           0       -1.277367    0.607250    0.262846
      3          6           0        0.148394    0.746205   -0.265444
      4          6           0       -1.955179   -0.693331   -0.159455
      5          6           0        1.081554   -0.332377    0.274348
      6          1           0       -1.866109    1.453889   -0.092741
      7          1           0       -1.267791    0.678795    1.353766
      8          1           0        0.557462    1.717347    0.017912
      9          1           0        0.156480    0.701472   -1.356600
     10          1           0       -2.998850   -0.711995    0.151182
     11          1           0       -1.926438   -0.810037   -1.244120
     12          1           0       -1.470399   -1.564637    0.281903
     13          1           0        1.016217   -0.417466    1.370082
     14          1           0        0.781342   -1.325618   -0.108071
 ---------------------------------------------------------------------
 Rotational constants (GHZ):          12.3377311           2.4994259           2.2733266
 Leave Link  202 at Sat Mar  9 13:21:35 2019, MaxMem=   671088640 cpu:               0.3 elap:               0.0
 (Enter /shared/centos7/gaussian/g16/l301.exe)
 Standard basis: 6-311+G(2df,2p) (5D, 7F)
 Ernie: Thresh=  0.10000D-02 Tol=  0.10000D-05 Strict=F.
 There are   276 symmetry adapted cartesian basis functions of A   symmetry.
 There are   251 symmetry adapted basis functions of A   symmetry.
   251 basis functions,   359 primitive gaussians,   276 cartesian basis functions
    21 alpha electrons       20 beta electrons
       nuclear repulsion energy       179.1650790645 Hartrees.
 IExCor= 4336 DFT=T Ex+Corr=M062X ExCW=0 ScaHFX=  0.540000
 ScaDFX=  1.000000  1.000000  1.000000  1.000000 ScalE2=  1.000000  1.000000
 IRadAn=      5 IRanWt=     -1 IRanGd=            0 ICorTp=0 IEmpDi=  4
 NAtoms=   14 NActive=   14 NUniq=   14 SFac= 1.00D+00 NAtFMM=   60 NAOKFM=F Big=F
 Integral buffers will be    131072 words long.
 Raffenetti 2 integral format.
 Two-electron integral symmetry is turned on.
 Leave Link  301 at Sat Mar  9 13:21:35 2019, MaxMem=   671088640 cpu:               1.2 elap:               0.1
 (Enter /shared/centos7/gaussian/g16/l302.exe)
 NPDir=0 NMtPBC=     1 NCelOv=     1 NCel=       1 NClECP=     1 NCelD=      1
         NCelK=      1 NCelE2=     1 NClLst=     1 CellRange=     0.0.
 One-electron integrals computed using PRISM.
 One-electron integral symmetry used in STVInt
 NBasis=   251 RedAO= T EigKep=  5.01D-05  NBF=   251
 NBsUse=   251 1.00D-06 EigRej= -1.00D+00 NBFU=   251
 Precomputing XC quadrature grid using
 IXCGrd= 4 IRadAn=           5 IRanWt=          -1 IRanGd=           0 AccXCQ= 0.00D+00.
 Generated NRdTot=       0 NPtTot=           0 NUsed=           0 NTot=          32
 NSgBfM=   276   276   276   276   276 MxSgAt=    14 MxSgA2=    14.
 Leave Link  302 at Sat Mar  9 13:21:35 2019, MaxMem=   671088640 cpu:               9.0 elap:               0.5
 (Enter /shared/centos7/gaussian/g16/l303.exe)
 DipDrv:  MaxL=1.
 Leave Link  303 at Sat Mar  9 13:21:35 2019, MaxMem=   671088640 cpu:               0.7 elap:               0.1
 (Enter /shared/centos7/gaussian/g16/l401.exe)
 ExpMin= 4.38D-02 ExpMax= 8.59D+03 ExpMxC= 1.30D+03 IAcc=3 IRadAn=         5 AccDes= 0.00D+00
 Harris functional with IExCor= 1009 and IRadAn=       5 diagonalized for initial guess.
 HarFok:  IExCor= 1009 AccDes= 0.00D+00 IRadAn=         5 IDoV= 1 UseB2=F ITyADJ=14
 ICtDFT=  3500011 ScaDFX=  1.000000  1.000000  1.000000  1.000000
 FoFCou: FMM=F IPFlag=           0 FMFlag=      100000 FMFlg1=           0
         NFxFlg=           0 DoJE=T BraDBF=F KetDBF=T FulRan=T
         wScrn=  0.000000 ICntrl=       500 IOpCl=  0 I1Cent=   200000004 NGrid=           0
         NMat0=    1 NMatS0=      1 NMatT0=    0 NMatD0=    1 NMtDS0=    0 NMtDT0=    0
 Petite list used in FoFCou.
 Harris En= -232.881327052084    
 JPrj=0 DoOrth=F DoCkMO=F.
 Initial guess <Sx>= 0.0000 <Sy>= 0.0000 <Sz>= 0.5000 <S**2>= 0.7500 S= 0.5000
 Leave Link  401 at Sat Mar  9 13:21:37 2019, MaxMem=   671088640 cpu:              25.6 elap:               1.3
 (Enter /shared/centos7/gaussian/g16/l502.exe)
 Integral symmetry usage will be decided dynamically.
 UHF open shell SCF:
 Using DIIS extrapolation, IDIIS=  1040.
 NGot=   671088640 LenX=   670928170 LenY=   670851553
 Requested convergence on RMS density matrix=1.00D-08 within 128 cycles.
 Requested convergence on MAX density matrix=1.00D-06.
 Requested convergence on             energy=1.00D-06.
 No special actions if energy rises.
 Fock matrices will be formed incrementally for  20 cycles.

 Cycle   1  Pass 1  IDiag  1:
 FoFJK:  IHMeth= 1 ICntrl=       0 DoSepK=F KAlg= 0 I1Cent=           0 FoldK=F
 IRaf= 980000000 NMat=       1 IRICut=       1 DoRegI=T DoRafI=F ISym2E= 0 IDoP0=0 IntGTp=1.
 FoFCou: FMM=F IPFlag=           0 FMFlag=      100000 FMFlg1=           0
         NFxFlg=           0 DoJE=F BraDBF=F KetDBF=F FulRan=T
         wScrn=  0.000000 ICntrl=         0 IOpCl=  1 I1Cent=           0 NGrid=           0
         NMat0=    1 NMatS0=      1 NMatT0=    0 NMatD0=    1 NMtDS0=    0 NMtDT0=    0
 Symmetry not used in FoFCou.
 E= -232.767419337167    
 DIIS: error= 2.53D-02 at cycle   1 NSaved=   1.
 NSaved= 1 IEnMin= 1 EnMin= -232.767419337167     IErMin= 1 ErrMin= 2.53D-02
 ErrMax= 2.53D-02  0.00D+00 EMaxC= 1.00D-01 BMatC= 8.40D-01 BMatP= 8.40D-01
 IDIUse=3 WtCom= 7.47D-01 WtEn= 2.53D-01
 Coeff-Com:  0.100D+01
 Coeff-En:   0.100D+01
 Coeff:      0.100D+01
 Gap=     0.393 Goal=   None    Shift=    0.000
 Gap=     0.234 Goal=   None    Shift=    0.000
 GapD=    0.234 DampG=1.000 DampE=0.500 DampFc=0.5000 IDamp=-1.
 Damping current iteration by 5.00D-01
 RMSDP=2.44D-03 MaxDP=1.10D-01              OVMax= 1.55D-01

 Cycle   2  Pass 1  IDiag  1:
 RMSU=  1.20D-03    CP:  9.76D-01
 E= -232.863353907276     Delta-E=       -0.095934570109 Rises=F Damp=T
 DIIS: error= 5.57D-03 at cycle   2 NSaved=   2.
 NSaved= 2 IEnMin= 2 EnMin= -232.863353907276     IErMin= 2 ErrMin= 5.57D-03
 ErrMax= 5.57D-03  0.00D+00 EMaxC= 1.00D-01 BMatC= 5.70D-02 BMatP= 8.40D-01
 IDIUse=3 WtCom= 9.44D-01 WtEn= 5.57D-02
 Coeff-Com: -0.124D+00 0.112D+01
 Coeff-En:   0.000D+00 0.100D+01
 Coeff:     -0.117D+00 0.112D+01
 Gap=     0.385 Goal=   None    Shift=    0.000
 Gap=     0.257 Goal=   None    Shift=    0.000
 RMSDP=1.03D-03 MaxDP=4.47D-02 DE=-9.59D-02 OVMax= 8.07D-02

 Cycle   3  Pass 1  IDiag  1:
 RMSU=  1.02D-03    CP:  9.67D-01  9.07D-01
 E= -232.954652105828     Delta-E=       -0.091298198552 Rises=F Damp=F
 DIIS: error= 3.63D-03 at cycle   3 NSaved=   3.
 NSaved= 3 IEnMin= 3 EnMin= -232.954652105828     IErMin= 3 ErrMin= 3.63D-03
 ErrMax= 3.63D-03  0.00D+00 EMaxC= 1.00D-01 BMatC= 6.78D-03 BMatP= 5.70D-02
 IDIUse=3 WtCom= 9.64D-01 WtEn= 3.63D-02
 Coeff-Com: -0.710D-01 0.229D+00 0.842D+00
 Coeff-En:   0.000D+00 0.000D+00 0.100D+01
 Coeff:     -0.685D-01 0.221D+00 0.848D+00
 Gap=     0.369 Goal=   None    Shift=    0.000
 Gap=     0.247 Goal=   None    Shift=    0.000
 RMSDP=1.95D-04 MaxDP=9.68D-03 DE=-9.13D-02 OVMax= 1.43D-02

 Cycle   4  Pass 1  IDiag  1:
 RMSU=  1.87D-04    CP:  9.62D-01  9.23D-01  1.01D+00
 E= -232.956592070048     Delta-E=       -0.001939964220 Rises=F Damp=F
 DIIS: error= 1.10D-03 at cycle   4 NSaved=   4.
 NSaved= 4 IEnMin= 4 EnMin= -232.956592070048     IErMin= 4 ErrMin= 1.10D-03
 ErrMax= 1.10D-03  0.00D+00 EMaxC= 1.00D-01 BMatC= 1.00D-03 BMatP= 6.78D-03
 IDIUse=3 WtCom= 9.89D-01 WtEn= 1.10D-02
 Coeff-Com: -0.152D-01 0.247D-01 0.276D+00 0.714D+00
 Coeff-En:   0.000D+00 0.000D+00 0.000D+00 0.100D+01
 Coeff:     -0.151D-01 0.245D-01 0.273D+00 0.717D+00
 Gap=     0.365 Goal=   None    Shift=    0.000
 Gap=     0.252 Goal=   None    Shift=    0.000
 RMSDP=7.58D-05 MaxDP=3.64D-03 DE=-1.94D-03 OVMax= 9.16D-03

 Cycle   5  Pass 1  IDiag  1:
 RMSU=  6.38D-05    CP:  9.63D-01  9.19D-01  1.04D+00  8.32D-01
 E= -232.956949131946     Delta-E=       -0.000357061898 Rises=F Damp=F
 DIIS: error= 4.09D-04 at cycle   5 NSaved=   5.
 NSaved= 5 IEnMin= 5 EnMin= -232.956949131946     IErMin= 5 ErrMin= 4.09D-04
 ErrMax= 4.09D-04  0.00D+00 EMaxC= 1.00D-01 BMatC= 2.71D-04 BMatP= 1.00D-03
 IDIUse=3 WtCom= 9.96D-01 WtEn= 4.09D-03
 Coeff-Com:  0.761D-02-0.321D-01-0.454D-01 0.272D+00 0.798D+00
 Coeff-En:   0.000D+00 0.000D+00 0.000D+00 0.000D+00 0.100D+01
 Coeff:      0.758D-02-0.320D-01-0.453D-01 0.271D+00 0.798D+00
 Gap=     0.368 Goal=   None    Shift=    0.000
 Gap=     0.254 Goal=   None    Shift=    0.000
 RMSDP=4.55D-05 MaxDP=1.85D-03 DE=-3.57D-04 OVMax= 4.70D-03

 Cycle   6  Pass 1  IDiag  1:
 RMSU=  2.56D-05    CP:  9.62D-01  9.08D-01  1.05D+00  9.90D-01  1.17D+00
 E= -232.957071629056     Delta-E=       -0.000122497110 Rises=F Damp=F
 DIIS: error= 1.95D-04 at cycle   6 NSaved=   6.
 NSaved= 6 IEnMin= 6 EnMin= -232.957071629056     IErMin= 6 ErrMin= 1.95D-04
 ErrMax= 1.95D-04  0.00D+00 EMaxC= 1.00D-01 BMatC= 3.38D-05 BMatP= 2.71D-04
 IDIUse=3 WtCom= 9.98D-01 WtEn= 1.95D-03
 Coeff-Com:  0.590D-02-0.139D-01-0.812D-01-0.104D+00 0.140D+00 0.105D+01
 Coeff-En:   0.000D+00 0.000D+00 0.000D+00 0.000D+00 0.000D+00 0.100D+01
 Coeff:      0.588D-02-0.139D-01-0.810D-01-0.103D+00 0.139D+00 0.105D+01
 Gap=     0.368 Goal=   None    Shift=    0.000
 Gap=     0.256 Goal=   None    Shift=    0.000
 RMSDP=2.64D-05 MaxDP=1.53D-03 DE=-1.22D-04 OVMax= 4.76D-03

 Cycle   7  Pass 1  IDiag  1:
 RMSU=  1.58D-05    CP:  9.62D-01  9.06D-01  1.06D+00  1.06D+00  1.37D+00
                    CP:  1.34D+00
 E= -232.957112030141     Delta-E=       -0.000040401086 Rises=F Damp=F
 DIIS: error= 7.36D-05 at cycle   7 NSaved=   7.
 NSaved= 7 IEnMin= 7 EnMin= -232.957112030141     IErMin= 7 ErrMin= 7.36D-05
 ErrMax= 7.36D-05  0.00D+00 EMaxC= 1.00D-01 BMatC= 9.97D-06 BMatP= 3.38D-05
 IDIUse=1 WtCom= 1.00D+00 WtEn= 0.00D+00
 Coeff-Com:  0.119D-02-0.146D-02-0.232D-01-0.669D-01-0.512D-01 0.396D+00
 Coeff-Com:  0.745D+00
 Coeff:      0.119D-02-0.146D-02-0.232D-01-0.669D-01-0.512D-01 0.396D+00
 Coeff:      0.745D+00
 Gap=     0.368 Goal=   None    Shift=    0.000
 Gap=     0.256 Goal=   None    Shift=    0.000
 RMSDP=1.07D-05 MaxDP=7.22D-04 DE=-4.04D-05 OVMax= 3.32D-03

 Cycle   8  Pass 1  IDiag  1:
 RMSU=  6.98D-06    CP:  9.62D-01  9.06D-01  1.06D+00  1.07D+00  1.41D+00
                    CP:  1.53D+00  1.34D+00
 E= -232.957122773753     Delta-E=       -0.000010743612 Rises=F Damp=F
 DIIS: error= 7.80D-05 at cycle   8 NSaved=   8.
 NSaved= 8 IEnMin= 8 EnMin= -232.957122773753     IErMin= 7 ErrMin= 7.36D-05
 ErrMax= 7.80D-05  0.00D+00 EMaxC= 1.00D-01 BMatC= 4.03D-06 BMatP= 9.97D-06
 IDIUse=1 WtCom= 1.00D+00 WtEn= 0.00D+00
 Coeff-Com: -0.728D-03 0.190D-02 0.930D-02 0.752D-02-0.272D-01-0.858D-01
 Coeff-Com:  0.112D+00 0.983D+00
 Coeff:     -0.728D-03 0.190D-02 0.930D-02 0.752D-02-0.272D-01-0.858D-01
 Coeff:      0.112D+00 0.983D+00
 Gap=     0.368 Goal=   None    Shift=    0.000
 Gap=     0.256 Goal=   None    Shift=    0.000
 RMSDP=1.11D-05 MaxDP=7.99D-04 DE=-1.07D-05 OVMax= 4.04D-03

 Cycle   9  Pass 1  IDiag  1:
 RMSU=  4.86D-06    CP:  9.62D-01  9.06D-01  1.06D+00  1.07D+00  1.42D+00
                    CP:  1.66D+00  1.77D+00  1.89D+00
 E= -232.957132867694     Delta-E=       -0.000010093940 Rises=F Damp=F
 DIIS: error= 7.34D-05 at cycle   9 NSaved=   9.
 NSaved= 9 IEnMin= 9 EnMin= -232.957132867694     IErMin= 9 ErrMin= 7.34D-05
 ErrMax= 7.34D-05  0.00D+00 EMaxC= 1.00D-01 BMatC= 3.48D-06 BMatP= 4.03D-06
 IDIUse=1 WtCom= 1.00D+00 WtEn= 0.00D+00
 Coeff-Com: -0.201D-03 0.261D-03 0.585D-02 0.165D-01 0.106D-01-0.101D+00
 Coeff-Com: -0.199D+00-0.101D-02 0.127D+01
 Coeff:     -0.201D-03 0.261D-03 0.585D-02 0.165D-01 0.106D-01-0.101D+00
 Coeff:     -0.199D+00-0.101D-02 0.127D+01
 Gap=     0.368 Goal=   None    Shift=    0.000
 Gap=     0.257 Goal=   None    Shift=    0.000
 RMSDP=1.54D-05 MaxDP=1.10D-03 DE=-1.01D-05 OVMax= 5.68D-03

 Cycle  10  Pass 1  IDiag  1:
 RMSU=  2.93D-06    CP:  9.62D-01  9.06D-01  1.06D+00  1.08D+00  1.46D+00
                    CP:  1.82D+00  2.34D+00  3.00D+00  2.43D+00
 E= -232.957146375801     Delta-E=       -0.000013508107 Rises=F Damp=F
 DIIS: error= 7.14D-05 at cycle  10 NSaved=  10.
 NSaved=10 IEnMin=10 EnMin= -232.957146375801     IErMin=10 ErrMin= 7.14D-05
 ErrMax= 7.14D-05  0.00D+00 EMaxC= 1.00D-01 BMatC= 3.21D-06 BMatP= 3.48D-06
 IDIUse=1 WtCom= 1.00D+00 WtEn= 0.00D+00
 Coeff-Com:  0.146D-02-0.318D-02-0.194D-01-0.301D-01 0.308D-01 0.233D+00
 Coeff-Com:  0.128D+00-0.135D+01-0.179D+01 0.380D+01
 Coeff:      0.146D-02-0.318D-02-0.194D-01-0.301D-01 0.308D-01 0.233D+00
 Coeff:      0.128D+00-0.135D+01-0.179D+01 0.380D+01
 Gap=     0.369 Goal=   None    Shift=    0.000
 Gap=     0.257 Goal=   None    Shift=    0.000
 RMSDP=5.74D-05 MaxDP=4.06D-03 DE=-1.35D-05 OVMax= 2.12D-02

 Cycle  11  Pass 1  IDiag  1:
 RMSU=  4.56D-05    CP:  9.62D-01  9.05D-01  1.06D+00  1.09D+00  1.59D+00
                    CP:  2.36D+00  3.00D+00  3.00D+00  3.00D+00  3.00D+00
 E= -232.957192437997     Delta-E=       -0.000046062196 Rises=F Damp=F
 DIIS: error= 6.25D-05 at cycle  11 NSaved=  11.
 NSaved=11 IEnMin=11 EnMin= -232.957192437997     IErMin=11 ErrMin= 6.25D-05
 ErrMax= 6.25D-05  0.00D+00 EMaxC= 1.00D-01 BMatC= 2.50D-06 BMatP= 3.21D-06
 IDIUse=1 WtCom= 1.00D+00 WtEn= 0.00D+00
 Coeff-Com:  0.496D-03-0.745D-03-0.107D-01-0.263D-01 0.111D-01 0.171D+00
 Coeff-Com:  0.296D+00-0.449D+00-0.230D+01 0.816D+00 0.249D+01
 Coeff:      0.496D-03-0.745D-03-0.107D-01-0.263D-01 0.111D-01 0.171D+00
 Coeff:      0.296D+00-0.449D+00-0.230D+01 0.816D+00 0.249D+01
 Gap=     0.369 Goal=   None    Shift=    0.000
 Gap=     0.258 Goal=   None    Shift=    0.000
 RMSDP=1.21D-04 MaxDP=8.45D-03 DE=-4.61D-05 OVMax= 4.46D-02

 Cycle  12  Pass 1  IDiag  1:
 RMSU=  3.40D-05    CP:  9.62D-01  9.00D-01  1.07D+00  1.12D+00  1.83D+00
                    CP:  3.00D+00  3.00D+00  3.00D+00  3.00D+00  3.00D+00
                    CP:  3.00D+00
 E= -232.957268036201     Delta-E=       -0.000075598204 Rises=F Damp=F
 DIIS: error= 5.43D-05 at cycle  12 NSaved=  12.
 NSaved=12 IEnMin=12 EnMin= -232.957268036201     IErMin=12 ErrMin= 5.43D-05
 ErrMax= 5.43D-05  0.00D+00 EMaxC= 1.00D-01 BMatC= 2.05D-06 BMatP= 2.50D-06
 IDIUse=1 WtCom= 1.00D+00 WtEn= 0.00D+00
 Coeff-Com: -0.101D-03 0.608D-03-0.606D-03-0.585D-02 0.930D-02 0.375D-01
 Coeff-Com:  0.133D+00-0.193D-01-0.109D+01-0.201D+00 0.161D+01 0.522D+00
 Coeff:     -0.101D-03 0.608D-03-0.606D-03-0.585D-02 0.930D-02 0.375D-01
 Coeff:      0.133D+00-0.193D-01-0.109D+01-0.201D+00 0.161D+01 0.522D+00
 Gap=     0.369 Goal=   None    Shift=    0.000
 Gap=     0.258 Goal=   None    Shift=    0.000
 RMSDP=2.28D-05 MaxDP=1.56D-03 DE=-7.56D-05 OVMax= 8.34D-03

 Cycle  13  Pass 1  IDiag  1:
 RMSU=  1.17D-05    CP:  9.62D-01  8.99D-01  1.07D+00  1.12D+00  1.87D+00
                    CP:  3.00D+00  3.00D+00  3.00D+00  3.00D+00  3.00D+00
                    CP:  3.00D+00  1.57D+00
 E= -232.957279082224     Delta-E=       -0.000011046023 Rises=F Damp=F
 DIIS: error= 4.53D-05 at cycle  13 NSaved=  13.
 NSaved=13 IEnMin=13 EnMin= -232.957279082224     IErMin=13 ErrMin= 4.53D-05
 ErrMax= 4.53D-05  0.00D+00 EMaxC= 1.00D-01 BMatC= 1.43D-06 BMatP= 2.05D-06
 IDIUse=1 WtCom= 1.00D+00 WtEn= 0.00D+00
 Coeff-Com:  0.486D-03-0.904D-03-0.290D-02-0.492D-03 0.104D-01 0.173D-01
 Coeff-Com: -0.703D-01-0.412D+00 0.155D+00 0.122D+01-0.159D+01-0.295D+01
 Coeff-Com:  0.462D+01
 Coeff:      0.486D-03-0.904D-03-0.290D-02-0.492D-03 0.104D-01 0.173D-01
 Coeff:     -0.703D-01-0.412D+00 0.155D+00 0.122D+01-0.159D+01-0.295D+01
 Coeff:      0.462D+01
 Gap=     0.369 Goal=   None    Shift=    0.000
 Gap=     0.257 Goal=   None    Shift=    0.000
 RMSDP=1.23D-04 MaxDP=8.36D-03 DE=-1.10D-05 OVMax= 4.53D-02

 Cycle  14  Pass 1  IDiag  1:
 RMSU=  6.84D-05    CP:  9.61D-01  8.92D-01  1.07D+00  1.15D+00  2.09D+00
                    CP:  3.00D+00  3.00D+00  3.00D+00  3.00D+00  3.00D+00
                    CP:  3.00D+00  3.00D+00  3.00D+00
 E= -232.957320505594     Delta-E=       -0.000041423370 Rises=F Damp=F
 DIIS: error= 3.42D-05 at cycle  14 NSaved=  14.
 NSaved=14 IEnMin=14 EnMin= -232.957320505594     IErMin=14 ErrMin= 3.42D-05
 ErrMax= 3.42D-05  0.00D+00 EMaxC= 1.00D-01 BMatC= 8.21D-07 BMatP= 1.43D-06
 IDIUse=1 WtCom= 1.00D+00 WtEn= 0.00D+00
 Coeff-Com:  0.846D-03-0.182D-02-0.108D-01-0.166D-01 0.112D-01 0.127D+00
 Coeff-Com:  0.830D-01-0.735D+00-0.104D+01 0.211D+01-0.233D+00-0.215D+01
 Coeff-Com:  0.138D+01 0.148D+01
 Coeff:      0.846D-03-0.182D-02-0.108D-01-0.166D-01 0.112D-01 0.127D+00
 Coeff:      0.830D-01-0.735D+00-0.104D+01 0.211D+01-0.233D+00-0.215D+01
 Coeff:      0.138D+01 0.148D+01
 Gap=     0.370 Goal=   None    Shift=    0.000
 Gap=     0.258 Goal=   None    Shift=    0.000
 RMSDP=6.48D-05 MaxDP=4.27D-03 DE=-4.14D-05 OVMax= 2.37D-02

 Cycle  15  Pass 1  IDiag  1:
 RMSU=  6.40D-06    CP:  9.61D-01  8.88D-01  1.08D+00  1.17D+00  2.20D+00
                    CP:  3.00D+00  3.00D+00  3.00D+00  3.00D+00  3.00D+00
                    CP:  3.00D+00  3.00D+00  3.00D+00  1.93D+00
 E= -232.957330228054     Delta-E=       -0.000009722460 Rises=F Damp=F
 DIIS: error= 1.77D-05 at cycle  15 NSaved=  15.
 NSaved=15 IEnMin=15 EnMin= -232.957330228054     IErMin=15 ErrMin= 1.77D-05
 ErrMax= 1.77D-05  0.00D+00 EMaxC= 1.00D-01 BMatC= 1.95D-07 BMatP= 8.21D-07
 IDIUse=1 WtCom= 1.00D+00 WtEn= 0.00D+00
 Coeff-Com:  0.290D-03-0.646D-03-0.520D-02-0.908D-02 0.733D-02 0.710D-01
 Coeff-Com:  0.800D-01-0.309D+00-0.780D+00 0.883D+00 0.522D+00-0.243D+00
 Coeff-Com: -0.686D+00 0.346D+00 0.112D+01
 Coeff:      0.290D-03-0.646D-03-0.520D-02-0.908D-02 0.733D-02 0.710D-01
 Coeff:      0.800D-01-0.309D+00-0.780D+00 0.883D+00 0.522D+00-0.243D+00
 Coeff:     -0.686D+00 0.346D+00 0.112D+01
 Gap=     0.370 Goal=   None    Shift=    0.000
 Gap=     0.257 Goal=   None    Shift=    0.000
 RMSDP=2.42D-05 MaxDP=1.56D-03 DE=-9.72D-06 OVMax= 8.81D-03

 Cycle  16  Pass 1  IDiag  1:
 RMSU=  1.74D-06    CP:  9.61D-01  8.86D-01  1.08D+00  1.18D+00  2.24D+00
                    CP:  3.00D+00  3.00D+00  3.00D+00  3.00D+00  3.00D+00
                    CP:  3.00D+00  3.00D+00  3.00D+00  2.28D+00  1.48D+00
 E= -232.957331726684     Delta-E=       -0.000001498630 Rises=F Damp=F
 DIIS: error= 4.09D-06 at cycle  16 NSaved=  16.
 NSaved=16 IEnMin=16 EnMin= -232.957331726684     IErMin=16 ErrMin= 4.09D-06
 ErrMax= 4.09D-06  0.00D+00 EMaxC= 1.00D-01 BMatC= 2.15D-08 BMatP= 1.95D-07
 IDIUse=1 WtCom= 1.00D+00 WtEn= 0.00D+00
 Coeff-Com: -0.119D-03 0.245D-03 0.961D-03 0.104D-02-0.230D-03-0.886D-02
 Coeff-Com:  0.559D-02 0.823D-01 0.119D-01-0.305D+00 0.208D+00 0.315D+00
 Coeff-Com: -0.336D+00-0.200D+00 0.349D+00 0.876D+00
 Coeff:     -0.119D-03 0.245D-03 0.961D-03 0.104D-02-0.230D-03-0.886D-02
 Coeff:      0.559D-02 0.823D-01 0.119D-01-0.305D+00 0.208D+00 0.315D+00
 Coeff:     -0.336D+00-0.200D+00 0.349D+00 0.876D+00
 Gap=     0.370 Goal=   None    Shift=    0.000
 Gap=     0.258 Goal=   None    Shift=    0.000
 RMSDP=1.75D-05 MaxDP=1.13D-03 DE=-1.50D-06 OVMax= 6.45D-03

 Cycle  17  Pass 1  IDiag  1:
 RMSU=  1.69D-06    CP:  9.61D-01  8.85D-01  1.08D+00  1.18D+00  2.26D+00
                    CP:  3.00D+00  3.00D+00  3.00D+00  3.00D+00  3.00D+00
                    CP:  3.00D+00  3.00D+00  3.00D+00  2.53D+00  1.69D+00
                    CP:  2.52D-01
 E= -232.957332047040     Delta-E=       -0.000000320356 Rises=F Damp=F
 DIIS: error= 1.19D-05 at cycle  17 NSaved=  17.
 NSaved=17 IEnMin=17 EnMin= -232.957332047040     IErMin=16 ErrMin= 4.09D-06
 ErrMax= 1.19D-05  0.00D+00 EMaxC= 1.00D-01 BMatC= 6.84D-08 BMatP= 2.15D-08
 IDIUse=1 WtCom= 1.00D+00 WtEn= 0.00D+00
 Coeff-Com: -0.719D-04 0.154D-03 0.541D-03 0.523D-03 0.360D-03-0.404D-02
 Coeff-Com:  0.398D-02 0.434D-01-0.789D-02-0.155D+00 0.147D+00 0.227D+00
 Coeff-Com: -0.264D+00-0.192D+00 0.180D+00 0.671D+00 0.349D+00
 Coeff:     -0.719D-04 0.154D-03 0.541D-03 0.523D-03 0.360D-03-0.404D-02
 Coeff:      0.398D-02 0.434D-01-0.789D-02-0.155D+00 0.147D+00 0.227D+00
 Coeff:     -0.264D+00-0.192D+00 0.180D+00 0.671D+00 0.349D+00
 Gap=     0.370 Goal=   None    Shift=    0.000
 Gap=     0.258 Goal=   None    Shift=    0.000
 RMSDP=1.15D-06 MaxDP=5.58D-05 DE=-3.20D-07 OVMax= 2.45D-04

 Cycle  18  Pass 1  IDiag  1:
 RMSU=  1.46D-07    CP:  9.61D-01  8.85D-01  1.08D+00  1.18D+00  2.26D+00
                    CP:  3.00D+00  3.00D+00  3.00D+00  3.00D+00  3.00D+00
                    CP:  3.00D+00  3.00D+00  3.00D+00  2.52D+00  1.73D+00
                    CP:  6.91D-01  7.14D-01
 E= -232.957332063378     Delta-E=       -0.000000016337 Rises=F Damp=F
 DIIS: error= 2.51D-06 at cycle  18 NSaved=  18.
 NSaved=18 IEnMin=18 EnMin= -232.957332063378     IErMin=18 ErrMin= 2.51D-06
 ErrMax= 2.51D-06  0.00D+00 EMaxC= 1.00D-01 BMatC= 3.75D-09 BMatP= 2.15D-08
 IDIUse=1 WtCom= 1.00D+00 WtEn= 0.00D+00
 Coeff-Com:  0.391D-05-0.210D-05 0.458D-04 0.405D-05-0.351D-03-0.690D-03
 Coeff-Com: -0.126D-02 0.581D-02 0.181D-01-0.344D-01-0.185D-01-0.468D-01
 Coeff-Com:  0.108D+00 0.661D-02-0.940D-01 0.253D-01-0.282D+00 0.131D+01
 Coeff:      0.391D-05-0.210D-05 0.458D-04 0.405D-05-0.351D-03-0.690D-03
 Coeff:     -0.126D-02 0.581D-02 0.181D-01-0.344D-01-0.185D-01-0.468D-01
 Coeff:      0.108D+00 0.661D-02-0.940D-01 0.253D-01-0.282D+00 0.131D+01
 Gap=     0.370 Goal=   None    Shift=    0.000
 Gap=     0.258 Goal=   None    Shift=    0.000
 RMSDP=1.60D-06 MaxDP=1.02D-04 DE=-1.63D-08 OVMax= 5.91D-04

 Cycle  19  Pass 1  IDiag  1:
 RMSU=  9.34D-08    CP:  9.61D-01  8.85D-01  1.08D+00  1.18D+00  2.27D+00
                    CP:  3.00D+00  3.00D+00  3.00D+00  3.00D+00  3.00D+00
                    CP:  3.00D+00  3.00D+00  3.00D+00  2.54D+00  1.75D+00
                    CP:  6.46D-01  8.08D-01  1.21D+00
 E= -232.957332065497     Delta-E=       -0.000000002119 Rises=F Damp=F
 DIIS: error= 3.30D-06 at cycle  19 NSaved=  19.
 NSaved=19 IEnMin=19 EnMin= -232.957332065497     IErMin=18 ErrMin= 2.51D-06
 ErrMax= 3.30D-06  0.00D+00 EMaxC= 1.00D-01 BMatC= 5.38D-09 BMatP= 3.75D-09
 IDIUse=1 WtCom= 1.00D+00 WtEn= 0.00D+00
 Coeff-Com:  0.699D-05-0.150D-04-0.567D-04-0.825D-04-0.155D-04 0.397D-03
 Coeff-Com:  0.156D-03-0.341D-02-0.345D-02 0.718D-02-0.536D-02-0.339D-01
 Coeff-Com:  0.380D-01 0.279D-01-0.168D-01-0.486D-01-0.432D+00 0.454D+00
 Coeff-Com:  0.102D+01
 Coeff:      0.699D-05-0.150D-04-0.567D-04-0.825D-04-0.155D-04 0.397D-03
 Coeff:      0.156D-03-0.341D-02-0.345D-02 0.718D-02-0.536D-02-0.339D-01
 Coeff:      0.380D-01 0.279D-01-0.168D-01-0.486D-01-0.432D+00 0.454D+00
 Coeff:      0.102D+01
 Gap=     0.370 Goal=   None    Shift=    0.000
 Gap=     0.257 Goal=   None    Shift=    0.000
 RMSDP=2.53D-07 MaxDP=1.34D-05 DE=-2.12D-09 OVMax= 3.09D-05

 Cycle  20  Pass 1  IDiag  1:
 RMSU=  3.12D-08    CP:  9.61D-01  8.85D-01  1.08D+00  1.18D+00  2.27D+00
                    CP:  3.00D+00  3.00D+00  3.00D+00  3.00D+00  3.00D+00
                    CP:  3.00D+00  3.00D+00  3.00D+00  2.54D+00  1.76D+00
                    CP:  7.54D-01  7.49D-01  1.58D+00  1.30D+00
 E= -232.957332066911     Delta-E=       -0.000000001414 Rises=F Damp=F
 DIIS: error= 1.00D-06 at cycle  20 NSaved=  20.
 NSaved=20 IEnMin=20 EnMin= -232.957332066911     IErMin=20 ErrMin= 1.00D-06
 ErrMax= 1.00D-06  0.00D+00 EMaxC= 1.00D-01 BMatC= 5.15D-10 BMatP= 3.75D-09
 IDIUse=1 WtCom= 1.00D+00 WtEn= 0.00D+00
 Coeff-Com: -0.397D-05 0.598D-05 0.148D-04 0.388D-04 0.723D-04-0.224D-03
 Coeff-Com:  0.338D-03 0.149D-02-0.277D-02-0.471D-02 0.108D-01 0.129D-01
 Coeff-Com: -0.265D-01 0.223D-02 0.295D-01 0.866D-02-0.506D-01-0.202D+00
 Coeff-Com: -0.178D+00 0.140D+01
 Coeff:     -0.397D-05 0.598D-05 0.148D-04 0.388D-04 0.723D-04-0.224D-03
 Coeff:      0.338D-03 0.149D-02-0.277D-02-0.471D-02 0.108D-01 0.129D-01
 Coeff:     -0.265D-01 0.223D-02 0.295D-01 0.866D-02-0.506D-01-0.202D+00
 Coeff:     -0.178D+00 0.140D+01
 Gap=     0.370 Goal=   None    Shift=    0.000
 Gap=     0.257 Goal=   None    Shift=    0.000
 RMSDP=1.13D-07 MaxDP=6.94D-06 DE=-1.41D-09 OVMax= 1.28D-05

 Cycle  21  Pass 1  IDiag  1:
 Restarting incremental Fock formation.
 E= -232.957332067090     Delta-E=       -0.000000000180 Rises=F Damp=F
 DIIS: error= 9.50D-08 at cycle  21 NSaved=  20.
 NSaved=20 IEnMin=20 EnMin= -232.957332067090     IErMin=20 ErrMin= 9.50D-08
 ErrMax= 9.50D-08  0.00D+00 EMaxC= 1.00D-01 BMatC= 7.54D-12 BMatP= 5.15D-10
 IDIUse=1 WtCom= 1.00D+00 WtEn= 0.00D+00
 Coeff-Com:  0.172D-06-0.238D-05-0.691D-05-0.239D-04 0.566D-04-0.254D-04
 Coeff-Com:  0.394D-03 0.107D-02-0.243D-02 0.594D-03 0.336D-02-0.209D-02
 Coeff-Com: -0.304D-02-0.174D-02 0.796D-02 0.657D-01-0.174D-01-0.201D+00
 Coeff-Com: -0.106D+00 0.125D+01
 Coeff:      0.172D-06-0.238D-05-0.691D-05-0.239D-04 0.566D-04-0.254D-04
 Coeff:      0.394D-03 0.107D-02-0.243D-02 0.594D-03 0.336D-02-0.209D-02
 Coeff:     -0.304D-02-0.174D-02 0.796D-02 0.657D-01-0.174D-01-0.201D+00
 Coeff:     -0.106D+00 0.125D+01
 Gap=     0.370 Goal=   None    Shift=    0.000
 Gap=     0.257 Goal=   None    Shift=    0.000
 RMSDP=1.79D-08 MaxDP=1.07D-06 DE=-1.80D-10 OVMax= 3.27D-06

 Cycle  22  Pass 1  IDiag  1:
 RMSU=  1.79D-08    CP:  1.00D+00
 E= -232.957332067099     Delta-E=       -0.000000000008 Rises=F Damp=F
 DIIS: error= 1.46D-08 at cycle  22 NSaved=  20.
 NSaved=20 IEnMin=20 EnMin= -232.957332067099     IErMin=20 ErrMin= 1.46D-08
 ErrMax= 1.46D-08  0.00D+00 EMaxC= 1.00D-01 BMatC= 3.91D-13 BMatP= 7.54D-12
 IDIUse=1 WtCom= 1.00D+00 WtEn= 0.00D+00
 Coeff-Com:  0.354D-05 0.391D-05-0.525D-05-0.337D-04-0.496D-04 0.142D-03
 Coeff-Com:  0.594D-03-0.444D-03-0.741D-03-0.530D-03 0.184D-02-0.529D-03
 Coeff-Com: -0.223D-02 0.550D-03 0.982D-02 0.145D-01 0.135D-02-0.146D+00
 Coeff-Com:  0.368D-01 0.109D+01
 Coeff:      0.354D-05 0.391D-05-0.525D-05-0.337D-04-0.496D-04 0.142D-03
 Coeff:      0.594D-03-0.444D-03-0.741D-03-0.530D-03 0.184D-02-0.529D-03
 Coeff:     -0.223D-02 0.550D-03 0.982D-02 0.145D-01 0.135D-02-0.146D+00
 Coeff:      0.368D-01 0.109D+01
 Gap=     0.370 Goal=   None    Shift=    0.000
 Gap=     0.257 Goal=   None    Shift=    0.000
 RMSDP=9.93D-09 MaxDP=5.40D-07 DE=-8.24D-12 OVMax= 2.91D-06

 SCF Done:  E(UM062X) =  -232.957332067     A.U. after   22 cycles
            NFock= 22  Conv=0.99D-08     -V/T= 2.0038
 <Sx>= 0.0000 <Sy>= 0.0000 <Sz>= 0.5000 <S**2>= 0.7544 S= 0.5022
 <L.S>= 0.000000000000E+00
 KE= 2.320676514120D+02 PE=-9.011758763476D+02 EE= 2.569858138041D+02
 Annihilation of the first spin contaminant:
 S**2 before annihilation     0.7544,   after     0.7500
 Leave Link  502 at Sat Mar  9 13:23:30 2019, MaxMem=   671088640 cpu:            2265.1 elap:             113.3
 (Enter /shared/centos7/gaussian/g16/l801.exe)
 DoSCS=F DFT=T ScalE2(SS,OS)=  1.000000  1.000000
 Range of M.O.s used for correlation:     1   251
 NBasis=   251 NAE=    21 NBE=    20 NFC=     0 NFV=     0
 NROrb=    251 NOA=    21 NOB=    20 NVA=   230 NVB=   231

 **** Warning!!: The largest alpha MO coefficient is  0.42513963D+02


 **** Warning!!: The largest beta MO coefficient is  0.40788397D+02

 Leave Link  801 at Sat Mar  9 13:23:30 2019, MaxMem=   671088640 cpu:               0.9 elap:               0.1
 (Enter /shared/centos7/gaussian/g16/l1101.exe)
 Using compressed storage, NAtomX=    14.
 Will process     15 centers per pass.
 Leave Link 1101 at Sat Mar  9 13:23:30 2019, MaxMem=   671088640 cpu:               8.9 elap:               0.5
 (Enter /shared/centos7/gaussian/g16/l1102.exe)
 Symmetrizing basis deriv contribution to polar:
 IMax=3 JMax=2 DiffMx= 0.00D+00
 Leave Link 1102 at Sat Mar  9 13:23:31 2019, MaxMem=   671088640 cpu:               1.2 elap:               0.1
 (Enter /shared/centos7/gaussian/g16/l1110.exe)
 Forming Gx(P) for the SCF density, NAtomX=    14.
 Integral derivatives from FoFJK, PRISM(SPDF).
 Do as many integral derivatives as possible in FoFJK.
 G2DrvN: MDV=     671087496.
 G2DrvN: will do    15 centers at a time, making    1 passes.
 Calling FoFCou, ICntrl=  3107 FMM=F I1Cent=   0 AccDes= 0.00D+00.
 FoFJK:  IHMeth= 1 ICntrl=    3107 DoSepK=F KAlg= 0 I1Cent=           0 FoldK=F
 IRaf=         0 NMat=       1 IRICut=       1 DoRegI=T DoRafI=F ISym2E= 0 IDoP0=0 IntGTp=1.
 FoFCou: FMM=F IPFlag=           0 FMFlag=      100000 FMFlg1=           0
         NFxFlg=           0 DoJE=F BraDBF=F KetDBF=F FulRan=T
         wScrn=  0.000000 ICntrl=      3107 IOpCl=  1 I1Cent=           0 NGrid=           0
         NMat0=    1 NMatS0=      1 NMatT0=    0 NMatD0=    1 NMtDS0=    0 NMtDT0=    0
 Symmetry not used in FoFCou.
 End of G2Drv F.D. properties file   721 does not exist.
 End of G2Drv F.D. properties file   722 does not exist.
 End of G2Drv F.D. properties file   788 does not exist.
 Leave Link 1110 at Sat Mar  9 13:25:55 2019, MaxMem=   671088640 cpu:            2884.8 elap:             144.3
 (Enter /shared/centos7/gaussian/g16/l1002.exe)
 Minotr:  UHF open shell wavefunction.
          IDoAtm=11111111111111
          Direct CPHF calculation.
          Differentiating once with respect to nuclear coordinates.
          Requested convergence is 1.0D-08 RMS, and 1.0D-07 maximum.
          Secondary convergence is 1.0D-12 RMS, and 1.0D-12 maximum.
          NewPWx=T KeepS1=F KeepF1=F KeepIn=T MapXYZ=F SortEE=F KeepMc=T.
         4250 words used for storage of precomputed grid.
 Two-electron integrals replicated using symmetry.
          MDV=     671088640 using IRadAn=       1.
          Solving linear equations simultaneously, MaxMat=     380.
 FoF2E skips out because all densities are zero.
 CalDSu exits because no D1Ps are significant.
 FoFJK:  IHMeth= 1 ICntrl=       0 DoSepK=F KAlg= 0 I1Cent=           0 FoldK=F
 IRaf= 980000000 NMat=      42 IRICut=     105 DoRegI=T DoRafI=T ISym2E= 2 IDoP0=3 IntGTp=3.
 FoFCou: FMM=F IPFlag=           0 FMFlag=      100000 FMFlg1=           0
         NFxFlg=           0 DoJE=F BraDBF=F KetDBF=F FulRan=T
         wScrn=  0.000000 ICntrl=         0 IOpCl=  1 I1Cent=           0 NGrid=           0
         NMat0=   42 NMatS0=     42 NMatT0=    0 NMatD0=   42 NMtDS0=    0 NMtDT0=    0
 Integrals replicated using symmetry in FoFCou.
 Raff kept on since  96.17% of shell-pairs survive, threshold=   0.20 IRatSp=96.
          There are    45 degrees of freedom in the 1st order CPHF.  IDoFFX=6 NUNeed=     0.
     39 vectors produced by pass  0 Test12= 2.10D-14 2.22D-09 XBig12= 1.19D-01 1.06D-01.
 AX will form    39 AO Fock derivatives at one time.
     39 vectors produced by pass  1 Test12= 2.10D-14 2.22D-09 XBig12= 8.48D-03 1.74D-02.
     39 vectors produced by pass  2 Test12= 2.10D-14 2.22D-09 XBig12= 7.59D-04 5.00D-03.
     39 vectors produced by pass  3 Test12= 2.10D-14 2.22D-09 XBig12= 5.50D-06 2.71D-04.
     39 vectors produced by pass  4 Test12= 2.10D-14 2.22D-09 XBig12= 5.29D-08 1.86D-05.
     39 vectors produced by pass  5 Test12= 2.10D-14 2.22D-09 XBig12= 6.43D-10 2.86D-06.
     33 vectors produced by pass  6 Test12= 2.10D-14 2.22D-09 XBig12= 5.85D-12 2.85D-07.
     12 vectors produced by pass  7 Test12= 2.10D-14 2.22D-09 XBig12= 4.00D-14 1.58D-08.
 InvSVY:  IOpt=1 It=  1 EMax= 2.11D-15
 Solved reduced A of dimension   279 with    39 vectors.
 End of Minotr F.D. properties file   721 does not exist.
 End of Minotr F.D. properties file   722 does not exist.
 End of Minotr F.D. properties file   788 does not exist.
 Leave Link 1002 at Sat Mar  9 13:29:39 2019, MaxMem=   671088640 cpu:            4488.1 elap:             224.5
 (Enter /shared/centos7/gaussian/g16/l601.exe)
 Copying SCF densities to generalized density rwf, IOpCl= 1 IROHF=0.

 **********************************************************************

            Population analysis using the SCF density.

 **********************************************************************

 Orbital symmetries:
 Alpha Orbitals:
       Occupied  (A) (A) (A) (A) (A) (A) (A) (A) (A) (A) (A) (A)
                 (A) (A) (A) (A) (A) (A) (A) (A) (A)
       Virtual   (A) (A) (A) (A) (A) (A) (A) (A) (A) (A) (A) (A)
                 (A) (A) (A) (A) (A) (A) (A) (A) (A) (A) (A) (A)
                 (A) (A) (A) (A) (A) (A) (A) (A) (A) (A) (A) (A)
                 (A) (A) (A) (A) (A) (A) (A) (A) (A) (A) (A) (A)
                 (A) (A) (A) (A) (A) (A) (A) (A) (A) (A) (A) (A)
                 (A) (A) (A) (A) (A) (A) (A) (A) (A) (A) (A) (A)
                 (A) (A) (A) (A) (A) (A) (A) (A) (A) (A) (A) (A)
                 (A) (A) (A) (A) (A) (A) (A) (A) (A) (A) (A) (A)
                 (A) (A) (A) (A) (A) (A) (A) (A) (A) (A) (A) (A)
                 (A) (A) (A) (A) (A) (A) (A) (A) (A) (A) (A) (A)
                 (A) (A) (A) (A) (A) (A) (A) (A) (A) (A) (A) (A)
                 (A) (A) (A) (A) (A) (A) (A) (A) (A) (A) (A) (A)
                 (A) (A) (A) (A) (A) (A) (A) (A) (A) (A) (A) (A)
                 (A) (A) (A) (A) (A) (A) (A) (A) (A) (A) (A) (A)
                 (A) (A) (A) (A) (A) (A) (A) (A) (A) (A) (A) (A)
                 (A) (A) (A) (A) (A) (A) (A) (A) (A) (A) (A) (A)
                 (A) (A) (A) (A) (A) (A) (A) (A) (A) (A) (A) (A)
                 (A) (A) (A) (A) (A) (A) (A) (A) (A) (A) (A) (A)
                 (A) (A) (A) (A) (A) (A) (A) (A) (A) (A) (A) (A)
                 (A) (A)
 Beta  Orbitals:
       Occupied  (A) (A) (A) (A) (A) (A) (A) (A) (A) (A) (A) (A)
                 (A) (A) (A) (A) (A) (A) (A) (A)
       Virtual   (A) (A) (A) (A) (A) (A) (A) (A) (A) (A) (A) (A)
                 (A) (A) (A) (A) (A) (A) (A) (A) (A) (A) (A) (A)
                 (A) (A) (A) (A) (A) (A) (A) (A) (A) (A) (A) (A)
                 (A) (A) (A) (A) (A) (A) (A) (A) (A) (A) (A) (A)
                 (A) (A) (A) (A) (A) (A) (A) (A) (A) (A) (A) (A)
                 (A) (A) (A) (A) (A) (A) (A) (A) (A) (A) (A) (A)
                 (A) (A) (A) (A) (A) (A) (A) (A) (A) (A) (A) (A)
                 (A) (A) (A) (A) (A) (A) (A) (A) (A) (A) (A) (A)
                 (A) (A) (A) (A) (A) (A) (A) (A) (A) (A) (A) (A)
                 (A) (A) (A) (A) (A) (A) (A) (A) (A) (A) (A) (A)
                 (A) (A) (A) (A) (A) (A) (A) (A) (A) (A) (A) (A)
                 (A) (A) (A) (A) (A) (A) (A) (A) (A) (A) (A) (A)
                 (A) (A) (A) (A) (A) (A) (A) (A) (A) (A) (A) (A)
                 (A) (A) (A) (A) (A) (A) (A) (A) (A) (A) (A) (A)
                 (A) (A) (A) (A) (A) (A) (A) (A) (A) (A) (A) (A)
                 (A) (A) (A) (A) (A) (A) (A) (A) (A) (A) (A) (A)
                 (A) (A) (A) (A) (A) (A) (A) (A) (A) (A) (A) (A)
                 (A) (A) (A) (A) (A) (A) (A) (A) (A) (A) (A) (A)
                 (A) (A) (A) (A) (A) (A) (A) (A) (A) (A) (A) (A)
                 (A) (A) (A)
 The electronic state is 2-A.
 Alpha  occ. eigenvalues --  -19.66496 -10.59168 -10.54012 -10.53709 -10.53078
 Alpha  occ. eigenvalues --   -1.15698  -0.90505  -0.81142  -0.73144  -0.66804
 Alpha  occ. eigenvalues --   -0.58328  -0.54455  -0.52898  -0.50749  -0.48526
 Alpha  occ. eigenvalues --   -0.46226  -0.43172  -0.40830  -0.40377  -0.38164
 Alpha  occ. eigenvalues --   -0.35741
 Alpha virt. eigenvalues --    0.01233   0.02544   0.03128   0.03426   0.06219
 Alpha virt. eigenvalues --    0.06438   0.06635   0.07159   0.07316   0.10422
 Alpha virt. eigenvalues --    0.10729   0.11449   0.11759   0.11931   0.14161
 Alpha virt. eigenvalues --    0.16108   0.17890   0.19872   0.21353   0.21524
 Alpha virt. eigenvalues --    0.23472   0.24593   0.25209   0.25234   0.26233
 Alpha virt. eigenvalues --    0.27651   0.28050   0.29383   0.30146   0.30820
 Alpha virt. eigenvalues --    0.32453   0.33142   0.37571   0.40352   0.42201
 Alpha virt. eigenvalues --    0.44110   0.45014   0.47469   0.48719   0.50816
 Alpha virt. eigenvalues --    0.51976   0.52605   0.55541   0.56781   0.57979
 Alpha virt. eigenvalues --    0.58572   0.60407   0.61152   0.61835   0.64104
 Alpha virt. eigenvalues --    0.65242   0.66731   0.67531   0.68911   0.69286
 Alpha virt. eigenvalues --    0.70857   0.75595   0.78031   0.80526   0.82951
 Alpha virt. eigenvalues --    0.84681   0.87173   0.88245   0.89502   0.95088
 Alpha virt. eigenvalues --    0.98276   1.00880   1.03888   1.07481   1.08471
 Alpha virt. eigenvalues --    1.10784   1.11903   1.12810   1.15333   1.16324
 Alpha virt. eigenvalues --    1.16706   1.17971   1.18753   1.19846   1.21586
 Alpha virt. eigenvalues --    1.21876   1.24729   1.26778   1.28179   1.29199
 Alpha virt. eigenvalues --    1.29911   1.33735   1.36149   1.36790   1.38242
 Alpha virt. eigenvalues --    1.39564   1.42106   1.43561   1.46353   1.47253
 Alpha virt. eigenvalues --    1.48375   1.49681   1.51137   1.54024   1.55480
 Alpha virt. eigenvalues --    1.56624   1.59028   1.59526   1.63982   1.64972
 Alpha virt. eigenvalues --    1.67673   1.70795   1.72609   1.73393   1.78852
 Alpha virt. eigenvalues --    1.85511   2.07790   2.13952   2.37638   2.39447
 Alpha virt. eigenvalues --    2.42724   2.47499   2.53133   2.56591   2.58545
 Alpha virt. eigenvalues --    2.60677   2.69499   2.73486   2.76616   2.78793
 Alpha virt. eigenvalues --    2.82187   2.85519   2.86493   2.88502   2.92913
 Alpha virt. eigenvalues --    2.95974   3.00298   3.01105   3.03466   3.04958
 Alpha virt. eigenvalues --    3.09285   3.14204   3.15848   3.16996   3.20133
 Alpha virt. eigenvalues --    3.23074   3.25142   3.26837   3.29082   3.31549
 Alpha virt. eigenvalues --    3.34163   3.36649   3.39528   3.40237   3.44301
 Alpha virt. eigenvalues --    3.44688   3.47868   3.53323   3.55196   3.58127
 Alpha virt. eigenvalues --    3.60111   3.61697   3.65027   3.65148   3.68999
 Alpha virt. eigenvalues --    3.72228   3.73623   3.78536   3.80608   3.81030
 Alpha virt. eigenvalues --    3.84623   3.90385   3.91149   3.93500   3.95229
 Alpha virt. eigenvalues --    3.97881   3.99647   4.00250   4.01270   4.02853
 Alpha virt. eigenvalues --    4.05610   4.14609   4.18457   4.19534   4.20585
 Alpha virt. eigenvalues --    4.23316   4.25130   4.26354   4.31566   4.32763
 Alpha virt. eigenvalues --    4.35620   4.37029   4.38490   4.41501   4.46988
 Alpha virt. eigenvalues --    4.52030   4.54382   4.55520   4.56763   4.57322
 Alpha virt. eigenvalues --    4.60499   4.63813   4.67128   4.69555   4.74518
 Alpha virt. eigenvalues --    4.91332   5.05228   5.08717   5.11222   5.20857
 Alpha virt. eigenvalues --    5.22873   5.29283   5.32446   5.37924   5.40519
 Alpha virt. eigenvalues --    5.44033   5.46570   5.51903   5.59279   5.64801
 Alpha virt. eigenvalues --    5.66829   5.69926   5.89663   5.95613   6.64913
 Alpha virt. eigenvalues --    6.78246   6.79316   7.18834   7.25165   7.54261
 Alpha virt. eigenvalues --   24.29990  24.35219  24.45195  24.50382  50.07516
  Beta  occ. eigenvalues --  -19.64989 -10.59214 -10.54012 -10.53695 -10.53075
  Beta  occ. eigenvalues --   -1.09713  -0.90193  -0.80495  -0.72029  -0.66357
  Beta  occ. eigenvalues --   -0.55352  -0.53346  -0.52018  -0.48124  -0.47250
  Beta  occ. eigenvalues --   -0.45365  -0.41328  -0.40296  -0.40049  -0.33597
  Beta virt. eigenvalues --   -0.07852   0.01242   0.02526   0.03132   0.03464
  Beta virt. eigenvalues --    0.06255   0.06411   0.06660   0.07151   0.07408
  Beta virt. eigenvalues --    0.10456   0.10815   0.11492   0.11820   0.12065
  Beta virt. eigenvalues --    0.14172   0.16114   0.18026   0.20098   0.21493
  Beta virt. eigenvalues --    0.21595   0.23553   0.24610   0.25307   0.25359
  Beta virt. eigenvalues --    0.26374   0.27569   0.28054   0.29341   0.30397
  Beta virt. eigenvalues --    0.30794   0.32729   0.33331   0.37191   0.40468
  Beta virt. eigenvalues --    0.42250   0.44127   0.45124   0.47486   0.48860
  Beta virt. eigenvalues --    0.50878   0.52065   0.52501   0.55923   0.56796
  Beta virt. eigenvalues --    0.57965   0.58595   0.60477   0.61240   0.61835
  Beta virt. eigenvalues --    0.64084   0.65198   0.66770   0.67524   0.68913
  Beta virt. eigenvalues --    0.69235   0.70857   0.75627   0.78135   0.80431
  Beta virt. eigenvalues --    0.82988   0.84704   0.87393   0.88309   0.89628
  Beta virt. eigenvalues --    0.95156   0.98424   1.01191   1.04057   1.07786
  Beta virt. eigenvalues --    1.08677   1.10968   1.12764   1.14014   1.15481
  Beta virt. eigenvalues --    1.16561   1.16879   1.18723   1.18914   1.20183
  Beta virt. eigenvalues --    1.21708   1.21985   1.24896   1.26871   1.28530
  Beta virt. eigenvalues --    1.29323   1.30041   1.33959   1.36290   1.37072
  Beta virt. eigenvalues --    1.38728   1.39606   1.42265   1.43748   1.46258
  Beta virt. eigenvalues --    1.47254   1.48741   1.49777   1.51641   1.54306
  Beta virt. eigenvalues --    1.55317   1.57090   1.59365   1.59885   1.63986
  Beta virt. eigenvalues --    1.65056   1.67764   1.71154   1.73266   1.74986
  Beta virt. eigenvalues --    1.81221   1.86541   2.08585   2.15062   2.38621
  Beta virt. eigenvalues --    2.39605   2.42993   2.47842   2.53166   2.56619
  Beta virt. eigenvalues --    2.58683   2.61261   2.69531   2.73476   2.76655
  Beta virt. eigenvalues --    2.78742   2.82188   2.85521   2.86449   2.88486
  Beta virt. eigenvalues --    2.92850   2.95914   3.00297   3.01074   3.03445
  Beta virt. eigenvalues --    3.04861   3.08930   3.14167   3.15743   3.16870
  Beta virt. eigenvalues --    3.20069   3.22881   3.24841   3.26685   3.29111
  Beta virt. eigenvalues --    3.31474   3.34114   3.36533   3.39471   3.40195
  Beta virt. eigenvalues --    3.44247   3.44667   3.47477   3.52825   3.55273
  Beta virt. eigenvalues --    3.57906   3.60063   3.61541   3.64902   3.65132
  Beta virt. eigenvalues --    3.68955   3.72192   3.73615   3.78302   3.80657
  Beta virt. eigenvalues --    3.80849   3.84577   3.90344   3.90977   3.93418
  Beta virt. eigenvalues --    3.95119   3.97759   3.99662   4.00209   4.01170
  Beta virt. eigenvalues --    4.02804   4.05556   4.14460   4.18402   4.19488
  Beta virt. eigenvalues --    4.20324   4.23304   4.24897   4.26365   4.31535
  Beta virt. eigenvalues --    4.32552   4.35391   4.37051   4.38436   4.41383
  Beta virt. eigenvalues --    4.46903   4.51898   4.54257   4.55488   4.56700
  Beta virt. eigenvalues --    4.57313   4.60482   4.63854   4.67113   4.69661
  Beta virt. eigenvalues --    4.74525   4.92297   5.08303   5.13224   5.18494
  Beta virt. eigenvalues --    5.22068   5.24657   5.30875   5.34421   5.38275
  Beta virt. eigenvalues --    5.41099   5.44553   5.46940   5.52447   5.59294
  Beta virt. eigenvalues --    5.64857   5.67020   5.69988   5.93061   5.96243
  Beta virt. eigenvalues --    6.66301   6.91196   6.92213   7.27964   7.32316
  Beta virt. eigenvalues --    7.58805  24.29987  24.35183  24.45161  24.50232
  Beta virt. eigenvalues --   50.07116
          Condensed to atoms (all electrons):
               1          2          3          4          5          6
     1  O    8.152802   0.029979  -0.131399  -0.004327   0.217151  -0.000388
     2  C    0.029979   5.463657  -0.040839   0.063302   0.024545   0.432988
     3  C   -0.131399  -0.040839   5.576123  -0.009624   0.052592  -0.051983
     4  C   -0.004327   0.063302  -0.009624   5.229500   0.040740  -0.024565
     5  C    0.217151   0.024545   0.052592   0.040740   5.177223   0.015095
     6  H   -0.000388   0.432988  -0.051983  -0.024565   0.015095   0.522059
     7  H   -0.000272   0.449324   0.005807  -0.058439  -0.034052  -0.027372
     8  H    0.000046  -0.038953   0.427078   0.012024  -0.023881  -0.005020
     9  H    0.001942  -0.014609   0.467678  -0.023610  -0.060823  -0.005495
    10  H    0.000015  -0.047507   0.020323   0.417294   0.000644  -0.006320
    11  H    0.000011  -0.026639   0.004730   0.411440  -0.010470  -0.005886
    12  H    0.000727  -0.021861  -0.027241   0.414318   0.010460   0.005981
    13  H   -0.035534   0.032909  -0.069497  -0.013690   0.435005  -0.000438
    14  H   -0.026545  -0.009463  -0.029138  -0.001807   0.408272  -0.000381
               7          8          9         10         11         12
     1  O   -0.000272   0.000046   0.001942   0.000015   0.000011   0.000727
     2  C    0.449324  -0.038953  -0.014609  -0.047507  -0.026639  -0.021861
     3  C    0.005807   0.427078   0.467678   0.020323   0.004730  -0.027241
     4  C   -0.058439   0.012024  -0.023610   0.417294   0.411440   0.414318
     5  C   -0.034052  -0.023881  -0.060823   0.000644  -0.010470   0.010460
     6  H   -0.027372  -0.005020  -0.005495  -0.006320  -0.005886   0.005981
     7  H    0.505608  -0.006129   0.003610  -0.002967   0.005374  -0.007439
     8  H   -0.006129   0.507665  -0.024207  -0.000200   0.000076  -0.000229
     9  H    0.003610  -0.024207   0.478992  -0.000154   0.000318   0.000328
    10  H   -0.002967  -0.000200  -0.000154   0.522652  -0.021939  -0.024639
    11  H    0.005374   0.000076   0.000318  -0.021939   0.534103  -0.038303
    12  H   -0.007439  -0.000229   0.000328  -0.024639  -0.038303   0.556691
    13  H   -0.000460  -0.005630   0.004572  -0.000076   0.000196  -0.000590
    14  H    0.000216   0.005109  -0.007594   0.000339   0.000163  -0.004247
              13         14
     1  O   -0.035534  -0.026545
     2  C    0.032909  -0.009463
     3  C   -0.069497  -0.029138
     4  C   -0.013690  -0.001807
     5  C    0.435005   0.408272
     6  H   -0.000438  -0.000381
     7  H   -0.000460   0.000216
     8  H   -0.005630   0.005109
     9  H    0.004572  -0.007594
    10  H   -0.000076   0.000339
    11  H    0.000196   0.000163
    12  H   -0.000590  -0.004247
    13  H    0.536202  -0.038135
    14  H   -0.038135   0.533301
          Atomic-Atomic Spin Densities.
               1          2          3          4          5          6
     1  O    0.958465   0.000313  -0.015099  -0.000819  -0.015089  -0.000024
     2  C    0.000313   0.007670   0.002986  -0.006348  -0.006434   0.003876
     3  C   -0.015099   0.002986   0.014867  -0.006123   0.021972  -0.001046
     4  C   -0.000819  -0.006348  -0.006123   0.009705   0.006368  -0.002667
     5  C   -0.015089  -0.006434   0.021972   0.006368  -0.078745  -0.000086
     6  H   -0.000024   0.003876  -0.001046  -0.002667  -0.000086   0.001947
     7  H    0.000108  -0.000444  -0.002460   0.001181   0.001557  -0.000372
     8  H    0.003602  -0.001615  -0.002402   0.001718  -0.000783  -0.000574
     9  H    0.000927   0.003093  -0.002690  -0.001366   0.000320   0.000245
    10  H   -0.000007  -0.002979   0.000266   0.002438   0.000142  -0.000303
    11  H    0.000030   0.000800  -0.000183  -0.000831  -0.000119   0.000120
    12  H    0.000110   0.004363  -0.000491  -0.003023  -0.000317   0.000042
    13  H   -0.006420   0.001372   0.016344  -0.002396  -0.001469   0.000231
    14  H   -0.031077  -0.009753  -0.010622   0.008194   0.036194  -0.000271
               7          8          9         10         11         12
     1  O    0.000108   0.003602   0.000927  -0.000007   0.000030   0.000110
     2  C   -0.000444  -0.001615   0.003093  -0.002979   0.000800   0.004363
     3  C   -0.002460  -0.002402  -0.002690   0.000266  -0.000183  -0.000491
     4  C    0.001181   0.001718  -0.001366   0.002438  -0.000831  -0.003023
     5  C    0.001557  -0.000783   0.000320   0.000142  -0.000119  -0.000317
     6  H   -0.000372  -0.000574   0.000245  -0.000303   0.000120   0.000042
     7  H    0.000514   0.000345  -0.000034   0.000166  -0.000016  -0.000151
     8  H    0.000345   0.000703  -0.000965   0.000036  -0.000026  -0.000043
     9  H   -0.000034  -0.000965   0.002182  -0.000039   0.000096   0.000067
    10  H    0.000166   0.000036  -0.000039   0.001503  -0.000184  -0.000355
    11  H   -0.000016  -0.000026   0.000096  -0.000184  -0.000167   0.000443
    12  H   -0.000151  -0.000043   0.000067  -0.000355   0.000443  -0.001041
    13  H   -0.000467  -0.002037   0.000578  -0.000090   0.000035   0.000470
    14  H    0.000356   0.001514  -0.002141   0.000283  -0.000395  -0.002053
              13         14
     1  O   -0.006420  -0.031077
     2  C    0.001372  -0.009753
     3  C    0.016344  -0.010622
     4  C   -0.002396   0.008194
     5  C   -0.001469   0.036194
     6  H    0.000231  -0.000271
     7  H   -0.000467   0.000356
     8  H   -0.002037   0.001514
     9  H    0.000578  -0.002141
    10  H   -0.000090   0.000283
    11  H    0.000035  -0.000395
    12  H    0.000470  -0.002053
    13  H    0.045544  -0.019041
    14  H   -0.019041   0.119737
 Mulliken charges and spin densities:
               1          2
     1  O   -0.204207   0.895020
     2  C   -0.296834  -0.003099
     3  C   -0.194610   0.015318
     4  C   -0.452555   0.006031
     5  C   -0.252500  -0.036489
     6  H    0.151725   0.001117
     7  H    0.167190   0.000283
     8  H    0.152252  -0.000528
     9  H    0.179053   0.000273
    10  H    0.142537   0.000875
    11  H    0.146826  -0.000398
    12  H    0.136046  -0.001979
    13  H    0.155167   0.032653
    14  H    0.169910   0.090924
 Sum of Mulliken charges =  -0.00000   1.00000
 Mulliken charges and spin densities with hydrogens summed into heavy atoms:
               1          2
     1  O   -0.204207   0.895020
     2  C    0.022082  -0.001700
     3  C    0.136695   0.015063
     4  C   -0.027147   0.004529
     5  C    0.072577   0.087088
 APT charges:
               1
     1  O   -0.313587
     2  C   -0.857636
     3  C   -0.629612
     4  C   -1.148970
     5  C   -0.408468
     6  H    0.472987
     7  H    0.358311
     8  H    0.402586
     9  H    0.353213
    10  H    0.569695
    11  H    0.318562
    12  H    0.242406
    13  H    0.338022
    14  H    0.302492
 Sum of APT charges =  -0.00000
 APT charges with hydrogens summed into heavy atoms:
               1
     1  O   -0.313587
     2  C   -0.026339
     3  C    0.126188
     4  C   -0.018307
     5  C    0.232046
 Electronic spatial extent (au):  <R**2>=            566.3099
 Charge=             -0.0000 electrons
 Dipole moment (field-independent basis, Debye):
    X=             -2.2671    Y=             -0.0966    Z=              0.4696  Tot=              2.3172
 Quadrupole moment (field-independent basis, Debye-Ang):
   XX=            -39.9674   YY=            -31.7980   ZZ=            -32.3272
   XY=              0.0689   XZ=              1.0986   YZ=              0.2595
 Traceless Quadrupole moment (field-independent basis, Debye-Ang):
   XX=             -5.2698   YY=              2.8995   ZZ=              2.3703
   XY=              0.0689   XZ=              1.0986   YZ=              0.2595
 Octapole moment (field-independent basis, Debye-Ang**2):
  XXX=            -14.8102  YYY=             -0.7937  ZZZ=             -0.0761  XYY=              4.3292
  XXY=              2.3390  XXZ=              2.1769  XZZ=              2.8256  YZZ=             -0.4604
  YYZ=             -0.2451  XYZ=              1.1533
 Hexadecapole moment (field-independent basis, Debye-Ang**3):
 XXXX=           -582.2038 YYYY=           -132.8663 ZZZZ=            -71.7705 XXXY=              3.1713
 XXXZ=              0.8400 YYYX=             -4.4744 YYYZ=              0.1938 ZZZX=              1.2552
 ZZZY=              0.5225 XXYY=           -111.5038 XXZZ=           -102.7306 YYZZ=            -36.3744
 XXYZ=              1.3964 YYXZ=             -0.3213 ZZXY=             -1.2475
 N-N= 1.791650790645D+02 E-N=-9.011758767459D+02  KE= 2.320676514120D+02
  Exact polarizability:   0.000   0.000   0.000   0.000   0.000   0.000
 Approx polarizability:  64.320   0.997  58.373  -1.806  -0.396  58.836
                          Isotropic Fermi Contact Couplings
        Atom                 a.u.       MegaHertz       Gauss      10(-4) cm-1
     1  O(17)              0.13349     -80.92156     -28.87483     -26.99253
     2  C(13)             -0.00052      -0.58468      -0.20863      -0.19503
     3  C(13)              0.00579       6.51345       2.32416       2.17265
     4  C(13)              0.00130       1.46637       0.52324       0.48913
     5  C(13)             -0.03123     -35.11330     -12.52930     -11.71254
     6  H(1)               0.00063       2.82785       1.00905       0.94327
     7  H(1)               0.00024       1.07449       0.38341       0.35841
     8  H(1)              -0.00028      -1.27000      -0.45317      -0.42363
     9  H(1)              -0.00021      -0.93894      -0.33504      -0.31320
    10  H(1)               0.00046       2.06958       0.73848       0.69034
    11  H(1)              -0.00003      -0.12410      -0.04428      -0.04139
    12  H(1)               0.00058       2.57090       0.91736       0.85756
    13  H(1)               0.01496      66.86971      23.86077      22.30533
    14  H(1)               0.05014     224.10535      79.96636      74.75350
 --------------------------------------------------------
       Center         ----  Spin Dipole Couplings  ----
                      3XX-RR        3YY-RR        3ZZ-RR
 --------------------------------------------------------
     1   Atom       -1.711746      1.972196     -0.260450
     2   Atom        0.006500     -0.002871     -0.003630
     3   Atom        0.016977     -0.002339     -0.014638
     4   Atom        0.004934     -0.001464     -0.003470
     5   Atom        0.022574     -0.000462     -0.022112
     6   Atom        0.002279     -0.000436     -0.001843
     7   Atom        0.003268     -0.001974     -0.001294
     8   Atom        0.002938      0.004999     -0.007938
     9   Atom        0.004755     -0.003538     -0.001217
    10   Atom        0.002379     -0.001187     -0.001191
    11   Atom        0.003219     -0.002025     -0.001194
    12   Atom        0.005263     -0.001999     -0.003264
    13   Atom        0.000743     -0.011516      0.010773
    14   Atom        0.009999      0.006481     -0.016480
 --------------------------------------------------------
                        XY            XZ            YZ
 --------------------------------------------------------
     1   Atom        0.506255      0.330815      2.353317
     2   Atom       -0.002644      0.001482      0.000166
     3   Atom       -0.021469      0.008215     -0.007544
     4   Atom       -0.001983      0.000947     -0.000679
     5   Atom        0.010315     -0.019274      0.029026
     6   Atom       -0.001905      0.000127     -0.000102
     7   Atom       -0.001839     -0.002553      0.000867
     8   Atom       -0.009929      0.000035      0.000179
     9   Atom       -0.005658      0.007549     -0.003942
    10   Atom        0.000179     -0.000279     -0.000047
    11   Atom        0.000249      0.001747      0.000004
    12   Atom        0.001675     -0.000806     -0.000668
    13   Atom        0.001490     -0.016260     -0.005595
    14   Atom        0.018186     -0.000898      0.004244
 --------------------------------------------------------


 ---------------------------------------------------------------------------------
              Anisotropic Spin Dipole Couplings in Principal Axis System
 ---------------------------------------------------------------------------------

       Atom             a.u.   MegaHertz   Gauss  10(-4) cm-1        Axes

              Baa    -1.7838   129.073    46.056    43.054  0.9626  0.0384 -0.2684
     1 O(17)  Bbb    -1.7465   126.376    45.094    42.155  0.2457 -0.5420  0.8036
              Bcc     3.5303  -255.449   -91.151   -85.209  0.1146  0.8395  0.5312
 
              Baa    -0.0042    -0.568    -0.203    -0.189 -0.2500 -0.5803  0.7751
     2 C(13)  Bbb    -0.0031    -0.421    -0.150    -0.141  0.1178  0.7764  0.6192
              Bcc     0.0074     0.989     0.353     0.330  0.9611 -0.2461  0.1257
 
              Baa    -0.0186    -2.493    -0.889    -0.831  0.1894  0.6085  0.7707
     3 C(13)  Bbb    -0.0148    -1.987    -0.709    -0.663 -0.5493 -0.5849  0.5968
              Bcc     0.0334     4.479     1.598     1.494  0.8139 -0.5364  0.2235
 
              Baa    -0.0037    -0.496    -0.177    -0.165 -0.0483  0.2515  0.9667
     4 C(13)  Bbb    -0.0019    -0.260    -0.093    -0.087  0.2987  0.9271 -0.2263
              Bcc     0.0056     0.756     0.270     0.252  0.9531 -0.2779  0.1199
 
              Baa    -0.0489    -6.558    -2.340    -2.188  0.2911 -0.5368  0.7919
     5 C(13)  Bbb     0.0191     2.566     0.916     0.856  0.2201  0.8431  0.4906
              Bcc     0.0298     3.993     1.425     1.332  0.9310 -0.0314 -0.3636
 
              Baa    -0.0019    -0.987    -0.352    -0.329  0.0071  0.0815  0.9966
     6 H(1)   Bbb    -0.0014    -0.755    -0.270    -0.252  0.4591  0.8852 -0.0757
              Bcc     0.0033     1.743     0.622     0.581  0.8884 -0.4581  0.0312
 
              Baa    -0.0026    -1.375    -0.491    -0.459  0.1376  0.9259 -0.3517
     7 H(1)   Bbb    -0.0024    -1.295    -0.462    -0.432  0.4627  0.2538  0.8494
              Bcc     0.0050     2.669     0.952     0.890  0.8757 -0.2797 -0.3935
 
              Baa    -0.0079    -4.241    -1.513    -1.415 -0.0524 -0.0540  0.9972
     8 H(1)   Bbb    -0.0060    -3.202    -1.143    -1.068  0.7409  0.6674  0.0751
              Bcc     0.0140     7.444     2.656     2.483 -0.6696  0.7427  0.0050
 
              Baa    -0.0065    -3.461    -1.235    -1.155  0.0218  0.8153  0.5786
     9 H(1)   Bbb    -0.0063    -3.367    -1.202    -1.123  0.6484  0.4290 -0.6289
              Bcc     0.0128     6.829     2.437     2.278  0.7610 -0.3889  0.5193
 
              Baa    -0.0012    -0.661    -0.236    -0.220  0.0307  0.6131  0.7894
    10 H(1)   Bbb    -0.0012    -0.625    -0.223    -0.208 -0.0876  0.7884 -0.6089
              Bcc     0.0024     1.286     0.459     0.429  0.9957  0.0505 -0.0779
 
              Baa    -0.0021    -1.098    -0.392    -0.366 -0.1317  0.9562  0.2616
    11 H(1)   Bbb    -0.0018    -0.948    -0.338    -0.316 -0.3029 -0.2901  0.9078
              Bcc     0.0038     2.047     0.730     0.683  0.9439  0.0403  0.3278
 
              Baa    -0.0036    -1.896    -0.676    -0.632  0.0113  0.3848  0.9229
    12 H(1)   Bbb    -0.0022    -1.161    -0.414    -0.387 -0.2421  0.8966 -0.3708
              Bcc     0.0057     3.056     1.091     1.019  0.9702  0.2193 -0.1033
 
              Baa    -0.0140    -7.453    -2.660    -2.486  0.4248  0.7821  0.4560
    13 H(1)   Bbb    -0.0096    -5.140    -1.834    -1.715  0.6956 -0.6043  0.3885
              Bcc     0.0236    12.593     4.494     4.201 -0.5794 -0.1521  0.8007
 
              Baa    -0.0183    -9.757    -3.481    -3.254  0.2446 -0.3355  0.9098
    14 H(1)   Bbb    -0.0083    -4.448    -1.587    -1.484 -0.6314  0.6570  0.4120
              Bcc     0.0266    14.205     5.069     4.738  0.7359  0.6752  0.0512
 

 ---------------------------------------------------------------------------------

 No NMR shielding tensors so no spin-rotation constants.
 Leave Link  601 at Sat Mar  9 13:29:40 2019, MaxMem=   671088640 cpu:              13.5 elap:               0.7
 (Enter /shared/centos7/gaussian/g16/l701.exe)
 ... and contract with generalized density number  0.
 Compute integral second derivatives.
 Leave Link  701 at Sat Mar  9 13:29:41 2019, MaxMem=   671088640 cpu:               9.3 elap:               0.5
 (Enter /shared/centos7/gaussian/g16/l702.exe)
 L702 exits ... SP integral derivatives will be done elsewhere.
 Leave Link  702 at Sat Mar  9 13:29:41 2019, MaxMem=   671088640 cpu:               0.4 elap:               0.0
 (Enter /shared/centos7/gaussian/g16/l703.exe)
 Integral derivatives from FoFJK, PRISM(SPDF).
 Compute integral second derivatives, UseDBF=F ICtDFT=           0.
 Calling FoFJK, ICntrl=    100147 FMM=F ISym2X=0 I1Cent= 0 IOpClX= 1 NMat=1 NMatS=1 NMatT=0.
 FoFJK:  IHMeth= 1 ICntrl=  100147 DoSepK=F KAlg= 0 I1Cent=           0 FoldK=F
 IRaf=         0 NMat=       1 IRICut=       1 DoRegI=T DoRafI=F ISym2E= 0 IDoP0=0 IntGTp=1.
 FoFCou: FMM=F IPFlag=           0 FMFlag=      100000 FMFlg1=         800
         NFxFlg=           0 DoJE=F BraDBF=F KetDBF=F FulRan=T
         wScrn=  0.000000 ICntrl=    100147 IOpCl=  1 I1Cent=           0 NGrid=           0
         NMat0=    1 NMatS0=      1 NMatT0=    0 NMatD0=    1 NMtDS0=    0 NMtDT0=    0
 Symmetry not used in FoFCou.
 Leave Link  703 at Sat Mar  9 13:32:11 2019, MaxMem=   671088640 cpu:            2999.6 elap:             150.0
 (Enter /shared/centos7/gaussian/g16/l716.exe)
 Dipole        =-8.91937573D-01-3.80131255D-02 1.84768015D-01
 Polarizability= 0.00000000D+00 0.00000000D+00 0.00000000D+00
                 0.00000000D+00 0.00000000D+00 0.00000000D+00
 ***** Axes restored to original set *****
 -------------------------------------------------------------------
 Center     Atomic                   Forces (Hartrees/Bohr)
 Number     Number              X              Y              Z
 -------------------------------------------------------------------
      1        8           0.000000613   -0.000003854   -0.000003808
      2        6           0.000000779    0.000001594    0.000001150
      3        6           0.000001226   -0.000000407   -0.000001496
      4        6          -0.000001740    0.000001685    0.000001343
      5        6           0.000000014   -0.000002766    0.000001229
      6        1           0.000002046    0.000002526    0.000001229
      7        1           0.000000764    0.000001990    0.000001113
[...]
         wScrn=  0.000000 ICntrl=      2127 IOpCl=  1 I1Cent=           0 NGrid=           0
         NMat0=    1 NMatS0=      1 NMatT0=    0 NMatD0=    1 NMtDS0=    0 NMtDT0=    0
 Symmetry not used in FoFCou.
 Leave Link  703 at Sat Mar  9 14:53:46 2019, MaxMem=   671088640 cpu:             200.4 elap:              10.0
 (Enter /shared/centos7/gaussian/g16/l716.exe)
 Dipole        =-5.32594386D-02 8.48608237D-01-1.28634139D-02
 ***** Axes restored to original set *****
 -------------------------------------------------------------------
 Center     Atomic                   Forces (Hartrees/Bohr)
 Number     Number              X              Y              Z
 -------------------------------------------------------------------
      1        8          -0.000072095   -0.000104871    0.000338559
      2        6          -0.003992116    0.008002802    0.000935000
      3        6           0.018145668   -0.035577407   -0.004648843
      4        6          -0.000092993    0.000052647   -0.000023494
      5        6          -0.000403669    0.000254856   -0.001012167
      6        1           0.000068017    0.000046737    0.000035363
      7        1          -0.000028859   -0.000003146   -0.000028994
      8        1           0.000117612    0.000022122   -0.000219445
      9        1          -0.009220954    0.018233748    0.003362832
     10        1          -0.000015361    0.000021495   -0.000008628
     11        1           0.000022011   -0.000012272   -0.000022470
     12        1          -0.000036262   -0.000038151    0.000020413
     13        1          -0.000054604    0.000006053    0.000231537
     14        1          -0.004436396    0.009095386    0.001040337
 -------------------------------------------------------------------
 Cartesian Forces:  Max     0.035577407 RMS     0.007288785
 Leave Link  716 at Sat Mar  9 14:53:46 2019, MaxMem=   671088640 cpu:               0.4 elap:               0.0
 (Enter /shared/centos7/gaussian/g16/l103.exe)

 GradGradGradGradGradGradGradGradGradGradGradGradGradGradGradGradGradGrad
 Berny optimization.
 Using GEDIIS/GDIIS optimizer.
 FormGI is forming the generalized inverse of G from B-inverse, IUseBI=4.
 Internal  Forces:  Max     0.011821807 RMS     0.002673139
 Search for a local minimum.
 Step number   3 out of a maximum of   75 on scan point     9 out of    73
 All quantities printed in internal units (Hartrees-Bohrs-Radians)
 RMS Force = .13890D-03 SwitMx=.10000D-02 MixMth= 2
 Mixed Optimization -- En-DIIS/RFO-DIIS
 Swapping is turned off.
 Update second derivatives using D2CorX and points    1    2    3
 DE= -8.76D-05 DEPred=-7.24D-05 R= 1.21D+00
 TightC=F SS=  1.41D+00  RLast= 1.82D-01 DXNew= 2.8675D+00 5.4558D-01
 Trust test= 1.21D+00 RLast= 1.82D-01 DXMaxT set to 1.71D+00
 ITU=  1  1  0
     Eigenvalues ---    0.00170   0.00247   0.00464   0.03480   0.03868
     Eigenvalues ---    0.03947   0.04127   0.04532   0.04550   0.05244
     Eigenvalues ---    0.07060   0.07090   0.07416   0.10074   0.10843
     Eigenvalues ---    0.12124   0.14036   0.14350   0.15953   0.18770
     Eigenvalues ---    0.20623   0.22702   0.27956   0.29836   0.31161
     Eigenvalues ---    0.32880   0.33032   0.33305   0.33653   0.33881
     Eigenvalues ---    0.34148   0.34195   0.34794   0.35111   0.39730
     Eigenvalues --- 1000.000001000.000001000.000001000.000001000.00000
     Eigenvalues --- 1000.000001000.000001000.000001000.000001000.00000
     Eigenvalues --- 1000.000001000.000001000.000001000.000001000.00000
     Eigenvalues --- 1000.000001000.000001000.000001000.000001000.00000
     Eigenvalues --- 1000.000001000.000001000.000001000.000001000.00000
     Eigenvalues --- 1000.000001000.000001000.000001000.000001000.00000
 En-DIIS/RFO-DIIS/Sim-DIIS IScMMF=       -3 using points:     3    2
 RFO step:  Lambda=-1.40854987D-05.
 NNeg= 0 NGDIIS= 2 SimSw=  2.50D-03 Rises=F DC= -8.76D-05 SmlDif=  1.00D-05
 NRisDI= 0 DoIntr=F SqrtH=F CThrHd= 10.0 CDAdj=  3.0
 RMS Error=  0.4025323566D-02 NUsed= 2 OKEnD=T EnDIS=F
 InvSVX:  RCond= 8.13D-03 Info=           0 Equed=N FErr=  1.11D-15 BErr=  2.62D-17
 DidBck=F Rises=F RFO-DIIS coefs:    1.05969   -0.05969
 Iteration  1 RMS(Cart)=  0.00602394 RMS(Int)=  0.00002191
 Iteration  2 RMS(Cart)=  0.00002166 RMS(Int)=  0.00000556
 Iteration  3 RMS(Cart)=  0.00000000 RMS(Int)=  0.00000556
 Iteration  1 RMS(Cart)=  0.00000278 RMS(Int)=  0.00000304
 Iteration  2 RMS(Cart)=  0.00000194 RMS(Int)=  0.00000335
 Iteration  3 RMS(Cart)=  0.00000136 RMS(Int)=  0.00000386
 Iteration  4 RMS(Cart)=  0.00000095 RMS(Int)=  0.00000431
 ITry= 1 IFail=0 DXMaxC= 2.33D-02 DCOld= 1.00D+10 DXMaxT= 1.71D+00 DXLimC= 3.00D+00 Rises=F
 Variable       Old X    -DE/DX   Delta X   Delta X   Delta X     New X
                                 (Linear)    (Quad)   (Total)
    R1        2.57402   0.00001   0.00011  -0.00016  -0.00005   2.57397
    R2        2.88682   0.00000   0.00002   0.00029   0.00031   2.88712
    R3        2.88409   0.00003   0.00003   0.00036   0.00039   2.88448
    R4        2.06152  -0.00000   0.00000  -0.00017  -0.00017   2.06135
    R5        2.06668  -0.00004   0.00001  -0.00002  -0.00001   2.06667
    R6        2.87008   0.00327   0.00001  -0.00143  -0.00144   2.86864
    R7        2.08244  -0.00002   0.00004   0.00004   0.00008   2.08252
    R8        2.06297  -0.00007   0.00001   0.00013   0.00015   2.06312
    R9        2.05922  -0.00000   0.00000  -0.00002  -0.00001   2.05921
   R10        2.06128   0.00001   0.00002   0.00003   0.00004   2.06133
   R11        2.05876   0.00002  -0.00007  -0.00009  -0.00017   2.05859
   R12        2.08949  -0.00000  -0.00007   0.00046   0.00039   2.08989
   R13        2.09696  -0.00416  -0.00048   0.00109   0.00062   2.09758
    A1        1.99223  -0.00033   0.00023  -0.00183  -0.00160   1.99062
    A2        1.88513   0.00019  -0.00015   0.00131   0.00116   1.88629
    A3        1.89636   0.00006  -0.00003   0.00010   0.00008   1.89643
    A4        1.91300   0.00005  -0.00010   0.00028   0.00018   1.91318
    A5        1.91265   0.00012   0.00001   0.00019   0.00020   1.91285
    A6        1.85970  -0.00006   0.00002   0.00008   0.00010   1.85980
    A7        2.03537  -0.00266   0.00034   0.00221   0.00255   2.03793
    A8        1.80829   0.00123  -0.00027  -0.00052  -0.00080   1.80749
    A9        1.96533   0.00376   0.00029  -0.00207  -0.00179   1.96354
   A10        1.75220   0.00336   0.00011   0.00243   0.00253   1.75473
   A11        2.10362  -0.00545  -0.00071  -0.00027  -0.00096   2.10265
   A12        1.71758   0.00238   0.00026  -0.00191  -0.00166   1.71592
   A13        1.93969   0.00005  -0.00009   0.00067   0.00058   1.94027
   A14        1.93092  -0.00002  -0.00004  -0.00056  -0.00060   1.93032
   A15        1.94039  -0.00007   0.00010  -0.00053  -0.00042   1.93997
   A16        1.88568  -0.00002  -0.00008  -0.00019  -0.00027   1.88541
   A17        1.88929   0.00002   0.00007   0.00043   0.00050   1.88979
   A18        1.87559   0.00004   0.00003   0.00019   0.00022   1.87581
   A19        2.04786  -0.00154  -0.00034   0.00563   0.00528   2.05314
   A20        1.81053  -0.00006   0.00026  -0.00281  -0.00258   1.80796
   A21        1.98384  -0.00404  -0.00092  -0.00413  -0.00504   1.97881
   A22        1.90781  -0.00005  -0.00002   0.00553   0.00550   1.91330
   A23        1.86383   0.00662   0.00067  -0.00043   0.00022   1.86405
   A24        1.83779  -0.00122   0.00044  -0.00445  -0.00402   1.83377
    D1       -1.31677   0.00399  -0.00124  -0.00460  -0.00585  -1.32263
    D2        3.06043   0.00035  -0.00135  -0.00814  -0.00949   3.05093
    D3        1.22269  -0.00435  -0.00162  -0.00495  -0.00655   1.21613
    D4        2.83415   0.00401  -0.00116  -0.00470  -0.00587   2.82828
    D5        0.92817   0.00037  -0.00127  -0.00824  -0.00951   0.91866
    D6       -0.90957  -0.00433  -0.00154  -0.00505  -0.00657  -0.91614
    D7        0.82336   0.00396  -0.00109  -0.00554  -0.00664   0.81672
    D8       -1.08262   0.00032  -0.00120  -0.00908  -0.01029  -1.09291
    D9       -2.92036  -0.00438  -0.00147  -0.00589  -0.00734  -2.92770
   D10        3.06131  -0.01182  -0.00000   0.00000   0.00000   3.06131
   D11       -3.09948  -0.00004  -0.00027  -0.00602  -0.00629  -3.10577
   D12       -1.00465  -0.00004  -0.00046  -0.00619  -0.00665  -1.01130
   D13        1.07797  -0.00006  -0.00037  -0.00667  -0.00704   1.07093
   D14       -0.98257   0.00000  -0.00038  -0.00538  -0.00576  -0.98833
   D15        1.11226   0.00000  -0.00056  -0.00555  -0.00612   1.10614
   D16       -3.08831  -0.00001  -0.00048  -0.00603  -0.00651  -3.09482
   D17        1.05249   0.00002  -0.00041  -0.00501  -0.00542   1.04707
   D18       -3.13587   0.00002  -0.00059  -0.00518  -0.00577   3.14154
   D19       -1.05326   0.00001  -0.00051  -0.00566  -0.00616  -1.05942
   D20        0.95852  -0.00185  -0.00356   0.00034  -0.00322   0.95530
   D21        3.01220  -0.00299  -0.00346   0.00465   0.00121   3.01341
   D22       -1.29116  -0.00104  -0.00262   0.00191  -0.00071  -1.29186
   D23        2.89703   0.00061  -0.00369   0.00207  -0.00163   2.89540
   D24       -1.33249  -0.00053  -0.00358   0.00638   0.00281  -1.32968
   D25        0.64734   0.00142  -0.00275   0.00364   0.00089   0.64824
   D26       -1.53075   0.00377  -0.00356   0.00127  -0.00231  -1.53306
   D27        0.52293   0.00263  -0.00345   0.00558   0.00212   0.52505
   D28        2.50276   0.00458  -0.00262   0.00284   0.00021   2.50297
         Item               Value     Threshold  Converged?
 Maximum Force            0.000494     0.000450     NO 
 RMS     Force            0.000139     0.000300     YES
 Maximum Displacement     0.023327     0.001800     NO 
 RMS     Displacement     0.006026     0.001200     NO 
 Predicted change in Energy=-6.839673D-06
 Lowest energy point so far.  Saving SCF results.
 GradGradGradGradGradGradGradGradGradGradGradGradGradGradGradGradGradGrad

 Leave Link  103 at Sat Mar  9 14:53:46 2019, MaxMem=   671088640 cpu:               0.8 elap:               0.1
 (Enter /shared/centos7/gaussian/g16/l202.exe)
                          Input orientation:                          
 ---------------------------------------------------------------------
 Center     Atomic      Atomic             Coordinates (Angstroms)
 Number     Number       Type             X           Y           Z
 ---------------------------------------------------------------------
      1          8           0       -1.624162    0.311021    1.655034
      2          6           0        0.946250   -0.466962    0.152627
      3          6           0       -0.420236   -1.145435    0.071626
      4          6           0        0.906544    1.041480   -0.077439
      5          6           0       -1.345751   -0.962729    1.260924
      6          1           0        1.599840   -0.932993   -0.585968
      7          1           0        1.383693   -0.677164    1.132674
      8          1           0       -0.182359   -2.217492    0.164167
      9          1           0       -0.820176   -1.159565   -0.944139
     10          1           0        1.907510    1.470949   -0.045159
     11          1           0        0.472535    1.269796   -1.051794
     12          1           0        0.297178    1.538220    0.676636
     13          1           0       -2.340380   -1.385262    1.025899
     14          1           0       -0.947512   -1.599532    2.078221
 ---------------------------------------------------------------------
                    Distance matrix (angstroms):
                    1          2          3          4          5
     1  O    0.000000
     2  C    3.077255   0.000000
     3  C    2.465335   1.527800   0.000000
     4  C    3.152698   1.526402   2.562257   0.000000
     5  C    1.362084   2.593718   1.518021   3.298621   0.000000
     6  H    4.118719   1.090820   2.135011   2.153556   3.476838
     7  H    3.208825   1.093633   2.144589   2.155408   2.747337
     8  H    3.270298   2.082846   1.102023   3.444558   2.032433
     9  H    3.092688   2.191542   1.091756   2.928708   2.275363
    10  H    4.087639   2.172243   3.503928   1.089688   4.267593
    11  H    3.555602   2.165956   2.809352   1.090807   3.693101
    12  H    2.480893   2.171781   2.843014   1.089361   3.048828
    13  H    1.945804   3.522473   2.157569   4.201065   1.105920
    14  H    2.070544   2.928645   2.123828   3.880637   1.109994
                    6          7          8          9         10
     6  H    0.000000
     7  H    1.750971   0.000000
     8  H    2.321395   2.400653   0.000000
     9  H    2.456848   3.066416   1.659627   0.000000
    10  H    2.483158   2.505208   4.244522   3.894617   0.000000
    11  H    2.517954   3.064762   3.750817   2.753995   1.764350
    12  H    3.065615   2.509266   3.820727   3.339677   1.765979
    13  H    4.281121   3.792298   2.468246   2.498601   5.229692
    14  H    3.745822   2.679429   2.151961   3.056869   4.699761
                   11         12         13         14
    11  H    0.000000
    12  H    1.757917   0.000000
    13  H    4.390744   3.952904   0.000000
    14  H    4.477340   3.655022   1.758799   0.000000
 Stoichiometry    C4H9O(2)
 Framework group  C1[X(C4H9O)]
 Deg. of freedom    36
 Full point group                 C1      NOp   1
 RotChk:  IX=1 Diff= 5.00D-03
 Largest Abelian subgroup         C1      NOp   1
 Largest concise Abelian subgroup C1      NOp   1
                         Standard orientation:                         
 ---------------------------------------------------------------------
 Center     Atomic      Atomic             Coordinates (Angstroms)
 Number     Number       Type             X           Y           Z
 ---------------------------------------------------------------------
      1          8           0        1.426853   -1.118535    0.026270
      2          6           0       -1.132225    0.559787    0.348533
      3          6           0        0.169283    0.970369   -0.338251
      4          6           0       -1.701910   -0.768891   -0.141342
      5          6           0        1.429251    0.241899    0.093258
      6          1           0       -1.863878    1.352985    0.189132
      7          1           0       -0.957771    0.508794    1.426957
      8          1           0        0.369070    1.975706    0.066518
      9          1           0        0.020621    1.247752   -1.383664
     10          1           0       -2.645993   -0.998139    0.352189
     11          1           0       -1.882405   -0.735950   -1.216607
     12          1           0       -1.009158   -1.587739    0.049160
     13          1           0        2.269979    0.532911   -0.563664
     14          1           0        1.698316    0.632979    1.096626
 ---------------------------------------------------------------------
 Rotational constants (GHZ):           7.7613262           3.5487997           2.7053369
 Leave Link  202 at Sat Mar  9 14:53:46 2019, MaxMem=   671088640 cpu:               0.2 elap:               0.0
 (Enter /shared/centos7/gaussian/g16/l301.exe)
 Standard basis: 6-311+G(2df,2p) (5D, 7F)
 Ernie: Thresh=  0.10000D-02 Tol=  0.10000D-05 Strict=F.
 There are   276 symmetry adapted cartesian basis functions of A   symmetry.
 There are   251 symmetry adapted basis functions of A   symmetry.
   251 basis functions,   359 primitive gaussians,   276 cartesian basis functions
    21 alpha electrons       20 beta electrons
       nuclear repulsion energy       182.1068311372 Hartrees.
 IExCor= 4336 DFT=T Ex+Corr=M062X ExCW=0 ScaHFX=  0.540000
 ScaDFX=  1.000000  1.000000  1.000000  1.000000 ScalE2=  1.000000  1.000000
 IRadAn=      5 IRanWt=     -1 IRanGd=            0 ICorTp=0 IEmpDi=  4
 NAtoms=   14 NActive=   14 NUniq=   14 SFac= 1.00D+00 NAtFMM=   60 NAOKFM=F Big=F
 Integral buffers will be    131072 words long.
 Raffenetti 2 integral format.
 Two-electron integral symmetry is turned on.
 Leave Link  301 at Sat Mar  9 14:53:47 2019, MaxMem=   671088640 cpu:               1.2 elap:               0.1
 (Enter /shared/centos7/gaussian/g16/l302.exe)
 NPDir=0 NMtPBC=     1 NCelOv=     1 NCel=       1 NClECP=     1 NCelD=      1
         NCelK=      1 NCelE2=     1 NClLst=     1 CellRange=     0.0.
 One-electron integrals computed using PRISM.
 One-electron integral symmetry used in STVInt
 NBasis=   251 RedAO= T EigKep=  5.60D-05  NBF=   251
 NBsUse=   251 1.00D-06 EigRej= -1.00D+00 NBFU=   251
 Precomputing XC quadrature grid using
 IXCGrd= 4 IRadAn=           5 IRanWt=          -1 IRanGd=           0 AccXCQ= 0.00D+00.
 Generated NRdTot=       0 NPtTot=           0 NUsed=           0 NTot=          32
 NSgBfM=   276   276   276   276   276 MxSgAt=    14 MxSgA2=    14.
 Leave Link  302 at Sat Mar  9 14:53:47 2019, MaxMem=   671088640 cpu:               7.9 elap:               0.4
 (Enter /shared/centos7/gaussian/g16/l303.exe)
 DipDrv:  MaxL=1.
 Leave Link  303 at Sat Mar  9 14:53:47 2019, MaxMem=   671088640 cpu:               0.8 elap:               0.1
 (Enter /shared/centos7/gaussian/g16/l401.exe)
 Initial guess from the checkpoint file:  "/scratch/underkoffler.c/gaussian_scratch/Gau-34452.chk"
 B after Tr=    -0.000000   -0.000000    0.000000
         Rot=    0.999999   -0.000367   -0.000445   -0.001000 Ang=  -0.13 deg.
 Guess basis will be translated and rotated to current coordinates.
 JPrj=2 DoOrth=T DoCkMO=T.
 Initial guess <Sx>= 0.0000 <Sy>= 0.0000 <Sz>= 0.5000 <S**2>= 0.7544 S= 0.5022
 Generating alternative initial guess.
 ExpMin= 4.38D-02 ExpMax= 8.59D+03 ExpMxC= 1.30D+03 IAcc=2 IRadAn=         4 AccDes= 0.00D+00
 Harris functional with IExCor= 1009 and IRadAn=       4 diagonalized for initial guess.
 HarFok:  IExCor= 1009 AccDes= 0.00D+00 IRadAn=         4 IDoV= 1 UseB2=F ITyADJ=14
 ICtDFT=  3500011 ScaDFX=  1.000000  1.000000  1.000000  1.000000
 FoFCou: FMM=F IPFlag=           0 FMFlag=      100000 FMFlg1=           0
         NFxFlg=           0 DoJE=T BraDBF=F KetDBF=T FulRan=T
         wScrn=  0.000000 ICntrl=       500 IOpCl=  0 I1Cent=   200000004 NGrid=           0
         NMat0=    1 NMatS0=      1 NMatT0=    0 NMatD0=    1 NMtDS0=    0 NMtDT0=    0
 Petite list used in FoFCou.
 Harris En= -232.873805736971    
 Leave Link  401 at Sat Mar  9 14:53:48 2019, MaxMem=   671088640 cpu:              20.5 elap:               1.1
 (Enter /shared/centos7/gaussian/g16/l502.exe)
 Integral symmetry usage will be decided dynamically.
 UHF open shell SCF:
 Using DIIS extrapolation, IDIIS=  1040.
 NGot=   671088640 LenX=   670928170 LenY=   670851553
 Requested convergence on RMS density matrix=1.00D-08 within 128 cycles.
 Requested convergence on MAX density matrix=1.00D-06.
 Requested convergence on             energy=1.00D-06.
 No special actions if energy rises.
 Fock matrices will be formed incrementally for  20 cycles.

 Cycle   1  Pass 1  IDiag  1:
 FoFJK:  IHMeth= 1 ICntrl=       0 DoSepK=F KAlg= 0 I1Cent=           0 FoldK=F
 IRaf= 990000000 NMat=       1 IRICut=       1 DoRegI=T DoRafI=F ISym2E= 0 IDoP0=0 IntGTp=1.
 FoFCou: FMM=F IPFlag=           0 FMFlag=      100000 FMFlg1=           0
         NFxFlg=           0 DoJE=F BraDBF=F KetDBF=F FulRan=T
         wScrn=  0.000000 ICntrl=         0 IOpCl=  1 I1Cent=           0 NGrid=           0
         NMat0=    1 NMatS0=      1 NMatT0=    0 NMatD0=    1 NMtDS0=    0 NMtDT0=    0
 Symmetry not used in FoFCou.
 E= -232.946878077366    
 DIIS: error= 2.74D-04 at cycle   1 NSaved=   1.
 NSaved= 1 IEnMin= 1 EnMin= -232.946878077366     IErMin= 1 ErrMin= 2.74D-04
 ErrMax= 2.74D-04  0.00D+00 EMaxC= 1.00D-01 BMatC= 1.63D-04 BMatP= 1.63D-04
 IDIUse=3 WtCom= 9.97D-01 WtEn= 2.74D-03
 Coeff-Com:  0.100D+01
 Coeff-En:   0.100D+01
 Coeff:      0.100D+01
 Gap=     0.632 Goal=   None    Shift=    0.000
 Gap=     0.606 Goal=   None    Shift=    0.000
 RMSDP=3.87D-05 MaxDP=1.30D-03              OVMax= 1.89D-03

 Cycle   2  Pass 1  IDiag  1:
 RMSU=  3.87D-05    CP:  1.00D+00
