 Entering Gaussian System, Link 0=g16
 Input=JQCSUVJDBHJKNG-UHFFFAOYSA-N_72by10.0_tor02_a1.com
 Output=JQCSUVJDBHJKNG-UHFFFAOYSA-N_72by10.0_tor02_a1.log
 Initial command:
 /shared/centos7/gaussian/g16/l1.exe "/scratch/underkoffler.c/gaussian_scratch/Gau-9206.inp" -scrdir="/scratch/underkoffler.c/gaussian_scratch/"
 Entering Link 1 = /shared/centos7/gaussian/g16/l1.exe PID=      9207.
  
 Copyright (c) 1988,1990,1992,1993,1995,1998,2003,2009,2016,
            Gaussian, Inc.  All Rights Reserved.
  
 This is part of the Gaussian(R) 16 program.  It is based on
 the Gaussian(R) 09 system (copyright 2009, Gaussian, Inc.),
 the Gaussian(R) 03 system (copyright 2003, Gaussian, Inc.),
 the Gaussian(R) 98 system (copyright 1998, Gaussian, Inc.),
 the Gaussian(R) 94 system (copyright 1995, Gaussian, Inc.),
 the Gaussian 92(TM) system (copyright 1992, Gaussian, Inc.),
 the Gaussian 90(TM) system (copyright 1990, Gaussian, Inc.),
 the Gaussian 88(TM) system (copyright 1988, Gaussian, Inc.),
 the Gaussian 86(TM) system (copyright 1986, Carnegie Mellon
 University), and the Gaussian 82(TM) system (copyright 1983,
 Carnegie Mellon University). Gaussian is a federally registered
 trademark of Gaussian, Inc.
  
 This software contains proprietary and confidential information,
 including trade secrets, belonging to Gaussian, Inc.
  
 This software is provided under written license and may be
 used, copied, transmitted, or stored only in accord with that
 written license.
  
 The following legend is applicable only to US Government
 contracts under FAR:
  
                    RESTRICTED RIGHTS LEGEND
  
 Use, reproduction and disclosure by the US Government is
 subject to restrictions as set forth in subparagraphs (a)
 and (c) of the Commercial Computer Software - Restricted
 Rights clause in FAR 52.227-19.
  
 Gaussian, Inc.
 340 Quinnipiac St., Bldg. 40, Wallingford CT 06492
  
  
 ---------------------------------------------------------------
 Warning -- This program may not be used in any manner that
 competes with the business of Gaussian, Inc. or will provide
 assistance to any competitor of Gaussian, Inc.  The licensee
 of this program is prohibited from giving any competitor of
 Gaussian, Inc. access to this program.  By using this program,
 the user acknowledges that Gaussian, Inc. is engaged in the
 business of creating and licensing software in the field of
 computational chemistry and represents and warrants to the
 licensee that it is not a competitor of Gaussian, Inc. and that
 it will not use this program in any manner prohibited above.
 ---------------------------------------------------------------
  

 Cite this work as:
 Gaussian 16, Revision A.03,
 M. J. Frisch, G. W. Trucks, H. B. Schlegel, G. E. Scuseria, 
 M. A. Robb, J. R. Cheeseman, G. Scalmani, V. Barone, 
 G. A. Petersson, H. Nakatsuji, X. Li, M. Caricato, A. V. Marenich, 
 J. Bloino, B. G. Janesko, R. Gomperts, B. Mennucci, H. P. Hratchian, 
 J. V. Ortiz, A. F. Izmaylov, J. L. Sonnenberg, D. Williams-Young, 
 F. Ding, F. Lipparini, F. Egidi, J. Goings, B. Peng, A. Petrone, 
 T. Henderson, D. Ranasinghe, V. G. Zakrzewski, J. Gao, N. Rega, 
 G. Zheng, W. Liang, M. Hada, M. Ehara, K. Toyota, R. Fukuda, 
 J. Hasegawa, M. Ishida, T. Nakajima, Y. Honda, O. Kitao, H. Nakai, 
 T. Vreven, K. Throssell, J. A. Montgomery, Jr., J. E. Peralta, 
 F. Ogliaro, M. J. Bearpark, J. J. Heyd, E. N. Brothers, K. N. Kudin, 
 V. N. Staroverov, T. A. Keith, R. Kobayashi, J. Normand, 
 K. Raghavachari, A. P. Rendell, J. C. Burant, S. S. Iyengar, 
 J. Tomasi, M. Cossi, J. M. Millam, M. Klene, C. Adamo, R. Cammi, 
 J. W. Ochterski, R. L. Martin, K. Morokuma, O. Farkas, 
 J. B. Foresman, and D. J. Fox, Gaussian, Inc., Wallingford CT, 2016.
 
 ******************************************
 Gaussian 16:  EM64L-G16RevA.03 25-Dec-2016
                 9-Mar-2019 
 ******************************************
 %nprocshared=20
 Will use up to   20 processors via shared memory.
 %mem=5GB
 ----------------------------------------------
 #p m062x/6-311+g(2df,2p) Opt=(CalcFC,ModRedun)
 ----------------------------------------------
 1/10=4,18=120,19=15,26=3,38=1/1,3;
 2/9=110,12=2,17=6,18=5,40=1/2;
 3/5=4,6=6,7=214,11=2,25=1,30=1,71=2,74=-55,140=1/1,2,3;
 4//1;
 5/5=2,38=5/2;
 8/6=4,10=90,11=11/1;
 11/6=1,8=1,9=11,15=111,16=1/1,2,10;
 10/6=1,13=1/2;
 6/7=2,8=2,9=2,10=2,28=1/1;
 7/10=1,18=20,25=1/1,2,3,16;
 1/10=4,18=20,19=15,26=3/3(2);
 2/9=110/2;
 99//99;
 2/9=110/2;
 3/5=4,6=6,7=214,11=2,25=1,30=1,71=1,74=-55/1,2,3;
 4/5=5,16=3,69=1/1;
 5/5=2,38=5/2;
 7//1,2,3,16;
 1/18=20,19=15,26=3/3(-5);
 2/9=110/2;
 6/7=2,8=2,9=2,10=2,19=2,28=1/1;
 99/9=1/99;
 Leave Link    1 at Sat Mar  9 13:21:35 2019, MaxMem=   671088640 cpu:              33.5 elap:               1.8
 (Enter /shared/centos7/gaussian/g16/l101.exe)
 ----------------------------------------
 Gaussian Input Prepared from Scan Object
 ----------------------------------------
 Symbolic Z-matrix:
 Charge =  0 Multiplicity = 2
 O                    -0.63998  -0.4897    0.28046 
 C                    -0.18816   0.27726  -2.0298 
 C                    -2.00156  -0.14747   0.14092 
 C                     0.22079   0.06175  -0.61458 
 H                    -0.49171  -0.65725  -2.5207 
 H                     0.65356   0.6843   -2.58608 
 H                    -1.01969   0.97786  -2.12569 
 H                    -2.52383  -0.59566   0.98117 
 H                    -2.132     0.93728   0.16789 
 H                    -2.41966  -0.53624  -0.78976 
 H                     1.24209  -0.20028  -0.37935 
 
 The following ModRedundant input section has been read:
 B       1       4 B                                                           
 B       4      11 B                                                           
 B       3       8 B                                                           
 B       3       9 B                                                           
 B       1       3 B                                                           
 B       2       4 B                                                           
 B       3      10 B                                                           
 B       2       5 B                                                           
 B       2       7 B                                                           
 B       2       6 B                                                           
 D      11       1       3       9 S  72 10.000                                
 
 ITRead=  0  0  0  0  0  0  0  0  0  0  0
 MicOpt= -1 -1 -1 -1 -1 -1 -1 -1 -1 -1 -1
 NAtoms=     11 NQM=       11 NQMF=       0 NMMI=      0 NMMIF=      0
                NMic=       0 NMicF=      0.
                    Isotopes and Nuclear Properties:
 (Nuclear quadrupole moments (NQMom) in fm**2, nuclear magnetic moments (NMagM)
  in nuclear magnetons)

  Atom         1           2           3           4           5           6           7           8           9          10
 IAtWgt=          16          12          12          12           1           1           1           1           1           1
 AtmWgt=  15.9949146  12.0000000  12.0000000  12.0000000   1.0078250   1.0078250   1.0078250   1.0078250   1.0078250   1.0078250
 NucSpn=           0           0           0           0           1           1           1           1           1           1
 AtZEff=  -0.0000000  -0.0000000  -0.0000000  -0.0000000  -0.0000000  -0.0000000  -0.0000000  -0.0000000  -0.0000000  -0.0000000
 NQMom=    0.0000000   0.0000000   0.0000000   0.0000000   0.0000000   0.0000000   0.0000000   0.0000000   0.0000000   0.0000000
 NMagM=    0.0000000   0.0000000   0.0000000   0.0000000   2.7928460   2.7928460   2.7928460   2.7928460   2.7928460   2.7928460
 AtZNuc=   8.0000000   6.0000000   6.0000000   6.0000000   1.0000000   1.0000000   1.0000000   1.0000000   1.0000000   1.0000000

  Atom        11
 IAtWgt=           1
 AtmWgt=   1.0078250
 NucSpn=           1
 AtZEff=  -0.0000000
 NQMom=    0.0000000
 NMagM=    2.7928460
 AtZNuc=   1.0000000
 Leave Link  101 at Sat Mar  9 13:21:35 2019, MaxMem=   671088640 cpu:               7.0 elap:               0.4
 (Enter /shared/centos7/gaussian/g16/l103.exe)

 GradGradGradGradGradGradGradGradGradGradGradGradGradGradGradGradGradGrad
 Berny optimization.
 Initialization pass.
                           ----------------------------
                           !    Initial Parameters    !
                           ! (Angstroms and Degrees)  !
 --------------------------                            --------------------------
 ! Name  Definition              Value          Derivative Info.                !
 --------------------------------------------------------------------------------
 ! R1    R(1,3)                  1.4109         calculate D2E/DX2 analytically  !
 ! R2    R(1,4)                  1.3587         calculate D2E/DX2 analytically  !
 ! R3    R(2,4)                  1.4888         calculate D2E/DX2 analytically  !
 ! R4    R(2,5)                  1.0984         calculate D2E/DX2 analytically  !
 ! R5    R(2,6)                  1.088          calculate D2E/DX2 analytically  !
 ! R6    R(2,7)                  1.0915         calculate D2E/DX2 analytically  !
 ! R7    R(3,8)                  1.0861         calculate D2E/DX2 analytically  !
 ! R8    R(3,9)                  1.0929         calculate D2E/DX2 analytically  !
 ! R9    R(3,10)                 1.0918         calculate D2E/DX2 analytically  !
 ! R10   R(4,11)                 1.0803         calculate D2E/DX2 analytically  !
 ! A1    A(3,1,4)              116.602          calculate D2E/DX2 analytically  !
 ! A2    A(4,2,5)              112.1848         calculate D2E/DX2 analytically  !
 ! A3    A(4,2,6)              109.128          calculate D2E/DX2 analytically  !
 ! A4    A(4,2,7)              112.6851         calculate D2E/DX2 analytically  !
 ! A5    A(5,2,6)              107.6747         calculate D2E/DX2 analytically  !
 ! A6    A(5,2,7)              107.235          calculate D2E/DX2 analytically  !
 ! A7    A(6,2,7)              107.718          calculate D2E/DX2 analytically  !
 ! A8    A(1,3,8)              106.7053         calculate D2E/DX2 analytically  !
 ! A9    A(1,3,9)              110.7017         calculate D2E/DX2 analytically  !
 ! A10   A(1,3,10)             111.5608         calculate D2E/DX2 analytically  !
 ! A11   A(8,3,9)              109.4574         calculate D2E/DX2 analytically  !
 ! A12   A(8,3,10)             109.1702         calculate D2E/DX2 analytically  !
 ! A13   A(9,3,10)             109.1922         calculate D2E/DX2 analytically  !
 ! A14   A(1,4,2)              120.7247         calculate D2E/DX2 analytically  !
 ! A15   A(1,4,11)             110.9185         calculate D2E/DX2 analytically  !
 ! A16   A(2,4,11)             120.1177         calculate D2E/DX2 analytically  !
 ! D1    D(4,1,3,8)           -174.8969         calculate D2E/DX2 analytically  !
 ! D2    D(4,1,3,9)            -55.8712         calculate D2E/DX2 analytically  !
 ! D3    D(4,1,3,10)            65.9447         calculate D2E/DX2 analytically  !
 ! D4    D(11,1,3,9)           -51.9783         Scan                            !
 ! D5    D(3,1,4,2)            -35.8514         calculate D2E/DX2 analytically  !
 ! D6    D(3,1,4,11)           175.7104         calculate D2E/DX2 analytically  !
 ! D7    D(5,2,4,1)            -58.2473         calculate D2E/DX2 analytically  !
 ! D8    D(5,2,4,11)            87.3346         calculate D2E/DX2 analytically  !
 ! D9    D(6,2,4,1)           -177.4878         calculate D2E/DX2 analytically  !
 ! D10   D(6,2,4,11)           -31.9059         calculate D2E/DX2 analytically  !
 ! D11   D(7,2,4,1)             62.9016         calculate D2E/DX2 analytically  !
 ! D12   D(7,2,4,11)          -151.5165         calculate D2E/DX2 analytically  !
 --------------------------------------------------------------------------------
 Trust Radius=3.00D-01 FncErr=1.00D-07 GrdErr=1.00D-06 EigMax=2.50D+02 EigMin=1.00D-04
 Number of optimizations in scan=  73
 Number of steps in this run=     48 maximum allowed number of steps=    100.
 GradGradGradGradGradGradGradGradGradGradGradGradGradGradGradGradGradGrad

 Leave Link  103 at Sat Mar  9 13:21:35 2019, MaxMem=   671088640 cpu:               0.2 elap:               0.0
 (Enter /shared/centos7/gaussian/g16/l202.exe)
                          Input orientation:                          
 ---------------------------------------------------------------------
 Center     Atomic      Atomic             Coordinates (Angstroms)
 Number     Number       Type             X           Y           Z
 ---------------------------------------------------------------------
      1          8           0       -0.639978   -0.489705    0.280464
      2          6           0       -0.188162    0.277259   -2.029800
      3          6           0       -2.001565   -0.147470    0.140925
      4          6           0        0.220793    0.061745   -0.614577
      5          1           0       -0.491711   -0.657252   -2.520701
      6          1           0        0.653564    0.684301   -2.586082
      7          1           0       -1.019693    0.977856   -2.125686
      8          1           0       -2.523830   -0.595663    0.981173
      9          1           0       -2.131999    0.937279    0.167887
     10          1           0       -2.419660   -0.536236   -0.789763
     11          1           0        1.242091   -0.200281   -0.379347
 ---------------------------------------------------------------------
                    Distance matrix (angstroms):
                    1          2          3          4          5
     1  O    0.000000
     2  C    2.475821   0.000000
     3  C    1.410856   2.860223   0.000000
     4  C    1.358721   1.488807   2.356571   0.000000
     5  H    2.810085   1.098379   3.102223   2.158223   0.000000
     6  H    3.356878   1.087950   3.895911   2.112273   1.765133
     7  H    2.843848   1.091546   2.714398   2.159053   1.763060
     8  H    2.012739   3.909386   1.086119   3.242153   4.049249
     9  H    2.067627   3.007317   1.092896   2.629531   3.530096
    10  H    2.077214   2.679376   1.091844   2.712981   2.593797
    11  H    2.015267   2.235545   3.285541   1.080297   2.792900
                    6          7          8          9         10
     6  H    0.000000
     7  H    1.760093   0.000000
     8  H    4.945650   3.793542   0.000000
     9  H    3.925265   2.549381   1.779010   0.000000
    10  H    3.763135   2.457046   1.774992   1.780756   0.000000
    11  H    2.449189   3.090853   4.023618   3.602498   3.699964
                   11
    11  H    0.000000
 Stoichiometry    C3H7O(2)
 Framework group  C1[X(C3H7O)]
 Deg. of freedom    27
 Full point group                 C1      NOp   1
 Largest Abelian subgroup         C1      NOp   1
 Largest concise Abelian subgroup C1      NOp   1
                         Standard orientation:                         
 ---------------------------------------------------------------------
 Center     Atomic      Atomic             Coordinates (Angstroms)
 Number     Number       Type             X           Y           Z
 ---------------------------------------------------------------------
      1          8           0       -0.693521    0.685591    0.149327
      2          6           0        1.464606   -0.523019    0.042364
      3          6           0       -1.394058   -0.522389   -0.052033
      4          6           0        0.624935    0.686319   -0.178995
      5          1           0        1.471137   -0.836381    1.095074
      6          1           0        2.490909   -0.301497   -0.242707
      7          1           0        1.133327   -1.379337   -0.547931
      8          1           0       -2.437329   -0.319275    0.171539
      9          1           0       -1.301927   -0.854145   -1.089275
     10          1           0       -1.032377   -1.311216    0.610584
     11          1           0        1.051532    1.671650   -0.059915
 ---------------------------------------------------------------------
 Rotational constants (GHZ):          16.0063026           5.9437019           4.6504350
 Leave Link  202 at Sat Mar  9 13:21:35 2019, MaxMem=   671088640 cpu:               0.3 elap:               0.0
 (Enter /shared/centos7/gaussian/g16/l301.exe)
 Standard basis: 6-311+G(2df,2p) (5D, 7F)
 Ernie: Thresh=  0.10000D-02 Tol=  0.10000D-05 Strict=F.
 There are   219 symmetry adapted cartesian basis functions of A   symmetry.
 There are   199 symmetry adapted basis functions of A   symmetry.
   199 basis functions,   285 primitive gaussians,   219 cartesian basis functions
    17 alpha electrons       16 beta electrons
       nuclear repulsion energy       127.9074446213 Hartrees.
 IExCor= 4336 DFT=T Ex+Corr=M062X ExCW=0 ScaHFX=  0.540000
 ScaDFX=  1.000000  1.000000  1.000000  1.000000 ScalE2=  1.000000  1.000000
 IRadAn=      5 IRanWt=     -1 IRanGd=            0 ICorTp=0 IEmpDi=  4
 NAtoms=   11 NActive=   11 NUniq=   11 SFac= 1.00D+00 NAtFMM=   60 NAOKFM=F Big=F
 Integral buffers will be    131072 words long.
 Raffenetti 2 integral format.
 Two-electron integral symmetry is turned on.
 Leave Link  301 at Sat Mar  9 13:21:35 2019, MaxMem=   671088640 cpu:               1.3 elap:               0.1
 (Enter /shared/centos7/gaussian/g16/l302.exe)
 NPDir=0 NMtPBC=     1 NCelOv=     1 NCel=       1 NClECP=     1 NCelD=      1
         NCelK=      1 NCelE2=     1 NClLst=     1 CellRange=     0.0.
 One-electron integrals computed using PRISM.
 One-electron integral symmetry used in STVInt
 NBasis=   199 RedAO= T EigKep=  1.11D-04  NBF=   199
 NBsUse=   199 1.00D-06 EigRej= -1.00D+00 NBFU=   199
 Precomputing XC quadrature grid using
 IXCGrd= 4 IRadAn=           5 IRanWt=          -1 IRanGd=           0 AccXCQ= 0.00D+00.
 Generated NRdTot=       0 NPtTot=           0 NUsed=           0 NTot=          32
 NSgBfM=   219   219   219   219   219 MxSgAt=    11 MxSgA2=    11.
 Leave Link  302 at Sat Mar  9 13:21:36 2019, MaxMem=   671088640 cpu:               6.7 elap:               0.4
 (Enter /shared/centos7/gaussian/g16/l303.exe)
 DipDrv:  MaxL=1.
 Leave Link  303 at Sat Mar  9 13:21:36 2019, MaxMem=   671088640 cpu:               0.7 elap:               0.1
 (Enter /shared/centos7/gaussian/g16/l401.exe)
 ExpMin= 4.38D-02 ExpMax= 8.59D+03 ExpMxC= 1.30D+03 IAcc=3 IRadAn=         5 AccDes= 0.00D+00
 Harris functional with IExCor= 1009 and IRadAn=       5 diagonalized for initial guess.
 HarFok:  IExCor= 1009 AccDes= 0.00D+00 IRadAn=         5 IDoV= 1 UseB2=F ITyADJ=14
 ICtDFT=  3500011 ScaDFX=  1.000000  1.000000  1.000000  1.000000
 FoFCou: FMM=F IPFlag=           0 FMFlag=      100000 FMFlg1=           0
         NFxFlg=           0 DoJE=T BraDBF=F KetDBF=T FulRan=T
         wScrn=  0.000000 ICntrl=       500 IOpCl=  0 I1Cent=   200000004 NGrid=           0
         NMat0=    1 NMatS0=      1 NMatT0=    0 NMatD0=    1 NMtDS0=    0 NMtDT0=    0
 Petite list used in FoFCou.
 Harris En= -193.581019506251    
 JPrj=0 DoOrth=F DoCkMO=F.
 Initial guess <Sx>= 0.0000 <Sy>= 0.0000 <Sz>= 0.5000 <S**2>= 0.7500 S= 0.5000
 Leave Link  401 at Sat Mar  9 13:21:37 2019, MaxMem=   671088640 cpu:              18.6 elap:               1.0
 (Enter /shared/centos7/gaussian/g16/l502.exe)
 Keep R1 and R2 ints in memory in canonical form, NReq=416958841.
 FoFCou: FMM=F IPFlag=           0 FMFlag=           0 FMFlg1=           0
         NFxFlg=           0 DoJE=F BraDBF=F KetDBF=F FulRan=T
         wScrn=  0.000000 ICntrl=       600 IOpCl=  0 I1Cent=           0 NGrid=           0
         NMat0=    1 NMatS0=  19900 NMatT0=    0 NMatD0=    1 NMtDS0=    0 NMtDT0=    0
 Symmetry not used in FoFCou.
 Two-electron integral symmetry not used.
 UHF open shell SCF:
 Using DIIS extrapolation, IDIIS=  1040.
 NGot=   671088640 LenX=   274956345 LenY=   274907943
 Requested convergence on RMS density matrix=1.00D-08 within 128 cycles.
 Requested convergence on MAX density matrix=1.00D-06.
 Requested convergence on             energy=1.00D-06.
 No special actions if energy rises.

 Cycle   1  Pass 1  IDiag  1:
 E= -193.521633244215    
 DIIS: error= 2.76D-02 at cycle   1 NSaved=   1.
 NSaved= 1 IEnMin= 1 EnMin= -193.521633244215     IErMin= 1 ErrMin= 2.76D-02
 ErrMax= 2.76D-02  0.00D+00 EMaxC= 1.00D-01 BMatC= 6.28D-01 BMatP= 6.28D-01
 IDIUse=3 WtCom= 7.24D-01 WtEn= 2.76D-01
 Coeff-Com:  0.100D+01
 Coeff-En:   0.100D+01
 Coeff:      0.100D+01
 Gap=     0.202 Goal=   None    Shift=    0.000
 Gap=     0.391 Goal=   None    Shift=    0.000
 GapD=    0.202 DampG=1.000 DampE=0.500 DampFc=0.5000 IDamp=-1.
 Damping current iteration by 5.00D-01
 RMSDP=2.35D-03 MaxDP=1.13D-01              OVMax= 1.49D-01

 Cycle   2  Pass 1  IDiag  1:
 E= -193.590927672731     Delta-E=       -0.069294428516 Rises=F Damp=T
 DIIS: error= 5.61D-03 at cycle   2 NSaved=   2.
 NSaved= 2 IEnMin= 2 EnMin= -193.590927672731     IErMin= 2 ErrMin= 5.61D-03
 ErrMax= 5.61D-03  0.00D+00 EMaxC= 1.00D-01 BMatC= 4.87D-02 BMatP= 6.28D-01
 IDIUse=3 WtCom= 9.44D-01 WtEn= 5.61D-02
 Coeff-Com: -0.180D+00 0.118D+01
 Coeff-En:   0.000D+00 0.100D+01
 Coeff:     -0.170D+00 0.117D+01
 Gap=     0.236 Goal=   None    Shift=    0.000
 Gap=     0.392 Goal=   None    Shift=    0.000
 RMSDP=7.34D-04 MaxDP=2.10D-02 DE=-6.93D-02 OVMax= 7.23D-02

 Cycle   3  Pass 1  IDiag  1:
 E= -193.652596909697     Delta-E=       -0.061669236966 Rises=F Damp=F
 DIIS: error= 2.93D-03 at cycle   3 NSaved=   3.
 NSaved= 3 IEnMin= 3 EnMin= -193.652596909697     IErMin= 3 ErrMin= 2.93D-03
 ErrMax= 2.93D-03  0.00D+00 EMaxC= 1.00D-01 BMatC= 4.18D-03 BMatP= 4.87D-02
 IDIUse=3 WtCom= 9.71D-01 WtEn= 2.93D-02
 Coeff-Com: -0.784D-01 0.237D+00 0.842D+00
 Coeff-En:   0.000D+00 0.000D+00 0.100D+01
 Coeff:     -0.762D-01 0.230D+00 0.846D+00
 Gap=     0.231 Goal=   None    Shift=    0.000
 Gap=     0.362 Goal=   None    Shift=    0.000
 RMSDP=1.60D-04 MaxDP=7.83D-03 DE=-6.17D-02 OVMax= 9.64D-03

 Cycle   4  Pass 1  IDiag  1:
 E= -193.653662370889     Delta-E=       -0.001065461192 Rises=F Damp=F
 DIIS: error= 7.25D-04 at cycle   4 NSaved=   4.
 NSaved= 4 IEnMin= 4 EnMin= -193.653662370889     IErMin= 4 ErrMin= 7.25D-04
 ErrMax= 7.25D-04  0.00D+00 EMaxC= 1.00D-01 BMatC= 3.22D-04 BMatP= 4.18D-03
 IDIUse=3 WtCom= 9.93D-01 WtEn= 7.25D-03
 Coeff-Com: -0.978D-02 0.146D-01 0.202D+00 0.793D+00
 Coeff-En:   0.000D+00 0.000D+00 0.000D+00 0.100D+01
 Coeff:     -0.971D-02 0.145D-01 0.200D+00 0.795D+00
 Gap=     0.234 Goal=   None    Shift=    0.000
 Gap=     0.363 Goal=   None    Shift=    0.000
 RMSDP=6.05D-05 MaxDP=2.11D-03 DE=-1.07D-03 OVMax= 6.57D-03

 Cycle   5  Pass 1  IDiag  1:
 E= -193.653785908953     Delta-E=       -0.000123538064 Rises=F Damp=F
 DIIS: error= 3.56D-04 at cycle   5 NSaved=   5.
 NSaved= 5 IEnMin= 5 EnMin= -193.653785908953     IErMin= 5 ErrMin= 3.56D-04
 ErrMax= 3.56D-04  0.00D+00 EMaxC= 1.00D-01 BMatC= 1.04D-04 BMatP= 3.22D-04
 IDIUse=3 WtCom= 9.96D-01 WtEn= 3.56D-03
 Coeff-Com:  0.400D-02-0.184D-01-0.790D-02 0.291D+00 0.731D+00
 Coeff-En:   0.000D+00 0.000D+00 0.000D+00 0.000D+00 0.100D+01
 Coeff:      0.399D-02-0.183D-01-0.787D-02 0.290D+00 0.732D+00
 Gap=     0.234 Goal=   None    Shift=    0.000
 Gap=     0.362 Goal=   None    Shift=    0.000
 RMSDP=3.38D-05 MaxDP=1.39D-03 DE=-1.24D-04 OVMax= 2.96D-03

 Cycle   6  Pass 1  IDiag  1:
 E= -193.653825828513     Delta-E=       -0.000039919560 Rises=F Damp=F
 DIIS: error= 2.42D-04 at cycle   6 NSaved=   6.
 NSaved= 6 IEnMin= 6 EnMin= -193.653825828513     IErMin= 6 ErrMin= 2.42D-04
 ErrMax= 2.42D-04  0.00D+00 EMaxC= 1.00D-01 BMatC= 2.33D-05 BMatP= 1.04D-04
 IDIUse=3 WtCom= 9.98D-01 WtEn= 2.42D-03
 Coeff-Com:  0.568D-02-0.117D-01-0.952D-01-0.227D+00 0.252D+00 0.108D+01
 Coeff-En:   0.000D+00 0.000D+00 0.000D+00 0.000D+00 0.000D+00 0.100D+01
 Coeff:      0.566D-02-0.117D-01-0.950D-01-0.226D+00 0.251D+00 0.108D+01
 Gap=     0.235 Goal=   None    Shift=    0.000
 Gap=     0.363 Goal=   None    Shift=    0.000
 RMSDP=3.31D-05 MaxDP=1.16D-03 DE=-3.99D-05 OVMax= 4.63D-03

 Cycle   7  Pass 1  IDiag  1:
 E= -193.653845741628     Delta-E=       -0.000019913114 Rises=F Damp=F
 DIIS: error= 5.68D-05 at cycle   7 NSaved=   7.
 NSaved= 7 IEnMin= 7 EnMin= -193.653845741628     IErMin= 7 ErrMin= 5.68D-05
 ErrMax= 5.68D-05  0.00D+00 EMaxC= 1.00D-01 BMatC= 3.40D-06 BMatP= 2.33D-05
 IDIUse=1 WtCom= 1.00D+00 WtEn= 0.00D+00
 Coeff-Com:  0.606D-03-0.404D-03-0.234D-01-0.913D-01-0.433D-01 0.313D+00
 Coeff-Com:  0.845D+00
 Coeff:      0.606D-03-0.404D-03-0.234D-01-0.913D-01-0.433D-01 0.313D+00
 Coeff:      0.845D+00
 Gap=     0.235 Goal=   None    Shift=    0.000
 Gap=     0.363 Goal=   None    Shift=    0.000
 RMSDP=7.94D-06 MaxDP=2.71D-04 DE=-1.99D-05 OVMax= 9.76D-04

 Cycle   8  Pass 1  IDiag  1:
 E= -193.653847357485     Delta-E=       -0.000001615857 Rises=F Damp=F
 DIIS: error= 3.89D-05 at cycle   8 NSaved=   8.
 NSaved= 8 IEnMin= 8 EnMin= -193.653847357485     IErMin= 8 ErrMin= 3.89D-05
 ErrMax= 3.89D-05  0.00D+00 EMaxC= 1.00D-01 BMatC= 4.53D-07 BMatP= 3.40D-06
 IDIUse=1 WtCom= 1.00D+00 WtEn= 0.00D+00
 Coeff-Com: -0.110D-02 0.251D-02 0.131D-01 0.224D-01-0.611D-01-0.118D+00
 Coeff-Com:  0.227D+00 0.915D+00
 Coeff:     -0.110D-02 0.251D-02 0.131D-01 0.224D-01-0.611D-01-0.118D+00
 Coeff:      0.227D+00 0.915D+00
 Gap=     0.235 Goal=   None    Shift=    0.000
 Gap=     0.363 Goal=   None    Shift=    0.000
 RMSDP=3.25D-06 MaxDP=1.58D-04 DE=-1.62D-06 OVMax= 4.48D-04

 Cycle   9  Pass 1  IDiag  1:
 E= -193.653847594106     Delta-E=       -0.000000236621 Rises=F Damp=F
 DIIS: error= 7.92D-06 at cycle   9 NSaved=   9.
 NSaved= 9 IEnMin= 9 EnMin= -193.653847594106     IErMin= 9 ErrMin= 7.92D-06
 ErrMax= 7.92D-06  0.00D+00 EMaxC= 1.00D-01 BMatC= 5.29D-08 BMatP= 4.53D-07
 IDIUse=1 WtCom= 1.00D+00 WtEn= 0.00D+00
 Coeff-Com: -0.277D-03 0.554D-03 0.568D-02 0.163D-01-0.843D-02-0.656D-01
 Coeff-Com: -0.715D-01 0.206D+00 0.918D+00
 Coeff:     -0.277D-03 0.554D-03 0.568D-02 0.163D-01-0.843D-02-0.656D-01
 Coeff:     -0.715D-01 0.206D+00 0.918D+00
 Gap=     0.235 Goal=   None    Shift=    0.000
 Gap=     0.363 Goal=   None    Shift=    0.000
 RMSDP=1.17D-06 MaxDP=5.84D-05 DE=-2.37D-07 OVMax= 1.38D-04

 Cycle  10  Pass 1  IDiag  1:
 E= -193.653847621671     Delta-E=       -0.000000027565 Rises=F Damp=F
 DIIS: error= 1.80D-06 at cycle  10 NSaved=  10.
 NSaved=10 IEnMin=10 EnMin= -193.653847621671     IErMin=10 ErrMin= 1.80D-06
 ErrMax= 1.80D-06  0.00D+00 EMaxC= 1.00D-01 BMatC= 3.42D-09 BMatP= 5.29D-08
 IDIUse=1 WtCom= 1.00D+00 WtEn= 0.00D+00
 Coeff-Com:  0.110D-03-0.238D-03-0.960D-03-0.138D-02 0.428D-02 0.104D-01
 Coeff-Com: -0.254D-01-0.777D-01 0.243D-01 0.107D+01
 Coeff:      0.110D-03-0.238D-03-0.960D-03-0.138D-02 0.428D-02 0.104D-01
 Coeff:     -0.254D-01-0.777D-01 0.243D-01 0.107D+01
 Gap=     0.235 Goal=   None    Shift=    0.000
 Gap=     0.363 Goal=   None    Shift=    0.000
 RMSDP=2.99D-07 MaxDP=1.05D-05 DE=-2.76D-08 OVMax= 3.82D-05

 Cycle  11  Pass 1  IDiag  1:
 E= -193.653847623688     Delta-E=       -0.000000002017 Rises=F Damp=F
 DIIS: error= 6.21D-07 at cycle  11 NSaved=  11.
 NSaved=11 IEnMin=11 EnMin= -193.653847623688     IErMin=11 ErrMin= 6.21D-07
 ErrMax= 6.21D-07  0.00D+00 EMaxC= 1.00D-01 BMatC= 4.64D-10 BMatP= 3.42D-09
 IDIUse=1 WtCom= 1.00D+00 WtEn= 0.00D+00
 Coeff-Com:  0.425D-04-0.912D-04-0.619D-03-0.144D-02 0.133D-02 0.727D-02
 Coeff-Com: -0.158D-02-0.320D-01-0.659D-01 0.247D+00 0.846D+00
 Coeff:      0.425D-04-0.912D-04-0.619D-03-0.144D-02 0.133D-02 0.727D-02
 Coeff:     -0.158D-02-0.320D-01-0.659D-01 0.247D+00 0.846D+00
 Gap=     0.235 Goal=   None    Shift=    0.000
 Gap=     0.363 Goal=   None    Shift=    0.000
 RMSDP=9.68D-08 MaxDP=3.69D-06 DE=-2.02D-09 OVMax= 7.59D-06

 Cycle  12  Pass 1  IDiag  1:
 E= -193.653847623858     Delta-E=       -0.000000000170 Rises=F Damp=F
 DIIS: error= 3.13D-07 at cycle  12 NSaved=  12.
 NSaved=12 IEnMin=12 EnMin= -193.653847623858     IErMin=12 ErrMin= 3.13D-07
 ErrMax= 3.13D-07  0.00D+00 EMaxC= 1.00D-01 BMatC= 6.73D-11 BMatP= 4.64D-10
 IDIUse=1 WtCom= 1.00D+00 WtEn= 0.00D+00
 Coeff-Com: -0.395D-05 0.759D-05-0.361D-04-0.139D-03-0.154D-03 0.618D-03
 Coeff-Com:  0.260D-02 0.171D-02-0.222D-01-0.721D-01 0.239D+00 0.850D+00
 Coeff:     -0.395D-05 0.759D-05-0.361D-04-0.139D-03-0.154D-03 0.618D-03
 Coeff:      0.260D-02 0.171D-02-0.222D-01-0.721D-01 0.239D+00 0.850D+00
 Gap=     0.235 Goal=   None    Shift=    0.000
 Gap=     0.363 Goal=   None    Shift=    0.000
 RMSDP=4.18D-08 MaxDP=1.97D-06 DE=-1.70D-10 OVMax= 2.77D-06

 Cycle  13  Pass 1  IDiag  1:
 E= -193.653847623886     Delta-E=       -0.000000000028 Rises=F Damp=F
 DIIS: error= 7.36D-08 at cycle  13 NSaved=  13.
 NSaved=13 IEnMin=13 EnMin= -193.653847623886     IErMin=13 ErrMin= 7.36D-08
 ErrMax= 7.36D-08  0.00D+00 EMaxC= 1.00D-01 BMatC= 3.73D-12 BMatP= 6.73D-11
 IDIUse=1 WtCom= 1.00D+00 WtEn= 0.00D+00
 Coeff-Com: -0.388D-05 0.821D-05 0.471D-04 0.104D-03-0.112D-03-0.590D-03
 Coeff-Com:  0.387D-03 0.287D-02 0.389D-02-0.265D-01-0.718D-01 0.503D-01
 Coeff-Com:  0.104D+01
 Coeff:     -0.388D-05 0.821D-05 0.471D-04 0.104D-03-0.112D-03-0.590D-03
 Coeff:      0.387D-03 0.287D-02 0.389D-02-0.265D-01-0.718D-01 0.503D-01
 Coeff:      0.104D+01
 Gap=     0.235 Goal=   None    Shift=    0.000
 Gap=     0.363 Goal=   None    Shift=    0.000
 RMSDP=1.45D-08 MaxDP=6.26D-07 DE=-2.82D-11 OVMax= 9.08D-07

 Cycle  14  Pass 1  IDiag  1:
 E= -193.653847623890     Delta-E=       -0.000000000004 Rises=F Damp=F
 DIIS: error= 1.30D-08 at cycle  14 NSaved=  14.
 NSaved=14 IEnMin=14 EnMin= -193.653847623890     IErMin=14 ErrMin= 1.30D-08
 ErrMax= 1.30D-08  0.00D+00 EMaxC= 1.00D-01 BMatC= 1.92D-13 BMatP= 3.73D-12
 IDIUse=1 WtCom= 1.00D+00 WtEn= 0.00D+00
 Coeff-Com:  0.672D-06-0.121D-05-0.290D-05-0.770D-05 0.153D-04 0.333D-04
 Coeff-Com: -0.166D-03-0.231D-03 0.728D-03 0.608D-02-0.965D-02-0.523D-01
 Coeff-Com: -0.686D-01 0.112D+01
 Coeff:      0.672D-06-0.121D-05-0.290D-05-0.770D-05 0.153D-04 0.333D-04
 Coeff:     -0.166D-03-0.231D-03 0.728D-03 0.608D-02-0.965D-02-0.523D-01
 Coeff:     -0.686D-01 0.112D+01
 Gap=     0.235 Goal=   None    Shift=    0.000
 Gap=     0.363 Goal=   None    Shift=    0.000
 RMSDP=3.94D-09 MaxDP=1.54D-07 DE=-3.87D-12 OVMax= 2.80D-07

 SCF Done:  E(UM062X) =  -193.653847624     A.U. after   14 cycles
            NFock= 14  Conv=0.39D-08     -V/T= 2.0038
 <Sx>= 0.0000 <Sy>= 0.0000 <Sz>= 0.5000 <S**2>= 0.7544 S= 0.5022
 <L.S>= 0.000000000000E+00
 KE= 1.929295696309D+02 PE=-7.076509390861D+02 EE= 1.931600772101D+02
 Annihilation of the first spin contaminant:
 S**2 before annihilation     0.7544,   after     0.7500
 Leave Link  502 at Sat Mar  9 13:22:23 2019, MaxMem=   671088640 cpu:             716.5 elap:              46.5
 (Enter /shared/centos7/gaussian/g16/l801.exe)
 DoSCS=F DFT=T ScalE2(SS,OS)=  1.000000  1.000000
 Range of M.O.s used for correlation:     1   199
 NBasis=   199 NAE=    17 NBE=    16 NFC=     0 NFV=     0
 NROrb=    199 NOA=    17 NOB=    16 NVA=   182 NVB=   183

 **** Warning!!: The largest alpha MO coefficient is  0.32853235D+02


 **** Warning!!: The largest beta MO coefficient is  0.40085183D+02

 Leave Link  801 at Sat Mar  9 13:22:23 2019, MaxMem=   671088640 cpu:               0.5 elap:               0.1
 (Enter /shared/centos7/gaussian/g16/l1101.exe)
 Using compressed storage, NAtomX=    11.
 Will process     12 centers per pass.
 Leave Link 1101 at Sat Mar  9 13:22:24 2019, MaxMem=   671088640 cpu:               7.8 elap:               0.4
 (Enter /shared/centos7/gaussian/g16/l1102.exe)
 Symmetrizing basis deriv contribution to polar:
 IMax=3 JMax=2 DiffMx= 0.00D+00
 Leave Link 1102 at Sat Mar  9 13:22:24 2019, MaxMem=   671088640 cpu:               0.6 elap:               0.1
 (Enter /shared/centos7/gaussian/g16/l1110.exe)
 Forming Gx(P) for the SCF density, NAtomX=    11.
 Integral derivatives from FoFJK, PRISM(SPDF).
 Do as many integral derivatives as possible in FoFJK.
 G2DrvN: MDV=     671087712.
 G2DrvN: will do    12 centers at a time, making    1 passes.
 Calling FoFCou, ICntrl=  3107 FMM=F I1Cent=   0 AccDes= 0.00D+00.
 FoFJK:  IHMeth= 1 ICntrl=    3107 DoSepK=F KAlg= 0 I1Cent=           0 FoldK=F
 IRaf=         0 NMat=       1 IRICut=       1 DoRegI=T DoRafI=F ISym2E= 0 IDoP0=0 IntGTp=1.
 FoFCou: FMM=F IPFlag=           0 FMFlag=      100000 FMFlg1=           0
         NFxFlg=           0 DoJE=F BraDBF=F KetDBF=F FulRan=T
         wScrn=  0.000000 ICntrl=      3107 IOpCl=  1 I1Cent=           0 NGrid=           0
         NMat0=    1 NMatS0=      1 NMatT0=    0 NMatD0=    1 NMtDS0=    0 NMtDT0=    0
 Symmetry not used in FoFCou.
 End of G2Drv F.D. properties file   721 does not exist.
 End of G2Drv F.D. properties file   722 does not exist.
 End of G2Drv F.D. properties file   788 does not exist.
 Leave Link 1110 at Sat Mar  9 13:23:36 2019, MaxMem=   671088640 cpu:            1439.8 elap:              72.0
 (Enter /shared/centos7/gaussian/g16/l1002.exe)
 Minotr:  UHF open shell wavefunction.
          IDoAtm=11111111111
          Direct CPHF calculation.
          Differentiating once with respect to nuclear coordinates.
          Requested convergence is 1.0D-08 RMS, and 1.0D-07 maximum.
          Secondary convergence is 1.0D-12 RMS, and 1.0D-12 maximum.
          NewPWx=T KeepS1=F KeepF1=F KeepIn=T MapXYZ=F SortEE=F KeepMc=T.
         3335 words used for storage of precomputed grid.
 Keep R1 and R2 ints in memory in canonical form, NReq=416899964.
 FoFCou: FMM=F IPFlag=           0 FMFlag=           0 FMFlg1=           0
         NFxFlg=           0 DoJE=F BraDBF=F KetDBF=F FulRan=T
         wScrn=  0.000000 ICntrl=       600 IOpCl=  0 I1Cent=           0 NGrid=           0
         NMat0=    1 NMatS0=  19900 NMatT0=    0 NMatD0=    1 NMtDS0=    0 NMtDT0=    0
 Symmetry not used in FoFCou.
 Two-electron integral symmetry not used.
          MDV=     671088640 using IRadAn=       1.
          Solving linear equations simultaneously, MaxMat=       0.
          There are    36 degrees of freedom in the 1st order CPHF.  IDoFFX=6 NUNeed=     0.
     30 vectors produced by pass  0 Test12= 1.67D-14 2.78D-09 XBig12= 1.43D-01 7.32D-02.
 AX will form    30 AO Fock derivatives at one time.
     30 vectors produced by pass  1 Test12= 1.67D-14 2.78D-09 XBig12= 9.52D-03 2.12D-02.
     30 vectors produced by pass  2 Test12= 1.67D-14 2.78D-09 XBig12= 6.20D-04 5.39D-03.
     30 vectors produced by pass  3 Test12= 1.67D-14 2.78D-09 XBig12= 1.01D-05 5.54D-04.
     30 vectors produced by pass  4 Test12= 1.67D-14 2.78D-09 XBig12= 1.44D-07 7.34D-05.
     30 vectors produced by pass  5 Test12= 1.67D-14 2.78D-09 XBig12= 1.47D-09 4.01D-06.
     30 vectors produced by pass  6 Test12= 1.67D-14 2.78D-09 XBig12= 1.05D-11 3.24D-07.
     12 vectors produced by pass  7 Test12= 1.67D-14 2.78D-09 XBig12= 8.02D-14 3.88D-08.
 InvSVY:  IOpt=1 It=  1 EMax= 2.00D-15
 Solved reduced A of dimension   222 with    30 vectors.
 End of Minotr F.D. properties file   721 does not exist.
 End of Minotr F.D. properties file   722 does not exist.
 End of Minotr F.D. properties file   788 does not exist.
 Leave Link 1002 at Sat Mar  9 13:25:11 2019, MaxMem=   671088640 cpu:            1895.3 elap:              94.8
 (Enter /shared/centos7/gaussian/g16/l601.exe)
 Copying SCF densities to generalized density rwf, IOpCl= 1 IROHF=0.

 **********************************************************************

            Population analysis using the SCF density.

 **********************************************************************

 Orbital symmetries:
 Alpha Orbitals:
       Occupied  (A) (A) (A) (A) (A) (A) (A) (A) (A) (A) (A) (A)
                 (A) (A) (A) (A) (A)
       Virtual   (A) (A) (A) (A) (A) (A) (A) (A) (A) (A) (A) (A)
                 (A) (A) (A) (A) (A) (A) (A) (A) (A) (A) (A) (A)
                 (A) (A) (A) (A) (A) (A) (A) (A) (A) (A) (A) (A)
                 (A) (A) (A) (A) (A) (A) (A) (A) (A) (A) (A) (A)
                 (A) (A) (A) (A) (A) (A) (A) (A) (A) (A) (A) (A)
                 (A) (A) (A) (A) (A) (A) (A) (A) (A) (A) (A) (A)
                 (A) (A) (A) (A) (A) (A) (A) (A) (A) (A) (A) (A)
                 (A) (A) (A) (A) (A) (A) (A) (A) (A) (A) (A) (A)
                 (A) (A) (A) (A) (A) (A) (A) (A) (A) (A) (A) (A)
                 (A) (A) (A) (A) (A) (A) (A) (A) (A) (A) (A) (A)
                 (A) (A) (A) (A) (A) (A) (A) (A) (A) (A) (A) (A)
                 (A) (A) (A) (A) (A) (A) (A) (A) (A) (A) (A) (A)
                 (A) (A) (A) (A) (A) (A) (A) (A) (A) (A) (A) (A)
                 (A) (A) (A) (A) (A) (A) (A) (A) (A) (A) (A) (A)
                 (A) (A) (A) (A) (A) (A) (A) (A) (A) (A) (A) (A)
                 (A) (A)
 Beta  Orbitals:
       Occupied  (A) (A) (A) (A) (A) (A) (A) (A) (A) (A) (A) (A)
                 (A) (A) (A) (A)
       Virtual   (A) (A) (A) (A) (A) (A) (A) (A) (A) (A) (A) (A)
                 (A) (A) (A) (A) (A) (A) (A) (A) (A) (A) (A) (A)
                 (A) (A) (A) (A) (A) (A) (A) (A) (A) (A) (A) (A)
                 (A) (A) (A) (A) (A) (A) (A) (A) (A) (A) (A) (A)
                 (A) (A) (A) (A) (A) (A) (A) (A) (A) (A) (A) (A)
                 (A) (A) (A) (A) (A) (A) (A) (A) (A) (A) (A) (A)
                 (A) (A) (A) (A) (A) (A) (A) (A) (A) (A) (A) (A)
                 (A) (A) (A) (A) (A) (A) (A) (A) (A) (A) (A) (A)
                 (A) (A) (A) (A) (A) (A) (A) (A) (A) (A) (A) (A)
                 (A) (A) (A) (A) (A) (A) (A) (A) (A) (A) (A) (A)
                 (A) (A) (A) (A) (A) (A) (A) (A) (A) (A) (A) (A)
                 (A) (A) (A) (A) (A) (A) (A) (A) (A) (A) (A) (A)
                 (A) (A) (A) (A) (A) (A) (A) (A) (A) (A) (A) (A)
                 (A) (A) (A) (A) (A) (A) (A) (A) (A) (A) (A) (A)
                 (A) (A) (A) (A) (A) (A) (A) (A) (A) (A) (A) (A)
                 (A) (A) (A)
 The electronic state is 2-A.
 Alpha  occ. eigenvalues --  -19.64784 -10.58316 -10.57698 -10.53285  -1.18693
 Alpha  occ. eigenvalues --   -0.85770  -0.80215  -0.66974  -0.57992  -0.55498
 Alpha  occ. eigenvalues --   -0.54289  -0.48109  -0.46750  -0.44436  -0.41814
 Alpha  occ. eigenvalues --   -0.38358  -0.21984
 Alpha virt. eigenvalues --    0.01544   0.03182   0.03590   0.04810   0.06400
 Alpha virt. eigenvalues --    0.07244   0.07749   0.09013   0.09693   0.11433
 Alpha virt. eigenvalues --    0.13108   0.15138   0.16981   0.18084   0.21283
 Alpha virt. eigenvalues --    0.22198   0.22733   0.23895   0.24808   0.26609
 Alpha virt. eigenvalues --    0.27574   0.29472   0.31070   0.33181   0.33579
 Alpha virt. eigenvalues --    0.34606   0.41539   0.43755   0.44284   0.47581
 Alpha virt. eigenvalues --    0.51021   0.53185   0.54102   0.54968   0.55219
 Alpha virt. eigenvalues --    0.57021   0.59415   0.60808   0.62363   0.62706
 Alpha virt. eigenvalues --    0.64921   0.66121   0.67627   0.69820   0.74695
 Alpha virt. eigenvalues --    0.76751   0.78923   0.83850   0.85041   0.88299
 Alpha virt. eigenvalues --    0.88768   0.94456   0.96615   0.98122   1.04541
 Alpha virt. eigenvalues --    1.06317   1.06992   1.11269   1.13992   1.14425
 Alpha virt. eigenvalues --    1.14842   1.17283   1.18365   1.22329   1.23716
 Alpha virt. eigenvalues --    1.26174   1.27224   1.30313   1.33495   1.33787
 Alpha virt. eigenvalues --    1.34983   1.39206   1.40769   1.42749   1.44532
 Alpha virt. eigenvalues --    1.45871   1.47796   1.48371   1.52234   1.55242
 Alpha virt. eigenvalues --    1.57695   1.60222   1.65179   1.68114   1.72476
 Alpha virt. eigenvalues --    1.95210   2.04126   2.11695   2.28860   2.32137
 Alpha virt. eigenvalues --    2.39920   2.42746   2.43702   2.53541   2.55970
 Alpha virt. eigenvalues --    2.61447   2.71434   2.79789   2.81158   2.85162
 Alpha virt. eigenvalues --    2.87047   2.96103   2.97441   3.00501   3.03950
 Alpha virt. eigenvalues --    3.05986   3.09211   3.11935   3.13496   3.14279
 Alpha virt. eigenvalues --    3.16745   3.17659   3.22865   3.26979   3.28865
 Alpha virt. eigenvalues --    3.32545   3.33085   3.36889   3.39173   3.41347
 Alpha virt. eigenvalues --    3.44710   3.45832   3.49482   3.51888   3.54419
 Alpha virt. eigenvalues --    3.56511   3.59766   3.70621   3.71305   3.75150
 Alpha virt. eigenvalues --    3.84798   3.85892   3.87394   3.90258   3.92600
 Alpha virt. eigenvalues --    3.93578   3.98805   4.03384   4.04355   4.07647
 Alpha virt. eigenvalues --    4.13903   4.18923   4.20301   4.22985   4.24278
 Alpha virt. eigenvalues --    4.27848   4.32921   4.33632   4.34954   4.41617
 Alpha virt. eigenvalues --    4.46136   4.49353   4.51456   4.57780   4.61094
 Alpha virt. eigenvalues --    4.70231   4.91277   5.12422   5.19985   5.25112
 Alpha virt. eigenvalues --    5.26475   5.46847   5.49808   5.54802   5.57913
 Alpha virt. eigenvalues --    5.60443   5.64059   5.67960   5.78347   5.95129
 Alpha virt. eigenvalues --    6.31517   6.44708   6.80182   7.13476   7.19662
 Alpha virt. eigenvalues --    7.28364   7.69304   7.71128  24.30365  24.44497
 Alpha virt. eigenvalues --   24.51757  50.16778
  Beta  occ. eigenvalues --  -19.64424 -10.58319 -10.56967 -10.53320  -1.17456
  Beta  occ. eigenvalues --   -0.84318  -0.79895  -0.65304  -0.57121  -0.53710
  Beta  occ. eigenvalues --   -0.53062  -0.46854  -0.46465  -0.43957  -0.39937
  Beta  occ. eigenvalues --   -0.36783
  Beta virt. eigenvalues --   -0.00495   0.01867   0.03204   0.03719   0.04714
  Beta virt. eigenvalues --    0.06349   0.07117   0.07674   0.08460   0.10092
  Beta virt. eigenvalues --    0.11350   0.12314   0.13920   0.16858   0.18422
  Beta virt. eigenvalues --    0.21413   0.22240   0.23159   0.24089   0.25200
  Beta virt. eigenvalues --    0.26712   0.27835   0.29423   0.31808   0.33239
  Beta virt. eigenvalues --    0.33766   0.35147   0.41639   0.43822   0.44290
  Beta virt. eigenvalues --    0.47853   0.51639   0.53211   0.54092   0.55154
  Beta virt. eigenvalues --    0.55487   0.57203   0.60532   0.61089   0.62870
  Beta virt. eigenvalues --    0.63433   0.64860   0.65951   0.67682   0.69411
  Beta virt. eigenvalues --    0.75121   0.77420   0.78339   0.83403   0.85704
  Beta virt. eigenvalues --    0.88201   0.88760   0.94261   0.96521   0.97818
  Beta virt. eigenvalues --    1.04490   1.06427   1.07019   1.11359   1.13963
  Beta virt. eigenvalues --    1.14445   1.14818   1.17470   1.18146   1.22551
  Beta virt. eigenvalues --    1.23581   1.26415   1.27300   1.30949   1.33600
  Beta virt. eigenvalues --    1.34315   1.35349   1.39292   1.40709   1.42762
  Beta virt. eigenvalues --    1.44588   1.45801   1.47790   1.48813   1.52376
  Beta virt. eigenvalues --    1.55062   1.57501   1.60001   1.65547   1.68812
  Beta virt. eigenvalues --    1.72361   1.95983   2.04595   2.12307   2.29431
  Beta virt. eigenvalues --    2.32780   2.40423   2.43104   2.44393   2.53903
  Beta virt. eigenvalues --    2.56827   2.62056   2.71997   2.82180   2.84595
  Beta virt. eigenvalues --    2.89379   2.89916   2.96429   2.97858   3.02991
  Beta virt. eigenvalues --    3.05388   3.06691   3.10070   3.12871   3.14513
  Beta virt. eigenvalues --    3.15296   3.17203   3.18440   3.24457   3.28809
  Beta virt. eigenvalues --    3.30153   3.34317   3.35514   3.38776   3.39890
  Beta virt. eigenvalues --    3.43246   3.46289   3.47466   3.51316   3.54017
  Beta virt. eigenvalues --    3.56438   3.58204   3.60261   3.72214   3.73942
  Beta virt. eigenvalues --    3.76885   3.85266   3.86169   3.87706   3.91254
  Beta virt. eigenvalues --    3.93175   3.94638   4.00447   4.04313   4.05052
  Beta virt. eigenvalues --    4.09433   4.14773   4.19070   4.21412   4.23233
  Beta virt. eigenvalues --    4.26214   4.28887   4.33186   4.33742   4.35332
  Beta virt. eigenvalues --    4.41906   4.46394   4.50351   4.52067   4.59263
  Beta virt. eigenvalues --    4.63901   4.73303   4.91438   5.15286   5.21263
  Beta virt. eigenvalues --    5.25725   5.27286   5.47686   5.52160   5.55256
  Beta virt. eigenvalues --    5.58096   5.61154   5.64437   5.68493   5.78728
  Beta virt. eigenvalues --    5.96079   6.32001   6.45064   6.80983   7.14272
  Beta virt. eigenvalues --    7.20575   7.29245   7.69672   7.71077  24.30797
  Beta virt. eigenvalues --   24.44508  24.52710  50.16531
          Condensed to atoms (all electrons):
               1          2          3          4          5          6
     1  O    8.165199  -0.053070   0.125312   0.068797   0.008652   0.007011
     2  C   -0.053070   5.045985  -0.016972   0.203092   0.427402   0.415259
     3  C    0.125312  -0.016972   4.985158  -0.081351  -0.009458   0.002103
     4  C    0.068797   0.203092  -0.081351   5.693609  -0.061521  -0.040055
     5  H    0.008652   0.427402  -0.009458  -0.061521   0.569085  -0.023164
     6  H    0.007011   0.415259   0.002103  -0.040055  -0.023164   0.525395
     7  H   -0.001733   0.404413   0.006729  -0.057474  -0.055060  -0.019491
     8  H   -0.055414  -0.000100   0.433618   0.008628  -0.000111   0.000023
     9  H   -0.045057  -0.004063   0.419193   0.014736   0.001806  -0.000155
    10  H   -0.040728  -0.000587   0.428130  -0.008225  -0.003395   0.000292
    11  H   -0.052435  -0.040208   0.005892   0.443784   0.000100  -0.005718
               7          8          9         10         11
     1  O   -0.001733  -0.055414  -0.045057  -0.040728  -0.052435
     2  C    0.404413  -0.000100  -0.004063  -0.000587  -0.040208
     3  C    0.006729   0.433618   0.419193   0.428130   0.005892
     4  C   -0.057474   0.008628   0.014736  -0.008225   0.443784
     5  H   -0.055060  -0.000111   0.001806  -0.003395   0.000100
     6  H   -0.019491   0.000023  -0.000155   0.000292  -0.005718
     7  H    0.586865   0.000535  -0.004281  -0.004610   0.004679
     8  H    0.000535   0.523486  -0.020457  -0.025989  -0.000023
     9  H   -0.004281  -0.020457   0.555646  -0.053708  -0.000008
    10  H   -0.004610  -0.025989  -0.053708   0.574664  -0.000404
    11  H    0.004679  -0.000023  -0.000008  -0.000404   0.484581
          Atomic-Atomic Spin Densities.
               1          2          3          4          5          6
     1  O    0.253202   0.012527   0.017621  -0.223754   0.010260  -0.000192
     2  C    0.012527  -0.026193   0.005504  -0.067158   0.007638   0.002614
     3  C    0.017621   0.005504   0.008128  -0.023338  -0.004545   0.000380
     4  C   -0.223754  -0.067158  -0.023338   1.303658  -0.024726  -0.005273
     5  H    0.010260   0.007638  -0.004545  -0.024726   0.095490  -0.003625
     6  H   -0.000192   0.002614   0.000380  -0.005273  -0.003625   0.005329
     7  H    0.001723   0.015424   0.007903  -0.042193  -0.023372   0.002863
     8  H   -0.000553  -0.000535  -0.001206   0.001700  -0.000010   0.000001
     9  H   -0.010185  -0.001380  -0.007610   0.024799   0.001767  -0.000111
    10  H   -0.004483   0.000251   0.004536  -0.004411  -0.004545   0.000088
    11  H    0.002279   0.005648   0.000660  -0.007474  -0.002275   0.000505
               7          8          9         10         11
     1  O    0.001723  -0.000553  -0.010185  -0.004483   0.002279
     2  C    0.015424  -0.000535  -0.001380   0.000251   0.005648
     3  C    0.007903  -0.001206  -0.007610   0.004536   0.000660
     4  C   -0.042193   0.001700   0.024799  -0.004411  -0.007474
     5  H   -0.023372  -0.000010   0.001767  -0.004545  -0.002275
     6  H    0.002863   0.000001  -0.000111   0.000088   0.000505
     7  H    0.059075  -0.000009  -0.005155   0.004059   0.000790
     8  H   -0.000009  -0.000721   0.000674   0.000313   0.000007
     9  H   -0.005155   0.000674   0.009453  -0.004761  -0.000316
    10  H    0.004059   0.000313  -0.004761   0.010764   0.000264
    11  H    0.000790   0.000007  -0.000316   0.000264  -0.037389
 Mulliken charges and spin densities:
               1          2
     1  O   -0.126535   0.058445
     2  C   -0.381152  -0.045661
     3  C   -0.298355   0.008034
     4  C   -0.184021   0.931831
     5  H    0.145664   0.052058
     6  H    0.138498   0.002579
     7  H    0.139428   0.021107
     8  H    0.135803  -0.000340
     9  H    0.136347   0.007175
    10  H    0.134560   0.002075
    11  H    0.159762  -0.037302
 Sum of Mulliken charges =  -0.00000   1.00000
 Mulliken charges and spin densities with hydrogens summed into heavy atoms:
               1          2
     1  O   -0.126535   0.058445
     2  C    0.042439   0.030083
     3  C    0.108355   0.016943
     4  C   -0.024259   0.894529
 APT charges:
               1
     1  O   -0.123923
     2  C   -1.140381
     3  C   -1.035192
     4  C   -0.371492
     5  H    0.307978
     6  H    0.486023
     7  H    0.292707
     8  H    0.498488
     9  H    0.317970
    10  H    0.295591
    11  H    0.472230
 Sum of APT charges =  -0.00000
 APT charges with hydrogens summed into heavy atoms:
               1
     1  O   -0.123923
     2  C   -0.053673
     3  C    0.076858
     4  C    0.100737
 Electronic spatial extent (au):  <R**2>=            313.5784
 Charge=             -0.0000 electrons
 Dipole moment (field-independent basis, Debye):
    X=              0.1958    Y=             -1.4406    Z=              0.1131  Tot=              1.4583
 Quadrupole moment (field-independent basis, Debye-Ang):
   XX=            -23.8564   YY=            -26.4672   ZZ=            -27.3778
   XY=              1.9759   XZ=              0.4808   YZ=              0.1515
 Traceless Quadrupole moment (field-independent basis, Debye-Ang):
   XX=              2.0441   YY=             -0.5668   ZZ=             -1.4774
   XY=              1.9759   XZ=              0.4808   YZ=              0.1515
 Octapole moment (field-independent basis, Debye-Ang**2):
  XXX=             -6.0460  YYY=              2.6321  ZZZ=              2.4236  XYY=              0.5766
  XXY=              0.0228  XXZ=              0.2292  XZZ=             -2.0504  YZZ=             -1.4091
  YYZ=              0.4165  XYZ=              0.3338
 Hexadecapole moment (field-independent basis, Debye-Ang**3):
 XXXX=           -250.0107 YYYY=           -108.8280 ZZZZ=            -47.1158 XXXY=              1.1522
 XXXZ=             -3.8097 YYYX=              2.9164 YYYZ=              1.4971 ZZZX=              2.5249
 ZZZY=              1.8814 XXYY=            -65.3119 XXZZ=            -54.2861 YYZZ=            -26.9668
 XXYZ=              0.4569 YYXZ=              0.1472 ZZXY=             -1.0566
 N-N= 1.279074446213D+02 E-N=-7.076509392410D+02  KE= 1.929295696309D+02
  Exact polarizability:   0.000   0.000   0.000   0.000   0.000   0.000
 Approx polarizability:  49.481   1.045  46.856  -0.436  -0.666  44.430
                          Isotropic Fermi Contact Couplings
        Atom                 a.u.       MegaHertz       Gauss      10(-4) cm-1
     1  O(17)              0.02710     -16.42785      -5.86187      -5.47974
     2  C(13)             -0.01182     -13.28457      -4.74026      -4.43126
     3  C(13)              0.00286       3.21333       1.14660       1.07185
     4  C(13)              0.20846     234.35264      83.62285      78.17163
     5  H(1)               0.02457     109.80723      39.18195      36.62775
     6  H(1)               0.00042       1.87628       0.66950       0.62586
     7  H(1)               0.01200      53.65554      19.14563      17.89756
     8  H(1)              -0.00045      -2.02792      -0.72361      -0.67644
     9  H(1)               0.00238      10.62267       3.79043       3.54334
    10  H(1)               0.00196       8.77141       3.12986       2.92583
    11  H(1)              -0.00986     -44.07357     -15.72654     -14.70136
 --------------------------------------------------------
       Center         ----  Spin Dipole Couplings  ----
                      3XX-RR        3YY-RR        3ZZ-RR
 --------------------------------------------------------
     1   Atom       -0.410962     -0.349156      0.760118
     2   Atom       -0.004908      0.011090     -0.006183
     3   Atom        0.006420      0.006546     -0.012966
     4   Atom       -0.497086     -0.497151      0.994237
     5   Atom       -0.003808      0.003529      0.000279
     6   Atom        0.011841     -0.003843     -0.007999
     7   Atom       -0.008127      0.017370     -0.009243
     8   Atom        0.007649     -0.003089     -0.004560
     9   Atom        0.004309      0.001760     -0.006069
    10   Atom       -0.001219      0.005604     -0.004385
    11   Atom       -0.044436      0.049071     -0.004635
 --------------------------------------------------------
                        XY            XZ            YZ
 --------------------------------------------------------
     1   Atom        0.015714      0.068043     -0.122888
     2   Atom       -0.017471      0.010586     -0.010882
     3   Atom        0.014372     -0.003818     -0.002403
     4   Atom        0.009534      0.147712      0.050532
     5   Atom       -0.007678      0.003960     -0.009024
     6   Atom       -0.012726      0.001441     -0.000941
     7   Atom       -0.007052     -0.000995      0.001930
     8   Atom        0.006132     -0.001326     -0.000531
     9   Atom        0.010398      0.003611      0.004349
    10   Atom        0.007012     -0.003372     -0.004347
    11   Atom        0.046873      0.011076      0.011575
 --------------------------------------------------------


 ---------------------------------------------------------------------------------
              Anisotropic Spin Dipole Couplings in Principal Axis System
 ---------------------------------------------------------------------------------

       Atom             a.u.   MegaHertz   Gauss  10(-4) cm-1        Axes

              Baa    -0.4233    30.631    10.930    10.218  0.9338 -0.3464 -0.0897
     1 O(17)  Bbb    -0.3539    25.608     9.138     8.542  0.3535  0.9319  0.0812
              Bcc     0.7772   -56.240   -20.068   -18.760  0.0554 -0.1075  0.9927
 
              Baa    -0.0177    -2.371    -0.846    -0.791  0.8294  0.3345 -0.4475
     2 C(13)  Bbb    -0.0110    -1.479    -0.528    -0.493  0.2076  0.5590  0.8027
              Bcc     0.0287     3.850     1.374     1.284 -0.5187  0.7587 -0.3942
 
              Baa    -0.0137    -1.839    -0.656    -0.613  0.2082 -0.0318  0.9776
     3 C(13)  Bbb    -0.0077    -1.036    -0.370    -0.345 -0.6801  0.7136  0.1680
              Bcc     0.0214     2.874     1.026     0.959  0.7029  0.6998 -0.1270
 
              Baa    -0.5130   -68.845   -24.566   -22.964  0.9484 -0.3061 -0.0827
     4 C(13)  Bbb    -0.4974   -66.750   -23.818   -22.265  0.3017  0.9514 -0.0621
              Bcc     1.0105   135.595    48.384    45.230  0.0977  0.0340  0.9946
 
              Baa    -0.0092    -4.897    -1.747    -1.633  0.6827  0.6498  0.3342
     5 H(1)   Bbb    -0.0057    -3.055    -1.090    -1.019 -0.6025  0.2418  0.7606
              Bcc     0.0149     7.952     2.837     2.652 -0.4135  0.7206 -0.5566
 
              Baa    -0.0110    -5.844    -2.085    -1.950  0.4850  0.8735  0.0418
     6 H(1)   Bbb    -0.0081    -4.323    -1.543    -1.442 -0.0757 -0.0057  0.9971
              Bcc     0.0191    10.168     3.628     3.392  0.8712 -0.4868  0.0633
 
              Baa    -0.0102    -5.456    -1.947    -1.820  0.8466  0.1814  0.5003
     7 H(1)   Bbb    -0.0091    -4.867    -1.737    -1.623 -0.4695 -0.1879  0.8627
              Bcc     0.0193    10.323     3.683     3.443 -0.2504  0.9653  0.0739
 
              Baa    -0.0059    -3.134    -1.118    -1.045 -0.4168  0.9074 -0.0542
     8 H(1)   Bbb    -0.0047    -2.503    -0.893    -0.835  0.0630  0.0883  0.9941
              Bcc     0.0106     5.637     2.011     1.880  0.9068  0.4109 -0.0939
 
              Baa    -0.0083    -4.446    -1.587    -1.483  0.3179 -0.6320  0.7067
     9 H(1)   Bbb    -0.0067    -3.554    -1.268    -1.185 -0.6201  0.4252  0.6593
              Bcc     0.0150     8.000     2.855     2.669  0.7172  0.6479  0.2567
 
              Baa    -0.0065    -3.484    -1.243    -1.162  0.5638 -0.0302  0.8253
    10 H(1)   Bbb    -0.0053    -2.833    -1.011    -0.945  0.6488 -0.6022 -0.4652
              Bcc     0.0118     6.316     2.254     2.107  0.5110  0.7978 -0.3200
 
              Baa    -0.0645   -34.395   -12.273   -11.473  0.9233 -0.3711 -0.0991
    11 H(1)   Bbb    -0.0070    -3.734    -1.332    -1.246  0.0178 -0.2164  0.9761
              Bcc     0.0715    38.129    13.605    12.718  0.3837  0.9030  0.1932
 

 ---------------------------------------------------------------------------------

 No NMR shielding tensors so no spin-rotation constants.
 Leave Link  601 at Sat Mar  9 13:25:11 2019, MaxMem=   671088640 cpu:               9.5 elap:               0.5
 (Enter /shared/centos7/gaussian/g16/l701.exe)
 ... and contract with generalized density number  0.
 Compute integral second derivatives.
 Leave Link  701 at Sat Mar  9 13:25:12 2019, MaxMem=   671088640 cpu:               9.3 elap:               0.5
 (Enter /shared/centos7/gaussian/g16/l702.exe)
 L702 exits ... SP integral derivatives will be done elsewhere.
 Leave Link  702 at Sat Mar  9 13:25:12 2019, MaxMem=   671088640 cpu:               0.5 elap:               0.0
 (Enter /shared/centos7/gaussian/g16/l703.exe)
 Integral derivatives from FoFJK, PRISM(SPDF).
 Compute integral second derivatives, UseDBF=F ICtDFT=           0.
 Calling FoFJK, ICntrl=    100147 FMM=F ISym2X=0 I1Cent= 0 IOpClX= 1 NMat=1 NMatS=1 NMatT=0.
 FoFJK:  IHMeth= 1 ICntrl=  100147 DoSepK=F KAlg= 0 I1Cent=           0 FoldK=F
 IRaf=         0 NMat=       1 IRICut=       1 DoRegI=T DoRafI=F ISym2E= 0 IDoP0=0 IntGTp=1.
 FoFCou: FMM=F IPFlag=           0 FMFlag=      100000 FMFlg1=         800
         NFxFlg=           0 DoJE=F BraDBF=F KetDBF=F FulRan=T
         wScrn=  0.000000 ICntrl=    100147 IOpCl=  1 I1Cent=           0 NGrid=           0
         NMat0=    1 NMatS0=      1 NMatT0=    0 NMatD0=    1 NMtDS0=    0 NMtDT0=    0
 Symmetry not used in FoFCou.
 Leave Link  703 at Sat Mar  9 13:26:31 2019, MaxMem=   671088640 cpu:            1582.3 elap:              79.2
 (Enter /shared/centos7/gaussian/g16/l716.exe)
 Dipole        = 7.70173942D-02-5.66784648D-01 4.44855589D-02
 Polarizability= 0.00000000D+00 0.00000000D+00 0.00000000D+00
                 0.00000000D+00 0.00000000D+00 0.00000000D+00
 ***** Axes restored to original set *****
 -------------------------------------------------------------------
 Center     Atomic                   Forces (Hartrees/Bohr)
 Number     Number              X              Y              Z
 -------------------------------------------------------------------
      1        8          -0.000000740   -0.000000050    0.000000151
      2        6           0.000000753    0.000000166    0.000000483
      3        6          -0.000000712   -0.000000275   -0.000000872
      4        6          -0.000000154    0.000000196    0.000000675
      5        1           0.000001277    0.000000195    0.000000212
      6        1           0.000001110    0.000000379    0.000001085
      7        1           0.000000733    0.000000062   -0.000000058
      8        1          -0.000001189   -0.000000442   -0.000001195
      9        1          -0.000000869   -0.000000308   -0.000000823
     10        1           0.000000066   -0.000000266   -0.000001121
     11        1          -0.000000273    0.000000342    0.000001464
 -------------------------------------------------------------------
 Cartesian Forces:  Max     0.000001464 RMS     0.000000703
 Force constants in Cartesian coordinates: 
                1             2             3             4             5 
      1  0.538828D+00
      2  0.113988D-01  0.155077D+00
      3 -0.103409D+00 -0.136298D+00  0.282082D+00
      4  0.524603D-02 -0.638593D-02  0.308035D-01  0.572544D+00
      5  0.369139D-02  0.254016D-02  0.198995D-01  0.429323D-02  0.518619D+00
      6  0.324743D-02  0.242406D-02 -0.249223D-01 -0.296099D-01 -0.205127D-01
      7 -0.232268D+00  0.359041D-01 -0.103340D-01  0.337695D-02 -0.184810D-02
      8  0.558483D-01 -0.819574D-01  0.164172D-01 -0.148180D-02 -0.163483D-02
      9 -0.344879D-01  0.202763D-01 -0.839186D-01  0.417376D-02 -0.571794D-03
     10 -0.199384D+00 -0.645091D-01  0.830888D-01 -0.107402D+00  0.685820D-03
     11 -0.790630D-01 -0.876761D-01  0.990986D-01  0.964011D-02 -0.580384D-01
     12  0.112539D+00  0.107384D+00 -0.181959D+00 -0.472192D-01  0.182344D-01
     13  0.139233D-02  0.182907D-02 -0.163968D-03 -0.623491D-01 -0.587303D-01
     14  0.176026D-02  0.748294D-03 -0.206824D-02 -0.559705D-01 -0.226007D+00
     15  0.365735D-02  0.470878D-02  0.186341D-02 -0.275946D-01 -0.953658D-01
     16  0.871787D-03  0.734325D-03 -0.363427D-02 -0.213252D+00 -0.805585D-01
     17  0.217894D-03  0.126341D-02  0.156171D-02 -0.800182D-01 -0.834698D-01
     18 -0.136285D-02  0.133257D-02 -0.729834D-02  0.107322D+00  0.524043D-01
     19  0.603285D-03  0.177519D-03 -0.249525D-03 -0.196768D+00  0.129803D+00
     20 -0.828546D-03 -0.357064D-03  0.544428D-03  0.129834D+00 -0.154514D+00
     21  0.199366D-02 -0.367892D-03  0.410221D-03 -0.139691D-01  0.153222D-01
     22 -0.326518D-01 -0.144309D-01  0.299977D-01 -0.935401D-04  0.565332D-03
     23  0.759149D-02  0.515215D-02 -0.906345D-02  0.179648D-03 -0.980558D-04
     24 -0.252561D-02 -0.288433D-02  0.641309D-02  0.571713D-04  0.429184D-03
     25 -0.233969D-01  0.398896D-01  0.167366D-02 -0.218984D-03 -0.248573D-03
     26  0.123500D-01 -0.463566D-02  0.175825D-02 -0.191646D-04 -0.749781D-03
     27 -0.139343D-02  0.501119D-02  0.230248D-02  0.246596D-04 -0.692131D-03
     28 -0.329576D-01 -0.883470D-02 -0.297133D-01  0.354496D-03 -0.860799D-03
     29  0.566906D-02  0.609073D-02  0.111341D-01 -0.252560D-03  0.560524D-03
     30 -0.871841D-02  0.316070D-02  0.335569D-02  0.533847D-03  0.994795D-03
     31 -0.262818D-01  0.422710D-02  0.193994D-02 -0.143737D-02  0.320702D-02
     32 -0.186356D-01  0.375458D-02 -0.298415D-02  0.180933D-03  0.279180D-02
     33  0.304591D-01 -0.474794D-02  0.167181D-02 -0.245218D-01  0.985810D-02
                6             7             8             9            10 
      6  0.486097D+00
      7  0.756662D-03  0.501395D+00
      8  0.165354D-02  0.359999D-01  0.577205D+00
      9 -0.840231D-03 -0.261023D-01 -0.172940D-01  0.606346D+00
     10 -0.498183D-01 -0.433968D-01 -0.185759D-01  0.299098D-01  0.659921D+00
     11  0.387879D-01  0.187844D-02  0.258251D-02 -0.529301D-02 -0.299059D-02
     12 -0.205588D+00  0.101154D-01 -0.410018D-02  0.455023D-03  0.219554D-01
     13 -0.258049D-01 -0.887202D-04  0.664836D-03  0.311562D-04 -0.457251D-02
     14 -0.851681D-01 -0.102562D-02 -0.304877D-03 -0.459179D-03 -0.113384D-02
     15 -0.887941D-01 -0.111508D-02 -0.429543D-03 -0.573906D-03 -0.156611D-01
     16  0.110089D+00 -0.111293D-02 -0.253790D-03 -0.212929D-03  0.751255D-02
     17  0.535873D-01  0.861222D-03 -0.787931D-04 -0.250576D-03 -0.382070D-02
     18 -0.116302D+00 -0.250362D-02  0.142419D-03 -0.198525D-03  0.285191D-01
     19 -0.112600D-01 -0.101247D-02 -0.655069D-03  0.907101D-03 -0.913461D-02
     20  0.127512D-01  0.156932D-02  0.873758D-04  0.194078D-03  0.131691D-02
     21 -0.459252D-01  0.223403D-03  0.152844D-02 -0.173763D-04 -0.292739D-01
     22 -0.710967D-03 -0.100285D+00 -0.496722D-01  0.915221D-01 -0.384660D-02
     23  0.449950D-04 -0.573285D-01 -0.102421D+00  0.937108D-01  0.135649D-02
     24 -0.978125D-04  0.102731D+00  0.914826D-01 -0.222387D+00 -0.167525D-02
     25  0.508718D-03 -0.502168D-01  0.131521D-01  0.186054D-02  0.517524D-02
     26  0.656304D-04  0.194740D-01 -0.305565D+00 -0.837826D-02 -0.258998D-03
     27 -0.655990D-04  0.112059D-02 -0.809573D-02 -0.534467D-01  0.834380D-04
     28  0.798178D-03 -0.780731D-01 -0.326369D-01 -0.705070D-01  0.310059D-02
     29 -0.459963D-03 -0.344388D-01 -0.889220D-01 -0.843863D-01 -0.151684D-03
     30 -0.744538D-03 -0.764226D-01 -0.843388D-01 -0.243657D+00  0.121104D-02
     31  0.180438D-02  0.168179D-02 -0.238946D-02  0.290565D-02 -0.307973D+00
     32 -0.317387D-02 -0.104602D-02  0.100912D-02  0.245188D-02  0.880815D-01
     33 -0.281741D-02  0.153043D-02  0.303413D-02 -0.176162D-02 -0.683390D-01
               11            12            13            14            15 
     11  0.178412D+00
     12 -0.159199D+00  0.486693D+00
     13 -0.819564D-02 -0.764323D-02  0.655059D-01
     14  0.821448D-02 -0.161317D-02  0.638012D-01  0.247161D+00
     15 -0.271184D-01 -0.202885D-01  0.346073D-01  0.102170D+00  0.994673D-01
     16  0.393896D-02 -0.488965D-02 -0.638846D-02 -0.216805D-02  0.351740D-02
     17 -0.365237D-02  0.782325D-03 -0.213260D-01 -0.101049D-01  0.146321D-01
     18  0.104548D-01 -0.142669D-01 -0.117050D-01 -0.444757D-02  0.765895D-02
     19  0.227997D-02 -0.589258D-02  0.660756D-02 -0.589314D-02  0.107189D-02
     20  0.594122D-03  0.204943D-02  0.217778D-01 -0.196494D-01  0.860825D-03
     21  0.164268D-01 -0.292509D-02  0.109065D-01 -0.849495D-02  0.940197D-03
     22  0.308094D-02 -0.306317D-02 -0.385210D-04  0.136364D-03  0.189885D-03
     23  0.157328D-03  0.292874D-03 -0.159532D-03  0.790515D-04  0.100814D-03
     24 -0.186380D-03  0.675868D-03 -0.152028D-03  0.127042D-03  0.118950D-03
     25  0.264127D-02 -0.449276D-02  0.677849D-04  0.148244D-03  0.678989D-04
     26  0.977491D-03  0.122738D-02 -0.163449D-03  0.210620D-03 -0.211005D-03
     27 -0.114144D-02  0.442556D-03  0.431497D-04  0.102815D-03  0.841905D-04
     28  0.161413D-02 -0.597559D-02 -0.146714D-03  0.321152D-03  0.997210D-03
     29  0.548875D-03 -0.382280D-03 -0.522453D-04  0.222519D-03 -0.176010D-03
     30  0.667238D-03 -0.383438D-03  0.134359D-03  0.226820D-03 -0.278412D-03
     31  0.651754D-01 -0.654338D-01  0.104327D-04  0.239754D-04  0.261880D-03
     32 -0.421201D-01  0.353235D-01  0.554276D-03 -0.569554D-03  0.828066D-03
     33  0.275025D-01 -0.628561D-01 -0.253315D-03 -0.375664D-03 -0.198120D-03
               16            17            18            19            20 
     16  0.229119D+00
     17  0.878568D-01  0.872754D-01
     18 -0.117462D+00 -0.579931D-01  0.127819D+00
     19 -0.178065D-01  0.160272D-01 -0.236211D-02  0.216516D+00
     20 -0.985547D-02  0.869116D-02 -0.211260D-02 -0.142779D+00  0.165872D+00
     21  0.116209D-01 -0.119822D-01  0.795846D-03  0.179556D-01 -0.135328D-01
     22  0.264561D-03 -0.156046D-03  0.183093D-03  0.405807D-03 -0.351063D-03
     23 -0.421469D-04  0.126557D-03  0.355209D-04 -0.104031D-03  0.445141D-04
     24  0.279294D-03 -0.946274D-04  0.109549D-03  0.243244D-03 -0.399204D-03
     25  0.637476D-04  0.231781D-05  0.930618D-04 -0.977295D-04  0.169015D-03
     26 -0.150181D-03  0.234662D-03 -0.186783D-04 -0.211645D-03  0.448541D-03
     27 -0.150420D-03  0.225310D-03  0.364097D-04  0.561225D-04  0.849965D-04
     28  0.219720D-03  0.251204D-03 -0.168603D-04 -0.333099D-03 -0.406185D-03
     29  0.334572D-03 -0.221310D-03  0.859604D-04 -0.237939D-03 -0.929855D-03
     30  0.445877D-03 -0.305941D-03  0.483353D-03  0.820003D-03 -0.899593D-04
     31  0.508073D-03  0.104327D-03 -0.704360D-03  0.101976D-02 -0.447540D-03
     32  0.163449D-03 -0.640192D-04  0.116360D-03  0.159222D-02 -0.287616D-03
     33  0.397191D-03 -0.162249D-03  0.116226D-02 -0.128982D-02 -0.350353D-03
               21            22            23            24            25 
     21  0.525083D-01
     22 -0.346461D-04  0.127059D+00
     23 -0.325444D-03  0.559997D-01  0.101442D+00
     24 -0.137542D-04 -0.108605D+00 -0.994959D-01  0.232174D+00
     25  0.583350D-03  0.288786D-02 -0.141217D-01 -0.213325D-02  0.627701D-01
     26 -0.545217D-03 -0.834510D-04 -0.109984D-01 -0.142032D-02 -0.304373D-01
     27 -0.611215D-03 -0.270985D-02  0.254633D-01  0.263410D-02  0.845775D-03
     28  0.726609D-03  0.736793D-02  0.640819D-02  0.118971D-01  0.302469D-02
     29  0.145681D-03  0.544247D-02  0.614294D-02  0.124748D-01 -0.107382D-01
     30 -0.516672D-03 -0.788928D-02 -0.106315D-01 -0.197679D-01  0.106115D-02
     31 -0.732400D-03 -0.106987D-02  0.220453D-03 -0.117155D-03 -0.591216D-04
     32  0.182543D-02 -0.531117D-03  0.372679D-03 -0.328181D-04 -0.456760D-03
     33 -0.464524D-02  0.111994D-02 -0.131956D-03  0.140862D-03 -0.681575D-04
               26            27            28            29            30 
     26  0.330889D+00
     27  0.740773D-02  0.486132D-01
     28 -0.591462D-03  0.213485D-02  0.975783D-01
     29 -0.107448D-01 -0.284413D-01  0.344392D-01  0.874139D-01
     30  0.432951D-03  0.852267D-04  0.889716D-01  0.899467D-01  0.261358D+00
     31  0.916602D-04 -0.548826D-04 -0.135204D-03 -0.138281D-04 -0.147598D-03
     32 -0.657231D-04  0.752747D-04  0.296227D-03 -0.161513D-03 -0.628960D-04
     33 -0.318463D-03 -0.746504D-04  0.687119D-03  0.586730D-04  0.656397D-04
               31            32            33 
     31  0.333736D+00
     32 -0.701991D-01  0.353403D-01
     33  0.602783D-01 -0.343667D-01  0.693125D-01
 FormGI is forming the generalized inverse of G from B-inverse, IUseBI=4.
 Force constants in internal coordinates: 
                1             2             3             4             5 
      1  0.368825D+00
      2  0.145360D-01  0.437835D+00
      3  0.879181D-03  0.257773D-01  0.307649D+00
      4 -0.354497D-03  0.412710D-02  0.145989D-01  0.320040D+00
      5 -0.105687D-02 -0.750697D-03  0.322311D-02  0.271246D-02  0.348767D+00
      6 -0.931523D-03 -0.907242D-03  0.903746D-02  0.422066D-02  0.253191D-02
      7  0.100656D-01 -0.152419D-02 -0.350637D-03  0.299253D-04  0.689444D-04
      8  0.155282D-01 -0.913418D-03  0.986360D-03 -0.259031D-04 -0.160752D-04
      9  0.154020D-01 -0.473057D-02  0.315611D-03  0.381957D-03 -0.135476D-03
     10 -0.207211D-02  0.107056D-01  0.285059D-02 -0.236751D-04  0.665391D-03
     11  0.514754D-01  0.759389D-01  0.818361D-02  0.691314D-03 -0.761432D-03
     12  0.642165D-03  0.103497D-02  0.123419D-01  0.165337D-02 -0.611811D-02
     13 -0.359955D-02  0.428727D-02  0.146966D-01 -0.572435D-02  0.393502D-02
     14  0.248489D-02  0.285763D-02  0.179387D-01 -0.682648D-02 -0.587116D-02
     15  0.612730D-03 -0.288716D-02 -0.144646D-01  0.590545D-02  0.473759D-02
     16 -0.883982D-03 -0.198776D-02 -0.179582D-01  0.701789D-02 -0.576688D-03
     17  0.751054D-03 -0.386089D-02 -0.154843D-01 -0.143073D-02  0.470345D-02
     18  0.310984D-01  0.483784D-02 -0.177346D-02  0.457421D-04 -0.160838D-04
     19  0.265078D-01 -0.918133D-02  0.954575D-03  0.188791D-03  0.164722D-04
     20  0.273675D-01 -0.365476D-02  0.431461D-02  0.692077D-03 -0.276795D-03
     21 -0.283019D-01  0.350213D-02 -0.187244D-02 -0.107583D-03  0.490058D-04
     22 -0.290404D-01  0.149137D-02 -0.145751D-02 -0.517909D-03  0.253219D-03
     23 -0.282498D-01  0.325641D-02 -0.329895D-03 -0.314436D-03 -0.159517D-04
     24 -0.238130D-02  0.338259D-01  0.159790D-01 -0.255393D-02  0.482294D-02
     25  0.339462D-02  0.104296D-01 -0.190465D-01  0.489277D-03 -0.177443D-02
     26 -0.125635D-02 -0.403892D-01  0.823543D-02  0.137396D-02 -0.248247D-02
     27 -0.649349D-03  0.160286D-02 -0.194936D-03  0.367483D-04 -0.224285D-04
     28 -0.143618D-02  0.363780D-02 -0.298251D-02  0.390401D-04  0.360305D-04
     29 -0.104644D-03 -0.114536D-02  0.240254D-03  0.246839D-03 -0.163779D-03
     30  0.153056D-02 -0.108898D-02  0.316207D-02  0.228444D-04  0.897125D-05
     31  0.101549D-02 -0.813391D-02  0.593476D-02 -0.734554D-03  0.134641D-03
     32  0.167729D-02 -0.771148D-03 -0.466473D-02 -0.862704D-04  0.174418D-03
     33 -0.114253D-02 -0.467139D-02 -0.176555D-02  0.763332D-03  0.468230D-02
     34 -0.492308D-03  0.590103D-02  0.179565D-02 -0.377732D-03  0.515991D-02
     35  0.719225D-04 -0.455143D-02 -0.115642D-02 -0.385551D-02 -0.541450D-05
     36  0.722148D-03  0.602099D-02  0.240478D-02 -0.499658D-02  0.472202D-03
     37 -0.135467D-04 -0.442379D-02 -0.307451D-02  0.616831D-02 -0.484791D-02
     38  0.636679D-03  0.614863D-02  0.486682D-03  0.502725D-02 -0.437029D-02
                6             7             8             9            10 
      6  0.337940D+00
      7 -0.138409D-03  0.352164D+00
      8  0.481000D-03  0.294130D-02  0.334470D+00
      9  0.724278D-03  0.330120D-02  0.367416D-02  0.337363D+00
     10 -0.299474D-03  0.103292D-03  0.369396D-04  0.242239D-03  0.363797D+00
     11 -0.672335D-02  0.364765D-02 -0.315487D-02 -0.790218D-02  0.206614D-02
     12 -0.698628D-02  0.740683D-04  0.369665D-03 -0.220633D-03 -0.582892D-03
     13 -0.534470D-02 -0.858327D-05 -0.824120D-04  0.108791D-02 -0.456285D-03
     14  0.128428D-02 -0.178703D-03  0.669810D-03 -0.476231D-03  0.323907D-02
     15 -0.111315D-02 -0.198874D-04 -0.793123D-04 -0.205379D-03 -0.972665D-04
     16  0.657870D-02  0.000000D+00 -0.431481D-03  0.203152D-03 -0.123023D-02
     17  0.613124D-02  0.143646D-03 -0.512900D-03 -0.410226D-03 -0.102682D-02
     18  0.120476D-02  0.286694D-02 -0.467750D-02 -0.374446D-02 -0.211497D-03
     19 -0.359448D-03 -0.471518D-02  0.204960D-02 -0.516413D-02 -0.138788D-03
     20 -0.616544D-03 -0.455638D-02 -0.535736D-02 -0.102033D-02  0.103478D-02
     21  0.387861D-05  0.495584D-02  0.634254D-02 -0.445510D-02 -0.225160D-02
     22 -0.302711D-03  0.597009D-02 -0.549857D-02  0.770687D-02 -0.314466D-03
     23  0.924001D-04 -0.398317D-02  0.696222D-02  0.650797D-02  0.174221D-02
     24 -0.632652D-02 -0.547589D-03 -0.138458D-03 -0.430898D-02 -0.805085D-02
     25  0.148395D-02  0.934874D-03  0.280168D-03  0.194089D-02  0.586518D-02
     26  0.430187D-02 -0.782835D-03 -0.178051D-03  0.229113D-02  0.288835D-02
     27 -0.151862D-03 -0.692807D-03 -0.553269D-02  0.604606D-02 -0.128173D-02
     28  0.375369D-03  0.438116D-02  0.433639D-03 -0.441310D-02 -0.419501D-02
     29 -0.183344D-03 -0.714881D-02  0.706574D-02 -0.415043D-03 -0.135253D-02
     30 -0.366696D-03  0.298612D-02 -0.150800D-03 -0.387002D-02  0.661529D-02
     31  0.644850D-03  0.102445D-02  0.182502D-03 -0.727538D-03  0.455748D-02
     32 -0.760805D-04  0.192203D-02  0.291560D-03 -0.153870D-02  0.197222D-02
     33 -0.518523D-02  0.249087D-03 -0.986514D-05 -0.140706D-03 -0.187503D-02
     34 -0.570232D-02 -0.196080D-03  0.126359D-04  0.361737D-03  0.139663D-02
     35  0.411132D-02  0.233239D-03 -0.876778D-04 -0.465943D-03 -0.108705D-02
     36  0.359424D-02 -0.211929D-03 -0.651768D-04  0.364998D-04  0.218461D-02
     37 -0.789391D-03  0.172248D-03  0.186537D-03 -0.384704D-03 -0.154873D-02
     38 -0.130647D-02 -0.272919D-03  0.209038D-03  0.117738D-03  0.172293D-02
               11            12            13            14            15 
     11  0.310117D+00
     12  0.641823D-03  0.950188D-01
     13 -0.742588D-02 -0.173516D-01  0.983031D-01
     14  0.107458D-01 -0.198752D-01 -0.195794D-01  0.100771D+00
     15  0.217028D-03 -0.340375D-01 -0.377475D-01  0.977990D-02  0.531094D-01
     16 -0.194630D-02 -0.374063D-01  0.100712D-01 -0.392162D-01  0.638635D-02
     17 -0.264944D-02  0.989891D-02 -0.376800D-01 -0.360612D-01  0.706954D-02
     18  0.720052D-02 -0.932881D-04  0.116861D-02 -0.122361D-02 -0.491172D-04
     19 -0.368588D-02 -0.655118D-03  0.124711D-03  0.954376D-03  0.547240D-04
     20  0.645514D-02  0.155634D-02 -0.157208D-02  0.198891D-02 -0.796304D-03
     21 -0.973900D-02  0.133065D-03  0.211390D-03 -0.141531D-02  0.488501D-04
     22 -0.836907D-02 -0.566618D-03  0.214526D-03 -0.660319D-03  0.467040D-03
     23  0.753804D-02 -0.383274D-03 -0.969230D-04  0.240304D-03  0.284920D-03
     24  0.493342D-01 -0.104502D-01  0.190916D-01 -0.489580D-02 -0.336788D-02
     25 -0.110548D-01  0.519327D-02 -0.624309D-02 -0.402133D-02  0.122593D-02
     26 -0.368026D-01  0.226241D-02 -0.104244D-01  0.925347D-02  0.238497D-02
     27 -0.298081D-04  0.339693D-03 -0.546946D-03  0.301205D-03  0.773251D-04
     28 -0.947810D-02  0.817617D-04  0.476094D-03 -0.160710D-02  0.136969D-03
     29  0.202698D-02  0.207565D-03 -0.645028D-03  0.739536D-03 -0.101093D-04
     30  0.167076D-01 -0.824136D-04 -0.566902D-03  0.117019D-02 -0.765554D-04
     31 -0.637621D-02 -0.428652D-02  0.775280D-03  0.225322D-02  0.157127D-02
     32  0.503903D-02 -0.328821D-03  0.789767D-03 -0.141079D-02  0.225873D-03
     33 -0.622371D-03  0.207296D-02  0.580323D-02 -0.705469D-02  0.916454D-02
     34 -0.162238D-02 -0.188061D-02  0.829539D-02 -0.769896D-02  0.100383D-01
     35  0.361727D-02 -0.342419D-02 -0.125111D-02  0.612728D-02 -0.108547D-01
     36  0.261726D-02 -0.737776D-02  0.124105D-02  0.548300D-02 -0.998088D-02
     37  0.514187D-02  0.854674D-02 -0.806829D-02  0.586635D-03 -0.376123D-03
     38  0.414186D-02  0.459317D-02 -0.557613D-02 -0.576381D-04  0.497660D-03
               16            17            18            19            20 
     16  0.567567D-01
     17  0.704153D-02  0.542781D-01
     18  0.258580D-03 -0.348390D-04  0.138828D+00
     19 -0.134357D-03 -0.375328D-03 -0.299977D-01  0.138819D+00
     20 -0.942498D-03 -0.400190D-03 -0.287488D-01 -0.325827D-01  0.138843D+00
     21  0.515066D-03  0.584595D-03 -0.419098D-01 -0.356483D-01  0.140931D-02
     22  0.693362D-04  0.566355D-03 -0.390598D-01 -0.156508D-02 -0.373687D-01
     23  0.259050D-03 -0.295051D-03  0.180579D-02 -0.404180D-01 -0.427314D-01
     24  0.603766D-02 -0.664292D-02 -0.824989D-02  0.188845D-02  0.802902D-02
     25 -0.610516D-04  0.424605D-02  0.755963D-02 -0.117917D-02 -0.515198D-02
     26 -0.493017D-02  0.136109D-02 -0.112392D-02 -0.512493D-03 -0.118128D-02
     27 -0.152439D-03 -0.305016D-04 -0.134339D-02 -0.190392D-01  0.205618D-01
     28  0.547996D-03  0.444703D-03  0.147485D-01 -0.314791D-02 -0.129701D-01
     29  0.134757D-03 -0.470837D-03 -0.237598D-01  0.198380D-01  0.543341D-02
     30 -0.246179D-03 -0.246198D-03  0.879259D-02 -0.847237D-03 -0.783036D-02
     31  0.676661D-03 -0.897482D-03  0.346744D-02 -0.248605D-02 -0.214233D-02
     32  0.680035D-03  0.116127D-03  0.649931D-02 -0.256483D-02 -0.428692D-02
     33 -0.974070D-02  0.259288D-03  0.683789D-03 -0.359482D-04 -0.144822D-02
     34 -0.780087D-02 -0.300259D-03 -0.271412D-03 -0.531980D-04  0.641042D-04
     35 -0.966484D-03  0.101662D-01  0.304458D-04  0.223199D-03 -0.388294D-03
     36  0.973349D-03  0.960661D-02 -0.924755D-03  0.205949D-03  0.112403D-02
     37  0.831625D-02 -0.956100D-02  0.608462D-04  0.296456D-05 -0.854897D-04
     38  0.102561D-01 -0.101205D-01 -0.894354D-03 -0.142852D-04  0.142683D-02
               21            22            23            24            25 
     21  0.659799D-01
     22  0.369064D-02  0.712938D-01
     23  0.787419D-02  0.423520D-02  0.684010D-01
     24 -0.284147D-02 -0.189934D-02  0.261937D-02  0.178571D+00
     25  0.297861D-02  0.413916D-04 -0.384361D-02 -0.909147D-01  0.101812D+00
     26 -0.144689D-02  0.167821D-02  0.250209D-02 -0.693382D-01 -0.225911D-01
     27 -0.204579D-01  0.198538D-01  0.165942D-03  0.150658D-02  0.207988D-03
     28  0.141493D-01  0.445206D-04 -0.116239D-01 -0.580845D-02  0.766699D-02
     29  0.246413D-03 -0.214192D-01  0.180097D-01  0.439773D-02 -0.162227D-02
     30  0.709299D-02 -0.251581D-03 -0.631376D-02  0.818949D-02 -0.103359D-01
     31  0.365014D-02 -0.387584D-03 -0.183802D-02 -0.142353D-02 -0.136064D-01
     32  0.621658D-02 -0.689566D-03 -0.467864D-02 -0.209135D-02  0.828333D-02
     33  0.963770D-03  0.482267D-03 -0.561823D-03  0.123789D-02 -0.650358D-02
     34 -0.543674D-03  0.162905D-03  0.605489D-03  0.573218D-02  0.472400D-02
     35  0.679699D-03  0.111993D-03 -0.613494D-03 -0.648122D-03 -0.715370D-02
     36 -0.827745D-03 -0.207369D-03  0.553818D-03  0.384617D-02  0.407388D-02
     37  0.702438D-03 -0.325013D-03 -0.329886D-03 -0.212466D-02 -0.569891D-02
     38 -0.805006D-03 -0.644375D-03  0.837427D-03  0.236963D-02  0.552868D-02
               26            27            28            29            30 
     26  0.891249D-01
     27 -0.101610D-02  0.278357D-01
     28 -0.371379D-02 -0.811791D-02  0.160012D-01
     29 -0.169072D-02 -0.703810D-02 -0.999810D-02  0.306339D-01
     30  0.334718D-02 -0.641282D-02  0.691977D-02 -0.714073D-02  0.938507D-02
     31  0.176726D-01 -0.118789D-02  0.390666D-02 -0.165826D-02  0.314387D-02
     32 -0.832357D-02 -0.202010D-02  0.793497D-02 -0.279350D-02  0.518803D-03
[...]
 IDIUse=1 WtCom= 1.00D+00 WtEn= 0.00D+00
 Coeff-Com: -0.225D-01 0.821D-01 0.940D+00
 Coeff:     -0.225D-01 0.821D-01 0.940D+00
 Gap=     0.230 Goal=   None    Shift=    0.000
 Gap=     0.378 Goal=   None    Shift=    0.000
 RMSDP=3.13D-06 MaxDP=9.24D-05 DE=-4.54D-06 OVMax= 2.40D-04

 Cycle   4  Pass 1  IDiag  1:
 E= -193.652820051059     Delta-E=       -0.000000148698 Rises=F Damp=F
 DIIS: error= 1.50D-05 at cycle   4 NSaved=   4.
 NSaved= 4 IEnMin= 4 EnMin= -193.652820051059     IErMin= 4 ErrMin= 1.50D-05
 ErrMax= 1.50D-05  0.00D+00 EMaxC= 1.00D-01 BMatC= 1.26D-07 BMatP= 3.77D-07
 IDIUse=1 WtCom= 1.00D+00 WtEn= 0.00D+00
 Coeff-Com:  0.438D-02-0.712D-01 0.355D+00 0.712D+00
 Coeff:      0.438D-02-0.712D-01 0.355D+00 0.712D+00
 Gap=     0.230 Goal=   None    Shift=    0.000
 Gap=     0.378 Goal=   None    Shift=    0.000
 RMSDP=1.21D-06 MaxDP=4.42D-05 DE=-1.49D-07 OVMax= 1.06D-04

 Cycle   5  Pass 1  IDiag  1:
 E= -193.652820089394     Delta-E=       -0.000000038335 Rises=F Damp=F
 DIIS: error= 2.64D-06 at cycle   5 NSaved=   5.
 NSaved= 5 IEnMin= 5 EnMin= -193.652820089394     IErMin= 5 ErrMin= 2.64D-06
 ErrMax= 2.64D-06  0.00D+00 EMaxC= 1.00D-01 BMatC= 5.67D-09 BMatP= 1.26D-07
 IDIUse=1 WtCom= 1.00D+00 WtEn= 0.00D+00
 Coeff-Com:  0.249D-02-0.217D-01 0.554D-02 0.131D+00 0.883D+00
 Coeff:      0.249D-02-0.217D-01 0.554D-02 0.131D+00 0.883D+00
 Gap=     0.230 Goal=   None    Shift=    0.000
 Gap=     0.378 Goal=   None    Shift=    0.000
 RMSDP=4.93D-07 MaxDP=2.02D-05 DE=-3.83D-08 OVMax= 4.99D-05

 Cycle   6  Pass 1  IDiag  1:
 E= -193.652820092608     Delta-E=       -0.000000003214 Rises=F Damp=F
 DIIS: error= 1.55D-06 at cycle   6 NSaved=   6.
 NSaved= 6 IEnMin= 6 EnMin= -193.652820092608     IErMin= 6 ErrMin= 1.55D-06
 ErrMax= 1.55D-06  0.00D+00 EMaxC= 1.00D-01 BMatC= 1.23D-09 BMatP= 5.67D-09
 IDIUse=1 WtCom= 1.00D+00 WtEn= 0.00D+00
 Coeff-Com: -0.593D-04 0.591D-02-0.540D-01-0.791D-01 0.230D+00 0.897D+00
 Coeff:     -0.593D-04 0.591D-02-0.540D-01-0.791D-01 0.230D+00 0.897D+00
 Gap=     0.230 Goal=   None    Shift=    0.000
 Gap=     0.378 Goal=   None    Shift=    0.000
 RMSDP=2.28D-07 MaxDP=1.05D-05 DE=-3.21D-09 OVMax= 2.39D-05

 Cycle   7  Pass 1  IDiag  1:
 E= -193.652820093229     Delta-E=       -0.000000000621 Rises=F Damp=F
 DIIS: error= 4.91D-07 at cycle   7 NSaved=   7.
 NSaved= 7 IEnMin= 7 EnMin= -193.652820093229     IErMin= 7 ErrMin= 4.91D-07
 ErrMax= 4.91D-07  0.00D+00 EMaxC= 1.00D-01 BMatC= 3.53D-10 BMatP= 1.23D-09
 IDIUse=1 WtCom= 1.00D+00 WtEn= 0.00D+00
 Coeff-Com: -0.447D-03 0.665D-02-0.270D-01-0.589D-01-0.305D-01 0.432D+00
 Coeff-Com:  0.679D+00
 Coeff:     -0.447D-03 0.665D-02-0.270D-01-0.589D-01-0.305D-01 0.432D+00
 Coeff:      0.679D+00
 Gap=     0.230 Goal=   None    Shift=    0.000
 Gap=     0.378 Goal=   None    Shift=    0.000
 RMSDP=7.87D-08 MaxDP=4.01D-06 DE=-6.21D-10 OVMax= 7.55D-06

 Cycle   8  Pass 1  IDiag  1:
 E= -193.652820093331     Delta-E=       -0.000000000102 Rises=F Damp=F
 DIIS: error= 1.39D-07 at cycle   8 NSaved=   8.
 NSaved= 8 IEnMin= 8 EnMin= -193.652820093331     IErMin= 8 ErrMin= 1.39D-07
 ErrMax= 1.39D-07  0.00D+00 EMaxC= 1.00D-01 BMatC= 2.59D-11 BMatP= 3.53D-10
 IDIUse=1 WtCom= 1.00D+00 WtEn= 0.00D+00
 Coeff-Com: -0.140D-03 0.147D-02-0.155D-02-0.813D-02-0.413D-01 0.134D-01
 Coeff-Com:  0.226D+00 0.810D+00
 Coeff:     -0.140D-03 0.147D-02-0.155D-02-0.813D-02-0.413D-01 0.134D-01
 Coeff:      0.226D+00 0.810D+00
 Gap=     0.230 Goal=   None    Shift=    0.000
 Gap=     0.378 Goal=   None    Shift=    0.000
 RMSDP=2.33D-08 MaxDP=1.07D-06 DE=-1.02D-10 OVMax= 2.40D-06

 Cycle   9  Pass 1  IDiag  1:
 E= -193.652820093336     Delta-E=       -0.000000000005 Rises=F Damp=F
 DIIS: error= 3.96D-08 at cycle   9 NSaved=   9.
 NSaved= 9 IEnMin= 9 EnMin= -193.652820093336     IErMin= 9 ErrMin= 3.96D-08
 ErrMax= 3.96D-08  0.00D+00 EMaxC= 1.00D-01 BMatC= 2.06D-12 BMatP= 2.59D-11
 IDIUse=1 WtCom= 1.00D+00 WtEn= 0.00D+00
 Coeff-Com: -0.238D-05-0.150D-03 0.187D-02 0.261D-02-0.862D-02-0.351D-01
 Coeff-Com:  0.119D-01 0.237D+00 0.790D+00
 Coeff:     -0.238D-05-0.150D-03 0.187D-02 0.261D-02-0.862D-02-0.351D-01
 Coeff:      0.119D-01 0.237D+00 0.790D+00
 Gap=     0.230 Goal=   None    Shift=    0.000
 Gap=     0.378 Goal=   None    Shift=    0.000
 RMSDP=5.35D-09 MaxDP=2.06D-07 DE=-5.46D-12 OVMax= 4.27D-07

 SCF Done:  E(UM062X) =  -193.652820093     A.U. after    9 cycles
            NFock=  9  Conv=0.54D-08     -V/T= 2.0038
 <Sx>= 0.0000 <Sy>= 0.0000 <Sz>= 0.5000 <S**2>= 0.7546 S= 0.5023
 <L.S>= 0.000000000000E+00
 KE= 1.929276194828D+02 PE=-7.075510895260D+02 EE= 1.931095675797D+02
 Annihilation of the first spin contaminant:
 S**2 before annihilation     0.7546,   after     0.7500
 Leave Link  502 at Sat Mar  9 14:54:06 2019, MaxMem=   671088640 cpu:             446.9 elap:              28.5
 (Enter /shared/centos7/gaussian/g16/l701.exe)
 ... and contract with generalized density number  0.
 Compute integral first derivatives.
 Leave Link  701 at Sat Mar  9 14:54:06 2019, MaxMem=   671088640 cpu:               5.4 elap:               0.3
 (Enter /shared/centos7/gaussian/g16/l702.exe)
 L702 exits ... SP integral derivatives will be done elsewhere.
 Leave Link  702 at Sat Mar  9 14:54:06 2019, MaxMem=   671088640 cpu:               0.5 elap:               0.0
 (Enter /shared/centos7/gaussian/g16/l703.exe)
 Integral derivatives from FoFJK, PRISM(SPDF).
 Compute integral first derivatives, UseDBF=F ICtDFT=           0.
 Calling FoFJK, ICntrl=      2127 FMM=F ISym2X=0 I1Cent= 0 IOpClX= 1 NMat=1 NMatS=1 NMatT=0.
 FoFJK:  IHMeth= 1 ICntrl=    2127 DoSepK=F KAlg= 0 I1Cent=           0 FoldK=F
 IRaf=         0 NMat=       1 IRICut=       1 DoRegI=T DoRafI=F ISym2E= 0 IDoP0=0 IntGTp=1.
 FoFCou: FMM=F IPFlag=           0 FMFlag=      100000 FMFlg1=         800
         NFxFlg=           0 DoJE=F BraDBF=F KetDBF=F FulRan=T
         wScrn=  0.000000 ICntrl=      2127 IOpCl=  1 I1Cent=           0 NGrid=           0
         NMat0=    1 NMatS0=      1 NMatT0=    0 NMatD0=    1 NMtDS0=    0 NMtDT0=    0
 Symmetry not used in FoFCou.
 Leave Link  703 at Sat Mar  9 14:54:12 2019, MaxMem=   671088640 cpu:             114.2 elap:               5.9
 (Enter /shared/centos7/gaussian/g16/l716.exe)
 Dipole        = 6.28341093D-02-6.13760540D-01 1.30296665D-01
 ***** Axes restored to original set *****
 -------------------------------------------------------------------
 Center     Atomic                   Forces (Hartrees/Bohr)
 Number     Number              X              Y              Z
 -------------------------------------------------------------------
      1        8          -0.001108195   -0.001746352   -0.002825261
      2        6          -0.000035122   -0.000037785   -0.000023363
      3        6           0.000336230    0.000626555   -0.000296114
      4        6           0.000107112    0.000089021    0.000046670
      5        1          -0.000025239    0.000009167   -0.000004383
      6        1          -0.000009395   -0.000016550    0.000006823
      7        1           0.000012864    0.000004668   -0.000007258
      8        1           0.000020806    0.000001405   -0.000020111
      9        1           0.000254010    0.000275935    0.001689918
     10        1           0.000008757   -0.000010118   -0.000018927
     11        1           0.000438171    0.000804055    0.001452005
 -------------------------------------------------------------------
 Cartesian Forces:  Max     0.002825261 RMS     0.000755266
 Leave Link  716 at Sat Mar  9 14:54:13 2019, MaxMem=   671088640 cpu:               0.6 elap:               0.1
 (Enter /shared/centos7/gaussian/g16/l103.exe)

 GradGradGradGradGradGradGradGradGradGradGradGradGradGradGradGradGradGrad
 Berny optimization.
 Using GEDIIS/GDIIS optimizer.
 FormGI is forming the generalized inverse of G from B-inverse, IUseBI=4.
 Internal  Forces:  Max     0.001892234 RMS     0.000417597
 Search for a local minimum.
 Step number   3 out of a maximum of   48 on scan point    22 out of    73
 All quantities printed in internal units (Hartrees-Bohrs-Radians)
 RMS Force = .33632D-04 SwitMx=.10000D-02 MixMth= 2
 Mixed Optimization -- En-DIIS/RFO-DIIS
 Swapping is turned off.
 Update second derivatives using D2CorX and points    1    2    3
 DE= -1.32D-05 DEPred=-1.34D-05 R= 9.86D-01
 TightC=F SS=  1.41D+00  RLast= 2.99D-02 DXNew= 9.5461D-01 8.9681D-02
 Trust test= 9.86D-01 RLast= 2.99D-02 DXMaxT set to 5.68D-01
 ITU=  1  1  0
     Eigenvalues ---    0.00292   0.00915   0.01242   0.05633   0.05759
     Eigenvalues ---    0.06645   0.08892   0.11045   0.12103   0.13416
     Eigenvalues ---    0.13710   0.15116   0.18378   0.19869   0.22630
     Eigenvalues ---    0.29180   0.30658   0.32364   0.33267   0.33453
     Eigenvalues ---    0.34351   0.35168   0.35285   0.36655   0.40191
     Eigenvalues ---    0.517801000.000001000.000001000.000001000.00000
     Eigenvalues --- 1000.000001000.000001000.000001000.000001000.00000
     Eigenvalues --- 1000.000001000.000001000.00000
 En-DIIS/RFO-DIIS/Sim-DIIS IScMMF=       -3 using points:     3    2
 RFO step:  Lambda=-1.90167199D-06.
 NNeg= 0 NGDIIS= 2 SimSw=  2.50D-03 Rises=F DC= -1.32D-05 SmlDif=  1.00D-05
 NRisDI= 0 DoIntr=F SqrtH=F CThrHd= 10.0 CDAdj=  3.0
 RMS Error=  0.3395682779D-02 NUsed= 2 OKEnD=T EnDIS=F
 InvSVX:  RCond= 1.00D-03 Info=           0 Equed=N FErr=  1.35D-15 BErr=  5.72D-17
 DidBck=T Rises=F RFO-DIIS coefs:    0.35990    0.64010
 Iteration  1 RMS(Cart)=  0.00617924 RMS(Int)=  0.00002639
 Iteration  2 RMS(Cart)=  0.00003004 RMS(Int)=  0.00000877
 Iteration  3 RMS(Cart)=  0.00000000 RMS(Int)=  0.00000877
 Iteration  1 RMS(Cart)=  0.00000528 RMS(Int)=  0.00000403
 Iteration  2 RMS(Cart)=  0.00000241 RMS(Int)=  0.00000450
 Iteration  3 RMS(Cart)=  0.00000110 RMS(Int)=  0.00000498
 Iteration  4 RMS(Cart)=  0.00000050 RMS(Int)=  0.00000523
 ITry= 1 IFail=0 DXMaxC= 1.64D-02 DCOld= 1.00D+10 DXMaxT= 5.68D-01 DXLimC= 3.00D+00 Rises=F
 Variable       Old X    -DE/DX   Delta X   Delta X   Delta X     New X
                                 (Linear)    (Quad)   (Total)
    R1        2.66363  -0.00004  -0.00021   0.00016  -0.00005   2.66359
    R2        2.56904   0.00011  -0.00128   0.00146   0.00018   2.56922
    R3        2.81188  -0.00001  -0.00003   0.00015   0.00012   2.81200
    R4        2.07620   0.00001   0.00016  -0.00017  -0.00000   2.07620
    R5        2.05639  -0.00002   0.00002  -0.00010  -0.00008   2.05631
    R6        2.06253  -0.00001   0.00017  -0.00016   0.00002   2.06255
    R7        2.06140   0.00001   0.00022  -0.00026  -0.00004   2.06136
    R8        2.05279  -0.00001   0.00009  -0.00009  -0.00001   2.05278
    R9        2.06532  -0.00002   0.00002  -0.00009  -0.00007   2.06525
   R10        2.04345  -0.00023   0.00187  -0.00214  -0.00028   2.04317
    A1        2.06482  -0.00055   0.00442  -0.00476  -0.00036   2.06446
    A2        1.97153   0.00001  -0.00108   0.00077  -0.00032   1.97121
    A3        1.89680  -0.00002   0.00052  -0.00080  -0.00028   1.89652
    A4        1.96443   0.00001  -0.00030   0.00071   0.00041   1.96484
    A5        1.87419   0.00001  -0.00004   0.00034   0.00030   1.87449
    A6        1.87266  -0.00001   0.00015  -0.00015   0.00000   1.87267
    A7        1.88012  -0.00000   0.00085  -0.00095  -0.00011   1.88002
    A8        1.94917   0.00013  -0.00011   0.00007  -0.00004   1.94913
    A9        1.86070   0.00003  -0.00054   0.00091   0.00037   1.86106
   A10        1.93785  -0.00019   0.00023  -0.00052  -0.00029   1.93756
   A11        1.89367   0.00039  -0.00109   0.00076  -0.00032   1.89335
   A12        1.90445   0.00001   0.00036  -0.00042  -0.00006   1.90438
   A13        1.91708  -0.00038   0.00113  -0.00075   0.00036   1.91744
   A14        2.12305  -0.00015   0.00088  -0.00147  -0.00059   2.12246
   A15        1.92863   0.00013  -0.00236   0.00140  -0.00095   1.92768
   A16        2.08813   0.00016  -0.00051  -0.00006  -0.00057   2.08756
    D1        0.87585   0.00031  -0.00232  -0.00247  -0.00478   0.87107
    D2        2.94150   0.00088  -0.00404  -0.00096  -0.00496   2.93654
    D3       -1.25403   0.00034  -0.00287  -0.00160  -0.00446  -1.25849
    D4        2.75800   0.00189  -0.00000   0.00000  -0.00000   2.75800
    D5       -0.35829  -0.00060  -0.01056   0.00108  -0.00950  -0.36779
    D6       -2.94627  -0.00089  -0.00683   0.00122  -0.00565  -2.95191
    D7       -1.08257  -0.00014   0.00669   0.00148   0.00816  -1.07441
    D8        1.45664   0.00016   0.00213   0.00171   0.00384   1.46048
    D9        3.12261  -0.00014   0.00707   0.00111   0.00817   3.13078
   D10       -0.62136   0.00016   0.00251   0.00134   0.00385  -0.61751
   D11        1.04161  -0.00014   0.00585   0.00239   0.00824   1.04985
   D12       -2.70237   0.00017   0.00130   0.00262   0.00392  -2.69844
         Item               Value     Threshold  Converged?
 Maximum Force            0.000090     0.000450     YES
 RMS     Force            0.000034     0.000300     YES
 Maximum Displacement     0.016390     0.001800     NO 
 RMS     Displacement     0.006179     0.001200     NO 
 Predicted change in Energy=-9.119031D-07
 Lowest energy point so far.  Saving SCF results.
 GradGradGradGradGradGradGradGradGradGradGradGradGradGradGradGradGradGrad

 Leave Link  103 at Sat Mar  9 14:54:13 2019, MaxMem=   671088640 cpu:               0.7 elap:               0.1
 (Enter /shared/centos7/gaussian/g16/l202.exe)
                          Input orientation:                          
 ---------------------------------------------------------------------
 Center     Atomic      Atomic             Coordinates (Angstroms)
 Number     Number       Type             X           Y           Z
 ---------------------------------------------------------------------
      1          8           0       -0.875666   -1.090889   -0.229697
      2          6           0       -0.008466    0.794621   -1.599431
      3          6           0       -2.119159   -0.433301   -0.140134
      4          6           0        0.181649   -0.403272   -0.737344
      5          1           0       -0.548976    0.571453   -2.529556
      6          1           0        0.969532    1.182944   -1.876552
      7          1           0       -0.551690    1.593955   -1.092242
      8          1           0       -2.389719    0.046926   -1.081449
      9          1           0       -2.859281   -1.196729    0.082160
     10          1           0       -2.109401    0.316945    0.654493
     11          1           0        1.011028   -1.070819   -0.925755
 ---------------------------------------------------------------------
                    Distance matrix (angstroms):
                    1          2          3          4          5
     1  O    0.000000
     2  C    2.486636   0.000000
     3  C    1.409511   2.844708   0.000000
     4  C    1.359573   1.488047   2.377242   0.000000
     5  H    2.856477   1.098675   3.030567   2.167008   0.000000
     6  H    3.359643   1.088150   3.894535   2.105857   1.762442
     7  H    2.838545   1.091452   2.733722   2.157001   1.763913
     8  H    2.076648   2.549063   1.090823   2.633063   2.400099
     9  H    2.010767   3.862689   1.086286   3.247832   3.909608
    10  H    2.070240   3.118057   1.092885   2.775758   3.554978
    11  H    2.011098   2.230039   3.289636   1.081198   2.775400
                    6          7          8          9         10
     6  H    0.000000
     7  H    1.760167   0.000000
     8  H    3.634184   2.402450   0.000000
     9  H    4.915201   3.806851   1.766679   0.000000
    10  H    4.078722   2.666140   1.779041   1.783562   0.000000
    11  H    2.446463   3.093675   3.583111   4.001379   3.762998
                   11
    11  H    0.000000
 Stoichiometry    C3H7O(2)
 Framework group  C1[X(C3H7O)]
 Deg. of freedom    27
 Full point group                 C1      NOp   1
 RotChk:  IX=2 Diff= 1.88D-03
 Largest Abelian subgroup         C1      NOp   1
 Largest concise Abelian subgroup C1      NOp   1
                         Standard orientation:                         
 ---------------------------------------------------------------------
 Center     Atomic      Atomic             Coordinates (Angstroms)
 Number     Number       Type             X           Y           Z
 ---------------------------------------------------------------------
      1          8           0       -0.703894    0.699210    0.065648
      2          6           0        1.456016   -0.532239    0.024621
      3          6           0       -1.388356   -0.530037   -0.019119
      4          6           0        0.641051    0.702752   -0.133222
      5          1           0        1.419796   -0.941948    1.043401
      6          1           0        2.495104   -0.293984   -0.193555
      7          1           0        1.147626   -1.327657   -0.656169
      8          1           0       -0.908771   -1.300796    0.585715
      9          1           0       -2.387068   -0.357391    0.371756
     10          1           0       -1.449256   -0.874089   -1.054646
     11          1           0        1.061450    1.659333    0.144637
 ---------------------------------------------------------------------
 Rotational constants (GHZ):          15.8395088           5.9894410           4.6230386
 Leave Link  202 at Sat Mar  9 14:54:13 2019, MaxMem=   671088640 cpu:               0.3 elap:               0.0
 (Enter /shared/centos7/gaussian/g16/l301.exe)
 Standard basis: 6-311+G(2df,2p) (5D, 7F)
 Ernie: Thresh=  0.10000D-02 Tol=  0.10000D-05 Strict=F.
 There are   219 symmetry adapted cartesian basis functions of A   symmetry.
 There are   199 symmetry adapted basis functions of A   symmetry.
   199 basis functions,   285 primitive gaussians,   219 cartesian basis functions
    17 alpha electrons       16 beta electrons
       nuclear repulsion energy       127.8605656006 Hartrees.
 IExCor= 4336 DFT=T Ex+Corr=M062X ExCW=0 ScaHFX=  0.540000
 ScaDFX=  1.000000  1.000000  1.000000  1.000000 ScalE2=  1.000000  1.000000
 IRadAn=      5 IRanWt=     -1 IRanGd=            0 ICorTp=0 IEmpDi=  4
 NAtoms=   11 NActive=   11 NUniq=   11 SFac= 1.00D+00 NAtFMM=   60 NAOKFM=F Big=F
 Integral buffers will be    131072 words long.
 Raffenetti 2 integral format.
 Two-electron integral symmetry is turned on.
 Leave Link  301 at Sat Mar  9 14:54:13 2019, MaxMem=   671088640 cpu:               1.3 elap:               0.1
 (Enter /shared/centos7/gaussian/g16/l302.exe)
 NPDir=0 NMtPBC=     1 NCelOv=     1 NCel=       1 NClECP=     1 NCelD=      1
         NCelK=      1 NCelE2=     1 NClLst=     1 CellRange=     0.0.
 One-electron integrals computed using PRISM.
 One-electron integral symmetry used in STVInt
 NBasis=   199 RedAO= T EigKep=  1.00D-04  NBF=   199
 NBsUse=   199 1.00D-06 EigRej= -1.00D+00 NBFU=   199
 Precomputing XC quadrature grid using
 IXCGrd= 4 IRadAn=           5 IRanWt=          -1 IRanGd=           0 AccXCQ= 0.00D+00.
 Generated NRdTot=       0 NPtTot=           0 NUsed=           0 NTot=          32
 NSgBfM=   219   219   219   219   219 MxSgAt=    11 MxSgA2=    11.
 Leave Link  302 at Sat Mar  9 14:54:13 2019, MaxMem=   671088640 cpu:               6.8 elap:               0.4
 (Enter /shared/centos7/gaussian/g16/l303.exe)
 DipDrv:  MaxL=1.
 Leave Link  303 at Sat Mar  9 14:54:13 2019, MaxMem=   671088640 cpu:               0.6 elap:               0.1
 (Enter /shared/centos7/gaussian/g16/l401.exe)
 Initial guess from the checkpoint file:  "/scratch/underkoffler.c/gaussian_scratch/Gau-9207.chk"
 B after Tr=    -0.000000   -0.000000    0.000000
         Rot=    1.000000   -0.000511   -0.000125   -0.000003 Ang=  -0.06 deg.
 Guess basis will be translated and rotated to current coordinates.
 JPrj=2 DoOrth=T DoCkMO=T.
 Initial guess <Sx>= 0.0000 <Sy>= 0.0000 <Sz>= 0.5000 <S**2>= 0.7546 S= 0.5023
 Leave Link  401 at Sat Mar  9 14:54:13 2019, MaxMem=   671088640 cpu:               3.8 elap:               0.2
