 Entering Gaussian System, Link 0=g16
 Input=MethylPropanoate.com
 Output=MethylPropanoate.log
 Initial command:
 /shared/centos7/gaussian/g16/l1.exe "/scratch/underkoffler.c/gaussian_scratch/Gau-34946.inp" -scrdir="/scratch/underkoffler.c/gaussian_scratch/"
 Entering Link 1 = /shared/centos7/gaussian/g16/l1.exe PID=     34947.
  
 Copyright (c) 1988,1990,1992,1993,1995,1998,2003,2009,2016,
            Gaussian, Inc.  All Rights Reserved.
  
 This is part of the Gaussian(R) 16 program.  It is based on
 the Gaussian(R) 09 system (copyright 2009, Gaussian, Inc.),
 the Gaussian(R) 03 system (copyright 2003, Gaussian, Inc.),
 the Gaussian(R) 98 system (copyright 1998, Gaussian, Inc.),
 the Gaussian(R) 94 system (copyright 1995, Gaussian, Inc.),
 the Gaussian 92(TM) system (copyright 1992, Gaussian, Inc.),
 the Gaussian 90(TM) system (copyright 1990, Gaussian, Inc.),
 the Gaussian 88(TM) system (copyright 1988, Gaussian, Inc.),
 the Gaussian 86(TM) system (copyright 1986, Carnegie Mellon
 University), and the Gaussian 82(TM) system (copyright 1983,
 Carnegie Mellon University). Gaussian is a federally registered
 trademark of Gaussian, Inc.
  
 This software contains proprietary and confidential information,
 including trade secrets, belonging to Gaussian, Inc.
  
 This software is provided under written license and may be
 used, copied, transmitted, or stored only in accord with that
 written license.
  
 The following legend is applicable only to US Government
 contracts under FAR:
  
                    RESTRICTED RIGHTS LEGEND
  
 Use, reproduction and disclosure by the US Government is
 subject to restrictions as set forth in subparagraphs (a)
 and (c) of the Commercial Computer Software - Restricted
 Rights clause in FAR 52.227-19.
  
 Gaussian, Inc.
 340 Quinnipiac St., Bldg. 40, Wallingford CT 06492
  
  
 ---------------------------------------------------------------
 Warning -- This program may not be used in any manner that
 competes with the business of Gaussian, Inc. or will provide
 assistance to any competitor of Gaussian, Inc.  The licensee
 of this program is prohibited from giving any competitor of
 Gaussian, Inc. access to this program.  By using this program,
 the user acknowledges that Gaussian, Inc. is engaged in the
 business of creating and licensing software in the field of
 computational chemistry and represents and warrants to the
 licensee that it is not a competitor of Gaussian, Inc. and that
 it will not use this program in any manner prohibited above.
 ---------------------------------------------------------------
  

 Cite this work as:
 Gaussian 16, Revision A.03,
 M. J. Frisch, G. W. Trucks, H. B. Schlegel, G. E. Scuseria, 
 M. A. Robb, J. R. Cheeseman, G. Scalmani, V. Barone, 
 G. A. Petersson, H. Nakatsuji, X. Li, M. Caricato, A. V. Marenich, 
 J. Bloino, B. G. Janesko, R. Gomperts, B. Mennucci, H. P. Hratchian, 
 J. V. Ortiz, A. F. Izmaylov, J. L. Sonnenberg, D. Williams-Young, 
 F. Ding, F. Lipparini, F. Egidi, J. Goings, B. Peng, A. Petrone, 
 T. Henderson, D. Ranasinghe, V. G. Zakrzewski, J. Gao, N. Rega, 
 G. Zheng, W. Liang, M. Hada, M. Ehara, K. Toyota, R. Fukuda, 
 J. Hasegawa, M. Ishida, T. Nakajima, Y. Honda, O. Kitao, H. Nakai, 
 T. Vreven, K. Throssell, J. A. Montgomery, Jr., J. E. Peralta, 
 F. Ogliaro, M. J. Bearpark, J. J. Heyd, E. N. Brothers, K. N. Kudin, 
 V. N. Staroverov, T. A. Keith, R. Kobayashi, J. Normand, 
 K. Raghavachari, A. P. Rendell, J. C. Burant, S. S. Iyengar, 
 J. Tomasi, M. Cossi, J. M. Millam, M. Klene, C. Adamo, R. Cammi, 
 J. W. Ochterski, R. L. Martin, K. Morokuma, O. Farkas, 
 J. B. Foresman, and D. J. Fox, Gaussian, Inc., Wallingford CT, 2016.
 
 ******************************************
 Gaussian 16:  EM64L-G16RevA.03 25-Dec-2016
                 6-Feb-2019 
 ******************************************
 ---------------------------------------------------
 #p m062x/6-311+g(2df,2p) opt=(calcfc,maxcycle=1000)
 ---------------------------------------------------
 1/6=1000,10=4,18=20,19=15,26=3,38=1/1,3;
 2/9=110,12=2,17=6,18=5,40=1/2;
 3/5=4,6=6,7=214,11=2,25=1,30=1,71=2,74=-55,140=1/1,2,3;
 4//1;
 5/5=2,38=5/2;
 8/6=4,10=90,11=11/1;
 11/6=1,8=1,9=11,15=111,16=1/1,2,10;
 10/6=1,13=1/2;
 6/7=2,8=2,9=2,10=2,28=1/1;
 7/10=1,18=20,25=1/1,2,3,16;
 1/6=1000,10=4,18=20,19=15,26=3/3(2);
 2/9=110/2;
 99//99;
 2/9=110/2;
 3/5=4,6=6,7=214,11=2,25=1,30=1,71=1,74=-55/1,2,3;
 4/5=5,16=3,69=1/1;
 5/5=2,38=5/2;
 7//1,2,3,16;
 1/6=1000,18=20,19=15,26=3/3(-5);
 2/9=110/2;
 6/7=2,8=2,9=2,10=2,19=2,28=1/1;
 99/9=1/99;
 Leave Link    1 at Wed Feb  6 14:42:05 2019, MaxMem=           0 cpu:               0.2 elap:               1.5
 (Enter /shared/centos7/gaussian/g16/l101.exe)
 ------------------------------
 Gaussian input prepared by ASE
 ------------------------------
 Symbolic Z-matrix:
 Charge =  0 Multiplicity = 1
 C                    -1.0997    0.0003    0.6004 
 C                    -2.2509   -0.3521   -0.3093 
 C                     2.6367    0.0378    0.0324 
 C                     0.206    -0.1395   -0.0847 
 O                     1.3472    0.1565    0.6471 
 H                    -1.2112    1.0586    0.9088 
 H                    -1.1477   -0.6896    1.4663 
 H                    -3.1809   -0.2411    0.2836 
 H                    -2.3455    0.3571   -1.1631 
 H                    -2.2003   -1.3938   -0.6449 
 H                     2.6666   -0.9033   -0.5905 
 H                     3.4296   -0.0025    0.8061 
 H                     2.8333    0.8595   -0.6743 
 O                     0.3168   -0.5082   -1.2779 
 
 ITRead=  0  0  0  0  0  0  0  0  0  0  0  0  0  0
 MicOpt= -1 -1 -1 -1 -1 -1 -1 -1 -1 -1 -1 -1 -1 -1
 NAtoms=     14 NQM=       14 NQMF=       0 NMMI=      0 NMMIF=      0
                NMic=       0 NMicF=      0.
                    Isotopes and Nuclear Properties:
 (Nuclear quadrupole moments (NQMom) in fm**2, nuclear magnetic moments (NMagM)
  in nuclear magnetons)

  Atom         1           2           3           4           5           6           7           8           9          10
 IAtWgt=          12          12          12          12          16           1           1           1           1           1
 AtmWgt=  12.0000000  12.0000000  12.0000000  12.0000000  15.9949146   1.0078250   1.0078250   1.0078250   1.0078250   1.0078250
 NucSpn=           0           0           0           0           0           1           1           1           1           1
 AtZEff=  -0.0000000  -0.0000000  -0.0000000  -0.0000000  -0.0000000  -0.0000000  -0.0000000  -0.0000000  -0.0000000  -0.0000000
 NQMom=    0.0000000   0.0000000   0.0000000   0.0000000   0.0000000   0.0000000   0.0000000   0.0000000   0.0000000   0.0000000
 NMagM=    0.0000000   0.0000000   0.0000000   0.0000000   0.0000000   2.7928460   2.7928460   2.7928460   2.7928460   2.7928460
 AtZNuc=   6.0000000   6.0000000   6.0000000   6.0000000   8.0000000   1.0000000   1.0000000   1.0000000   1.0000000   1.0000000

  Atom        11          12          13          14
 IAtWgt=           1           1           1          16
 AtmWgt=   1.0078250   1.0078250   1.0078250  15.9949146
 NucSpn=           1           1           1           0
 AtZEff=  -0.0000000  -0.0000000  -0.0000000  -0.0000000
 NQMom=    0.0000000   0.0000000   0.0000000   0.0000000
 NMagM=    2.7928460   2.7928460   2.7928460   0.0000000
 AtZNuc=   1.0000000   1.0000000   1.0000000   8.0000000
 Leave Link  101 at Wed Feb  6 14:42:05 2019, MaxMem=   104857600 cpu:               0.2 elap:               0.3
 (Enter /shared/centos7/gaussian/g16/l103.exe)

 GradGradGradGradGradGradGradGradGradGradGradGradGradGradGradGradGradGrad
 Berny optimization.
 Initialization pass.
                           ----------------------------
                           !    Initial Parameters    !
                           ! (Angstroms and Degrees)  !
 --------------------------                            --------------------------
 ! Name  Definition              Value          Derivative Info.                !
 --------------------------------------------------------------------------------
 ! R1    R(1,2)                  1.509          calculate D2E/DX2 analytically  !
 ! R2    R(1,4)                  1.4811         calculate D2E/DX2 analytically  !
 ! R3    R(1,6)                  1.1079         calculate D2E/DX2 analytically  !
 ! R4    R(1,7)                  1.1082         calculate D2E/DX2 analytically  !
 ! R5    R(2,8)                  1.1085         calculate D2E/DX2 analytically  !
 ! R6    R(2,9)                  1.114          calculate D2E/DX2 analytically  !
 ! R7    R(2,10)                 1.0956         calculate D2E/DX2 analytically  !
 ! R8    R(3,5)                  1.4334         calculate D2E/DX2 analytically  !
 ! R9    R(3,11)                 1.129          calculate D2E/DX2 analytically  !
 ! R10   R(3,12)                 1.1086         calculate D2E/DX2 analytically  !
 ! R11   R(3,13)                 1.1015         calculate D2E/DX2 analytically  !
 ! R12   R(4,5)                  1.3876         calculate D2E/DX2 analytically  !
 ! R13   R(4,14)                 1.2538         calculate D2E/DX2 analytically  !
 ! A1    A(2,1,4)              111.817          calculate D2E/DX2 analytically  !
 ! A2    A(2,1,6)              108.3067         calculate D2E/DX2 analytically  !
 ! A3    A(2,1,7)              107.0152         calculate D2E/DX2 analytically  !
 ! A4    A(4,1,6)              107.9163         calculate D2E/DX2 analytically  !
 ! A5    A(4,1,7)              109.9286         calculate D2E/DX2 analytically  !
 ! A6    A(6,1,7)              111.8886         calculate D2E/DX2 analytically  !
 ! A7    A(1,2,8)              107.1108         calculate D2E/DX2 analytically  !
 ! A8    A(1,2,9)              112.2207         calculate D2E/DX2 analytically  !
 ! A9    A(1,2,10)             111.8069         calculate D2E/DX2 analytically  !
 ! A10   A(8,2,9)              105.9595         calculate D2E/DX2 analytically  !
 ! A11   A(8,2,10)             107.3255         calculate D2E/DX2 analytically  !
 ! A12   A(9,2,10)             111.9919         calculate D2E/DX2 analytically  !
 ! A13   A(5,3,11)             109.2357         calculate D2E/DX2 analytically  !
 ! A14   A(5,3,12)             110.3127         calculate D2E/DX2 analytically  !
 ! A15   A(5,3,13)             111.9576         calculate D2E/DX2 analytically  !
 ! A16   A(11,3,12)            109.623          calculate D2E/DX2 analytically  !
 ! A17   A(11,3,13)            105.2562         calculate D2E/DX2 analytically  !
 ! A18   A(12,3,13)            110.3186         calculate D2E/DX2 analytically  !
 ! A19   A(1,4,5)              117.4472         calculate D2E/DX2 analytically  !
 ! A20   A(1,4,14)             123.0839         calculate D2E/DX2 analytically  !
 ! A21   A(5,4,14)             119.4689         calculate D2E/DX2 analytically  !
 ! A22   A(3,5,4)              119.7366         calculate D2E/DX2 analytically  !
 ! D1    D(4,1,2,8)            178.89           calculate D2E/DX2 analytically  !
 ! D2    D(4,1,2,9)            -65.2273         calculate D2E/DX2 analytically  !
 ! D3    D(4,1,2,10)            61.5815         calculate D2E/DX2 analytically  !
 ! D4    D(6,1,2,8)            -62.3286         calculate D2E/DX2 analytically  !
 ! D5    D(6,1,2,9)             53.5541         calculate D2E/DX2 analytically  !
 ! D6    D(6,1,2,10)          -179.637          calculate D2E/DX2 analytically  !
 ! D7    D(7,1,2,8)             58.4618         calculate D2E/DX2 analytically  !
 ! D8    D(7,1,2,9)            174.3445         calculate D2E/DX2 analytically  !
 ! D9    D(7,1,2,10)           -58.8466         calculate D2E/DX2 analytically  !
 ! D10   D(2,1,4,5)            179.9965         calculate D2E/DX2 analytically  !
 ! D11   D(2,1,4,14)            -0.0087         calculate D2E/DX2 analytically  !
 ! D12   D(6,1,4,5)             60.9837         calculate D2E/DX2 analytically  !
 ! D13   D(6,1,4,14)          -119.0215         calculate D2E/DX2 analytically  !
 ! D14   D(7,1,4,5)            -61.2908         calculate D2E/DX2 analytically  !
 ! D15   D(7,1,4,14)           118.704          calculate D2E/DX2 analytically  !
 ! D16   D(11,3,5,4)           -41.8776         calculate D2E/DX2 analytically  !
 ! D17   D(12,3,5,4)          -162.4374         calculate D2E/DX2 analytically  !
 ! D18   D(13,3,5,4)            74.3011         calculate D2E/DX2 analytically  !
 ! D19   D(1,4,5,3)            179.9961         calculate D2E/DX2 analytically  !
 ! D20   D(14,4,5,3)             0.0011         calculate D2E/DX2 analytically  !
 --------------------------------------------------------------------------------
 Trust Radius=3.00D-01 FncErr=1.00D-07 GrdErr=1.00D-06 EigMax=2.50D+02 EigMin=1.00D-04
 Number of steps in this run=    100 maximum allowed number of steps=    100.
 GradGradGradGradGradGradGradGradGradGradGradGradGradGradGradGradGradGrad

 Leave Link  103 at Wed Feb  6 14:42:05 2019, MaxMem=   104857600 cpu:               0.1 elap:               0.1
 (Enter /shared/centos7/gaussian/g16/l202.exe)
                          Input orientation:                          
 ---------------------------------------------------------------------
 Center     Atomic      Atomic             Coordinates (Angstroms)
 Number     Number       Type             X           Y           Z
 ---------------------------------------------------------------------
      1          6           0       -1.099700    0.000300    0.600400
      2          6           0       -2.250900   -0.352100   -0.309300
      3          6           0        2.636700    0.037800    0.032400
      4          6           0        0.206000   -0.139500   -0.084700
      5          8           0        1.347200    0.156500    0.647100
      6          1           0       -1.211200    1.058600    0.908800
      7          1           0       -1.147700   -0.689600    1.466300
      8          1           0       -3.180900   -0.241100    0.283600
      9          1           0       -2.345500    0.357100   -1.163100
     10          1           0       -2.200300   -1.393800   -0.644900
     11          1           0        2.666600   -0.903300   -0.590500
     12          1           0        3.429600   -0.002500    0.806100
     13          1           0        2.833300    0.859500   -0.674300
     14          8           0        0.316800   -0.508200   -1.277900
 ---------------------------------------------------------------------
                    Distance matrix (angstroms):
                    1          2          3          4          5
     1  C    0.000000
     2  C    1.508974   0.000000
     3  C    3.779513   4.915019   0.000000
     4  C    1.481134   2.476288   2.439969   0.000000
     5  O    2.452325   3.757619   1.433442   1.387618   0.000000
     6  H    1.107945   2.134202   4.076327   2.104980   2.725377
     7  H    1.108174   2.117478   4.111796   2.130895   2.758895
     8  H    2.118969   1.108491   5.829696   3.408381   4.560034
     9  H    2.188437   1.113952   5.133565   2.814198   4.117414
    10  H    2.169241   1.095594   5.089674   2.770807   4.081354
    11  H    4.052129   4.956279   1.128968   2.625600   2.096580
    12  H    4.533969   5.799519   1.108569   3.347221   2.094505
    13  H    4.222745   5.239302   1.101484   2.871991   2.109218
    14  O    2.406877   2.748752   2.719731   1.253771   2.282362
                    6          7          8          9         10
     6  H    0.000000
     7  H    1.836040   0.000000
     8  H    2.441273   2.394542   0.000000
     9  H    2.464043   3.073117   1.774451   0.000000
    10  H    3.067013   2.461916   1.775502   1.831738   0.000000
    11  H    4.597204   4.338776   5.949438   5.199772   4.891857
    12  H    4.761670   4.675430   6.635409   6.112188   5.978034
    13  H    4.347853   4.778100   6.188659   5.226021   5.515012
    14  O    3.093752   3.115814   3.839730   2.801743   2.742402
                   11         12         13         14
    11  H    0.000000
    12  H    1.828688   0.000000
    13  H    1.772646   1.813891   0.000000
    14  O    2.479956   3.779988   2.927065   0.000000
 Stoichiometry    C4H8O2
 Framework group  C1[X(C4H8O2)]
 Deg. of freedom    36
 Full point group                 C1      NOp   1
 Largest Abelian subgroup         C1      NOp   1
 Largest concise Abelian subgroup C1      NOp   1
                         Standard orientation:                         
 ---------------------------------------------------------------------
 Center     Atomic      Atomic             Coordinates (Angstroms)
 Number     Number       Type             X           Y           Z
 ---------------------------------------------------------------------
      1          6           0       -1.246613   -0.756705    0.000097
      2          6           0       -2.458064    0.142951   -0.002505
      3          6           0        2.455055    0.006417    0.002824
      4          6           0        0.015120    0.019044    0.000262
      5          8           0        1.204934   -0.694975    0.002641
      6          1           0       -1.270127   -1.369410    0.922909
      7          1           0       -1.305285   -1.382260   -0.912749
      8          1           0       -3.351396   -0.513014   -0.022988
      9          1           0       -2.539628    0.742409    0.932848
     10          1           0       -2.495258    0.772915   -0.898099
     11          1           0        2.391828    0.879443   -0.710195
     12          1           0        3.275984   -0.670192   -0.308948
     13          1           0        2.677971    0.450587    0.985824
     14          8           0        0.047932    1.272385   -0.001725
 ---------------------------------------------------------------------
 Rotational constants (GHZ):           9.6553571           2.0804206           1.7712838
 Leave Link  202 at Wed Feb  6 14:42:05 2019, MaxMem=   104857600 cpu:               0.0 elap:               0.0
 (Enter /shared/centos7/gaussian/g16/l301.exe)
 Standard basis: 6-311+G(2df,2p) (5D, 7F)
 Ernie: Thresh=  0.10000D-02 Tol=  0.10000D-05 Strict=F.
 There are   306 symmetry adapted cartesian basis functions of A   symmetry.
 There are   276 symmetry adapted basis functions of A   symmetry.
   276 basis functions,   400 primitive gaussians,   306 cartesian basis functions
    24 alpha electrons       24 beta electrons
       nuclear repulsion energy       242.4978092192 Hartrees.
 IExCor= 4336 DFT=T Ex+Corr=M062X ExCW=0 ScaHFX=  0.540000
 ScaDFX=  1.000000  1.000000  1.000000  1.000000 ScalE2=  1.000000  1.000000
 IRadAn=      5 IRanWt=     -1 IRanGd=            0 ICorTp=0 IEmpDi=  4
 NAtoms=   14 NActive=   14 NUniq=   14 SFac= 1.00D+00 NAtFMM=   60 NAOKFM=F Big=F
 Integral buffers will be    131072 words long.
 Raffenetti 2 integral format.
 Two-electron integral symmetry is turned on.
 Leave Link  301 at Wed Feb  6 14:42:06 2019, MaxMem=   104857600 cpu:               0.1 elap:               0.1
 (Enter /shared/centos7/gaussian/g16/l302.exe)
 NPDir=0 NMtPBC=     1 NCelOv=     1 NCel=       1 NClECP=     1 NCelD=      1
         NCelK=      1 NCelE2=     1 NClLst=     1 CellRange=     0.0.
 One-electron integrals computed using PRISM.
 One-electron integral symmetry used in STVInt
 NBasis=   276 RedAO= T EigKep=  2.47D-05  NBF=   276
 NBsUse=   276 1.00D-06 EigRej= -1.00D+00 NBFU=   276
 Precomputing XC quadrature grid using
 IXCGrd= 4 IRadAn=           5 IRanWt=          -1 IRanGd=           0 AccXCQ= 0.00D+00.
 Generated NRdTot=       0 NPtTot=           0 NUsed=           0 NTot=          32
 NSgBfM=   306   306   306   306   306 MxSgAt=    14 MxSgA2=    14.
 Leave Link  302 at Wed Feb  6 14:42:06 2019, MaxMem=   104857600 cpu:               0.6 elap:               0.6
 (Enter /shared/centos7/gaussian/g16/l303.exe)
 DipDrv:  MaxL=1.
 Leave Link  303 at Wed Feb  6 14:42:06 2019, MaxMem=   104857600 cpu:               0.1 elap:               0.1
 (Enter /shared/centos7/gaussian/g16/l401.exe)
 ExpMin= 4.38D-02 ExpMax= 8.59D+03 ExpMxC= 1.30D+03 IAcc=3 IRadAn=         5 AccDes= 0.00D+00
 Harris functional with IExCor= 1009 and IRadAn=       5 diagonalized for initial guess.
 HarFok:  IExCor= 1009 AccDes= 0.00D+00 IRadAn=         5 IDoV= 1 UseB2=F ITyADJ=14
 ICtDFT=  3500011 ScaDFX=  1.000000  1.000000  1.000000  1.000000
 FoFCou: FMM=F IPFlag=           0 FMFlag=      100000 FMFlg1=           0
         NFxFlg=           0 DoJE=T BraDBF=F KetDBF=T FulRan=T
         wScrn=  0.000000 ICntrl=       500 IOpCl=  0 I1Cent=   200000004 NGrid=           0
         NMat0=    1 NMatS0=      1 NMatT0=    0 NMatD0=    1 NMtDS0=    0 NMtDT0=    0
 Petite list used in FoFCou.
 Harris En= -307.552440178131    
 JPrj=0 DoOrth=F DoCkMO=F.
 Leave Link  401 at Wed Feb  6 14:42:15 2019, MaxMem=   104857600 cpu:               8.8 elap:               8.8
 (Enter /shared/centos7/gaussian/g16/l502.exe)
 Integral symmetry usage will be decided dynamically.
 Closed shell SCF:
 Using DIIS extrapolation, IDIIS=  1040.
 NGot=   104857600 LenX=   104665686 LenY=   104571609
 Requested convergence on RMS density matrix=1.00D-08 within 128 cycles.
 Requested convergence on MAX density matrix=1.00D-06.
 Requested convergence on             energy=1.00D-06.
 No special actions if energy rises.
 Fock matrices will be formed incrementally for  20 cycles.

 Cycle   1  Pass 1  IDiag  1:
 FoFJK:  IHMeth= 1 ICntrl=       0 DoSepK=F KAlg= 0 I1Cent=           0 FoldK=F
 IRaf= 950000000 NMat=       1 IRICut=       1 DoRegI=T DoRafI=F ISym2E= 0 IDoP0=0 IntGTp=1.
 FoFCou: FMM=F IPFlag=           0 FMFlag=      100000 FMFlg1=           0
         NFxFlg=           0 DoJE=F BraDBF=F KetDBF=F FulRan=T
         wScrn=  0.000000 ICntrl=         0 IOpCl=  0 I1Cent=           0 NGrid=           0
         NMat0=    1 NMatS0=      1 NMatT0=    0 NMatD0=    1 NMtDS0=    0 NMtDT0=    0
 Symmetry not used in FoFCou.
 E= -307.454502050771    
 DIIS: error= 3.03D-02 at cycle   1 NSaved=   1.
 NSaved= 1 IEnMin= 1 EnMin= -307.454502050771     IErMin= 1 ErrMin= 3.03D-02
 ErrMax= 3.03D-02  0.00D+00 EMaxC= 1.00D-01 BMatC= 2.81D-01 BMatP= 2.81D-01
 IDIUse=3 WtCom= 6.97D-01 WtEn= 3.03D-01
 Coeff-Com:  0.100D+01
 Coeff-En:   0.100D+01
 Coeff:      0.100D+01
 Gap=     0.319 Goal=   None    Shift=    0.000
 GapD=    0.319 DampG=1.000 DampE=0.500 DampFc=0.5000 IDamp=-1.
 Damping current iteration by 5.00D-01
 RMSDP=2.90D-03 MaxDP=1.06D-01              OVMax= 2.21D-01

 Cycle   2  Pass 1  IDiag  1:
 RMSU=  1.44D-03    CP:  9.80D-01
 E= -307.546730581279     Delta-E=       -0.092228530508 Rises=F Damp=T
 DIIS: error= 7.77D-03 at cycle   2 NSaved=   2.
 NSaved= 2 IEnMin= 2 EnMin= -307.546730581279     IErMin= 2 ErrMin= 7.77D-03
 ErrMax= 7.77D-03  0.00D+00 EMaxC= 1.00D-01 BMatC= 2.55D-02 BMatP= 2.81D-01
 IDIUse=3 WtCom= 9.22D-01 WtEn= 7.77D-02
 Coeff-Com:  0.256D-01 0.974D+00
 Coeff-En:   0.691D-01 0.931D+00
 Coeff:      0.290D-01 0.971D+00
 Gap=     0.388 Goal=   None    Shift=    0.000
 RMSDP=1.37D-03 MaxDP=1.37D-01 DE=-9.22D-02 OVMax= 1.32D-01

 Cycle   3  Pass 1  IDiag  1:
 RMSU=  1.26D-03    CP:  9.33D-01  8.01D-01
 E= -307.645287286264     Delta-E=       -0.098556704985 Rises=F Damp=F
 DIIS: error= 7.97D-03 at cycle   3 NSaved=   3.
 NSaved= 3 IEnMin= 3 EnMin= -307.645287286264     IErMin= 2 ErrMin= 7.77D-03
 ErrMax= 7.97D-03  0.00D+00 EMaxC= 1.00D-01 BMatC= 2.07D-02 BMatP= 2.55D-02
 IDIUse=3 WtCom= 9.20D-01 WtEn= 7.97D-02
 Coeff-Com: -0.657D-01 0.495D+00 0.571D+00
 Coeff-En:   0.000D+00 0.000D+00 0.100D+01
 Coeff:     -0.605D-01 0.455D+00 0.605D+00
 Gap=     0.389 Goal=   None    Shift=    0.000
 RMSDP=4.39D-04 MaxDP=1.71D-02 DE=-9.86D-02 OVMax= 5.43D-02

 Cycle   4  Pass 1  IDiag  1:
 RMSU=  4.16D-04    CP:  9.33D-01  8.96D-01  9.70D-01
 E= -307.658131430111     Delta-E=       -0.012844143847 Rises=F Damp=F
 DIIS: error= 2.67D-03 at cycle   4 NSaved=   4.
 NSaved= 4 IEnMin= 4 EnMin= -307.658131430111     IErMin= 4 ErrMin= 2.67D-03
 ErrMax= 2.67D-03  0.00D+00 EMaxC= 1.00D-01 BMatC= 3.35D-03 BMatP= 2.07D-02
 IDIUse=3 WtCom= 9.73D-01 WtEn= 2.67D-02
 Coeff-Com: -0.273D-01 0.792D-01 0.318D+00 0.630D+00
 Coeff-En:   0.000D+00 0.000D+00 0.134D+00 0.866D+00
 Coeff:     -0.266D-01 0.771D-01 0.313D+00 0.637D+00
 Gap=     0.365 Goal=   None    Shift=    0.000
 RMSDP=1.55D-04 MaxDP=7.07D-03 DE=-1.28D-02 OVMax= 1.32D-02

 Cycle   5  Pass 1  IDiag  1:
 RMSU=  6.97D-05    CP:  9.29D-01  8.62D-01  1.03D+00  7.68D-01
 E= -307.660584978661     Delta-E=       -0.002453548550 Rises=F Damp=F
 DIIS: error= 4.26D-04 at cycle   5 NSaved=   5.
 NSaved= 5 IEnMin= 5 EnMin= -307.660584978661     IErMin= 5 ErrMin= 4.26D-04
 ErrMax= 4.26D-04  0.00D+00 EMaxC= 1.00D-01 BMatC= 7.89D-05 BMatP= 3.35D-03
 IDIUse=3 WtCom= 9.96D-01 WtEn= 4.26D-03
 Coeff-Com: -0.765D-02 0.142D-01 0.108D+00 0.262D+00 0.624D+00
 Coeff-En:   0.000D+00 0.000D+00 0.000D+00 0.000D+00 0.100D+01
 Coeff:     -0.761D-02 0.141D-01 0.107D+00 0.261D+00 0.625D+00
 Gap=     0.365 Goal=   None    Shift=    0.000
 RMSDP=2.68D-05 MaxDP=1.33D-03 DE=-2.45D-03 OVMax= 2.79D-03

 Cycle   6  Pass 1  IDiag  1:
 RMSU=  2.25D-05    CP:  9.29D-01  8.58D-01  1.04D+00  7.87D-01  9.46D-01
 E= -307.660638883763     Delta-E=       -0.000053905102 Rises=F Damp=F
 DIIS: error= 1.76D-04 at cycle   6 NSaved=   6.
 NSaved= 6 IEnMin= 6 EnMin= -307.660638883763     IErMin= 6 ErrMin= 1.76D-04
 ErrMax= 1.76D-04  0.00D+00 EMaxC= 1.00D-01 BMatC= 1.08D-05 BMatP= 7.89D-05
 IDIUse=3 WtCom= 9.98D-01 WtEn= 1.76D-03
 Coeff-Com: -0.275D-03-0.280D-02 0.151D-01 0.476D-01 0.294D+00 0.647D+00
 Coeff-En:   0.000D+00 0.000D+00 0.000D+00 0.000D+00 0.000D+00 0.100D+01
 Coeff:     -0.274D-03-0.279D-02 0.150D-01 0.475D-01 0.293D+00 0.647D+00
 Gap=     0.365 Goal=   None    Shift=    0.000
 RMSDP=1.13D-05 MaxDP=4.77D-04 DE=-5.39D-05 OVMax= 6.68D-04

 Cycle   7  Pass 1  IDiag  1:
 RMSU=  7.10D-06    CP:  9.28D-01  8.54D-01  1.04D+00  7.93D-01  1.01D+00
                    CP:  9.51D-01
 E= -307.660647413283     Delta-E=       -0.000008529520 Rises=F Damp=F
 DIIS: error= 3.22D-05 at cycle   7 NSaved=   7.
 NSaved= 7 IEnMin= 7 EnMin= -307.660647413283     IErMin= 7 ErrMin= 3.22D-05
 ErrMax= 3.22D-05  0.00D+00 EMaxC= 1.00D-01 BMatC= 5.51D-07 BMatP= 1.08D-05
 IDIUse=1 WtCom= 1.00D+00 WtEn= 0.00D+00
 Coeff-Com:  0.120D-02-0.287D-02-0.100D-01-0.260D-01-0.115D-01 0.111D+00
 Coeff-Com:  0.938D+00
 Coeff:      0.120D-02-0.287D-02-0.100D-01-0.260D-01-0.115D-01 0.111D+00
 Coeff:      0.938D+00
 Gap=     0.365 Goal=   None    Shift=    0.000
 RMSDP=5.38D-06 MaxDP=1.83D-04 DE=-8.53D-06 OVMax= 4.87D-04

 Cycle   8  Pass 1  IDiag  1:
 RMSU=  2.86D-06    CP:  9.28D-01  8.52D-01  1.04D+00  7.93D-01  1.04D+00
                    CP:  1.02D+00  1.09D+00
 E= -307.660648184349     Delta-E=       -0.000000771066 Rises=F Damp=F
 DIIS: error= 1.44D-05 at cycle   8 NSaved=   8.
 NSaved= 8 IEnMin= 8 EnMin= -307.660648184349     IErMin= 8 ErrMin= 1.44D-05
 ErrMax= 1.44D-05  0.00D+00 EMaxC= 1.00D-01 BMatC= 1.01D-07 BMatP= 5.51D-07
 IDIUse=1 WtCom= 1.00D+00 WtEn= 0.00D+00
 Coeff-Com:  0.460D-03-0.798D-03-0.414D-02-0.134D-01-0.300D-01-0.294D-01
 Coeff-Com:  0.320D+00 0.757D+00
 Coeff:      0.460D-03-0.798D-03-0.414D-02-0.134D-01-0.300D-01-0.294D-01
 Coeff:      0.320D+00 0.757D+00
 Gap=     0.365 Goal=   None    Shift=    0.000
 RMSDP=1.43D-06 MaxDP=4.25D-05 DE=-7.71D-07 OVMax= 1.28D-04

 Cycle   9  Pass 1  IDiag  1:
 RMSU=  9.08D-07    CP:  9.28D-01  8.52D-01  1.04D+00  7.92D-01  1.05D+00
                    CP:  1.04D+00  1.17D+00  1.08D+00
 E= -307.660648302684     Delta-E=       -0.000000118335 Rises=F Damp=F
 DIIS: error= 3.28D-06 at cycle   9 NSaved=   9.
 NSaved= 9 IEnMin= 9 EnMin= -307.660648302684     IErMin= 9 ErrMin= 3.28D-06
 ErrMax= 3.28D-06  0.00D+00 EMaxC= 1.00D-01 BMatC= 5.56D-09 BMatP= 1.01D-07
 IDIUse=1 WtCom= 1.00D+00 WtEn= 0.00D+00
 Coeff-Com: -0.879D-04 0.220D-03 0.108D-02 0.182D-02-0.941D-03-0.148D-01
 Coeff-Com: -0.800D-01 0.494D-01 0.104D+01
 Coeff:     -0.879D-04 0.220D-03 0.108D-02 0.182D-02-0.941D-03-0.148D-01
 Coeff:     -0.800D-01 0.494D-01 0.104D+01
 Gap=     0.365 Goal=   None    Shift=    0.000
 RMSDP=5.49D-07 MaxDP=2.25D-05 DE=-1.18D-07 OVMax= 5.93D-05

 Cycle  10  Pass 1  IDiag  1:
 RMSU=  2.37D-07    CP:  9.28D-01  8.52D-01  1.04D+00  7.91D-01  1.05D+00
                    CP:  1.03D+00  1.19D+00  1.20D+00  1.20D+00
 E= -307.660648312057     Delta-E=       -0.000000009373 Rises=F Damp=F
 DIIS: error= 6.87D-07 at cycle  10 NSaved=  10.
 NSaved=10 IEnMin=10 EnMin= -307.660648312057     IErMin=10 ErrMin= 6.87D-07
 ErrMax= 6.87D-07  0.00D+00 EMaxC= 1.00D-01 BMatC= 2.14D-10 BMatP= 5.56D-09
 IDIUse=1 WtCom= 1.00D+00 WtEn= 0.00D+00
 Coeff-Com: -0.277D-04 0.576D-04 0.351D-03 0.850D-03 0.110D-02-0.315D-03
 Coeff-Com: -0.259D-01-0.343D-01 0.142D+00 0.916D+00
 Coeff:     -0.277D-04 0.576D-04 0.351D-03 0.850D-03 0.110D-02-0.315D-03
 Coeff:     -0.259D-01-0.343D-01 0.142D+00 0.916D+00
 Gap=     0.365 Goal=   None    Shift=    0.000
 RMSDP=1.04D-07 MaxDP=4.64D-06 DE=-9.37D-09 OVMax= 1.08D-05

 Cycle  11  Pass 1  IDiag  1:
 RMSU=  4.98D-08    CP:  9.28D-01  8.52D-01  1.04D+00  7.91D-01  1.05D+00
                    CP:  1.03D+00  1.19D+00  1.21D+00  1.26D+00  1.09D+00
 E= -307.660648312384     Delta-E=       -0.000000000327 Rises=F Damp=F
 DIIS: error= 2.46D-07 at cycle  11 NSaved=  11.
 NSaved=11 IEnMin=11 EnMin= -307.660648312384     IErMin=11 ErrMin= 2.46D-07
 ErrMax= 2.46D-07  0.00D+00 EMaxC= 1.00D-01 BMatC= 3.17D-11 BMatP= 2.14D-10
 IDIUse=1 WtCom= 1.00D+00 WtEn= 0.00D+00
 Coeff-Com: -0.247D-05 0.259D-05 0.563D-04 0.163D-03 0.435D-03 0.774D-03
 Coeff-Com: -0.324D-02-0.144D-01-0.241D-01 0.269D+00 0.772D+00
 Coeff:     -0.247D-05 0.259D-05 0.563D-04 0.163D-03 0.435D-03 0.774D-03
 Coeff:     -0.324D-02-0.144D-01-0.241D-01 0.269D+00 0.772D+00
 Gap=     0.365 Goal=   None    Shift=    0.000
 RMSDP=2.34D-08 MaxDP=1.28D-06 DE=-3.27D-10 OVMax= 2.08D-06

 Cycle  12  Pass 1  IDiag  1:
 RMSU=  1.65D-08    CP:  9.28D-01  8.52D-01  1.04D+00  7.91D-01  1.05D+00
                    CP:  1.03D+00  1.19D+00  1.21D+00  1.27D+00  1.15D+00
                    CP:  1.08D+00
 E= -307.660648312413     Delta-E=       -0.000000000029 Rises=F Damp=F
 DIIS: error= 8.94D-08 at cycle  12 NSaved=  12.
 NSaved=12 IEnMin=12 EnMin= -307.660648312413     IErMin=12 ErrMin= 8.94D-08
 ErrMax= 8.94D-08  0.00D+00 EMaxC= 1.00D-01 BMatC= 3.17D-12 BMatP= 3.17D-11
 IDIUse=1 WtCom= 1.00D+00 WtEn= 0.00D+00
 Coeff-Com:  0.235D-05-0.516D-05-0.160D-04-0.404D-04 0.210D-04 0.197D-03
 Coeff-Com:  0.169D-02-0.667D-03-0.222D-01-0.166D-01 0.247D+00 0.790D+00
 Coeff:      0.235D-05-0.516D-05-0.160D-04-0.404D-04 0.210D-04 0.197D-03
 Coeff:      0.169D-02-0.667D-03-0.222D-01-0.166D-01 0.247D+00 0.790D+00
 Gap=     0.365 Goal=   None    Shift=    0.000
 RMSDP=7.83D-09 MaxDP=2.79D-07 DE=-2.91D-11 OVMax= 5.30D-07

 SCF Done:  E(RM062X) =  -307.660648312     A.U. after   12 cycles
            NFock= 12  Conv=0.78D-08     -V/T= 2.0052
 KE= 3.060677321301D+02 PE=-1.204410171649D+03 EE= 3.481839819874D+02
 Leave Link  502 at Wed Feb  6 14:48:28 2019, MaxMem=   104857600 cpu:             372.7 elap:             372.7
 (Enter /shared/centos7/gaussian/g16/l801.exe)
 DoSCS=F DFT=T ScalE2(SS,OS)=  1.000000  1.000000
 Range of M.O.s used for correlation:     1   276
 NBasis=   276 NAE=    24 NBE=    24 NFC=     0 NFV=     0
 NROrb=    276 NOA=    24 NOB=    24 NVA=   252 NVB=   252

 **** Warning!!: The largest alpha MO coefficient is  0.58038186D+02

 Leave Link  801 at Wed Feb  6 14:48:28 2019, MaxMem=   104857600 cpu:               0.1 elap:               0.1
 (Enter /shared/centos7/gaussian/g16/l1101.exe)
 Using compressed storage, NAtomX=    14.
 Will process     15 centers per pass.
 Leave Link 1101 at Wed Feb  6 14:48:28 2019, MaxMem=   104857600 cpu:               0.4 elap:               0.4
 (Enter /shared/centos7/gaussian/g16/l1102.exe)
 Symmetrizing basis deriv contribution to polar:
 IMax=3 JMax=2 DiffMx= 0.00D+00
 Leave Link 1102 at Wed Feb  6 14:48:28 2019, MaxMem=   104857600 cpu:               0.1 elap:               0.1
 (Enter /shared/centos7/gaussian/g16/l1110.exe)
 Forming Gx(P) for the SCF density, NAtomX=    14.
 Integral derivatives from FoFJK, PRISM(SPDF).
 Do as many integral derivatives as possible in FoFJK.
 G2DrvN: MDV=     104856456.
 G2DrvN: will do    15 centers at a time, making    1 passes.
 Calling FoFCou, ICntrl=  3107 FMM=F I1Cent=   0 AccDes= 0.00D+00.
 FoFJK:  IHMeth= 1 ICntrl=    3107 DoSepK=F KAlg= 0 I1Cent=           0 FoldK=F
 IRaf=         0 NMat=       1 IRICut=       1 DoRegI=T DoRafI=F ISym2E= 0 IDoP0=0 IntGTp=1.
 FoFCou: FMM=F IPFlag=           0 FMFlag=      100000 FMFlg1=           0
         NFxFlg=           0 DoJE=F BraDBF=F KetDBF=F FulRan=T
         wScrn=  0.000000 ICntrl=      3107 IOpCl=  0 I1Cent=           0 NGrid=           0
         NMat0=    1 NMatS0=      1 NMatT0=    0 NMatD0=    1 NMtDS0=    0 NMtDT0=    0
 Symmetry not used in FoFCou.
 End of G2Drv F.D. properties file   721 does not exist.
 End of G2Drv F.D. properties file   722 does not exist.
 End of G2Drv F.D. properties file   788 does not exist.
 Leave Link 1110 at Wed Feb  6 15:01:46 2019, MaxMem=   104857600 cpu:             797.5 elap:             797.5
 (Enter /shared/centos7/gaussian/g16/l1002.exe)
 Minotr:  Closed shell wavefunction.
          IDoAtm=11111111111111
          Direct CPHF calculation.
          Differentiating once with respect to nuclear coordinates.
          Requested convergence is 1.0D-08 RMS, and 1.0D-07 maximum.
          Secondary convergence is 1.0D-12 RMS, and 1.0D-12 maximum.
          NewPWx=T KeepS1=F KeepF1=F KeepIn=T MapXYZ=F SortEE=F KeepMc=T.
         4285 words used for storage of precomputed grid.
 Two-electron integrals replicated using symmetry.
          MDV=     104857600 using IRadAn=       1.
          Solving linear equations simultaneously, MaxMat=     384.
 FoF2E skips out because all densities are zero.
 CalDSu exits because no D1Ps are significant.
 FoFJK:  IHMeth= 1 ICntrl=       0 DoSepK=F KAlg= 0 I1Cent=           0 FoldK=F
 IRaf= 940000000 NMat=      42 IRICut=     105 DoRegI=T DoRafI=T ISym2E= 2 IDoP0=3 IntGTp=3.
 FoFCou: FMM=F IPFlag=           0 FMFlag=      100000 FMFlg1=           0
         NFxFlg=           0 DoJE=F BraDBF=F KetDBF=F FulRan=T
         wScrn=  0.000000 ICntrl=         0 IOpCl=  0 I1Cent=           0 NGrid=           0
         NMat0=   42 NMatS0=     42 NMatT0=    0 NMatD0=   42 NMtDS0=    0 NMtDT0=    0
 Integrals replicated using symmetry in FoFCou.
 Raff kept on since  92.11% of shell-pairs survive, threshold=   0.20 IRatSp=92.
          There are    45 degrees of freedom in the 1st order CPHF.  IDoFFX=6 NUNeed=     0.
     39 vectors produced by pass  0 Test12= 1.34D-14 2.22D-09 XBig12= 1.26D-01 7.07D-02.
 AX will form    39 AO Fock derivatives at one time.
     39 vectors produced by pass  1 Test12= 1.34D-14 2.22D-09 XBig12= 1.56D-02 2.32D-02.
     39 vectors produced by pass  2 Test12= 1.34D-14 2.22D-09 XBig12= 3.82D-04 3.34D-03.
     39 vectors produced by pass  3 Test12= 1.34D-14 2.22D-09 XBig12= 3.85D-06 2.52D-04.
     39 vectors produced by pass  4 Test12= 1.34D-14 2.22D-09 XBig12= 3.34D-08 2.54D-05.
     39 vectors produced by pass  5 Test12= 1.34D-14 2.22D-09 XBig12= 1.77D-10 1.87D-06.
     24 vectors produced by pass  6 Test12= 1.34D-14 2.22D-09 XBig12= 7.97D-13 1.09D-07.
      3 vectors produced by pass  7 Test12= 1.34D-14 2.22D-09 XBig12= 2.83D-15 6.69D-09.
 InvSVY:  IOpt=1 It=  1 EMax= 1.55D-15
 Solved reduced A of dimension   261 with    39 vectors.
 End of Minotr F.D. properties file   721 does not exist.
 End of Minotr F.D. properties file   722 does not exist.
 End of Minotr F.D. properties file   788 does not exist.
 Leave Link 1002 at Wed Feb  6 15:19:51 2019, MaxMem=   104857600 cpu:            1085.4 elap:            1085.6
 (Enter /shared/centos7/gaussian/g16/l601.exe)
 Copying SCF densities to generalized density rwf, IOpCl= 0 IROHF=0.

 **********************************************************************

            Population analysis using the SCF density.

 **********************************************************************

 Orbital symmetries:
       Occupied  (A) (A) (A) (A) (A) (A) (A) (A) (A) (A) (A) (A)
                 (A) (A) (A) (A) (A) (A) (A) (A) (A) (A) (A) (A)
       Virtual   (A) (A) (A) (A) (A) (A) (A) (A) (A) (A) (A) (A)
                 (A) (A) (A) (A) (A) (A) (A) (A) (A) (A) (A) (A)
                 (A) (A) (A) (A) (A) (A) (A) (A) (A) (A) (A) (A)
                 (A) (A) (A) (A) (A) (A) (A) (A) (A) (A) (A) (A)
                 (A) (A) (A) (A) (A) (A) (A) (A) (A) (A) (A) (A)
                 (A) (A) (A) (A) (A) (A) (A) (A) (A) (A) (A) (A)
                 (A) (A) (A) (A) (A) (A) (A) (A) (A) (A) (A) (A)
                 (A) (A) (A) (A) (A) (A) (A) (A) (A) (A) (A) (A)
                 (A) (A) (A) (A) (A) (A) (A) (A) (A) (A) (A) (A)
                 (A) (A) (A) (A) (A) (A) (A) (A) (A) (A) (A) (A)
                 (A) (A) (A) (A) (A) (A) (A) (A) (A) (A) (A) (A)
                 (A) (A) (A) (A) (A) (A) (A) (A) (A) (A) (A) (A)
                 (A) (A) (A) (A) (A) (A) (A) (A) (A) (A) (A) (A)
                 (A) (A) (A) (A) (A) (A) (A) (A) (A) (A) (A) (A)
                 (A) (A) (A) (A) (A) (A) (A) (A) (A) (A) (A) (A)
                 (A) (A) (A) (A) (A) (A) (A) (A) (A) (A) (A) (A)
                 (A) (A) (A) (A) (A) (A) (A) (A) (A) (A) (A) (A)
                 (A) (A) (A) (A) (A) (A) (A) (A) (A) (A) (A) (A)
                 (A) (A) (A) (A) (A) (A) (A) (A) (A) (A) (A) (A)
                 (A) (A) (A) (A) (A) (A) (A) (A) (A) (A) (A) (A)
                 (A) (A) (A) (A) (A) (A) (A) (A) (A) (A) (A) (A)
 The electronic state is 1-A.
 Alpha  occ. eigenvalues --  -19.66901 -19.61368 -10.68117 -10.59680 -10.56231
 Alpha  occ. eigenvalues --  -10.53599  -1.21218  -1.11912  -0.89956  -0.81615
 Alpha  occ. eigenvalues --   -0.73319  -0.63907  -0.58666  -0.57107  -0.55356
 Alpha  occ. eigenvalues --   -0.52845  -0.50035  -0.45291  -0.44551  -0.43193
 Alpha  occ. eigenvalues --   -0.41898  -0.41367  -0.36922  -0.35415
 Alpha virt. eigenvalues --    0.01115   0.02355   0.02981   0.03635   0.04072
 Alpha virt. eigenvalues --    0.04907   0.05819   0.06373   0.08331   0.08478
 Alpha virt. eigenvalues --    0.08713   0.09652   0.10525   0.12602   0.14157
 Alpha virt. eigenvalues --    0.15067   0.17081   0.18186   0.19684   0.20213
 Alpha virt. eigenvalues --    0.21158   0.22172   0.22244   0.23277   0.23980
 Alpha virt. eigenvalues --    0.25551   0.26613   0.27811   0.28274   0.29213
 Alpha virt. eigenvalues --    0.30486   0.31437   0.34063   0.34645   0.36720
 Alpha virt. eigenvalues --    0.37041   0.38392   0.41651   0.44401   0.46404
 Alpha virt. eigenvalues --    0.47093   0.48008   0.49822   0.51190   0.53191
 Alpha virt. eigenvalues --    0.53952   0.54530   0.55890   0.57320   0.58749
 Alpha virt. eigenvalues --    0.59864   0.60851   0.61747   0.62783   0.65602
 Alpha virt. eigenvalues --    0.66670   0.67410   0.68319   0.70193   0.72000
 Alpha virt. eigenvalues --    0.76552   0.79013   0.80658   0.83125   0.84570
 Alpha virt. eigenvalues --    0.87401   0.88876   0.89546   0.91107   0.91971
 Alpha virt. eigenvalues --    0.98218   1.00207   1.02354   1.04756   1.05695
 Alpha virt. eigenvalues --    1.08696   1.09688   1.11776   1.12019   1.14329
 Alpha virt. eigenvalues --    1.15724   1.17127   1.17322   1.19627   1.19871
 Alpha virt. eigenvalues --    1.21198   1.23067   1.23671   1.24652   1.25052
 Alpha virt. eigenvalues --    1.26648   1.31157   1.31457   1.34257   1.35584
 Alpha virt. eigenvalues --    1.37705   1.39701   1.41939   1.44280   1.44701
 Alpha virt. eigenvalues --    1.46263   1.46504   1.48186   1.52457   1.52635
 Alpha virt. eigenvalues --    1.56180   1.56589   1.58998   1.59866   1.61751
 Alpha virt. eigenvalues --    1.63912   1.67749   1.68260   1.71595   1.79658
 Alpha virt. eigenvalues --    1.84936   1.93046   2.05275   2.07015   2.11532
 Alpha virt. eigenvalues --    2.27601   2.32236   2.39871   2.41810   2.46142
 Alpha virt. eigenvalues --    2.52538   2.55180   2.57919   2.65442   2.67005
 Alpha virt. eigenvalues --    2.68571   2.76109   2.79629   2.81566   2.82907
 Alpha virt. eigenvalues --    2.84243   2.84861   2.94047   2.96499   2.98318
 Alpha virt. eigenvalues --    2.99799   3.01573   3.02981   3.05335   3.09746
 Alpha virt. eigenvalues --    3.11968   3.12691   3.13361   3.14292   3.16961
 Alpha virt. eigenvalues --    3.18248   3.23154   3.24735   3.27335   3.27874
 Alpha virt. eigenvalues --    3.31238   3.33049   3.36710   3.38036   3.41063
 Alpha virt. eigenvalues --    3.42820   3.47349   3.48633   3.49963   3.51764
 Alpha virt. eigenvalues --    3.52243   3.55779   3.58527   3.59652   3.61497
 Alpha virt. eigenvalues --    3.65831   3.67910   3.68125   3.75130   3.79302
 Alpha virt. eigenvalues --    3.80157   3.81091   3.82874   3.88094   3.88883
 Alpha virt. eigenvalues --    3.92872   3.96212   3.97301   4.00920   4.02199
 Alpha virt. eigenvalues --    4.05474   4.10763   4.12713   4.13558   4.16522
 Alpha virt. eigenvalues --    4.20974   4.22070   4.23413   4.25286   4.26137
 Alpha virt. eigenvalues --    4.27459   4.30683   4.31549   4.35488   4.38645
 Alpha virt. eigenvalues --    4.42783   4.48919   4.52386   4.52754   4.55468
 Alpha virt. eigenvalues --    4.56853   4.73761   4.88531   4.93833   5.09137
 Alpha virt. eigenvalues --    5.11889   5.14464   5.19049   5.20131   5.20966
 Alpha virt. eigenvalues --    5.23127   5.33801   5.38869   5.40539   5.44680
 Alpha virt. eigenvalues --    5.46195   5.49165   5.50685   5.51046   5.54253
 Alpha virt. eigenvalues --    5.57631   5.63770   5.69940   5.71349   5.88412
 Alpha virt. eigenvalues --    5.97614   6.17884   6.35811   6.57530   6.83908
 Alpha virt. eigenvalues --    6.84268   6.93891   7.03437   7.08113   7.16241
 Alpha virt. eigenvalues --    7.19638   7.29935   7.50985   7.63406   7.75688
 Alpha virt. eigenvalues --    7.81301  24.28073  24.30943  24.41813  24.69926
 Alpha virt. eigenvalues --   50.13611  50.23347
          Condensed to atoms (all electrons):
               1          2          3          4          5          6
     1  C    5.745947   0.127247  -0.068741  -0.145462  -0.220187   0.440754
     2  C    0.127247   5.156389  -0.010912   0.049916   0.006356  -0.044176
     3  C   -0.068741  -0.010912   4.958098  -0.096162   0.148591   0.001395
     4  C   -0.145462   0.049916  -0.096162   5.334251   0.281945  -0.047034
     5  O   -0.220187   0.006356   0.148591   0.281945   8.153914   0.002812
     6  H    0.440754  -0.044176   0.001395  -0.047034   0.002812   0.519568
     7  H    0.446626  -0.048316   0.000995  -0.047039   0.002318  -0.026499
     8  H   -0.092992   0.429388   0.000339   0.043652  -0.000420  -0.004745
     9  H   -0.021897   0.410195  -0.000151  -0.006871  -0.000033  -0.006944
    10  H   -0.025210   0.413981  -0.000038  -0.005894  -0.000002   0.005515
    11  H   -0.002904  -0.002273   0.425747  -0.000597  -0.033886  -0.000070
    12  H    0.003773   0.000743   0.413716   0.014997  -0.050194   0.000005
    13  H   -0.001174  -0.000367   0.430072   0.001496  -0.038187   0.000062
    14  O   -0.044723  -0.025810  -0.024629   0.408860  -0.077820   0.001181
               7          8          9         10         11         12
     1  C    0.446626  -0.092992  -0.021897  -0.025210  -0.002904   0.003773
     2  C   -0.048316   0.429388   0.410195   0.413981  -0.002273   0.000743
     3  C    0.000995   0.000339  -0.000151  -0.000038   0.425747   0.413716
     4  C   -0.047039   0.043652  -0.006871  -0.005894  -0.000597   0.014997
     5  O    0.002318  -0.000420  -0.000033  -0.000002  -0.033886  -0.050194
     6  H   -0.026499  -0.004745  -0.006944   0.005515  -0.000070   0.000005
     7  H    0.518722  -0.005961   0.005661  -0.006284   0.000077  -0.000008
     8  H   -0.005961   0.555525  -0.029077  -0.028474   0.000000  -0.000000
     9  H    0.005661  -0.029077   0.526259  -0.021818   0.000012  -0.000002
    10  H   -0.006284  -0.028474  -0.021818   0.518311  -0.000007  -0.000001
    11  H    0.000077   0.000000   0.000012  -0.000007   0.548991  -0.025231
    12  H   -0.000008  -0.000000  -0.000002  -0.000001  -0.025231   0.534573
    13  H   -0.000030  -0.000001   0.000003   0.000005  -0.038022  -0.026071
    14  O    0.001245   0.002085  -0.003341  -0.002782  -0.005080   0.002542
              13         14
     1  C   -0.001174  -0.044723
     2  C   -0.000367  -0.025810
     3  C    0.430072  -0.024629
     4  C    0.001496   0.408860
     5  O   -0.038187  -0.077820
     6  H    0.000062   0.001181
     7  H   -0.000030   0.001245
     8  H   -0.000001   0.002085
     9  H    0.000003  -0.003341
    10  H    0.000005  -0.002782
    11  H   -0.038022  -0.005080
    12  H   -0.026071   0.002542
    13  H    0.535379  -0.002765
    14  O   -0.002765   8.180087
 Mulliken charges:
               1
     1  C   -0.141057
     2  C   -0.462361
     3  C   -0.178320
     4  C    0.213940
     5  O   -0.175206
     6  H    0.158175
     7  H    0.158492
     8  H    0.130683
     9  H    0.148004
    10  H    0.152697
    11  H    0.133243
    12  H    0.131159
    13  H    0.139600
    14  O   -0.409049
 Sum of Mulliken charges =  -0.00000
 Mulliken charges with hydrogens summed into heavy atoms:
               1
     1  C    0.175610
     2  C   -0.030977
     3  C    0.225681
     4  C    0.213940
     5  O   -0.175206
    14  O   -0.409049
 APT charges:
               1
     1  C   -0.574173
     2  C   -1.368439
     3  C   -1.252826
     4  C    0.256547
     5  O   -0.079455
     6  H    0.388582
     7  H    0.403387
     8  H    0.558319
     9  H    0.362382
    10  H    0.346898
    11  H    0.302982
    12  H    0.629288
    13  H    0.411966
    14  O   -0.385458
 Sum of APT charges =  -0.00000
 APT charges with hydrogens summed into heavy atoms:
               1
     1  C    0.217796
     2  C   -0.100841
     3  C    0.091410
     4  C    0.256547
     5  O   -0.079455
    14  O   -0.385458
 Electronic spatial extent (au):  <R**2>=            709.3602
 Charge=             -0.0000 electrons
 Dipole moment (field-independent basis, Debye):
    X=              0.0642    Y=             -1.7912    Z=             -0.0095  Tot=              1.7924
 Quadrupole moment (field-independent basis, Debye-Ang):
   XX=            -30.2683   YY=            -41.8272   ZZ=            -35.8949
   XY=              2.0772   XZ=             -0.0198   YZ=              0.0505
 Traceless Quadrupole moment (field-independent basis, Debye-Ang):
   XX=              5.7285   YY=             -5.8304   ZZ=              0.1019
   XY=              2.0772   XZ=             -0.0198   YZ=              0.0505
 Octapole moment (field-independent basis, Debye-Ang**2):
  XXX=             20.9273  YYY=             -3.2655  ZZZ=              0.5776  XYY=             -0.1296
  XXY=             -0.2345  XXZ=             -0.2967  XZZ=              0.7147  YZZ=              0.3620
  YYZ=             -0.5034  XYZ=              0.3959
 Hexadecapole moment (field-independent basis, Debye-Ang**3):
 XXXX=           -682.2210 YYYY=           -167.0510 ZZZZ=            -56.2999 XXXY=             -2.9510
 XXXZ=             -1.7266 YYYX=              0.3103 YYYZ=             -0.3463 ZZZX=              1.4765
 ZZZY=              0.2065 XXYY=           -145.4758 XXZZ=           -129.0181 YYZZ=            -33.2831
 XXYZ=              2.2809 YYXZ=             -0.8724 ZZXY=              0.5959
 N-N= 2.424978092192D+02 E-N=-1.204410180011D+03  KE= 3.060677321301D+02
  Exact polarizability:   0.000   0.000   0.000   0.000   0.000   0.000
 Approx polarizability:  67.311  -1.329  71.698   0.228  -0.019  57.303
 No NMR shielding tensors so no spin-rotation constants.
 Leave Link  601 at Wed Feb  6 15:19:52 2019, MaxMem=   104857600 cpu:               0.3 elap:               0.3
 (Enter /shared/centos7/gaussian/g16/l701.exe)
 ... and contract with generalized density number  0.
 Compute integral second derivatives.
 Leave Link  701 at Wed Feb  6 15:19:52 2019, MaxMem=   104857600 cpu:               0.5 elap:               0.5
 (Enter /shared/centos7/gaussian/g16/l702.exe)
 L702 exits ... SP integral derivatives will be done elsewhere.
 Leave Link  702 at Wed Feb  6 15:19:52 2019, MaxMem=   104857600 cpu:               0.1 elap:               0.1
 (Enter /shared/centos7/gaussian/g16/l703.exe)
 Integral derivatives from FoFJK, PRISM(SPDF).
 Compute integral second derivatives, UseDBF=F ICtDFT=           0.
 Calling FoFJK, ICntrl=    100147 FMM=F ISym2X=0 I1Cent= 0 IOpClX= 0 NMat=1 NMatS=1 NMatT=0.
 FoFJK:  IHMeth= 1 ICntrl=  100147 DoSepK=F KAlg= 0 I1Cent=           0 FoldK=F
 IRaf=         0 NMat=       1 IRICut=       1 DoRegI=T DoRafI=F ISym2E= 0 IDoP0=0 IntGTp=1.
 FoFCou: FMM=F IPFlag=           0 FMFlag=      100000 FMFlg1=         800
         NFxFlg=           0 DoJE=F BraDBF=F KetDBF=F FulRan=T
         wScrn=  0.000000 ICntrl=    100147 IOpCl=  0 I1Cent=           0 NGrid=           0
         NMat0=    1 NMatS0=      1 NMatT0=    0 NMatD0=    1 NMtDS0=    0 NMtDT0=    0
 Symmetry not used in FoFCou.
 Leave Link  703 at Wed Feb  6 15:37:25 2019, MaxMem=   104857600 cpu:            1052.4 elap:            1052.4
 (Enter /shared/centos7/gaussian/g16/l716.exe)
 Dipole        = 2.52451951D-02-7.04724535D-01-3.72910397D-03
 Polarizability= 0.00000000D+00 0.00000000D+00 0.00000000D+00
                 0.00000000D+00 0.00000000D+00 0.00000000D+00
 ***** Axes restored to original set *****
 -------------------------------------------------------------------
 Center     Atomic                   Forces (Hartrees/Bohr)
 Number     Number              X              Y              Z
 -------------------------------------------------------------------
      1        6          -0.004876970    0.004756811    0.012975633
      2        6          -0.022986062    0.007772714   -0.004856826
      3        6          -0.000433477   -0.022427018   -0.023245073
      4        6           0.060018377   -0.022186407   -0.075929279
      5        8          -0.027728422   -0.000338590   -0.000150938
      6        1           0.004325585   -0.012383980    0.005952083
      7        1           0.006723603    0.013955898   -0.002743965
      8        1           0.007984269   -0.002293667   -0.006549759
      9        1           0.005009529   -0.014893712    0.009021157
     10        1           0.001386024    0.007742231   -0.003217761
     11        1          -0.000033525    0.017582450    0.014981078
     12        1          -0.016993221    0.002420014   -0.005382438
     13        1          -0.004468585   -0.002147881    0.008398453
     14        8          -0.007927124    0.022441138    0.070747636
 -------------------------------------------------------------------
 Cartesian Forces:  Max     0.075929279 RMS     0.021816729
 FormGI is forming the generalized inverse of G from B-inverse, IUseBI=4.
 GSVD:  received Info=                   1 from GESDD.
 Leave Link  716 at Wed Feb  6 15:37:25 2019, MaxMem=   104857600 cpu:               0.1 elap:               0.1
 (Enter /shared/centos7/gaussian/g16/l103.exe)

 GradGradGradGradGradGradGradGradGradGradGradGradGradGradGradGradGradGrad
 Berny optimization.
 Red2BG is reusing G-inverse.
 Internal  Forces:  Max     0.074629644 RMS     0.014475060
 Search for a local minimum.
 Step number   1 out of a maximum of  100
 All quantities printed in internal units (Hartrees-Bohrs-Radians)
 RMS Force = .14475D-01 SwitMx=.10000D-02 MixMth= 1
 Mixed Optimization -- RFO/linear search
 Second derivative matrix not updated -- analytic derivatives used.
 ITU=  0
     Eigenvalues ---    0.00029   0.00083   0.00283   0.01874   0.03641
     Eigenvalues ---    0.04099   0.04168   0.04674   0.04913   0.07405
     Eigenvalues ---    0.08235   0.08515   0.10819   0.11786   0.12419
     Eigenvalues ---    0.15145   0.16298   0.17410   0.17708   0.18060
     Eigenvalues ---    0.21472   0.22486   0.25366   0.27689   0.30014
     Eigenvalues ---    0.30806   0.30942   0.31127   0.31192   0.31649
     Eigenvalues ---    0.32715   0.33646   0.34973   0.38227   0.39457
     Eigenvalues ---    0.65339
 RFO step:  Lambda=-2.89780239D-02 EMin= 2.90334792D-04
 Linear search not attempted -- first point.
 Iteration  1 RMS(Cart)=  0.07223060 RMS(Int)=  0.00237385
 Iteration  2 RMS(Cart)=  0.00256092 RMS(Int)=  0.00055143
 Iteration  3 RMS(Cart)=  0.00000363 RMS(Int)=  0.00055142
 Iteration  4 RMS(Cart)=  0.00000000 RMS(Int)=  0.00055142
 ITry= 1 IFail=0 DXMaxC= 2.59D-01 DCOld= 1.00D+10 DXMaxT= 3.00D-01 DXLimC= 3.00D+00 Rises=F
 Variable       Old X    -DE/DX   Delta X   Delta X   Delta X     New X
                                 (Linear)    (Quad)   (Total)
    R1        2.85155   0.01034   0.00000   0.02018   0.02018   2.87172
    R2        2.79894   0.00748   0.00000   0.04000   0.04000   2.83893
    R3        2.09371  -0.01061   0.00000  -0.03159  -0.03159   2.06212
    R4        2.09414  -0.01112   0.00000  -0.03234  -0.03234   2.06180
    R5        2.09474  -0.01043   0.00000  -0.03457  -0.03457   2.06017
    R6        2.10506  -0.01682   0.00000  -0.04887  -0.04887   2.05619
    R7        2.07037  -0.00631   0.00000  -0.01469  -0.01469   2.05568
    R8        2.70881  -0.01710   0.00000  -0.02007  -0.02007   2.68874
    R9        2.13344  -0.02292   0.00000  -0.07964  -0.07964   2.05380
   R10        2.09489  -0.01600   0.00000  -0.04458  -0.04458   2.05031
   R11        2.08150  -0.00779   0.00000  -0.02198  -0.02198   2.05952
   R12        2.62222  -0.04473   0.00000  -0.09319  -0.09319   2.52902
   R13        2.36928  -0.07463   0.00000  -0.11743  -0.11743   2.25185
    A1        1.95158  -0.00140   0.00000   0.00271   0.00271   1.95429
    A2        1.89031   0.00444   0.00000   0.04261   0.04238   1.93269
    A3        1.86777   0.00733   0.00000   0.06164   0.06160   1.92936
    A4        1.88349  -0.00058   0.00000  -0.00718  -0.00787   1.87563
    A5        1.91862  -0.00367   0.00000  -0.03211  -0.03276   1.88585
    A6        1.95282  -0.00612   0.00000  -0.06757  -0.06935   1.88348
    A7        1.86944   0.00367   0.00000   0.03949   0.03931   1.90875
    A8        1.95862  -0.00064   0.00000  -0.01520  -0.01587   1.94276
    A9        1.95140   0.00060   0.00000  -0.00926  -0.00993   1.94147
   A10        1.84934   0.00113   0.00000   0.02767   0.02750   1.87684
   A11        1.87318  -0.00019   0.00000   0.01230   0.01213   1.88531
   A12        1.95463  -0.00412   0.00000  -0.04686  -0.04793   1.90670
   A13        1.90652   0.00433   0.00000   0.02126   0.02105   1.92758
   A14        1.92532  -0.01278   0.00000  -0.06475  -0.06571   1.85961
   A15        1.95403  -0.00475   0.00000  -0.02745  -0.02839   1.92563
   A16        1.91328   0.00368   0.00000   0.01988   0.01972   1.93300
   A17        1.83707   0.00643   0.00000   0.05153   0.05127   1.88834
   A18        1.92542   0.00427   0.00000   0.00645   0.00469   1.93011
   A19        2.04984  -0.02239   0.00000  -0.10690  -0.10690   1.94294
   A20        2.14822   0.00965   0.00000   0.04057   0.04057   2.18879
   A21        2.08513   0.01274   0.00000   0.06632   0.06632   2.15145
   A22        2.08980  -0.02456   0.00000  -0.06798  -0.06798   2.02182
    D1        3.12222  -0.00085   0.00000  -0.00868  -0.00865   3.11357
    D2       -1.13843   0.00239   0.00000   0.04035   0.04015  -1.09829
    D3        1.07480  -0.00318   0.00000  -0.04252  -0.04226   1.03254
    D4       -1.08784   0.00044   0.00000   0.01130   0.01122  -1.07662
    D5        0.93470   0.00368   0.00000   0.06033   0.06002   0.99471
    D6       -3.13526  -0.00190   0.00000  -0.02254  -0.02239   3.12554
    D7        1.02035  -0.00023   0.00000  -0.01055  -0.01049   1.00986
    D8        3.04289   0.00301   0.00000   0.03849   0.03831   3.08119
    D9       -1.02707  -0.00257   0.00000  -0.04438  -0.04410  -1.07117
   D10        3.14153  -0.00068   0.00000  -0.00369  -0.00359   3.13795
   D11       -0.00015  -0.00033   0.00000  -0.00127  -0.00118  -0.00133
   D12        1.06437  -0.00494   0.00000  -0.05308  -0.05248   1.01188
   D13       -2.07732  -0.00459   0.00000  -0.05067  -0.05008  -2.12739
   D14       -1.06973   0.00519   0.00000   0.05399   0.05330  -1.01643
   D15        2.07178   0.00553   0.00000   0.05641   0.05571   2.12748
   D16       -0.73090  -0.00343   0.00000  -0.05032  -0.05039  -0.78130
   D17       -2.83507  -0.00276   0.00000  -0.04801  -0.04668  -2.88175
   D18        1.29680   0.00436   0.00000   0.01002   0.00876   1.30556
   D19        3.14152  -0.00033   0.00000  -0.00946  -0.00944   3.13208
   D20        0.00002  -0.00066   0.00000  -0.01178  -0.01179  -0.01177
         Item               Value     Threshold  Converged?
 Maximum Force            0.074630     0.000450     NO 
 RMS     Force            0.014475     0.000300     NO 
 Maximum Displacement     0.258630     0.001800     NO 
 RMS     Displacement     0.073241     0.001200     NO 
 Predicted change in Energy=-1.614554D-02
 Lowest energy point so far.  Saving SCF results.
 GradGradGradGradGradGradGradGradGradGradGradGradGradGradGradGradGradGrad

 Leave Link  103 at Wed Feb  6 15:37:25 2019, MaxMem=   104857600 cpu:               0.1 elap:               0.1
 (Enter /shared/centos7/gaussian/g16/l202.exe)
                          Input orientation:                          
 ---------------------------------------------------------------------
 Center     Atomic      Atomic             Coordinates (Angstroms)
 Number     Number       Type             X           Y           Z
 ---------------------------------------------------------------------
      1          6           0       -1.055849   -0.004116    0.581795
      2          6           0       -2.250983   -0.339394   -0.294892
      3          6           0        2.569765    0.018882    0.024626
      4          6           0        0.243532   -0.158279   -0.156271
      5          8           0        1.286390    0.144337    0.625984
      6          1           0       -1.112178    1.027227    0.933844
      7          1           0       -1.027454   -0.656132    1.456138
      8          1           0       -3.166402   -0.241370    0.289000
      9          1           0       -2.325969    0.342964   -1.139111
     10          1           0       -2.194849   -1.361258   -0.663669
     11          1           0        2.637063   -0.909667   -0.536134
     12          1           0        3.292739    0.032767    0.833511
     13          1           0        2.748142    0.845378   -0.663022
     14          8           0        0.356052   -0.501639   -1.291799
 ---------------------------------------------------------------------
                    Distance matrix (angstroms):
                    1          2          3          4          5
     1  C    0.000000
     2  C    1.519650   0.000000
     3  C    3.668248   4.844591   0.000000
     4  C    1.502299   2.504920   2.339971   0.000000
     5  O    2.347356   3.687142   1.422821   1.338302   0.000000
     6  H    1.091228   2.162018   3.924300   2.105166   2.574374
     7  H    1.091057   2.159504   3.929994   2.112611   2.585301
     8  H    2.143933   1.090197   5.748150   3.439887   4.482152
     9  H    2.166839   1.088091   5.042571   2.796348   4.025438
    10  H    2.165718   1.087821   5.008001   2.765920   4.006126
    11  H    3.963255   4.927109   1.086823   2.537295   2.070208
    12  H    4.356024   5.669625   1.084979   3.211515   2.020136
    13  H    4.091646   5.150773   1.089850   2.745395   2.071162
    14  O    2.398198   2.795850   2.627630   1.191630   2.227264
                    6          7          8          9         10
     6  H    0.000000
     7  H    1.764558   0.000000
     8  H    2.499000   2.471708   0.000000
     9  H    2.497729   3.069146   1.757065   0.000000
    10  H    3.070682   2.520635   1.762283   1.774151   0.000000
    11  H    4.468691   4.178769   5.899802   5.154062   4.854644
    12  H    4.516891   4.418858   6.487846   5.962998   5.856490
    13  H    4.181521   4.582630   6.088448   5.121103   5.413170
    14  O    3.073535   3.080441   3.869670   2.816009   2.764161
                   11         12         13         14
    11  H    0.000000
    12  H    1.787183   0.000000
    13  H    1.763129   1.787885   0.000000
    14  O    2.437320   3.664242   2.816366   0.000000
 Stoichiometry    C4H8O2
 Framework group  C1[X(C4H8O2)]
 Deg. of freedom    36
 Full point group                 C1      NOp   1
 RotChk:  IX=0 Diff= 9.22D-03
 Largest Abelian subgroup         C1      NOp   1
 Largest concise Abelian subgroup C1      NOp   1
                         Standard orientation:                         
 ---------------------------------------------------------------------
 Center     Atomic      Atomic             Coordinates (Angstroms)
 Number     Number       Type             X           Y           Z
 ---------------------------------------------------------------------
      1          6           0       -1.204686   -0.744035   -0.001069
      2          6           0       -2.453627    0.121692   -0.001526
      3          6           0        2.389196   -0.009156   -0.004074
      4          6           0        0.050958    0.080742    0.000917
      5          8           0        1.142128   -0.694096    0.005846
      6          1           0       -1.178037   -1.383285    0.882915
      7          1           0       -1.184830   -1.387957   -0.881624
      8          1           0       -3.336379   -0.517341   -0.031798
      9          1           0       -2.516705    0.725333    0.901568
     10          1           0       -2.480506    0.774153   -0.871542
     11          1           0        2.371981    0.800188   -0.729229
     12          1           0        3.143279   -0.743985   -0.265925
     13          1           0        2.594585    0.417687    0.977453
     14          8           0        0.094817    1.271564    0.000740
 ---------------------------------------------------------------------
 Rotational constants (GHZ):           9.7551070           2.1699623           1.8360526
 Leave Link  202 at Wed Feb  6 15:37:25 2019, MaxMem=   104857600 cpu:               0.0 elap:               0.0
 (Enter /shared/centos7/gaussian/g16/l301.exe)
 Standard basis: 6-311+G(2df,2p) (5D, 7F)
 Ernie: Thresh=  0.10000D-02 Tol=  0.10000D-05 Strict=F.
 There are   306 symmetry adapted cartesian basis functions of A   symmetry.
 There are   276 symmetry adapted basis functions of A   symmetry.
   276 basis functions,   400 primitive gaussians,   306 cartesian basis functions
    24 alpha electrons       24 beta electrons
       nuclear repulsion energy       247.0039831576 Hartrees.
 IExCor= 4336 DFT=T Ex+Corr=M062X ExCW=0 ScaHFX=  0.540000
 ScaDFX=  1.000000  1.000000  1.000000  1.000000 ScalE2=  1.000000  1.000000
 IRadAn=      5 IRanWt=     -1 IRanGd=            0 ICorTp=0 IEmpDi=  4
 NAtoms=   14 NActive=   14 NUniq=   14 SFac= 1.00D+00 NAtFMM=   60 NAOKFM=F Big=F
 Integral buffers will be    131072 words long.
 Raffenetti 2 integral format.
 Two-electron integral symmetry is turned on.
 Leave Link  301 at Wed Feb  6 15:37:25 2019, MaxMem=   104857600 cpu:               0.1 elap:               0.1
 (Enter /shared/centos7/gaussian/g16/l302.exe)
 NPDir=0 NMtPBC=     1 NCelOv=     1 NCel=       1 NClECP=     1 NCelD=      1
         NCelK=      1 NCelE2=     1 NClLst=     1 CellRange=     0.0.
 One-electron integrals computed using PRISM.
 One-electron integral symmetry used in STVInt
 NBasis=   276 RedAO= T EigKep=  2.87D-05  NBF=   276
 NBsUse=   276 1.00D-06 EigRej= -1.00D+00 NBFU=   276
 Precomputing XC quadrature grid using
 IXCGrd= 4 IRadAn=           5 IRanWt=          -1 IRanGd=           0 AccXCQ= 0.00D+00.
 Generated NRdTot=       0 NPtTot=           0 NUsed=           0 NTot=          32
 NSgBfM=   306   306   306   306   306 MxSgAt=    14 MxSgA2=    14.
 Leave Link  302 at Wed Feb  6 15:37:26 2019, MaxMem=   104857600 cpu:               0.6 elap:               0.6
 (Enter /shared/centos7/gaussian/g16/l303.exe)
 DipDrv:  MaxL=1.
 Leave Link  303 at Wed Feb  6 15:37:26 2019, MaxMem=   104857600 cpu:               0.1 elap:               0.1
 (Enter /shared/centos7/gaussian/g16/l401.exe)
 Initial guess from the checkpoint file:  "/scratch/underkoffler.c/gaussian_scratch/Gau-34947.chk"
 B after Tr=    -0.000000    0.000000    0.000000
         Rot=    0.999997    0.000707    0.000335    0.002499 Ang=   0.30 deg.
 Guess basis will be translated and rotated to current coordinates.
 JPrj=2 DoOrth=T DoCkMO=T.
 Generating alternative initial guess.
 ExpMin= 4.38D-02 ExpMax= 8.59D+03 ExpMxC= 1.30D+03 IAcc=2 IRadAn=         4 AccDes= 0.00D+00
 Harris functional with IExCor= 1009 and IRadAn=       4 diagonalized for initial guess.
 HarFok:  IExCor= 1009 AccDes= 0.00D+00 IRadAn=         4 IDoV= 1 UseB2=F ITyADJ=14
 ICtDFT=  3500011 ScaDFX=  1.000000  1.000000  1.000000  1.000000
 FoFCou: FMM=F IPFlag=           0 FMFlag=      100000 FMFlg1=           0
         NFxFlg=           0 DoJE=T BraDBF=F KetDBF=T FulRan=T
         wScrn=  0.000000 ICntrl=       500 IOpCl=  0 I1Cent=   200000004 NGrid=           0
         NMat0=    1 NMatS0=      1 NMatT0=    0 NMatD0=    1 NMtDS0=    0 NMtDT0=    0
 Petite list used in FoFCou.
 Harris En= -307.573763407410    
 Leave Link  401 at Wed Feb  6 15:37:29 2019, MaxMem=   104857600 cpu:               3.6 elap:               3.6
 (Enter /shared/centos7/gaussian/g16/l502.exe)
 Integral symmetry usage will be decided dynamically.
 Closed shell SCF:
 Using DIIS extrapolation, IDIIS=  1040.
 NGot=   104857600 LenX=   104665686 LenY=   104571609
 Requested convergence on RMS density matrix=1.00D-08 within 128 cycles.
 Requested convergence on MAX density matrix=1.00D-06.
 Requested convergence on             energy=1.00D-06.
 No special actions if energy rises.
 Fock matrices will be formed incrementally for  20 cycles.

 Cycle   1  Pass 1  IDiag  1:
 FoFJK:  IHMeth= 1 ICntrl=       0 DoSepK=F KAlg= 0 I1Cent=           0 FoldK=F
 IRaf= 960000000 NMat=       1 IRICut=       1 DoRegI=T DoRafI=F ISym2E= 0 IDoP0=0 IntGTp=1.
 FoFCou: FMM=F IPFlag=           0 FMFlag=      100000 FMFlg1=           0
         NFxFlg=           0 DoJE=F BraDBF=F KetDBF=F FulRan=T
         wScrn=  0.000000 ICntrl=         0 IOpCl=  0 I1Cent=           0 NGrid=           0
         NMat0=    1 NMatS0=      1 NMatT0=    0 NMatD0=    1 NMtDS0=    0 NMtDT0=    0
 Symmetry not used in FoFCou.
 E= -307.667643043871    
 DIIS: error= 2.90D-03 at cycle   1 NSaved=   1.
 NSaved= 1 IEnMin= 1 EnMin= -307.667643043871     IErMin= 1 ErrMin= 2.90D-03
 ErrMax= 2.90D-03  0.00D+00 EMaxC= 1.00D-01 BMatC= 8.27D-03 BMatP= 8.27D-03
 IDIUse=3 WtCom= 9.71D-01 WtEn= 2.90D-02
 Coeff-Com:  0.100D+01
 Coeff-En:   0.100D+01
 Coeff:      0.100D+01
 Gap=     0.612 Goal=   None    Shift=    0.000
 GapD=    0.612 DampG=2.000 DampE=1.000 DampFc=2.0000 IDamp=-1.
 RMSDP=8.01D-04 MaxDP=3.04D-02              OVMax= 2.03D-02

 Cycle   2  Pass 1  IDiag  1:
 RMSU=  7.99D-04    CP:  9.93D-01
 E= -307.674905885653     Delta-E=       -0.007262841782 Rises=F Damp=F
 DIIS: error= 1.11D-03 at cycle   2 NSaved=   2.
 NSaved= 2 IEnMin= 2 EnMin= -307.674905885653     IErMin= 2 ErrMin= 1.11D-03
 ErrMax= 1.11D-03  0.00D+00 EMaxC= 1.00D-01 BMatC= 7.58D-04 BMatP= 8.27D-03
 IDIUse=3 WtCom= 9.89D-01 WtEn= 1.11D-02
 Coeff-Com:  0.111D+00 0.889D+00
 Coeff-En:   0.000D+00 0.100D+01
 Coeff:      0.109D+00 0.891D+00
 Gap=     0.361 Goal=   None    Shift=    0.000
 RMSDP=1.42D-04 MaxDP=8.00D-03 DE=-7.26D-03 OVMax= 9.72D-03

 Cycle   3  Pass 1  IDiag  1:
 RMSU=  1.21D-04    CP:  9.90D-01  1.08D+00
 E= -307.675267648404     Delta-E=       -0.000361762751 Rises=F Damp=F
 DIIS: error= 1.02D-03 at cycle   3 NSaved=   3.
 NSaved= 3 IEnMin= 3 EnMin= -307.675267648404     IErMin= 3 ErrMin= 1.02D-03
 ErrMax= 1.02D-03  0.00D+00 EMaxC= 1.00D-01 BMatC= 3.54D-04 BMatP= 7.58D-04
 IDIUse=3 WtCom= 9.90D-01 WtEn= 1.02D-02
 Coeff-Com: -0.252D-01 0.391D+00 0.634D+00
 Coeff-En:   0.000D+00 0.189D+00 0.811D+00
 Coeff:     -0.249D-01 0.389D+00 0.636D+00
 Gap=     0.369 Goal=   None    Shift=    0.000
 RMSDP=5.61D-05 MaxDP=3.12D-03 DE=-3.62D-04 OVMax= 5.04D-03

 Cycle   4  Pass 1  IDiag  1:
 RMSU=  4.16D-05    CP:  9.90D-01  1.11D+00  7.36D-01
 E= -307.675492254816     Delta-E=       -0.000224606412 Rises=F Damp=F
 DIIS: error= 4.01D-04 at cycle   4 NSaved=   4.
 NSaved= 4 IEnMin= 4 EnMin= -307.675492254816     IErMin= 4 ErrMin= 4.01D-04
 ErrMax= 4.01D-04  0.00D+00 EMaxC= 1.00D-01 BMatC= 5.29D-05 BMatP= 3.54D-04
 IDIUse=3 WtCom= 9.96D-01 WtEn= 4.01D-03
 Coeff-Com: -0.207D-01 0.114D+00 0.336D+00 0.571D+00
 Coeff-En:   0.000D+00 0.000D+00 0.163D-01 0.984D+00
 Coeff:     -0.206D-01 0.113D+00 0.334D+00 0.573D+00
 Gap=     0.368 Goal=   None    Shift=    0.000
 RMSDP=1.95D-05 MaxDP=8.93D-04 DE=-2.25D-04 OVMax= 1.75D-03

 Cycle   5  Pass 1  IDiag  1:
 RMSU=  1.40D-05    CP:  9.90D-01  1.11D+00  7.98D-01  7.38D-01
 E= -307.675528336281     Delta-E=       -0.000036081465 Rises=F Damp=F
 DIIS: error= 1.01D-04 at cycle   5 NSaved=   5.
 NSaved= 5 IEnMin= 5 EnMin= -307.675528336281     IErMin= 5 ErrMin= 1.01D-04
 ErrMax= 1.01D-04  0.00D+00 EMaxC= 1.00D-01 BMatC= 3.25D-06 BMatP= 5.29D-05
 IDIUse=3 WtCom= 9.99D-01 WtEn= 1.01D-03
 Coeff-Com: -0.372D-02-0.102D-01 0.493D-01 0.237D+00 0.728D+00
 Coeff-En:   0.000D+00 0.000D+00 0.000D+00 0.000D+00 0.100D+01
 Coeff:     -0.372D-02-0.102D-01 0.492D-01 0.236D+00 0.728D+00
 Gap=     0.367 Goal=   None    Shift=    0.000
 RMSDP=5.76D-06 MaxDP=2.59D-04 DE=-3.61D-05 OVMax= 4.98D-04

 Cycle   6  Pass 1  IDiag  1:
 RMSU=  3.67D-06    CP:  9.90D-01  1.11D+00  8.21D-01  8.11D-01  9.22D-01
 E= -307.675531034291     Delta-E=       -0.000002698010 Rises=F Damp=F
 DIIS: error= 2.22D-05 at cycle   6 NSaved=   6.
 NSaved= 6 IEnMin= 6 EnMin= -307.675531034291     IErMin= 6 ErrMin= 2.22D-05
 ErrMax= 2.22D-05  0.00D+00 EMaxC= 1.00D-01 BMatC= 2.04D-07 BMatP= 3.25D-06
 IDIUse=1 WtCom= 1.00D+00 WtEn= 0.00D+00
 Coeff-Com: -0.133D-03-0.123D-01-0.477D-02 0.544D-01 0.282D+00 0.681D+00
 Coeff:     -0.133D-03-0.123D-01-0.477D-02 0.544D-01 0.282D+00 0.681D+00
 Gap=     0.367 Goal=   None    Shift=    0.000
 RMSDP=1.52D-06 MaxDP=7.92D-05 DE=-2.70D-06 OVMax= 1.01D-04

 Cycle   7  Pass 1  IDiag  1:
 RMSU=  1.13D-06    CP:  9.90D-01  1.11D+00  8.25D-01  8.23D-01  9.68D-01
                    CP:  9.58D-01
 E= -307.675531177608     Delta-E=       -0.000000143317 Rises=F Damp=F
 DIIS: error= 8.54D-06 at cycle   7 NSaved=   7.
 NSaved= 7 IEnMin= 7 EnMin= -307.675531177608     IErMin= 7 ErrMin= 8.54D-06
 ErrMax= 8.54D-06  0.00D+00 EMaxC= 1.00D-01 BMatC= 2.74D-08 BMatP= 2.04D-07
 IDIUse=1 WtCom= 1.00D+00 WtEn= 0.00D+00
 Coeff-Com:  0.319D-03-0.467D-02-0.808D-02-0.197D-02 0.504D-01 0.307D+00
 Coeff-Com:  0.657D+00
 Coeff:      0.319D-03-0.467D-02-0.808D-02-0.197D-02 0.504D-01 0.307D+00
 Coeff:      0.657D+00
 Gap=     0.367 Goal=   None    Shift=    0.000
 RMSDP=5.21D-07 MaxDP=2.14D-05 DE=-1.43D-07 OVMax= 4.19D-05

 Cycle   8  Pass 1  IDiag  1:
 RMSU=  3.92D-07    CP:  9.90D-01  1.11D+00  8.25D-01  8.26D-01  9.84D-01
                    CP:  1.01D+00  9.36D-01
 E= -307.675531199966     Delta-E=       -0.000000022358 Rises=F Damp=F
 DIIS: error= 1.73D-06 at cycle   8 NSaved=   8.
 NSaved= 8 IEnMin= 8 EnMin= -307.675531199966     IErMin= 8 ErrMin= 1.73D-06
 ErrMax= 1.73D-06  0.00D+00 EMaxC= 1.00D-01 BMatC= 9.68D-10 BMatP= 2.74D-08
 IDIUse=1 WtCom= 1.00D+00 WtEn= 0.00D+00
 Coeff-Com:  0.855D-04-0.187D-04-0.136D-02-0.521D-02-0.110D-01 0.619D-02
 Coeff-Com:  0.147D+00 0.864D+00
 Coeff:      0.855D-04-0.187D-04-0.136D-02-0.521D-02-0.110D-01 0.619D-02
 Coeff:      0.147D+00 0.864D+00
 Gap=     0.367 Goal=   None    Shift=    0.000
 RMSDP=1.85D-07 MaxDP=4.44D-06 DE=-2.24D-08 OVMax= 1.78D-05

 Cycle   9  Pass 1  IDiag  1:
 RMSU=  1.14D-07    CP:  9.90D-01  1.11D+00  8.26D-01  8.26D-01  9.89D-01
                    CP:  1.03D+00  1.01D+00  1.01D+00
 E= -307.675531201151     Delta-E=       -0.000000001185 Rises=F Damp=F
 DIIS: error= 4.48D-07 at cycle   9 NSaved=   9.
 NSaved= 9 IEnMin= 9 EnMin= -307.675531201151     IErMin= 9 ErrMin= 4.48D-07
 ErrMax= 4.48D-07  0.00D+00 EMaxC= 1.00D-01 BMatC= 9.13D-11 BMatP= 9.68D-10
 IDIUse=1 WtCom= 1.00D+00 WtEn= 0.00D+00
 Coeff-Com: -0.526D-05 0.398D-03 0.342D-03-0.128D-02-0.720D-02-0.235D-01
 Coeff-Com: -0.107D-01 0.235D+00 0.807D+00
 Coeff:     -0.526D-05 0.398D-03 0.342D-03-0.128D-02-0.720D-02-0.235D-01
 Coeff:     -0.107D-01 0.235D+00 0.807D+00
 Gap=     0.367 Goal=   None    Shift=    0.000
 RMSDP=5.17D-08 MaxDP=1.76D-06 DE=-1.18D-09 OVMax= 5.91D-06

 Cycle  10  Pass 1  IDiag  1:
 RMSU=  3.52D-08    CP:  9.90D-01  1.11D+00  8.26D-01  8.25D-01  9.90D-01
                    CP:  1.04D+00  1.03D+00  1.07D+00  1.08D+00
 E= -307.675531201280     Delta-E=       -0.000000000128 Rises=F Damp=F
 DIIS: error= 1.55D-07 at cycle  10 NSaved=  10.
 NSaved=10 IEnMin=10 EnMin= -307.675531201280     IErMin=10 ErrMin= 1.55D-07
 ErrMax= 1.55D-07  0.00D+00 EMaxC= 1.00D-01 BMatC= 1.10D-11 BMatP= 9.13D-11
 IDIUse=1 WtCom= 1.00D+00 WtEn= 0.00D+00
 Coeff-Com: -0.890D-05 0.981D-04 0.233D-03 0.158D-03-0.653D-03-0.646D-02
 Coeff-Com: -0.175D-01-0.324D-01 0.209D+00 0.848D+00
 Coeff:     -0.890D-05 0.981D-04 0.233D-03 0.158D-03-0.653D-03-0.646D-02
 Coeff:     -0.175D-01-0.324D-01 0.209D+00 0.848D+00
 Gap=     0.367 Goal=   None    Shift=    0.000
 RMSDP=1.88D-08 MaxDP=6.20D-07 DE=-1.28D-10 OVMax= 2.78D-06

 Cycle  11  Pass 1  IDiag  1:
 RMSU=  1.20D-08    CP:  9.90D-01  1.11D+00  8.26D-01  8.25D-01  9.90D-01
                    CP:  1.04D+00  1.03D+00  1.08D+00  1.16D+00  1.10D+00
 E= -307.675531201301     Delta-E=       -0.000000000021 Rises=F Damp=F
 DIIS: error= 4.98D-08 at cycle  11 NSaved=  11.
 NSaved=11 IEnMin=11 EnMin= -307.675531201301     IErMin=11 ErrMin= 4.98D-08
 ErrMax= 4.98D-08  0.00D+00 EMaxC= 1.00D-01 BMatC= 8.99D-13 BMatP= 1.10D-11
 IDIUse=1 WtCom= 1.00D+00 WtEn= 0.00D+00
 Coeff-Com:  0.346D-07-0.408D-04-0.213D-04 0.125D-03 0.868D-03 0.230D-02
 Coeff-Com:  0.209D-03-0.311D-01-0.829D-01 0.502D-01 0.106D+01
 Coeff:      0.346D-07-0.408D-04-0.213D-04 0.125D-03 0.868D-03 0.230D-02
 Coeff:      0.209D-03-0.311D-01-0.829D-01 0.502D-01 0.106D+01
 Gap=     0.367 Goal=   None    Shift=    0.000
 RMSDP=7.76D-09 MaxDP=3.10D-07 DE=-2.14D-11 OVMax= 1.47D-06

 SCF Done:  E(RM062X) =  -307.675531201     A.U. after   11 cycles
            NFock= 11  Conv=0.78D-08     -V/T= 2.0034
 KE= 3.066322179298D+02 PE=-1.213807414318D+03 EE= 3.524956820291D+02
 Leave Link  502 at Wed Feb  6 15:43:05 2019, MaxMem=   104857600 cpu:             335.1 elap:             335.1
 (Enter /shared/centos7/gaussian/g16/l701.exe)
 ... and contract with generalized density number  0.
 Compute integral first derivatives.
 Leave Link  701 at Wed Feb  6 15:43:05 2019, MaxMem=   104857600 cpu:               0.3 elap:               0.3
 (Enter /shared/centos7/gaussian/g16/l702.exe)
 L702 exits ... SP integral derivatives will be done elsewhere.
 Leave Link  702 at Wed Feb  6 15:43:05 2019, MaxMem=   104857600 cpu:               0.0 elap:               0.1
 (Enter /shared/centos7/gaussian/g16/l703.exe)
 Integral derivatives from FoFJK, PRISM(SPDF).
 Compute integral first derivatives, UseDBF=F ICtDFT=           0.
 Calling FoFJK, ICntrl=      2127 FMM=F ISym2X=0 I1Cent= 0 IOpClX= 0 NMat=1 NMatS=1 NMatT=0.
 FoFJK:  IHMeth= 1 ICntrl=    2127 DoSepK=F KAlg= 0 I1Cent=           0 FoldK=F
 IRaf=         0 NMat=       1 IRICut=       1 DoRegI=T DoRafI=F ISym2E= 0 IDoP0=0 IntGTp=1.
 FoFCou: FMM=F IPFlag=           0 FMFlag=      100000 FMFlg1=         800
         NFxFlg=           0 DoJE=F BraDBF=F KetDBF=F FulRan=T
         wScrn=  0.000000 ICntrl=      2127 IOpCl=  0 I1Cent=           0 NGrid=           0
         NMat0=    1 NMatS0=      1 NMatT0=    0 NMatD0=    1 NMtDS0=    0 NMtDT0=    0
 Symmetry not used in FoFCou.
 Leave Link  703 at Wed Feb  6 15:44:24 2019, MaxMem=   104857600 cpu:              79.0 elap:              79.0
 (Enter /shared/centos7/gaussian/g16/l716.exe)
 Dipole        = 1.45945568D-01-6.44288966D-01-1.03850661D-02
 ***** Axes restored to original set *****
 -------------------------------------------------------------------
 Center     Atomic                   Forces (Hartrees/Bohr)
 Number     Number              X              Y              Z
 -------------------------------------------------------------------
      1        6          -0.004203952   -0.000895389   -0.003048269
      2        6          -0.004475445    0.001473958    0.003824002
      3        6           0.001158985   -0.000145915   -0.002414561
      4        6          -0.001403140    0.003461773    0.009735719
      5        8           0.002886373    0.000441210    0.004125956
      6        1           0.000912270   -0.001224352    0.002737102
      7        1           0.001568733    0.002445018    0.001342438
      8        1           0.000068489   -0.000453402   -0.000477477
      9        1           0.001677520   -0.001896012   -0.001359284
     10        1           0.000952414    0.000952762   -0.001789029
     11        1           0.000344363   -0.001060638    0.000694113
     12        1          -0.000390713    0.000817209    0.000093250
     13        1          -0.000273346    0.000194375    0.000863656
     14        8           0.001177451   -0.004110596   -0.014327616
 -------------------------------------------------------------------
 Cartesian Forces:  Max     0.014327616 RMS     0.003333896
 Leave Link  716 at Wed Feb  6 15:44:24 2019, MaxMem=   104857600 cpu:               0.1 elap:               0.1
 (Enter /shared/centos7/gaussian/g16/l103.exe)

 GradGradGradGradGradGradGradGradGradGradGradGradGradGradGradGradGradGrad
 Berny optimization.
 Using GEDIIS/GDIIS optimizer.
 FormGI is forming the generalized inverse of G from B-inverse, IUseBI=4.
 GSVD:  received Info=                   1 from GESDD.
 Internal  Forces:  Max     0.014948651 RMS     0.002349576
 Search for a local minimum.
 Step number   2 out of a maximum of  100
 All quantities printed in internal units (Hartrees-Bohrs-Radians)
 RMS Force = .23496D-02 SwitMx=.10000D-02 MixMth= 1
 Mixed Optimization -- RFO/linear search
 Update second derivatives using D2CorX and points    1    2
 DE= -1.49D-02 DEPred=-1.61D-02 R= 9.22D-01
 TightC=F SS=  1.41D+00  RLast= 3.38D-01 DXNew= 5.0454D-01 1.0145D+00
 Trust test= 9.22D-01 RLast= 3.38D-01 DXMaxT set to 5.05D-01
 ITU=  1  0
 Use linear search instead of GDIIS.
     Eigenvalues ---    0.00029   0.00083   0.00283   0.01874   0.03640
     Eigenvalues ---    0.04085   0.04167   0.04673   0.04912   0.07359
     Eigenvalues ---    0.08228   0.08509   0.10812   0.11761   0.12397
     Eigenvalues ---    0.15142   0.16283   0.17406   0.17823   0.18016
     Eigenvalues ---    0.21487   0.22415   0.25775   0.27815   0.30015
     Eigenvalues ---    0.30785   0.30868   0.31117   0.31188   0.31648
     Eigenvalues ---    0.32714   0.33626   0.34878   0.38656   0.39283
     Eigenvalues ---    0.73878
 RFO step:  Lambda=-1.85586226D-03 EMin= 2.90333587D-04
 Quartic linear search produced a step of -0.01753.
 Iteration  1 RMS(Cart)=  0.08170168 RMS(Int)=  0.02743507
 Iteration  2 RMS(Cart)=  0.04758524 RMS(Int)=  0.00197938
 Iteration  3 RMS(Cart)=  0.00207724 RMS(Int)=  0.00011242
 Iteration  4 RMS(Cart)=  0.00000313 RMS(Int)=  0.00011239
 Iteration  5 RMS(Cart)=  0.00000000 RMS(Int)=  0.00011239
 ITry= 1 IFail=0 DXMaxC= 4.50D-01 DCOld= 1.00D+10 DXMaxT= 5.05D-01 DXLimC= 3.00D+00 Rises=F
 Variable       Old X    -DE/DX   Delta X   Delta X   Delta X     New X
                                 (Linear)    (Quad)   (Total)
    R1        2.87172   0.00127  -0.00035  -0.00148  -0.00183   2.86989
[...]
 ! A21   A(5,4,14)             123.1068         -DE/DX =    0.0                 !
 ! A22   A(3,5,4)              115.3297         -DE/DX =    0.0                 !
 ! D1    D(4,1,2,8)            179.9735         -DE/DX =    0.0                 !
 ! D2    D(4,1,2,9)            -59.5475         -DE/DX =    0.0                 !
 ! D3    D(4,1,2,10)            59.4957         -DE/DX =    0.0                 !
 ! D4    D(6,1,2,8)            -59.2478         -DE/DX =    0.0                 !
 ! D5    D(6,1,2,9)             61.2312         -DE/DX =    0.0                 !
 ! D6    D(6,1,2,10)          -179.7256         -DE/DX =    0.0                 !
 ! D7    D(7,1,2,8)             59.1972         -DE/DX =    0.0                 !
 ! D8    D(7,1,2,9)            179.6762         -DE/DX =    0.0                 !
 ! D9    D(7,1,2,10)           -61.2806         -DE/DX =    0.0                 !
 ! D10   D(2,1,4,5)           -180.0088         -DE/DX =    0.0                 !
 ! D11   D(2,1,4,14)            -0.0101         -DE/DX =    0.0                 !
 ! D12   D(6,1,4,5)             56.6783         -DE/DX =    0.0                 !
 ! D13   D(6,1,4,14)          -123.3229         -DE/DX =    0.0                 !
 ! D14   D(7,1,4,5)            -56.6988         -DE/DX =    0.0                 !
 ! D15   D(7,1,4,14)           123.3            -DE/DX =    0.0                 !
 ! D16   D(11,3,5,4)           -60.1727         -DE/DX =    0.0                 !
 ! D17   D(12,3,5,4)           180.0133         -DE/DX =    0.0                 !
 ! D18   D(13,3,5,4)            60.1991         -DE/DX =    0.0                 !
 ! D19   D(1,4,5,3)           -180.0056         -DE/DX =    0.0                 !
 ! D20   D(14,4,5,3)            -0.0044         -DE/DX =    0.0                 !
 --------------------------------------------------------------------------------
 Lowest energy point so far.  Saving SCF results.
 Largest change from initial coordinates is atom   12       0.054 Angstoms.
 GradGradGradGradGradGradGradGradGradGradGradGradGradGradGradGradGradGrad

 Leave Link  103 at Wed Feb  6 16:23:15 2019, MaxMem=   104857600 cpu:               0.1 elap:               0.0
 (Enter /shared/centos7/gaussian/g16/l202.exe)
                          Input orientation:                          
 ---------------------------------------------------------------------
 Center     Atomic      Atomic             Coordinates (Angstroms)
 Number     Number       Type             X           Y           Z
 ---------------------------------------------------------------------
      1          6           0       -1.061046   -0.032999    0.591047
      2          6           0       -2.261102   -0.311285   -0.297584
      3          6           0        2.568295    0.007312    0.022025
      4          6           0        0.242137   -0.152062   -0.155780
      5          8           0        1.289564    0.097213    0.644957
      6          1           0       -1.099153    0.968737    1.022580
      7          1           0       -1.015298   -0.719754    1.438059
      8          1           0       -3.185522   -0.218226    0.269110
      9          1           0       -2.292577    0.386279   -1.132195
     10          1           0       -2.207564   -1.315178   -0.714114
     11          1           0        2.728093   -0.994384   -0.372129
     12          1           0        3.294350    0.233667    0.795548
     13          1           0        2.642962    0.722649   -0.794678
     14          8           0        0.356860   -0.432268   -1.316846
 ---------------------------------------------------------------------
                    Distance matrix (angstroms):
                    1          2          3          4          5
     1  C    0.000000
     2  C    1.518962   0.000000
     3  C    3.673898   4.850437   0.000000
     4  C    1.506722   2.512303   2.338381   0.000000
     5  O    2.354830   3.696280   1.425230   1.341797   0.000000
     6  H    1.091397   2.175182   3.921176   2.108027   2.570626
     7  H    1.091400   2.175163   3.921214   2.108018   2.570765
     8  H    2.156700   1.088281   5.763535   3.454527   4.501906
     9  H    2.159173   1.088192   5.010382   2.769111   4.009185
    10  H    2.159151   1.088193   5.009961   2.768684   4.008968
    11  H    4.026108   5.036294   1.088250   2.633684   2.072538
    12  H    4.368341   5.688142   1.084772   3.220220   2.015060
    13  H    4.026278   5.036464   1.088248   2.633870   2.072536
    14  O    2.410379   2.811984   2.622261   1.199896   2.235835
                    6          7          8          9         10
     6  H    0.000000
     7  H    1.740878   0.000000
     8  H    2.515856   2.515521   0.000000
     9  H    2.531121   3.075867   1.768172   0.000000
    10  H    3.075865   2.531378   1.768173   1.754131   0.000000
    11  H    4.521822   4.167155   5.998705   5.262230   4.957880
    12  H    4.460352   4.460369   6.516908   5.912127   5.911773
    13  H    4.167302   4.522002   5.999010   4.958489   5.261828
    14  O    3.091230   3.091111   3.887099   2.779142   2.778324
                   11         12         13         14
    11  H    0.000000
    12  H    1.786680   0.000000
    13  H    1.770310   1.786681   0.000000
    14  O    2.613659   3.678930   2.613954   0.000000
 Stoichiometry    C4H8O2
 Framework group  C1[X(C4H8O2)]
 Deg. of freedom    36
 Full point group                 C1      NOp   1
 RotChk:  IX=0 Diff= 1.86D-15
 Largest Abelian subgroup         C1      NOp   1
 Largest concise Abelian subgroup C1      NOp   1
                         Standard orientation:                         
 ---------------------------------------------------------------------
 Center     Atomic      Atomic             Coordinates (Angstroms)
 Number     Number       Type             X           Y           Z
 ---------------------------------------------------------------------
      1          6           0       -1.211140   -0.743694   -0.000075
      2          6           0       -2.460725    0.119894    0.000062
      3          6           0        2.388062   -0.006621    0.000005
      4          6           0        0.051244    0.078863   -0.000008
      5          8           0        1.143299   -0.700774    0.000062
      6          1           0       -1.171971   -1.401052    0.870266
      7          1           0       -1.172024   -1.400800   -0.870612
      8          1           0       -3.354192   -0.501452   -0.000462
      9          1           0       -2.484458    0.763181    0.877432
     10          1           0       -2.484022    0.764032   -0.876698
     11          1           0        2.471787    0.620984   -0.885088
     12          1           0        3.157112   -0.771666   -0.000169
     13          1           0        2.471980    0.620781    0.885221
     14          8           0        0.101844    1.277692   -0.000036
 ---------------------------------------------------------------------
 Rotational constants (GHZ):           9.6755630           2.1660936           1.8295446
 Leave Link  202 at Wed Feb  6 16:23:15 2019, MaxMem=   104857600 cpu:               0.0 elap:               0.0
 (Enter /shared/centos7/gaussian/g16/l601.exe)
 Copying SCF densities to generalized density rwf, IOpCl= 0 IROHF=0.

 **********************************************************************

            Population analysis using the SCF density.

 **********************************************************************

 Orbital symmetries:
       Occupied  (A) (A) (A) (A) (A) (A) (A) (A) (A) (A) (A) (A)
                 (A) (A) (A) (A) (A) (A) (A) (A) (A) (A) (A) (A)
       Virtual   (A) (A) (A) (A) (A) (A) (A) (A) (A) (A) (A) (A)
                 (A) (A) (A) (A) (A) (A) (A) (A) (A) (A) (A) (A)
                 (A) (A) (A) (A) (A) (A) (A) (A) (A) (A) (A) (A)
                 (A) (A) (A) (A) (A) (A) (A) (A) (A) (A) (A) (A)
                 (A) (A) (A) (A) (A) (A) (A) (A) (A) (A) (A) (A)
                 (A) (A) (A) (A) (A) (A) (A) (A) (A) (A) (A) (A)
                 (A) (A) (A) (A) (A) (A) (A) (A) (A) (A) (A) (A)
                 (A) (A) (A) (A) (A) (A) (A) (A) (A) (A) (A) (A)
                 (A) (A) (A) (A) (A) (A) (A) (A) (A) (A) (A) (A)
                 (A) (A) (A) (A) (A) (A) (A) (A) (A) (A) (A) (A)
                 (A) (A) (A) (A) (A) (A) (A) (A) (A) (A) (A) (A)
                 (A) (A) (A) (A) (A) (A) (A) (A) (A) (A) (A) (A)
                 (A) (A) (A) (A) (A) (A) (A) (A) (A) (A) (A) (A)
                 (A) (A) (A) (A) (A) (A) (A) (A) (A) (A) (A) (A)
                 (A) (A) (A) (A) (A) (A) (A) (A) (A) (A) (A) (A)
                 (A) (A) (A) (A) (A) (A) (A) (A) (A) (A) (A) (A)
                 (A) (A) (A) (A) (A) (A) (A) (A) (A) (A) (A) (A)
                 (A) (A) (A) (A) (A) (A) (A) (A) (A) (A) (A) (A)
                 (A) (A) (A) (A) (A) (A) (A) (A) (A) (A) (A) (A)
                 (A) (A) (A) (A) (A) (A) (A) (A) (A) (A) (A) (A)
                 (A) (A) (A) (A) (A) (A) (A) (A) (A) (A) (A) (A)
 The electronic state is 1-A.
 Alpha  occ. eigenvalues --  -19.66863 -19.61280 -10.66806 -10.58921 -10.55063
 Alpha  occ. eigenvalues --  -10.52800  -1.23855  -1.14354  -0.89349  -0.82386
 Alpha  occ. eigenvalues --   -0.73252  -0.64606  -0.58973  -0.58005  -0.56226
 Alpha  occ. eigenvalues --   -0.52483  -0.50589  -0.46018  -0.44639  -0.44048
 Alpha  occ. eigenvalues --   -0.42653  -0.41443  -0.37843  -0.35594
 Alpha virt. eigenvalues --    0.01131   0.02431   0.03677   0.03960   0.05005
 Alpha virt. eigenvalues --    0.05090   0.05753   0.06577   0.08384   0.08734
 Alpha virt. eigenvalues --    0.09016   0.09734   0.10542   0.12387   0.14286
 Alpha virt. eigenvalues --    0.15261   0.17997   0.19119   0.20012   0.20068
 Alpha virt. eigenvalues --    0.21602   0.22426   0.23004   0.23324   0.24349
 Alpha virt. eigenvalues --    0.26440   0.27717   0.28357   0.28444   0.29376
 Alpha virt. eigenvalues --    0.30486   0.32095   0.33755   0.34549   0.36719
 Alpha virt. eigenvalues --    0.38664   0.39656   0.41468   0.44371   0.47140
 Alpha virt. eigenvalues --    0.47820   0.49381   0.50521   0.51629   0.53836
 Alpha virt. eigenvalues --    0.54465   0.55501   0.56197   0.56570   0.57700
 Alpha virt. eigenvalues --    0.61099   0.61350   0.62388   0.63663   0.66426
 Alpha virt. eigenvalues --    0.67342   0.68335   0.70968   0.71670   0.75389
 Alpha virt. eigenvalues --    0.76859   0.78700   0.80793   0.84057   0.84607
 Alpha virt. eigenvalues --    0.87199   0.89469   0.90646   0.92160   0.92744
 Alpha virt. eigenvalues --    0.98539   1.01188   1.02647   1.05899   1.06009
 Alpha virt. eigenvalues --    1.09542   1.10682   1.12093   1.12929   1.13628
 Alpha virt. eigenvalues --    1.16472   1.17512   1.17627   1.18614   1.21358
 Alpha virt. eigenvalues --    1.22797   1.23642   1.24523   1.24529   1.24705
 Alpha virt. eigenvalues --    1.28861   1.30112   1.32922   1.34374   1.35143
 Alpha virt. eigenvalues --    1.39603   1.41986   1.43102   1.43795   1.45847
 Alpha virt. eigenvalues --    1.46726   1.47133   1.49427   1.53067   1.55160
 Alpha virt. eigenvalues --    1.58088   1.59775   1.60735   1.63247   1.65488
 Alpha virt. eigenvalues --    1.67533   1.70031   1.72869   1.77333   1.83305
 Alpha virt. eigenvalues --    1.85138   1.93470   2.06417   2.09907   2.12304
 Alpha virt. eigenvalues --    2.27991   2.35031   2.39289   2.40186   2.49281
 Alpha virt. eigenvalues --    2.52657   2.58106   2.59918   2.66153   2.67915
 Alpha virt. eigenvalues --    2.74598   2.75489   2.79974   2.81265   2.83995
 Alpha virt. eigenvalues --    2.84067   2.84572   2.94350   2.96122   2.98581
 Alpha virt. eigenvalues --    3.00950   3.02277   3.03394   3.07774   3.10533
 Alpha virt. eigenvalues --    3.11399   3.13086   3.13791   3.15342   3.18304
 Alpha virt. eigenvalues --    3.19895   3.24958   3.26040   3.26849   3.28920
 Alpha virt. eigenvalues --    3.31997   3.34991   3.40341   3.40653   3.43067
 Alpha virt. eigenvalues --    3.45079   3.49523   3.51629   3.51719   3.52308
 Alpha virt. eigenvalues --    3.52966   3.56316   3.57861   3.61177   3.61303
 Alpha virt. eigenvalues --    3.67458   3.67958   3.72393   3.77526   3.82850
 Alpha virt. eigenvalues --    3.83163   3.86961   3.87392   3.91244   3.94900
 Alpha virt. eigenvalues --    3.95487   3.97412   4.00605   4.01696   4.02027
 Alpha virt. eigenvalues --    4.06039   4.12702   4.13915   4.17715   4.18665
 Alpha virt. eigenvalues --    4.26509   4.26858   4.28827   4.30998   4.31017
 Alpha virt. eigenvalues --    4.32104   4.32632   4.34825   4.36442   4.43097
 Alpha virt. eigenvalues --    4.48244   4.49803   4.51357   4.54091   4.55667
 Alpha virt. eigenvalues --    4.60855   4.72685   4.91931   4.93145   5.08307
 Alpha virt. eigenvalues --    5.11823   5.14952   5.20613   5.20814   5.23682
 Alpha virt. eigenvalues --    5.27477   5.37357   5.40973   5.45124   5.50689
 Alpha virt. eigenvalues --    5.53211   5.56704   5.57334   5.58223   5.65218
 Alpha virt. eigenvalues --    5.67242   5.69380   5.74853   5.80629   6.00281
 Alpha virt. eigenvalues --    6.09625   6.38787   6.45963   6.69860   6.83660
 Alpha virt. eigenvalues --    6.96611   7.06539   7.11744   7.17801   7.19468
 Alpha virt. eigenvalues --    7.25781   7.31777   7.55376   7.67682   7.77759
 Alpha virt. eigenvalues --    7.83479  24.34339  24.43852  24.46702  24.86026
 Alpha virt. eigenvalues --   50.17731  50.31653
          Condensed to atoms (all electrons):
               1          2          3          4          5          6
     1  C    5.666628   0.094563  -0.061853  -0.133513  -0.217988   0.450853
     2  C    0.094563   5.176202  -0.013361   0.077202   0.008873  -0.038749
     3  C   -0.061853  -0.013361   4.967636  -0.107677   0.151222   0.001432
     4  C   -0.133513   0.077202  -0.107677   5.442984   0.216966  -0.048691
     5  O   -0.217988   0.008873   0.151222   0.216966   8.214769   0.002454
     6  H    0.450853  -0.038749   0.001432  -0.048691   0.002454   0.517196
     7  H    0.450857  -0.038741   0.001430  -0.048712   0.002457  -0.037191
     8  H   -0.078181   0.424392   0.000452   0.038414  -0.000608  -0.003513
     9  H   -0.024626   0.412766  -0.000210  -0.006996   0.000084  -0.006676
    10  H   -0.024648   0.412768  -0.000210  -0.006987   0.000084   0.005410
    11  H   -0.001455  -0.000948   0.431117   0.001854  -0.035573  -0.000094
    12  H    0.002346   0.000789   0.419176   0.017898  -0.059015   0.000009
    13  H   -0.001460  -0.000947   0.431129   0.001857  -0.035582   0.000137
    14  O    0.001388  -0.029714  -0.035576   0.348839  -0.084615   0.000624
               7          8          9         10         11         12
     1  C    0.450857  -0.078181  -0.024626  -0.024648  -0.001455   0.002346
     2  C   -0.038741   0.424392   0.412766   0.412768  -0.000948   0.000789
     3  C    0.001430   0.000452  -0.000210  -0.000210   0.431117   0.419176
     4  C   -0.048712   0.038414  -0.006996  -0.006987   0.001854   0.017898
     5  O    0.002457  -0.000608   0.000084   0.000084  -0.035573  -0.059015
     6  H   -0.037191  -0.003513  -0.006676   0.005410  -0.000094   0.000009
     7  H    0.517208  -0.003522   0.005409  -0.006667   0.000137   0.000009
     8  H   -0.003522   0.538137  -0.025287  -0.025295  -0.000001  -0.000000
     9  H    0.005409  -0.025287   0.528093  -0.031322   0.000012  -0.000002
    10  H   -0.006667  -0.025295  -0.031322   0.528104  -0.000006  -0.000002
    11  H    0.000137  -0.000001   0.000012  -0.000006   0.533200  -0.025077
    12  H    0.000009  -0.000000  -0.000002  -0.000002  -0.025077   0.533249
    13  H   -0.000094  -0.000001  -0.000006   0.000012  -0.037524  -0.025076
    14  O    0.000622   0.001223  -0.001578  -0.001578  -0.004397   0.003701
              13         14
     1  C   -0.001460   0.001388
     2  C   -0.000947  -0.029714
     3  C    0.431129  -0.035576
     4  C    0.001857   0.348839
     5  O   -0.035582  -0.084615
     6  H    0.000137   0.000624
     7  H   -0.000094   0.000622
     8  H   -0.000001   0.001223
     9  H   -0.000006  -0.001578
    10  H    0.000012  -0.001578
    11  H   -0.037524  -0.004397
    12  H   -0.025076   0.003701
    13  H    0.533187  -0.004395
    14  O   -0.004395   8.213360
 Mulliken charges:
               1
     1  C   -0.122911
     2  C   -0.485094
     3  C   -0.184706
     4  C    0.206563
     5  O   -0.163527
     6  H    0.156801
     7  H    0.156797
     8  H    0.133791
     9  H    0.150338
    10  H    0.150335
    11  H    0.138756
    12  H    0.131995
    13  H    0.138764
    14  O   -0.407903
 Sum of Mulliken charges =  -0.00000
 Mulliken charges with hydrogens summed into heavy atoms:
               1
     1  C    0.190687
     2  C   -0.050629
     3  C    0.224810
     4  C    0.206563
     5  O   -0.163527
    14  O   -0.407903
 Electronic spatial extent (au):  <R**2>=            688.1330
 Charge=             -0.0000 electrons
 Dipole moment (field-independent basis, Debye):
    X=              0.3631    Y=             -1.6689    Z=             -0.0001  Tot=              1.7080
 Quadrupole moment (field-independent basis, Debye-Ang):
   XX=            -30.8407   YY=            -41.3454   ZZ=            -35.8975
   XY=              1.4923   XZ=             -0.0000   YZ=              0.0002
 Traceless Quadrupole moment (field-independent basis, Debye-Ang):
   XX=              5.1872   YY=             -5.3175   ZZ=              0.1304
   XY=              1.4923   XZ=             -0.0000   YZ=              0.0002
 Octapole moment (field-independent basis, Debye-Ang**2):
  XXX=             19.2468  YYY=             -3.9874  ZZZ=              0.0010  XYY=              0.1616
  XXY=             -0.2951  XXZ=             -0.0007  XZZ=              1.9754  YZZ=              0.8851
  YYZ=             -0.0008  XYZ=             -0.0002
 Hexadecapole moment (field-independent basis, Debye-Ang**3):
 XXXX=           -660.1697 YYYY=           -165.1691 ZZZZ=            -54.7744 XXXY=             -2.8538
 XXXZ=              0.0028 YYYX=             -1.1321 YYYZ=             -0.0020 ZZZX=             -0.0014
 ZZZY=              0.0011 XXYY=           -139.3934 XXZZ=           -125.5856 YYZZ=            -33.0500
 XXYZ=              0.0035 YYXZ=              0.0010 ZZXY=              0.7656
 N-N= 2.465131854585D+02 E-N=-1.212778890945D+03  KE= 3.065735793916D+02
 No NMR shielding tensors so no spin-rotation constants.
 Leave Link  601 at Wed Feb  6 16:23:15 2019, MaxMem=   104857600 cpu:               0.3 elap:               0.3
 (Enter /shared/centos7/gaussian/g16/l9999.exe)
 1\1\GINC-C0188\FOpt\RM062X\6-311+G(2df,2p)\C4H8O2\UNDERKOFFLER.C\06-Fe
 b-2019\0\\#p m062x/6-311+g(2df,2p) opt=(calcfc,maxcycle=1000)\\Gaussia
 n input prepared by ASE\\0,1\C,-1.0610455888,-0.0329989306,0.591047493
 9\C,-2.2611022228,-0.3112851372,-0.297584244\C,2.5682953399,0.00731197
 41,0.0220245559\C,0.2421372566,-0.1520615797,-0.1557797889\O,1.2895638
 607,0.0972128831,0.644957191\H,-1.0991529396,0.9687366662,1.0225798041
 \H,-1.01529766,-0.7197538667,1.4380588892\H,-3.1855222867,-0.218225748
 4,0.2691098292\H,-2.2925774269,0.3862785622,-1.1321951379\H,-2.2075638
 317,-1.3151781363,-0.7141140277\H,2.7280932338,-0.9943840215,-0.372129
 3625\H,3.2943502676,0.2336665651,0.7955482498\H,2.6429620958,0.7226488
 302,-0.7946776028\O,0.356859902,-0.4322680604,-1.3168458492\\Version=E
 M64L-G16RevA.03\State=1-A\HF=-307.6763594\RMSD=7.418e-09\RMSF=1.097e-0
 5\Dipole=0.1072898,0.1635699,0.6428613\Quadrupole=3.9439957,-0.1470615
 ,-3.7969342,0.0167351,-0.7084078,-0.9941254\PG=C01 [X(C4H8O2)]\\@


 NECESSARY EVIL: ONE WE LIKE TOO MUCH TO RELINQUISH.
 Job cpu time:       0 days  1 hours 41 minutes  8.9 seconds.
 Elapsed time:       0 days  1 hours 41 minutes 10.8 seconds.
 File lengths (MBytes):  RWF=   1344 Int=      0 D2E=      0 Chk=     32 Scr=     32
 Normal termination of Gaussian 16 at Wed Feb  6 16:23:15 2019.
