 Entering Gaussian System, Link 0=g16
 Input=test.com
 Output=test.log
 Initial command:
 /shared/centos7/gaussian/g16/l1.exe "/home/underkoffler.c/Code/Rotors_Scratch/Gau-45513.inp" -scrdir="/home/underkoffler.c/Code/Rotors_Scratch/"
 Entering Link 1 = /shared/centos7/gaussian/g16/l1.exe PID=     45514.
  
 Copyright (c) 1988,1990,1992,1993,1995,1998,2003,2009,2016,
            Gaussian, Inc.  All Rights Reserved.
  
 This is part of the Gaussian(R) 16 program.  It is based on
 the Gaussian(R) 09 system (copyright 2009, Gaussian, Inc.),
 the Gaussian(R) 03 system (copyright 2003, Gaussian, Inc.),
 the Gaussian(R) 98 system (copyright 1998, Gaussian, Inc.),
 the Gaussian(R) 94 system (copyright 1995, Gaussian, Inc.),
 the Gaussian 92(TM) system (copyright 1992, Gaussian, Inc.),
 the Gaussian 90(TM) system (copyright 1990, Gaussian, Inc.),
 the Gaussian 88(TM) system (copyright 1988, Gaussian, Inc.),
 the Gaussian 86(TM) system (copyright 1986, Carnegie Mellon
 University), and the Gaussian 82(TM) system (copyright 1983,
 Carnegie Mellon University). Gaussian is a federally registered
 trademark of Gaussian, Inc.
  
 This software contains proprietary and confidential information,
 including trade secrets, belonging to Gaussian, Inc.
  
 This software is provided under written license and may be
 used, copied, transmitted, or stored only in accord with that
 written license.
  
 The following legend is applicable only to US Government
 contracts under FAR:
  
                    RESTRICTED RIGHTS LEGEND
  
 Use, reproduction and disclosure by the US Government is
 subject to restrictions as set forth in subparagraphs (a)
 and (c) of the Commercial Computer Software - Restricted
 Rights clause in FAR 52.227-19.
  
 Gaussian, Inc.
 340 Quinnipiac St., Bldg. 40, Wallingford CT 06492
  
  
 ---------------------------------------------------------------
 Warning -- This program may not be used in any manner that
 competes with the business of Gaussian, Inc. or will provide
 assistance to any competitor of Gaussian, Inc.  The licensee
 of this program is prohibited from giving any competitor of
 Gaussian, Inc. access to this program.  By using this program,
 the user acknowledges that Gaussian, Inc. is engaged in the
 business of creating and licensing software in the field of
 computational chemistry and represents and warrants to the
 licensee that it is not a competitor of Gaussian, Inc. and that
 it will not use this program in any manner prohibited above.
 ---------------------------------------------------------------
  

 Cite this work as:
 Gaussian 16, Revision A.03,
 M. J. Frisch, G. W. Trucks, H. B. Schlegel, G. E. Scuseria, 
 M. A. Robb, J. R. Cheeseman, G. Scalmani, V. Barone, 
 G. A. Petersson, H. Nakatsuji, X. Li, M. Caricato, A. V. Marenich, 
 J. Bloino, B. G. Janesko, R. Gomperts, B. Mennucci, H. P. Hratchian, 
 J. V. Ortiz, A. F. Izmaylov, J. L. Sonnenberg, D. Williams-Young, 
 F. Ding, F. Lipparini, F. Egidi, J. Goings, B. Peng, A. Petrone, 
 T. Henderson, D. Ranasinghe, V. G. Zakrzewski, J. Gao, N. Rega, 
 G. Zheng, W. Liang, M. Hada, M. Ehara, K. Toyota, R. Fukuda, 
 J. Hasegawa, M. Ishida, T. Nakajima, Y. Honda, O. Kitao, H. Nakai, 
 T. Vreven, K. Throssell, J. A. Montgomery, Jr., J. E. Peralta, 
 F. Ogliaro, M. J. Bearpark, J. J. Heyd, E. N. Brothers, K. N. Kudin, 
 V. N. Staroverov, T. A. Keith, R. Kobayashi, J. Normand, 
 K. Raghavachari, A. P. Rendell, J. C. Burant, S. S. Iyengar, 
 J. Tomasi, M. Cossi, J. M. Millam, M. Klene, C. Adamo, R. Cammi, 
 J. W. Ochterski, R. L. Martin, K. Morokuma, O. Farkas, 
 J. B. Foresman, and D. J. Fox, Gaussian, Inc., Wallingford CT, 2016.
 
 ******************************************
 Gaussian 16:  EM64L-G16RevA.03 25-Dec-2016
                24-Jan-2019 
 ******************************************
 ---------------------------------------------------
 #p m062x/6-311+g(2df,2p) opt=(calcfc,maxcycle=1000)
 ---------------------------------------------------
 1/6=1000,10=4,18=20,19=15,26=3,38=1/1,3;
 2/9=110,12=2,17=6,18=5,40=1/2;
 3/5=4,6=6,7=214,11=2,25=1,30=1,71=2,74=-55,140=1/1,2,3;
 4//1;
 5/5=2,38=5/2;
 8/6=4,10=90,11=11/1;
 11/6=1,8=1,9=11,15=111,16=1/1,2,10;
 10/6=1,13=1/2;
 6/7=2,8=2,9=2,10=2,28=1/1;
 7/10=1,18=20,25=1/1,2,3,16;
 1/6=1000,10=4,18=20,19=15,26=3/3(2);
 2/9=110/2;
 99//99;
 2/9=110/2;
 3/5=4,6=6,7=214,11=2,25=1,30=1,71=1,74=-55/1,2,3;
 4/5=5,16=3,69=1/1;
 5/5=2,38=5/2;
 7//1,2,3,16;
 1/6=1000,18=20,19=15,26=3/3(-5);
 2/9=110/2;
 6/7=2,8=2,9=2,10=2,19=2,28=1/1;
 99/9=1/99;
 Leave Link    1 at Thu Jan 24 15:28:43 2019, MaxMem=           0 cpu:               0.0 elap:               0.1
 (Enter /shared/centos7/gaussian/g16/l101.exe)
 ------------------------------
 Gaussian input prepared by ASE
 ------------------------------
 Symbolic Z-matrix:
 Charge =  0 Multiplicity = 1
 C                     0.5125    0.4374    0.5795 
 C                    -0.7154   -0.2787    1.0436 
 C                     1.0847   -0.0947   -0.6947 
 C                    -1.7882   -0.1546   -0.0252 
 O                     2.2252    0.6973   -0.9704 
 H                    -0.5447   -1.3705    1.178 
 H                    -1.0526    0.2076    1.9823 
 H                     0.211     1.5057    0.3906 
 H                     1.3035    0.4695    1.34 
 H                     0.3855   -0.1132   -1.537 
 H                     1.4597   -1.1403   -0.5112 
 H                    -2.7299   -0.6179    0.3801 
 H                    -1.9273    0.9357   -0.198 
 H                    -1.4696   -0.7047   -0.9256 
 H                     3.0457    0.2212   -0.6866 
 
 ITRead=  0  0  0  0  0  0  0  0  0  0  0  0  0  0  0
 MicOpt= -1 -1 -1 -1 -1 -1 -1 -1 -1 -1 -1 -1 -1 -1 -1
 NAtoms=     15 NQM=       15 NQMF=       0 NMMI=      0 NMMIF=      0
                NMic=       0 NMicF=      0.
                    Isotopes and Nuclear Properties:
 (Nuclear quadrupole moments (NQMom) in fm**2, nuclear magnetic moments (NMagM)
  in nuclear magnetons)

  Atom         1           2           3           4           5           6           7           8           9          10
 IAtWgt=          12          12          12          12          16           1           1           1           1           1
 AtmWgt=  12.0000000  12.0000000  12.0000000  12.0000000  15.9949146   1.0078250   1.0078250   1.0078250   1.0078250   1.0078250
 NucSpn=           0           0           0           0           0           1           1           1           1           1
 AtZEff=  -0.0000000  -0.0000000  -0.0000000  -0.0000000  -0.0000000  -0.0000000  -0.0000000  -0.0000000  -0.0000000  -0.0000000
 NQMom=    0.0000000   0.0000000   0.0000000   0.0000000   0.0000000   0.0000000   0.0000000   0.0000000   0.0000000   0.0000000
 NMagM=    0.0000000   0.0000000   0.0000000   0.0000000   0.0000000   2.7928460   2.7928460   2.7928460   2.7928460   2.7928460
 AtZNuc=   6.0000000   6.0000000   6.0000000   6.0000000   8.0000000   1.0000000   1.0000000   1.0000000   1.0000000   1.0000000

  Atom        11          12          13          14          15
 IAtWgt=           1           1           1           1           1
 AtmWgt=   1.0078250   1.0078250   1.0078250   1.0078250   1.0078250
 NucSpn=           1           1           1           1           1
 AtZEff=  -0.0000000  -0.0000000  -0.0000000  -0.0000000  -0.0000000
 NQMom=    0.0000000   0.0000000   0.0000000   0.0000000   0.0000000
 NMagM=    2.7928460   2.7928460   2.7928460   2.7928460   2.7928460
 AtZNuc=   1.0000000   1.0000000   1.0000000   1.0000000   1.0000000
 Leave Link  101 at Thu Jan 24 15:28:44 2019, MaxMem=   104857600 cpu:               0.2 elap:               0.2
 (Enter /shared/centos7/gaussian/g16/l103.exe)

 GradGradGradGradGradGradGradGradGradGradGradGradGradGradGradGradGradGrad
 Berny optimization.
 Initialization pass.
                           ----------------------------
                           !    Initial Parameters    !
                           ! (Angstroms and Degrees)  !
 --------------------------                            --------------------------
 ! Name  Definition              Value          Derivative Info.                !
 --------------------------------------------------------------------------------
 ! R1    R(1,2)                  1.4953         calculate D2E/DX2 analytically  !
 ! R2    R(1,3)                  1.4947         calculate D2E/DX2 analytically  !
 ! R3    R(1,8)                  1.126          calculate D2E/DX2 analytically  !
 ! R4    R(1,9)                  1.0978         calculate D2E/DX2 analytically  !
 ! R5    R(2,4)                  1.5194         calculate D2E/DX2 analytically  !
 ! R6    R(2,6)                  1.1132         calculate D2E/DX2 analytically  !
 ! R7    R(2,7)                  1.1097         calculate D2E/DX2 analytically  !
 ! R8    R(3,5)                  1.4156         calculate D2E/DX2 analytically  !
 ! R9    R(3,10)                 1.0948         calculate D2E/DX2 analytically  !
 ! R10   R(3,11)                 1.1259         calculate D2E/DX2 analytically  !
 ! R11   R(4,12)                 1.125          calculate D2E/DX2 analytically  !
 ! R12   R(4,13)                 1.1126         calculate D2E/DX2 analytically  !
 ! R13   R(4,14)                 1.1022         calculate D2E/DX2 analytically  !
 ! R14   R(5,15)                 0.9902         calculate D2E/DX2 analytically  !
 ! A1    A(2,1,3)              114.1083         calculate D2E/DX2 analytically  !
 ! A2    A(2,1,8)              106.6517         calculate D2E/DX2 analytically  !
 ! A3    A(2,1,9)              112.9974         calculate D2E/DX2 analytically  !
 ! A4    A(3,1,8)              107.2921         calculate D2E/DX2 analytically  !
 ! A5    A(3,1,9)              108.9742         calculate D2E/DX2 analytically  !
 ! A6    A(8,1,9)              106.345          calculate D2E/DX2 analytically  !
 ! A7    A(1,2,4)              108.8056         calculate D2E/DX2 analytically  !
 ! A8    A(1,2,6)              112.4107         calculate D2E/DX2 analytically  !
 ! A9    A(1,2,7)              107.5907         calculate D2E/DX2 analytically  !
 ! A10   A(4,2,6)              105.8607         calculate D2E/DX2 analytically  !
 ! A11   A(4,2,7)              110.1637         calculate D2E/DX2 analytically  !
 ! A12   A(6,2,7)              111.9798         calculate D2E/DX2 analytically  !
 ! A13   A(1,3,5)              105.9784         calculate D2E/DX2 analytically  !
 ! A14   A(1,3,10)             114.6689         calculate D2E/DX2 analytically  !
 ! A15   A(1,3,11)             108.6132         calculate D2E/DX2 analytically  !
 ! A16   A(5,3,10)             111.9707         calculate D2E/DX2 analytically  !
 ! A17   A(5,3,11)             106.4382         calculate D2E/DX2 analytically  !
 ! A18   A(10,3,11)            108.8087         calculate D2E/DX2 analytically  !
 ! A19   A(2,4,12)             107.6951         calculate D2E/DX2 analytically  !
 ! A20   A(2,4,13)             106.1142         calculate D2E/DX2 analytically  !
 ! A21   A(2,4,14)             109.2556         calculate D2E/DX2 analytically  !
 ! A22   A(12,4,13)            110.7839         calculate D2E/DX2 analytically  !
 ! A23   A(12,4,14)            109.3124         calculate D2E/DX2 analytically  !
 ! A24   A(13,4,14)            113.4744         calculate D2E/DX2 analytically  !
 ! A25   A(3,5,15)             110.0457         calculate D2E/DX2 analytically  !
 ! D1    D(3,1,2,4)            -60.0051         calculate D2E/DX2 analytically  !
 ! D2    D(3,1,2,6)             56.914          calculate D2E/DX2 analytically  !
 ! D3    D(3,1,2,7)           -179.3436         calculate D2E/DX2 analytically  !
 ! D4    D(8,1,2,4)             58.2725         calculate D2E/DX2 analytically  !
 ! D5    D(8,1,2,6)            175.1916         calculate D2E/DX2 analytically  !
 ! D6    D(8,1,2,7)            -61.066          calculate D2E/DX2 analytically  !
 ! D7    D(9,1,2,4)            174.7625         calculate D2E/DX2 analytically  !
 ! D8    D(9,1,2,6)            -68.3184         calculate D2E/DX2 analytically  !
 ! D9    D(9,1,2,7)             55.424          calculate D2E/DX2 analytically  !
 ! D10   D(2,1,3,5)           -179.9925         calculate D2E/DX2 analytically  !
 ! D11   D(2,1,3,10)            55.968          calculate D2E/DX2 analytically  !
 ! D12   D(2,1,3,11)           -65.9737         calculate D2E/DX2 analytically  !
 ! D13   D(8,1,3,5)             62.096          calculate D2E/DX2 analytically  !
 ! D14   D(8,1,3,10)           -61.9435         calculate D2E/DX2 analytically  !
 ! D15   D(8,1,3,11)           176.1147         calculate D2E/DX2 analytically  !
 ! D16   D(9,1,3,5)            -52.6574         calculate D2E/DX2 analytically  !
 ! D17   D(9,1,3,10)          -176.6969         calculate D2E/DX2 analytically  !
 ! D18   D(9,1,3,11)            61.3613         calculate D2E/DX2 analytically  !
 ! D19   D(1,2,4,12)          -174.9992         calculate D2E/DX2 analytically  !
 ! D20   D(1,2,4,13)           -56.3221         calculate D2E/DX2 analytically  !
 ! D21   D(1,2,4,14)            66.3699         calculate D2E/DX2 analytically  !
 ! D22   D(6,2,4,12)            63.9743         calculate D2E/DX2 analytically  !
 ! D23   D(6,2,4,13)          -177.3486         calculate D2E/DX2 analytically  !
 ! D24   D(6,2,4,14)           -54.6566         calculate D2E/DX2 analytically  !
 ! D25   D(7,2,4,12)           -57.2793         calculate D2E/DX2 analytically  !
 ! D26   D(7,2,4,13)            61.3979         calculate D2E/DX2 analytically  !
 ! D27   D(7,2,4,14)          -175.9102         calculate D2E/DX2 analytically  !
 ! D28   D(1,3,5,15)            99.5413         calculate D2E/DX2 analytically  !
 ! D29   D(10,3,5,15)         -134.7501         calculate D2E/DX2 analytically  !
 ! D30   D(11,3,5,15)          -15.9666         calculate D2E/DX2 analytically  !
 --------------------------------------------------------------------------------
 Trust Radius=3.00D-01 FncErr=1.00D-07 GrdErr=1.00D-06 EigMax=2.50D+02 EigMin=1.00D-04
 Number of steps in this run=    100 maximum allowed number of steps=    100.
 GradGradGradGradGradGradGradGradGradGradGradGradGradGradGradGradGradGrad

 Leave Link  103 at Thu Jan 24 15:28:44 2019, MaxMem=   104857600 cpu:               0.1 elap:               0.1
 (Enter /shared/centos7/gaussian/g16/l202.exe)
                          Input orientation:                          
 ---------------------------------------------------------------------
 Center     Atomic      Atomic             Coordinates (Angstroms)
 Number     Number       Type             X           Y           Z
 ---------------------------------------------------------------------
      1          6           0        0.512500    0.437400    0.579500
      2          6           0       -0.715400   -0.278700    1.043600
      3          6           0        1.084700   -0.094700   -0.694700
      4          6           0       -1.788200   -0.154600   -0.025200
      5          8           0        2.225200    0.697300   -0.970400
      6          1           0       -0.544700   -1.370500    1.178000
      7          1           0       -1.052600    0.207600    1.982300
      8          1           0        0.211000    1.505700    0.390600
      9          1           0        1.303500    0.469500    1.340000
     10          1           0        0.385500   -0.113200   -1.537000
     11          1           0        1.459700   -1.140300   -0.511200
     12          1           0       -2.729900   -0.617900    0.380100
     13          1           0       -1.927300    0.935700   -0.198000
     14          1           0       -1.469600   -0.704700   -0.925600
     15          1           0        3.045700    0.221200   -0.686600
 ---------------------------------------------------------------------
                    Distance matrix (angstroms):
                    1          2          3          4          5
     1  C    0.000000
     2  C    1.495301   0.000000
     3  C    1.494700   2.509164   0.000000
     4  C    2.451397   1.519419   2.950487   0.000000
     5  O    2.324452   3.695389   1.415632   4.210287   0.000000
     6  H    2.178159   1.113207   2.790988   2.114804   4.069861
     7  H    2.114283   1.109662   3.438861   2.168491   4.438718
     8  H    1.125989   2.113932   2.121911   2.631784   2.561803
     9  H    1.097758   2.173388   2.122781   3.436842   2.497873
    10  H    2.190630   2.810492   1.094848   2.648061   2.088646
    11  H    2.139147   2.809060   1.125867   3.428798   2.042946
    12  H    3.415637   2.147906   3.997513   1.125039   5.301567
    13  H    2.608723   2.117791   3.221891   1.112638   4.230448
    14  H    2.738328   2.151289   2.636259   1.102196   3.952108
    15  H    2.840221   4.170056   1.986298   4.893390   0.990169
                    6          7          8          9         10
     6  H    0.000000
     7  H    1.842623   0.000000
     8  H    3.076298   2.411484   0.000000
     9  H    2.612984   2.456084   1.780064   0.000000
    10  H    3.133257   3.815300   2.523277   3.075613   0.000000
    11  H    2.631351   3.787615   3.061668   2.458210   1.805853
    12  H    2.445026   2.462078   3.627489   4.286276   3.692656
    13  H    3.020516   2.459459   2.289908   3.608442   2.870916
    14  H    2.392460   3.076047   3.072892   3.768524   2.040852
    15  H    4.347553   4.890734   3.293300   2.684031   2.812769
                   11         12         13         14         15
    11  H    0.000000
    12  H    4.315097   0.000000
    13  H    3.984927   1.841749   0.000000
    14  H    2.990363   1.816795   1.851973   0.000000
    15  H    2.097580   5.932916   5.047769   4.615446   0.000000
 Stoichiometry    C4H10O
 Framework group  C1[X(C4H10O)]
 Deg. of freedom    39
 Full point group                 C1      NOp   1
 Largest Abelian subgroup         C1      NOp   1
 Largest concise Abelian subgroup C1      NOp   1
                         Standard orientation:                         
 ---------------------------------------------------------------------
 Center     Atomic      Atomic             Coordinates (Angstroms)
 Number     Number       Type             X           Y           Z
 ---------------------------------------------------------------------
      1          6           0        0.085811    0.689887   -0.226234
      2          6           0       -1.329977    0.638905    0.252172
      3          6           0        0.952757   -0.400852    0.314896
      4          6           0       -1.943254   -0.684667   -0.172896
      5          8           0        2.237296   -0.189865   -0.241395
      6          1           0       -1.403965    0.665830    1.362591
      7          1           0       -1.874395    1.482198   -0.220917
      8          1           0        0.052941    0.567347   -1.345052
      9          1           0        0.568413    1.657238   -0.035451
     10          1           0        0.584989   -1.414208    0.123720
     11          1           0        1.059402   -0.257075    1.426441
     12          1           0       -3.030930   -0.665381    0.113987
     13          1           0       -1.827354   -0.737910   -1.278199
     14          1           0       -1.439854   -1.506795    0.361454
     15          1           0        2.820364    0.268038    0.414951
 ---------------------------------------------------------------------
 Rotational constants (GHZ):          12.1840715           2.5391527           2.3251545
 Leave Link  202 at Thu Jan 24 15:28:45 2019, MaxMem=   104857600 cpu:               0.0 elap:               0.1
 (Enter /shared/centos7/gaussian/g16/l301.exe)
 Standard basis: 6-311+G(2df,2p) (5D, 7F)
 Ernie: Thresh=  0.10000D-02 Tol=  0.10000D-05 Strict=F.
 There are   285 symmetry adapted cartesian basis functions of A   symmetry.
 There are   260 symmetry adapted basis functions of A   symmetry.
   260 basis functions,   370 primitive gaussians,   285 cartesian basis functions
    21 alpha electrons       21 beta electrons
       nuclear repulsion energy       190.6691563245 Hartrees.
 IExCor= 4336 DFT=T Ex+Corr=M062X ExCW=0 ScaHFX=  0.540000
 ScaDFX=  1.000000  1.000000  1.000000  1.000000 ScalE2=  1.000000  1.000000
 IRadAn=      5 IRanWt=     -1 IRanGd=            0 ICorTp=0 IEmpDi=  4
 NAtoms=   15 NActive=   15 NUniq=   15 SFac= 1.00D+00 NAtFMM=   60 NAOKFM=F Big=F
 Integral buffers will be    131072 words long.
 Raffenetti 2 integral format.
 Two-electron integral symmetry is turned on.
 Leave Link  301 at Thu Jan 24 15:28:45 2019, MaxMem=   104857600 cpu:               0.1 elap:               0.1
 (Enter /shared/centos7/gaussian/g16/l302.exe)
 NPDir=0 NMtPBC=     1 NCelOv=     1 NCel=       1 NClECP=     1 NCelD=      1
         NCelK=      1 NCelE2=     1 NClLst=     1 CellRange=     0.0.
 One-electron integrals computed using PRISM.
 One-electron integral symmetry used in STVInt
 NBasis=   260 RedAO= T EigKep=  3.96D-05  NBF=   260
 NBsUse=   260 1.00D-06 EigRej= -1.00D+00 NBFU=   260
 Precomputing XC quadrature grid using
 IXCGrd= 4 IRadAn=           5 IRanWt=          -1 IRanGd=           0 AccXCQ= 0.00D+00.
 Generated NRdTot=       0 NPtTot=           0 NUsed=           0 NTot=          32
 NSgBfM=   285   285   285   285   285 MxSgAt=    15 MxSgA2=    15.
 Leave Link  302 at Thu Jan 24 15:28:45 2019, MaxMem=   104857600 cpu:               0.5 elap:               0.6
 (Enter /shared/centos7/gaussian/g16/l303.exe)
 DipDrv:  MaxL=1.
 Leave Link  303 at Thu Jan 24 15:28:45 2019, MaxMem=   104857600 cpu:               0.1 elap:               0.1
 (Enter /shared/centos7/gaussian/g16/l401.exe)
 ExpMin= 4.38D-02 ExpMax= 8.59D+03 ExpMxC= 1.30D+03 IAcc=3 IRadAn=         5 AccDes= 0.00D+00
 Harris functional with IExCor= 1009 and IRadAn=       5 diagonalized for initial guess.
 HarFok:  IExCor= 1009 AccDes= 0.00D+00 IRadAn=         5 IDoV= 1 UseB2=F ITyADJ=14
 ICtDFT=  3500011 ScaDFX=  1.000000  1.000000  1.000000  1.000000
 FoFCou: FMM=F IPFlag=           0 FMFlag=      100000 FMFlg1=           0
         NFxFlg=           0 DoJE=T BraDBF=F KetDBF=T FulRan=T
         wScrn=  0.000000 ICntrl=       500 IOpCl=  0 I1Cent=   200000004 NGrid=           0
         NMat0=    1 NMatS0=      1 NMatT0=    0 NMatD0=    1 NMtDS0=    0 NMtDT0=    0
 Petite list used in FoFCou.
 Harris En= -233.580189287987    
 JPrj=0 DoOrth=F DoCkMO=F.
 Leave Link  401 at Thu Jan 24 15:28:54 2019, MaxMem=   104857600 cpu:               8.4 elap:               8.6
 (Enter /shared/centos7/gaussian/g16/l502.exe)
 Integral symmetry usage will be decided dynamically.
 Closed shell SCF:
 Using DIIS extrapolation, IDIIS=  1040.
 NGot=   104857600 LenX=   104690743 LenY=   104609077
 Requested convergence on RMS density matrix=1.00D-08 within 128 cycles.
 Requested convergence on MAX density matrix=1.00D-06.
 Requested convergence on             energy=1.00D-06.
 No special actions if energy rises.
 Fock matrices will be formed incrementally for  20 cycles.

 Cycle   1  Pass 1  IDiag  1:
 FoFJK:  IHMeth= 1 ICntrl=       0 DoSepK=F KAlg= 0 I1Cent=           0 FoldK=F
 IRaf= 980000000 NMat=       1 IRICut=       1 DoRegI=T DoRafI=F ISym2E= 0 IDoP0=0 IntGTp=1.
 FoFCou: FMM=F IPFlag=           0 FMFlag=      100000 FMFlg1=           0
         NFxFlg=           0 DoJE=F BraDBF=F KetDBF=F FulRan=T
         wScrn=  0.000000 ICntrl=         0 IOpCl=  0 I1Cent=           0 NGrid=           0
         NMat0=    1 NMatS0=      1 NMatT0=    0 NMatD0=    1 NMtDS0=    0 NMtDT0=    0
 Symmetry not used in FoFCou.
 E= -233.392693683325    
 DIIS: error= 2.30D-02 at cycle   1 NSaved=   1.
 NSaved= 1 IEnMin= 1 EnMin= -233.392693683325     IErMin= 1 ErrMin= 2.30D-02
 ErrMax= 2.30D-02  0.00D+00 EMaxC= 1.00D-01 BMatC= 2.64D-01 BMatP= 2.64D-01
 IDIUse=3 WtCom= 7.70D-01 WtEn= 2.30D-01
 Coeff-Com:  0.100D+01
 Coeff-En:   0.100D+01
 Coeff:      0.100D+01
 Gap=     0.290 Goal=   None    Shift=    0.000
 GapD=    0.290 DampG=1.000 DampE=0.500 DampFc=0.5000 IDamp=-1.
 Damping current iteration by 5.00D-01
 RMSDP=3.89D-03 MaxDP=2.50D-01              OVMax= 1.62D-01

 Cycle   2  Pass 1  IDiag  1:
 RMSU=  1.95D-03    CP:  1.00D+00
 E= -233.502306588680     Delta-E=       -0.109612905355 Rises=F Damp=T
 DIIS: error= 6.07D-03 at cycle   2 NSaved=   2.
 NSaved= 2 IEnMin= 2 EnMin= -233.502306588680     IErMin= 2 ErrMin= 6.07D-03
 ErrMax= 6.07D-03  0.00D+00 EMaxC= 1.00D-01 BMatC= 1.42D-02 BMatP= 2.64D-01
 IDIUse=3 WtCom= 9.39D-01 WtEn= 6.07D-02
 Coeff-Com: -0.440D-01 0.104D+01
 Coeff-En:   0.000D+00 0.100D+01
 Coeff:     -0.414D-01 0.104D+01
 Gap=     0.366 Goal=   None    Shift=    0.000
 RMSDP=1.51D-03 MaxDP=1.20D-01 DE=-1.10D-01 OVMax= 8.90D-02

 Cycle   3  Pass 1  IDiag  1:
 RMSU=  1.21D-03    CP:  9.72D-01  5.59D-01
 E= -233.614868727592     Delta-E=       -0.112562138912 Rises=F Damp=F
 DIIS: error= 2.32D-03 at cycle   3 NSaved=   3.
 NSaved= 3 IEnMin= 3 EnMin= -233.614868727592     IErMin= 3 ErrMin= 2.32D-03
 ErrMax= 2.32D-03  0.00D+00 EMaxC= 1.00D-01 BMatC= 2.57D-03 BMatP= 1.42D-02
 IDIUse=3 WtCom= 9.77D-01 WtEn= 2.32D-02
 Coeff-Com: -0.609D-01 0.260D+00 0.801D+00
 Coeff-En:   0.000D+00 0.000D+00 0.100D+01
 Coeff:     -0.595D-01 0.254D+00 0.806D+00
 Gap=     0.349 Goal=   None    Shift=    0.000
 RMSDP=2.07D-04 MaxDP=8.90D-03 DE=-1.13D-01 OVMax= 1.08D-02

 Cycle   4  Pass 1  IDiag  1:
 RMSU=  1.74D-04    CP:  9.74D-01  6.16D-01  9.90D-01
 E= -233.616341854078     Delta-E=       -0.001473126486 Rises=F Damp=F
 DIIS: error= 1.07D-03 at cycle   4 NSaved=   4.
 NSaved= 4 IEnMin= 4 EnMin= -233.616341854078     IErMin= 4 ErrMin= 1.07D-03
 ErrMax= 1.07D-03  0.00D+00 EMaxC= 1.00D-01 BMatC= 5.35D-04 BMatP= 2.57D-03
 IDIUse=3 WtCom= 9.89D-01 WtEn= 1.07D-02
 Coeff-Com: -0.251D-01 0.687D-01 0.374D+00 0.582D+00
 Coeff-En:   0.000D+00 0.000D+00 0.416D-01 0.958D+00
 Coeff:     -0.248D-01 0.680D-01 0.371D+00 0.586D+00
 Gap=     0.352 Goal=   None    Shift=    0.000
 RMSDP=1.05D-04 MaxDP=6.09D-03 DE=-1.47D-03 OVMax= 4.45D-03

 Cycle   5  Pass 1  IDiag  1:
 RMSU=  5.51D-05    CP:  9.71D-01  5.84D-01  1.02D+00  7.05D-01
 E= -233.616718909787     Delta-E=       -0.000377055709 Rises=F Damp=F
 DIIS: error= 2.79D-04 at cycle   5 NSaved=   5.
 NSaved= 5 IEnMin= 5 EnMin= -233.616718909787     IErMin= 5 ErrMin= 2.79D-04
 ErrMax= 2.79D-04  0.00D+00 EMaxC= 1.00D-01 BMatC= 2.64D-05 BMatP= 5.35D-04
 IDIUse=3 WtCom= 9.97D-01 WtEn= 2.79D-03
 Coeff-Com: -0.420D-02 0.567D-02 0.709D-01 0.226D+00 0.701D+00
 Coeff-En:   0.000D+00 0.000D+00 0.000D+00 0.000D+00 0.100D+01
 Coeff:     -0.419D-02 0.566D-02 0.707D-01 0.226D+00 0.702D+00
 Gap=     0.351 Goal=   None    Shift=    0.000
 RMSDP=2.37D-05 MaxDP=8.88D-04 DE=-3.77D-04 OVMax= 1.00D-03

 Cycle   6  Pass 1  IDiag  1:
 RMSU=  1.90D-05    CP:  9.71D-01  5.82D-01  1.02D+00  7.74D-01  9.38D-01
 E= -233.616739757409     Delta-E=       -0.000020847621 Rises=F Damp=F
 DIIS: error= 3.48D-05 at cycle   6 NSaved=   6.
 NSaved= 6 IEnMin= 6 EnMin= -233.616739757409     IErMin= 6 ErrMin= 3.48D-05
 ErrMax= 3.48D-05  0.00D+00 EMaxC= 1.00D-01 BMatC= 5.72D-07 BMatP= 2.64D-05
 IDIUse=1 WtCom= 1.00D+00 WtEn= 0.00D+00
 Coeff-Com:  0.699D-03-0.268D-02-0.630D-02 0.136D-01 0.132D+00 0.863D+00
 Coeff:      0.699D-03-0.268D-02-0.630D-02 0.136D-01 0.132D+00 0.863D+00
 Gap=     0.351 Goal=   None    Shift=    0.000
 RMSDP=7.10D-06 MaxDP=2.93D-04 DE=-2.08D-05 OVMax= 1.91D-04

 Cycle   7  Pass 1  IDiag  1:
 RMSU=  3.79D-06    CP:  9.71D-01  5.80D-01  1.02D+00  7.88D-01  9.89D-01
                    CP:  1.11D+00
 E= -233.616740325681     Delta-E=       -0.000000568272 Rises=F Damp=F
 DIIS: error= 1.70D-05 at cycle   7 NSaved=   7.
 NSaved= 7 IEnMin= 7 EnMin= -233.616740325681     IErMin= 7 ErrMin= 1.70D-05
 ErrMax= 1.70D-05  0.00D+00 EMaxC= 1.00D-01 BMatC= 8.50D-08 BMatP= 5.72D-07
 IDIUse=1 WtCom= 1.00D+00 WtEn= 0.00D+00
 Coeff-Com:  0.620D-03-0.142D-02-0.862D-02-0.158D-01-0.205D-01 0.288D+00
 Coeff-Com:  0.757D+00
 Coeff:      0.620D-03-0.142D-02-0.862D-02-0.158D-01-0.205D-01 0.288D+00
 Coeff:      0.757D+00
 Gap=     0.351 Goal=   None    Shift=    0.000
 RMSDP=2.47D-06 MaxDP=1.22D-04 DE=-5.68D-07 OVMax= 8.18D-05

 Cycle   8  Pass 1  IDiag  1:
 RMSU=  1.11D-06    CP:  9.71D-01  5.79D-01  1.02D+00  7.91D-01  1.00D+00
                    CP:  1.16D+00  1.09D+00
 E= -233.616740408597     Delta-E=       -0.000000082916 Rises=F Damp=F
 DIIS: error= 4.25D-06 at cycle   8 NSaved=   8.
 NSaved= 8 IEnMin= 8 EnMin= -233.616740408597     IErMin= 8 ErrMin= 4.25D-06
 ErrMax= 4.25D-06  0.00D+00 EMaxC= 1.00D-01 BMatC= 5.68D-09 BMatP= 8.50D-08
 IDIUse=1 WtCom= 1.00D+00 WtEn= 0.00D+00
 Coeff-Com:  0.147D-03-0.298D-03-0.239D-02-0.581D-02-0.143D-01 0.440D-01
 Coeff-Com:  0.256D+00 0.722D+00
 Coeff:      0.147D-03-0.298D-03-0.239D-02-0.581D-02-0.143D-01 0.440D-01
 Coeff:      0.256D+00 0.722D+00
 Gap=     0.351 Goal=   None    Shift=    0.000
 RMSDP=4.49D-07 MaxDP=1.74D-05 DE=-8.29D-08 OVMax= 1.92D-05

 Cycle   9  Pass 1  IDiag  1:
 RMSU=  3.29D-07    CP:  9.71D-01  5.79D-01  1.02D+00  7.91D-01  1.00D+00
                    CP:  1.17D+00  1.11D+00  9.62D-01
 E= -233.616740414545     Delta-E=       -0.000000005949 Rises=F Damp=F
 DIIS: error= 6.28D-07 at cycle   9 NSaved=   9.
 NSaved= 9 IEnMin= 9 EnMin= -233.616740414545     IErMin= 9 ErrMin= 6.28D-07
 ErrMax= 6.28D-07  0.00D+00 EMaxC= 1.00D-01 BMatC= 1.63D-10 BMatP= 5.68D-09
 IDIUse=1 WtCom= 1.00D+00 WtEn= 0.00D+00
 Coeff-Com: -0.200D-04 0.450D-04 0.147D-03 0.183D-04-0.106D-02-0.949D-02
 Coeff-Com: -0.658D-02 0.115D+00 0.902D+00
 Coeff:     -0.200D-04 0.450D-04 0.147D-03 0.183D-04-0.106D-02-0.949D-02
 Coeff:     -0.658D-02 0.115D+00 0.902D+00
 Gap=     0.351 Goal=   None    Shift=    0.000
 RMSDP=1.30D-07 MaxDP=3.96D-06 DE=-5.95D-09 OVMax= 6.98D-06

 Cycle  10  Pass 1  IDiag  1:
 RMSU=  6.69D-08    CP:  9.71D-01  5.79D-01  1.02D+00  7.91D-01  1.00D+00
                    CP:  1.17D+00  1.13D+00  1.03D+00  1.07D+00
 E= -233.616740414774     Delta-E=       -0.000000000228 Rises=F Damp=F
 DIIS: error= 1.17D-07 at cycle  10 NSaved=  10.
 NSaved=10 IEnMin=10 EnMin= -233.616740414774     IErMin=10 ErrMin= 1.17D-07
 ErrMax= 1.17D-07  0.00D+00 EMaxC= 1.00D-01 BMatC= 1.00D-11 BMatP= 1.63D-10
 IDIUse=1 WtCom= 1.00D+00 WtEn= 0.00D+00
 Coeff-Com: -0.912D-05 0.202D-04 0.122D-03 0.209D-03 0.298D-03-0.347D-02
 Coeff-Com: -0.111D-01-0.771D-02 0.159D+00 0.862D+00
 Coeff:     -0.912D-05 0.202D-04 0.122D-03 0.209D-03 0.298D-03-0.347D-02
 Coeff:     -0.111D-01-0.771D-02 0.159D+00 0.862D+00
 Gap=     0.351 Goal=   None    Shift=    0.000
 RMSDP=3.18D-08 MaxDP=1.10D-06 DE=-2.28D-10 OVMax= 2.37D-06

 Cycle  11  Pass 1  IDiag  1:
 RMSU=  1.89D-08    CP:  9.71D-01  5.79D-01  1.02D+00  7.91D-01  1.00D+00
                    CP:  1.17D+00  1.13D+00  1.04D+00  1.12D+00  1.15D+00
 E= -233.616740414785     Delta-E=       -0.000000000012 Rises=F Damp=F
 DIIS: error= 5.68D-08 at cycle  11 NSaved=  11.
 NSaved=11 IEnMin=11 EnMin= -233.616740414785     IErMin=11 ErrMin= 5.68D-08
 ErrMax= 5.68D-08  0.00D+00 EMaxC= 1.00D-01 BMatC= 1.99D-12 BMatP= 1.00D-11
 IDIUse=1 WtCom= 1.00D+00 WtEn= 0.00D+00
 Coeff-Com:  0.257D-06-0.547D-07 0.140D-04 0.392D-04 0.148D-03 0.795D-04
 Coeff-Com: -0.196D-02-0.142D-01-0.554D-01 0.259D+00 0.812D+00
 Coeff:      0.257D-06-0.547D-07 0.140D-04 0.392D-04 0.148D-03 0.795D-04
 Coeff:     -0.196D-02-0.142D-01-0.554D-01 0.259D+00 0.812D+00
 Gap=     0.351 Goal=   None    Shift=    0.000
 RMSDP=1.07D-08 MaxDP=4.33D-07 DE=-1.17D-11 OVMax= 9.84D-07

 Cycle  12  Pass 1  IDiag  1:
 RMSU=  5.77D-09    CP:  9.71D-01  5.79D-01  1.02D+00  7.91D-01  1.00D+00
                    CP:  1.17D+00  1.13D+00  1.04D+00  1.13D+00  1.25D+00
                    CP:  1.18D+00
 E= -233.616740414786     Delta-E=       -0.000000000001 Rises=F Damp=F
 DIIS: error= 1.59D-08 at cycle  12 NSaved=  12.
 NSaved=12 IEnMin=12 EnMin= -233.616740414786     IErMin=12 ErrMin= 1.59D-08
 ErrMax= 1.59D-08  0.00D+00 EMaxC= 1.00D-01 BMatC= 1.44D-13 BMatP= 1.99D-12
 IDIUse=1 WtCom= 1.00D+00 WtEn= 0.00D+00
 Coeff-Com:  0.109D-05-0.223D-05-0.966D-05-0.150D-04-0.676D-05 0.362D-03
 Coeff-Com:  0.807D-03-0.227D-02-0.306D-01-0.297D-01 0.188D+00 0.874D+00
 Coeff:      0.109D-05-0.223D-05-0.966D-05-0.150D-04-0.676D-05 0.362D-03
 Coeff:      0.807D-03-0.227D-02-0.306D-01-0.297D-01 0.188D+00 0.874D+00
 Gap=     0.351 Goal=   None    Shift=    0.000
 RMSDP=3.88D-09 MaxDP=1.59D-07 DE=-5.12D-13 OVMax= 3.49D-07

 SCF Done:  E(RM062X) =  -233.616740415     A.U. after   12 cycles
            NFock= 12  Conv=0.39D-08     -V/T= 2.0044
 KE= 2.325832541401D+02 PE=-9.257005700434D+02 EE= 2.688314191641D+02
 Leave Link  502 at Thu Jan 24 15:35:08 2019, MaxMem=   104857600 cpu:             373.3 elap:             373.6
 (Enter /shared/centos7/gaussian/g16/l801.exe)
 DoSCS=F DFT=T ScalE2(SS,OS)=  1.000000  1.000000
 Range of M.O.s used for correlation:     1   260
 NBasis=   260 NAE=    21 NBE=    21 NFC=     0 NFV=     0
 NROrb=    260 NOA=    21 NOB=    21 NVA=   239 NVB=   239

 **** Warning!!: The largest alpha MO coefficient is  0.39767914D+02

 Leave Link  801 at Thu Jan 24 15:35:09 2019, MaxMem=   104857600 cpu:               0.1 elap:               0.1
 (Enter /shared/centos7/gaussian/g16/l1101.exe)
 Using compressed storage, NAtomX=    15.
 Will process     16 centers per pass.
 Leave Link 1101 at Thu Jan 24 15:35:09 2019, MaxMem=   104857600 cpu:               0.3 elap:               0.3
 (Enter /shared/centos7/gaussian/g16/l1102.exe)
 Symmetrizing basis deriv contribution to polar:
 IMax=3 JMax=2 DiffMx= 0.00D+00
 Leave Link 1102 at Thu Jan 24 15:35:10 2019, MaxMem=   104857600 cpu:               0.1 elap:               0.3
 (Enter /shared/centos7/gaussian/g16/l1110.exe)
 Forming Gx(P) for the SCF density, NAtomX=    15.
 Integral derivatives from FoFJK, PRISM(SPDF).
 Do as many integral derivatives as possible in FoFJK.
 G2DrvN: MDV=     104856384.
 G2DrvN: will do    16 centers at a time, making    1 passes.
 Calling FoFCou, ICntrl=  3107 FMM=F I1Cent=   0 AccDes= 0.00D+00.
 FoFJK:  IHMeth= 1 ICntrl=    3107 DoSepK=F KAlg= 0 I1Cent=           0 FoldK=F
 IRaf=         0 NMat=       1 IRICut=       1 DoRegI=T DoRafI=F ISym2E= 0 IDoP0=0 IntGTp=1.
 FoFCou: FMM=F IPFlag=           0 FMFlag=      100000 FMFlg1=           0
         NFxFlg=           0 DoJE=F BraDBF=F KetDBF=F FulRan=T
         wScrn=  0.000000 ICntrl=      3107 IOpCl=  0 I1Cent=           0 NGrid=           0
         NMat0=    1 NMatS0=      1 NMatT0=    0 NMatD0=    1 NMtDS0=    0 NMtDT0=    0
 Symmetry not used in FoFCou.
 End of G2Drv F.D. properties file   721 does not exist.
 End of G2Drv F.D. properties file   722 does not exist.
 End of G2Drv F.D. properties file   788 does not exist.
 Leave Link 1110 at Thu Jan 24 15:50:21 2019, MaxMem=   104857600 cpu:             910.5 elap:             910.5
 (Enter /shared/centos7/gaussian/g16/l1002.exe)
 Minotr:  Closed shell wavefunction.
          IDoAtm=111111111111111
          Direct CPHF calculation.
          Differentiating once with respect to nuclear coordinates.
          Requested convergence is 1.0D-08 RMS, and 1.0D-07 maximum.
          Secondary convergence is 1.0D-12 RMS, and 1.0D-12 maximum.
          NewPWx=T KeepS1=F KeepF1=F KeepIn=T MapXYZ=F SortEE=F KeepMc=T.
         4555 words used for storage of precomputed grid.
 Two-electron integrals replicated using symmetry.
          MDV=     104857600 using IRadAn=       1.
          Solving linear equations simultaneously, MaxMat=     384.
 FoF2E skips out because all densities are zero.
 CalDSu exits because no D1Ps are significant.
 FoFJK:  IHMeth= 1 ICntrl=       0 DoSepK=F KAlg= 0 I1Cent=           0 FoldK=F
 IRaf= 970000000 NMat=      45 IRICut=     112 DoRegI=T DoRafI=T ISym2E= 2 IDoP0=3 IntGTp=3.
 FoFCou: FMM=F IPFlag=           0 FMFlag=      100000 FMFlg1=           0
         NFxFlg=           0 DoJE=F BraDBF=F KetDBF=F FulRan=T
         wScrn=  0.000000 ICntrl=         0 IOpCl=  0 I1Cent=           0 NGrid=           0
         NMat0=   45 NMatS0=     45 NMatT0=    0 NMatD0=   45 NMtDS0=    0 NMtDT0=    0
 Integrals replicated using symmetry in FoFCou.
 Raff kept on since  95.82% of shell-pairs survive, threshold=   0.20 IRatSp=96.
          There are    48 degrees of freedom in the 1st order CPHF.  IDoFFX=6 NUNeed=     0.
     42 vectors produced by pass  0 Test12= 1.05D-14 2.08D-09 XBig12= 6.53D-02 4.90D-02.
 AX will form    42 AO Fock derivatives at one time.
     42 vectors produced by pass  1 Test12= 1.05D-14 2.08D-09 XBig12= 3.25D-03 7.68D-03.
     42 vectors produced by pass  2 Test12= 1.05D-14 2.08D-09 XBig12= 7.25D-05 1.11D-03.
     42 vectors produced by pass  3 Test12= 1.05D-14 2.08D-09 XBig12= 5.70D-07 9.26D-05.
     42 vectors produced by pass  4 Test12= 1.05D-14 2.08D-09 XBig12= 3.05D-09 5.28D-06.
     42 vectors produced by pass  5 Test12= 1.05D-14 2.08D-09 XBig12= 1.48D-11 4.03D-07.
     18 vectors produced by pass  6 Test12= 1.05D-14 2.08D-09 XBig12= 5.32D-14 1.95D-08.
 InvSVY:  IOpt=1 It=  1 EMax= 1.78D-15
 Solved reduced A of dimension   270 with    42 vectors.
 End of Minotr F.D. properties file   721 does not exist.
 End of Minotr F.D. properties file   722 does not exist.
 End of Minotr F.D. properties file   788 does not exist.
 Leave Link 1002 at Thu Jan 24 16:09:32 2019, MaxMem=   104857600 cpu:            1150.2 elap:            1150.6
 (Enter /shared/centos7/gaussian/g16/l601.exe)
 Copying SCF densities to generalized density rwf, IOpCl= 0 IROHF=0.

 **********************************************************************

            Population analysis using the SCF density.

 **********************************************************************

 Orbital symmetries:
       Occupied  (A) (A) (A) (A) (A) (A) (A) (A) (A) (A) (A) (A)
                 (A) (A) (A) (A) (A) (A) (A) (A) (A)
       Virtual   (A) (A) (A) (A) (A) (A) (A) (A) (A) (A) (A) (A)
                 (A) (A) (A) (A) (A) (A) (A) (A) (A) (A) (A) (A)
                 (A) (A) (A) (A) (A) (A) (A) (A) (A) (A) (A) (A)
                 (A) (A) (A) (A) (A) (A) (A) (A) (A) (A) (A) (A)
                 (A) (A) (A) (A) (A) (A) (A) (A) (A) (A) (A) (A)
                 (A) (A) (A) (A) (A) (A) (A) (A) (A) (A) (A) (A)
                 (A) (A) (A) (A) (A) (A) (A) (A) (A) (A) (A) (A)
                 (A) (A) (A) (A) (A) (A) (A) (A) (A) (A) (A) (A)
                 (A) (A) (A) (A) (A) (A) (A) (A) (A) (A) (A) (A)
                 (A) (A) (A) (A) (A) (A) (A) (A) (A) (A) (A) (A)
                 (A) (A) (A) (A) (A) (A) (A) (A) (A) (A) (A) (A)
                 (A) (A) (A) (A) (A) (A) (A) (A) (A) (A) (A) (A)
                 (A) (A) (A) (A) (A) (A) (A) (A) (A) (A) (A) (A)
                 (A) (A) (A) (A) (A) (A) (A) (A) (A) (A) (A) (A)
                 (A) (A) (A) (A) (A) (A) (A) (A) (A) (A) (A) (A)
                 (A) (A) (A) (A) (A) (A) (A) (A) (A) (A) (A) (A)
                 (A) (A) (A) (A) (A) (A) (A) (A) (A) (A) (A) (A)
                 (A) (A) (A) (A) (A) (A) (A) (A) (A) (A) (A) (A)
                 (A) (A) (A) (A) (A) (A) (A) (A) (A) (A) (A) (A)
                 (A) (A) (A) (A) (A) (A) (A) (A) (A) (A) (A)
 The electronic state is 1-A.
 Alpha  occ. eigenvalues --  -19.61744 -10.58043 -10.53048 -10.52832 -10.52413
 Alpha  occ. eigenvalues --   -1.13711  -0.90527  -0.80468  -0.72442  -0.64655
 Alpha  occ. eigenvalues --   -0.59044  -0.55026  -0.52977  -0.48336  -0.47095
 Alpha  occ. eigenvalues --   -0.44464  -0.41820  -0.39930  -0.39070  -0.37412
 Alpha  occ. eigenvalues --   -0.33989
 Alpha virt. eigenvalues --    0.01125   0.02208   0.02894   0.03754   0.05898
 Alpha virt. eigenvalues --    0.06570   0.06661   0.07490   0.07647   0.10410
 Alpha virt. eigenvalues --    0.10582   0.11477   0.12034   0.12514   0.14143
 Alpha virt. eigenvalues --    0.15705   0.18345   0.19526   0.20180   0.21430
 Alpha virt. eigenvalues --    0.22422   0.22900   0.23978   0.25279   0.25728
 Alpha virt. eigenvalues --    0.26757   0.28112   0.29750   0.30324   0.31101
 Alpha virt. eigenvalues --    0.31697   0.32360   0.35127   0.37221   0.41488
 Alpha virt. eigenvalues --    0.42879   0.44459   0.45269   0.47604   0.49273
 Alpha virt. eigenvalues --    0.50564   0.52446   0.53065   0.55284   0.57365
 Alpha virt. eigenvalues --    0.57716   0.58647   0.59650   0.61302   0.62261
 Alpha virt. eigenvalues --    0.62707   0.63813   0.65958   0.67310   0.67572
 Alpha virt. eigenvalues --    0.69498   0.69802   0.71392   0.76437   0.77390
 Alpha virt. eigenvalues --    0.78031   0.80046   0.83122   0.86259   0.87413
 Alpha virt. eigenvalues --    0.88930   0.94166   0.96519   0.97392   1.00419
 Alpha virt. eigenvalues --    1.03822   1.05447   1.06297   1.08266   1.12719
 Alpha virt. eigenvalues --    1.13541   1.15008   1.17109   1.18514   1.20359
 Alpha virt. eigenvalues --    1.21140   1.21952   1.22866   1.24328   1.24634
 Alpha virt. eigenvalues --    1.26236   1.28920   1.30664   1.31048   1.33082
 Alpha virt. eigenvalues --    1.34452   1.36953   1.38612   1.40614   1.42256
 Alpha virt. eigenvalues --    1.43443   1.44583   1.45047   1.45488   1.48677
 Alpha virt. eigenvalues --    1.49337   1.51836   1.52153   1.53919   1.56467
 Alpha virt. eigenvalues --    1.57498   1.60633   1.63009   1.64426   1.66399
 Alpha virt. eigenvalues --    1.67943   1.73757   1.75261   1.84757   1.95209
 Alpha virt. eigenvalues --    2.05097   2.11776   2.29070   2.31918   2.45219
 Alpha virt. eigenvalues --    2.47155   2.52302   2.59635   2.60819   2.62601
 Alpha virt. eigenvalues --    2.65794   2.70516   2.73357   2.76453   2.81735
 Alpha virt. eigenvalues --    2.84702   2.85464   2.87078   2.89416   2.92464
 Alpha virt. eigenvalues --    2.93424   2.96169   2.99715   3.01747   3.06207
 Alpha virt. eigenvalues --    3.07487   3.10842   3.16174   3.17198   3.20253
 Alpha virt. eigenvalues --    3.22718   3.25348   3.26510   3.28084   3.29204
 Alpha virt. eigenvalues --    3.30889   3.33178   3.35983   3.39861   3.41975
 Alpha virt. eigenvalues --    3.45597   3.46223   3.51344   3.52467   3.57078
 Alpha virt. eigenvalues --    3.60413   3.63205   3.65056   3.67187   3.69869
 Alpha virt. eigenvalues --    3.72863   3.73977   3.75331   3.77067   3.78838
 Alpha virt. eigenvalues --    3.81960   3.84946   3.86369   3.90262   3.93680
 Alpha virt. eigenvalues --    3.95990   3.97947   3.98824   4.01962   4.04305
 Alpha virt. eigenvalues --    4.05545   4.07284   4.08079   4.11093   4.14046
 Alpha virt. eigenvalues --    4.16267   4.17750   4.19318   4.20218   4.23903
 Alpha virt. eigenvalues --    4.26373   4.28025   4.30539   4.33311   4.37564
 Alpha virt. eigenvalues --    4.37931   4.42388   4.49357   4.51585   4.53515
 Alpha virt. eigenvalues --    4.54926   4.56706   4.60358   4.63314   4.65058
 Alpha virt. eigenvalues --    4.68995   4.71059   4.74792   4.78438   5.00214
 Alpha virt. eigenvalues --    5.19850   5.24596   5.26568   5.30557   5.37699
 Alpha virt. eigenvalues --    5.41335   5.42784   5.46903   5.48357   5.49892
 Alpha virt. eigenvalues --    5.52905   5.54368   5.56590   5.59075   5.67148
 Alpha virt. eigenvalues --    5.86096   5.94066   6.52132   6.97638   7.04764
 Alpha virt. eigenvalues --    7.19011   7.28609   7.51210   7.64208  24.23812
 Alpha virt. eigenvalues --   24.29959  24.43424  24.54031  50.13460
          Condensed to atoms (all electrons):
               1          2          3          4          5          6
     1  C    5.841989  -0.204961  -0.020681   0.037539  -0.179298   0.007260
     2  C   -0.204961   5.616365   0.104365   0.052972   0.049048   0.432349
     3  C   -0.020681   0.104365   5.165879  -0.010612   0.204954  -0.029799
     4  C    0.037539   0.052972  -0.010612   5.192245  -0.007290  -0.059473
     5  O   -0.179298   0.049048   0.204954  -0.007290   8.140036   0.000119
     6  H    0.007260   0.432349  -0.029799  -0.059473   0.000119   0.519648
     7  H   -0.054784   0.441601   0.010950  -0.030539  -0.001019  -0.020134
     8  H    0.482247  -0.007876  -0.080303  -0.036891  -0.000084   0.003939
     9  H    0.401172  -0.042071   0.003653   0.015823   0.001304  -0.003341
    10  H   -0.081835  -0.008075   0.489261  -0.001733  -0.039124   0.000789
    11  H   -0.048071   0.027190   0.421229  -0.011237  -0.027561  -0.001104
    12  H    0.026415  -0.068299   0.002395   0.425274   0.000044  -0.003581
    13  H   -0.001556  -0.032604  -0.008909   0.414865   0.000229   0.006378
    14  H   -0.029921  -0.015412   0.007483   0.414233   0.000738  -0.008815
    15  H    0.018021  -0.009048  -0.032837   0.003710   0.254179   0.000122
               7          8          9         10         11         12
     1  C   -0.054784   0.482247   0.401172  -0.081835  -0.048071   0.026415
     2  C    0.441601  -0.007876  -0.042071  -0.008075   0.027190  -0.068299
     3  C    0.010950  -0.080303   0.003653   0.489261   0.421229   0.002395
     4  C   -0.030539  -0.036891   0.015823  -0.001733  -0.011237   0.425274
     5  O   -0.001019  -0.000084   0.001304  -0.039124  -0.027561   0.000044
     6  H   -0.020134   0.003939  -0.003341   0.000789  -0.001104  -0.003581
     7  H    0.526763  -0.007471  -0.005763  -0.000679  -0.000121  -0.006982
     8  H   -0.007471   0.497018  -0.024683  -0.004975   0.006053   0.000035
     9  H   -0.005763  -0.024683   0.520784   0.004900  -0.011498  -0.000284
    10  H   -0.000679  -0.004975   0.004900   0.526162  -0.039533   0.000686
    11  H   -0.000121   0.006053  -0.011498  -0.039533   0.580592  -0.000118
    12  H   -0.006982   0.000035  -0.000284   0.000686  -0.000118   0.542177
    13  H   -0.006476   0.000272   0.000405   0.000802   0.000019  -0.021220
    14  H    0.006115   0.000395  -0.000285  -0.007558   0.000196  -0.027991
    15  H    0.000017   0.000131   0.002133   0.006645  -0.018238   0.000002
              13         14         15
     1  C   -0.001556  -0.029921   0.018021
     2  C   -0.032604  -0.015412  -0.009048
     3  C   -0.008909   0.007483  -0.032837
     4  C    0.414865   0.414233   0.003710
     5  O    0.000229   0.000738   0.254179
     6  H    0.006378  -0.008815   0.000122
     7  H   -0.006476   0.006115   0.000017
     8  H    0.000272   0.000395   0.000131
     9  H    0.000405  -0.000285   0.002133
    10  H    0.000802  -0.007558   0.006645
    11  H    0.000019   0.000196  -0.018238
    12  H   -0.021220  -0.027991   0.000002
    13  H    0.539947  -0.030619  -0.000009
    14  H   -0.030619   0.560513  -0.000029
    15  H   -0.000009  -0.000029   0.515381
 Mulliken charges:
               1
     1  C   -0.193537
     2  C   -0.335545
     3  C   -0.227030
     4  C   -0.398886
     5  O   -0.396275
     6  H    0.155642
     7  H    0.148522
     8  H    0.172190
     9  H    0.137750
    10  H    0.154265
    11  H    0.122202
    12  H    0.131446
    13  H    0.138474
    14  H    0.130958
    15  H    0.259822
 Sum of Mulliken charges =  -0.00000
 Mulliken charges with hydrogens summed into heavy atoms:
               1
     1  C    0.116403
     2  C   -0.031380
     3  C    0.049437
     4  C    0.001992
     5  O   -0.136452
 APT charges:
               1
     1  C   -0.538272
     2  C   -0.799647
     3  C   -0.473221
     4  C   -1.105818
     5  O   -0.932133
     6  H    0.343932
     7  H    0.447393
     8  H    0.330622
     9  H    0.389276
    10  H    0.312620
    11  H    0.334667
    12  H    0.548856
    13  H    0.268797
    14  H    0.215793
    15  H    0.657136
 Sum of APT charges =  -0.00000
 APT charges with hydrogens summed into heavy atoms:
               1
     1  C    0.181626
     2  C   -0.008322
     3  C    0.174066
     4  C   -0.072372
     5  O   -0.274997
 Electronic spatial extent (au):  <R**2>=            571.2224
 Charge=             -0.0000 electrons
 Dipole moment (field-independent basis, Debye):
    X=             -0.5004    Y=              0.6369    Z=              1.5179  Tot=              1.7205
 Quadrupole moment (field-independent basis, Debye-Ang):
   XX=            -34.3600   YY=            -33.9586   ZZ=            -33.5403
   XY=              2.0410   XZ=              4.3616   YZ=             -0.1856
 Traceless Quadrupole moment (field-independent basis, Debye-Ang):
   XX=             -0.4070   YY=             -0.0056   ZZ=              0.4126
   XY=              2.0410   XZ=              4.3616   YZ=             -0.1856
 Octapole moment (field-independent basis, Debye-Ang**2):
  XXX=             15.6286  YYY=             -0.0852  ZZZ=             -0.0980  XYY=              4.2695
  XXY=              8.9938  XXZ=             11.6315  XZZ=              3.2183  YZZ=              0.0403
  YYZ=              0.1098  XYZ=              1.6883
 Hexadecapole moment (field-independent basis, Debye-Ang**3):
 XXXX=           -504.4818 YYYY=           -135.1782 ZZZZ=            -79.1215 XXXY=             17.9476
 XXXZ=             26.9029 YYYX=             -2.5240 YYYZ=             -1.6603 ZZZX=              2.5158
 ZZZY=              0.9825 XXYY=           -118.1085 XXZZ=           -103.8089 YYZZ=            -38.2666
 XXYZ=             -0.2969 YYXZ=              0.8207 ZZXY=             -0.0796
 N-N= 1.906691563245D+02 E-N=-9.257005714019D+02  KE= 2.325832541401D+02
  Exact polarizability:   0.000   0.000   0.000   0.000   0.000   0.000
 Approx polarizability:  63.943   1.910  61.025   0.028  -0.082  64.148
 No NMR shielding tensors so no spin-rotation constants.
 Leave Link  601 at Thu Jan 24 16:09:32 2019, MaxMem=   104857600 cpu:               0.3 elap:               0.3
 (Enter /shared/centos7/gaussian/g16/l701.exe)
 ... and contract with generalized density number  0.
 Compute integral second derivatives.
 Leave Link  701 at Thu Jan 24 16:09:33 2019, MaxMem=   104857600 cpu:               0.4 elap:               0.4
 (Enter /shared/centos7/gaussian/g16/l702.exe)
 L702 exits ... SP integral derivatives will be done elsewhere.
 Leave Link  702 at Thu Jan 24 16:09:33 2019, MaxMem=   104857600 cpu:               0.1 elap:               0.1
 (Enter /shared/centos7/gaussian/g16/l703.exe)
 Integral derivatives from FoFJK, PRISM(SPDF).
 Compute integral second derivatives, UseDBF=F ICtDFT=           0.
 Calling FoFJK, ICntrl=    100147 FMM=F ISym2X=0 I1Cent= 0 IOpClX= 0 NMat=1 NMatS=1 NMatT=0.
 FoFJK:  IHMeth= 1 ICntrl=  100147 DoSepK=F KAlg= 0 I1Cent=           0 FoldK=F
 IRaf=         0 NMat=       1 IRICut=       1 DoRegI=T DoRafI=F ISym2E= 0 IDoP0=0 IntGTp=1.
 FoFCou: FMM=F IPFlag=           0 FMFlag=      100000 FMFlg1=         800
         NFxFlg=           0 DoJE=F BraDBF=F KetDBF=F FulRan=T
         wScrn=  0.000000 ICntrl=    100147 IOpCl=  0 I1Cent=           0 NGrid=           0
         NMat0=    1 NMatS0=      1 NMatT0=    0 NMatD0=    1 NMtDS0=    0 NMtDT0=    0
 Symmetry not used in FoFCou.
 Leave Link  703 at Thu Jan 24 16:28:51 2019, MaxMem=   104857600 cpu:            1158.0 elap:            1158.1
 (Enter /shared/centos7/gaussian/g16/l716.exe)
 Dipole        =-1.96889804D-01 2.50565943D-01 5.97197086D-01
 Polarizability= 0.00000000D+00 0.00000000D+00 0.00000000D+00
                 0.00000000D+00 0.00000000D+00 0.00000000D+00
 ***** Axes restored to original set *****
 -------------------------------------------------------------------
 Center     Atomic                   Forces (Hartrees/Bohr)
 Number     Number              X              Y              Z
 -------------------------------------------------------------------
      1        6          -0.006261048    0.025931595    0.004417647
      2        6          -0.008141518   -0.011295896    0.007516853
      3        6           0.029178780   -0.024244686    0.012084304
      4        6          -0.019361348   -0.002059177    0.013890824
      5        8           0.030794991   -0.007538964   -0.009254886
      6        1           0.002478113    0.013658270    0.008001471
      7        1           0.001197342   -0.012881129   -0.007414412
      8        1           0.008394011   -0.015257038    0.003702506
      9        1          -0.002959131   -0.001949981   -0.003330372
     10        1           0.007149864    0.005162671    0.002074591
     11        1          -0.014579316    0.011267905   -0.006083777
     12        1           0.013678344    0.011500011   -0.014051508
     13        1          -0.004684034   -0.016243978   -0.007171889
     14        1          -0.009131544    0.009087799    0.004938031
     15        1          -0.027753507    0.014862599   -0.009319383
 -------------------------------------------------------------------
 Cartesian Forces:  Max     0.030794991 RMS     0.013021615
 FormGI is forming the generalized inverse of G from B-inverse, IUseBI=4.
 Leave Link  716 at Thu Jan 24 16:28:51 2019, MaxMem=   104857600 cpu:               0.1 elap:               0.1
 (Enter /shared/centos7/gaussian/g16/l103.exe)

 GradGradGradGradGradGradGradGradGradGradGradGradGradGradGradGradGradGrad
 Berny optimization.
 Red2BG is reusing G-inverse.
 Internal  Forces:  Max     0.032815353 RMS     0.009866479
 Search for a local minimum.
 Step number   1 out of a maximum of  100
 All quantities printed in internal units (Hartrees-Bohrs-Radians)
 RMS Force = .98665D-02 SwitMx=.10000D-02 MixMth= 1
 Mixed Optimization -- RFO/linear search
 Second derivative matrix not updated -- analytic derivatives used.
 ITU=  0
     Eigenvalues ---   -0.00301   0.00046   0.00277   0.00479   0.03314
     Eigenvalues ---    0.04052   0.04206   0.04526   0.04591   0.04683
     Eigenvalues ---    0.05144   0.06221   0.07064   0.07207   0.09778
     Eigenvalues ---    0.10027   0.11160   0.13626   0.14097   0.15022
     Eigenvalues ---    0.16335   0.16641   0.21487   0.25815   0.26580
     Eigenvalues ---    0.27727   0.28184   0.28400   0.29840   0.30149
     Eigenvalues ---    0.30826   0.31909   0.32456   0.32729   0.33362
     Eigenvalues ---    0.33628   0.42409   0.44041   0.46301
 Eigenvalue     1 is  -3.01D-03 should be greater than     0.000000 Eigenvector:
                          D30       D28       D29       D11       D12
   1                   -0.58438  -0.57074  -0.56252   0.04382   0.04209
                          D14       D15       D17       D18       A16
   1                    0.03883   0.03711   0.03571   0.03399  -0.03297
 RFO step:  Lambda=-2.27806017D-02 EMin=-3.00633164D-03
 Linear search not attempted -- first point.
 Iteration  1 RMS(Cart)=  0.06852920 RMS(Int)=  0.04728322
 Iteration  2 RMS(Cart)=  0.03524275 RMS(Int)=  0.00648109
 Iteration  3 RMS(Cart)=  0.00548587 RMS(Int)=  0.00114772
 Iteration  4 RMS(Cart)=  0.00008584 RMS(Int)=  0.00114356
 Iteration  5 RMS(Cart)=  0.00000003 RMS(Int)=  0.00114356
 ITry= 1 IFail=0 DXMaxC= 2.76D-01 DCOld= 1.00D+10 DXMaxT= 3.00D-01 DXLimC= 3.00D+00 Rises=F
 Variable       Old X    -DE/DX   Delta X   Delta X   Delta X     New X
                                 (Linear)    (Quad)   (Total)
    R1        2.82571   0.02539   0.00000   0.05317   0.05317   2.87888
    R2        2.82457   0.01861   0.00000   0.04199   0.04199   2.86657
    R3        2.12781  -0.01734   0.00000  -0.06244  -0.06244   2.06537
    R4        2.07446  -0.00450   0.00000  -0.00774  -0.00774   2.06672
    R5        2.87129   0.01564   0.00000   0.01742   0.01742   2.88871
    R6        2.10366  -0.01205   0.00000  -0.03803  -0.03803   2.06562
    R7        2.09696  -0.01228   0.00000  -0.03661  -0.03661   2.06035
    R8        2.67516   0.01017   0.00000   0.00288   0.00288   2.67804
    R9        2.06896  -0.00625   0.00000  -0.01349  -0.01349   2.05547
   R10        2.12758  -0.01631   0.00000  -0.05564  -0.05564   2.07195
   R11        2.12602  -0.02125   0.00000  -0.06970  -0.06970   2.05631
   R12        2.10258  -0.01422   0.00000  -0.04113  -0.04113   2.06145
   R13        2.08285  -0.01121   0.00000  -0.02449  -0.02449   2.05836
   R14        1.87115  -0.03282   0.00000  -0.06661  -0.06661   1.80454
    A1        1.99156   0.01057   0.00000  -0.00662  -0.00717   1.98439
    A2        1.86142   0.00050   0.00000   0.04001   0.04008   1.90150
    A3        1.97218  -0.00484   0.00000  -0.03591  -0.03612   1.93605
    A4        1.87260  -0.00284   0.00000   0.01092   0.01064   1.88324
    A5        1.90196  -0.00475   0.00000  -0.00619  -0.00692   1.89504
    A6        1.85607   0.00099   0.00000   0.00221   0.00268   1.85875
    A7        1.89902   0.01974   0.00000   0.05285   0.05213   1.95115
    A8        1.96194  -0.00873   0.00000  -0.04097  -0.04295   1.91898
    A9        1.87781  -0.00150   0.00000   0.01850   0.01804   1.89586
   A10        1.84762   0.00077   0.00000   0.04983   0.05047   1.89808
   A11        1.92272  -0.00826   0.00000  -0.01789  -0.01845   1.90427
   A12        1.95442  -0.00142   0.00000  -0.05964  -0.05975   1.89467
   A13        1.84967   0.02253   0.00000   0.09571   0.09384   1.94351
   A14        2.00135  -0.00573   0.00000  -0.04280  -0.04147   1.95988
   A15        1.89566  -0.00243   0.00000   0.01188   0.00764   1.90329
   A16        1.95426  -0.01491   0.00000  -0.09475  -0.09308   1.86117
   A17        1.85770   0.00135   0.00000   0.05536   0.05150   1.90919
   A18        1.89907   0.00011   0.00000  -0.01437  -0.01380   1.88527
   A19        1.87963   0.00923   0.00000   0.04963   0.04785   1.92748
   A20        1.85204   0.01402   0.00000   0.06599   0.06454   1.91658
   A21        1.90687   0.00741   0.00000   0.03666   0.03566   1.94252
   A22        1.93354  -0.00955   0.00000  -0.03951  -0.04170   1.89185
   A23        1.90786  -0.00763   0.00000  -0.02477  -0.02606   1.88180
   A24        1.98050  -0.01144   0.00000  -0.07736  -0.07801   1.90250
   A25        1.92066  -0.00195   0.00000  -0.02691  -0.02691   1.89375
    D1       -1.04729  -0.00457   0.00000  -0.03748  -0.03662  -1.08390
    D2        0.99334   0.00376   0.00000   0.03330   0.03275   1.02609
    D3       -3.13014  -0.00482   0.00000  -0.05599  -0.05597   3.09708
    D4        1.01705  -0.00163   0.00000  -0.00102  -0.00007   1.01698
    D5        3.05767   0.00670   0.00000   0.06976   0.06930   3.12697
    D6       -1.06580  -0.00188   0.00000  -0.01952  -0.01942  -1.08522
    D7        3.05018  -0.00275   0.00000   0.00701   0.00745   3.05763
    D8       -1.19238   0.00558   0.00000   0.07779   0.07682  -1.11556
    D9        0.96733  -0.00300   0.00000  -0.01149  -0.01190   0.95543
   D10       -3.14146  -0.00321   0.00000   0.00058  -0.00036   3.14136
   D11        0.97683   0.00280   0.00000   0.07846   0.07872   1.05554
   D12       -1.15146   0.00840   0.00000   0.11739   0.11808  -1.03338
   D13        1.08378  -0.00816   0.00000  -0.05262  -0.05356   1.03021
   D14       -1.08112  -0.00214   0.00000   0.02526   0.02552  -1.05560
   D15        3.07378   0.00346   0.00000   0.06419   0.06488   3.13866
   D16       -0.91905  -0.00545   0.00000  -0.05781  -0.05875  -0.97780
   D17       -3.08394   0.00056   0.00000   0.02007   0.02033  -3.06361
   D18        1.07096   0.00617   0.00000   0.05900   0.05969   1.13065
   D19       -3.05431  -0.00132   0.00000  -0.00571  -0.00514  -3.05945
   D20       -0.98301  -0.00047   0.00000   0.00772   0.00895  -0.97405
   D21        1.15837  -0.00158   0.00000  -0.02481  -0.02417   1.13421
   D22        1.11656  -0.00200   0.00000  -0.01382  -0.01492   1.10164
   D23       -3.09532  -0.00116   0.00000  -0.00040  -0.00083  -3.09615
   D24       -0.95394  -0.00227   0.00000  -0.03293  -0.03395  -0.98789
   D25       -0.99971   0.00382   0.00000   0.03775   0.03755  -0.96217
   D26        1.07159   0.00467   0.00000   0.05118   0.05164   1.12323
   D27       -3.07021   0.00355   0.00000   0.01865   0.01852  -3.05169
   D28        1.73732   0.00324   0.00000  -0.38160  -0.37864   1.35868
   D29       -2.35183   0.00229   0.00000  -0.42896  -0.42913  -2.78097
   D30       -0.27867  -0.00506   0.00000  -0.46485  -0.46763  -0.74630
         Item               Value     Threshold  Converged?
 Maximum Force            0.032815     0.000450     NO 
 RMS     Force            0.009866     0.000300     NO 
 Maximum Displacement     0.276143     0.001800     NO 
 RMS     Displacement     0.081230     0.001200     NO 
 Predicted change in Energy=-1.438246D-02
 Lowest energy point so far.  Saving SCF results.
 GradGradGradGradGradGradGradGradGradGradGradGradGradGradGradGradGradGrad

 Leave Link  103 at Thu Jan 24 16:28:52 2019, MaxMem=   104857600 cpu:               0.1 elap:               0.6
 (Enter /shared/centos7/gaussian/g16/l202.exe)
                          Input orientation:                          
 ---------------------------------------------------------------------
 Center     Atomic      Atomic             Coordinates (Angstroms)
 Number     Number       Type             X           Y           Z
 ---------------------------------------------------------------------
      1          6           0        0.541685    0.457982    0.568967
      2          6           0       -0.713795   -0.270576    1.031390
      3          6           0        1.140464   -0.107559   -0.704878
      4          6           0       -1.840620   -0.167826    0.003553
      5          8           0        2.303190    0.605537   -1.089448
      6          1           0       -0.490194   -1.326641    1.203298
      7          1           0       -1.046502    0.171076    1.971060
      8          1           0        0.296528    1.507559    0.387820
      9          1           0        1.308537    0.448248    1.348671
     10          1           0        0.450618   -0.054263   -1.544153
     11          1           0        1.396650   -1.161247   -0.542827
     12          1           0       -2.750268   -0.622908    0.390231
     13          1           0       -2.046606    0.880751   -0.215680
     14          1           0       -1.579596   -0.679110   -0.922134
     15          1           0        3.030008    0.318777   -0.540472
 ---------------------------------------------------------------------
                    Distance matrix (angstroms):
                    1          2          3          4          5
     1  C    0.000000
     2  C    1.523438   0.000000
     3  C    1.516922   2.545481   0.000000
     4  C    2.527194   1.528640   3.064697   0.000000
     5  O    2.423842   3.790478   1.417157   4.354757   0.000000
     6  H    2.156857   1.093080   2.790401   2.146134   4.097925
     7  H    2.137877   1.090289   3.467146   2.148619   4.558059
     8  H    1.092944   2.143991   2.124811   2.742622   2.650029
     9  H    1.093661   2.169609   2.134065   3.479379   2.637897
    10  H    2.176228   2.834796   1.087709   2.767321   2.018444
    11  H    2.142184   2.779466   1.096426   3.430063   2.059645
    12  H    3.469470   2.163895   4.074634   1.088154   5.407029
    13  H    2.737454   2.158036   3.372459   1.090874   4.445215
    14  H    2.831289   2.175492   2.787938   1.089239   4.093207
    15  H    2.728000   4.102944   1.944009   4.925015   0.954919
                    6          7          8          9         10
     6  H    0.000000
     7  H    1.772595   0.000000
     8  H    3.052315   2.469123   0.000000
     9  H    2.531165   2.451612   1.752010   0.000000
    10  H    3.170577   3.827384   2.489086   3.058917   0.000000
    11  H    2.576138   3.750160   3.032968   2.485156   1.767214
    12  H    2.502849   2.456064   3.717776   4.305796   3.782971
    13  H    3.050982   2.507126   2.499475   3.727095   2.979131
    14  H    2.474581   3.062283   3.165018   3.843020   2.213394
    15  H    4.259103   4.790359   3.121993   2.559118   2.792810
                   11         12         13         14         15
    11  H    0.000000
    12  H    4.284546   0.000000
    13  H    4.016564   1.767274   0.000000
    14  H    3.038811   1.759526   1.774920   0.000000
    15  H    2.204164   5.929973   5.117941   4.731797   0.000000
 Stoichiometry    C4H10O
 Framework group  C1[X(C4H10O)]
 Deg. of freedom    39
 Full point group                 C1      NOp   1
 RotChk:  IX=0 Diff= 2.70D-02
 Largest Abelian subgroup         C1      NOp   1
 Largest concise Abelian subgroup C1      NOp   1
                         Standard orientation:                         
 ---------------------------------------------------------------------
 Center     Atomic      Atomic             Coordinates (Angstroms)
 Number     Number       Type             X           Y           Z
 ---------------------------------------------------------------------
      1          6           0        0.088490    0.707575   -0.262613
      2          6           0       -1.346169    0.632027    0.244248
      3          6           0        0.994229   -0.366918    0.308489
      4          6           0       -2.019335   -0.682171   -0.151316
      5          8           0        2.313785   -0.250821   -0.195123
      6          1           0       -1.362027    0.721006    1.333585
      7          1           0       -1.909596    1.463451   -0.180032
      8          1           0        0.086570    0.602049   -1.350450
      9          1           0        0.528291    1.685238   -0.046179
     10          1           0        0.653004   -1.369301    0.059685
     11          1           0        1.012304   -0.276234    1.401010
     12          1           0       -3.065319   -0.678632    0.148653
     13          1           0       -1.972018   -0.810725   -1.233555
     14          1           0       -1.537885   -1.533367    0.328385
     15          1           0        2.753105    0.460009    0.267035
 ---------------------------------------------------------------------
 Rotational constants (GHZ):          12.1912749           2.4103111           2.2041996
 Leave Link  202 at Thu Jan 24 16:28:53 2019, MaxMem=   104857600 cpu:               0.1 elap:               0.1
 (Enter /shared/centos7/gaussian/g16/l301.exe)
 Standard basis: 6-311+G(2df,2p) (5D, 7F)
 Ernie: Thresh=  0.10000D-02 Tol=  0.10000D-05 Strict=F.
 There are   285 symmetry adapted cartesian basis functions of A   symmetry.
 There are   260 symmetry adapted basis functions of A   symmetry.
   260 basis functions,   370 primitive gaussians,   285 cartesian basis functions
    21 alpha electrons       21 beta electrons
       nuclear repulsion energy       188.8032849204 Hartrees.
 IExCor= 4336 DFT=T Ex+Corr=M062X ExCW=0 ScaHFX=  0.540000
 ScaDFX=  1.000000  1.000000  1.000000  1.000000 ScalE2=  1.000000  1.000000
 IRadAn=      5 IRanWt=     -1 IRanGd=            0 ICorTp=0 IEmpDi=  4
 NAtoms=   15 NActive=   15 NUniq=   15 SFac= 1.00D+00 NAtFMM=   60 NAOKFM=F Big=F
 Integral buffers will be    131072 words long.
 Raffenetti 2 integral format.
 Two-electron integral symmetry is turned on.
 Leave Link  301 at Thu Jan 24 16:28:53 2019, MaxMem=   104857600 cpu:               0.1 elap:               0.4
 (Enter /shared/centos7/gaussian/g16/l302.exe)
 NPDir=0 NMtPBC=     1 NCelOv=     1 NCel=       1 NClECP=     1 NCelD=      1
         NCelK=      1 NCelE2=     1 NClLst=     1 CellRange=     0.0.
 One-electron integrals computed using PRISM.
 One-electron integral symmetry used in STVInt
 NBasis=   260 RedAO= T EigKep=  4.40D-05  NBF=   260
 NBsUse=   260 1.00D-06 EigRej= -1.00D+00 NBFU=   260
 Precomputing XC quadrature grid using
 IXCGrd= 4 IRadAn=           5 IRanWt=          -1 IRanGd=           0 AccXCQ= 0.00D+00.
 Generated NRdTot=       0 NPtTot=           0 NUsed=           0 NTot=          32
 NSgBfM=   285   285   285   285   285 MxSgAt=    15 MxSgA2=    15.
 Leave Link  302 at Thu Jan 24 16:28:54 2019, MaxMem=   104857600 cpu:               0.6 elap:               0.8
 (Enter /shared/centos7/gaussian/g16/l303.exe)
 DipDrv:  MaxL=1.
 Leave Link  303 at Thu Jan 24 16:28:54 2019, MaxMem=   104857600 cpu:               0.1 elap:               0.1
 (Enter /shared/centos7/gaussian/g16/l401.exe)
 Initial guess from the checkpoint file:  "/home/underkoffler.c/Code/Rotors_Scratch/Gau-45514.chk"
 B after Tr=    -0.000000   -0.000000   -0.000000
         Rot=    0.999954    0.009471   -0.000577    0.001047 Ang=   1.09 deg.
 Guess basis will be translated and rotated to current coordinates.
 JPrj=2 DoOrth=T DoCkMO=T.
 Generating alternative initial guess.
 ExpMin= 4.38D-02 ExpMax= 8.59D+03 ExpMxC= 1.30D+03 IAcc=2 IRadAn=         4 AccDes= 0.00D+00
 Harris functional with IExCor= 1009 and IRadAn=       4 diagonalized for initial guess.
 HarFok:  IExCor= 1009 AccDes= 0.00D+00 IRadAn=         4 IDoV= 1 UseB2=F ITyADJ=14
 ICtDFT=  3500011 ScaDFX=  1.000000  1.000000  1.000000  1.000000
 FoFCou: FMM=F IPFlag=           0 FMFlag=      100000 FMFlg1=           0
         NFxFlg=           0 DoJE=T BraDBF=F KetDBF=T FulRan=T
         wScrn=  0.000000 ICntrl=       500 IOpCl=  0 I1Cent=   200000004 NGrid=           0
         NMat0=    1 NMatS0=      1 NMatT0=    0 NMatD0=    1 NMtDS0=    0 NMtDT0=    0
 Petite list used in FoFCou.
 Harris En= -233.600112873812    
 Leave Link  401 at Thu Jan 24 16:28:58 2019, MaxMem=   104857600 cpu:               3.4 elap:               3.6
 (Enter /shared/centos7/gaussian/g16/l502.exe)
 Integral symmetry usage will be decided dynamically.
 Closed shell SCF:
 Using DIIS extrapolation, IDIIS=  1040.
 NGot=   104857600 LenX=   104690743 LenY=   104609077
 Requested convergence on RMS density matrix=1.00D-08 within 128 cycles.
 Requested convergence on MAX density matrix=1.00D-06.
 Requested convergence on             energy=1.00D-06.
 No special actions if energy rises.
 Fock matrices will be formed incrementally for  20 cycles.

 Cycle   1  Pass 1  IDiag  1:
 FoFJK:  IHMeth= 1 ICntrl=       0 DoSepK=F KAlg= 0 I1Cent=           0 FoldK=F
 IRaf= 980000000 NMat=       1 IRICut=       1 DoRegI=T DoRafI=F ISym2E= 0 IDoP0=0 IntGTp=1.
 FoFCou: FMM=F IPFlag=           0 FMFlag=      100000 FMFlg1=           0
         NFxFlg=           0 DoJE=F BraDBF=F KetDBF=F FulRan=T
         wScrn=  0.000000 ICntrl=         0 IOpCl=  0 I1Cent=           0 NGrid=           0
         NMat0=    1 NMatS0=      1 NMatT0=    0 NMatD0=    1 NMtDS0=    0 NMtDT0=    0
 Symmetry not used in FoFCou.
 E= -233.607767845709    
 DIIS: error= 6.68D-03 at cycle   1 NSaved=   1.
 NSaved= 1 IEnMin= 1 EnMin= -233.607767845709     IErMin= 1 ErrMin= 6.68D-03
 ErrMax= 6.68D-03  0.00D+00 EMaxC= 1.00D-01 BMatC= 2.00D-02 BMatP= 2.00D-02
 IDIUse=3 WtCom= 9.33D-01 WtEn= 6.68D-02
 Coeff-Com:  0.100D+01
 Coeff-En:   0.100D+01
 Coeff:      0.100D+01
 Gap=     0.641 Goal=   None    Shift=    0.000
 GapD=    0.641 DampG=2.000 DampE=1.000 DampFc=2.0000 IDamp=-1.
 RMSDP=2.03D-03 MaxDP=1.15D-01              OVMax= 5.36D-02

 Cycle   2  Pass 1  IDiag  1:
 RMSU=  1.97D-03    CP:  9.47D-01
 E= -233.629581582835     Delta-E=       -0.021813737126 Rises=F Damp=F
 DIIS: error= 1.12D-03 at cycle   2 NSaved=   2.
 NSaved= 2 IEnMin= 2 EnMin= -233.629581582835     IErMin= 2 ErrMin= 1.12D-03
 ErrMax= 1.12D-03  0.00D+00 EMaxC= 1.00D-01 BMatC= 7.42D-04 BMatP= 2.00D-02
 IDIUse=3 WtCom= 9.89D-01 WtEn= 1.12D-02
 Coeff-Com: -0.753D-01 0.108D+01
 Coeff-En:   0.000D+00 0.100D+01
 Coeff:     -0.745D-01 0.107D+01
 Gap=     0.358 Goal=   None    Shift=    0.000
 RMSDP=2.24D-04 MaxDP=6.17D-03 DE=-2.18D-02 OVMax= 1.45D-02

 Cycle   3  Pass 1  IDiag  1:
 RMSU=  1.62D-04    CP:  9.41D-01  1.07D+00
 E= -233.630495817242     Delta-E=       -0.000914234406 Rises=F Damp=F
 DIIS: error= 7.55D-04 at cycle   3 NSaved=   3.
 NSaved= 3 IEnMin= 3 EnMin= -233.630495817242     IErMin= 3 ErrMin= 7.55D-04
 ErrMax= 7.55D-04  0.00D+00 EMaxC= 1.00D-01 BMatC= 2.72D-04 BMatP= 7.42D-04
 IDIUse=3 WtCom= 9.92D-01 WtEn= 7.55D-03
 Coeff-Com: -0.567D-01 0.400D+00 0.656D+00
 Coeff-En:   0.000D+00 0.000D+00 0.100D+01
 Coeff:     -0.563D-01 0.397D+00 0.659D+00
 Gap=     0.355 Goal=   None    Shift=    0.000
 RMSDP=9.22D-05 MaxDP=6.56D-03 DE=-9.14D-04 OVMax= 5.04D-03

 Cycle   4  Pass 1  IDiag  1:
 RMSU=  7.64D-05    CP:  9.41D-01  1.10D+00  9.61D-01
 E= -233.630702094501     Delta-E=       -0.000206277259 Rises=F Damp=F
 DIIS: error= 3.13D-04 at cycle   4 NSaved=   4.
 NSaved= 4 IEnMin= 4 EnMin= -233.630702094501     IErMin= 4 ErrMin= 3.13D-04
 ErrMax= 3.13D-04  0.00D+00 EMaxC= 1.00D-01 BMatC= 4.02D-05 BMatP= 2.72D-04
 IDIUse=3 WtCom= 9.97D-01 WtEn= 3.13D-03
 Coeff-Com: -0.123D-01 0.175D-01 0.273D+00 0.722D+00
 Coeff-En:   0.000D+00 0.000D+00 0.000D+00 0.100D+01
 Coeff:     -0.123D-01 0.174D-01 0.272D+00 0.722D+00
 Gap=     0.356 Goal=   None    Shift=    0.000
 RMSDP=2.81D-05 MaxDP=1.11D-03 DE=-2.06D-04 OVMax= 2.15D-03

 Cycle   5  Pass 1  IDiag  1:
 RMSU=  2.05D-05    CP:  9.41D-01  1.10D+00  1.07D+00  9.41D-01
 E= -233.630735293709     Delta-E=       -0.000033199208 Rises=F Damp=F
 DIIS: error= 6.23D-05 at cycle   5 NSaved=   5.
 NSaved= 5 IEnMin= 5 EnMin= -233.630735293709     IErMin= 5 ErrMin= 6.23D-05
 ErrMax= 6.23D-05  0.00D+00 EMaxC= 1.00D-01 BMatC= 2.75D-06 BMatP= 4.02D-05
 IDIUse=1 WtCom= 1.00D+00 WtEn= 0.00D+00
 Coeff-Com:  0.207D-02-0.413D-01 0.143D-01 0.232D+00 0.793D+00
 Coeff:      0.207D-02-0.413D-01 0.143D-01 0.232D+00 0.793D+00
 Gap=     0.356 Goal=   None    Shift=    0.000
 RMSDP=1.26D-05 MaxDP=4.14D-04 DE=-3.32D-05 OVMax= 9.40D-04

 Cycle   6  Pass 1  IDiag  1:
 RMSU=  7.81D-06    CP:  9.41D-01  1.10D+00  1.12D+00  1.01D+00  1.22D+00
 E= -233.630738372450     Delta-E=       -0.000003078742 Rises=F Damp=F
 DIIS: error= 2.51D-05 at cycle   6 NSaved=   6.
 NSaved= 6 IEnMin= 6 EnMin= -233.630738372450     IErMin= 6 ErrMin= 2.51D-05
 ErrMax= 2.51D-05  0.00D+00 EMaxC= 1.00D-01 BMatC= 2.37D-07 BMatP= 2.75D-06
 IDIUse=1 WtCom= 1.00D+00 WtEn= 0.00D+00
 Coeff-Com:  0.170D-02-0.159D-01-0.187D-01 0.186D-01 0.256D+00 0.759D+00
 Coeff:      0.170D-02-0.159D-01-0.187D-01 0.186D-01 0.256D+00 0.759D+00
 Gap=     0.356 Goal=   None    Shift=    0.000
 RMSDP=4.55D-06 MaxDP=1.46D-04 DE=-3.08D-06 OVMax= 2.98D-04

 Cycle   7  Pass 1  IDiag  1:
 RMSU=  1.88D-06    CP:  9.41D-01  1.10D+00  1.13D+00  1.02D+00  1.37D+00
                    CP:  1.19D+00
 E= -233.630738680019     Delta-E=       -0.000000307568 Rises=F Damp=F
 DIIS: error= 6.59D-06 at cycle   7 NSaved=   7.
 NSaved= 7 IEnMin= 7 EnMin= -233.630738680019     IErMin= 7 ErrMin= 6.59D-06
 ErrMax= 6.59D-06  0.00D+00 EMaxC= 1.00D-01 BMatC= 1.76D-08 BMatP= 2.37D-07
 IDIUse=1 WtCom= 1.00D+00 WtEn= 0.00D+00
 Coeff-Com:  0.101D-03 0.128D-02-0.577D-02-0.222D-01-0.377D-01 0.163D+00
 Coeff-Com:  0.901D+00
 Coeff:      0.101D-03 0.128D-02-0.577D-02-0.222D-01-0.377D-01 0.163D+00
 Coeff:      0.901D+00
 Gap=     0.356 Goal=   None    Shift=    0.000
 RMSDP=1.88D-06 MaxDP=6.25D-05 DE=-3.08D-07 OVMax= 1.28D-04

 Cycle   8  Pass 1  IDiag  1:
 RMSU=  7.14D-07    CP:  9.41D-01  1.10D+00  1.13D+00  1.03D+00  1.43D+00
                    CP:  1.30D+00  1.09D+00
 E= -233.630738711116     Delta-E=       -0.000000031098 Rises=F Damp=F
 DIIS: error= 1.99D-06 at cycle   8 NSaved=   8.
 NSaved= 8 IEnMin= 8 EnMin= -233.630738711116     IErMin= 8 ErrMin= 1.99D-06
 ErrMax= 1.99D-06  0.00D+00 EMaxC= 1.00D-01 BMatC= 1.12D-09 BMatP= 1.76D-08
 IDIUse=1 WtCom= 1.00D+00 WtEn= 0.00D+00
 Coeff-Com: -0.107D-03 0.154D-02 0.316D-03-0.620D-02-0.286D-01-0.249D-01
 Coeff-Com:  0.206D+00 0.852D+00
 Coeff:     -0.107D-03 0.154D-02 0.316D-03-0.620D-02-0.286D-01-0.249D-01
 Coeff:      0.206D+00 0.852D+00
 Gap=     0.356 Goal=   None    Shift=    0.000
 RMSDP=5.34D-07 MaxDP=2.24D-05 DE=-3.11D-08 OVMax= 2.88D-05

 Cycle   9  Pass 1  IDiag  1:
 RMSU=  1.47D-07    CP:  9.41D-01  1.10D+00  1.13D+00  1.03D+00  1.44D+00
                    CP:  1.33D+00  1.18D+00  1.11D+00
 E= -233.630738712917     Delta-E=       -0.000000001801 Rises=F Damp=F
 DIIS: error= 3.94D-07 at cycle   9 NSaved=   9.
 NSaved= 9 IEnMin= 9 EnMin= -233.630738712917     IErMin= 9 ErrMin= 3.94D-07
 ErrMax= 3.94D-07  0.00D+00 EMaxC= 1.00D-01 BMatC= 5.45D-11 BMatP= 1.12D-09
 IDIUse=1 WtCom= 1.00D+00 WtEn= 0.00D+00
 Coeff-Com: -0.279D-04 0.275D-03 0.313D-03-0.451D-03-0.459D-02-0.129D-01
 Coeff-Com:  0.385D-02 0.178D+00 0.836D+00
 Coeff:     -0.279D-04 0.275D-03 0.313D-03-0.451D-03-0.459D-02-0.129D-01
 Coeff:      0.385D-02 0.178D+00 0.836D+00
 Gap=     0.356 Goal=   None    Shift=    0.000
 RMSDP=8.63D-08 MaxDP=4.60D-06 DE=-1.80D-09 OVMax= 4.85D-06

 Cycle  10  Pass 1  IDiag  1:
 RMSU=  3.70D-08    CP:  9.41D-01  1.10D+00  1.13D+00  1.03D+00  1.44D+00
                    CP:  1.33D+00  1.19D+00  1.18D+00  1.13D+00
 E= -233.630738712987     Delta-E=       -0.000000000070 Rises=F Damp=F
 DIIS: error= 1.81D-07 at cycle  10 NSaved=  10.
 NSaved=10 IEnMin=10 EnMin= -233.630738712987     IErMin=10 ErrMin= 1.81D-07
 ErrMax= 1.81D-07  0.00D+00 EMaxC= 1.00D-01 BMatC= 1.15D-11 BMatP= 5.45D-11
 IDIUse=1 WtCom= 1.00D+00 WtEn= 0.00D+00
 Coeff-Com:  0.248D-06-0.533D-04 0.885D-04 0.470D-03 0.117D-02-0.240D-02
 Coeff-Com: -0.199D-01-0.197D-01 0.331D+00 0.709D+00
 Coeff:      0.248D-06-0.533D-04 0.885D-04 0.470D-03 0.117D-02-0.240D-02
 Coeff:     -0.199D-01-0.197D-01 0.331D+00 0.709D+00
 Gap=     0.356 Goal=   None    Shift=    0.000
 RMSDP=2.31D-08 MaxDP=9.68D-07 DE=-7.03D-11 OVMax= 1.22D-06

 Cycle  11  Pass 1  IDiag  1:
 RMSU=  1.19D-08    CP:  9.41D-01  1.10D+00  1.13D+00  1.03D+00  1.44D+00
                    CP:  1.33D+00  1.19D+00  1.19D+00  1.20D+00  1.04D+00
 E= -233.630738712994     Delta-E=       -0.000000000007 Rises=F Damp=F
 DIIS: error= 1.94D-08 at cycle  11 NSaved=  11.
 NSaved=11 IEnMin=11 EnMin= -233.630738712994     IErMin=11 ErrMin= 1.94D-08
 ErrMax= 1.94D-08  0.00D+00 EMaxC= 1.00D-01 BMatC= 1.65D-13 BMatP= 1.15D-11
 IDIUse=1 WtCom= 1.00D+00 WtEn= 0.00D+00
 Coeff-Com:  0.125D-05-0.195D-04-0.394D-06 0.941D-04 0.347D-03 0.302D-03
 Coeff-Com: -0.266D-02-0.109D-01 0.479D-03 0.918D-01 0.920D+00
 Coeff:      0.125D-05-0.195D-04-0.394D-06 0.941D-04 0.347D-03 0.302D-03
 Coeff:     -0.266D-02-0.109D-01 0.479D-03 0.918D-01 0.920D+00
 Gap=     0.356 Goal=   None    Shift=    0.000
 RMSDP=6.58D-09 MaxDP=4.49D-07 DE=-6.88D-12 OVMax= 2.06D-07

 SCF Done:  E(RM062X) =  -233.630738713     A.U. after   11 cycles
            NFock= 11  Conv=0.66D-08     -V/T= 2.0038
 KE= 2.327360057643D+02 PE=-9.220234875309D+02 EE= 2.668534581332D+02
 Leave Link  502 at Thu Jan 24 16:34:36 2019, MaxMem=   104857600 cpu:             338.0 elap:             338.2
 (Enter /shared/centos7/gaussian/g16/l701.exe)
 ... and contract with generalized density number  0.
 Compute integral first derivatives.
 Leave Link  701 at Thu Jan 24 16:34:37 2019, MaxMem=   104857600 cpu:               0.3 elap:               0.3
 (Enter /shared/centos7/gaussian/g16/l702.exe)
 L702 exits ... SP integral derivatives will be done elsewhere.
 Leave Link  702 at Thu Jan 24 16:34:37 2019, MaxMem=   104857600 cpu:               0.1 elap:               0.1
 (Enter /shared/centos7/gaussian/g16/l703.exe)
 Integral derivatives from FoFJK, PRISM(SPDF).
 Compute integral first derivatives, UseDBF=F ICtDFT=           0.
 Calling FoFJK, ICntrl=      2127 FMM=F ISym2X=0 I1Cent= 0 IOpClX= 0 NMat=1 NMatS=1 NMatT=0.
 FoFJK:  IHMeth= 1 ICntrl=    2127 DoSepK=F KAlg= 0 I1Cent=           0 FoldK=F
 IRaf=         0 NMat=       1 IRICut=       1 DoRegI=T DoRafI=F ISym2E= 0 IDoP0=0 IntGTp=1.
 FoFCou: FMM=F IPFlag=           0 FMFlag=      100000 FMFlg1=         800
         NFxFlg=           0 DoJE=F BraDBF=F KetDBF=F FulRan=T
         wScrn=  0.000000 ICntrl=      2127 IOpCl=  0 I1Cent=           0 NGrid=           0
         NMat0=    1 NMatS0=      1 NMatT0=    0 NMatD0=    1 NMtDS0=    0 NMtDT0=    0
 Symmetry not used in FoFCou.
 Leave Link  703 at Thu Jan 24 16:35:51 2019, MaxMem=   104857600 cpu:              73.6 elap:              73.6
 (Enter /shared/centos7/gaussian/g16/l716.exe)
 Dipole        =-3.48220380D-01 4.16839162D-01 4.54707516D-01
 ***** Axes restored to original set *****
 -------------------------------------------------------------------
 Center     Atomic                   Forces (Hartrees/Bohr)
 Number     Number              X              Y              Z
 -------------------------------------------------------------------
      1        6          -0.001755935    0.004443833   -0.000615232
[...]
 ! D18   D(9,1,3,11)            67.9804         -DE/DX =    0.0                 !
 ! D19   D(1,2,4,12)          -173.8791         -DE/DX =    0.0                 !
 ! D20   D(1,2,4,13)           -53.9873         -DE/DX =    0.0                 !
 ! D21   D(1,2,4,14)            66.0813         -DE/DX =    0.0                 !
 ! D22   D(6,2,4,12)            63.7153         -DE/DX =    0.0                 !
 ! D23   D(6,2,4,13)          -176.3929         -DE/DX =    0.0                 !
 ! D24   D(6,2,4,14)           -56.3243         -DE/DX =    0.0                 !
 ! D25   D(7,2,4,12)           -52.3512         -DE/DX =    0.0                 !
 ! D26   D(7,2,4,13)            67.5406         -DE/DX =    0.0                 !
 ! D27   D(7,2,4,14)          -172.3907         -DE/DX =    0.0                 !
 ! D28   D(1,3,5,15)            57.6883         -DE/DX =    0.0                 !
 ! D29   D(10,3,5,15)          178.4487         -DE/DX =    0.0                 !
 ! D30   D(11,3,5,15)          -65.7181         -DE/DX =    0.0                 !
 --------------------------------------------------------------------------------
 Lowest energy point so far.  Saving SCF results.
 Largest change from initial coordinates is atom   15       0.478 Angstoms.
 GradGradGradGradGradGradGradGradGradGradGradGradGradGradGradGradGradGrad

 Leave Link  103 at Thu Jan 24 17:17:35 2019, MaxMem=   104857600 cpu:               0.1 elap:               0.4
 (Enter /shared/centos7/gaussian/g16/l202.exe)
                          Input orientation:                          
 ---------------------------------------------------------------------
 Center     Atomic      Atomic             Coordinates (Angstroms)
 Number     Number       Type             X           Y           Z
 ---------------------------------------------------------------------
      1          6           0        0.560481    0.462239    0.547159
      2          6           0       -0.701481   -0.261119    1.014072
      3          6           0        1.151535   -0.123784   -0.725282
      4          6           0       -1.852477   -0.179234    0.014639
      5          8           0        2.350196    0.518507   -1.114772
      6          1           0       -0.463945   -1.309416    1.213733
      7          1           0       -1.019829    0.166999    1.965779
      8          1           0        0.347432    1.520872    0.379222
      9          1           0        1.317809    0.412865    1.335833
     10          1           0        0.467797    0.007655   -1.562821
     11          1           0        1.309995   -1.202001   -0.598329
     12          1           0       -2.762659   -0.611850    0.427880
     13          1           0       -2.063448    0.859000   -0.247075
     14          1           0       -1.625101   -0.714015   -0.907171
     15          1           0        2.983796    0.453081   -0.397467
 ---------------------------------------------------------------------
                    Distance matrix (angstroms):
                    1          2          3          4          5
     1  C    0.000000
     2  C    1.527678   0.000000
     3  C    1.520485   2.545168   0.000000
     4  C    2.552926   1.526553   3.094292   0.000000
     5  O    2.443003   3.801648   1.414577   4.407366   0.000000
     6  H    2.152331   1.093258   2.788418   2.154799   4.084437
     7  H    2.144068   1.091043   3.470041   2.149448   4.579347
     8  H    1.092839   2.163041   2.138084   2.804083   2.692177
     9  H    1.094528   2.152979   2.136313   3.485233   2.661287
    10  H    2.160383   2.842504   1.089149   2.811935   2.001286
    11  H    2.154904   2.744291   1.097169   3.379795   2.075784
    12  H    3.494445   2.171425   4.109611   1.089199   5.458824
    13  H    2.770060   2.167975   3.395683   1.091299   4.510997
    14  H    2.876702   2.179304   2.844497   1.089690   4.167156
    15  H    2.600934   4.010460   1.948696   4.894813   0.959299
                    6          7          8          9         10
     6  H    0.000000
     7  H    1.747678   0.000000
     8  H    3.060273   2.493900   0.000000
     9  H    2.481090   2.433482   1.756251   0.000000
    10  H    3.211242   3.832680   2.464923   3.047772   0.000000
    11  H    2.538104   3.725170   3.048963   2.519690   1.761480
    12  H    2.527498   2.451366   3.771410   4.304026   3.844804
    13  H    3.065028   2.542583   2.577337   3.759992   2.977109
    14  H    2.490185   3.065351   3.246600   3.868029   2.308875
    15  H    4.193958   4.657874   2.948532   2.404467   2.808328
                   11         12         13         14         15
    11  H    0.000000
    12  H    4.241214   0.000000
    13  H    3.968782   1.762912   0.000000
    14  H    2.991372   1.756939   1.761320   0.000000
    15  H    2.362467   5.902289   5.065773   4.781615   0.000000
 Stoichiometry    C4H10O
 Framework group  C1[X(C4H10O)]
 Deg. of freedom    39
 Full point group                 C1      NOp   1
 RotChk:  IX=0 Diff= 3.41D-16
 Largest Abelian subgroup         C1      NOp   1
 Largest concise Abelian subgroup C1      NOp   1
                         Standard orientation:                         
 ---------------------------------------------------------------------
 Center     Atomic      Atomic             Coordinates (Angstroms)
 Number     Number       Type             X           Y           Z
 ---------------------------------------------------------------------
      1          6           0        0.099691    0.708813   -0.264795
      2          6           0       -1.336134    0.623169    0.249862
      3          6           0        1.000646   -0.384789    0.286740
      4          6           0       -2.049317   -0.664813   -0.153670
      5          8           0        2.339447   -0.260310   -0.152741
      6          1           0       -1.335438    0.715328    1.339229
      7          1           0       -1.896640    1.479065   -0.129151
      8          1           0        0.112317    0.655780   -1.356273
      9          1           0        0.524590    1.679341    0.010025
     10          1           0        0.672658   -1.364043   -0.059284
     11          1           0        0.948608   -0.390664    1.382659
     12          1           0       -3.098309   -0.640728    0.138544
     13          1           0       -2.005503   -0.808021   -1.234644
     14          1           0       -1.598887   -1.539248    0.315266
     15          1           0        2.671712    0.601391    0.106731
 ---------------------------------------------------------------------
 Rotational constants (GHZ):          12.2890219           2.3803148           2.1741606
 Leave Link  202 at Thu Jan 24 17:17:35 2019, MaxMem=   104857600 cpu:               0.1 elap:               0.3
 (Enter /shared/centos7/gaussian/g16/l601.exe)
 Copying SCF densities to generalized density rwf, IOpCl= 0 IROHF=0.

 **********************************************************************

            Population analysis using the SCF density.

 **********************************************************************

 Orbital symmetries:
       Occupied  (A) (A) (A) (A) (A) (A) (A) (A) (A) (A) (A) (A)
                 (A) (A) (A) (A) (A) (A) (A) (A) (A)
       Virtual   (A) (A) (A) (A) (A) (A) (A) (A) (A) (A) (A) (A)
                 (A) (A) (A) (A) (A) (A) (A) (A) (A) (A) (A) (A)
                 (A) (A) (A) (A) (A) (A) (A) (A) (A) (A) (A) (A)
                 (A) (A) (A) (A) (A) (A) (A) (A) (A) (A) (A) (A)
                 (A) (A) (A) (A) (A) (A) (A) (A) (A) (A) (A) (A)
                 (A) (A) (A) (A) (A) (A) (A) (A) (A) (A) (A) (A)
                 (A) (A) (A) (A) (A) (A) (A) (A) (A) (A) (A) (A)
                 (A) (A) (A) (A) (A) (A) (A) (A) (A) (A) (A) (A)
                 (A) (A) (A) (A) (A) (A) (A) (A) (A) (A) (A) (A)
                 (A) (A) (A) (A) (A) (A) (A) (A) (A) (A) (A) (A)
                 (A) (A) (A) (A) (A) (A) (A) (A) (A) (A) (A) (A)
                 (A) (A) (A) (A) (A) (A) (A) (A) (A) (A) (A) (A)
                 (A) (A) (A) (A) (A) (A) (A) (A) (A) (A) (A) (A)
                 (A) (A) (A) (A) (A) (A) (A) (A) (A) (A) (A) (A)
                 (A) (A) (A) (A) (A) (A) (A) (A) (A) (A) (A) (A)
                 (A) (A) (A) (A) (A) (A) (A) (A) (A) (A) (A) (A)
                 (A) (A) (A) (A) (A) (A) (A) (A) (A) (A) (A) (A)
                 (A) (A) (A) (A) (A) (A) (A) (A) (A) (A) (A) (A)
                 (A) (A) (A) (A) (A) (A) (A) (A) (A) (A) (A) (A)
                 (A) (A) (A) (A) (A) (A) (A) (A) (A) (A) (A)
 The electronic state is 1-A.
 Alpha  occ. eigenvalues --  -19.61848 -10.57752 -10.53482 -10.53116 -10.52461
 Alpha  occ. eigenvalues --   -1.14315  -0.89988  -0.81032  -0.73439  -0.66410
 Alpha  occ. eigenvalues --   -0.58748  -0.54159  -0.51787  -0.49804  -0.47677
 Alpha  occ. eigenvalues --   -0.44983  -0.43315  -0.39973  -0.39659  -0.37987
 Alpha  occ. eigenvalues --   -0.34528
 Alpha virt. eigenvalues --    0.01297   0.02359   0.03037   0.03565   0.06009
 Alpha virt. eigenvalues --    0.06585   0.06822   0.07274   0.07589   0.10450
 Alpha virt. eigenvalues --    0.10545   0.11227   0.11889   0.12254   0.14274
 Alpha virt. eigenvalues --    0.16117   0.18596   0.18917   0.20468   0.21910
 Alpha virt. eigenvalues --    0.22755   0.23309   0.24263   0.25375   0.25826
 Alpha virt. eigenvalues --    0.26527   0.28148   0.29319   0.29828   0.29987
 Alpha virt. eigenvalues --    0.31305   0.32326   0.33545   0.36183   0.40872
 Alpha virt. eigenvalues --    0.42484   0.44321   0.45262   0.47914   0.48669
 Alpha virt. eigenvalues --    0.50193   0.51830   0.52942   0.56043   0.57215
 Alpha virt. eigenvalues --    0.57847   0.58498   0.59333   0.60883   0.61440
 Alpha virt. eigenvalues --    0.63183   0.64514   0.66749   0.67643   0.67776
 Alpha virt. eigenvalues --    0.69164   0.69446   0.71017   0.73614   0.75386
 Alpha virt. eigenvalues --    0.78514   0.82210   0.84008   0.85976   0.86764
 Alpha virt. eigenvalues --    0.88840   0.91162   0.95677   0.97662   1.00939
 Alpha virt. eigenvalues --    1.04045   1.07703   1.08936   1.10076   1.12102
 Alpha virt. eigenvalues --    1.14669   1.15941   1.16832   1.17783   1.18586
 Alpha virt. eigenvalues --    1.19849   1.21221   1.21879   1.22876   1.23926
 Alpha virt. eigenvalues --    1.27039   1.28287   1.29162   1.30494   1.32523
 Alpha virt. eigenvalues --    1.34609   1.37375   1.37705   1.40401   1.40750
 Alpha virt. eigenvalues --    1.43813   1.44847   1.46221   1.47065   1.48981
 Alpha virt. eigenvalues --    1.49689   1.50388   1.53868   1.56234   1.57363
 Alpha virt. eigenvalues --    1.59689   1.60553   1.64682   1.65121   1.67443
 Alpha virt. eigenvalues --    1.69903   1.71413   1.75111   1.79001   1.93146
 Alpha virt. eigenvalues --    2.06340   2.12433   2.29982   2.30251   2.39895
 Alpha virt. eigenvalues --    2.42859   2.48844   2.53493   2.57502   2.58635
 Alpha virt. eigenvalues --    2.61773   2.69542   2.74294   2.74669   2.78710
 Alpha virt. eigenvalues --    2.81090   2.86017   2.87413   2.88766   2.88957
 Alpha virt. eigenvalues --    2.94695   2.97526   3.01200   3.02518   3.04650
 Alpha virt. eigenvalues --    3.06388   3.12795   3.14821   3.17420   3.19696
 Alpha virt. eigenvalues --    3.22492   3.23615   3.26588   3.27394   3.29471
 Alpha virt. eigenvalues --    3.33100   3.34769   3.37770   3.39716   3.40626
 Alpha virt. eigenvalues --    3.43934   3.45100   3.51182   3.53193   3.55999
 Alpha virt. eigenvalues --    3.60012   3.60217   3.63372   3.66258   3.66644
 Alpha virt. eigenvalues --    3.69946   3.73334   3.74644   3.76490   3.80518
 Alpha virt. eigenvalues --    3.82285   3.84154   3.85275   3.91056   3.91895
 Alpha virt. eigenvalues --    3.95083   3.97092   3.97351   3.99082   4.01141
 Alpha virt. eigenvalues --    4.02573   4.06066   4.07069   4.14848   4.16194
 Alpha virt. eigenvalues --    4.18587   4.19141   4.21098   4.24047   4.26363
 Alpha virt. eigenvalues --    4.27552   4.28224   4.33306   4.34916   4.37372
 Alpha virt. eigenvalues --    4.39292   4.40825   4.45337   4.49043   4.53527
 Alpha virt. eigenvalues --    4.57027   4.57466   4.58070   4.58408   4.63454
 Alpha virt. eigenvalues --    4.65160   4.69051   4.71496   4.75881   4.97379
 Alpha virt. eigenvalues --    5.19026   5.23599   5.24624   5.29441   5.39206
 Alpha virt. eigenvalues --    5.41389   5.43789   5.47202   5.52544   5.58605
 Alpha virt. eigenvalues --    5.59329   5.60729   5.65474   5.68177   5.70173
 Alpha virt. eigenvalues --    5.84902   5.95996   6.53015   6.98251   7.19341
 Alpha virt. eigenvalues --    7.21241   7.24063   7.52011   7.63984  24.30022
 Alpha virt. eigenvalues --   24.34487  24.45287  24.49467  50.14138
          Condensed to atoms (all electrons):
               1          2          3          4          5          6
     1  C    5.344041   0.111490   0.157977  -0.036078  -0.070605   0.004418
     2  C    0.111490   5.630898  -0.178266  -0.032941   0.031889   0.438466
     3  C    0.157977  -0.178266   5.201277   0.103476   0.174968  -0.030283
     4  C   -0.036078  -0.032941   0.103476   5.281005  -0.007897  -0.051103
     5  O   -0.070605   0.031889   0.174968  -0.007897   8.113896  -0.000061
     6  H    0.004418   0.438466  -0.030283  -0.051103  -0.000061   0.510554
     7  H   -0.059881   0.432424   0.023208  -0.025931  -0.000384  -0.028684
     8  H    0.483376  -0.026818  -0.066793  -0.020015  -0.001345   0.003772
     9  H    0.415201  -0.046331  -0.015198   0.016508  -0.007689  -0.006094
    10  H   -0.037941  -0.017282   0.449904   0.003780  -0.054110   0.000752
    11  H   -0.020948   0.049181   0.382555  -0.021639  -0.031906  -0.001882
    12  H    0.023722  -0.051972  -0.000055   0.419393   0.000011  -0.002862
    13  H    0.004697  -0.024830  -0.012672   0.411034   0.000011   0.005365
    14  H   -0.031593  -0.017115   0.014037   0.412049   0.000688  -0.007536
    15  H   -0.000693  -0.003293  -0.019025   0.002761   0.231892   0.000143
               7          8          9         10         11         12
     1  C   -0.059881   0.483376   0.415201  -0.037941  -0.020948   0.023722
     2  C    0.432424  -0.026818  -0.046331  -0.017282   0.049181  -0.051972
     3  C    0.023208  -0.066793  -0.015198   0.449904   0.382555  -0.000055
     4  C   -0.025931  -0.020015   0.016508   0.003780  -0.021639   0.419393
     5  O   -0.000384  -0.001345  -0.007689  -0.054110  -0.031906   0.000011
     6  H   -0.028684   0.003772  -0.006094   0.000752  -0.001882  -0.002862
     7  H    0.528054  -0.004882  -0.005565  -0.000569  -0.000337  -0.006688
     8  H   -0.004882   0.475172  -0.028423  -0.007165   0.004548  -0.000206
     9  H   -0.005565  -0.028423   0.540208   0.005876  -0.009739  -0.000212
    10  H   -0.000569  -0.007165   0.005876   0.543442  -0.042248   0.000410
    11  H   -0.000337   0.004548  -0.009739  -0.042248   0.556950  -0.000098
    12  H   -0.006688  -0.000206  -0.000212   0.000410  -0.000098   0.527251
    13  H   -0.005678   0.000139   0.000067   0.000169   0.000146  -0.023025
    14  H    0.006100   0.000543  -0.000290  -0.005528  -0.000250  -0.025154
    15  H   -0.000110  -0.001100   0.006481   0.010394  -0.008622   0.000005
              13         14         15
     1  C    0.004697  -0.031593  -0.000693
     2  C   -0.024830  -0.017115  -0.003293
     3  C   -0.012672   0.014037  -0.019025
     4  C    0.411034   0.412049   0.002761
     5  O    0.000011   0.000688   0.231892
     6  H    0.005365  -0.007536   0.000143
     7  H   -0.005678   0.006100  -0.000110
     8  H    0.000139   0.000543  -0.001100
     9  H    0.000067  -0.000290   0.006481
    10  H    0.000169  -0.005528   0.010394
    11  H    0.000146  -0.000250  -0.008622
    12  H   -0.023025  -0.025154   0.000005
    13  H    0.535944  -0.036712  -0.000000
    14  H   -0.036712   0.550824  -0.000082
    15  H   -0.000000  -0.000082   0.537310
 Mulliken charges:
               1
     1  C   -0.287184
     2  C   -0.295499
     3  C   -0.185109
     4  C   -0.454401
     5  O   -0.379357
     6  H    0.165033
     7  H    0.148923
     8  H    0.189198
     9  H    0.135201
    10  H    0.150115
    11  H    0.144292
    12  H    0.139480
    13  H    0.145347
    14  H    0.140020
    15  H    0.243941
 Sum of Mulliken charges =  -0.00000
 Mulliken charges with hydrogens summed into heavy atoms:
               1
     1  C    0.037215
     2  C    0.018458
     3  C    0.109298
     4  C   -0.029554
     5  O   -0.135417
 Electronic spatial extent (au):  <R**2>=            598.3426
 Charge=             -0.0000 electrons
 Dipole moment (field-independent basis, Debye):
    X=             -1.1335    Y=              1.2630    Z=              0.7672  Tot=              1.8624
 Quadrupole moment (field-independent basis, Debye-Ang):
   XX=            -36.3857   YY=            -32.8344   ZZ=            -33.7348
   XY=              3.9825   XZ=              2.0313   YZ=              0.0899
 Traceless Quadrupole moment (field-independent basis, Debye-Ang):
   XX=             -2.0674   YY=              1.4839   ZZ=              0.5835
   XY=              3.9825   XZ=              2.0313   YZ=              0.0899
 Octapole moment (field-independent basis, Debye-Ang**2):
  XXX=              2.8822  YYY=             -0.1553  ZZZ=             -0.1535  XYY=              5.3183
  XXY=             13.1322  XXZ=              4.6750  XZZ=              2.2086  YZZ=             -0.1345
  YYZ=              0.0306  XYZ=              0.6808
 Hexadecapole moment (field-independent basis, Debye-Ang**3):
 XXXX=           -572.8937 YYYY=           -135.9549 ZZZZ=            -74.4587 XXXY=             33.0722
 XXXZ=              7.7234 YYYX=             -0.8774 YYYZ=              0.0460 ZZZX=              1.6156
 ZZZY=              0.7925 XXYY=           -116.4502 XXZZ=           -111.9679 YYZZ=            -37.1452
 XXYZ=              0.1628 YYXZ=              0.4769 ZZXY=             -0.0451
 N-N= 1.883135310244D+02 E-N=-9.209789960651D+02  KE= 2.327026605864D+02
 No NMR shielding tensors so no spin-rotation constants.
 Leave Link  601 at Thu Jan 24 17:17:36 2019, MaxMem=   104857600 cpu:               0.3 elap:               0.3
 (Enter /shared/centos7/gaussian/g16/l9999.exe)
 1\1\GINC-C3041\FOpt\RM062X\6-311+G(2df,2p)\C4H10O1\UNDERKOFFLER.C\24-J
 an-2019\0\\#p m062x/6-311+g(2df,2p) opt=(calcfc,maxcycle=1000)\\Gaussi
 an input prepared by ASE\\0,1\C,0.5604805404,0.4622390181,0.5471594362
 \C,-0.7014810028,-0.2611187258,1.0140722469\C,1.1515346343,-0.12378395
 25,-0.7252819067\C,-1.8524771424,-0.1792341431,0.0146390248\O,2.350196
 0401,0.5185069059,-1.1147716717\H,-0.4639452871,-1.3094155327,1.213733
 1723\H,-1.019829148,0.1669989537,1.9657786878\H,0.3474319317,1.5208723
 189,0.3792222072\H,1.3178093624,0.4128648475,1.3358332784\H,0.46779679
 8,0.0076552392,-1.562821282\H,1.3099954534,-1.2020011814,-0.5983290324
 \H,-2.7626585697,-0.6118500636,0.4278796399\H,-2.0634484359,0.85899952
 99,-0.2470753899\H,-1.6251008831,-0.7140145636,-0.9071709728\H,2.98379
 57087,0.4530813496,-0.397467438\\Version=EM64L-G16RevA.03\State=1-A\HF
 =-233.6320069\RMSD=7.525e-09\RMSF=1.732e-06\Dipole=-0.1973482,-0.27823
 98,0.6484889\Quadrupole=1.105995,0.1027638,-1.2087588,-0.9915571,3.129
 3049,0.9017588\PG=C01 [X(C4H10O1)]\\@


 THOSE WHO ASPIRE NOT TO GUESS AND DIVINE,
 BUT TO DISCOVER AND KNOW, WHO PROPOSE NOT TO DEVISE 
 MIMIC AND FABULOUS WORLDS OF THEIR OWN, BUT TO 
 EXAMINE AND DISSECT THE NATURE OF THIS VERY WORLD 
 ITSELF, MUST GO TO THE FACTS THEMSELVES FOR EVERYTHING.

                               -- FRANCIS BACON, 1620
 Job cpu time:       0 days  1 hours 48 minutes 21.5 seconds.
 Elapsed time:       0 days  1 hours 48 minutes 35.3 seconds.
 File lengths (MBytes):  RWF=    112 Int=      0 D2E=      0 Chk=      7 Scr=      1
 Normal termination of Gaussian 16 at Thu Jan 24 17:17:36 2019.
