 Entering Gaussian System, Link 0=g16
 Input=VMPUAIZSESMILD-UHFFFAOYSA-N_Freq.com
 Output=VMPUAIZSESMILD-UHFFFAOYSA-N_Freq.log
 Initial command:
 /shared/centos7/gaussian/g16/l1.exe "/scratch/underkoffler.c/gaussian_scratch/Gau-46398.inp" -scrdir="/scratch/underkoffler.c/gaussian_scratch/"
 Entering Link 1 = /shared/centos7/gaussian/g16/l1.exe PID=     46399.
  
 Copyright (c) 1988,1990,1992,1993,1995,1998,2003,2009,2016,
            Gaussian, Inc.  All Rights Reserved.
  
 This is part of the Gaussian(R) 16 program.  It is based on
 the Gaussian(R) 09 system (copyright 2009, Gaussian, Inc.),
 the Gaussian(R) 03 system (copyright 2003, Gaussian, Inc.),
 the Gaussian(R) 98 system (copyright 1998, Gaussian, Inc.),
 the Gaussian(R) 94 system (copyright 1995, Gaussian, Inc.),
 the Gaussian 92(TM) system (copyright 1992, Gaussian, Inc.),
 the Gaussian 90(TM) system (copyright 1990, Gaussian, Inc.),
 the Gaussian 88(TM) system (copyright 1988, Gaussian, Inc.),
 the Gaussian 86(TM) system (copyright 1986, Carnegie Mellon
 University), and the Gaussian 82(TM) system (copyright 1983,
 Carnegie Mellon University). Gaussian is a federally registered
 trademark of Gaussian, Inc.
  
 This software contains proprietary and confidential information,
 including trade secrets, belonging to Gaussian, Inc.
  
 This software is provided under written license and may be
 used, copied, transmitted, or stored only in accord with that
 written license.
  
 The following legend is applicable only to US Government
 contracts under FAR:
  
                    RESTRICTED RIGHTS LEGEND
  
 Use, reproduction and disclosure by the US Government is
 subject to restrictions as set forth in subparagraphs (a)
 and (c) of the Commercial Computer Software - Restricted
 Rights clause in FAR 52.227-19.
  
 Gaussian, Inc.
 340 Quinnipiac St., Bldg. 40, Wallingford CT 06492
  
  
 ---------------------------------------------------------------
 Warning -- This program may not be used in any manner that
 competes with the business of Gaussian, Inc. or will provide
 assistance to any competitor of Gaussian, Inc.  The licensee
 of this program is prohibited from giving any competitor of
 Gaussian, Inc. access to this program.  By using this program,
 the user acknowledges that Gaussian, Inc. is engaged in the
 business of creating and licensing software in the field of
 computational chemistry and represents and warrants to the
 licensee that it is not a competitor of Gaussian, Inc. and that
 it will not use this program in any manner prohibited above.
 ---------------------------------------------------------------
  

 Cite this work as:
 Gaussian 16, Revision A.03,
 M. J. Frisch, G. W. Trucks, H. B. Schlegel, G. E. Scuseria, 
 M. A. Robb, J. R. Cheeseman, G. Scalmani, V. Barone, 
 G. A. Petersson, H. Nakatsuji, X. Li, M. Caricato, A. V. Marenich, 
 J. Bloino, B. G. Janesko, R. Gomperts, B. Mennucci, H. P. Hratchian, 
 J. V. Ortiz, A. F. Izmaylov, J. L. Sonnenberg, D. Williams-Young, 
 F. Ding, F. Lipparini, F. Egidi, J. Goings, B. Peng, A. Petrone, 
 T. Henderson, D. Ranasinghe, V. G. Zakrzewski, J. Gao, N. Rega, 
 G. Zheng, W. Liang, M. Hada, M. Ehara, K. Toyota, R. Fukuda, 
 J. Hasegawa, M. Ishida, T. Nakajima, Y. Honda, O. Kitao, H. Nakai, 
 T. Vreven, K. Throssell, J. A. Montgomery, Jr., J. E. Peralta, 
 F. Ogliaro, M. J. Bearpark, J. J. Heyd, E. N. Brothers, K. N. Kudin, 
 V. N. Staroverov, T. A. Keith, R. Kobayashi, J. Normand, 
 K. Raghavachari, A. P. Rendell, J. C. Burant, S. S. Iyengar, 
 J. Tomasi, M. Cossi, J. M. Millam, M. Klene, C. Adamo, R. Cammi, 
 J. W. Ochterski, R. L. Martin, K. Morokuma, O. Farkas, 
 J. B. Foresman, and D. J. Fox, Gaussian, Inc., Wallingford CT, 2016.
 
 ******************************************
 Gaussian 16:  EM64L-G16RevA.03 25-Dec-2016
                19-Feb-2019 
 ******************************************
 %nprocshared=20
 Will use up to   20 processors via shared memory.
 %mem=5GB
 -----------------------------------------
 #p m062x/6-311+g(2df,2p) freq iop(7/33=1)
 -----------------------------------------
 1/10=4,30=1,38=1/1,3;
 2/12=2,17=6,18=5,40=1/2;
 3/5=4,6=6,7=214,11=2,25=1,30=1,71=2,74=-55,140=1/1,2,3;
 4//1;
 5/5=2,38=5,98=1/2;
 8/6=4,10=90,11=11/1;
 11/6=1,8=1,9=11,15=111,16=1/1,2,10;
 10/6=1/2;
 6/7=2,8=2,9=2,10=2,28=1/1;
 7/8=1,10=1,25=1,33=1/1,2,3,16;
 1/10=4,30=1/3;
 99//99;
 Leave Link    1 at Tue Feb 19 17:57:08 2019, MaxMem=   671088640 cpu:              26.2 elap:               1.4
 (Enter /shared/centos7/gaussian/g16/l101.exe)


 Symbolic Z-matrix:
 Charge =  0 Multiplicity = 1
 O                     0.9801   -0.03927   0.99578 
 O                    -1.65724   1.36563  -1.13157 
 C                    -0.18335  -0.11131   0.1751 
 C                    -0.48032   1.30005  -0.3518 
 C                    -1.288    -0.56211   1.11958 
 C                    -0.0302   -1.09894  -0.97514 
 C                     2.22669   0.05415   0.34942 
 H                    -0.5236    1.98353   0.50178 
 H                     0.32625   1.63042  -1.00597 
 H                    -1.37783   0.13677   1.95169 
 H                    -1.0477   -1.54442   1.52363 
 H                    -2.24406  -0.63295   0.6008 
 H                     0.72645  -0.7738   -1.68913 
 H                    -0.97398  -1.17949  -1.51074 
 H                     0.24543  -2.08257  -0.59358 
 H                     2.26626   0.87095  -0.37613 
 H                     2.96246   0.24935   1.12607 
 H                     2.49225  -0.87708  -0.15696 
 H                    -2.4194    1.31119  -0.55273 
 
 ITRead=  0  0  0  0  0  0  0  0  0  0  0  0  0  0  0  0  0  0  0
 MicOpt= -1 -1 -1 -1 -1 -1 -1 -1 -1 -1 -1 -1 -1 -1 -1 -1 -1 -1 -1
 NAtoms=     19 NQM=       19 NQMF=       0 NMMI=      0 NMMIF=      0
                NMic=       0 NMicF=      0.
                    Isotopes and Nuclear Properties:
 (Nuclear quadrupole moments (NQMom) in fm**2, nuclear magnetic moments (NMagM)
  in nuclear magnetons)

  Atom         1           2           3           4           5           6           7           8           9          10
 IAtWgt=          16          16          12          12          12          12          12           1           1           1
 AtmWgt=  15.9949146  15.9949146  12.0000000  12.0000000  12.0000000  12.0000000  12.0000000   1.0078250   1.0078250   1.0078250
 NucSpn=           0           0           0           0           0           0           0           1           1           1
 AtZEff=  -0.0000000  -0.0000000  -0.0000000  -0.0000000  -0.0000000  -0.0000000  -0.0000000  -0.0000000  -0.0000000  -0.0000000
 NQMom=    0.0000000   0.0000000   0.0000000   0.0000000   0.0000000   0.0000000   0.0000000   0.0000000   0.0000000   0.0000000
 NMagM=    0.0000000   0.0000000   0.0000000   0.0000000   0.0000000   0.0000000   0.0000000   2.7928460   2.7928460   2.7928460
 AtZNuc=   8.0000000   8.0000000   6.0000000   6.0000000   6.0000000   6.0000000   6.0000000   1.0000000   1.0000000   1.0000000

  Atom        11          12          13          14          15          16          17          18          19
 IAtWgt=           1           1           1           1           1           1           1           1           1
 AtmWgt=   1.0078250   1.0078250   1.0078250   1.0078250   1.0078250   1.0078250   1.0078250   1.0078250   1.0078250
 NucSpn=           1           1           1           1           1           1           1           1           1
 AtZEff=  -0.0000000  -0.0000000  -0.0000000  -0.0000000  -0.0000000  -0.0000000  -0.0000000  -0.0000000  -0.0000000
 NQMom=    0.0000000   0.0000000   0.0000000   0.0000000   0.0000000   0.0000000   0.0000000   0.0000000   0.0000000
 NMagM=    2.7928460   2.7928460   2.7928460   2.7928460   2.7928460   2.7928460   2.7928460   2.7928460   2.7928460
 AtZNuc=   1.0000000   1.0000000   1.0000000   1.0000000   1.0000000   1.0000000   1.0000000   1.0000000   1.0000000
 Leave Link  101 at Tue Feb 19 17:57:08 2019, MaxMem=   671088640 cpu:               4.4 elap:               0.3
 (Enter /shared/centos7/gaussian/g16/l103.exe)

 GradGradGradGradGradGradGradGradGradGradGradGradGradGradGradGradGradGrad
 Berny optimization.
 Initialization pass.
 Trust Radius=3.00D-01 FncErr=1.00D-07 GrdErr=1.00D-07 EigMax=2.50D+02 EigMin=1.00D-04
 Number of steps in this run=      2 maximum allowed number of steps=      2.
 GradGradGradGradGradGradGradGradGradGradGradGradGradGradGradGradGradGrad

 Leave Link  103 at Tue Feb 19 17:57:08 2019, MaxMem=   671088640 cpu:               0.4 elap:               0.0
 (Enter /shared/centos7/gaussian/g16/l202.exe)
                          Input orientation:                          
 ---------------------------------------------------------------------
 Center     Atomic      Atomic             Coordinates (Angstroms)
 Number     Number       Type             X           Y           Z
 ---------------------------------------------------------------------
      1          8           0        0.980102   -0.039272    0.995776
      2          8           0       -1.657236    1.365625   -1.131575
      3          6           0       -0.183353   -0.111308    0.175101
      4          6           0       -0.480317    1.300052   -0.351796
      5          6           0       -1.288003   -0.562113    1.119581
      6          6           0       -0.030204   -1.098944   -0.975144
      7          6           0        2.226687    0.054146    0.349421
      8          1           0       -0.523596    1.983535    0.501781
      9          1           0        0.326254    1.630421   -1.005973
     10          1           0       -1.377832    0.136767    1.951689
     11          1           0       -1.047705   -1.544419    1.523626
     12          1           0       -2.244063   -0.632947    0.600805
     13          1           0        0.726445   -0.773798   -1.689125
     14          1           0       -0.973976   -1.179488   -1.510742
     15          1           0        0.245432   -2.082573   -0.593578
     16          1           0        2.266259    0.870949   -0.376130
     17          1           0        2.962458    0.249353    1.126070
     18          1           0        2.492249   -0.877078   -0.156956
     19          1           0       -2.419402    1.311195   -0.552730
 ---------------------------------------------------------------------
                    Distance matrix (angstroms):
                    1          2          3          4          5
     1  O    0.000000
     2  O    3.668094   0.000000
     3  C    1.425596   2.461923   0.000000
     4  C    2.396365   1.413327   1.535494   0.000000
     5  C    2.330877   2.986672   1.521683   2.506983   0.000000
     6  C    2.455229   2.957331   1.523793   2.519196   2.501624
     7  C    1.407294   4.358691   2.421994   3.061349   3.650475
     8  H    2.568441   2.082019   2.147289   1.094356   2.728794
     9  H    2.687451   2.005026   2.165238   1.089793   3.454130
    10  H    2.550414   3.330867   2.155130   2.732180   1.090369
    11  H    2.579941   3.986224   2.149286   3.454005   1.089000
    12  H    3.302073   2.709206   2.167915   2.784732   1.090044
    13  H    2.795096   3.251143   2.177606   2.746921   3.462895
    14  H    3.376558   2.662370   2.146663   2.781181   2.719994
    15  H    2.690886   3.974879   2.158845   3.468043   2.756472
    16  H    2.089218   4.026068   2.696161   2.780001   4.113830
    17  H    2.007490   5.261616   3.306138   3.891113   4.327232
    18  H    2.077811   4.816412   2.802769   3.689716   4.002381
    19  H    3.972186   0.958604   2.748302   1.949499   2.754264
                    6          7          8          9         10
     6  C    0.000000
     7  C    2.859658   0.000000
     8  H    3.453465   3.363007   0.000000
     9  H    2.752716   2.816625   1.766425   0.000000
    10  H    3.451005   3.945459   2.498501   3.725947   0.000000
    11  H    2.734521   3.828291   3.710164   4.285586   1.765958
    12  H    2.757161   4.530220   3.133016   3.783001   1.779804
    13  H    1.089957   2.663059   3.737052   2.531228   4.302632
    14  H    1.088145   3.902089   3.775950   3.137033   3.726132
    15  H    1.090456   3.062709   4.280707   3.736700   3.746844
    16  H    3.084322   1.093232   3.129196   2.176492   4.386020
    17  H    3.897311   1.087497   3.943311   3.660946   4.419552
    18  H    2.661094   1.092757   4.208605   3.420513   4.522366
    19  H    3.419865   4.896957   2.271148   2.801065   2.955717
                   11         12         13         14         15
    11  H    0.000000
    12  H    1.764554   0.000000
    13  H    3.750098   3.753337   0.000000
    14  H    3.057123   2.523977   1.757224   0.000000
    15  H    2.538576   3.118581   1.773271   1.773051   0.000000
    16  H    4.519451   4.853773   2.607715   3.998845   3.585292
    17  H    4.411018   5.306808   3.737902   4.948725   3.972065
    18  H    3.975044   4.802754   2.340143   3.733484   2.586899
    19  H    3.787788   2.267394   3.941439   3.034888   4.315168
                   16         17         18         19
    16  H    0.000000
    17  H    1.768525   0.000000
    18  H    1.776149   1.770903   0.000000
    19  H    4.709610   5.736750   5.391613   0.000000
 Stoichiometry    C5H12O2
 Framework group  C1[X(C5H12O2)]
 Deg. of freedom    51
 Full point group                 C1      NOp   1
 Largest Abelian subgroup         C1      NOp   1
 Largest concise Abelian subgroup C1      NOp   1
                         Standard orientation:                         
 ---------------------------------------------------------------------
 Center     Atomic      Atomic             Coordinates (Angstroms)
 Number     Number       Type             X           Y           Z
 ---------------------------------------------------------------------
      1          8           0        1.275161    0.234899   -0.631207
      2          8           0       -2.138673   -0.903255    0.079606
      3          6           0        0.001024    0.312056    0.003573
      4          6           0       -0.824019   -0.904903   -0.439214
      5          6           0       -0.617994    1.591579   -0.539711
      6          6           0        0.104674    0.373863    1.522580
      7          6           0        2.210178   -0.674964   -0.103599
      8          1           0       -0.822242   -0.941815   -1.532946
      9          1           0       -0.362499   -1.821126   -0.071541
     10          1           0       -0.669284    1.550184   -1.628086
     11          1           0       -0.002560    2.445180   -0.259485
     12          1           0       -1.618261    1.746801   -0.135274
     13          1           0        0.505277   -0.550595    1.938393
     14          1           0       -0.886234    0.522467    1.946937
     15          1           0        0.746597    1.202416    1.823462
     16          1           0        1.809115   -1.687901   -0.012688
     17          1           0        3.044749   -0.697800   -0.800462
     18          1           0        2.580160   -0.355901    0.873862
     19          1           0       -2.659897   -0.250847   -0.391149
 ---------------------------------------------------------------------
 Rotational constants (GHZ):           3.5825270           1.9366098           1.7636847
 Leave Link  202 at Tue Feb 19 17:57:08 2019, MaxMem=   671088640 cpu:               0.2 elap:               0.0
 (Enter /shared/centos7/gaussian/g16/l301.exe)
 Standard basis: 6-311+G(2df,2p) (5D, 7F)
 Ernie: Thresh=  0.10000D-02 Tol=  0.10000D-05 Strict=F.
 There are   381 symmetry adapted cartesian basis functions of A   symmetry.
 There are   346 symmetry adapted basis functions of A   symmetry.
   346 basis functions,   496 primitive gaussians,   381 cartesian basis functions
    29 alpha electrons       29 beta electrons
       nuclear repulsion energy       349.5587342374 Hartrees.
 IExCor= 4336 DFT=T Ex+Corr=M062X ExCW=0 ScaHFX=  0.540000
 ScaDFX=  1.000000  1.000000  1.000000  1.000000 ScalE2=  1.000000  1.000000
 IRadAn=      5 IRanWt=     -1 IRanGd=            0 ICorTp=0 IEmpDi=  4
 NAtoms=   19 NActive=   19 NUniq=   19 SFac= 1.00D+00 NAtFMM=   60 NAOKFM=F Big=F
 Integral buffers will be    131072 words long.
 Raffenetti 2 integral format.
 Two-electron integral symmetry is turned on.
 Leave Link  301 at Tue Feb 19 17:57:08 2019, MaxMem=   671088640 cpu:               1.2 elap:               0.1
 (Enter /shared/centos7/gaussian/g16/l302.exe)
 NPDir=0 NMtPBC=     1 NCelOv=     1 NCel=       1 NClECP=     1 NCelD=      1
         NCelK=      1 NCelE2=     1 NClLst=     1 CellRange=     0.0.
 One-electron integrals computed using PRISM.
 One-electron integral symmetry used in STVInt
 NBasis=   346 RedAO= T EigKep=  1.53D-05  NBF=   346
 NBsUse=   346 1.00D-06 EigRej= -1.00D+00 NBFU=   346
 Precomputing XC quadrature grid using
 IXCGrd= 4 IRadAn=           5 IRanWt=          -1 IRanGd=           0 AccXCQ= 0.00D+00.
 Generated NRdTot=       0 NPtTot=           0 NUsed=           0 NTot=          32
 NSgBfM=   381   381   381   381   381 MxSgAt=    19 MxSgA2=    19.
 Leave Link  302 at Tue Feb 19 17:57:09 2019, MaxMem=   671088640 cpu:              10.0 elap:               0.5
 (Enter /shared/centos7/gaussian/g16/l303.exe)
 DipDrv:  MaxL=1.
 Leave Link  303 at Tue Feb 19 17:57:09 2019, MaxMem=   671088640 cpu:               0.9 elap:               0.1
 (Enter /shared/centos7/gaussian/g16/l401.exe)
 ExpMin= 4.38D-02 ExpMax= 8.59D+03 ExpMxC= 1.30D+03 IAcc=3 IRadAn=         5 AccDes= 0.00D+00
 Harris functional with IExCor= 1009 and IRadAn=       5 diagonalized for initial guess.
 HarFok:  IExCor= 1009 AccDes= 0.00D+00 IRadAn=         5 IDoV= 1 UseB2=F ITyADJ=14
 ICtDFT=  3500011 ScaDFX=  1.000000  1.000000  1.000000  1.000000
 FoFCou: FMM=F IPFlag=           0 FMFlag=      100000 FMFlg1=           0
         NFxFlg=           0 DoJE=T BraDBF=F KetDBF=T FulRan=T
         wScrn=  0.000000 ICntrl=       500 IOpCl=  0 I1Cent=   200000004 NGrid=           0
         NMat0=    1 NMatS0=      1 NMatT0=    0 NMatD0=    1 NMtDS0=    0 NMtDT0=    0
 Petite list used in FoFCou.
 Harris En= -348.049035585861    
 JPrj=0 DoOrth=F DoCkMO=F.
 Leave Link  401 at Tue Feb 19 17:57:11 2019, MaxMem=   671088640 cpu:              48.7 elap:               2.5
 (Enter /shared/centos7/gaussian/g16/l502.exe)
 Integral symmetry usage will be decided dynamically.
 Closed shell SCF:
 Using DIIS extrapolation, IDIIS=  1040.
 NGot=   671088640 LenX=   670787189 LenY=   670641587
 Requested convergence on RMS density matrix=1.00D-08 within 128 cycles.
 Requested convergence on MAX density matrix=1.00D-06.
 Requested convergence on             energy=1.00D-06.
 No special actions if energy rises.
 Fock matrices will be formed incrementally for  20 cycles.

 Cycle   1  Pass 1  IDiag  1:
 FoFJK:  IHMeth= 1 ICntrl=       0 DoSepK=F KAlg= 0 I1Cent=           0 FoldK=F
 IRaf= 980000000 NMat=       1 IRICut=       1 DoRegI=T DoRafI=F ISym2E= 0 IDoP0=0 IntGTp=1.
 FoFCou: FMM=F IPFlag=           0 FMFlag=      100000 FMFlg1=           0
         NFxFlg=           0 DoJE=F BraDBF=F KetDBF=F FulRan=T
         wScrn=  0.000000 ICntrl=         0 IOpCl=  0 I1Cent=           0 NGrid=           0
         NMat0=    1 NMatS0=      1 NMatT0=    0 NMatD0=    1 NMtDS0=    0 NMtDT0=    0
 Symmetry not used in FoFCou.
 E= -347.895942317808    
 DIIS: error= 2.07D-02 at cycle   1 NSaved=   1.
 NSaved= 1 IEnMin= 1 EnMin= -347.895942317808     IErMin= 1 ErrMin= 2.07D-02
 ErrMax= 2.07D-02  0.00D+00 EMaxC= 1.00D-01 BMatC= 3.27D-01 BMatP= 3.27D-01
 IDIUse=3 WtCom= 7.93D-01 WtEn= 2.07D-01
 Coeff-Com:  0.100D+01
 Coeff-En:   0.100D+01
 Coeff:      0.100D+01
 Gap=     0.289 Goal=   None    Shift=    0.000
 GapD=    0.289 DampG=1.000 DampE=0.500 DampFc=0.5000 IDamp=-1.
 Damping current iteration by 5.00D-01
 RMSDP=3.11D-03 MaxDP=1.17D-01              OVMax= 1.45D-01

 Cycle   2  Pass 1  IDiag  1:
 RMSU=  1.55D-03    CP:  9.86D-01
 E= -348.027493330435     Delta-E=       -0.131551012627 Rises=F Damp=T
 DIIS: error= 4.96D-03 at cycle   2 NSaved=   2.
 NSaved= 2 IEnMin= 2 EnMin= -348.027493330435     IErMin= 2 ErrMin= 4.96D-03
 ErrMax= 4.96D-03  0.00D+00 EMaxC= 1.00D-01 BMatC= 2.13D-02 BMatP= 3.27D-01
 IDIUse=3 WtCom= 9.50D-01 WtEn= 4.96D-02
 Coeff-Com: -0.107D+00 0.111D+01
 Coeff-En:   0.000D+00 0.100D+01
 Coeff:     -0.102D+00 0.110D+01
 Gap=     0.343 Goal=   None    Shift=    0.000
 RMSDP=1.26D-03 MaxDP=7.96D-02 DE=-1.32D-01 OVMax= 7.05D-02

 Cycle   3  Pass 1  IDiag  1:
 RMSU=  1.24D-03    CP:  9.66D-01  9.27D-01
 E= -348.149117138588     Delta-E=       -0.121623808153 Rises=F Damp=F
 DIIS: error= 2.84D-03 at cycle   3 NSaved=   3.
 NSaved= 3 IEnMin= 3 EnMin= -348.149117138588     IErMin= 3 ErrMin= 2.84D-03
 ErrMax= 2.84D-03  0.00D+00 EMaxC= 1.00D-01 BMatC= 4.62D-03 BMatP= 2.13D-02
 IDIUse=3 WtCom= 9.72D-01 WtEn= 2.84D-02
 Coeff-Com: -0.800D-01 0.328D+00 0.752D+00
 Coeff-En:   0.000D+00 0.000D+00 0.100D+01
 Coeff:     -0.777D-01 0.319D+00 0.759D+00
 Gap=     0.329 Goal=   None    Shift=    0.000
 RMSDP=2.67D-04 MaxDP=2.87D-02 DE=-1.22D-01 OVMax= 1.19D-02

 Cycle   4  Pass 1  IDiag  1:
 RMSU=  2.18D-04    CP:  9.69D-01  1.02D+00  9.79D-01
 E= -348.151588829532     Delta-E=       -0.002471690944 Rises=F Damp=F
 DIIS: error= 1.13D-03 at cycle   4 NSaved=   4.
 NSaved= 4 IEnMin= 4 EnMin= -348.151588829532     IErMin= 4 ErrMin= 1.13D-03
 ErrMax= 1.13D-03  0.00D+00 EMaxC= 1.00D-01 BMatC= 1.02D-03 BMatP= 4.62D-03
 IDIUse=3 WtCom= 9.89D-01 WtEn= 1.13D-02
 Coeff-Com: -0.277D-01 0.727D-01 0.363D+00 0.592D+00
 Coeff-En:   0.000D+00 0.000D+00 0.118D+00 0.882D+00
 Coeff:     -0.274D-01 0.719D-01 0.360D+00 0.595D+00
 Gap=     0.329 Goal=   None    Shift=    0.000
 RMSDP=1.05D-04 MaxDP=1.38D-02 DE=-2.47D-03 OVMax= 4.17D-03

 Cycle   5  Pass 1  IDiag  1:
 RMSU=  5.53D-05    CP:  9.65D-01  9.93D-01  9.92D-01  6.87D-01
 E= -348.152309075346     Delta-E=       -0.000720245813 Rises=F Damp=F
 DIIS: error= 2.13D-04 at cycle   5 NSaved=   5.
 NSaved= 5 IEnMin= 5 EnMin= -348.152309075346     IErMin= 5 ErrMin= 2.13D-04
 ErrMax= 2.13D-04  0.00D+00 EMaxC= 1.00D-01 BMatC= 1.93D-05 BMatP= 1.02D-03
 IDIUse=3 WtCom= 9.98D-01 WtEn= 2.13D-03
 Coeff-Com: -0.458D-02 0.786D-02 0.791D-01 0.193D+00 0.725D+00
 Coeff-En:   0.000D+00 0.000D+00 0.000D+00 0.000D+00 0.100D+01
 Coeff:     -0.457D-02 0.785D-02 0.789D-01 0.192D+00 0.725D+00
 Gap=     0.330 Goal=   None    Shift=    0.000
 RMSDP=3.20D-05 MaxDP=5.52D-03 DE=-7.20D-04 OVMax= 6.35D-04

 Cycle   6  Pass 1  IDiag  1:
 RMSU=  2.31D-05    CP:  9.67D-01  9.93D-01  1.00D+00  7.42D-01  8.19D-01
 E= -348.152323102354     Delta-E=       -0.000014027009 Rises=F Damp=F
 DIIS: error= 4.50D-05 at cycle   6 NSaved=   6.
 NSaved= 6 IEnMin= 6 EnMin= -348.152323102354     IErMin= 6 ErrMin= 4.50D-05
 ErrMax= 4.50D-05  0.00D+00 EMaxC= 1.00D-01 BMatC= 1.32D-06 BMatP= 1.93D-05
 IDIUse=1 WtCom= 1.00D+00 WtEn= 0.00D+00
 Coeff-Com: -0.117D-03-0.989D-03 0.114D-01 0.439D-01 0.259D+00 0.687D+00
 Coeff:     -0.117D-03-0.989D-03 0.114D-01 0.439D-01 0.259D+00 0.687D+00
 Gap=     0.330 Goal=   None    Shift=    0.000
 RMSDP=5.00D-06 MaxDP=2.55D-04 DE=-1.40D-05 OVMax= 2.64D-04

 Cycle   7  Pass 1  IDiag  1:
 RMSU=  3.70D-06    CP:  9.66D-01  9.92D-01  1.00D+00  7.45D-01  8.65D-01
                    CP:  1.00D+00
 E= -348.152324220407     Delta-E=       -0.000001118053 Rises=F Damp=F
 DIIS: error= 2.28D-05 at cycle   7 NSaved=   7.
 NSaved= 7 IEnMin= 7 EnMin= -348.152324220407     IErMin= 7 ErrMin= 2.28D-05
 ErrMax= 2.28D-05  0.00D+00 EMaxC= 1.00D-01 BMatC= 1.46D-07 BMatP= 1.32D-06
 IDIUse=1 WtCom= 1.00D+00 WtEn= 0.00D+00
 Coeff-Com:  0.641D-03-0.146D-02-0.790D-02-0.132D-01-0.259D-01 0.233D+00
 Coeff-Com:  0.815D+00
 Coeff:      0.641D-03-0.146D-02-0.790D-02-0.132D-01-0.259D-01 0.233D+00
 Coeff:      0.815D+00
 Gap=     0.330 Goal=   None    Shift=    0.000
 RMSDP=3.21D-06 MaxDP=2.73D-04 DE=-1.12D-06 OVMax= 8.42D-05

 Cycle   8  Pass 1  IDiag  1:
 RMSU=  1.44D-06    CP:  9.67D-01  9.91D-01  1.00D+00  7.49D-01  8.72D-01
                    CP:  1.08D+00  1.07D+00
 E= -348.152324358173     Delta-E=       -0.000000137766 Rises=F Damp=F
 DIIS: error= 1.97D-06 at cycle   8 NSaved=   8.
 NSaved= 8 IEnMin= 8 EnMin= -348.152324358173     IErMin= 8 ErrMin= 1.97D-06
 ErrMax= 1.97D-06  0.00D+00 EMaxC= 1.00D-01 BMatC= 4.42D-09 BMatP= 1.46D-07
 IDIUse=1 WtCom= 1.00D+00 WtEn= 0.00D+00
 Coeff-Com:  0.162D-03-0.333D-03-0.262D-02-0.524D-02-0.171D-01 0.397D-01
 Coeff-Com:  0.221D+00 0.765D+00
 Coeff:      0.162D-03-0.333D-03-0.262D-02-0.524D-02-0.171D-01 0.397D-01
 Coeff:      0.221D+00 0.765D+00
 Gap=     0.330 Goal=   None    Shift=    0.000
 RMSDP=4.39D-07 MaxDP=2.01D-05 DE=-1.38D-07 OVMax= 1.52D-05

 Cycle   9  Pass 1  IDiag  1:
 RMSU=  2.95D-07    CP:  9.67D-01  9.91D-01  1.00D+00  7.49D-01  8.73D-01
                    CP:  1.08D+00  1.10D+00  1.01D+00
 E= -348.152324361502     Delta-E=       -0.000000003329 Rises=F Damp=F
 DIIS: error= 1.11D-06 at cycle   9 NSaved=   9.
 NSaved= 9 IEnMin= 9 EnMin= -348.152324361502     IErMin= 9 ErrMin= 1.11D-06
 ErrMax= 1.11D-06  0.00D+00 EMaxC= 1.00D-01 BMatC= 7.46D-10 BMatP= 4.42D-09
 IDIUse=1 WtCom= 1.00D+00 WtEn= 0.00D+00
 Coeff-Com:  0.107D-04-0.195D-04-0.453D-03-0.109D-02-0.469D-02-0.158D-02
 Coeff-Com:  0.242D-01 0.302D+00 0.682D+00
 Coeff:      0.107D-04-0.195D-04-0.453D-03-0.109D-02-0.469D-02-0.158D-02
 Coeff:      0.242D-01 0.302D+00 0.682D+00
 Gap=     0.330 Goal=   None    Shift=    0.000
 RMSDP=1.44D-07 MaxDP=1.36D-05 DE=-3.33D-09 OVMax= 6.23D-06

 Cycle  10  Pass 1  IDiag  1:
 RMSU=  8.15D-08    CP:  9.66D-01  9.91D-01  1.00D+00  7.49D-01  8.73D-01
                    CP:  1.08D+00  1.11D+00  1.05D+00  1.13D+00
 E= -348.152324361997     Delta-E=       -0.000000000496 Rises=F Damp=F
 DIIS: error= 4.46D-07 at cycle  10 NSaved=  10.
 NSaved=10 IEnMin=10 EnMin= -348.152324361997     IErMin=10 ErrMin= 4.46D-07
 ErrMax= 4.46D-07  0.00D+00 EMaxC= 1.00D-01 BMatC= 1.05D-10 BMatP= 7.46D-10
 IDIUse=1 WtCom= 1.00D+00 WtEn= 0.00D+00
 Coeff-Com: -0.165D-04 0.352D-04 0.142D-03 0.212D-03 0.425D-03-0.491D-02
 Coeff-Com: -0.182D-01 0.154D-01 0.301D+00 0.706D+00
 Coeff:     -0.165D-04 0.352D-04 0.142D-03 0.212D-03 0.425D-03-0.491D-02
 Coeff:     -0.182D-01 0.154D-01 0.301D+00 0.706D+00
 Gap=     0.330 Goal=   None    Shift=    0.000
 RMSDP=5.48D-08 MaxDP=3.69D-06 DE=-4.96D-10 OVMax= 2.46D-06

 Cycle  11  Pass 1  IDiag  1:
 RMSU=  2.93D-08    CP:  9.66D-01  9.91D-01  1.00D+00  7.49D-01  8.73D-01
                    CP:  1.08D+00  1.11D+00  1.07D+00  1.17D+00  9.23D-01
 E= -348.152324362092     Delta-E=       -0.000000000094 Rises=F Damp=F
 DIIS: error= 5.98D-08 at cycle  11 NSaved=  11.
 NSaved=11 IEnMin=11 EnMin= -348.152324362092     IErMin=11 ErrMin= 5.98D-08
 ErrMax= 5.98D-08  0.00D+00 EMaxC= 1.00D-01 BMatC= 3.41D-12 BMatP= 1.05D-10
 IDIUse=1 WtCom= 1.00D+00 WtEn= 0.00D+00
 Coeff-Com: -0.426D-05 0.936D-05 0.564D-04 0.959D-04 0.298D-03-0.113D-02
 Coeff-Com: -0.591D-02-0.112D-01 0.387D-01 0.188D+00 0.791D+00
 Coeff:     -0.426D-05 0.936D-05 0.564D-04 0.959D-04 0.298D-03-0.113D-02
 Coeff:     -0.591D-02-0.112D-01 0.387D-01 0.188D+00 0.791D+00
 Gap=     0.330 Goal=   None    Shift=    0.000
 RMSDP=1.78D-08 MaxDP=2.22D-06 DE=-9.41D-11 OVMax= 6.75D-07

 Cycle  12  Pass 1  IDiag  1:
 RMSU=  8.88D-09    CP:  9.66D-01  9.91D-01  1.00D+00  7.49D-01  8.73D-01
                    CP:  1.08D+00  1.11D+00  1.07D+00  1.19D+00  9.93D-01
                    CP:  1.05D+00
 E= -348.152324362073     Delta-E=        0.000000000018 Rises=F Damp=F
 DIIS: error= 3.35D-08 at cycle  12 NSaved=  12.
 NSaved=12 IEnMin=11 EnMin= -348.152324362092     IErMin=12 ErrMin= 3.35D-08
 ErrMax= 3.35D-08  0.00D+00 EMaxC= 1.00D-01 BMatC= 5.46D-13 BMatP= 3.41D-12
 IDIUse=1 WtCom= 1.00D+00 WtEn= 0.00D+00
 Coeff-Com:  0.821D-06-0.145D-05 0.317D-06 0.226D-05 0.360D-04 0.263D-03
 Coeff-Com:  0.248D-03-0.596D-02-0.251D-01-0.202D-01 0.284D+00 0.766D+00
 Coeff:      0.821D-06-0.145D-05 0.317D-06 0.226D-05 0.360D-04 0.263D-03
 Coeff:      0.248D-03-0.596D-02-0.251D-01-0.202D-01 0.284D+00 0.766D+00
 Gap=     0.330 Goal=   None    Shift=    0.000
 RMSDP=4.93D-09 MaxDP=5.64D-07 DE= 1.82D-11 OVMax= 2.33D-07

 SCF Done:  E(RM062X) =  -348.152324362     A.U. after   12 cycles
            NFock= 12  Conv=0.49D-08     -V/T= 2.0038
 KE= 3.468364698564D+02 PE=-1.512520343561D+03 EE= 4.679728151047D+02
 Leave Link  502 at Tue Feb 19 17:59:02 2019, MaxMem=   671088640 cpu:            2212.5 elap:             110.7
 (Enter /shared/centos7/gaussian/g16/l801.exe)
 DoSCS=F DFT=T ScalE2(SS,OS)=  1.000000  1.000000
 Range of M.O.s used for correlation:     1   346
 NBasis=   346 NAE=    29 NBE=    29 NFC=     0 NFV=     0
 NROrb=    346 NOA=    29 NOB=    29 NVA=   317 NVB=   317

 **** Warning!!: The largest alpha MO coefficient is  0.80868312D+02

 Leave Link  801 at Tue Feb 19 17:59:02 2019, MaxMem=   671088640 cpu:               0.5 elap:               0.1
 (Enter /shared/centos7/gaussian/g16/l1101.exe)
 Using compressed storage, NAtomX=    19.
 Will process     20 centers per pass.
 Leave Link 1101 at Tue Feb 19 17:59:03 2019, MaxMem=   671088640 cpu:              12.3 elap:               0.7
 (Enter /shared/centos7/gaussian/g16/l1102.exe)
 Symmetrizing basis deriv contribution to polar:
 IMax=3 JMax=2 DiffMx= 0.00D+00
 Leave Link 1102 at Tue Feb 19 17:59:03 2019, MaxMem=   671088640 cpu:               0.8 elap:               0.1
 (Enter /shared/centos7/gaussian/g16/l1110.exe)
 Forming Gx(P) for the SCF density, NAtomX=    19.
 Integral derivatives from FoFJK, PRISM(SPDF).
 Do as many integral derivatives as possible in FoFJK.
 G2DrvN: MDV=     671087136.
 G2DrvN: will do    20 centers at a time, making    1 passes.
 Calling FoFCou, ICntrl=  3107 FMM=F I1Cent=   0 AccDes= 0.00D+00.
 FoFJK:  IHMeth= 1 ICntrl=    3107 DoSepK=F KAlg= 0 I1Cent=           0 FoldK=F
 IRaf=         0 NMat=       1 IRICut=       1 DoRegI=T DoRafI=F ISym2E= 0 IDoP0=0 IntGTp=1.
 FoFCou: FMM=F IPFlag=           0 FMFlag=      100000 FMFlg1=           0
         NFxFlg=           0 DoJE=F BraDBF=F KetDBF=F FulRan=T
         wScrn=  0.000000 ICntrl=      3107 IOpCl=  0 I1Cent=           0 NGrid=           0
         NMat0=    1 NMatS0=      1 NMatT0=    0 NMatD0=    1 NMtDS0=    0 NMtDT0=    0
 Symmetry not used in FoFCou.
 End of G2Drv F.D. properties file   721 does not exist.
 End of G2Drv F.D. properties file   722 does not exist.
 End of G2Drv F.D. properties file   788 does not exist.
 Leave Link 1110 at Tue Feb 19 18:03:26 2019, MaxMem=   671088640 cpu:            5257.2 elap:             262.9
 (Enter /shared/centos7/gaussian/g16/l1002.exe)
 Minotr:  Closed shell wavefunction.
          IDoAtm=1111111111111111111
          Direct CPHF calculation.
          Differentiating once with respect to electric field.
                with respect to dipole field.
          Differentiating once with respect to nuclear coordinates.
          Requested convergence is 1.0D-08 RMS, and 1.0D-07 maximum.
          Secondary convergence is 1.0D-12 RMS, and 1.0D-12 maximum.
          NewPWx=T KeepS1=F KeepF1=F KeepIn=T MapXYZ=F SortEE=F KeepMc=T.
         5782 words used for storage of precomputed grid.
 Two-electron integrals replicated using symmetry.
          MDV=     671088640 using IRadAn=       1.
          Solving linear equations simultaneously, MaxMat=     380.
 FoF2E skips out because all densities are zero.
 CalDSu exits because no D1Ps are significant.
 FoFJK:  IHMeth= 1 ICntrl=       0 DoSepK=F KAlg= 0 I1Cent=           0 FoldK=F
 IRaf= 970000000 NMat=      57 IRICut=     142 DoRegI=T DoRafI=T ISym2E= 2 IDoP0=3 IntGTp=3.
 FoFCou: FMM=F IPFlag=           0 FMFlag=      100000 FMFlg1=           0
         NFxFlg=           0 DoJE=F BraDBF=F KetDBF=F FulRan=T
         wScrn=  0.000000 ICntrl=         0 IOpCl=  0 I1Cent=           0 NGrid=           0
         NMat0=   57 NMatS0=     57 NMatT0=    0 NMatD0=   57 NMtDS0=    0 NMtDT0=    0
 Integrals replicated using symmetry in FoFCou.
 Raff kept on since  94.74% of shell-pairs survive, threshold=   0.20 IRatSp=95.
          There are    60 degrees of freedom in the 1st order CPHF.  IDoFFX=6 NUNeed=     3.
     57 vectors produced by pass  0 Test12= 1.53D-14 1.67D-09 XBig12= 3.01D+01 9.37D-01.
 AX will form    57 AO Fock derivatives at one time.
     57 vectors produced by pass  1 Test12= 1.53D-14 1.67D-09 XBig12= 1.74D+00 1.68D-01.
     57 vectors produced by pass  2 Test12= 1.53D-14 1.67D-09 XBig12= 2.70D-02 1.76D-02.
     57 vectors produced by pass  3 Test12= 1.53D-14 1.67D-09 XBig12= 2.48D-04 1.57D-03.
     57 vectors produced by pass  4 Test12= 1.53D-14 1.67D-09 XBig12= 1.14D-06 9.56D-05.
     57 vectors produced by pass  5 Test12= 1.53D-14 1.67D-09 XBig12= 4.12D-09 6.86D-06.
     27 vectors produced by pass  6 Test12= 1.53D-14 1.67D-09 XBig12= 1.58D-11 3.12D-07.
      3 vectors produced by pass  7 Test12= 1.53D-14 1.67D-09 XBig12= 5.54D-14 2.16D-08.
 InvSVY:  IOpt=1 It=  1 EMax= 4.44D-15
 Solved reduced A of dimension   372 with    60 vectors.
 FullF1:  Do perturbations      1 to       3.
 Isotropic polarizability for W=    0.000000       69.85 Bohr**3.
 End of Minotr F.D. properties file   721 does not exist.
 End of Minotr F.D. properties file   722 does not exist.
 End of Minotr F.D. properties file   788 does not exist.
 Leave Link 1002 at Tue Feb 19 18:10:57 2019, MaxMem=   671088640 cpu:            9015.5 elap:             450.8
 (Enter /shared/centos7/gaussian/g16/l601.exe)
 Copying SCF densities to generalized density rwf, IOpCl= 0 IROHF=0.

 **********************************************************************

            Population analysis using the SCF density.

 **********************************************************************

 Orbital symmetries:
       Occupied  (A) (A) (A) (A) (A) (A) (A) (A) (A) (A) (A) (A)
                 (A) (A) (A) (A) (A) (A) (A) (A) (A) (A) (A) (A)
                 (A) (A) (A) (A) (A)
       Virtual   (A) (A) (A) (A) (A) (A) (A) (A) (A) (A) (A) (A)
                 (A) (A) (A) (A) (A) (A) (A) (A) (A) (A) (A) (A)
                 (A) (A) (A) (A) (A) (A) (A) (A) (A) (A) (A) (A)
                 (A) (A) (A) (A) (A) (A) (A) (A) (A) (A) (A) (A)
                 (A) (A) (A) (A) (A) (A) (A) (A) (A) (A) (A) (A)
                 (A) (A) (A) (A) (A) (A) (A) (A) (A) (A) (A) (A)
                 (A) (A) (A) (A) (A) (A) (A) (A) (A) (A) (A) (A)
                 (A) (A) (A) (A) (A) (A) (A) (A) (A) (A) (A) (A)
                 (A) (A) (A) (A) (A) (A) (A) (A) (A) (A) (A) (A)
                 (A) (A) (A) (A) (A) (A) (A) (A) (A) (A) (A) (A)
                 (A) (A) (A) (A) (A) (A) (A) (A) (A) (A) (A) (A)
                 (A) (A) (A) (A) (A) (A) (A) (A) (A) (A) (A) (A)
                 (A) (A) (A) (A) (A) (A) (A) (A) (A) (A) (A) (A)
                 (A) (A) (A) (A) (A) (A) (A) (A) (A) (A) (A) (A)
                 (A) (A) (A) (A) (A) (A) (A) (A) (A) (A) (A) (A)
                 (A) (A) (A) (A) (A) (A) (A) (A) (A) (A) (A) (A)
                 (A) (A) (A) (A) (A) (A) (A) (A) (A) (A) (A) (A)
                 (A) (A) (A) (A) (A) (A) (A) (A) (A) (A) (A) (A)
                 (A) (A) (A) (A) (A) (A) (A) (A) (A) (A) (A) (A)
                 (A) (A) (A) (A) (A) (A) (A) (A) (A) (A) (A) (A)
                 (A) (A) (A) (A) (A) (A) (A) (A) (A) (A) (A) (A)
                 (A) (A) (A) (A) (A) (A) (A) (A) (A) (A) (A) (A)
                 (A) (A) (A) (A) (A) (A) (A) (A) (A) (A) (A) (A)
                 (A) (A) (A) (A) (A) (A) (A) (A) (A) (A) (A) (A)
                 (A) (A) (A) (A) (A) (A) (A) (A) (A) (A) (A) (A)
                 (A) (A) (A) (A) (A) (A) (A) (A) (A) (A) (A) (A)
                 (A) (A) (A) (A) (A)
 The electronic state is 1-A.
 Alpha  occ. eigenvalues --  -19.62627 -19.62307 -10.59284 -10.57887 -10.57542
 Alpha  occ. eigenvalues --  -10.52554 -10.52305  -1.16219  -1.14780  -0.89798
 Alpha  occ. eigenvalues --   -0.79737  -0.78134  -0.76684  -0.64254  -0.59214
 Alpha  occ. eigenvalues --   -0.57410  -0.55199  -0.53333  -0.51024  -0.49306
 Alpha  occ. eigenvalues --   -0.46182  -0.45348  -0.44607  -0.43807  -0.41879
 Alpha  occ. eigenvalues --   -0.41508  -0.37382  -0.36547  -0.31865
 Alpha virt. eigenvalues --    0.01108   0.02008   0.03100   0.03544   0.05201
 Alpha virt. eigenvalues --    0.05221   0.06027   0.06454   0.06810   0.08423
 Alpha virt. eigenvalues --    0.08878   0.09573   0.10294   0.11649   0.11721
 Alpha virt. eigenvalues --    0.12974   0.14487   0.15220   0.15479   0.17612
 Alpha virt. eigenvalues --    0.19530   0.19997   0.20393   0.21850   0.22266
 Alpha virt. eigenvalues --    0.22779   0.23416   0.24599   0.25253   0.25469
 Alpha virt. eigenvalues --    0.26923   0.27344   0.28269   0.28780   0.29455
 Alpha virt. eigenvalues --    0.30137   0.30779   0.31627   0.31851   0.32843
 Alpha virt. eigenvalues --    0.34108   0.34887   0.36570   0.37419   0.40016
 Alpha virt. eigenvalues --    0.41324   0.44304   0.45310   0.47032   0.47099
 Alpha virt. eigenvalues --    0.48236   0.48904   0.50402   0.53141   0.54206
 Alpha virt. eigenvalues --    0.55036   0.56796   0.57063   0.58607   0.58860
 Alpha virt. eigenvalues --    0.59093   0.60316   0.61008   0.61589   0.62141
 Alpha virt. eigenvalues --    0.62950   0.63728   0.64457   0.66869   0.67048
 Alpha virt. eigenvalues --    0.68318   0.69920   0.71203   0.72752   0.73029
 Alpha virt. eigenvalues --    0.77641   0.78746   0.81339   0.82885   0.83912
 Alpha virt. eigenvalues --    0.86115   0.88732   0.89724   0.94245   0.96421
 Alpha virt. eigenvalues --    0.97661   0.98818   0.99471   1.00422   1.02457
 Alpha virt. eigenvalues --    1.03083   1.05121   1.05693   1.07135   1.08419
 Alpha virt. eigenvalues --    1.10140   1.11167   1.12872   1.14123   1.15945
 Alpha virt. eigenvalues --    1.17771   1.17992   1.20025   1.20817   1.22469
 Alpha virt. eigenvalues --    1.24203   1.24800   1.25751   1.27172   1.28490
 Alpha virt. eigenvalues --    1.29151   1.30602   1.31144   1.33035   1.34115
 Alpha virt. eigenvalues --    1.34686   1.38111   1.38365   1.39170   1.40613
 Alpha virt. eigenvalues --    1.41171   1.42491   1.43161   1.44447   1.44596
 Alpha virt. eigenvalues --    1.46201   1.46606   1.48821   1.49141   1.50121
 Alpha virt. eigenvalues --    1.50939   1.53170   1.56110   1.57946   1.59522
 Alpha virt. eigenvalues --    1.61182   1.61483   1.62925   1.64803   1.65862
 Alpha virt. eigenvalues --    1.67458   1.67944   1.72849   1.76642   1.83978
 Alpha virt. eigenvalues --    1.85852   1.90474   1.97112   2.01030   2.06228
 Alpha virt. eigenvalues --    2.12243   2.18054   2.20582   2.30085   2.31316
 Alpha virt. eigenvalues --    2.33612   2.43752   2.45081   2.47019   2.52216
 Alpha virt. eigenvalues --    2.54586   2.58248   2.61301   2.66166   2.71901
 Alpha virt. eigenvalues --    2.73539   2.74451   2.76425   2.79384   2.84723
 Alpha virt. eigenvalues --    2.86551   2.87630   2.91113   2.95387   2.97150
 Alpha virt. eigenvalues --    2.98097   2.99573   3.01931   3.05660   3.06208
 Alpha virt. eigenvalues --    3.07262   3.10322   3.12545   3.15763   3.16531
 Alpha virt. eigenvalues --    3.17249   3.18889   3.20379   3.23005   3.26027
 Alpha virt. eigenvalues --    3.27257   3.29756   3.31077   3.32927   3.34535
 Alpha virt. eigenvalues --    3.36707   3.38362   3.40808   3.41030   3.42998
 Alpha virt. eigenvalues --    3.44647   3.46551   3.49252   3.52228   3.52594
 Alpha virt. eigenvalues --    3.54237   3.57204   3.57628   3.60637   3.62017
 Alpha virt. eigenvalues --    3.64614   3.66514   3.67530   3.69770   3.70882
 Alpha virt. eigenvalues --    3.74083   3.74972   3.75655   3.76426   3.79796
 Alpha virt. eigenvalues --    3.80261   3.83423   3.86017   3.89195   3.89712
 Alpha virt. eigenvalues --    3.90459   3.93231   3.95333   3.97452   4.00154
 Alpha virt. eigenvalues --    4.01785   4.04418   4.06069   4.09563   4.10249
 Alpha virt. eigenvalues --    4.11391   4.13863   4.16901   4.18410   4.21150
 Alpha virt. eigenvalues --    4.22956   4.23274   4.23898   4.24726   4.25472
 Alpha virt. eigenvalues --    4.28187   4.28995   4.32011   4.35076   4.35400
 Alpha virt. eigenvalues --    4.36576   4.38480   4.39820   4.40911   4.42892
 Alpha virt. eigenvalues --    4.47884   4.49219   4.51228   4.54171   4.55855
 Alpha virt. eigenvalues --    4.58266   4.60722   4.61027   4.64679   4.65325
 Alpha virt. eigenvalues --    4.66723   4.73729   4.92583   4.95242   4.98137
 Alpha virt. eigenvalues --    5.20798   5.22780   5.24887   5.26554   5.29032
 Alpha virt. eigenvalues --    5.33307   5.37465   5.41869   5.43256   5.46056
 Alpha virt. eigenvalues --    5.50303   5.54550   5.58046   5.59745   5.61237
 Alpha virt. eigenvalues --    5.62353   5.64943   5.66664   5.67790   5.70294
 Alpha virt. eigenvalues --    5.75022   5.82135   5.87989   5.94474   5.97880
 Alpha virt. eigenvalues --    6.22494   6.50332   6.55696   6.76186   7.00588
 Alpha virt. eigenvalues --    7.19143   7.19640   7.22740   7.25099   7.26078
 Alpha virt. eigenvalues --    7.41788   7.53793   7.64941   7.79303   7.80862
 Alpha virt. eigenvalues --   24.30164  24.44436  24.45730  24.47186  24.54469
 Alpha virt. eigenvalues --   50.17365  50.24808
          Condensed to atoms (all electrons):
               1          2          3          4          5          6
     1  O    8.249940   0.005981   0.234985  -0.116588  -0.098715  -0.070727
     2  O    0.005981   8.048557   0.110193   0.105623  -0.069280  -0.009143
     3  C    0.234985   0.110193   6.518415   0.040429  -0.327714  -0.160475
     4  C   -0.116588   0.105623   0.040429   5.378936  -0.107001  -0.003635
     5  C   -0.098715  -0.069280  -0.327714  -0.107001   5.856644  -0.002911
     6  C   -0.070727  -0.009143  -0.160475  -0.003635  -0.002911   5.583590
     7  C    0.087552   0.000620  -0.038655  -0.017991  -0.031006  -0.023463
     8  H   -0.006722  -0.030123   0.023360   0.419888  -0.038326  -0.000838
     9  H   -0.003080  -0.051252  -0.025487   0.438028   0.018401  -0.024854
    10  H   -0.013078  -0.001537   0.011507  -0.010337   0.381189   0.015518
    11  H   -0.011449  -0.000612   0.003283   0.020214   0.385760  -0.016568
    12  H    0.016787   0.001812  -0.114621  -0.006659   0.471575   0.008805
    13  H   -0.009242  -0.002047   0.069783  -0.048482   0.021706   0.352853
    14  H    0.009702  -0.008191  -0.055327   0.006705  -0.007358   0.429312
    15  H    0.000635   0.000121  -0.079036   0.028050  -0.016791   0.455479
    16  H   -0.053231  -0.000761   0.052019  -0.015278  -0.008674  -0.013212
    17  H   -0.067776  -0.000037   0.022212  -0.002828   0.002174  -0.004462
    18  H   -0.040393   0.000282  -0.051915   0.012415   0.002395   0.013872
    19  H    0.000439   0.246222   0.017054  -0.027854   0.023456  -0.026926
               7          8          9         10         11         12
     1  O    0.087552  -0.006722  -0.003080  -0.013078  -0.011449   0.016787
     2  O    0.000620  -0.030123  -0.051252  -0.001537  -0.000612   0.001812
     3  C   -0.038655   0.023360  -0.025487   0.011507   0.003283  -0.114621
     4  C   -0.017991   0.419888   0.438028  -0.010337   0.020214  -0.006659
     5  C   -0.031006  -0.038326   0.018401   0.381189   0.385760   0.471575
     6  C   -0.023463  -0.000838  -0.024854   0.015518  -0.016568   0.008805
     7  C    5.038727   0.002403  -0.006851  -0.001334  -0.000813   0.000851
     8  H    0.002403   0.485726  -0.028322  -0.000548  -0.000131   0.000814
     9  H   -0.006851  -0.028322   0.505024   0.000256  -0.000312  -0.000221
    10  H   -0.001334  -0.000548   0.000256   0.487323  -0.019229  -0.030661
    11  H   -0.000813  -0.000131  -0.000312  -0.019229   0.490404  -0.023800
    12  H    0.000851   0.000814  -0.000221  -0.030661  -0.023800   0.520947
    13  H   -0.001896   0.000187   0.000664  -0.000432   0.000100   0.000006
    14  H    0.001404  -0.000255   0.000921   0.000034   0.000144   0.000706
    15  H   -0.009862  -0.000344  -0.000218   0.000065   0.001497   0.000827
    16  H    0.415107   0.000109  -0.001766   0.000012   0.000012   0.000006
    17  H    0.435535  -0.000052   0.000236  -0.000054  -0.000013   0.000015
    18  H    0.444183  -0.000102   0.000482   0.000058  -0.000018   0.000008
    19  H    0.001309  -0.009874   0.008495  -0.000896  -0.000195  -0.001233
              13         14         15         16         17         18
     1  O   -0.009242   0.009702   0.000635  -0.053231  -0.067776  -0.040393
     2  O   -0.002047  -0.008191   0.000121  -0.000761  -0.000037   0.000282
     3  C    0.069783  -0.055327  -0.079036   0.052019   0.022212  -0.051915
     4  C   -0.048482   0.006705   0.028050  -0.015278  -0.002828   0.012415
     5  C    0.021706  -0.007358  -0.016791  -0.008674   0.002174   0.002395
     6  C    0.352853   0.429312   0.455479  -0.013212  -0.004462   0.013872
     7  C   -0.001896   0.001404  -0.009862   0.415107   0.435535   0.444183
     8  H    0.000187  -0.000255  -0.000344   0.000109  -0.000052  -0.000102
     9  H    0.000664   0.000921  -0.000218  -0.001766   0.000236   0.000482
    10  H   -0.000432   0.000034   0.000065   0.000012  -0.000054   0.000058
    11  H    0.000100   0.000144   0.001497   0.000012  -0.000013  -0.000018
    12  H    0.000006   0.000706   0.000827   0.000006   0.000015   0.000008
    13  H    0.508145  -0.022824  -0.029480  -0.003108   0.000235  -0.005741
    14  H   -0.022824   0.482277  -0.020343  -0.000064   0.000028   0.000243
    15  H   -0.029480  -0.020343   0.487665   0.001024  -0.000162  -0.001919
    16  H   -0.003108  -0.000064   0.001024   0.570478  -0.022915  -0.053684
    17  H    0.000235   0.000028  -0.000162  -0.022915   0.516629  -0.026160
    18  H   -0.005741   0.000243  -0.001919  -0.053684  -0.026160   0.571065
    19  H    0.000273   0.000189  -0.000039  -0.000033   0.000005  -0.000000
              19
     1  O    0.000439
     2  O    0.246222
     3  C    0.017054
     4  C   -0.027854
     5  C    0.023456
     6  C   -0.026926
     7  C    0.001309
     8  H   -0.009874
     9  H    0.008495
    10  H   -0.000896
    11  H   -0.000195
    12  H   -0.001233
    13  H    0.000273
    14  H    0.000189
    15  H   -0.000039
    16  H   -0.000033
    17  H    0.000005
    18  H   -0.000000
    19  H    0.522970
 Mulliken charges:
               1
     1  O   -0.115021
     2  O   -0.346429
     3  C   -0.250011
     4  C   -0.093637
     5  C   -0.455526
     6  C   -0.502215
     7  C   -0.295820
     8  H    0.183150
     9  H    0.169857
    10  H    0.182143
    11  H    0.171727
    12  H    0.154035
    13  H    0.169301
    14  H    0.182699
    15  H    0.182831
    16  H    0.133958
    17  H    0.147392
    18  H    0.134929
    19  H    0.246638
 Sum of Mulliken charges =  -0.00000
 Mulliken charges with hydrogens summed into heavy atoms:
               1
     1  O   -0.115021
     2  O   -0.099791
     3  C   -0.250011
     4  C    0.259370
     5  C    0.052379
     6  C    0.032615
     7  C    0.120458
 APT charges:
               1
     1  O   -0.772581
     2  O   -0.611532
     3  C    0.486649
     4  C    0.397489
     5  C   -0.021849
     6  C   -0.056206
     7  C    0.446071
     8  H   -0.047910
     9  H   -0.018449
    10  H   -0.001659
    11  H    0.005759
    12  H   -0.003877
    13  H   -0.006434
    14  H    0.027355
    15  H   -0.003330
    16  H   -0.036347
    17  H   -0.008183
    18  H   -0.037169
    19  H    0.262203
 Sum of APT charges =   0.00000
 APT charges with hydrogens summed into heavy atoms:
               1
     1  O   -0.772581
     2  O   -0.349329
     3  C    0.486649
     4  C    0.331130
     5  C   -0.021626
     6  C   -0.038615
     7  C    0.364372
 Electronic spatial extent (au):  <R**2>=            840.9416
 Charge=              0.0000 electrons
 Dipole moment (field-independent basis, Debye):
    X=              0.2492    Y=              0.3681    Z=             -0.0302  Tot=              0.4455
 Quadrupole moment (field-independent basis, Debye-Ang):
   XX=            -44.2238   YY=            -45.9723   ZZ=            -45.9242
   XY=             -5.5411   XZ=              4.0058   YZ=              1.1779
 Traceless Quadrupole moment (field-independent basis, Debye-Ang):
   XX=              1.1496   YY=             -0.5989   ZZ=             -0.5508
   XY=             -5.5411   XZ=              4.0058   YZ=              1.1779
 Octapole moment (field-independent basis, Debye-Ang**2):
  XXX=             -1.0259  YYY=             -2.1998  ZZZ=             -3.5306  XYY=              4.6627
  XXY=              5.5143  XXZ=             -6.5454  XZZ=             -2.7130  YZZ=             -1.2250
  YYZ=             -0.1525  XYZ=              0.0108
 Hexadecapole moment (field-independent basis, Debye-Ang**3):
 XXXX=           -525.0419 YYYY=           -297.8129 ZZZZ=           -231.3288 XXXY=            -24.1017
 XXXZ=              7.9182 YYYX=              4.1413 YYYZ=              0.0172 ZZZX=              0.4724
 ZZZY=             -0.7730 XXYY=           -159.8515 XXZZ=           -131.1076 YYZZ=            -89.3603
 XXYZ=              6.5201 YYXZ=              0.5464 ZZXY=              1.5169
 N-N= 3.495587342374D+02 E-N=-1.512520346598D+03  KE= 3.468364698564D+02
  Exact polarizability:  75.345  -3.266  67.932   0.607   0.118  66.281
 Approx polarizability:  82.927  -2.242  79.107  -0.552  -0.918  78.851
 No NMR shielding tensors so no spin-rotation constants.
 Leave Link  601 at Tue Feb 19 18:10:57 2019, MaxMem=   671088640 cpu:               7.0 elap:               0.4
 (Enter /shared/centos7/gaussian/g16/l701.exe)
 SCFChk:  SCF convergence  4.93D-09 required  1.00D-08
 ... and contract with generalized density number  0.
 Compute integral second derivatives.
 Entering OneElI...
 Calculate overlap and kinetic energy integrals
    NBasis = 381  MinDer = 2  MaxDer = 2
 Requested accuracy = 0.1000D-12
 PrmmSu-InSpLW:  IPartL=    0 NPrtUS=   20 NPrtUL=    1 DoSpLW=F IThBeg=    0 IThEnd=   19 NThAct=   20.
 PrsmSu:  NPrtUS=  20 ThrOK=T IAlg=1 NPAlg=1 LenDen=           0 ISkipM=0 DoSpLW=F IThBeg=    0 IThEnd=   19.
 Prism:   IPart=     0 DynPar=F LinDyn=F Incr=           3.
 PRISM was handed    33375966 working-precision words and  6766 shell-pairs
 PRISM was handed    33375966 working-precision words and  6766 shell-pairs
 PRISM was handed    33375966 working-precision words and  6766 shell-pairs
 PRISM was handed    33375966 working-precision words and  6766 shell-pairs
 PRISM was handed    33375966 working-precision words and  6766 shell-pairs
 PRISM was handed    33375966 working-precision words and  6766 shell-pairs
 PRISM was handed    33375966 working-precision words and  6766 shell-pairs
 PRISM was handed    33375966 working-precision words and  6766 shell-pairs
 PRISM was handed    33375966 working-precision words and  6766 shell-pairs
 PRISM was handed    33375966 working-precision words and  6766 shell-pairs
 PRISM was handed    33375966 working-precision words and  6766 shell-pairs
 PRISM was handed    33375966 working-precision words and  6766 shell-pairs
 PRISM was handed    33375966 working-precision words and  6766 shell-pairs
 PRISM was handed    33375966 working-precision words and  6766 shell-pairs
 PRISM was handed    33375966 working-precision words and  6766 shell-pairs
 PRISM was handed    33375966 working-precision words and  6766 shell-pairs
 PRISM was handed    33375966 working-precision words and  6766 shell-pairs
 PRISM was handed    33375966 working-precision words and  6766 shell-pairs
 PRISM was handed    33375966 working-precision words and  6766 shell-pairs
 PRISM was handed    33375966 working-precision words and  6766 shell-pairs
 IPart=  0 NShTot=         374 NBatch=          66 AvBLen=         5.7
 IPart= 15 NShTot=         319 NBatch=          37 AvBLen=         8.6
 IPart= 16 NShTot=         319 NBatch=          37 AvBLen=         8.6
 IPart= 18 NShTot=         316 NBatch=          37 AvBLen=         8.5
 IPart= 19 NShTot=         316 NBatch=          37 AvBLen=         8.5
 IPart= 17 NShTot=         317 NBatch=          37 AvBLen=         8.6
 IPart= 10 NShTot=         332 NBatch=          42 AvBLen=         7.9
 IPart=  4 NShTot=         358 NBatch=          54 AvBLen=         6.6
 IPart=  7 NShTot=         344 NBatch=          47 AvBLen=         7.3
 IPart= 14 NShTot=         324 NBatch=          37 AvBLen=         8.8
 IPart=  8 NShTot=         338 NBatch=          46 AvBLen=         7.3
 IPart=  5 NShTot=         354 NBatch=          53 AvBLen=         6.7
 IPart=  1 NShTot=         364 NBatch=          57 AvBLen=         6.4
 IPart=  2 NShTot=         361 NBatch=          55 AvBLen=         6.6
 IPart= 12 NShTot=         328 NBatch=          39 AvBLen=         8.4
 IPart=  6 NShTot=         351 NBatch=          50 AvBLen=         7.0
 IPart=  9 NShTot=         335 NBatch=          44 AvBLen=         7.6
 IPart=  3 NShTot=         361 NBatch=          55 AvBLen=         6.6
 IPart= 11 NShTot=         329 NBatch=          40 AvBLen=         8.2
 IPart= 13 NShTot=         326 NBatch=          38 AvBLen=         8.6
 PrSmSu:  NxtVal=             61.
 Entering OneElI...
 Calculate potential energy integrals
    NBasis = 381  MinDer = 2  MaxDer = 2
 Requested accuracy = 0.1000D-12
 PrmmSu-InSpLW:  IPartL=    0 NPrtUS=   20 NPrtUL=    1 DoSpLW=F IThBeg=    0 IThEnd=   19 NThAct=   20.
 PrsmSu:  NPrtUS=  20 ThrOK=T IAlg=1 NPAlg=1 LenDen=           0 ISkipM=0 DoSpLW=F IThBeg=    0 IThEnd=   19.
 Prism:   IPart=     0 DynPar=F LinDyn=F Incr=          60.
 PRISM was handed    33402564 working-precision words and  6372 shell-pairs
 PRISM was handed    33402564 working-precision words and  6372 shell-pairs
 PRISM was handed    33402564 working-precision words and  6372 shell-pairs
 PRISM was handed    33402564 working-precision words and  6372 shell-pairs
 PRISM was handed    33402564 working-precision words and  6372 shell-pairs
 PRISM was handed    33402564 working-precision words and  6372 shell-pairs
 PRISM was handed    33402564 working-precision words and  6372 shell-pairs
 PRISM was handed    33402564 working-precision words and  6372 shell-pairs
 PRISM was handed    33402564 working-precision words and  6372 shell-pairs
 PRISM was handed    33402564 working-precision words and  6372 shell-pairs
 PRISM was handed    33402564 working-precision words and  6372 shell-pairs
 PRISM was handed    33402564 working-precision words and  6372 shell-pairs
 PRISM was handed    33402564 working-precision words and  6372 shell-pairs
 PRISM was handed    33402564 working-precision words and  6372 shell-pairs
 PRISM was handed    33402564 working-precision words and  6372 shell-pairs
 PRISM was handed    33402564 working-precision words and  6372 shell-pairs
 PRISM was handed    33402564 working-precision words and  6372 shell-pairs
 PRISM was handed    33402564 working-precision words and  6372 shell-pairs
 PRISM was handed    33402564 working-precision words and  6372 shell-pairs
 PRISM was handed    33402564 working-precision words and  6372 shell-pairs
 IPart= 16 NShTot=        5719 NBatch=         301 AvBLen=        19.0
 IPart= 18 NShTot=        5700 NBatch=         300 AvBLen=        19.0
 IPart= 17 NShTot=        5719 NBatch=         301 AvBLen=        19.0
 IPart= 19 NShTot=        5624 NBatch=         296 AvBLen=        19.0
 IPart= 15 NShTot=        5757 NBatch=         303 AvBLen=        19.0
 IPart=  0 NShTot=        6726 NBatch=         354 AvBLen=        19.0
 IPart=  4 NShTot=        6308 NBatch=         332 AvBLen=        19.0
 IPart=  2 NShTot=        6479 NBatch=         341 AvBLen=        19.0
 IPart=  5 NShTot=        6289 NBatch=         331 AvBLen=        19.0
 IPart= 12 NShTot=        5909 NBatch=         311 AvBLen=        19.0
 IPart= 14 NShTot=        5795 NBatch=         305 AvBLen=        19.0
 IPart=  7 NShTot=        6080 NBatch=         320 AvBLen=        19.0
 IPart=  6 NShTot=        6194 NBatch=         326 AvBLen=        19.0
 IPart=  1 NShTot=        6612 NBatch=         348 AvBLen=        19.0
 IPart=  9 NShTot=        6004 NBatch=         316 AvBLen=        19.0
 IPart=  3 NShTot=        6346 NBatch=         334 AvBLen=        19.0
 IPart=  8 NShTot=        6023 NBatch=         317 AvBLen=        19.0
 IPart= 11 NShTot=        5966 NBatch=         314 AvBLen=        19.0
 IPart= 10 NShTot=        5966 NBatch=         314 AvBLen=        19.0
 IPart= 13 NShTot=        5852 NBatch=         308 AvBLen=        19.0
 PrSmSu:  NxtVal=           1201.
 Polarizability after L701:
                1             2             3 
      1  0.753452D+02
      2 -0.326619D+01  0.679320D+02
      3  0.606943D+00  0.117924D+00  0.662809D+02
 Dipole Derivatives after L701:
                 1             2             3             4             5 
      1  -0.117300D+01  0.265474D+00  0.271901D-01 -0.100978D+01 -0.974747D-01
      2   0.275772D+00 -0.608910D+00  0.251920D-01 -0.126887D+00 -0.407429D+00
      3   0.185760D-01  0.351419D-01 -0.535830D+00  0.882168D-01 -0.119310D+00
                 6             7             8             9            10 
      1   0.101700D+00  0.759192D+00 -0.903283D-01 -0.192483D+00  0.717656D+00
      2  -0.899643D-01 -0.136426D+00  0.305866D+00  0.456267D-01  0.111625D+00
      3  -0.417386D+00 -0.578701D-01  0.197397D-01  0.394890D+00 -0.948924D-01
                11            12            13            14            15 
      1  -0.174096D-01 -0.127982D+00 -0.993102D-02  0.508841D-01 -0.395579D-01
      2   0.189373D+00 -0.864804D-02  0.236229D-01 -0.847550D-01  0.341941D-01
      3   0.310032D-01  0.285439D+00 -0.225710D-01  0.245550D-01  0.291385D-01
                16            17            18            19            20 
      1  -0.417327D-01  0.198168D-02  0.722712D-01  0.565231D+00 -0.272452D+00
      2   0.164359D-01  0.249812D-01 -0.177777D-01 -0.168300D+00  0.450559D+00
      3  -0.211439D-01 -0.685927D-02 -0.151867D+00  0.865768D-01 -0.250892D-01
                21            22            23            24            25 
      1   0.219801D+00 -0.215456D-01 -0.106964D-01  0.241620D-01 -0.373780D-02
      2  -0.940255D-01 -0.131532D-01  0.458286D-01 -0.370546D-01  0.434469D-01
      3   0.322421D+00 -0.900268D-02  0.411388D-02 -0.168014D+00 -0.851376D-02
                26            27            28            29            30 
      1   0.801415D-01 -0.325253D-01  0.695993D-01  0.871739D-02 -0.363061D-01
      2  -0.842522D-01  0.659231D-01  0.960374D-02  0.486798D-01  0.221934D-01
      3   0.332300D-01  0.326424D-01 -0.110369D-01 -0.305753D-01 -0.123256D+00
                31            32            33            34            35 
      1   0.153690D-01 -0.469868D-01 -0.373667D-01 -0.109450D+00  0.142309D-01
      2  -0.995810D-01 -0.502905D-01 -0.439756D-01  0.451270D-01  0.635042D-01
      3  -0.299536D-01 -0.203811D-01  0.521981D-01  0.445084D-01  0.124535D-01
                36            37            38            39            40 
      1   0.726980D-01  0.488724D-01  0.679056D-01 -0.368327D-01 -0.506513D-01
      2  -0.333652D-02  0.539154D-01 -0.804598D-01  0.354692D-01  0.395641D-01
      3   0.343146D-01 -0.532825D-01  0.659269D-01  0.122852D-01  0.786115D-01
                41            42            43            44            45 
      1   0.364693D-01  0.422544D-01  0.546235D-02 -0.878589D-01 -0.271642D-01
      2   0.736931D-01 -0.760006D-02 -0.884195D-01 -0.400002D-01 -0.168744D-01
      3  -0.131024D-01  0.590245D-01 -0.567563D-01 -0.499076D-01  0.245474D-01
                46            47            48            49            50 
      1  -0.107026D-01 -0.214918D-04 -0.416701D-01 -0.793333D-01  0.163620D-01
      2  -0.917699D-01 -0.137934D+00  0.335975D-01  0.439232D-01  0.614441D-01
      3  -0.456484D-04  0.206020D-01  0.395962D-01  0.615524D-01  0.145596D-01
                51            52            53            54            55 
      1   0.111953D+00  0.103568D-02  0.206130D-02 -0.130700D+00  0.327451D+00
      2  -0.109988D-01  0.155840D-01 -0.341626D-02 -0.108548D-01  0.459173D-01
      3  -0.665972D-02 -0.387926D-01 -0.760832D-01 -0.109126D+00  0.258193D-01
                56            57 
      1   0.790007D-01  0.305591D-01
      2   0.233518D+00  0.789142D-01
      3   0.799827D-01  0.225641D+00
 Hessian after L701:
                1             2             3             4             5 
      1  0.390988D+01
      2  0.359365D+01  0.123306D+02
      3  0.174703D+01  0.852911D+00  0.127343D+02
      4  0.309157D+00  0.124839D+00 -0.159678D+00  0.477832D+01
      5  0.177343D+00 -0.174971D+00 -0.494498D-01  0.840346D+00  0.111329D+02
      6 -0.146785D+00 -0.328990D-01 -0.182700D+00  0.583230D+00  0.142454D+01
      7 -0.138931D+01 -0.637703D+00 -0.287841D+01  0.232326D+00  0.753625D+00
      8 -0.702661D+00 -0.811996D+01  0.225750D-01  0.763493D+00 -0.160554D+00
      9 -0.287596D+01  0.136158D-01 -0.713548D+01 -0.127304D+00 -0.183030D+00
     10  0.900751D-01  0.339226D+00  0.261283D+00 -0.873640D+00 -0.287242D+00
     11  0.237649D+00  0.239189D+00  0.668190D-01 -0.258220D+00 -0.719850D+01
     12  0.129402D+00 -0.291468D-02 -0.740081D-01 -0.198819D+01  0.534363D-01
     13  0.303686D+00 -0.425192D+00  0.232826D-01 -0.132353D+00  0.294592D+00
     14 -0.271496D+00  0.329614D+00  0.499474D-01  0.782449D-01  0.215891D+00
     15 -0.326403D-01  0.861111D-01  0.138847D-01  0.870283D-01  0.485917D-01
     16 -0.110716D+00 -0.113872D+00 -0.314079D+00  0.219806D+00  0.379395D+00
     17 -0.638244D-01 -0.919314D-01  0.133563D+00  0.301250D+00 -0.296310D-01
     18 -0.228518D+00  0.207829D+00  0.665442D+00  0.205484D+00  0.177551D+00
     19 -0.359808D+01 -0.337928D+01  0.176104D+01  0.145351D+00  0.109119D-01
     20 -0.338386D+01 -0.473710D+01 -0.168487D+01  0.322008D-01 -0.989150D-01
     21  0.174235D+01 -0.168418D+01 -0.663356D+01 -0.320041D-01 -0.521987D-02
     22  0.228899D-01  0.464842D-01  0.218535D-01 -0.138529D+00 -0.205258D-01
     23  0.473186D-01  0.619553D-02  0.166873D-01 -0.110728D-01  0.431225D-01
     24  0.774562D-01  0.483022D-01  0.355306D-02  0.252445D-01  0.226112D-01
     25 -0.268018D-01  0.478401D-02  0.362320D-02 -0.194870D+00 -0.225337D-01
     26  0.606635D-01  0.402167D-01 -0.157313D-01 -0.308425D-01  0.250107D+00
     27 -0.157710D-01 -0.212696D-01 -0.283406D-01  0.198331D+00 -0.101124D+00
     28  0.217681D-01 -0.455572D-01 -0.146905D-02 -0.144059D-01  0.199575D-01
     29 -0.288799D-01  0.242649D-01  0.810492D-03  0.149129D-01  0.149611D-01
     30  0.430246D-01 -0.453952D-01  0.321268D-02 -0.185542D-01 -0.589234D-01
     31 -0.144227D-02 -0.896505D-03  0.471246D-02  0.245757D-02  0.378207D-01
     32 -0.571475D-01  0.504825D-01  0.617212D-03  0.271628D-01  0.449752D-01
     33 -0.112379D-01  0.187251D-01 -0.159930D-01  0.799979D-03  0.550565D-02
     34  0.235117D+00 -0.151044D+00 -0.627682D-01 -0.618867D-01 -0.561455D-01
     35 -0.159884D+00 -0.129665D-01  0.333329D-01  0.184947D-01  0.118675D+00
     36 -0.553147D-01  0.276973D-01 -0.756339D-01 -0.410470D-02  0.784794D-02
     37 -0.123697D-01 -0.883603D-02  0.567736D-02  0.259815D-01  0.813761D-02
     38  0.894843D-02 -0.110773D-01 -0.270889D-01 -0.226879D-01 -0.301965D-01
     39 -0.178066D-01  0.161696D-01  0.237217D-01  0.320188D-01  0.747229D-02
     40  0.897023D-01 -0.205894D-01 -0.158584D+00 -0.470389D-01 -0.262086D-01
     41 -0.214421D-01 -0.588648D-01  0.220740D-01  0.178069D-01 -0.474436D-02
     42 -0.152442D+00  0.176241D-01  0.886277D-01  0.359333D-01  0.566997D-01
     43 -0.418837D-01  0.330838D-03 -0.146331D-01  0.200965D-01  0.355185D-01
     44 -0.298943D-01 -0.244963D-01  0.781344D-01  0.315650D-01  0.147563D-01
     45 -0.624302D-01  0.358532D-01  0.888673D-01  0.250697D-01  0.239060D-01
     46  0.385790D-01  0.303831D+00 -0.160722D+00  0.771699D-02 -0.218709D-02
     47  0.269470D+00  0.257273D+00  0.217416D+00 -0.266311D-01 -0.111612D-01
     48 -0.106955D+00  0.168331D+00  0.221190D-01  0.231639D-02 -0.185035D-03
     49 -0.118944D-01  0.135021D+00 -0.147376D+00  0.218518D-01  0.452353D-02
     50  0.158271D+00  0.433340D-01  0.426232D-01  0.495581D-03 -0.694559D-02
     51 -0.170560D+00  0.618324D-01  0.207858D+00 -0.123090D-01 -0.316484D-02
     52  0.119864D+00  0.228935D+00  0.738887D-01  0.273028D-01  0.684577D-02
     53  0.180662D+00 -0.742241D-01  0.240809D+00  0.667154D-02 -0.739753D-02
     54  0.128077D+00  0.232841D+00  0.308208D+00  0.203286D-01  0.662164D-02
     55  0.517792D-01  0.586897D-02 -0.467104D-02 -0.432765D+01 -0.215417D+01
     56 -0.148899D-01 -0.156034D-01 -0.117553D-02 -0.190803D+01 -0.411235D+01
     57  0.908099D-02 -0.118208D-02 -0.140427D-01  0.112635D+01 -0.143369D+01
                6             7             8             9            10 
      6  0.127721D+02
      7 -0.124718D+00  0.166167D+02
      8 -0.226599D+00 -0.707935D-02  0.209110D+02
      9 -0.552851D+00  0.154475D+01  0.734205D+00  0.210846D+02
     10 -0.210417D+01 -0.447639D+01  0.249965D+01  0.782845D+00  0.140532D+02
     11  0.952507D-02  0.247809D+01 -0.401669D+01  0.738309D+00 -0.155264D+01
     12 -0.660193D+01  0.768728D+00  0.771091D+00 -0.669351D+01  0.663206D+00
     13  0.326998D-01 -0.521519D+01 -0.185674D+01  0.808436D+00  0.814787D-01
     14  0.911392D-01 -0.189216D+01 -0.239582D+01 -0.145720D+01  0.205997D+00
     15 -0.186392D+00  0.811561D+00 -0.141573D+01 -0.546851D+01 -0.431903D-01
     16  0.329466D+00 -0.633729D+01 -0.877608D-01  0.176502D+00  0.340014D-01
     17  0.208007D+00 -0.860221D-01 -0.626380D+01  0.783018D-01  0.939783D-01
     18 -0.108316D+00  0.103499D+00 -0.311050D-02 -0.116790D+01  0.107092D+00
     19 -0.135965D-01  0.359352D+00 -0.397912D+00 -0.245903D+00  0.263087D+00
     20 -0.218903D-02 -0.365393D+00  0.175730D-01  0.777739D-01  0.152404D+00
     21 -0.966422D-01 -0.235380D+00  0.824278D-01 -0.973092D-01  0.631442D-01
     22  0.582093D-01 -0.134911D-01 -0.100345D-01 -0.876855D-01 -0.489327D+01
     23  0.314177D-01 -0.119266D-01  0.611807D-01 -0.735565D-01 -0.592867D-01
     24  0.343010D+00 -0.308100D-01  0.339144D-01 -0.732591D-01 -0.307203D+00
     25  0.143537D+00  0.117149D+00 -0.560566D-01  0.274131D-01 -0.418932D+01
     26 -0.941379D-01  0.501314D-01 -0.182144D+00  0.881637D-01 -0.158570D+01
     27  0.854368D-01  0.227903D-01  0.284022D-01  0.110076D+00  0.442955D+00
     28 -0.114666D-01  0.125767D-01 -0.361173D-01  0.672772D-02 -0.286003D-03
     29 -0.162327D-01 -0.297253D-01 -0.317522D-01  0.866035D-01  0.588057D-02
     30  0.130239D-01  0.439493D-01  0.913368D-02 -0.378731D-01 -0.157970D-01
     31 -0.305841D-02 -0.376316D-02 -0.132060D-02  0.160102D-01 -0.439513D-01
     32 -0.403614D-02 -0.884896D-01 -0.225049D-01  0.919928D-02  0.838483D-01
     33 -0.156576D-01  0.268191D-01  0.607836D-01 -0.269294D-01  0.378590D-02
     34  0.279547D-02 -0.863776D-01  0.160012D+00  0.357596D-01 -0.136907D-01
     35 -0.285981D-01  0.233623D+00  0.138547D+00 -0.558941D-01  0.152892D-01
     36 -0.576673D-01 -0.188731D-02 -0.297547D-01  0.226853D+00 -0.321152D-02
     37  0.378799D-01 -0.111865D+00 -0.572702D-02  0.280853D-01  0.598914D-01
     38 -0.181710D-01 -0.684280D-02 -0.101212D+00 -0.153651D-01 -0.109278D-01
     39  0.216965D-02 -0.124152D-01  0.741624D-01 -0.653436D-01 -0.608137D-01
     40 -0.179389D-01  0.131153D-01  0.296690D-01  0.755381D-01 -0.458936D-01
     41  0.477538D-01  0.221584D-01  0.605860D-01 -0.969719D-02  0.799447D-02
     42  0.538500D-01  0.171335D+00 -0.361846D-01  0.901032D-03  0.183951D-01
     43  0.238438D-01  0.730671D-01 -0.731631D-01 -0.101961D+00 -0.179249D-02
     44  0.218799D-01 -0.829512D-01  0.832950D-01 -0.848897D-01  0.107466D+00
     45  0.888822D-03 -0.175483D+00 -0.149588D+00  0.403657D-01  0.111469D+00
     46  0.291626D-02  0.156083D-01 -0.140034D+00  0.312785D-02  0.356870D-01
     47  0.303512D-03 -0.232773D+00  0.746001D-01  0.733958D-02 -0.709142D-01
     48 -0.135601D-01  0.917763D-02 -0.299108D-02 -0.140720D+00  0.141209D-03
     49 -0.659526D-02  0.194106D+00 -0.747660D-01 -0.997037D-01  0.409305D-01
     50 -0.407689D-03 -0.626894D-01 -0.591286D-01  0.268759D-01  0.690662D-02
     51 -0.366812D-02 -0.108450D+00  0.365344D-01 -0.316062D-01 -0.197187D-01
     52  0.615443D-02 -0.850109D-01 -0.955388D-02 -0.752644D-01  0.779648D-01
     53  0.188132D-02  0.225925D-01  0.726962D-01  0.158490D-01  0.204226D-01
     54 -0.592181D-02 -0.412285D-01 -0.102438D-01  0.457153D-01  0.768390D-01
     55  0.120760D+01  0.846388D-01  0.610257D-02  0.108588D+00 -0.198037D+00
     56 -0.141318D+01 -0.564684D-01 -0.659404D-01  0.340116D-02  0.276499D-01
     57 -0.544514D+01  0.106175D+00  0.209751D-01 -0.171813D-01  0.229521D-01
               11            12            13            14            15 
     11  0.180174D+02
     12 -0.473775D+00  0.197945D+02
     13  0.209039D+00 -0.469901D-01  0.145500D+02
     14  0.354089D+00 -0.204806D+00  0.134569D+01  0.128180D+02
     15 -0.984271D-01 -0.141352D-01 -0.613167D+00  0.112019D+01  0.155113D+02
     16  0.312292D-01  0.535398D-01 -0.756073D-01 -0.587651D-01  0.127722D+00
     17 -0.231694D-01  0.914701D-01 -0.702575D-01 -0.338817D-01 -0.255791D+00
     18  0.542109D-01 -0.195185D-01  0.920373D-01 -0.146637D+00  0.607083D-01
     19  0.121643D-01  0.832805D-01  0.847322D-01 -0.115034D+00  0.266414D-01
     20 -0.181983D+00 -0.676274D-02 -0.122021D+00  0.255723D-02 -0.219352D-01
     21 -0.320812D-02 -0.158747D+00  0.170324D-01 -0.154168D-01 -0.878663D-01
     22 -0.236161D-01 -0.132086D+00  0.636841D-01 -0.391327D-01 -0.142073D-01
     23 -0.489144D+01  0.421821D+00 -0.124147D-01 -0.923555D-01 -0.666383D-01
     24  0.266271D+00 -0.138475D+01  0.638643D-02 -0.837289D-01  0.396770D-01
     25 -0.134002D+01  0.440149D+00 -0.701253D-01 -0.292073D-01  0.319805D-03
     26 -0.258990D+01 -0.812370D+00 -0.139015D-01  0.181511D+00 -0.456489D-01
     27 -0.726579D+00 -0.481685D+01 -0.164167D-02 -0.393447D-01 -0.561268D-01
     28  0.897631D-03 -0.732887D-03 -0.438530D+01  0.280995D-01  0.256993D+00
     29 -0.129523D-01  0.105673D-01  0.977720D-02 -0.442931D+01 -0.159471D+00
     30 -0.642364D-02  0.147440D-01  0.170287D+00  0.708759D-01 -0.131479D+01
     31  0.643448D-01 -0.309398D-02 -0.350984D+01  0.120193D+01  0.370079D+00
     32  0.183623D+00  0.593557D-02  0.139744D+01 -0.244744D+01  0.627545D+00
     33  0.120604D-01 -0.676062D-01  0.355859D+00  0.520979D+00 -0.418750D+01
     34 -0.216954D-01  0.461677D-02 -0.181245D+01 -0.515852D+00 -0.102707D+01
     35 -0.249526D-02 -0.355019D-02 -0.756068D+00 -0.450070D+01  0.304809D+00
     36  0.156446D-01 -0.863158D-02 -0.929498D+00  0.202271D+00 -0.426452D+01
     37 -0.295943D-02 -0.596185D-01 -0.422262D-01 -0.547309D-01  0.629151D-01
     38  0.822208D-01  0.303909D-02 -0.540073D-01  0.403430D-01 -0.125215D+00
     39 -0.876724D-02 -0.762844D-01  0.644867D-01 -0.130100D+00  0.695231D-01
     40 -0.152400D-01 -0.256686D-01  0.704467D-02  0.205509D-02 -0.309915D-01
     41 -0.116240D-01  0.398011D-01  0.251010D-02 -0.491808D-02  0.841418D-03
     42  0.471928D-01  0.317301D-01 -0.873614D-02  0.122086D-01 -0.126935D-01
     43  0.922610D-01  0.925886D-01  0.214424D-01  0.573251D-02  0.167477D-01
     44  0.430824D-01  0.122696D+00  0.359096D-02  0.149304D-01  0.115218D-01
     45  0.133350D+00  0.475592D-01 -0.195980D-02  0.874737D-02 -0.183930D-01
     46 -0.331316D-01 -0.830474D-02 -0.945201D-02  0.180207D-01 -0.124862D-02
     47  0.154755D-01  0.414855D-02  0.843034D-02 -0.115137D-01  0.300953D-02
     48 -0.598454D-02 -0.188654D-01 -0.811655D-03  0.182473D-02  0.268814D-02
     49 -0.365235D-02 -0.971898D-02  0.256281D-01 -0.140769D-01 -0.624450D-02
     50 -0.994240D-02 -0.230485D-02 -0.143203D-01 -0.571169D-02  0.461058D-03
     51  0.347575D-02 -0.235597D-02 -0.134289D-01  0.193861D-02 -0.834806D-02
     52  0.144214D-01  0.372694D-01  0.160364D-01 -0.164461D-01  0.155309D-01
     53 -0.344849D-01  0.606877D-02 -0.118791D-01 -0.694035D-02 -0.598978D-02
     54  0.513980D-02 -0.154642D-01  0.272004D-01 -0.944063D-02 -0.472347D-02
     55  0.111081D+00  0.161933D-02  0.987691D-01  0.121130D+00 -0.677960D-02
     56  0.380428D-01 -0.235914D-01  0.657385D-01 -0.283113D-01 -0.823507D-02
     57 -0.288333D-01  0.641333D-01  0.185267D-01  0.655408D-02 -0.737690D-01
               16            17            18            19            20 
     16  0.156600D+02
     17  0.163175D-01  0.163800D+02
     18 -0.761782D-01 -0.141353D+00  0.126048D+02
     19  0.142132D+00 -0.118155D+00 -0.171866D+00  0.133245D+02
     20 -0.108507D+00 -0.199585D+00  0.162860D-01  0.296558D+01  0.154597D+02
     21 -0.301488D+00  0.922272D-01 -0.787565D-01 -0.100856D+01  0.125849D+01
     22 -0.217316D-01  0.742170D-02  0.345738D-01  0.309163D-01  0.546981D-02
     23  0.115392D-01 -0.200077D-01  0.430149D-01  0.172558D-02 -0.245797D-01
     24  0.444913D-01  0.412290D-01  0.968696D-01  0.546323D-01  0.163230D-01
     25  0.224587D-01 -0.297449D-01 -0.174223D-01 -0.147933D-01  0.329391D-01
     26 -0.102155D-01 -0.226050D-01 -0.433997D-01  0.572284D-01  0.385060D-01
     27 -0.932022D-02 -0.342205D-01  0.121431D-01 -0.101284D-01 -0.994131D-02
     28 -0.476553D-01 -0.174778D-01  0.531515D-01  0.319462D-02 -0.968463D-02
     29 -0.168547D-01 -0.351644D-01 -0.797682D-01 -0.949017D-02 -0.446889D-02
     30  0.519777D-01 -0.814392D-01  0.153630D+00  0.140436D-01 -0.892005D-02
     31  0.221336D-02  0.261477D-01 -0.104007D-01 -0.437452D-02 -0.108381D-01
     32  0.389465D-02  0.160460D-01  0.406573D-02 -0.206037D-01  0.221836D-01
     33 -0.245871D-02  0.265974D-02  0.708069D-02  0.659798D-03  0.109879D-02
     34  0.230003D-01 -0.403794D-01  0.248335D-01  0.135556D-01 -0.103199D-01
     35 -0.156512D-01 -0.279844D-01 -0.843594D-03 -0.110296D-01 -0.338756D-02
     36  0.746994D-02  0.264821D-02 -0.361130D-01 -0.255065D-02  0.269802D-03
     37 -0.405068D+01 -0.920512D+00  0.435541D+00 -0.354867D-01  0.210836D-03
     38 -0.911046D+00 -0.239137D+01 -0.982352D+00  0.236717D-01 -0.344980D-01
     39  0.535305D+00 -0.121267D+01 -0.393291D+01 -0.511413D-01 -0.556447D-02
     40 -0.208222D+01 -0.370056D+00 -0.109931D+01  0.273457D-01 -0.961822D-02
     41 -0.429339D+00 -0.447834D+01  0.176985D+00 -0.137701D-01 -0.135026D-01
     42 -0.136039D+01  0.191183D+00 -0.400253D+01 -0.304824D-01  0.770886D-02
     43 -0.347349D+01  0.134541D+01  0.574444D+00 -0.149622D-01  0.477248D-02
     44  0.137857D+01 -0.274513D+01  0.751858D+00 -0.232571D-02  0.124763D-01
     45  0.721746D+00  0.920545D+00 -0.417703D+01  0.374259D-02  0.858053D-02
     46 -0.167030D-01  0.353614D-01  0.317141D-01 -0.438202D+01  0.646621D+00
     47  0.819485D-02 -0.122891D-02 -0.302183D-01  0.951093D+00 -0.151197D+01
     48  0.156646D-01 -0.176297D-01 -0.650071D-02 -0.127624D+00 -0.353199D+00
     49  0.915217D-02 -0.736375D-03 -0.420204D-02 -0.238838D+01 -0.163023D+00
     50 -0.764852D-03 -0.791870D-02  0.475468D-03 -0.201164D+00 -0.431125D+01
     51 -0.199797D-01  0.288220D-02  0.133634D-02 -0.135109D+01  0.113325D+00
     52  0.143964D+00 -0.815230D-01 -0.619665D-02 -0.398071D+01  0.338277D+00
     53 -0.530485D-01 -0.530563D-01  0.472297D-02  0.254032D+00 -0.442056D+01
     54  0.456671D-01 -0.685974D-02 -0.866807D-01  0.106338D+01  0.592579D+00
     55 -0.406814D-01 -0.271985D-01 -0.482752D-01  0.246566D-01  0.479044D-02
     56 -0.233191D-01  0.287377D-01 -0.931731D-02 -0.763890D-02 -0.111917D-01
     57 -0.256576D-01 -0.147538D-01  0.142188D-01  0.552585D-02  0.954698D-03
               21            22            23            24            25 
     21  0.169237D+02
     22  0.293379D-01  0.490399D+01
     23  0.305218D-03 -0.180401D-01  0.483338D+01
     24  0.124449D-02  0.120139D+00 -0.489776D+00  0.103839D+01
     25  0.595991D-03  0.890224D-01  0.307923D-01 -0.479585D-01  0.419973D+01
     26 -0.651674D-02  0.430957D-01  0.417598D-01  0.118556D+00  0.149738D+01
     27 -0.167441D-01 -0.779063D-01  0.129900D+00 -0.919117D-01 -0.571633D+00
     28  0.671159D-02 -0.443751D-02 -0.218496D-03 -0.315585D-03 -0.242451D-02
     29 -0.419487D-02 -0.614080D-03  0.516669D-02  0.875561D-02 -0.275362D-02
     30 -0.238740D-02  0.412990D-03 -0.844164D-02 -0.170008D-01  0.596888D-02
     31  0.235420D-02 -0.125784D-02  0.321379D-02  0.645727D-02 -0.179476D-02
     32  0.289309D-02  0.150506D-02  0.634594D-02  0.136451D-01 -0.616836D-02
     33 -0.128288D-01  0.596587D-03  0.282821D-02  0.285139D-02 -0.429414D-03
     34 -0.529814D-02 -0.273214D-02 -0.120982D-01 -0.177119D-01  0.509166D-02
     35  0.703221D-03 -0.642939D-02  0.162911D-01  0.203825D-01 -0.385526D-02
     36 -0.728588D-02 -0.349464D-02  0.119324D-01  0.568237D-02 -0.194984D-02
     37 -0.310693D-01 -0.890332D-03  0.100943D-02  0.103340D-01 -0.891081D-02
     38 -0.424655D-01 -0.719963D-03 -0.328588D-02 -0.863313D-02  0.454337D-02
     39  0.678071D-01  0.428951D-02  0.211688D-02  0.159216D-01  0.121365D-02
     40 -0.397561D-01 -0.582027D-03 -0.200123D-02 -0.112867D-01  0.494501D-03
     41  0.109903D-01 -0.300839D-03 -0.553460D-03  0.360207D-02 -0.619292D-02
     42  0.521982D-02 -0.511323D-03  0.184968D-02  0.880541D-02 -0.793051D-02
     43  0.867519D-02 -0.457893D-03  0.147171D-03  0.506980D-02 -0.365514D-02
     44  0.369024D-01 -0.971631D-03  0.460777D-04  0.576405D-02 -0.345954D-02
     45  0.141909D-01 -0.293901D-02 -0.328714D-02  0.124169D-02 -0.204179D-02
     46 -0.921261D-01  0.397155D-02 -0.193661D-02  0.648069D-02 -0.138824D-01
     47 -0.385935D+00 -0.671874D-02 -0.279550D-02 -0.146753D-01  0.145486D-02
     48 -0.447827D+01  0.531690D-02 -0.135205D-02  0.274197D-02 -0.315630D-03
     49 -0.143251D+01  0.471578D-02  0.103208D-02  0.115125D-01  0.506395D-02
     50  0.146819D+00  0.338206D-03 -0.139956D-02  0.133801D-03  0.256765D-02
     51 -0.335185D+01 -0.145055D-02 -0.541635D-03 -0.647661D-02 -0.125139D-02
     52  0.130931D+01  0.805988D-03  0.941626D-03  0.700303D-02  0.723984D-02
     53  0.514563D+00  0.537102D-03 -0.784387D-03  0.245803D-02  0.470442D-02
     54 -0.198176D+01  0.288155D-02  0.133707D-02  0.984849D-02  0.315400D-02
     55 -0.131637D-02 -0.426149D-01  0.312755D-01  0.400787D-01  0.803265D-01
     56  0.821096D-03  0.222521D-01  0.237120D-01 -0.513444D-02 -0.791699D-01
     57 -0.811044D-02  0.426698D-01 -0.196173D-01  0.356271D-02  0.249585D-01
               26            27            28            29            30 
     26  0.218714D+01
     27  0.783390D+00  0.483022D+01
     28 -0.241533D-02  0.833173D-03  0.434277D+01
     29  0.111133D-01 -0.584946D-02  0.771884D-01  0.433340D+01
     30 -0.175968D-01  0.428851D-02 -0.407549D+00  0.260663D+00  0.131039D+01
     31  0.547272D-02 -0.107742D-02  0.372006D-01 -0.224268D-01 -0.385303D-01
     32  0.283114D-02 -0.282961D-02 -0.336908D-01  0.222592D-01 -0.632610D-01
     33  0.273930D-02 -0.235295D-03 -0.728916D-01 -0.850173D-01 -0.423152D-01
     34 -0.114326D-01  0.253714D-02  0.333388D-01  0.638721D-02  0.142225D+00
     35  0.574825D-02 -0.162430D-02  0.268258D-01  0.109499D+00 -0.450607D-01
     36  0.291084D-02 -0.199545D-02  0.160506D+00 -0.177824D-01 -0.110748D+00
     37  0.134955D-01  0.678605D-02  0.588023D-03  0.109806D-02  0.224216D-02
     38 -0.105303D-01  0.504234D-02 -0.376517D-04 -0.509956D-03 -0.486616D-02
     39  0.221315D-01  0.622497D-02 -0.210397D-02  0.517523D-02 -0.894316D-03
     40 -0.168557D-01 -0.352702D-02 -0.260091D-02  0.139928D-02 -0.117448D-01
     41  0.148128D-01  0.113995D-01 -0.186007D-04 -0.193826D-02 -0.131094D-02
     42  0.242316D-01  0.433598D-02  0.389174D-03 -0.290742D-02  0.137058D-01
     43  0.694013D-02 -0.583388D-03  0.646425D-03 -0.379423D-03  0.106579D-01
     44  0.987306D-02 -0.780566D-03  0.182480D-02 -0.251302D-02  0.761596D-02
     45  0.596248D-02 -0.177340D-02  0.442341D-02 -0.974469D-03  0.120942D-01
     46  0.863492D-02 -0.287982D-02 -0.430094D-03 -0.956028D-03  0.444333D-03
[...]
 -0.00211924,0.00780198,-0.06182272,0.00439698,0.00630890,-0.17825038,0
 .02788946,0.02914748,0.50510389,-0.01616684,0.01416828,-0.01349563,-0.
 09708274,0.00322258,-0.14599978,0.01083776,0.02506158,-0.08292494,-0.0
 6757897,0.03668639,0.59484092,-0.05041101,-0.01223664,0.01522556,-0.00
 115332,-0.00211727,0.00048744,-0.12641852,-0.02026809,0.05007573,0.008
 25911,-0.00266991,0.00108366,0.53689006,-0.00485801,0.00169546,0.00006
 317,-0.00143330,-0.00025498,-0.00031703,-0.02562956,-0.09010393,0.0223
 2488,-0.02405709,-0.01598610,0.02467633,-0.02020517,0.58079555,-0.0215
 0959,-0.00532285,0.01181398,0.00091581,-0.00066736,0.00085850,0.063303
 14,0.02424624,-0.12852161,0.01023752,0.00933744,-0.01111311,0.05089303
 ,0.02065132,0.54609194,-0.01023164,-0.02325658,-0.03434183,0.00061624,
 -0.00155334,-0.00014220,-0.08206227,0.01591578,0.02074903,0.00169828,0
 .00519596,0.00694215,-0.00339725,0.01689104,0.02228693,0.59044760,-0.0
 0436523,0.00092790,-0.00321114,-0.00027624,-0.00050267,-0.00058135,0.0
 1142381,-0.12874390,-0.05344287,0.00698687,-0.02947114,-0.02474053,0.0
 0105530,0.00651355,0.00475020,0.00204811,0.53911697,-0.01005048,-0.016
 30467,-0.02204884,-0.00060002,-0.00135370,-0.00004147,0.01376520,-0.04
 958893,-0.13677953,0.00220992,0.00332877,0.01005476,0.00929425,-0.0151
 9391,-0.02348680,0.00666503,-0.05750912,0.52643702,-0.21131425,-0.0085
 0652,0.05570985,0.00215765,-0.00224000,0.00250316,-0.04310973,-0.00626
 997,0.00684151,0.00196623,0.00419444,-0.00178614,-0.00200613,0.0005648
 3,-0.00268020,0.00244267,-0.00080057,-0.00151655,0.52254103,-0.0065242
 5,-0.05850572,0.00402210,-0.00081876,-0.00089618,0.00029677,-0.0054137
 8,-0.00617363,-0.00051684,0.00425592,0.00154178,0.00000325,-0.00207731
 ,-0.00038462,-0.00125637,-0.00139817,-0.00008966,0.00071721,-0.0025208
 2,0.56944592,0.08715961,0.00550859,-0.13660447,-0.00060155,0.00174864,
 -0.00135517,-0.01324569,-0.00038248,0.01557095,-0.00364812,-0.00316221
 ,0.00101505,-0.00337947,0.00008292,-0.00234407,-0.00485497,0.00011517,
 -0.00081377,0.05525974,0.00658645,0.58527092,0.00068667,0.00020032,0.0
 0063589,-0.01015545,-0.01861533,-0.03441344,0.00057467,0.00203057,0.00
 429661,-0.05380546,0.01302419,0.02349566,0.00022583,-0.00071667,-0.000
 45044,-0.00049434,0.00148889,-0.00091376,-0.00041537,-0.00012320,0.000
 15017,0.05962130,-0.00124420,0.00316882,0.00040765,-0.00248084,0.00574
 967,0.00360877,0.00371200,-0.02294229,-0.02587379,0.01218725,-0.151153
 47,-0.12175251,0.00048149,0.00136925,-0.00178685,0.00124609,-0.0048241
 9,0.00401647,0.00040423,-0.00015812,-0.00006488,-0.01254656,0.16201858
 ,0.00159082,0.00041695,0.00151986,-0.01205169,-0.00927041,-0.01693241,
 -0.00092673,0.00729485,0.00521380,0.01866715,-0.12312574,-0.20127164,-
 0.00045863,0.00039145,0.00095021,-0.00068939,0.00175137,-0.00020040,0.
 00016827,-0.00011899,0.00000299,-0.00903340,0.13410583,0.22273481,0.00
 096261,-0.00157383,0.00125096,-0.03713271,-0.00614134,0.01285994,0.004
 88924,0.00110641,-0.00168582,-0.18070921,-0.05641328,0.11655784,0.0000
 2044,0.00131774,-0.00096008,0.00032191,-0.00017688,-0.00014775,-0.0016
 4480,0.00028746,0.00019443,0.00021966,-0.00024192,0.00250928,0.2181514
 9,0.00060689,0.00168507,-0.00153232,0.00267091,0.00302110,-0.00155771,
 -0.02467966,-0.01019099,0.02023892,-0.05847555,-0.07596874,0.04676770,
 0.00269441,-0.00523649,0.00111690,-0.00095507,0.00175077,0.00101701,0.
 00002449,-0.00031722,0.00033307,0.01527512,0.00696405,-0.01255569,0.06
 127573,0.07781683,-0.00107646,-0.00068491,0.00057347,-0.02153262,-0.00
 527755,0.01377921,0.00902330,0.00193840,-0.00640967,0.12741842,0.04869
 829,-0.15623614,-0.00154611,0.00257923,-0.00036013,-0.00045011,-0.0008
 3840,0.00056025,0.00090518,0.00102678,-0.00113153,0.01746610,0.0078389
 2,-0.01357681,-0.12425511,-0.05442712,0.16154658,0.00206479,0.00009044
 ,-0.00034709,-0.00011079,0.00020348,-0.00005505,-0.00300770,0.01671918
 ,0.01869235,0.00090049,0.00111666,-0.00063684,-0.04883901,0.01221186,0
 .01345881,-0.00370736,-0.00213887,0.00229822,-0.00011371,0.00006599,-0
 .00006443,0.00016547,-0.00053515,-0.00018369,-0.00005639,0.00005250,-0
 .00024394,0.04933836,0.00097933,0.00014972,0.00025399,-0.00024074,-0.0
 0002080,-0.00022403,-0.00074710,0.00526534,0.00775695,0.00023515,0.001
 16046,0.00114763,0.01362274,-0.16033550,-0.13232573,-0.00102790,0.0001
 4102,0.00111653,0.00013358,0.00002558,0.00016657,-0.00012599,-0.000013
 54,-0.00005615,0.00003029,0.00015570,-0.00007867,-0.01335725,0.1711215
 9,-0.00174028,0.00049744,0.00137929,-0.00026845,0.00077275,0.00010190,
 0.00083013,-0.01433404,-0.01806660,-0.00040962,-0.00201991,0.00031447,
 0.01552040,-0.13129003,-0.20108913,0.00365466,0.00258885,-0.00202264,0
 .00011379,0.00011536,0.00020944,0.00003376,0.00111580,0.00016891,0.000
 00322,0.00014545,0.00047984,-0.01930121,0.14389214,0.21971096,0.002450
 02,0.00079866,-0.00015433,0.00110977,0.00084533,-0.00038555,0.00383534
 ,-0.02393758,0.00995748,-0.00545632,-0.00066393,0.00228848,-0.05902536
 ,0.05875798,-0.02392611,0.00070658,-0.00063744,-0.00096746,-0.00017202
 ,0.00003094,0.00016481,-0.00005871,0.00010203,0.00000175,0.00033671,-0
 .00138503,0.00069250,-0.00139573,0.00134853,-0.00076498,0.06320894,0.0
 0052956,0.00118934,-0.00091050,0.00023955,0.00042388,-0.00016507,0.002
 59190,-0.01113420,0.00393010,-0.00269796,0.00062016,0.00124621,0.05662
 879,-0.26914449,0.08988470,0.00040624,0.00050062,-0.00084586,-0.000208
 80,0.00015604,-0.00010309,0.00007358,0.00044321,-0.00003161,0.00019422
 ,-0.00054445,0.00056092,0.00456915,-0.01752798,0.00805406,-0.06141688,
 0.29047995,-0.00149318,-0.00161631,0.00088882,0.00025824,0.00019148,0.
 00017791,-0.00537610,0.02028844,-0.00950877,0.00350526,-0.00012202,-0.
 00232748,-0.02219125,0.08897879,-0.08226382,-0.00095925,0.00083511,0.0
 0076347,-0.00001426,-0.00008850,-0.00000326,0.00002222,0.00022550,0.00
 018065,-0.00027446,0.00130120,-0.00023438,0.00617166,-0.02268612,0.010
 22366,0.02244991,-0.09951950,0.08858466,-0.00647174,-0.00142907,0.0038
 8778,0.00167356,0.00174641,-0.00051982,-0.01598281,0.00086758,-0.01505
 989,-0.00174013,0.00013925,-0.00103564,-0.25258766,-0.01486894,-0.1102
 7353,0.00039423,0.00003702,-0.00108601,0.00053426,-0.00068173,-0.00129
 508,0.00004702,-0.00003596,0.00022286,0.00005028,-0.00005985,0.0000314
 8,0.00423609,-0.00030381,0.00213608,-0.00599973,-0.00068395,-0.0026815
 1,0.27515353,-0.00235791,0.00012334,0.00137077,0.00097320,-0.00027750,
 0.00049939,-0.00627310,-0.00196420,-0.00643714,-0.00047689,0.00002576,
 -0.00081682,-0.01515128,-0.04823856,-0.00827880,0.00031697,-0.00005139
 ,-0.00032706,-0.00021265,0.00034952,-0.00030500,0.00006748,-0.00003493
 ,0.00006746,0.00006859,0.00014302,-0.00004123,-0.01937671,-0.00092568,
 -0.00829880,0.02628267,0.00372393,0.01361577,0.01612778,0.04894137,0.0
 0474676,0.00129250,-0.00184859,-0.00014679,0.00074542,-0.00096282,0.01
 477307,-0.00109449,0.01107945,-0.00106674,-0.00001429,0.00049647,-0.11
 379224,-0.00850841,-0.11039659,-0.00011580,-0.00012239,0.00054616,0.00
 089676,0.00048655,0.00095745,-0.00010338,0.00008090,-0.00000403,0.0000
 6886,-0.00021888,0.00011927,-0.02071044,0.00077019,-0.01040548,-0.0094
 9050,-0.00177022,-0.00621563,0.12399247,0.00755090,0.11715822,0.000281
 37,0.00040581,0.00061992,0.00006095,0.00054988,-0.00048217,-0.00326900
 ,-0.00036526,0.00109249,0.00005656,-0.00057595,0.00054201,0.00063849,0
 .00131926,0.00063720,-0.17657309,-0.05725724,0.12251824,-0.00173807,-0
 .00006808,-0.00144760,0.00022698,0.00008672,-0.00013940,0.00012091,0.0
 0054341,-0.00008472,0.00000913,-0.00029598,0.00038345,-0.00003288,-0.0
 0018360,-0.00002595,0.00041090,-0.00001628,-0.00017827,0.19274235,0.00
 027797,0.00063942,0.00145715,-0.00032297,-0.00006056,0.00028964,0.0175
 1454,0.00697521,-0.01293339,0.00093353,0.00170580,-0.00062671,0.000045
 73,-0.00288133,-0.00313652,-0.05756455,-0.07413131,0.05412054,-0.00164
 732,0.00094722,-0.00042653,-0.00018702,0.00022556,0.00011801,-0.000245
 86,-0.00039033,0.00019617,0.00081131,0.00064303,-0.00111226,-0.0000202
 5,0.00017396,-0.00031192,-0.00007128,-0.00015447,0.00007524,0.06341119
 ,0.07693328,-0.00090653,0.00003508,0.00142449,0.00008663,-0.00020247,-
 0.00008325,0.01887709,0.00969903,-0.01566968,-0.00032688,0.00158361,0.
 00060776,-0.00071114,-0.00431288,-0.00315778,0.12099572,0.05281603,-0.
 15959035,0.00060374,-0.00014761,-0.00083548,-0.00034632,0.00008454,0.0
 0014301,-0.00014259,-0.00074649,0.00051218,0.00136365,0.00020787,-0.00
 089174,-0.00023941,-0.00014756,0.00029774,0.00014993,0.00001823,0.0002
 1303,-0.13404335,-0.05623758,0.17278947,0.00135223,0.00111147,0.001649
 35,-0.00030363,0.00163274,0.00066897,0.00200777,-0.00076818,0.00169066
 ,-0.00062321,-0.00026014,-0.00102952,-0.00000544,0.00023110,0.00061019
 ,-0.25498894,-0.01859843,-0.11799349,-0.00050545,0.00046456,0.00002764
 ,0.00003745,-0.00015813,0.00005402,-0.00000305,0.00001575,-0.00013029,
 0.00021641,-0.00013960,0.00002658,-0.00000914,-0.00016047,-0.00004886,
 0.00028455,0.00028019,0.00052293,-0.01855973,-0.00120266,-0.01096150,0
 .27624419,-0.00147534,-0.00302762,-0.00495886,0.00119793,-0.00023117,0
 .00061376,-0.01954243,-0.00018078,-0.00732621,-0.00115465,0.00012603,-
 0.00014979,-0.00037891,0.00052898,0.00058366,-0.01632012,-0.04759529,-
 0.00940530,0.00143517,-0.00018476,-0.00065298,0.00006256,0.00019981,0.
 00003472,0.00010242,-0.00003969,0.00000697,-0.00002066,-0.00013774,0.0
 0022144,0.00019167,-0.00003240,0.00005865,0.00030462,0.00034136,-0.000
 12478,-0.00893218,-0.00169411,-0.00547920,0.01854440,0.04798900,-0.001
 75815,-0.00511489,-0.00513664,0.00051966,0.00112538,0.00033911,-0.0221
 0213,0.00120702,-0.01075751,-0.00059638,0.00005279,-0.00008207,-0.0007
 2988,0.00062994,0.00061521,-0.11649792,-0.01021753,-0.11143434,0.00269
 303,-0.00014973,-0.00070896,-0.00001134,0.00001829,-0.00003175,0.00009
 136,-0.00001913,-0.00005289,0.00012806,0.00006479,0.00042276,-0.000012
 90,-0.00001403,-0.00010458,0.00081552,-0.00023779,-0.00049744,0.019036
 00,0.00131311,0.01154226,0.12713728,0.01252448,0.12112250,0.00032417,-
 0.00019982,0.00056051,0.00031430,0.00080083,0.00057897,-0.00226972,0.0
 0147790,-0.00207419,-0.00040294,-0.00035995,-0.00011951,-0.00014345,0.
 00039877,-0.00049115,-0.06434515,0.06113359,-0.02283492,0.00032573,-0.
 00085628,0.00019168,0.00028548,0.00009210,-0.00014682,0.00010138,0.000
 25827,-0.00014241,0.00001189,-0.00026251,0.00003527,0.00001272,0.00007
 064,0.00057477,-0.00004239,0.00015117,0.00000414,0.00644052,-0.0213288
 0,0.00720898,-0.00549548,0.02599899,-0.00852408,0.06517265,-0.00048615
 ,0.00249353,0.00054320,0.00017626,0.00060979,0.00031685,0.00657763,-0.
 02224178,0.00921732,-0.00018410,-0.00115125,-0.00510776,-0.00062309,0.
 00049293,0.00113643,0.06094646,-0.26324294,0.08686387,-0.00002694,-0.0
 0059677,-0.00004385,0.00052375,-0.00141632,0.00029529,-0.00004826,0.00
 035374,-0.00002739,-0.00024256,0.00029800,-0.00013753,0.00035878,0.000
 67265,-0.00054081,-0.00010328,-0.00000132,-0.00010593,0.00237747,-0.00
 775723,0.00252003,-0.00070448,0.00397879,-0.00153073,-0.06776636,0.287
 27083,0.00090702,0.00240145,0.00181765,0.00025040,0.00080718,0.0006535
 7,0.00765733,-0.02439937,0.00899762,-0.00036012,-0.00275395,-0.0049707
 7,-0.00053124,-0.00048202,0.00140428,-0.02355245,0.08833149,-0.0814801
 6,-0.00085350,0.00024130,0.00029579,0.00025082,-0.00151350,0.00059450,
 -0.00013612,-0.00014178,-0.00002334,-0.00019187,0.00018251,0.00013695,
 0.00016760,0.00015542,-0.00038454,0.00007243,0.00007641,-0.00002701,-0
 .00673793,0.01748747,-0.00726745,-0.00207615,0.01377029,-0.00589613,0.
 02518692,-0.09354093,0.08624669,-0.01241727,-0.02582217,0.02966646,0.0
 0042308,0.00012018,-0.00028748,0.00400587,-0.00162601,0.00248633,-0.00
 076197,0.00046641,0.00016542,-0.00053929,0.00014964,-0.00045592,-0.000
 53255,0.00000921,-0.00043034,-0.05113382,0.00512649,-0.00625016,0.0001
 1198,-0.00000481,-0.00005404,-0.00202993,0.00133061,-0.00082774,0.0001
 3445,-0.00003006,-0.00003856,0.00016856,0.00018462,-0.00011830,-0.0002
 7975,-0.00000659,0.00000371,-0.00012741,-0.00032398,-0.00021057,0.0000
 3720,-0.00013421,-0.00015282,0.00001629,0.00006243,0.00009771,0.059485
 48,-0.00867796,0.00389900,0.00161057,0.00024062,0.00027094,-0.00035388
 ,0.00178051,0.00041468,0.00183147,-0.00070635,-0.00060466,0.00060750,-
 0.00021762,-0.00005233,-0.00020580,-0.00025599,-0.00044832,0.00064722,
 0.00218865,-0.19848126,0.12459318,0.00005839,-0.00016026,-0.00017886,0
 .00180629,0.00030152,-0.00026354,0.00007429,0.00000562,-0.00003822,0.0
 0003856,0.00007644,-0.00003997,-0.00012693,-0.00001490,0.00003138,0.00
 009520,-0.00027232,-0.00048709,0.00010965,0.00015432,-0.00025708,0.000
 11175,0.00026032,-0.00013087,0.00042710,0.20965246,0.01252502,0.011785
 96,-0.01247423,-0.00012525,-0.00064782,0.00033454,-0.00280849,-0.00109
 278,-0.00108789,0.00082701,0.00119364,-0.00028139,0.00024315,-0.000046
 56,0.00028899,0.00039194,-0.00047898,0.00031937,-0.00159306,0.12352249
 ,-0.15813883,0.00008347,-0.00006388,-0.00009967,-0.00147305,0.00017484
 ,0.00083733,-0.00007968,0.00001826,-0.00001436,-0.00010887,-0.00010705
 ,0.00003455,0.00020519,0.00001637,-0.00002041,0.00001205,0.00002192,0.
 00005877,0.00001960,0.00011871,0.00008587,-0.00011765,-0.00002877,-0.0
 0006895,-0.00618368,-0.14165785,0.17354759,-0.03791828,-0.00563171,-0.
 01988936,-0.00022002,0.00036500,-0.00030950,-0.00056992,-0.00096683,0.
 00523994,-0.00005266,-0.00077637,0.00016971,-0.00121330,0.00006807,-0.
 00108999,0.00003385,0.00026287,0.00074953,-0.15866727,-0.03075691,-0.1
 2694890,-0.00003979,0.00005925,0.00002741,0.00005636,0.00009708,-0.000
 08763,-0.00000083,0.00006049,0.00004121,0.00004131,-0.00004533,-0.0000
 0062,-0.00042333,-0.00012411,0.00037658,0.00028691,0.00017392,-0.00022
 501,0.00014629,-0.00005837,-0.00026799,-0.00005156,-0.00009110,0.00002
 530,0.00162230,0.00099651,-0.00077325,0.19057847,-0.00257913,0.0010103
 4,-0.00078041,0.00017344,0.00009826,-0.00007912,0.00042809,-0.00028309
 ,0.00019423,-0.00026812,-0.00014115,0.00032533,-0.00016401,0.00013444,
 -0.00002525,-0.00029122,0.00028398,-0.00021852,-0.03185970,-0.05976796
 ,-0.03552105,0.00011227,0.00003386,-0.00010651,0.00004576,0.00025590,-
 0.00025630,-0.00000971,0.00000915,0.00002671,0.00001449,-0.00000061,-0
 .00003924,-0.00002235,-0.00001322,0.00004711,-0.00015974,-0.00032944,0
 .00019950,-0.00017290,0.00004380,0.00016249,0.00025350,0.00016681,-0.0
 0008810,0.01686740,0.00561085,0.01864972,0.03619297,0.05693676,0.01767
 221,0.00348792,0.01515850,-0.00018854,-0.00007738,0.00015206,0.0028060
 7,0.00044187,-0.00123228,0.00040679,0.00032142,-0.00026899,0.00056096,
 0.00002509,0.00049505,0.00017322,0.00009183,-0.00072481,-0.13876521,-0
 .03680199,-0.20005637,-0.00007161,0.00000899,0.00007728,-0.00009093,-0
 .00027043,0.00021638,-0.00002400,-0.00002502,0.00000770,-0.00001855,0.
 00000945,0.00000155,0.00019987,0.00005822,-0.00017140,-0.00038846,-0.0
 0015892,0.00048561,-0.00022757,-0.00001936,0.00028272,0.00001986,0.000
 02838,0.00002066,-0.01242468,-0.00473633,-0.01402498,0.13869916,0.0389
 2099,0.20893153,-0.02371825,0.02550222,0.02320949,-0.00029405,0.000227
 69,-0.00046697,0.00405994,0.00289724,0.00399480,-0.00046850,-0.0004114
 4,-0.00013338,-0.00005553,-0.00005218,-0.00024293,-0.00037958,-0.00005
 328,-0.00117176,-0.05871556,0.04107658,0.01833653,0.00001111,-0.000252
 10,0.00001923,0.00003007,0.00004512,-0.00006605,0.00017542,-0.00002925
 ,-0.00018398,0.00001713,-0.00002232,0.00006088,-0.00013176,-0.00012002
 ,-0.00007133,-0.00101985,-0.00023535,-0.00108002,0.00019740,-0.0000669
 7,0.00016155,-0.00032730,-0.00063527,-0.00014685,0.00169677,0.00199789
 ,-0.00095362,0.00631855,-0.01860043,-0.00831880,0.07254581,0.00469832,
 0.01085337,0.00063998,0.00046813,0.00008545,0.00015414,-0.00104826,-0.
 00006478,-0.00122530,-0.00052253,-0.00014993,0.00017467,0.00014167,0.0
 0014285,0.00021896,-0.00048250,0.00035663,-0.00132440,0.04536632,-0.24
 689953,-0.09839780,-0.00006227,0.00009006,0.00005537,0.00016668,-0.000
 02105,-0.00027849,-0.00006843,0.00000198,0.00006995,-0.00002395,-0.000
 00561,-0.00001604,0.00012861,-0.00000824,-0.00004743,-0.00062368,-0.00
 064579,0.00053889,-0.00050870,0.00009484,0.00078976,0.00005347,-0.0001
 3526,-0.00036576,0.00331222,-0.02069290,-0.01139046,0.00027535,-0.0040
 6187,-0.00129092,-0.05125919,0.26105728,0.01603462,-0.01190337,-0.0100
 1775,0.00012670,-0.00031048,0.00037089,-0.00241406,-0.00000989,-0.0013
 8417,0.00042388,0.00062585,-0.00042586,0.00007982,-0.00018029,0.000098
 18,-0.00057187,-0.00011185,-0.00001780,0.02158840,-0.09783895,-0.10144
 122,-0.00001801,0.00007691,-0.00002001,-0.00016516,-0.00003385,0.00027
 830,-0.00004916,0.00003579,0.00003840,-0.00001550,0.00001394,-0.000009
 42,0.00011004,0.00008218,0.00002527,-0.00127310,-0.00008594,-0.0004502
 2,-0.00012346,0.00031688,0.00032055,0.00014631,0.00011613,-0.00008322,
 -0.00506221,0.01895462,0.01078343,0.00423504,-0.02144101,-0.00931741,-
 0.03296536,0.11166942,0.11128842,0.00111217,-0.00050609,0.00023683,-0.
 34301179,-0.01879723,0.21560689,-0.00093608,0.00068715,0.00030248,-0.0
 3216824,-0.00275830,0.02348689,-0.00023867,-0.00008937,-0.00026269,0.0
 0005082,-0.00014149,0.00021216,-0.00043139,-0.00006866,0.00025136,0.00
 275550,-0.00087150,0.00042301,-0.00368500,0.00066486,-0.00509380,-0.00
 002101,0.00015009,-0.00007146,0.00026280,-0.00006893,0.00014082,0.0008
 7487,-0.00015251,0.00029022,0.00004495,-0.00001816,-0.00009241,-0.0000
 2941,0.00024608,0.00007111,0.00007287,-0.00011121,-0.00002930,0.000120
 01,0.00005943,-0.00009081,0.00007291,0.00003936,-0.00001978,0.00005817
 ,-0.00001126,-0.00008693,0.37509652,-0.00079413,-0.00074634,0.00043709
 ,-0.02091478,-0.00317845,0.01942716,0.00325202,0.00094686,-0.00107455,
 -0.00066320,-0.00144746,-0.00089334,0.00143916,0.00094532,0.00107967,0
 .00013877,-0.00049065,0.00024385,-0.00001845,-0.00001065,-0.00007473,-
 0.00054009,0.00044023,0.00091268,-0.00156021,0.00026126,-0.00067207,-0
 .00016552,-0.00001596,-0.00026917,-0.00068460,-0.00007044,-0.00051452,
 -0.00096412,-0.00196389,0.00092662,-0.00031095,0.00007341,0.00005807,0
 .00028384,-0.00033335,-0.00034713,-0.00002726,-0.00005451,-0.00003723,
 -0.00010849,0.00008081,0.00001223,-0.00010078,0.00001317,-0.00001381,-
 0.00000894,0.00000250,0.00002394,0.02174774,0.00554814,0.00008873,0.00
 043031,-0.00072054,0.26773401,0.01963454,-0.23636328,-0.00155280,-0.00
 062200,0.00058426,-0.02631054,-0.00079727,0.01206838,-0.00012403,-0.00
 007199,0.00011668,0.00031712,-0.00002588,-0.00004014,-0.00007450,-0.00
 009927,0.00011055,-0.00107299,-0.00053318,0.00055070,-0.00420482,0.000
 40828,-0.00087793,-0.00022534,-0.00021751,-0.00070433,0.00036162,-0.00
 024031,-0.00010114,0.00012783,0.00138696,-0.00004593,-0.00004041,-0.00
 004948,-0.00012837,0.00018360,-0.00013308,-0.00002866,-0.00005670,0.00
 002621,0.00003386,0.00007688,0.00007358,-0.00007971,0.00002837,0.00002
 943,-0.00003281,0.00001856,0.00002544,-0.00003637,-0.23527459,-0.01922
 478,0.22569477\\0.00001370,0.00000003,0.00001603,-0.00001381,0.0000156
 1,-0.00000876,0.00004035,-0.00002801,-0.00001986,0.00002313,0.00003239
 ,-0.00000446,0.00001312,-0.00002606,-0.00000033,-0.00006176,-0.0000192
 3,0.00000955,-0.00001968,0.00004950,-0.00001635,-0.00000381,-0.0000033
 8,-0.00000609,-0.00000300,0.00001305,0.00002122,-0.00000477,-0.0000026
 8,-0.00000657,0.00000364,0.00000452,-0.00000196,0.00000033,-0.00000358
 ,-0.00000784,0.00000102,0.00000289,-0.00000358,0.00001163,-0.00000570,
 0.00000343,0.00000233,-0.00000469,0.00002087,0.00000848,0.00000637,-0.
 00000448,-0.00001795,-0.00000910,0.00000400,0.00000076,-0.00002145,0.0
 0000865,0.00000630,-0.00000049,-0.00000346\\\@


  THE LARGE PRINT GIVETH,
  AND THE SMALL PRINT TAKETH AWAY.

                     -- TOM WAITS
 Job cpu time:       0 days  6 hours 29 minutes 22.9 seconds.
 Elapsed time:       0 days  0 hours 19 minutes 28.9 seconds.
 File lengths (MBytes):  RWF=   1392 Int=      0 D2E=      0 Chk=     32 Scr=     32
 Normal termination of Gaussian 16 at Tue Feb 19 18:16:35 2019.
