 Entering Gaussian System, Link 0=g16
 Input=VMPUAIZSESMILD-UHFFFAOYSA-N_GeoFreq.com
 Output=VMPUAIZSESMILD-UHFFFAOYSA-N_GeoFreq.log
 Initial command:
 /shared/centos7/gaussian/g16/l1.exe "/scratch/underkoffler.c/gaussian_scratch/Gau-5646.inp" -scrdir="/scratch/underkoffler.c/gaussian_scratch/"
 Entering Link 1 = /shared/centos7/gaussian/g16/l1.exe PID=      5647.
  
 Copyright (c) 1988,1990,1992,1993,1995,1998,2003,2009,2016,
            Gaussian, Inc.  All Rights Reserved.
  
 This is part of the Gaussian(R) 16 program.  It is based on
 the Gaussian(R) 09 system (copyright 2009, Gaussian, Inc.),
 the Gaussian(R) 03 system (copyright 2003, Gaussian, Inc.),
 the Gaussian(R) 98 system (copyright 1998, Gaussian, Inc.),
 the Gaussian(R) 94 system (copyright 1995, Gaussian, Inc.),
 the Gaussian 92(TM) system (copyright 1992, Gaussian, Inc.),
 the Gaussian 90(TM) system (copyright 1990, Gaussian, Inc.),
 the Gaussian 88(TM) system (copyright 1988, Gaussian, Inc.),
 the Gaussian 86(TM) system (copyright 1986, Carnegie Mellon
 University), and the Gaussian 82(TM) system (copyright 1983,
 Carnegie Mellon University). Gaussian is a federally registered
 trademark of Gaussian, Inc.
  
 This software contains proprietary and confidential information,
 including trade secrets, belonging to Gaussian, Inc.
  
 This software is provided under written license and may be
 used, copied, transmitted, or stored only in accord with that
 written license.
  
 The following legend is applicable only to US Government
 contracts under FAR:
  
                    RESTRICTED RIGHTS LEGEND
  
 Use, reproduction and disclosure by the US Government is
 subject to restrictions as set forth in subparagraphs (a)
 and (c) of the Commercial Computer Software - Restricted
 Rights clause in FAR 52.227-19.
  
 Gaussian, Inc.
 340 Quinnipiac St., Bldg. 40, Wallingford CT 06492
  
  
 ---------------------------------------------------------------
 Warning -- This program may not be used in any manner that
 competes with the business of Gaussian, Inc. or will provide
 assistance to any competitor of Gaussian, Inc.  The licensee
 of this program is prohibited from giving any competitor of
 Gaussian, Inc. access to this program.  By using this program,
 the user acknowledges that Gaussian, Inc. is engaged in the
 business of creating and licensing software in the field of
 computational chemistry and represents and warrants to the
 licensee that it is not a competitor of Gaussian, Inc. and that
 it will not use this program in any manner prohibited above.
 ---------------------------------------------------------------
  

 Cite this work as:
 Gaussian 16, Revision A.03,
 M. J. Frisch, G. W. Trucks, H. B. Schlegel, G. E. Scuseria, 
 M. A. Robb, J. R. Cheeseman, G. Scalmani, V. Barone, 
 G. A. Petersson, H. Nakatsuji, X. Li, M. Caricato, A. V. Marenich, 
 J. Bloino, B. G. Janesko, R. Gomperts, B. Mennucci, H. P. Hratchian, 
 J. V. Ortiz, A. F. Izmaylov, J. L. Sonnenberg, D. Williams-Young, 
 F. Ding, F. Lipparini, F. Egidi, J. Goings, B. Peng, A. Petrone, 
 T. Henderson, D. Ranasinghe, V. G. Zakrzewski, J. Gao, N. Rega, 
 G. Zheng, W. Liang, M. Hada, M. Ehara, K. Toyota, R. Fukuda, 
 J. Hasegawa, M. Ishida, T. Nakajima, Y. Honda, O. Kitao, H. Nakai, 
 T. Vreven, K. Throssell, J. A. Montgomery, Jr., J. E. Peralta, 
 F. Ogliaro, M. J. Bearpark, J. J. Heyd, E. N. Brothers, K. N. Kudin, 
 V. N. Staroverov, T. A. Keith, R. Kobayashi, J. Normand, 
 K. Raghavachari, A. P. Rendell, J. C. Burant, S. S. Iyengar, 
 J. Tomasi, M. Cossi, J. M. Millam, M. Klene, C. Adamo, R. Cammi, 
 J. W. Ochterski, R. L. Martin, K. Morokuma, O. Farkas, 
 J. B. Foresman, and D. J. Fox, Gaussian, Inc., Wallingford CT, 2016.
 
 ******************************************
 Gaussian 16:  EM64L-G16RevA.03 25-Dec-2016
                21-Feb-2019 
 ******************************************
 %nprocshared=20
 Will use up to   20 processors via shared memory.
 %mem=5GB
 --------------------------------------------------------------------
 #p m062x/6-311+g(2df,2p) opt=(calcfc,maxcycle=1000) freq iop(7/33=1)
 --------------------------------------------------------------------
 1/6=1000,10=4,18=20,19=15,26=3,38=1/1,3;
 2/9=110,12=2,17=6,18=5,40=1/2;
 3/5=4,6=6,7=214,11=2,25=1,30=1,71=2,74=-55,140=1/1,2,3;
 4//1;
 5/5=2,38=5/2;
 8/6=4,10=90,11=11/1;
 11/6=1,8=1,9=11,15=111,16=1/1,2,10;
 10/6=1,13=1/2;
 6/7=2,8=2,9=2,10=2,28=1/1;
 7/10=1,18=20,25=1,33=1/1,2,3,16;
 1/6=1000,10=4,18=20,19=15,26=3/3(2);
 2/9=110/2;
 99//99;
 2/9=110/2;
 3/5=4,6=6,7=214,11=2,25=1,30=1,71=1,74=-55/1,2,3;
 4/5=5,16=3,69=1/1;
 5/5=2,38=5/2;
 7/33=1/1,2,3,16;
 1/6=1000,18=20,19=15,26=3/3(-5);
 2/9=110/2;
 6/7=2,8=2,9=2,10=2,19=2,28=1/1;
 99/9=1/99;
 Leave Link    1 at Thu Feb 21 14:33:40 2019, MaxMem=   671088640 cpu:              25.8 elap:               1.4
 (Enter /shared/centos7/gaussian/g16/l101.exe)
 ------------------------------
 Gaussian input prepared by ASE
 ------------------------------
 Symbolic Z-matrix:
 Charge =  0 Multiplicity = 1
 O                     1.0541   -0.3147    0.8507 
 O                    -1.672     1.197    -0.9312 
 C                    -0.1105   -0.2284    0.1346 
 C                    -0.3183    1.0623   -0.594 
 C                    -1.2474   -0.5229    1.1089 
 C                    -0.1275   -1.3396   -0.8908 
 C                     2.0839    0.4889    0.4397 
 H                    -0.0284    1.9489    0.0072 
 H                     0.2112    1.0267   -1.5799 
 H                    -1.5567    0.3725    1.6646 
 H                    -0.8591   -1.2473    1.8691 
 H                    -2.0806   -1.043     0.6 
 H                     0.852    -1.8689   -0.9351 
 H                    -0.358    -0.9791   -1.9128 
 H                    -0.8815   -2.1206   -0.6648 
 H                     2.4493    1.1202    1.2764 
 H                     2.9435   -0.1606    0.1352 
 H                     1.8723    1.1354   -0.4191 
 H                    -2.2261    1.4733   -0.1586 
 
 ITRead=  0  0  0  0  0  0  0  0  0  0  0  0  0  0  0  0  0  0  0
 MicOpt= -1 -1 -1 -1 -1 -1 -1 -1 -1 -1 -1 -1 -1 -1 -1 -1 -1 -1 -1
 NAtoms=     19 NQM=       19 NQMF=       0 NMMI=      0 NMMIF=      0
                NMic=       0 NMicF=      0.
                    Isotopes and Nuclear Properties:
 (Nuclear quadrupole moments (NQMom) in fm**2, nuclear magnetic moments (NMagM)
  in nuclear magnetons)

  Atom         1           2           3           4           5           6           7           8           9          10
 IAtWgt=          16          16          12          12          12          12          12           1           1           1
 AtmWgt=  15.9949146  15.9949146  12.0000000  12.0000000  12.0000000  12.0000000  12.0000000   1.0078250   1.0078250   1.0078250
 NucSpn=           0           0           0           0           0           0           0           1           1           1
 AtZEff=  -0.0000000  -0.0000000  -0.0000000  -0.0000000  -0.0000000  -0.0000000  -0.0000000  -0.0000000  -0.0000000  -0.0000000
 NQMom=    0.0000000   0.0000000   0.0000000   0.0000000   0.0000000   0.0000000   0.0000000   0.0000000   0.0000000   0.0000000
 NMagM=    0.0000000   0.0000000   0.0000000   0.0000000   0.0000000   0.0000000   0.0000000   2.7928460   2.7928460   2.7928460
 AtZNuc=   8.0000000   8.0000000   6.0000000   6.0000000   6.0000000   6.0000000   6.0000000   1.0000000   1.0000000   1.0000000

  Atom        11          12          13          14          15          16          17          18          19
 IAtWgt=           1           1           1           1           1           1           1           1           1
 AtmWgt=   1.0078250   1.0078250   1.0078250   1.0078250   1.0078250   1.0078250   1.0078250   1.0078250   1.0078250
 NucSpn=           1           1           1           1           1           1           1           1           1
 AtZEff=  -0.0000000  -0.0000000  -0.0000000  -0.0000000  -0.0000000  -0.0000000  -0.0000000  -0.0000000  -0.0000000
 NQMom=    0.0000000   0.0000000   0.0000000   0.0000000   0.0000000   0.0000000   0.0000000   0.0000000   0.0000000
 NMagM=    2.7928460   2.7928460   2.7928460   2.7928460   2.7928460   2.7928460   2.7928460   2.7928460   2.7928460
 AtZNuc=   1.0000000   1.0000000   1.0000000   1.0000000   1.0000000   1.0000000   1.0000000   1.0000000   1.0000000
 Leave Link  101 at Thu Feb 21 14:33:41 2019, MaxMem=   671088640 cpu:               5.1 elap:               0.3
 (Enter /shared/centos7/gaussian/g16/l103.exe)

 GradGradGradGradGradGradGradGradGradGradGradGradGradGradGradGradGradGrad
 Berny optimization.
 Initialization pass.
                           ----------------------------
                           !    Initial Parameters    !
                           ! (Angstroms and Degrees)  !
 --------------------------                            --------------------------
 ! Name  Definition              Value          Derivative Info.                !
 --------------------------------------------------------------------------------
 ! R1    R(1,3)                  1.3699         calculate D2E/DX2 analytically  !
 ! R2    R(1,7)                  1.3694         calculate D2E/DX2 analytically  !
 ! R3    R(2,4)                  1.4016         calculate D2E/DX2 analytically  !
 ! R4    R(2,19)                 0.9901         calculate D2E/DX2 analytically  !
 ! R5    R(3,4)                  1.4966         calculate D2E/DX2 analytically  !
 ! R6    R(3,5)                  1.526          calculate D2E/DX2 analytically  !
 ! R7    R(3,6)                  1.5121         calculate D2E/DX2 analytically  !
 ! R8    R(4,8)                  1.1097         calculate D2E/DX2 analytically  !
 ! R9    R(4,9)                  1.1197         calculate D2E/DX2 analytically  !
 ! R10   R(5,10)                 1.0983         calculate D2E/DX2 analytically  !
 ! R11   R(5,11)                 1.1196         calculate D2E/DX2 analytically  !
 ! R12   R(5,12)                 1.1062         calculate D2E/DX2 analytically  !
 ! R13   R(6,13)                 1.1142         calculate D2E/DX2 analytically  !
 ! R14   R(6,14)                 1.108          calculate D2E/DX2 analytically  !
 ! R15   R(6,15)                 1.1089         calculate D2E/DX2 analytically  !
 ! R16   R(7,16)                 1.11           calculate D2E/DX2 analytically  !
 ! R17   R(7,17)                 1.1196         calculate D2E/DX2 analytically  !
 ! R18   R(7,18)                 1.0956         calculate D2E/DX2 analytically  !
 ! A1    A(3,1,7)              116.4533         calculate D2E/DX2 analytically  !
 ! A2    A(4,2,19)             112.31           calculate D2E/DX2 analytically  !
 ! A3    A(1,3,4)              115.2682         calculate D2E/DX2 analytically  !
 ! A4    A(1,3,5)              106.7068         calculate D2E/DX2 analytically  !
 ! A5    A(1,3,6)              108.527          calculate D2E/DX2 analytically  !
 ! A6    A(4,3,5)              111.9515         calculate D2E/DX2 analytically  !
 ! A7    A(4,3,6)              107.5812         calculate D2E/DX2 analytically  !
 ! A8    A(5,3,6)              106.4257         calculate D2E/DX2 analytically  !
 ! A9    A(2,4,3)              109.5185         calculate D2E/DX2 analytically  !
 ! A10   A(2,4,8)              107.8103         calculate D2E/DX2 analytically  !
 ! A11   A(2,4,9)              104.3576         calculate D2E/DX2 analytically  !
 ! A12   A(3,4,8)              112.8911         calculate D2E/DX2 analytically  !
 ! A13   A(3,4,9)              109.608          calculate D2E/DX2 analytically  !
 ! A14   A(8,4,9)              112.2648         calculate D2E/DX2 analytically  !
 ! A15   A(3,5,10)             112.0574         calculate D2E/DX2 analytically  !
 ! A16   A(3,5,11)             107.4582         calculate D2E/DX2 analytically  !
 ! A17   A(3,5,12)             110.9883         calculate D2E/DX2 analytically  !
 ! A18   A(10,5,11)            106.3572         calculate D2E/DX2 analytically  !
 ! A19   A(10,5,12)            113.8261         calculate D2E/DX2 analytically  !
 ! A20   A(11,5,12)            105.6281         calculate D2E/DX2 analytically  !
 ! A21   A(3,6,13)             111.479          calculate D2E/DX2 analytically  !
 ! A22   A(3,6,14)             112.8764         calculate D2E/DX2 analytically  !
 ! A23   A(3,6,15)             112.7693         calculate D2E/DX2 analytically  !
 ! A24   A(13,6,14)            107.5039         calculate D2E/DX2 analytically  !
 ! A25   A(13,6,15)            105.7403         calculate D2E/DX2 analytically  !
 ! A26   A(14,6,15)            106.0042         calculate D2E/DX2 analytically  !
 ! A27   A(1,7,16)             110.7979         calculate D2E/DX2 analytically  !
 ! A28   A(1,7,17)             108.5771         calculate D2E/DX2 analytically  !
 ! A29   A(1,7,18)             115.8694         calculate D2E/DX2 analytically  !
 ! A30   A(16,7,17)            106.3916         calculate D2E/DX2 analytically  !
 ! A31   A(16,7,18)            108.5929         calculate D2E/DX2 analytically  !
 ! A32   A(17,7,18)            106.1067         calculate D2E/DX2 analytically  !
 ! D1    D(7,1,3,4)            -24.2944         calculate D2E/DX2 analytically  !
 ! D2    D(7,1,3,5)           -149.2726         calculate D2E/DX2 analytically  !
 ! D3    D(7,1,3,6)             96.3998         calculate D2E/DX2 analytically  !
 ! D4    D(3,1,7,16)           124.9861         calculate D2E/DX2 analytically  !
 ! D5    D(3,1,7,17)          -118.5189         calculate D2E/DX2 analytically  !
 ! D6    D(3,1,7,18)             0.7065         calculate D2E/DX2 analytically  !
 ! D7    D(19,2,4,3)            77.5257         calculate D2E/DX2 analytically  !
 ! D8    D(19,2,4,8)           -45.66           calculate D2E/DX2 analytically  !
 ! D9    D(19,2,4,9)          -165.1996         calculate D2E/DX2 analytically  !
 ! D10   D(1,3,4,2)           -161.9347         calculate D2E/DX2 analytically  !
 ! D11   D(1,3,4,8)            -41.8068         calculate D2E/DX2 analytically  !
 ! D12   D(1,3,4,9)             84.1386         calculate D2E/DX2 analytically  !
 ! D13   D(5,3,4,2)            -39.7276         calculate D2E/DX2 analytically  !
 ! D14   D(5,3,4,8)             80.4003         calculate D2E/DX2 analytically  !
 ! D15   D(5,3,4,9)           -153.6543         calculate D2E/DX2 analytically  !
 ! D16   D(6,3,4,2)             76.8571         calculate D2E/DX2 analytically  !
 ! D17   D(6,3,4,8)           -163.015          calculate D2E/DX2 analytically  !
 ! D18   D(6,3,4,9)            -37.0696         calculate D2E/DX2 analytically  !
 ! D19   D(1,3,5,10)            84.7211         calculate D2E/DX2 analytically  !
 ! D20   D(1,3,5,11)           -31.7644         calculate D2E/DX2 analytically  !
 ! D21   D(1,3,5,12)          -146.796          calculate D2E/DX2 analytically  !
 ! D22   D(4,3,5,10)           -42.2545         calculate D2E/DX2 analytically  !
 ! D23   D(4,3,5,11)          -158.74           calculate D2E/DX2 analytically  !
 ! D24   D(4,3,5,12)            86.2284         calculate D2E/DX2 analytically  !
 ! D25   D(6,3,5,10)          -159.5347         calculate D2E/DX2 analytically  !
 ! D26   D(6,3,5,11)            83.9798         calculate D2E/DX2 analytically  !
 ! D27   D(6,3,5,12)           -31.0518         calculate D2E/DX2 analytically  !
 ! D28   D(1,3,6,13)            -8.4103         calculate D2E/DX2 analytically  !
 ! D29   D(1,3,6,14)          -129.5305         calculate D2E/DX2 analytically  !
 ! D30   D(1,3,6,15)           110.3613         calculate D2E/DX2 analytically  !
 ! D31   D(4,3,6,13)           116.9299         calculate D2E/DX2 analytically  !
 ! D32   D(4,3,6,14)            -4.1903         calculate D2E/DX2 analytically  !
 ! D33   D(4,3,6,15)          -124.2985         calculate D2E/DX2 analytically  !
 ! D34   D(5,3,6,13)          -122.9221         calculate D2E/DX2 analytically  !
 ! D35   D(5,3,6,14)           115.9577         calculate D2E/DX2 analytically  !
 ! D36   D(5,3,6,15)            -4.1505         calculate D2E/DX2 analytically  !
 --------------------------------------------------------------------------------
 Trust Radius=3.00D-01 FncErr=1.00D-07 GrdErr=1.00D-06 EigMax=2.50D+02 EigMin=1.00D-04
 Number of steps in this run=    114 maximum allowed number of steps=    114.
 GradGradGradGradGradGradGradGradGradGradGradGradGradGradGradGradGradGrad

 Leave Link  103 at Thu Feb 21 14:33:41 2019, MaxMem=   671088640 cpu:               0.2 elap:               0.0
 (Enter /shared/centos7/gaussian/g16/l202.exe)
                          Input orientation:                          
 ---------------------------------------------------------------------
 Center     Atomic      Atomic             Coordinates (Angstroms)
 Number     Number       Type             X           Y           Z
 ---------------------------------------------------------------------
      1          8           0        1.054100   -0.314700    0.850700
      2          8           0       -1.672000    1.197000   -0.931200
      3          6           0       -0.110500   -0.228400    0.134600
      4          6           0       -0.318300    1.062300   -0.594000
      5          6           0       -1.247400   -0.522900    1.108900
      6          6           0       -0.127500   -1.339600   -0.890800
      7          6           0        2.083900    0.488900    0.439700
      8          1           0       -0.028400    1.948900    0.007200
      9          1           0        0.211200    1.026700   -1.579900
     10          1           0       -1.556700    0.372500    1.664600
     11          1           0       -0.859100   -1.247300    1.869100
     12          1           0       -2.080600   -1.043000    0.600000
     13          1           0        0.852000   -1.868900   -0.935100
     14          1           0       -0.358000   -0.979100   -1.912800
     15          1           0       -0.881500   -2.120600   -0.664800
     16          1           0        2.449300    1.120200    1.276400
     17          1           0        2.943500   -0.160600    0.135200
     18          1           0        1.872300    1.135400   -0.419100
     19          1           0       -2.226100    1.473300   -0.158600
 ---------------------------------------------------------------------
                    Distance matrix (angstroms):
                    1          2          3          4          5
     1  O    0.000000
     2  O    3.590547   0.000000
     3  C    1.369869   2.367694   0.000000
     4  C    2.422141   1.401553   1.496645   0.000000
     5  C    2.325278   2.701916   1.525953   2.505185   0.000000
     6  C    2.340816   2.970093   1.512118   2.427678   2.433100
     7  C    1.369373   4.060487   2.328733   2.677291   3.545297
     8  H    2.647109   2.036509   2.182569   1.109749   2.968080
     9  H    2.901319   1.999064   2.149018   1.119659   3.429055
    10  H    2.819744   2.726036   2.189401   2.666596   1.098276
    11  H    2.359495   3.804877   2.146404   3.419587   1.119570
    12  H    3.227943   2.743926   2.182078   2.993931   1.106212
    13  H    2.376018   3.971188   2.182179   3.174568   3.224458
    14  H    3.173702   2.724985   2.194688   2.430663   3.182738
    15  H    3.050338   3.420867   2.194061   3.233119   2.415065
    16  H    2.046153   4.675950   3.110467   3.340862   4.048879
    17  H    2.026208   4.927791   3.054753   3.559011   4.317754
    18  H    2.093952   3.581634   2.469419   2.198786   3.849321
    19  H    3.869799   0.990091   2.730845   1.999549   2.559145
                    6          7          8          9         10
     6  C    0.000000
     7  C    3.162899   0.000000
     8  H    3.410346   2.603933   0.000000
     9  H    2.487760   2.806246   1.851148   0.000000
    10  H    3.391750   3.842902   2.750948   3.752363   0.000000
    11  H    2.856712   3.703893   3.791099   4.267578   1.775449
    12  H    2.474885   4.440211   3.676194   3.779943   1.847020
    13  H    1.114245   2.994474   4.029718   3.034945   4.193346
    14  H    1.107960   3.694882   3.516848   2.111408   4.007680
    15  H    1.108852   4.101586   4.211911   3.454982   3.478153
    16  H    4.169805   1.110011   2.904584   3.629915   4.093628
    17  H    3.445832   1.119590   3.646720   3.437545   4.782788
    18  H    3.216726   1.095570   2.110965   2.029415   4.084344
    19  H    3.585059   4.461290   2.254677   2.856567   2.232468
                   11         12         13         14         15
    11  H    0.000000
    12  H    1.773250   0.000000
    13  H    3.343320   3.411566   0.000000
    14  H    3.824369   3.047228   1.792133   0.000000
    15  H    2.680262   2.049093   1.772410   1.770474   0.000000
    16  H    4.111187   5.065269   4.046828   4.739092   5.036395
    17  H    4.318228   5.122133   2.904859   3.970409   4.371753
    18  H    4.286451   4.627030   3.214512   3.417088   4.271454
    19  H    3.658131   2.632187   4.609550   3.547010   3.870440
                   16         17         18         19
    16  H    0.000000
    17  H    1.785223   0.000000
    18  H    1.791056   1.770405   0.000000
    19  H    4.903394   5.429614   4.120548   0.000000
 Stoichiometry    C5H12O2
 Framework group  C1[X(C5H12O2)]
 Deg. of freedom    51
 Full point group                 C1      NOp   1
 Largest Abelian subgroup         C1      NOp   1
 Largest concise Abelian subgroup C1      NOp   1
                         Standard orientation:                         
 ---------------------------------------------------------------------
 Center     Atomic      Atomic             Coordinates (Angstroms)
 Number     Number       Type             X           Y           Z
 ---------------------------------------------------------------------
      1          8           0        1.333587    0.373889   -0.391471
      2          8           0       -1.954405   -0.988260    0.083587
      3          6           0        0.016449    0.319866   -0.018955
      4          6           0       -0.554820   -1.057372    0.110705
      5          6           0       -0.758805    1.166695   -1.024139
      6          6           0       -0.132278    1.004079    1.321281
      7          6           0        2.093284   -0.729759   -0.108619
      8          1           0       -0.232652   -1.736930   -0.705354
      9          1           0       -0.316751   -1.469006    1.124370
     10          1           0       -1.020821    0.598573   -1.926799
     11          1           0       -0.083017    1.994613   -1.357753
     12          1           0       -1.622093    1.662654   -0.541992
     13          1           0        0.859191    1.254860    1.763593
     14          1           0       -0.680898    0.387978    2.060882
     15          1           0       -0.683241    1.964027    1.254258
     16          1           0        2.586304   -1.114460   -1.025712
     17          1           0        2.915247   -0.427731    0.588976
     18          1           0        1.569102   -1.558465    0.380005
     19          1           0       -2.306805   -0.862197   -0.833038
 ---------------------------------------------------------------------
 Rotational constants (GHZ):           3.4968128           2.1275174           1.8599552
 Leave Link  202 at Thu Feb 21 14:33:41 2019, MaxMem=   671088640 cpu:               0.1 elap:               0.0
 (Enter /shared/centos7/gaussian/g16/l301.exe)
 Standard basis: 6-311+G(2df,2p) (5D, 7F)
 Ernie: Thresh=  0.10000D-02 Tol=  0.10000D-05 Strict=F.
 There are   381 symmetry adapted cartesian basis functions of A   symmetry.
 There are   346 symmetry adapted basis functions of A   symmetry.
   346 basis functions,   496 primitive gaussians,   381 cartesian basis functions
    29 alpha electrons       29 beta electrons
       nuclear repulsion energy       355.1461306342 Hartrees.
 IExCor= 4336 DFT=T Ex+Corr=M062X ExCW=0 ScaHFX=  0.540000
 ScaDFX=  1.000000  1.000000  1.000000  1.000000 ScalE2=  1.000000  1.000000
 IRadAn=      5 IRanWt=     -1 IRanGd=            0 ICorTp=0 IEmpDi=  4
 NAtoms=   19 NActive=   19 NUniq=   19 SFac= 1.00D+00 NAtFMM=   60 NAOKFM=F Big=F
 Integral buffers will be    131072 words long.
 Raffenetti 2 integral format.
 Two-electron integral symmetry is turned on.
 Leave Link  301 at Thu Feb 21 14:33:41 2019, MaxMem=   671088640 cpu:               0.9 elap:               0.1
 (Enter /shared/centos7/gaussian/g16/l302.exe)
 NPDir=0 NMtPBC=     1 NCelOv=     1 NCel=       1 NClECP=     1 NCelD=      1
         NCelK=      1 NCelE2=     1 NClLst=     1 CellRange=     0.0.
 One-electron integrals computed using PRISM.
 One-electron integral symmetry used in STVInt
 NBasis=   346 RedAO= T EigKep=  1.60D-05  NBF=   346
 NBsUse=   346 1.00D-06 EigRej= -1.00D+00 NBFU=   346
 Precomputing XC quadrature grid using
 IXCGrd= 4 IRadAn=           5 IRanWt=          -1 IRanGd=           0 AccXCQ= 0.00D+00.
 Generated NRdTot=       0 NPtTot=           0 NUsed=           0 NTot=          32
 NSgBfM=   381   381   381   381   381 MxSgAt=    19 MxSgA2=    19.
 Leave Link  302 at Thu Feb 21 14:33:41 2019, MaxMem=   671088640 cpu:               8.2 elap:               0.4
 (Enter /shared/centos7/gaussian/g16/l303.exe)
 DipDrv:  MaxL=1.
 Leave Link  303 at Thu Feb 21 14:33:41 2019, MaxMem=   671088640 cpu:               0.6 elap:               0.1
 (Enter /shared/centos7/gaussian/g16/l401.exe)
 ExpMin= 4.38D-02 ExpMax= 8.59D+03 ExpMxC= 1.30D+03 IAcc=3 IRadAn=         5 AccDes= 0.00D+00
 Harris functional with IExCor= 1009 and IRadAn=       5 diagonalized for initial guess.
 HarFok:  IExCor= 1009 AccDes= 0.00D+00 IRadAn=         5 IDoV= 1 UseB2=F ITyADJ=14
 ICtDFT=  3500011 ScaDFX=  1.000000  1.000000  1.000000  1.000000
 FoFCou: FMM=F IPFlag=           0 FMFlag=      100000 FMFlg1=           0
         NFxFlg=           0 DoJE=T BraDBF=F KetDBF=T FulRan=T
         wScrn=  0.000000 ICntrl=       500 IOpCl=  0 I1Cent=   200000004 NGrid=           0
         NMat0=    1 NMatS0=      1 NMatT0=    0 NMatD0=    1 NMtDS0=    0 NMtDT0=    0
 Petite list used in FoFCou.
 Harris En= -348.008956817856    
 JPrj=0 DoOrth=F DoCkMO=F.
 Leave Link  401 at Thu Feb 21 14:33:43 2019, MaxMem=   671088640 cpu:              26.9 elap:               1.4
 (Enter /shared/centos7/gaussian/g16/l502.exe)
 Integral symmetry usage will be decided dynamically.
 Closed shell SCF:
 Using DIIS extrapolation, IDIIS=  1040.
 NGot=   671088640 LenX=   670787189 LenY=   670641587
 Requested convergence on RMS density matrix=1.00D-08 within 128 cycles.
 Requested convergence on MAX density matrix=1.00D-06.
 Requested convergence on             energy=1.00D-06.
 No special actions if energy rises.
 Fock matrices will be formed incrementally for  20 cycles.

 Cycle   1  Pass 1  IDiag  1:
 FoFJK:  IHMeth= 1 ICntrl=       0 DoSepK=F KAlg= 0 I1Cent=           0 FoldK=F
 IRaf= 980000000 NMat=       1 IRICut=       1 DoRegI=T DoRafI=F ISym2E= 0 IDoP0=0 IntGTp=1.
 FoFCou: FMM=F IPFlag=           0 FMFlag=      100000 FMFlg1=           0
         NFxFlg=           0 DoJE=F BraDBF=F KetDBF=F FulRan=T
         wScrn=  0.000000 ICntrl=         0 IOpCl=  0 I1Cent=           0 NGrid=           0
         NMat0=    1 NMatS0=      1 NMatT0=    0 NMatD0=    1 NMtDS0=    0 NMtDT0=    0
 Symmetry not used in FoFCou.
 E= -347.862835424473    
 DIIS: error= 1.93D-02 at cycle   1 NSaved=   1.
 NSaved= 1 IEnMin= 1 EnMin= -347.862835424473     IErMin= 1 ErrMin= 1.93D-02
 ErrMax= 1.93D-02  0.00D+00 EMaxC= 1.00D-01 BMatC= 3.26D-01 BMatP= 3.26D-01
 IDIUse=3 WtCom= 8.07D-01 WtEn= 1.93D-01
 Coeff-Com:  0.100D+01
 Coeff-En:   0.100D+01
 Coeff:      0.100D+01
 Gap=     0.290 Goal=   None    Shift=    0.000
 GapD=    0.290 DampG=1.000 DampE=0.500 DampFc=0.5000 IDamp=-1.
 Damping current iteration by 5.00D-01
 RMSDP=2.92D-03 MaxDP=1.37D-01              OVMax= 1.48D-01

 Cycle   2  Pass 1  IDiag  1:
 RMSU=  1.45D-03    CP:  9.80D-01
 E= -347.991413130069     Delta-E=       -0.128577705596 Rises=F Damp=T
 DIIS: error= 4.56D-03 at cycle   2 NSaved=   2.
 NSaved= 2 IEnMin= 2 EnMin= -347.991413130069     IErMin= 2 ErrMin= 4.56D-03
 ErrMax= 4.56D-03  0.00D+00 EMaxC= 1.00D-01 BMatC= 2.12D-02 BMatP= 3.26D-01
 IDIUse=3 WtCom= 9.54D-01 WtEn= 4.56D-02
 Coeff-Com: -0.856D-01 0.109D+01
 Coeff-En:   0.000D+00 0.100D+01
 Coeff:     -0.817D-01 0.108D+01
 Gap=     0.340 Goal=   None    Shift=    0.000
 RMSDP=1.26D-03 MaxDP=1.81D-01 DE=-1.29D-01 OVMax= 7.80D-02

 Cycle   3  Pass 1  IDiag  1:
 RMSU=  1.19D-03    CP:  9.39D-01  8.60D-01
 E= -348.115107394747     Delta-E=       -0.123694264678 Rises=F Damp=F
 DIIS: error= 2.67D-03 at cycle   3 NSaved=   3.
 NSaved= 3 IEnMin= 3 EnMin= -348.115107394747     IErMin= 3 ErrMin= 2.67D-03
 ErrMax= 2.67D-03  0.00D+00 EMaxC= 1.00D-01 BMatC= 4.87D-03 BMatP= 2.12D-02
 IDIUse=3 WtCom= 9.73D-01 WtEn= 2.67D-02
 Coeff-Com: -0.793D-01 0.321D+00 0.758D+00
 Coeff-En:   0.000D+00 0.000D+00 0.100D+01
 Coeff:     -0.772D-01 0.312D+00 0.765D+00
 Gap=     0.324 Goal=   None    Shift=    0.000
 RMSDP=2.04D-04 MaxDP=1.16D-02 DE=-1.24D-01 OVMax= 1.22D-02

 Cycle   4  Pass 1  IDiag  1:
 RMSU=  1.80D-04    CP:  9.36D-01  9.19D-01  9.77D-01
 E= -348.117954409829     Delta-E=       -0.002847015082 Rises=F Damp=F
 DIIS: error= 1.00D-03 at cycle   4 NSaved=   4.
 NSaved= 4 IEnMin= 4 EnMin= -348.117954409829     IErMin= 4 ErrMin= 1.00D-03
 ErrMax= 1.00D-03  0.00D+00 EMaxC= 1.00D-01 BMatC= 9.53D-04 BMatP= 4.87D-03
 IDIUse=3 WtCom= 9.90D-01 WtEn= 1.00D-02
 Coeff-Com: -0.292D-01 0.744D-01 0.357D+00 0.598D+00
 Coeff-En:   0.000D+00 0.000D+00 0.729D-01 0.927D+00
 Coeff:     -0.289D-01 0.736D-01 0.354D+00 0.601D+00
 Gap=     0.323 Goal=   None    Shift=    0.000
 RMSDP=7.60D-05 MaxDP=4.11D-03 DE=-2.85D-03 OVMax= 4.09D-03

 Cycle   5  Pass 1  IDiag  1:
 RMSU=  6.16D-05    CP:  9.34D-01  9.06D-01  9.89D-01  8.08D-01
 E= -348.118643266636     Delta-E=       -0.000688856808 Rises=F Damp=F
 DIIS: error= 2.03D-04 at cycle   5 NSaved=   5.
 NSaved= 5 IEnMin= 5 EnMin= -348.118643266636     IErMin= 5 ErrMin= 2.03D-04
 ErrMax= 2.03D-04  0.00D+00 EMaxC= 1.00D-01 BMatC= 2.07D-05 BMatP= 9.53D-04
 IDIUse=3 WtCom= 9.98D-01 WtEn= 2.03D-03
 Coeff-Com: -0.518D-02 0.896D-02 0.776D-01 0.197D+00 0.721D+00
 Coeff-En:   0.000D+00 0.000D+00 0.000D+00 0.000D+00 0.100D+01
 Coeff:     -0.517D-02 0.895D-02 0.775D-01 0.197D+00 0.722D+00
 Gap=     0.323 Goal=   None    Shift=    0.000
 RMSDP=2.28D-05 MaxDP=1.41D-03 DE=-6.89D-04 OVMax= 7.08D-04

 Cycle   6  Pass 1  IDiag  1:
 RMSU=  2.01D-05    CP:  9.34D-01  9.01D-01  9.94D-01  8.39D-01  1.04D+00
 E= -348.118657757600     Delta-E=       -0.000014490964 Rises=F Damp=F
 DIIS: error= 6.01D-05 at cycle   6 NSaved=   6.
 NSaved= 6 IEnMin= 6 EnMin= -348.118657757600     IErMin= 6 ErrMin= 6.01D-05
 ErrMax= 6.01D-05  0.00D+00 EMaxC= 1.00D-01 BMatC= 2.02D-06 BMatP= 2.07D-05
 IDIUse=1 WtCom= 1.00D+00 WtEn= 0.00D+00
 Coeff-Com: -0.226D-03-0.104D-02 0.113D-01 0.492D-01 0.293D+00 0.648D+00
 Coeff:     -0.226D-03-0.104D-02 0.113D-01 0.492D-01 0.293D+00 0.648D+00
 Gap=     0.323 Goal=   None    Shift=    0.000
 RMSDP=4.95D-06 MaxDP=2.78D-04 DE=-1.45D-05 OVMax= 2.73D-04

 Cycle   7  Pass 1  IDiag  1:
 RMSU=  3.57D-06    CP:  9.34D-01  9.00D-01  9.94D-01  8.44D-01  1.09D+00
                    CP:  1.00D+00
 E= -348.118659432884     Delta-E=       -0.000001675284 Rises=F Damp=F
 DIIS: error= 1.86D-05 at cycle   7 NSaved=   7.
 NSaved= 7 IEnMin= 7 EnMin= -348.118659432884     IErMin= 7 ErrMin= 1.86D-05
 ErrMax= 1.86D-05  0.00D+00 EMaxC= 1.00D-01 BMatC= 1.22D-07 BMatP= 2.02D-06
 IDIUse=1 WtCom= 1.00D+00 WtEn= 0.00D+00
 Coeff-Com:  0.682D-03-0.148D-02-0.799D-02-0.144D-01-0.324D-01 0.167D+00
 Coeff-Com:  0.889D+00
 Coeff:      0.682D-03-0.148D-02-0.799D-02-0.144D-01-0.324D-01 0.167D+00
 Coeff:      0.889D+00
 Gap=     0.323 Goal=   None    Shift=    0.000
 RMSDP=2.99D-06 MaxDP=2.04D-04 DE=-1.68D-06 OVMax= 9.64D-05

 Cycle   8  Pass 1  IDiag  1:
 RMSU=  1.22D-06    CP:  9.34D-01  8.99D-01  9.95D-01  8.48D-01  1.11D+00
                    CP:  1.07D+00  1.03D+00
 E= -348.118659554594     Delta-E=       -0.000000121710 Rises=F Damp=F
 DIIS: error= 3.33D-06 at cycle   8 NSaved=   8.
 NSaved= 8 IEnMin= 8 EnMin= -348.118659554594     IErMin= 8 ErrMin= 3.33D-06
 ErrMax= 3.33D-06  0.00D+00 EMaxC= 1.00D-01 BMatC= 4.90D-09 BMatP= 1.22D-07
 IDIUse=1 WtCom= 1.00D+00 WtEn= 0.00D+00
 Coeff-Com:  0.180D-03-0.371D-03-0.260D-02-0.556D-02-0.181D-01 0.285D-01
 Coeff-Com:  0.255D+00 0.743D+00
 Coeff:      0.180D-03-0.371D-03-0.260D-02-0.556D-02-0.181D-01 0.285D-01
 Coeff:      0.255D+00 0.743D+00
 Gap=     0.323 Goal=   None    Shift=    0.000
 RMSDP=4.14D-07 MaxDP=2.58D-05 DE=-1.22D-07 OVMax= 1.68D-05

 Cycle   9  Pass 1  IDiag  1:
 RMSU=  3.63D-07    CP:  9.34D-01  9.00D-01  9.95D-01  8.48D-01  1.11D+00
                    CP:  1.08D+00  1.06D+00  9.86D-01
 E= -348.118659558259     Delta-E=       -0.000000003665 Rises=F Damp=F
 DIIS: error= 1.26D-06 at cycle   9 NSaved=   9.
 NSaved= 9 IEnMin= 9 EnMin= -348.118659558259     IErMin= 9 ErrMin= 1.26D-06
 ErrMax= 1.26D-06  0.00D+00 EMaxC= 1.00D-01 BMatC= 1.18D-09 BMatP= 4.90D-09
 IDIUse=1 WtCom= 1.00D+00 WtEn= 0.00D+00
 Coeff-Com:  0.155D-04-0.261D-04-0.460D-03-0.121D-02-0.484D-02-0.760D-03
 Coeff-Com:  0.349D-01 0.341D+00 0.632D+00
 Coeff:      0.155D-04-0.261D-04-0.460D-03-0.121D-02-0.484D-02-0.760D-03
 Coeff:      0.349D-01 0.341D+00 0.632D+00
 Gap=     0.323 Goal=   None    Shift=    0.000
 RMSDP=1.29D-07 MaxDP=5.03D-06 DE=-3.67D-09 OVMax= 6.57D-06

 Cycle  10  Pass 1  IDiag  1:
 RMSU=  9.25D-08    CP:  9.34D-01  9.00D-01  9.95D-01  8.48D-01  1.11D+00
                    CP:  1.08D+00  1.06D+00  1.05D+00  9.63D-01
 E= -348.118659559114     Delta-E=       -0.000000000855 Rises=F Damp=F
 DIIS: error= 3.51D-07 at cycle  10 NSaved=  10.
 NSaved=10 IEnMin=10 EnMin= -348.118659559114     IErMin=10 ErrMin= 3.51D-07
 ErrMax= 3.51D-07  0.00D+00 EMaxC= 1.00D-01 BMatC= 8.00D-11 BMatP= 1.18D-09
 IDIUse=1 WtCom= 1.00D+00 WtEn= 0.00D+00
 Coeff-Com: -0.188D-04 0.396D-04 0.161D-03 0.230D-03 0.402D-03-0.402D-02
 Coeff-Com: -0.207D-01 0.319D-01 0.226D+00 0.766D+00
 Coeff:     -0.188D-04 0.396D-04 0.161D-03 0.230D-03 0.402D-03-0.402D-02
 Coeff:     -0.207D-01 0.319D-01 0.226D+00 0.766D+00
 Gap=     0.323 Goal=   None    Shift=    0.000
 RMSDP=4.60D-08 MaxDP=1.99D-06 DE=-8.55D-10 OVMax= 2.29D-06

 Cycle  11  Pass 1  IDiag  1:
 RMSU=  2.64D-08    CP:  9.34D-01  9.00D-01  9.95D-01  8.48D-01  1.11D+00
                    CP:  1.08D+00  1.06D+00  1.07D+00  1.01D+00  9.38D-01
 E= -348.118659559183     Delta-E=       -0.000000000069 Rises=F Damp=F
 DIIS: error= 3.73D-08 at cycle  11 NSaved=  11.
 NSaved=11 IEnMin=11 EnMin= -348.118659559183     IErMin=11 ErrMin= 3.73D-08
 ErrMax= 3.73D-08  0.00D+00 EMaxC= 1.00D-01 BMatC= 1.29D-12 BMatP= 8.00D-11
 IDIUse=1 WtCom= 1.00D+00 WtEn= 0.00D+00
 Coeff-Com: -0.549D-06 0.168D-05 0.205D-04 0.357D-04 0.147D-03-0.504D-04
 Coeff-Com: -0.196D-02-0.145D-01-0.147D-01 0.446D-01 0.986D+00
 Coeff:     -0.549D-06 0.168D-05 0.205D-04 0.357D-04 0.147D-03-0.504D-04
 Coeff:     -0.196D-02-0.145D-01-0.147D-01 0.446D-01 0.986D+00
 Gap=     0.323 Goal=   None    Shift=    0.000
 RMSDP=1.14D-08 MaxDP=4.41D-07 DE=-6.91D-11 OVMax= 6.85D-07

 Cycle  12  Pass 1  IDiag  1:
 RMSU=  7.43D-09    CP:  9.34D-01  9.00D-01  9.95D-01  8.48D-01  1.11D+00
                    CP:  1.08D+00  1.06D+00  1.07D+00  1.02D+00  9.90D-01
                    CP:  1.12D+00
 E= -348.118659559178     Delta-E=        0.000000000005 Rises=F Damp=F
 DIIS: error= 1.46D-08 at cycle  12 NSaved=  12.
 NSaved=12 IEnMin=11 EnMin= -348.118659559183     IErMin=12 ErrMin= 1.46D-08
 ErrMax= 1.46D-08  0.00D+00 EMaxC= 1.00D-01 BMatC= 1.59D-13 BMatP= 1.29D-12
 IDIUse=1 WtCom= 1.00D+00 WtEn= 0.00D+00
 Coeff-Com:  0.790D-06-0.145D-05-0.211D-05-0.292D-05 0.690D-05 0.172D-03
 Coeff-Com:  0.464D-03-0.544D-02-0.144D-01-0.269D-01 0.268D+00 0.778D+00
 Coeff:      0.790D-06-0.145D-05-0.211D-05-0.292D-05 0.690D-05 0.172D-03
 Coeff:      0.464D-03-0.544D-02-0.144D-01-0.269D-01 0.268D+00 0.778D+00
 Gap=     0.323 Goal=   None    Shift=    0.000
 RMSDP=2.35D-09 MaxDP=1.66D-07 DE= 5.00D-12 OVMax= 1.73D-07

 SCF Done:  E(RM062X) =  -348.118659559     A.U. after   12 cycles
            NFock= 12  Conv=0.23D-08     -V/T= 2.0034
 KE= 3.469235918595D+02 PE=-1.523663768380D+03 EE= 4.734753863271D+02
 Leave Link  502 at Thu Feb 21 14:34:37 2019, MaxMem=   671088640 cpu:            1082.7 elap:              54.2
 (Enter /shared/centos7/gaussian/g16/l801.exe)
 DoSCS=F DFT=T ScalE2(SS,OS)=  1.000000  1.000000
 Range of M.O.s used for correlation:     1   346
 NBasis=   346 NAE=    29 NBE=    29 NFC=     0 NFV=     0
 NROrb=    346 NOA=    29 NOB=    29 NVA=   317 NVB=   317

 **** Warning!!: The largest alpha MO coefficient is  0.81323752D+02

 Leave Link  801 at Thu Feb 21 14:34:37 2019, MaxMem=   671088640 cpu:               7.5 elap:               0.4
 (Enter /shared/centos7/gaussian/g16/l1101.exe)
 Using compressed storage, NAtomX=    19.
 Will process     20 centers per pass.
 Leave Link 1101 at Thu Feb 21 14:34:38 2019, MaxMem=   671088640 cpu:               8.3 elap:               0.4
 (Enter /shared/centos7/gaussian/g16/l1102.exe)
 Symmetrizing basis deriv contribution to polar:
 IMax=3 JMax=2 DiffMx= 0.00D+00
 Leave Link 1102 at Thu Feb 21 14:34:38 2019, MaxMem=   671088640 cpu:               0.6 elap:               0.1
 (Enter /shared/centos7/gaussian/g16/l1110.exe)
 Forming Gx(P) for the SCF density, NAtomX=    19.
 Integral derivatives from FoFJK, PRISM(SPDF).
 Do as many integral derivatives as possible in FoFJK.
 G2DrvN: MDV=     671087136.
 G2DrvN: will do    20 centers at a time, making    1 passes.
 Calling FoFCou, ICntrl=  3107 FMM=F I1Cent=   0 AccDes= 0.00D+00.
 FoFJK:  IHMeth= 1 ICntrl=    3107 DoSepK=F KAlg= 0 I1Cent=           0 FoldK=F
 IRaf=         0 NMat=       1 IRICut=       1 DoRegI=T DoRafI=F ISym2E= 0 IDoP0=0 IntGTp=1.
 FoFCou: FMM=F IPFlag=           0 FMFlag=      100000 FMFlg1=           0
         NFxFlg=           0 DoJE=F BraDBF=F KetDBF=F FulRan=T
         wScrn=  0.000000 ICntrl=      3107 IOpCl=  0 I1Cent=           0 NGrid=           0
         NMat0=    1 NMatS0=      1 NMatT0=    0 NMatD0=    1 NMtDS0=    0 NMtDT0=    0
 Symmetry not used in FoFCou.
 End of G2Drv F.D. properties file   721 does not exist.
 End of G2Drv F.D. properties file   722 does not exist.
 End of G2Drv F.D. properties file   788 does not exist.
 Leave Link 1110 at Thu Feb 21 14:36:52 2019, MaxMem=   671088640 cpu:            2682.7 elap:             134.2
 (Enter /shared/centos7/gaussian/g16/l1002.exe)
 Minotr:  Closed shell wavefunction.
          IDoAtm=1111111111111111111
          Direct CPHF calculation.
          Differentiating once with respect to nuclear coordinates.
          Requested convergence is 1.0D-08 RMS, and 1.0D-07 maximum.
          Secondary convergence is 1.0D-12 RMS, and 1.0D-12 maximum.
          NewPWx=T KeepS1=F KeepF1=F KeepIn=T MapXYZ=F SortEE=F KeepMc=T.
         5768 words used for storage of precomputed grid.
 Two-electron integrals replicated using symmetry.
          MDV=     671088640 using IRadAn=       1.
          Solving linear equations simultaneously, MaxMat=     380.
 FoF2E skips out because all densities are zero.
 CalDSu exits because no D1Ps are significant.
 FoFJK:  IHMeth= 1 ICntrl=       0 DoSepK=F KAlg= 0 I1Cent=           0 FoldK=F
 IRaf= 970000000 NMat=      57 IRICut=     142 DoRegI=T DoRafI=T ISym2E= 2 IDoP0=3 IntGTp=3.
 FoFCou: FMM=F IPFlag=           0 FMFlag=      100000 FMFlg1=           0
         NFxFlg=           0 DoJE=F BraDBF=F KetDBF=F FulRan=T
         wScrn=  0.000000 ICntrl=         0 IOpCl=  0 I1Cent=           0 NGrid=           0
         NMat0=   57 NMatS0=     57 NMatT0=    0 NMatD0=   57 NMtDS0=    0 NMtDT0=    0
 Integrals replicated using symmetry in FoFCou.
 Raff kept on since  95.52% of shell-pairs survive, threshold=   0.20 IRatSp=96.
          There are    60 degrees of freedom in the 1st order CPHF.  IDoFFX=6 NUNeed=     0.
     54 vectors produced by pass  0 Test12= 1.53D-14 1.67D-09 XBig12= 7.71D-02 4.03D-02.
 AX will form    54 AO Fock derivatives at one time.
     54 vectors produced by pass  1 Test12= 1.53D-14 1.67D-09 XBig12= 5.33D-03 9.01D-03.
     54 vectors produced by pass  2 Test12= 1.53D-14 1.67D-09 XBig12= 2.10D-04 1.65D-03.
     54 vectors produced by pass  3 Test12= 1.53D-14 1.67D-09 XBig12= 2.18D-06 1.38D-04.
     54 vectors produced by pass  4 Test12= 1.53D-14 1.67D-09 XBig12= 1.46D-08 1.10D-05.
     54 vectors produced by pass  5 Test12= 1.53D-14 1.67D-09 XBig12= 7.15D-11 7.92D-07.
     27 vectors produced by pass  6 Test12= 1.53D-14 1.67D-09 XBig12= 3.33D-13 5.65D-08.
      2 vectors produced by pass  7 Test12= 1.53D-14 1.67D-09 XBig12= 1.33D-15 3.05D-09.
 InvSVY:  IOpt=1 It=  1 EMax= 5.00D-16
 Solved reduced A of dimension   353 with    60 vectors.
 End of Minotr F.D. properties file   721 does not exist.
 End of Minotr F.D. properties file   722 does not exist.
 End of Minotr F.D. properties file   788 does not exist.
 Leave Link 1002 at Thu Feb 21 14:40:15 2019, MaxMem=   671088640 cpu:            4051.2 elap:             202.6
 (Enter /shared/centos7/gaussian/g16/l601.exe)
 Copying SCF densities to generalized density rwf, IOpCl= 0 IROHF=0.

 **********************************************************************

            Population analysis using the SCF density.

 **********************************************************************

 Orbital symmetries:
       Occupied  (A) (A) (A) (A) (A) (A) (A) (A) (A) (A) (A) (A)
                 (A) (A) (A) (A) (A) (A) (A) (A) (A) (A) (A) (A)
                 (A) (A) (A) (A) (A)
       Virtual   (A) (A) (A) (A) (A) (A) (A) (A) (A) (A) (A) (A)
                 (A) (A) (A) (A) (A) (A) (A) (A) (A) (A) (A) (A)
                 (A) (A) (A) (A) (A) (A) (A) (A) (A) (A) (A) (A)
                 (A) (A) (A) (A) (A) (A) (A) (A) (A) (A) (A) (A)
                 (A) (A) (A) (A) (A) (A) (A) (A) (A) (A) (A) (A)
                 (A) (A) (A) (A) (A) (A) (A) (A) (A) (A) (A) (A)
                 (A) (A) (A) (A) (A) (A) (A) (A) (A) (A) (A) (A)
                 (A) (A) (A) (A) (A) (A) (A) (A) (A) (A) (A) (A)
                 (A) (A) (A) (A) (A) (A) (A) (A) (A) (A) (A) (A)
                 (A) (A) (A) (A) (A) (A) (A) (A) (A) (A) (A) (A)
                 (A) (A) (A) (A) (A) (A) (A) (A) (A) (A) (A) (A)
                 (A) (A) (A) (A) (A) (A) (A) (A) (A) (A) (A) (A)
                 (A) (A) (A) (A) (A) (A) (A) (A) (A) (A) (A) (A)
                 (A) (A) (A) (A) (A) (A) (A) (A) (A) (A) (A) (A)
                 (A) (A) (A) (A) (A) (A) (A) (A) (A) (A) (A) (A)
                 (A) (A) (A) (A) (A) (A) (A) (A) (A) (A) (A) (A)
                 (A) (A) (A) (A) (A) (A) (A) (A) (A) (A) (A) (A)
                 (A) (A) (A) (A) (A) (A) (A) (A) (A) (A) (A) (A)
                 (A) (A) (A) (A) (A) (A) (A) (A) (A) (A) (A) (A)
                 (A) (A) (A) (A) (A) (A) (A) (A) (A) (A) (A) (A)
                 (A) (A) (A) (A) (A) (A) (A) (A) (A) (A) (A) (A)
                 (A) (A) (A) (A) (A) (A) (A) (A) (A) (A) (A) (A)
                 (A) (A) (A) (A) (A) (A) (A) (A) (A) (A) (A) (A)
                 (A) (A) (A) (A) (A) (A) (A) (A) (A) (A) (A) (A)
                 (A) (A) (A) (A) (A) (A) (A) (A) (A) (A) (A) (A)
                 (A) (A) (A) (A) (A) (A) (A) (A) (A) (A) (A) (A)
                 (A) (A) (A) (A) (A)
 The electronic state is 1-A.
 Alpha  occ. eigenvalues --  -19.62632 -19.62250 -10.58822 -10.58774 -10.57817
 Alpha  occ. eigenvalues --  -10.52752 -10.51755  -1.19014  -1.14956  -0.90263
 Alpha  occ. eigenvalues --   -0.80190  -0.77264  -0.76698  -0.64933  -0.59430
 Alpha  occ. eigenvalues --   -0.58881  -0.55892  -0.53523  -0.50947  -0.50043
 Alpha  occ. eigenvalues --   -0.45784  -0.44444  -0.43632  -0.42534  -0.42076
 Alpha  occ. eigenvalues --   -0.40421  -0.38873  -0.34751  -0.31555
 Alpha virt. eigenvalues --    0.00785   0.02046   0.02815   0.03636   0.05075
 Alpha virt. eigenvalues --    0.05433   0.05682   0.06339   0.06831   0.07722
 Alpha virt. eigenvalues --    0.08792   0.10043   0.10275   0.10913   0.11616
 Alpha virt. eigenvalues --    0.12620   0.14683   0.14830   0.15566   0.17683
 Alpha virt. eigenvalues --    0.18736   0.19450   0.20498   0.20705   0.21618
 Alpha virt. eigenvalues --    0.22723   0.23167   0.23456   0.23810   0.24883
 Alpha virt. eigenvalues --    0.25620   0.27390   0.28424   0.29240   0.30392
 Alpha virt. eigenvalues --    0.31416   0.31770   0.33079   0.33471   0.34191
 Alpha virt. eigenvalues --    0.34424   0.36954   0.37296   0.37967   0.40598
 Alpha virt. eigenvalues --    0.41322   0.44489   0.45391   0.46304   0.47321
 Alpha virt. eigenvalues --    0.48295   0.48972   0.49883   0.52251   0.52805
 Alpha virt. eigenvalues --    0.54995   0.56262   0.56633   0.57799   0.58563
 Alpha virt. eigenvalues --    0.59614   0.60285   0.61190   0.61874   0.62948
 Alpha virt. eigenvalues --    0.64067   0.64534   0.65948   0.66299   0.67440
 Alpha virt. eigenvalues --    0.69190   0.69892   0.70889   0.72155   0.73295
 Alpha virt. eigenvalues --    0.74274   0.76303   0.80010   0.84834   0.87319
 Alpha virt. eigenvalues --    0.87760   0.90401   0.92550   0.93518   0.95087
 Alpha virt. eigenvalues --    0.95768   0.96982   1.00678   1.01468   1.03946
 Alpha virt. eigenvalues --    1.06086   1.07260   1.08691   1.10035   1.11488
 Alpha virt. eigenvalues --    1.12815   1.13463   1.14767   1.15866   1.16459
 Alpha virt. eigenvalues --    1.17621   1.19627   1.20000   1.20422   1.21530
 Alpha virt. eigenvalues --    1.23219   1.24447   1.26007   1.27513   1.29015
 Alpha virt. eigenvalues --    1.30361   1.30706   1.31130   1.32784   1.32920
 Alpha virt. eigenvalues --    1.34331   1.35458   1.36105   1.37215   1.39008
 Alpha virt. eigenvalues --    1.39707   1.42035   1.42925   1.43908   1.44797
 Alpha virt. eigenvalues --    1.46203   1.47188   1.47722   1.50017   1.50929
 Alpha virt. eigenvalues --    1.53212   1.54140   1.56454   1.57539   1.58310
 Alpha virt. eigenvalues --    1.59196   1.61974   1.63221   1.63646   1.66135
 Alpha virt. eigenvalues --    1.68584   1.69693   1.72310   1.74491   1.79106
 Alpha virt. eigenvalues --    1.87557   1.90020   1.96042   2.03912   2.10801
 Alpha virt. eigenvalues --    2.14675   2.17896   2.21225   2.32326   2.34349
 Alpha virt. eigenvalues --    2.36042   2.37106   2.48363   2.48539   2.52419
 Alpha virt. eigenvalues --    2.55068   2.57959   2.59488   2.66562   2.67317
 Alpha virt. eigenvalues --    2.70908   2.71789   2.78968   2.82830   2.83969
 Alpha virt. eigenvalues --    2.87587   2.91809   2.94594   2.97404   2.98136
 Alpha virt. eigenvalues --    3.00192   3.00901   3.02958   3.07557   3.08921
 Alpha virt. eigenvalues --    3.12022   3.13603   3.14446   3.15190   3.16655
 Alpha virt. eigenvalues --    3.19281   3.19718   3.21315   3.23401   3.24317
 Alpha virt. eigenvalues --    3.25670   3.27335   3.29063   3.29526   3.31426
 Alpha virt. eigenvalues --    3.34335   3.36142   3.37278   3.39734   3.41711
 Alpha virt. eigenvalues --    3.44455   3.45403   3.47649   3.49374   3.50504
 Alpha virt. eigenvalues --    3.54178   3.57584   3.58499   3.63674   3.65034
 Alpha virt. eigenvalues --    3.66597   3.68022   3.69150   3.71100   3.73787
 Alpha virt. eigenvalues --    3.75794   3.76290   3.77627   3.79545   3.82462
 Alpha virt. eigenvalues --    3.83354   3.84696   3.86584   3.86891   3.88359
 Alpha virt. eigenvalues --    3.91416   3.91749   3.95825   3.97837   3.99284
 Alpha virt. eigenvalues --    4.02613   4.04408   4.06259   4.06893   4.08669
 Alpha virt. eigenvalues --    4.11982   4.14491   4.15185   4.16121   4.19448
 Alpha virt. eigenvalues --    4.20387   4.22014   4.23467   4.24620   4.26760
 Alpha virt. eigenvalues --    4.28683   4.29390   4.30681   4.32031   4.34613
 Alpha virt. eigenvalues --    4.35974   4.38846   4.40306   4.42720   4.45236
 Alpha virt. eigenvalues --    4.45583   4.49681   4.52379   4.53312   4.56947
 Alpha virt. eigenvalues --    4.58680   4.59774   4.62913   4.63088   4.65409
 Alpha virt. eigenvalues --    4.69971   4.74179   4.93302   4.99276   5.01952
 Alpha virt. eigenvalues --    5.16515   5.22415   5.24559   5.27883   5.32340
 Alpha virt. eigenvalues --    5.33893   5.41218   5.43631   5.44522   5.46510
 Alpha virt. eigenvalues --    5.48798   5.51556   5.52783   5.54563   5.56152
 Alpha virt. eigenvalues --    5.58824   5.59398   5.60849   5.62892   5.65512
 Alpha virt. eigenvalues --    5.76472   5.87050   5.93924   5.98423   6.07326
 Alpha virt. eigenvalues --    6.29381   6.57016   6.66051   6.92648   7.01205
 Alpha virt. eigenvalues --    7.06728   7.17431   7.22603   7.30153   7.34190
 Alpha virt. eigenvalues --    7.47641   7.58189   7.66550   7.80196   7.83139
 Alpha virt. eigenvalues --   24.31303  24.38145  24.45335  24.48685  24.65795
 Alpha virt. eigenvalues --   50.17516  50.28416
          Condensed to atoms (all electrons):
               1          2          3          4          5          6
     1  O    8.332221   0.001680   0.115119  -0.021111  -0.110025  -0.080997
     2  O    0.001680   8.085997   0.099785   0.128672  -0.059631  -0.032335
     3  C    0.115119   0.099785   7.229116  -0.417063  -0.201953  -0.517056
     4  C   -0.021111   0.128672  -0.417063   5.561887   0.064676   0.053763
     5  C   -0.110025  -0.059631  -0.201953   0.064676   5.480197   0.058103
     6  C   -0.080997  -0.032335  -0.517056   0.053763   0.058103   5.767721
     7  C    0.052778   0.005509   0.012810  -0.032145  -0.038442  -0.032209
     8  H    0.008009  -0.040337  -0.064359   0.445529  -0.014930   0.006665
     9  H    0.001335  -0.057894  -0.038295   0.465947   0.011424  -0.020264
    10  H   -0.004403  -0.013457  -0.020372   0.021418   0.373915   0.010898
    11  H   -0.024204   0.001754  -0.001891   0.011397   0.427220  -0.028090
    12  H    0.018207  -0.002101  -0.160711  -0.002499   0.483509   0.034139
    13  H   -0.017805   0.000380  -0.017864  -0.013290  -0.002907   0.415470
    14  H    0.011191   0.004221  -0.140375   0.017438   0.004903   0.480794
    15  H    0.004234  -0.005841  -0.126164   0.016727   0.037674   0.448857
    16  H   -0.073380   0.000219   0.001746  -0.006053   0.017106  -0.002557
    17  H   -0.077511  -0.000152   0.009590  -0.002143  -0.010710   0.004969
    18  H   -0.027188   0.001376  -0.026950   0.008921  -0.002157   0.008316
    19  H   -0.001871   0.256295   0.001072  -0.028294   0.027667  -0.008852
               7          8          9         10         11         12
     1  O    0.052778   0.008009   0.001335  -0.004403  -0.024204   0.018207
     2  O    0.005509  -0.040337  -0.057894  -0.013457   0.001754  -0.002101
     3  C    0.012810  -0.064359  -0.038295  -0.020372  -0.001891  -0.160711
     4  C   -0.032145   0.445529   0.465947   0.021418   0.011397  -0.002499
     5  C   -0.038442  -0.014930   0.011424   0.373915   0.427220   0.483509
     6  C   -0.032209   0.006665  -0.020264   0.010898  -0.028090   0.034139
     7  C    5.086777   0.006238  -0.027293  -0.001710  -0.000102   0.000495
     8  H    0.006238   0.522906  -0.025001  -0.001407   0.000113   0.000276
     9  H   -0.027293  -0.025001   0.507132   0.000035  -0.000210  -0.000126
    10  H   -0.001710  -0.001407   0.000035   0.536406  -0.021943  -0.027249
    11  H   -0.000102   0.000113  -0.000210  -0.021943   0.491012  -0.028042
    12  H    0.000495   0.000276  -0.000126  -0.027249  -0.028042   0.522187
    13  H    0.013400  -0.000130   0.001159  -0.000501  -0.000098   0.001016
    14  H   -0.000855   0.001263  -0.004472  -0.000415   0.000181   0.001483
    15  H   -0.004573  -0.000559   0.000372   0.001442   0.000091  -0.005264
    16  H    0.440510  -0.002262   0.000619   0.000123   0.000137  -0.000002
    17  H    0.449965   0.001017   0.000186   0.000017  -0.000067   0.000018
    18  H    0.410074  -0.012261  -0.008396  -0.000034  -0.000099  -0.000020
    19  H   -0.005210  -0.010515   0.007950   0.004189  -0.000141  -0.002662
              13         14         15         16         17         18
     1  O   -0.017805   0.011191   0.004234  -0.073380  -0.077511  -0.027188
     2  O    0.000380   0.004221  -0.005841   0.000219  -0.000152   0.001376
     3  C   -0.017864  -0.140375  -0.126164   0.001746   0.009590  -0.026950
     4  C   -0.013290   0.017438   0.016727  -0.006053  -0.002143   0.008921
     5  C   -0.002907   0.004903   0.037674   0.017106  -0.010710  -0.002157
     6  C    0.415470   0.480794   0.448857  -0.002557   0.004969   0.008316
     7  C    0.013400  -0.000855  -0.004573   0.440510   0.449965   0.410074
     8  H   -0.000130   0.001263  -0.000559  -0.002262   0.001017  -0.012261
     9  H    0.001159  -0.004472   0.000372   0.000619   0.000186  -0.008396
    10  H   -0.000501  -0.000415   0.001442   0.000123   0.000017  -0.000034
    11  H   -0.000098   0.000181   0.000091   0.000137  -0.000067  -0.000099
    12  H    0.001016   0.001483  -0.005264  -0.000002   0.000018  -0.000020
    13  H    0.533893  -0.028731  -0.026634  -0.000067  -0.000787   0.000207
    14  H   -0.028731   0.537852  -0.027599   0.000070  -0.000154  -0.000115
    15  H   -0.026634  -0.027599   0.547055   0.000046  -0.000008  -0.000132
    16  H   -0.000067   0.000070   0.000046   0.555071  -0.035127  -0.033785
    17  H   -0.000787  -0.000154  -0.000008  -0.035127   0.570906  -0.037467
    18  H    0.000207  -0.000115  -0.000132  -0.033785  -0.037467   0.576735
    19  H   -0.000062  -0.000618   0.000131   0.000058   0.000007  -0.000028
              19
     1  O   -0.001871
     2  O    0.256295
     3  C    0.001072
     4  C   -0.028294
     5  C    0.027667
     6  C   -0.008852
     7  C   -0.005210
     8  H   -0.010515
     9  H    0.007950
    10  H    0.004189
    11  H   -0.000141
    12  H   -0.002662
    13  H   -0.000062
    14  H   -0.000618
    15  H    0.000131
    16  H    0.000058
    17  H    0.000007
    18  H   -0.000028
    19  H    0.505833
 Mulliken charges:
               1
     1  O   -0.106279
     2  O   -0.374140
     3  C    0.263812
     4  C   -0.273776
     5  C   -0.545640
     6  C   -0.567332
     7  C   -0.336018
     8  H    0.179744
     9  H    0.185792
    10  H    0.143048
    11  H    0.172982
    12  H    0.167346
    13  H    0.143349
    14  H    0.143936
    15  H    0.140142
    16  H    0.137528
    17  H    0.127451
    18  H    0.143003
    19  H    0.255051
 Sum of Mulliken charges =  -0.00000
 Mulliken charges with hydrogens summed into heavy atoms:
               1
     1  O   -0.106279
     2  O   -0.119090
     3  C    0.263812
     4  C    0.091761
     5  C   -0.062263
     6  C   -0.139905
     7  C    0.071965
 APT charges:
               1
     1  O   -0.052870
     2  O   -0.791691
     3  C    0.642797
     4  C   -0.752093
     5  C   -1.385816
     6  C   -1.343439
     7  C   -1.386269
     8  H    0.408812
     9  H    0.392857
    10  H    0.344859
    11  H    0.440439
    12  H    0.438032
    13  H    0.406018
    14  H    0.361105
    15  H    0.429784
    16  H    0.503859
    17  H    0.469906
    18  H    0.279351
    19  H    0.594357
 Sum of APT charges =  -0.00000
 APT charges with hydrogens summed into heavy atoms:
               1
     1  O   -0.052870
     2  O   -0.197333
     3  C    0.642797
     4  C    0.049577
     5  C   -0.162485
     6  C   -0.146532
     7  C   -0.133153
 Electronic spatial extent (au):  <R**2>=            809.4391
 Charge=             -0.0000 electrons
 Dipole moment (field-independent basis, Debye):
    X=              0.2613    Y=             -0.7275    Z=             -0.7442  Tot=              1.0730
 Quadrupole moment (field-independent basis, Debye-Ang):
   XX=            -47.4094   YY=            -45.5822   ZZ=            -44.4301
   XY=             -3.5345   XZ=              4.4465   YZ=              1.6380
 Traceless Quadrupole moment (field-independent basis, Debye-Ang):
   XX=             -1.6021   YY=              0.2250   ZZ=              1.3771
   XY=             -3.5345   XZ=              4.4465   YZ=              1.6380
 Octapole moment (field-independent basis, Debye-Ang**2):
  XXX=              2.7768  YYY=             -1.1038  ZZZ=             -3.3000  XYY=              1.1610
  XXY=             -0.6292  XXZ=             -8.7175  XZZ=             -3.7698  YZZ=             -4.4597
  YYZ=             -1.6377  XYZ=             -2.5413
 Hexadecapole moment (field-independent basis, Debye-Ang**3):
 XXXX=           -514.2670 YYYY=           -318.7815 ZZZZ=           -230.6916 XXXY=             -1.9134
 XXXZ=             23.0334 YYYX=              2.0424 YYYZ=             -0.5580 ZZZX=              0.4842
 ZZZY=              0.1938 XXYY=           -147.2173 XXZZ=           -118.1944 YYZZ=            -89.4440
 XXYZ=             12.9315 YYXZ=              1.3398 ZZXY=              7.6850
 N-N= 3.551461306342D+02 E-N=-1.523663770710D+03  KE= 3.469235918595D+02
  Exact polarizability:   0.000   0.000   0.000   0.000   0.000   0.000
 Approx polarizability:  82.772  -1.734  79.077   0.976  -0.156  80.874
 No NMR shielding tensors so no spin-rotation constants.
 Leave Link  601 at Thu Feb 21 14:40:15 2019, MaxMem=   671088640 cpu:               6.9 elap:               0.4
 (Enter /shared/centos7/gaussian/g16/l701.exe)
 SCFChk:  SCF convergence  2.35D-09 required  1.00D-08
 ... and contract with generalized density number  0.
 Compute integral second derivatives.
 Entering OneElI...
 Calculate overlap and kinetic energy integrals
    NBasis = 381  MinDer = 2  MaxDer = 2
 Requested accuracy = 0.1000D-12
 PrmmSu-InSpLW:  IPartL=    0 NPrtUS=   20 NPrtUL=    1 DoSpLW=F IThBeg=    0 IThEnd=   19 NThAct=   20.
 PrsmSu:  NPrtUS=  20 ThrOK=T IAlg=1 NPAlg=1 LenDen=           0 ISkipM=0 DoSpLW=F IThBeg=    0 IThEnd=   19.
 Prism:   IPart=     0 DynPar=F LinDyn=F Incr=           3.
 PRISM was handed    33375440 working-precision words and  6777 shell-pairs
 PRISM was handed    33375440 working-precision words and  6777 shell-pairs
 PRISM was handed    33375440 working-precision words and  6777 shell-pairs
 PRISM was handed    33375440 working-precision words and  6777 shell-pairs
 PRISM was handed    33375440 working-precision words and  6777 shell-pairs
 PRISM was handed    33375440 working-precision words and  6777 shell-pairs
 PRISM was handed    33375440 working-precision words and  6777 shell-pairs
 PRISM was handed    33375440 working-precision words and  6777 shell-pairs
 PRISM was handed    33375440 working-precision words and  6777 shell-pairs
 PRISM was handed    33375440 working-precision words and  6777 shell-pairs
 PRISM was handed    33375440 working-precision words and  6777 shell-pairs
 PRISM was handed    33375440 working-precision words and  6777 shell-pairs
 PRISM was handed    33375440 working-precision words and  6777 shell-pairs
 PRISM was handed    33375440 working-precision words and  6777 shell-pairs
 PRISM was handed    33375440 working-precision words and  6777 shell-pairs
 PRISM was handed    33375440 working-precision words and  6777 shell-pairs
 PRISM was handed    33375440 working-precision words and  6777 shell-pairs
 PRISM was handed    33375440 working-precision words and  6777 shell-pairs
 PRISM was handed    33375440 working-precision words and  6777 shell-pairs
 PRISM was handed    33375440 working-precision words and  6777 shell-pairs
 IPart=  5 NShTot=         355 NBatch=          53 AvBLen=         6.7
 IPart=  3 NShTot=         361 NBatch=          57 AvBLen=         6.3
 IPart=  2 NShTot=         362 NBatch=          58 AvBLen=         6.2
 IPart=  7 NShTot=         343 NBatch=          46 AvBLen=         7.5
 IPart=  4 NShTot=         359 NBatch=          55 AvBLen=         6.5
 IPart=  8 NShTot=         338 NBatch=          44 AvBLen=         7.7
 IPart=  1 NShTot=         365 NBatch=          58 AvBLen=         6.3
 IPart= 11 NShTot=         330 NBatch=          42 AvBLen=         7.9
 IPart=  0 NShTot=         369 NBatch=          60 AvBLen=         6.2
 IPart= 17 NShTot=         319 NBatch=          38 AvBLen=         8.4
 IPart=  6 NShTot=         352 NBatch=          51 AvBLen=         6.9
 IPart=  9 NShTot=         334 NBatch=          44 AvBLen=         7.6
 IPart= 16 NShTot=         321 NBatch=          38 AvBLen=         8.4
 IPart= 13 NShTot=         328 NBatch=          41 AvBLen=         8.0
 IPart= 18 NShTot=         317 NBatch=          37 AvBLen=         8.6
 IPart= 12 NShTot=         328 NBatch=          41 AvBLen=         8.0
 IPart= 15 NShTot=         322 NBatch=          38 AvBLen=         8.5
 IPart= 14 NShTot=         325 NBatch=          38 AvBLen=         8.6
 IPart= 10 NShTot=         333 NBatch=          44 AvBLen=         7.6
 IPart= 19 NShTot=         316 NBatch=          37 AvBLen=         8.5
 PrSmSu:  NxtVal=             61.
 Entering OneElI...
 Calculate potential energy integrals
    NBasis = 381  MinDer = 2  MaxDer = 2
 Requested accuracy = 0.1000D-12
 PrmmSu-InSpLW:  IPartL=    0 NPrtUS=   20 NPrtUL=    1 DoSpLW=F IThBeg=    0 IThEnd=   19 NThAct=   20.
 PrsmSu:  NPrtUS=  20 ThrOK=T IAlg=1 NPAlg=1 LenDen=           0 ISkipM=0 DoSpLW=F IThBeg=    0 IThEnd=   19.
 Prism:   IPart=     0 DynPar=F LinDyn=F Incr=          60.
 PRISM was handed    33401988 working-precision words and  6407 shell-pairs
 PRISM was handed    33401988 working-precision words and  6407 shell-pairs
 PRISM was handed    33401988 working-precision words and  6407 shell-pairs
 PRISM was handed    33401988 working-precision words and  6407 shell-pairs
 PRISM was handed    33401988 working-precision words and  6407 shell-pairs
 PRISM was handed    33401988 working-precision words and  6407 shell-pairs
 PRISM was handed    33401988 working-precision words and  6407 shell-pairs
 PRISM was handed    33401988 working-precision words and  6407 shell-pairs
 PRISM was handed    33401988 working-precision words and  6407 shell-pairs
 PRISM was handed    33401988 working-precision words and  6407 shell-pairs
 PRISM was handed    33401988 working-precision words and  6407 shell-pairs
 PRISM was handed    33401988 working-precision words and  6407 shell-pairs
 PRISM was handed    33401988 working-precision words and  6407 shell-pairs
 PRISM was handed    33401988 working-precision words and  6407 shell-pairs
 PRISM was handed    33401988 working-precision words and  6407 shell-pairs
 PRISM was handed    33401988 working-precision words and  6407 shell-pairs
 PRISM was handed    33401988 working-precision words and  6407 shell-pairs
 PRISM was handed    33401988 working-precision words and  6407 shell-pairs
 PRISM was handed    33401988 working-precision words and  6407 shell-pairs
 PRISM was handed    33401988 working-precision words and  6407 shell-pairs
 IPart= 15 NShTot=        5795 NBatch=         305 AvBLen=        19.0
 IPart= 10 NShTot=        5985 NBatch=         315 AvBLen=        19.0
 IPart= 12 NShTot=        5928 NBatch=         312 AvBLen=        19.0
 IPart=  5 NShTot=        6308 NBatch=         332 AvBLen=        19.0
 IPart=  2 NShTot=        6498 NBatch=         342 AvBLen=        19.0
 IPart=  6 NShTot=        6270 NBatch=         330 AvBLen=        19.0
 IPart= 11 NShTot=        5966 NBatch=         314 AvBLen=        19.0
 IPart= 14 NShTot=        5871 NBatch=         309 AvBLen=        19.0
 IPart= 13 NShTot=        5909 NBatch=         311 AvBLen=        19.0
 IPart= 18 NShTot=        5700 NBatch=         300 AvBLen=        19.0
 IPart= 17 NShTot=        5719 NBatch=         301 AvBLen=        19.0
 IPart= 16 NShTot=        5757 NBatch=         303 AvBLen=        19.0
 IPart=  8 NShTot=        6080 NBatch=         320 AvBLen=        19.0
 IPart=  7 NShTot=        6156 NBatch=         324 AvBLen=        19.0
 IPart=  3 NShTot=        6403 NBatch=         337 AvBLen=        19.0
 IPart=  4 NShTot=        6346 NBatch=         334 AvBLen=        19.0
 IPart=  1 NShTot=        6650 NBatch=         350 AvBLen=        19.0
 IPart= 19 NShTot=        5662 NBatch=         298 AvBLen=        19.0
 IPart=  9 NShTot=        6042 NBatch=         318 AvBLen=        19.0
 IPart=  0 NShTot=        6688 NBatch=         352 AvBLen=        19.0
 PrSmSu:  NxtVal=           1201.
 Polarizability after L701:
                1             2             3 
      1  0.000000D+00
      2  0.000000D+00  0.000000D+00
      3  0.000000D+00  0.000000D+00  0.000000D+00
 Dipole Derivatives after L701:
                 1             2             3             4             5 
      1   0.308677D-01 -0.545718D+00  0.279000D+00 -0.114615D+01  0.116369D-01
      2  -0.360986D+00 -0.754820D-01  0.453549D-01 -0.440091D+00 -0.435328D+00
      3   0.111512D+00  0.388726D-01 -0.113994D+00 -0.179786D+00 -0.293332D-01
                 6             7             8             9            10 
      1  -0.737167D+00  0.633531D-01 -0.321416D+00  0.955857D-01  0.133566D+00
      2  -0.291116D+00 -0.285518D+00  0.106734D+01  0.498424D+00  0.381632D+00
      3  -0.793599D+00  0.210730D+00  0.228362D+00  0.797694D+00 -0.164624D+00
                11            12            13            14            15 
      1  -0.193379D+00 -0.834667D-01 -0.113869D+01  0.488518D+00 -0.225349D+00
      2  -0.138809D+01  0.348580D-01  0.414376D+00 -0.169424D+01  0.191244D+00
      3   0.398644D-01 -0.100175D+01 -0.213319D+00  0.277566D+00 -0.132451D+01
                16            17            18            19            20 
      1  -0.851005D+00  0.188143D+00  0.684563D-01 -0.212334D+01  0.105949D+01
      2   0.227503D+00 -0.129908D+01 -0.847244D+00  0.349930D+00 -0.109572D+01
      3   0.950921D-01 -0.510724D+00 -0.188023D+01  0.857082D-01 -0.160912D+00
                21            22            23            24            25 
      1  -0.278054D+00  0.211061D+00  0.786473D-01  0.104166D+00  0.197882D+00
      2   0.196693D-02 -0.144587D+00  0.628873D+00  0.548095D+00 -0.150720D+00
      3  -0.939746D+00 -0.396305D-01  0.188008D+00  0.386501D+00  0.846381D-01
                26            27            28            29            30 
      1   0.544569D-01 -0.183470D+00  0.221275D+00  0.221188D+00  0.364781D+00
      2   0.362224D+00 -0.623762D+00 -0.589204D-01  0.103797D-01 -0.194434D+00
      3  -0.128770D+00  0.618467D+00  0.188151D+00  0.433352D+00  0.802924D+00
                31            32            33            34            35 
      1   0.162550D+00 -0.221957D-01  0.941436D-02  0.695365D+00 -0.369107D+00
      2   0.518178D+00  0.822050D+00 -0.304661D+00 -0.512382D+00  0.535038D+00
      3  -0.354031D+00 -0.455907D+00  0.336716D+00  0.143113D+00 -0.126779D+00
                36            37            38            39            40 
      1  -0.358705D+00  0.498791D+00  0.993326D-01  0.154183D+00  0.263142D+00
      2   0.342541D+00  0.459121D+00  0.254748D+00  0.254143D+00 -0.526235D-01
      3   0.836927D-01  0.631756D+00  0.210643D+00  0.464517D+00 -0.420074D+00
                41            42            43            44            45 
      1   0.182369D+00 -0.223252D+00  0.294516D+00 -0.259576D+00  0.493478D-01
      2   0.902642D-01  0.119355D+00 -0.469506D+00  0.860553D+00 -0.684300D-01
      3  -0.483603D+00  0.729908D+00 -0.264349D+00  0.441640D+00  0.134283D+00
                46            47            48            49            50 
      1   0.672816D+00 -0.391990D+00 -0.904376D+00  0.101076D+01  0.357451D+00
      2  -0.246867D+00  0.301354D+00  0.367471D+00 -0.145731D+00  0.134384D+00
      3  -0.183899D+00  0.112983D+00  0.537406D+00  0.182948D+00  0.952879D-01
                51            52            53            54            55 
      1   0.739527D+00 -0.248982D-01 -0.522337D+00  0.282100D+00  0.828137D+00
      2  -0.884811D-01  0.333457D+00  0.659246D+00 -0.292036D+00  0.183735D+00
      3   0.264574D+00 -0.891373D-01 -0.129744D+00  0.203706D+00  0.175203D+00
                56            57 
      1  -0.115513D+00  0.847278D+00
      2   0.261490D+00  0.306710D+00
      3  -0.408066D-01  0.693445D+00
 Hessian after L701:
                1             2             3             4             5 
      1  0.505134D+01
      2  0.271735D+01  0.118626D+02
      3  0.146942D+01  0.819972D+00  0.153034D+02
      4  0.275415D+00  0.205074D+00 -0.711456D-01  0.506732D+01
      5  0.209650D+00 -0.111506D+00 -0.361763D-01 -0.744324D+00  0.131659D+02
      6 -0.922023D-01 -0.432963D-01 -0.208388D+00 -0.266872D+01  0.535845D+00
      7 -0.162307D+01 -0.594507D+00 -0.220000D+01  0.297081D+00  0.849741D+00
      8 -0.582319D+00 -0.876904D+01 -0.821758D-01  0.786701D+00  0.219209D+00
      9 -0.215874D+01 -0.994344D-01 -0.833859D+01 -0.689635D-01 -0.978555D-01
     10  0.365256D+00  0.765496D+00  0.148069D+00 -0.400788D+00 -0.445617D+00
     11  0.638391D+00  0.446865D+00  0.502047D-01 -0.328884D+00 -0.783425D+01
     12  0.970518D-01 -0.296189D-01 -0.403304D+00  0.783326D+00  0.586635D-01
     13  0.648160D+00 -0.145100D+00  0.595288D+00 -0.150003D+00  0.251923D+00
     14 -0.234673D-01 -0.381382D-01 -0.159704D+00  0.859568D-01  0.326371D-01
     15  0.413536D+00 -0.897844D-01  0.153687D+00 -0.581768D-02 -0.739917D-01
     16 -0.572564D-01 -0.182974D+00 -0.383316D+00 -0.516836D-01  0.328353D+00
     17 -0.806725D-01 -0.265055D-01  0.238250D+00  0.255575D+00  0.100436D+00
     18 -0.202164D+00  0.265158D+00  0.546252D+00  0.118169D+00  0.166481D+00
     19 -0.524880D+01 -0.362379D+01  0.794297D+00  0.262012D+00  0.248557D-01
     20 -0.361157D+01 -0.333656D+01 -0.107602D+01  0.541506D-01 -0.132637D+00
     21  0.781850D+00 -0.107075D+01 -0.793238D+01 -0.470868D-01 -0.323710D-02
     22 -0.499759D-02  0.932526D-01  0.595257D-02 -0.180132D+00 -0.920361D-01
     23  0.152612D+00  0.103879D+00  0.155920D-01 -0.890760D-01  0.269477D+00
     24  0.458137D-01  0.559614D-01 -0.776179D-01 -0.754927D-01  0.161824D+00
     25 -0.413564D-02  0.249734D-01 -0.376000D-01 -0.286208D+00 -0.810932D-02
     26  0.503902D-01 -0.908672D-02 -0.455830D-01  0.393636D-01  0.172810D+00
     27 -0.834302D-01 -0.709508D-01  0.255602D-01 -0.275819D-01 -0.977775D-01
     28  0.397518D-01 -0.298068D-02  0.550290D-01 -0.201644D-01 -0.690847D-02
     29  0.221261D-01 -0.291391D-01  0.163779D-01 -0.204940D-01 -0.149088D-01
     30  0.718859D-01 -0.365464D-02  0.273665D-01  0.206830D-01 -0.294241D-01
     31 -0.528625D-02  0.577137D-01 -0.122101D-01  0.511051D-02  0.476670D-01
     32 -0.198838D-02 -0.312044D-02 -0.157844D-01  0.465438D-01  0.510925D-01
     33  0.133048D-01  0.407279D-02  0.330880D-01 -0.251796D-01 -0.391745D-01
     34  0.237987D+00 -0.140332D+00  0.161780D-02 -0.419900D-01 -0.637941D-01
     35 -0.172859D+00 -0.166428D-01 -0.134244D-02 -0.160748D-01  0.124017D+00
     36 -0.811491D-02  0.658869D-02 -0.901826D-01  0.484881D-02  0.208362D-01
     37  0.103021D-01  0.287584D-01  0.601313D-01  0.310300D-01  0.391955D-01
     38  0.155744D-02 -0.498679D-02 -0.374021D-01  0.315825D-01  0.623654D-02
     39 -0.439322D-03 -0.315628D-01 -0.459408D-01  0.273392D-01  0.240737D-01
     40  0.585525D-01  0.136782D-01 -0.142143D+00 -0.391699D-01  0.277861D-01
     41  0.263541D-01 -0.708913D-01 -0.291071D-01  0.245068D-01 -0.356977D-01
     42 -0.163605D+00 -0.155321D-01  0.106894D+00  0.811871D-01  0.104586D+00
     43  0.524773D-01 -0.794614D-01 -0.632589D-01 -0.196233D-01 -0.271425D-01
     44 -0.938317D-01  0.206514D-01  0.592600D-01 -0.108595D-01  0.218061D-01
     45 -0.517385D-01  0.386057D-01 -0.180249D-01 -0.994127D-02 -0.949923D-02
     46 -0.256402D-02  0.218682D+00 -0.165496D+00  0.284025D-01 -0.191174D-02
     47  0.207303D+00 -0.456554D-01  0.180665D+00 -0.732986D-02 -0.102714D-01
     48 -0.130428D+00  0.168379D+00  0.447119D+00 -0.219041D-01  0.675068D-03
     49  0.111008D+00  0.364318D+00  0.539433D-01  0.239275D-01  0.319851D-02
     50  0.322440D+00 -0.457535D-01  0.169707D+00  0.515551D-02 -0.606774D-02
     51  0.617126D-01  0.168382D+00  0.341993D+00  0.103807D-01  0.115620D-02
     52  0.732263D-01  0.271352D+00 -0.111412D+00  0.225701D-01  0.399590D-02
     53  0.217094D+00  0.832712D-01 -0.665334D-01 -0.336868D-01 -0.203359D-01
     54 -0.888743D-01 -0.799675D-01  0.133064D+00  0.243450D-01 -0.418228D-02
     55  0.226247D-01  0.849657D-02  0.283234D-02 -0.482311D+01 -0.396522D+00
     56  0.143557D-02 -0.102701D-01 -0.199618D-03 -0.283881D+00 -0.599797D+01
     57  0.251642D-01  0.742830D-02 -0.399017D-02  0.195156D+01 -0.682822D+00
                6             7             8             9            10 
      6  0.102343D+02
      7 -0.933715D-01  0.146032D+02
      8 -0.149646D+00 -0.344390D+00  0.202127D+02
      9 -0.463815D+00  0.135179D+01  0.952528D+00  0.212981D+02
     10  0.736082D+00 -0.457272D+01  0.204187D+01 -0.342901D+00  0.147096D+02
     11  0.343458D-01  0.211482D+01 -0.313421D+01 -0.602698D+00 -0.135617D+01
     12 -0.763999D+01 -0.348220D+00 -0.569703D+00 -0.599716D+01 -0.613509D+00
     13 -0.139756D+00 -0.470098D+01 -0.154138D+01  0.158933D+01 -0.383269D+00
     14 -0.137258D+00 -0.154296D+01 -0.437158D+01 -0.160517D+01  0.103893D+00
     15 -0.214595D+00  0.167251D+01 -0.165024D+01 -0.418736D+01 -0.611457D-01
     16  0.214537D+00 -0.540568D+01 -0.342612D+00 -0.572691D+00 -0.201696D+00
     17  0.241141D+00 -0.398880D+00 -0.445126D+01  0.153655D+01  0.149821D-01
     18 -0.144445D+00 -0.657733D+00  0.156136D+01 -0.250786D+01 -0.173317D-01
     19 -0.528328D-01  0.225012D+00 -0.261476D+00  0.951077D-02  0.166037D+00
     20 -0.108706D-01 -0.285018D+00 -0.104981D+00 -0.122184D-01  0.128462D+00
     21 -0.126612D+00  0.392700D-01 -0.383529D-01 -0.224565D+00  0.594813D-02
     22 -0.406571D-01  0.213229D+00 -0.547850D-01 -0.426137D-01 -0.465637D+01
     23  0.158194D+00 -0.519473D-01 -0.121639D+00 -0.220648D+00 -0.697540D+00
     24  0.261796D+00 -0.349668D-01 -0.180047D+00  0.132066D+00 -0.694235D+00
     25 -0.742929D-01  0.206402D+00 -0.164174D-01  0.319944D-01 -0.472608D+01
     26 -0.639790D-01  0.316663D-01 -0.129012D+00  0.277603D+00 -0.431316D+00
     27  0.296377D+00 -0.167112D-01  0.223423D+00  0.241051D-01  0.881444D+00
     28  0.106794D-01  0.354334D-01  0.337574D-01 -0.118510D+00 -0.785096D-01
     29  0.186531D-01  0.621240D-01  0.993824D-01  0.144914D+00 -0.101420D-01
     30  0.361028D-01 -0.109481D+00  0.898981D-01 -0.133606D+00  0.907060D-02
     31 -0.282188D-01 -0.177330D-01 -0.160258D-01  0.189831D-01 -0.411999D-01
     32 -0.425478D-01 -0.101770D+00 -0.350096D-01 -0.121381D+00  0.363521D-01
     33 -0.414061D-02  0.958324D-01 -0.485319D-01  0.750538D-01 -0.203120D-01
     34  0.191758D-01 -0.932748D-01  0.179986D+00 -0.762258D-01 -0.101862D-01
     35 -0.345223D-01  0.229927D+00  0.226505D+00  0.264636D-01 -0.713208D-03
     36 -0.478398D-01 -0.130550D+00  0.541628D-01  0.295838D+00 -0.881074D-02
     37  0.236913D-01  0.347760D-01  0.251376D-01  0.220340D-01  0.238919D-01
     38  0.161279D-01 -0.952848D-02  0.561388D-01  0.500589D-01  0.193999D-01
     39 -0.473729D-02 -0.320984D-01  0.563203D-01  0.889823D-01  0.136417D-01
     40  0.378487D-01  0.209193D+00  0.347635D-01  0.222093D+00 -0.696361D-01
     41  0.398990D-01  0.489491D-01  0.342500D+00 -0.775948D-01  0.598081D-02
     42  0.714657D-01  0.244326D+00 -0.538723D-01 -0.159041D+00  0.163504D-01
     43 -0.739348D-02  0.233197D+00  0.534584D-01  0.986643D-01 -0.728936D-01
     44  0.732912D-02  0.561328D-01  0.882448D-01 -0.234020D+00 -0.275929D-02
     45 -0.814686D-02  0.986393D-01 -0.222542D+00  0.604260D-01 -0.665427D-03
     46 -0.138269D-01  0.320407D-01 -0.123804D-01 -0.623304D-01  0.693062D-01
     47  0.230127D-02 -0.318134D-01 -0.399421D-01  0.300633D-01 -0.181680D-01
     48 -0.231906D-03 -0.745806D-01  0.294213D-01  0.128998D-01 -0.584597D-01
     49  0.520055D-03  0.211699D+00 -0.764461D-01  0.627652D-01  0.296298D-01
     50  0.233683D-03 -0.477080D-01 -0.416323D-01 -0.956922D-02  0.220498D-01
     51 -0.956289D-02  0.985460D-01 -0.263801D-01 -0.425993D-01  0.209024D-01
     52  0.975579D-02  0.213400D-01  0.817977D-01 -0.338152D-01 -0.153319D-01
     53 -0.102929D-02  0.901465D-02 -0.273667D-01  0.463637D-01 -0.180922D+00
     54 -0.254896D-01 -0.602610D-02  0.239448D-01  0.247433D-01  0.527312D-01
     55  0.215898D+01  0.908719D-01  0.107563D-01  0.696202D-01 -0.135045D+00
     56 -0.570921D+00  0.614658D-02 -0.190503D-01  0.160453D-01  0.486639D-02
     57 -0.200200D+01  0.102813D+00  0.304345D-01  0.423816D-01 -0.668700D-01
               11            12            13            14            15 
     11  0.182655D+02
     12  0.380532D+00  0.195397D+02
     13  0.794536D-01 -0.223832D-01  0.149376D+02
     14  0.146621D+00 -0.495976D+00  0.118101D+01  0.143738D+02
     15 -0.440409D+00 -0.738775D-01 -0.129191D+01  0.112345D+01  0.145967D+02
     16 -0.256543D-01  0.190247D-01 -0.109442D+00  0.385602D-01  0.177467D+00
     17 -0.314204D-01  0.371231D+00  0.134679D-01 -0.224450D+00  0.144944D-01
     18  0.201020D+00  0.152281D-01  0.856131D-01  0.184701D+00  0.553500D-01
     19 -0.104501D+00  0.811917D-01  0.108713D+00 -0.191913D+00  0.422818D-01
     20 -0.233647D+00 -0.145587D-01 -0.191877D+00  0.485954D-01 -0.503278D-01
     21  0.192127D-01 -0.252075D+00  0.402712D-01 -0.450843D-01 -0.938681D-01
     22 -0.574529D+00 -0.616747D+00  0.116956D-01 -0.662999D-02 -0.278202D-02
     23 -0.345522D+01  0.167455D+01  0.286015D-02 -0.270922D-01  0.189295D-01
     24  0.153938D+01 -0.311143D+01  0.395990D-04  0.200267D-01  0.777602D-02
     25 -0.327008D+00  0.795036D+00 -0.547900D-01 -0.322439D-01  0.238610D-01
     26 -0.444529D+01 -0.134044D+01 -0.301581D-01  0.854685D-01 -0.121227D+00
     27 -0.116449D+01 -0.207205D+01  0.203068D-01 -0.134643D+00  0.546370D-01
     28 -0.207003D-01  0.240842D-01 -0.425362D+01  0.396842D+00  0.636710D+00
     29  0.375424D-02 -0.743029D-01  0.315656D+00 -0.375050D+01  0.115837D+01
     30 -0.125398D+00  0.604108D-01  0.605625D+00  0.138438D+01 -0.221406D+01
     31  0.314582D-01 -0.204483D-01 -0.338809D+01  0.124469D+01 -0.526953D+00
     32  0.119969D+00 -0.823601D-01  0.144092D+01 -0.249886D+01 -0.732256D+00
     33 -0.828968D-01 -0.119374D-01 -0.668284D+00 -0.813054D+00 -0.398561D+01
     34 -0.155830D-01  0.752254D-03 -0.264123D+01 -0.131354D+01 -0.107453D+01
     35  0.154271D-01 -0.103896D-02 -0.139562D+01 -0.369757D+01  0.804536D+00
     36  0.168841D-01 -0.219110D-01 -0.880809D+00  0.625728D+00 -0.414351D+01
     37  0.124302D-01  0.207243D-01  0.299739D-01  0.161520D-01  0.977239D-01
     38  0.684842D-02  0.147295D-01  0.861421D-02 -0.343697D-01  0.102235D-01
     39  0.299357D-02  0.187478D-03  0.853415D-01  0.115764D-01  0.843919D-01
     40 -0.947952D-02 -0.325583D-01 -0.404606D-01  0.126143D-02 -0.171792D-01
     41 -0.619798D-01  0.199254D-01  0.712949D-02 -0.345604D-01 -0.543194D-01
     42  0.722161D-01  0.750321D-01 -0.121123D-01 -0.354942D-01  0.113888D+00
     43 -0.380883D-01 -0.166932D-01 -0.832596D-01 -0.290976D-01 -0.575731D-01
     44  0.193914D+00  0.101845D+00 -0.167001D-01 -0.331451D-01  0.856863D-01
     45  0.931837D-01 -0.410410D-01 -0.248246D-01  0.231537D-01 -0.230533D-01
     46 -0.231692D-01 -0.324932D-01  0.755843D-01 -0.758404D-01 -0.855751D-02
     47 -0.115622D-01  0.459507D-02 -0.763730D-01  0.946127D-02  0.506102D-02
     48  0.161052D-01  0.426263D-02 -0.328656D-01  0.171564D-01 -0.343837D-01
     49  0.173774D-03  0.105097D-01 -0.423242D-01  0.267990D-01 -0.219276D-01
     50 -0.113034D-01  0.418942D-02  0.243655D-01  0.923993D-03  0.816646D-02
     51 -0.209239D-02 -0.798806D-02 -0.144545D-01  0.101571D-01  0.480036D-03
     52 -0.105558D+00  0.479517D-02  0.203535D-02 -0.112487D-01  0.826141D-02
     53 -0.212232D-01 -0.224920D-01 -0.273482D-01  0.114696D-01 -0.134109D-01
     54 -0.337775D-01 -0.971915D-01  0.166665D-01 -0.158986D-01 -0.509244D-02
     55  0.525996D-01 -0.133444D+00  0.337349D-01  0.131775D+00 -0.397954D-02
[...]
 04998662,-0.07150986,0.00643427,0.00889948,0.56240664,-0.00250584,0.00
 586290,-0.00211991,0.00780252,-0.06182147,0.00439318,0.00630681,-0.178
 25194,0.02789274,0.02914271,0.50510586,-0.01616479,0.01416832,-0.01349
 502,-0.09708014,0.00322139,-0.14599266,0.01083685,0.02506518,-0.082926
 99,-0.06757954,0.03669041,0.59484266,-0.05041013,-0.01223617,0.0152246
 2,-0.00115323,-0.00211734,0.00048730,-0.12642203,-0.02026735,0.0500759
 0,0.00825814,-0.00267050,0.00108448,0.53689003,-0.00485742,0.00169544,
 0.00006304,-0.00143366,-0.00025545,-0.00031671,-0.02562847,-0.09010249
 ,0.02232291,-0.02405723,-0.01598462,0.02467619,-0.02020314,0.58079095,
 -0.02151097,-0.00532316,0.01181397,0.00091612,-0.00066732,0.00085833,0
 .06330349,0.02424434,-0.12851924,0.01023796,0.00933718,-0.01111374,0.0
 5089509,0.02065037,0.54609588,-0.01023188,-0.02325650,-0.03434282,0.00
 061628,-0.00155326,-0.00014228,-0.08206161,0.01591507,0.02074879,0.001
 69873,0.00519572,0.00694164,-0.00339788,0.01689175,0.02228700,0.590445
 08,-0.00436493,0.00092842,-0.00321111,-0.00027602,-0.00050255,-0.00058
 125,0.01142309,-0.12874438,-0.05344186,0.00698652,-0.02947315,-0.02474
 033,0.00105542,0.00651323,0.00474946,0.00204659,0.53911735,-0.01005154
 ,-0.01630532,-0.02205067,-0.00059996,-0.00135390,-0.00004151,0.0137656
 9,-0.04958840,-0.13677656,0.00221020,0.00332925,0.01005479,0.00929471,
 -0.01519410,-0.02348606,0.00666011,-0.05751034,0.52643886,-0.21132251,
 -0.00852073,0.05570929,0.00215748,-0.00224025,0.00250348,-0.04310779,-
 0.00627178,0.00684072,0.00196663,0.00419458,-0.00178705,-0.00200575,0.
 00056479,-0.00268029,0.00244380,-0.00079999,-0.00151618,0.52253756,-0.
 00654307,-0.05850741,0.00403391,-0.00081893,-0.00089650,0.00029690,-0.
 00541321,-0.00617448,-0.00051895,0.00425638,0.00154260,0.00000280,-0.0
 0207628,-0.00038462,-0.00125581,-0.00139788,-0.00008977,0.00071789,-0.
 00253113,0.56944658,0.08715845,0.00552182,-0.13659986,-0.00060135,0.00
 174852,-0.00135506,-0.01324660,-0.00038578,0.01557007,-0.00364786,-0.0
 0316160,0.00101534,-0.00337944,0.00008297,-0.00234418,-0.00485438,0.00
 011516,-0.00081341,0.05524653,0.00658373,0.58527037,0.00068670,0.00020
 044,0.00063579,-0.01015829,-0.01861671,-0.03441312,0.00057491,0.002030
 40,0.00429613,-0.05380333,0.01301753,0.02348621,0.00022578,-0.00071657
 ,-0.00045056,-0.00049432,0.00148904,-0.00091375,-0.00041512,-0.0001232
 0,0.00014993,0.05961982,-0.00124406,0.00316928,0.00040763,-0.00248062,
 0.00574990,0.00360869,0.00371015,-0.02294273,-0.02587348,0.01217981,-0
 .15116276,-0.12175413,0.00048159,0.00136918,-0.00178672,0.00124589,-0.
 00482427,0.00401662,0.00040446,-0.00015820,-0.00006495,-0.01253873,0.1
 6202834,0.00159094,0.00041667,0.00151980,-0.01205224,-0.00927035,-0.01
 693038,-0.00092625,0.00729556,0.00521451,0.01865722,-0.12312693,-0.201
 26170,-0.00045865,0.00039119,0.00095032,-0.00068933,0.00175141,-0.0002
 0047,0.00016819,-0.00011908,0.00000314,-0.00902213,0.13410821,0.222722
 37,0.00096245,-0.00157384,0.00125104,-0.03713379,-0.00613951,0.0128624
 3,0.00488916,0.00110580,-0.00168541,-0.18070089,-0.05640285,0.11656299
 ,0.00002052,0.00131764,-0.00096007,0.00032193,-0.00017667,-0.00014781,
 -0.00164516,0.00028699,0.00019439,0.00022131,-0.00024109,0.00250790,0.
 21814410,0.00060701,0.00168462,-0.00153196,0.00267122,0.00302104,-0.00
 155760,-0.02467907,-0.01018978,0.02023996,-0.05846439,-0.07596056,0.04
 676287,0.00269428,-0.00523646,0.00111711,-0.00095514,0.00175066,0.0010
 1718,0.00002459,-0.00031697,0.00033276,0.01527553,0.00696349,-0.012557
 04,0.06126358,0.07780820,-0.00107689,-0.00068480,0.00057362,-0.0215306
 9,-0.00527598,0.01377994,0.00902440,0.00193825,-0.00641072,0.12742377,
 0.04869378,-0.15625330,-0.00154618,0.00257921,-0.00036014,-0.00045005,
 -0.00083873,0.00056032,0.00090545,0.00102708,-0.00113151,0.01746466,0.
 00783771,-0.01357698,-0.12426151,-0.05442292,0.16156365,0.00206493,0.0
 0009029,-0.00034717,-0.00011073,0.00020340,-0.00005498,-0.00300827,0.0
 1672038,0.01869217,0.00090065,0.00111669,-0.00063689,-0.04884061,0.012
 21764,0.01346467,-0.00370748,-0.00213886,0.00229819,-0.00011374,0.0000
 6591,-0.00006446,0.00016541,-0.00053520,-0.00018365,-0.00005641,0.0000
 5250,-0.00024399,0.04933958,0.00097935,0.00014973,0.00025401,-0.000240
 81,-0.00002072,-0.00022407,-0.00074744,0.00526538,0.00775634,0.0002352
 2,0.00116045,0.00114760,0.01362847,-0.16034206,-0.13232574,-0.00102789
 ,0.00014107,0.00111653,0.00013356,0.00002559,0.00016655,-0.00012597,-0
 .00001345,-0.00005625,0.00003029,0.00015570,-0.00007867,-0.01336377,0.
 17112908,-0.00174004,0.00049745,0.00137922,-0.00026860,0.00077274,0.00
 010191,0.00083055,-0.01433416,-0.01806579,-0.00040951,-0.00201979,0.00
 031460,0.01552607,-0.13129044,-0.20107963,0.00365473,0.00258874,-0.002
 02259,0.00011378,0.00011541,0.00020941,0.00003380,0.00111573,0.0001688
 1,0.00000324,0.00014544,0.00047983,-0.01930779,0.14389267,0.21970053,0
 .00244996,0.00079864,-0.00015432,0.00110976,0.00084551,-0.00038571,0.0
 0383527,-0.02393798,0.00995876,-0.00545658,-0.00066369,0.00228852,-0.0
 5902454,0.05875499,-0.02392756,0.00070659,-0.00063742,-0.00096752,-0.0
 0017200,0.00003088,0.00016477,-0.00005868,0.00010202,0.00000173,0.0003
 3670,-0.00138507,0.00069255,-0.00139592,0.00134943,-0.00076551,0.06320
 840,0.00052967,0.00118918,-0.00091044,0.00023946,0.00042395,-0.0001651
 8,0.00259146,-0.01113351,0.00393027,-0.00269779,0.00062027,0.00124618,
 0.05662590,-0.26913522,0.08989238,0.00040616,0.00050057,-0.00084576,-0
 .00020880,0.00015608,-0.00010314,0.00007360,0.00044316,-0.00003166,0.0
 0019422,-0.00054441,0.00056092,0.00456929,-0.01752866,0.00805503,-0.06
 141386,0.29047016,-0.00149329,-0.00161621,0.00088883,0.00025832,0.0001
 9155,0.00017789,-0.00537590,0.02028750,-0.00950919,0.00350503,-0.00012
 213,-0.00232735,-0.02219265,0.08898659,-0.08227190,-0.00095925,0.00083
 509,0.00076342,-0.00001426,-0.00008854,-0.00000324,0.00002224,0.000225
 53,0.00018061,-0.00027442,0.00130114,-0.00023439,0.00617134,-0.0226853
 1,0.01022427,0.02245179,-0.09952778,0.08859339,-0.00647184,-0.00142932
 ,0.00388765,0.00167354,0.00174662,-0.00051997,-0.01598257,0.00086704,-
 0.01506063,-0.00174010,0.00013924,-0.00103553,-0.25258319,-0.01487539,
 -0.11027959,0.00039428,0.00003703,-0.00108612,0.00053425,-0.00068134,-
 0.00129507,0.00004702,-0.00003591,0.00022284,0.00005028,-0.00005988,0.
 00003151,0.00423717,-0.00030371,0.00213680,-0.00599952,-0.00068397,-0.
 00268166,0.27514766,-0.00235753,0.00012312,0.00137062,0.00097338,-0.00
 027754,0.00049938,-0.00627243,-0.00196452,-0.00643698,-0.00047709,0.00
 002566,-0.00081685,-0.01515773,-0.04823891,-0.00828321,0.00031699,-0.0
 0005132,-0.00032711,-0.00021258,0.00034976,-0.00030497,0.00006746,-0.0
 0003488,0.00006752,0.00006861,0.00014302,-0.00004117,-0.01937711,-0.00
 092619,-0.00829983,0.02628186,0.00372450,0.01361647,0.01613436,0.04894
 229,0.00474676,0.00129249,-0.00184855,-0.00014684,0.00074574,-0.000962
 98,0.01477231,-0.00109387,0.01107973,-0.00106667,-0.00001428,0.0004963
 9,-0.11379878,-0.00851303,-0.11040450,-0.00011568,-0.00012235,0.000546
 13,0.00089674,0.00048644,0.00095743,-0.00010334,0.00008090,-0.00000403
 ,0.00006885,-0.00021885,0.00011926,-0.02070918,0.00076975,-0.01040582,
 -0.00949138,-0.00177059,-0.00621642,0.12399911,0.00755563,0.11716722,0
 .00028152,0.00040578,0.00061987,0.00006096,0.00054995,-0.00048210,-0.0
 0326861,-0.00036508,0.00109177,0.00005644,-0.00057603,0.00054196,0.000
 63844,0.00131920,0.00063715,-0.17658081,-0.05725501,0.12252204,-0.0017
 3752,-0.00006769,-0.00144678,0.00022701,0.00008675,-0.00013943,0.00012
 097,0.00054343,-0.00008476,0.00000916,-0.00029595,0.00038345,-0.000032
 89,-0.00018359,-0.00002593,0.00041093,-0.00001627,-0.00017825,0.192749
 99,0.00027791,0.00063947,0.00145721,-0.00032296,-0.00006058,0.00028962
 ,0.01751509,0.00697468,-0.01293290,0.00093361,0.00170580,-0.00062688,0
 .00004580,-0.00288138,-0.00313647,-0.05756250,-0.07412701,0.05411620,-
 0.00164702,0.00094729,-0.00042609,-0.00018701,0.00022557,0.00011801,-0
 .00024580,-0.00039038,0.00019618,0.00081135,0.00064302,-0.00111226,-0.
 00002023,0.00017393,-0.00031193,-0.00007128,-0.00015449,0.00007523,0.0
 6340850,0.07692878,-0.00090664,0.00003510,0.00142444,0.00008656,-0.000
 20241,-0.00008325,0.01887729,0.00969846,-0.01566891,-0.00032684,0.0015
 8376,0.00060765,-0.00071114,-0.00431288,-0.00315765,0.12100026,0.05281
 199,-0.15958979,0.00060401,-0.00014777,-0.00083514,-0.00034631,0.00008
 452,0.00014304,-0.00014264,-0.00074640,0.00051233,0.00136366,0.0002078
 5,-0.00089171,-0.00023941,-0.00014753,0.00029773,0.00014990,0.00001825
 ,0.00021305,-0.13404797,-0.05623349,0.17278770,0.00135224,0.00111129,0
 .00164922,-0.00030373,0.00163267,0.00066902,0.00200738,-0.00076816,0.0
 0169058,-0.00062316,-0.00026016,-0.00102948,-0.00000547,0.00023107,0.0
 0061022,-0.25498423,-0.01859259,-0.11799526,-0.00050524,0.00046458,0.0
 0002773,0.00003743,-0.00015813,0.00005402,-0.00000307,0.00001571,-0.00
 013030,0.00021641,-0.00013960,0.00002659,-0.00000914,-0.00016046,-0.00
 004882,0.00028455,0.00028022,0.00052299,-0.01856046,-0.00120238,-0.010
 96210,0.27623950,-0.00147547,-0.00302766,-0.00495912,0.00119800,-0.000
 23131,0.00061361,-0.01954234,-0.00018034,-0.00732671,-0.00115461,0.000
 12604,-0.00014975,-0.00037889,0.00052897,0.00058368,-0.01631415,-0.047
 59483,-0.00940236,0.00143507,-0.00018450,-0.00065301,0.00006252,0.0001
 9983,0.00003474,0.00010238,-0.00003971,0.00000699,-0.00002068,-0.00013
 773,0.00022143,0.00019165,-0.00003239,0.00005866,0.00030460,0.00034136
 ,-0.00012477,-0.00893170,-0.00169387,-0.00547902,0.01853814,0.04798846
 ,-0.00175829,-0.00511510,-0.00513693,0.00051965,0.00112540,0.00033913,
 -0.02210165,0.00120743,-0.01075778,-0.00059643,0.00005275,-0.00008208,
 -0.00072994,0.00062996,0.00061514,-0.11649938,-0.01021481,-0.11143785,
 0.00269297,-0.00014964,-0.00070902,-0.00001134,0.00001832,-0.00003175,
 0.00009138,-0.00001915,-0.00005290,0.00012807,0.00006480,0.00042276,-0
 .00001290,-0.00001406,-0.00010457,0.00081557,-0.00023779,-0.00049747,0
 .01903578,0.00131273,0.01154238,0.12713909,0.01252163,0.12112678,0.000
 32422,-0.00020004,0.00056048,0.00031428,0.00080075,0.00057895,-0.00226
 971,0.00147785,-0.00207420,-0.00040295,-0.00036003,-0.00011944,-0.0001
 4340,0.00039874,-0.00049111,-0.06434115,0.06112666,-0.02283251,0.00032
 581,-0.00085600,0.00019151,0.00028551,0.00009212,-0.00014684,0.0001014
 2,0.00025825,-0.00014247,0.00001187,-0.00026250,0.00003526,0.00001273,
 0.00007067,0.00057473,-0.00004242,0.00015117,0.00000411,0.00644010,-0.
 02132960,0.00720952,-0.00549455,0.02599898,-0.00852420,0.06516782,-0.0
 0048606,0.00249377,0.00054332,0.00017631,0.00060976,0.00031684,0.00657
 691,-0.02224161,0.00921762,-0.00018420,-0.00115157,-0.00510776,-0.0006
 2305,0.00049296,0.00113642,0.06093966,-0.26324595,0.08686597,-0.000027
 18,-0.00059665,-0.00004389,0.00052376,-0.00141633,0.00029531,-0.000048
 23,0.00035378,-0.00002744,-0.00024255,0.00029800,-0.00013754,0.0003588
 0,0.00067258,-0.00054084,-0.00010324,-0.00000136,-0.00010595,0.0023769
 8,-0.00775679,0.00252005,-0.00070423,0.00397827,-0.00153062,-0.0677587
 6,0.28727412,0.00090714,0.00240137,0.00181777,0.00025043,0.00080712,0.
 00065353,0.00765624,-0.02439932,0.00899763,-0.00036014,-0.00275407,-0.
 00497067,-0.00053132,-0.00048192,0.00140425,-0.02355011,0.08833361,-0.
 08148135,-0.00085332,0.00024113,0.00029581,0.00025082,-0.00151351,0.00
 059454,-0.00013614,-0.00014179,-0.00002332,-0.00019188,0.00018251,0.00
 013695,0.00016759,0.00015539,-0.00038452,0.00007244,0.00007644,-0.0000
 2700,-0.00673716,0.01748741,-0.00726760,-0.00207569,0.01377072,-0.0058
 9638,0.02518409,-0.09354344,0.08624807,-0.01241736,-0.02582688,0.02966
 441,0.00042306,0.00012016,-0.00028737,0.00400616,-0.00162609,0.0024862
 8,-0.00076225,0.00046655,0.00016496,-0.00053924,0.00014966,-0.00045586
 ,-0.00053263,0.00000929,-0.00043034,-0.05113352,0.00513117,-0.00625324
 ,0.00011197,-0.00000470,-0.00005395,-0.00203045,0.00133053,-0.00082814
 ,0.00013442,-0.00003005,-0.00003851,0.00016858,0.00018465,-0.00011832,
 -0.00027972,-0.00000655,0.00000372,-0.00012724,-0.00032382,-0.00021055
 ,0.00003718,-0.00013424,-0.00015284,0.00001628,0.00006244,0.00009773,0
 .05948653,-0.00868007,0.00389606,0.00161342,0.00024087,0.00027106,-0.0
 0035411,0.00178095,0.00041445,0.00183177,-0.00070650,-0.00060460,0.000
 60812,-0.00021768,-0.00005227,-0.00020585,-0.00025612,-0.00044813,0.00
 064684,0.00219248,-0.19850891,0.12459137,0.00005825,-0.00016037,-0.000
 17888,0.00180643,0.00030175,-0.00026361,0.00007429,0.00000561,-0.00003
 820,0.00003858,0.00007645,-0.00003999,-0.00012695,-0.00001490,0.000031
 38,0.00009523,-0.00027240,-0.00048696,0.00010957,0.00015423,-0.0002570
 0,0.00011182,0.00026028,-0.00013083,0.00042421,0.20968388,0.01252361,0
 .01178757,-0.01247182,-0.00012527,-0.00064783,0.00033450,-0.00280819,-
 0.00109274,-0.00108766,0.00082669,0.00119355,-0.00028140,0.00024307,-0
 .00004652,0.00028895,0.00039186,-0.00047880,0.00031946,-0.00159585,0.1
 2352068,-0.15811559,0.00008362,-0.00006389,-0.00009977,-0.00147363,0.0
 0017508,0.00083712,-0.00007965,0.00001825,-0.00001439,-0.00010886,-0.0
 0010705,0.00003455,0.00020515,0.00001635,-0.00002041,0.00001228,0.0000
 2197,0.00005861,0.00001961,0.00011874,0.00008584,-0.00011754,-0.000028
 74,-0.00006899,-0.00617915,-0.14165733,0.17352065,-0.03791787,-0.00563
 150,-0.01989074,-0.00022001,0.00036499,-0.00030949,-0.00056963,-0.0009
 6745,0.00523975,-0.00005262,-0.00077639,0.00016975,-0.00121319,0.00006
 804,-0.00109001,0.00003370,0.00026282,0.00074938,-0.15865345,-0.030748
 05,-0.12694391,-0.00003979,0.00005926,0.00002741,0.00005637,0.00009708
 ,-0.00008762,-0.00000084,0.00006050,0.00004121,0.00004131,-0.00004533,
 -0.00000062,-0.00042332,-0.00012408,0.00037656,0.00028687,0.00017388,-
 0.00022506,0.00014628,-0.00005837,-0.00026802,-0.00005156,-0.00009107,
 0.00002529,0.00162160,0.00099650,-0.00077393,0.19056361,-0.00258287,0.
 00100969,-0.00078282,0.00017351,0.00009828,-0.00007919,0.00042788,-0.0
 0028331,0.00019468,-0.00026818,-0.00014123,0.00032554,-0.00016412,0.00
 013446,-0.00002535,-0.00029109,0.00028402,-0.00021856,-0.03184980,-0.0
 5976448,-0.03551409,0.00011225,0.00003384,-0.00010651,0.00004585,0.000
 25588,-0.00025643,-0.00000971,0.00000915,0.00002672,0.00001450,-0.0000
 0061,-0.00003924,-0.00002238,-0.00001323,0.00004715,-0.00015972,-0.000
 32940,0.00019954,-0.00017286,0.00004375,0.00016247,0.00025343,0.000166
 70,-0.00008805,0.01686786,0.00561047,0.01865226,0.03618440,0.05693368,
 0.01767024,0.00348723,0.01515894,-0.00018860,-0.00007737,0.00015207,0.
 00280600,0.00044214,-0.00123193,0.00040683,0.00032138,-0.00026912,0.00
 056087,0.00002508,0.00049501,0.00017338,0.00009185,-0.00072461,-0.1387
 6000,-0.03679540,-0.20006524,-0.00007159,0.00000899,0.00007727,-0.0000
 9096,-0.00027039,0.00021644,-0.00002399,-0.00002501,0.00000770,-0.0000
 1855,0.00000945,0.00000156,0.00019985,0.00005820,-0.00017138,-0.000388
 36,-0.00015886,0.00048557,-0.00022754,-0.00001934,0.00028270,0.0000198
 5,0.00002836,0.00002066,-0.01242253,-0.00473502,-0.01402434,0.13869513
 ,0.03891347,0.20894152,-0.02372043,0.02549853,0.02321129,-0.00029404,0
 .00022771,-0.00046693,0.00405984,0.00289719,0.00399520,-0.00046852,-0.
 00041152,-0.00013338,-0.00005565,-0.00005223,-0.00024308,-0.00037927,-
 0.00005340,-0.00117152,-0.05872225,0.04108955,0.01834842,0.00001114,-0
 .00025207,0.00001926,0.00003006,0.00004514,-0.00006606,0.00017544,-0.0
 0002925,-0.00018399,0.00001717,-0.00002230,0.00006087,-0.00013182,-0.0
 0012005,-0.00007132,-0.00101981,-0.00023538,-0.00108016,0.00019746,-0.
 00006695,0.00016142,-0.00032717,-0.00063507,-0.00014670,0.00169665,0.0
 0199863,-0.00095304,0.00631961,-0.01859833,-0.00832023,0.07255340,0.00
 469513,0.01085639,0.00064344,0.00046808,0.00008548,0.00015406,-0.00104
 780,-0.00006457,-0.00122484,-0.00052249,-0.00014992,0.00017467,0.00014
 165,0.00014284,0.00021890,-0.00048194,0.00035679,-0.00132445,0.0453782
 0,-0.24687479,-0.09841064,-0.00006234,0.00009003,0.00005541,0.00016669
 ,-0.00002114,-0.00027850,-0.00006841,0.00000198,0.00006993,-0.00002395
 ,-0.00000561,-0.00001603,0.00012858,-0.00000825,-0.00004744,-0.0006238
 3,-0.00064565,0.00053884,-0.00050860,0.00009472,0.00078975,0.00005368,
 -0.00013546,-0.00036555,0.00331432,-0.02069348,-0.01139378,0.00027554,
 -0.00406085,-0.00129095,-0.05127126,0.26102899,0.01603495,-0.01189962,
 -0.01001751,0.00012673,-0.00031046,0.00037088,-0.00241407,-0.00000980,
 -0.00138411,0.00042377,0.00062570,-0.00042585,0.00007988,-0.00018025,0
 .00009825,-0.00057156,-0.00011183,-0.00001796,0.02160030,-0.09785146,-
 0.10145983,-0.00001793,0.00007692,-0.00002005,-0.00016509,-0.00003379,
 0.00027825,-0.00004918,0.00003579,0.00003841,-0.00001551,0.00001392,-0
 .00000943,0.00011006,0.00008218,0.00002526,-0.00127318,-0.00008622,-0.
 00045005,-0.00012348,0.00031687,0.00032065,0.00014648,0.00011609,-0.00
 008325,-0.00506316,0.01895128,0.01078438,0.00423655,-0.02144102,-0.009
 32000,-0.03297863,0.11168174,0.11130833,0.00111209,-0.00050624,0.00023
 688,-0.34298976,-0.01876631,0.21561039,-0.00093597,0.00068711,0.000302
 44,-0.03216798,-0.00275534,0.02348887,-0.00023862,-0.00008941,-0.00026
 261,0.00005086,-0.00014156,0.00021218,-0.00043149,-0.00006870,0.000251
 36,0.00275551,-0.00087153,0.00042297,-0.00368549,0.00066472,-0.0050937
 1,-0.00002104,0.00015012,-0.00007155,0.00026280,-0.00006896,0.00014080
 ,0.00087481,-0.00015261,0.00029029,0.00004494,-0.00001816,-0.00009241,
 -0.00002939,0.00024605,0.00007107,0.00007286,-0.00011121,-0.00002930,0
 .00011999,0.00005951,-0.00009081,0.00007291,0.00003937,-0.00001978,0.0
 0005817,-0.00001125,-0.00008693,0.37507479,-0.00079425,-0.00074627,0.0
 0043704,-0.02088049,-0.00317276,0.01940313,0.00325207,0.00094664,-0.00
 107474,-0.00066368,-0.00144777,-0.00089356,0.00143916,0.00094543,0.001
 07979,0.00013864,-0.00049075,0.00024382,-0.00001845,-0.00001063,-0.000
 07474,-0.00054023,0.00044039,0.00091267,-0.00156050,0.00026127,-0.0006
 7188,-0.00016544,-0.00001596,-0.00026908,-0.00068466,-0.00007044,-0.00
 051453,-0.00096409,-0.00196412,0.00092643,-0.00031093,0.00007340,0.000
 05808,0.00028392,-0.00033328,-0.00034706,-0.00002719,-0.00005451,-0.00
 003722,-0.00010851,0.00008081,0.00001223,-0.00010079,0.00001318,-0.000
 01381,-0.00000896,0.00000251,0.00002394,0.02171439,0.00554286,0.000088
 67,0.00043035,-0.00072053,0.26773784,0.01960781,-0.23638521,-0.0015529
 0,-0.00062218,0.00058426,-0.02630869,-0.00079497,0.01206845,-0.0001239
 0,-0.00007168,0.00011694,0.00031706,-0.00002590,-0.00004014,-0.0000745
 1,-0.00009931,0.00011052,-0.00107313,-0.00053308,0.00055073,-0.0042045
 6,0.00040834,-0.00087748,-0.00022530,-0.00021760,-0.00070446,0.0003615
 2,-0.00024036,-0.00010123,0.00012770,0.00138686,-0.00004592,-0.0000403
 9,-0.00004947,-0.00012838,0.00018359,-0.00013301,-0.00002865,-0.000056
 67,0.00002622,0.00003387,0.00007687,0.00007361,-0.00007969,0.00002836,
 0.00002944,-0.00003281,0.00001856,0.00002545,-0.00003636,-0.23528014,-
 0.01920051,0.22571609\\0.00001746,-0.00000172,0.00001107,-0.00001261,0
 .00001549,-0.00000915,0.00003776,-0.00002393,-0.00001579,0.00002392,0.
 00003034,-0.00000562,0.00001072,-0.00002505,-0.00000241,-0.00005940,-0
 .00001734,0.00000920,-0.00002194,0.00004861,-0.00001550,-0.00000497,-0
 .00000327,-0.00000559,-0.00000292,0.00001200,0.00002043,-0.00000461,-0
 .00000295,-0.00000642,0.00000326,0.00000389,-0.00000151,0.00000072,-0.
 00000423,-0.00000716,-0.00000075,0.00000127,-0.00000362,0.00001119,-0.
 00000518,0.00000342,0.00000253,-0.00000479,0.00002043,0.00000820,0.000
 00548,-0.00000313,-0.00001515,-0.00000809,0.00000516,0.00000180,-0.000
 02038,0.00000890,0.00000480,-0.00000015,-0.00000270\\\@


 IF THE FACTS DO NOT CONFORM TO THE THEORY, THEY MUST BE DISPOSED OF.
 Job cpu time:       0 days  3 hours  3 minutes 52.7 seconds.
 Elapsed time:       0 days  0 hours  9 minutes 12.2 seconds.
 File lengths (MBytes):  RWF=   1392 Int=      0 D2E=      0 Chk=     32 Scr=     32
 Normal termination of Gaussian 16 at Thu Feb 21 15:36:07 2019.
