 Entering Gaussian System, Link 0=g16
 Input=FBRHVBFWGRGMCF-UHFFFAOYSA-N_GeoFreq_a1.com
 Output=FBRHVBFWGRGMCF-UHFFFAOYSA-N_GeoFreq_a1.log
 Initial command:
 /shared/centos7/gaussian/g16/l1.exe "/scratch/underkoffler.c/gaussian_scratch/Gau-11873.inp" -scrdir="/scratch/underkoffler.c/gaussian_scratch/"
 Entering Link 1 = /shared/centos7/gaussian/g16/l1.exe PID=     11874.
  
 Copyright (c) 1988,1990,1992,1993,1995,1998,2003,2009,2016,
            Gaussian, Inc.  All Rights Reserved.
  
 This is part of the Gaussian(R) 16 program.  It is based on
 the Gaussian(R) 09 system (copyright 2009, Gaussian, Inc.),
 the Gaussian(R) 03 system (copyright 2003, Gaussian, Inc.),
 the Gaussian(R) 98 system (copyright 1998, Gaussian, Inc.),
 the Gaussian(R) 94 system (copyright 1995, Gaussian, Inc.),
 the Gaussian 92(TM) system (copyright 1992, Gaussian, Inc.),
 the Gaussian 90(TM) system (copyright 1990, Gaussian, Inc.),
 the Gaussian 88(TM) system (copyright 1988, Gaussian, Inc.),
 the Gaussian 86(TM) system (copyright 1986, Carnegie Mellon
 University), and the Gaussian 82(TM) system (copyright 1983,
 Carnegie Mellon University). Gaussian is a federally registered
 trademark of Gaussian, Inc.
  
 This software contains proprietary and confidential information,
 including trade secrets, belonging to Gaussian, Inc.
  
 This software is provided under written license and may be
 used, copied, transmitted, or stored only in accord with that
 written license.
  
 The following legend is applicable only to US Government
 contracts under FAR:
  
                    RESTRICTED RIGHTS LEGEND
  
 Use, reproduction and disclosure by the US Government is
 subject to restrictions as set forth in subparagraphs (a)
 and (c) of the Commercial Computer Software - Restricted
 Rights clause in FAR 52.227-19.
  
 Gaussian, Inc.
 340 Quinnipiac St., Bldg. 40, Wallingford CT 06492
  
  
 ---------------------------------------------------------------
 Warning -- This program may not be used in any manner that
 competes with the business of Gaussian, Inc. or will provide
 assistance to any competitor of Gaussian, Inc.  The licensee
 of this program is prohibited from giving any competitor of
 Gaussian, Inc. access to this program.  By using this program,
 the user acknowledges that Gaussian, Inc. is engaged in the
 business of creating and licensing software in the field of
 computational chemistry and represents and warrants to the
 licensee that it is not a competitor of Gaussian, Inc. and that
 it will not use this program in any manner prohibited above.
 ---------------------------------------------------------------
  

 Cite this work as:
 Gaussian 16, Revision A.03,
 M. J. Frisch, G. W. Trucks, H. B. Schlegel, G. E. Scuseria, 
 M. A. Robb, J. R. Cheeseman, G. Scalmani, V. Barone, 
 G. A. Petersson, H. Nakatsuji, X. Li, M. Caricato, A. V. Marenich, 
 J. Bloino, B. G. Janesko, R. Gomperts, B. Mennucci, H. P. Hratchian, 
 J. V. Ortiz, A. F. Izmaylov, J. L. Sonnenberg, D. Williams-Young, 
 F. Ding, F. Lipparini, F. Egidi, J. Goings, B. Peng, A. Petrone, 
 T. Henderson, D. Ranasinghe, V. G. Zakrzewski, J. Gao, N. Rega, 
 G. Zheng, W. Liang, M. Hada, M. Ehara, K. Toyota, R. Fukuda, 
 J. Hasegawa, M. Ishida, T. Nakajima, Y. Honda, O. Kitao, H. Nakai, 
 T. Vreven, K. Throssell, J. A. Montgomery, Jr., J. E. Peralta, 
 F. Ogliaro, M. J. Bearpark, J. J. Heyd, E. N. Brothers, K. N. Kudin, 
 V. N. Staroverov, T. A. Keith, R. Kobayashi, J. Normand, 
 K. Raghavachari, A. P. Rendell, J. C. Burant, S. S. Iyengar, 
 J. Tomasi, M. Cossi, J. M. Millam, M. Klene, C. Adamo, R. Cammi, 
 J. W. Ochterski, R. L. Martin, K. Morokuma, O. Farkas, 
 J. B. Foresman, and D. J. Fox, Gaussian, Inc., Wallingford CT, 2016.
 
 ******************************************
 Gaussian 16:  EM64L-G16RevA.03 25-Dec-2016
                 9-Mar-2019 
 ******************************************
 %nprocshared=20
 Will use up to   20 processors via shared memory.
 %mem=5GB
 ----------------------------------------------------------------------
 #p m062x/6-311+g(2df,2p) opt=(calcfc,verytight,gdiis,maxcycles=900) fr
 eq iop(7/33=1,2/16=3)
 ----------------------------------------------------------------------

 Warning!  Use of Opt=GDIIS is deprecated since it is seldom a good choice.

 1/6=900,7=1,10=4,18=20,19=11,26=3,38=1/1,3;
 2/9=110,12=2,16=3,17=6,18=5,40=1/2;
 3/5=4,6=6,7=214,11=2,25=1,30=1,71=2,74=-55,140=1/1,2,3;
 4//1;
 5/5=2,38=5/2;
 8/6=4,10=90,11=11/1;
 11/6=1,8=1,9=11,15=111,16=1/1,2,10;
 10/6=1,13=1/2;
 6/7=2,8=2,9=2,10=2,28=1/1;
 7/10=1,18=20,25=1,33=1/1,2,3,16;
 1/6=900,7=1,10=4,18=20,19=11,26=3/3(2);
 2/9=110,16=3/2;
 99//99;
 2/9=110,16=3/2;
 3/5=4,6=6,7=214,11=2,25=1,30=1,71=1,74=-55/1,2,3;
 4/5=5,16=3,69=1/1;
 5/5=2,38=5/2;
 7/33=1/1,2,3,16;
 1/6=900,7=1,18=20,19=11,26=3/3(-5);
 2/9=110,16=3/2;
 6/7=2,8=2,9=2,10=2,19=2,28=1/1;
 99/9=1/99;
 Leave Link    1 at Sat Mar  9 01:44:53 2019, MaxMem=   671088640 cpu:              23.9 elap:               1.3
 (Enter /shared/centos7/gaussian/g16/l101.exe)
 ------------------------------
 Gaussian input prepared by ASE
 ------------------------------
 Symbolic Z-matrix:
 Charge =  0 Multiplicity = 2
 O                     0.89329   0.75994  -0.16685 
 C                    -0.42692   0.1341   -0.40442 
 C                    -0.45747  -0.56795  -1.7467 
 C                     1.89294  -0.28205  -0.01305 
 C                    -0.86738  -0.69249   0.73408 
 H                    -1.12825   1.03185  -0.48226 
 H                    -1.42064  -1.11661  -1.8902 
 H                     0.38487  -1.30449  -1.81788 
 H                    -0.34337   0.16833  -2.58275 
 H                     1.68195  -0.89771   0.90693 
 H                     1.89521  -0.95802  -0.91654 
 H                     2.88554   0.2231    0.08829 
 H                    -1.84758  -1.21548   0.65519 
 H                    -0.58154  -0.37461   1.7616 
 
 ITRead=  0  0  0  0  0  0  0  0  0  0  0  0  0  0
 MicOpt= -1 -1 -1 -1 -1 -1 -1 -1 -1 -1 -1 -1 -1 -1
 NAtoms=     14 NQM=       14 NQMF=       0 NMMI=      0 NMMIF=      0
                NMic=       0 NMicF=      0.
                    Isotopes and Nuclear Properties:
 (Nuclear quadrupole moments (NQMom) in fm**2, nuclear magnetic moments (NMagM)
  in nuclear magnetons)

  Atom         1           2           3           4           5           6           7           8           9          10
 IAtWgt=          16          12          12          12          12           1           1           1           1           1
 AtmWgt=  15.9949146  12.0000000  12.0000000  12.0000000  12.0000000   1.0078250   1.0078250   1.0078250   1.0078250   1.0078250
 NucSpn=           0           0           0           0           0           1           1           1           1           1
 AtZEff=  -0.0000000  -0.0000000  -0.0000000  -0.0000000  -0.0000000  -0.0000000  -0.0000000  -0.0000000  -0.0000000  -0.0000000
 NQMom=    0.0000000   0.0000000   0.0000000   0.0000000   0.0000000   0.0000000   0.0000000   0.0000000   0.0000000   0.0000000
 NMagM=    0.0000000   0.0000000   0.0000000   0.0000000   0.0000000   2.7928460   2.7928460   2.7928460   2.7928460   2.7928460
 AtZNuc=   8.0000000   6.0000000   6.0000000   6.0000000   6.0000000   1.0000000   1.0000000   1.0000000   1.0000000   1.0000000

  Atom        11          12          13          14
 IAtWgt=           1           1           1           1
 AtmWgt=   1.0078250   1.0078250   1.0078250   1.0078250
 NucSpn=           1           1           1           1
 AtZEff=  -0.0000000  -0.0000000  -0.0000000  -0.0000000
 NQMom=    0.0000000   0.0000000   0.0000000   0.0000000
 NMagM=    2.7928460   2.7928460   2.7928460   2.7928460
 AtZNuc=   1.0000000   1.0000000   1.0000000   1.0000000
 Leave Link  101 at Sat Mar  9 01:44:53 2019, MaxMem=   671088640 cpu:               2.6 elap:               0.1
 (Enter /shared/centos7/gaussian/g16/l103.exe)

 GradGradGradGradGradGradGradGradGradGradGradGradGradGradGradGradGradGrad
 Berny optimization.
 Initialization pass.
                           ----------------------------
                           !    Initial Parameters    !
                           ! (Angstroms and Degrees)  !
 --------------------------                            --------------------------
 ! Name  Definition              Value          Derivative Info.                !
 --------------------------------------------------------------------------------
 ! R1    R(1,2)                  1.4802         calculate D2E/DX2 analytically  !
 ! R2    R(1,4)                  1.4521         calculate D2E/DX2 analytically  !
 ! R3    R(2,3)                  1.5151         calculate D2E/DX2 analytically  !
 ! R4    R(2,5)                  1.4743         calculate D2E/DX2 analytically  !
 ! R5    R(2,6)                  1.1419         calculate D2E/DX2 analytically  !
 ! R6    R(3,7)                  1.1177         calculate D2E/DX2 analytically  !
 ! R7    R(3,8)                  1.1212         calculate D2E/DX2 analytically  !
 ! R8    R(3,9)                  1.1199         calculate D2E/DX2 analytically  !
 ! R9    R(4,10)                 1.1269         calculate D2E/DX2 analytically  !
 ! R10   R(4,11)                 1.1284         calculate D2E/DX2 analytically  !
 ! R11   R(4,12)                 1.1183         calculate D2E/DX2 analytically  !
 ! R12   R(5,13)                 1.1138         calculate D2E/DX2 analytically  !
 ! R13   R(5,14)                 1.1129         calculate D2E/DX2 analytically  !
 ! A1    A(2,1,4)              109.1231         calculate D2E/DX2 analytically  !
 ! A2    A(1,2,3)              110.8602         calculate D2E/DX2 analytically  !
 ! A3    A(1,2,5)              112.3075         calculate D2E/DX2 analytically  !
 ! A4    A(1,2,6)              103.0812         calculate D2E/DX2 analytically  !
 ! A5    A(3,2,5)              114.7294         calculate D2E/DX2 analytically  !
 ! A6    A(3,2,6)              106.9499         calculate D2E/DX2 analytically  !
 ! A7    A(5,2,6)              108.0564         calculate D2E/DX2 analytically  !
 ! A8    A(2,3,7)              111.0127         calculate D2E/DX2 analytically  !
 ! A9    A(2,3,8)              110.2121         calculate D2E/DX2 analytically  !
 ! A10   A(2,3,9)              110.7745         calculate D2E/DX2 analytically  !
 ! A11   A(7,3,8)              108.469          calculate D2E/DX2 analytically  !
 ! A12   A(7,3,9)              108.3414         calculate D2E/DX2 analytically  !
 ! A13   A(8,3,9)              107.9362         calculate D2E/DX2 analytically  !
 ! A14   A(1,4,10)             110.463          calculate D2E/DX2 analytically  !
 ! A15   A(1,4,11)             110.2695         calculate D2E/DX2 analytically  !
 ! A16   A(1,4,12)             107.2462         calculate D2E/DX2 analytically  !
 ! A17   A(10,4,11)            109.0726         calculate D2E/DX2 analytically  !
 ! A18   A(10,4,12)            109.8142         calculate D2E/DX2 analytically  !
 ! A19   A(11,4,12)            109.9599         calculate D2E/DX2 analytically  !
 ! A20   A(2,5,13)             118.1316         calculate D2E/DX2 analytically  !
 ! A21   A(2,5,14)             118.4322         calculate D2E/DX2 analytically  !
 ! A22   A(13,5,14)            115.1856         calculate D2E/DX2 analytically  !
 ! D1    D(4,1,2,3)            -67.249          calculate D2E/DX2 analytically  !
 ! D2    D(4,1,2,5)             62.5605         calculate D2E/DX2 analytically  !
 ! D3    D(4,1,2,6)            178.6189         calculate D2E/DX2 analytically  !
 ! D4    D(2,1,4,10)           -64.4721         calculate D2E/DX2 analytically  !
 ! D5    D(2,1,4,11)            56.1654         calculate D2E/DX2 analytically  !
 ! D6    D(2,1,4,12)           175.8797         calculate D2E/DX2 analytically  !
 ! D7    D(1,2,3,7)            175.027          calculate D2E/DX2 analytically  !
 ! D8    D(1,2,3,8)             54.8251         calculate D2E/DX2 analytically  !
 ! D9    D(1,2,3,9)            -64.5584         calculate D2E/DX2 analytically  !
 ! D10   D(5,2,3,7)             46.5117         calculate D2E/DX2 analytically  !
 ! D11   D(5,2,3,8)            -73.6902         calculate D2E/DX2 analytically  !
 ! D12   D(5,2,3,9)            166.9263         calculate D2E/DX2 analytically  !
 ! D13   D(6,2,3,7)            -73.2976         calculate D2E/DX2 analytically  !
 ! D14   D(6,2,3,8)            166.5005         calculate D2E/DX2 analytically  !
 ! D15   D(6,2,3,9)             47.117          calculate D2E/DX2 analytically  !
 ! D16   D(1,2,5,13)          -179.5883         calculate D2E/DX2 analytically  !
 ! D17   D(1,2,5,14)            33.4585         calculate D2E/DX2 analytically  !
 ! D18   D(3,2,5,13)           -51.8019         calculate D2E/DX2 analytically  !
 ! D19   D(3,2,5,14)           161.2449         calculate D2E/DX2 analytically  !
 ! D20   D(6,2,5,13)            67.3907         calculate D2E/DX2 analytically  !
 ! D21   D(6,2,5,14)           -79.5626         calculate D2E/DX2 analytically  !
 --------------------------------------------------------------------------------
 Trust Radius=3.00D-01 FncErr=1.00D-07 GrdErr=1.00D-06 EigMax=2.50D+02 EigMin=1.00D-04
 Number of steps in this run=    100 maximum allowed number of steps=    100.
 GradGradGradGradGradGradGradGradGradGradGradGradGradGradGradGradGradGrad

 Leave Link  103 at Sat Mar  9 01:44:54 2019, MaxMem=   671088640 cpu:               2.3 elap:               0.1
 (Enter /shared/centos7/gaussian/g16/l202.exe)
                          Input orientation:                          
 ---------------------------------------------------------------------
 Center     Atomic      Atomic             Coordinates (Angstroms)
 Number     Number       Type             X           Y           Z
 ---------------------------------------------------------------------
      1          8           0        0.893286    0.759942   -0.166852
      2          6           0       -0.426921    0.134104   -0.404425
      3          6           0       -0.457470   -0.567955   -1.746700
      4          6           0        1.892941   -0.282051   -0.013047
      5          6           0       -0.867375   -0.692493    0.734080
      6          1           0       -1.128254    1.031848   -0.482258
      7          1           0       -1.420639   -1.116609   -1.890204
      8          1           0        0.384874   -1.304490   -1.817884
      9          1           0       -0.343369    0.168329   -2.582750
     10          1           0        1.681955   -0.897710    0.906933
     11          1           0        1.895209   -0.958016   -0.916536
     12          1           0        2.885543    0.223099    0.088292
     13          1           0       -1.847584   -1.215483    0.655186
     14          1           0       -0.581542   -0.374606    1.761597
 ---------------------------------------------------------------------
                    Distance matrix (angstroms):
                    1          2          3          4          5
     1  O    0.000000
     2  C    1.480223   0.000000
     3  C    2.466530   1.515098   0.000000
     4  C    1.452142   2.389167   2.934574   0.000000
     5  C    2.453808   1.474264   2.517499   2.888945   0.000000
     6  H    2.063986   1.141872   2.146656   3.327779   2.126239
     7  H    3.441749   2.181581   1.117725   3.898720   2.715297
     8  H    2.691889   2.174035   1.121202   2.564583   2.907780
     9  H    2.777748   2.180195   1.119872   3.436175   3.466548
    10  H    2.126693   2.689173   3.424565   1.126904   2.563411
    11  H    2.125384   2.616729   2.525157   1.128374   3.229072
    12  H    2.079034   3.350090   3.894701   1.118349   3.916598
    13  H    3.477129   2.227655   2.849696   3.912718   1.113801
    14  H    2.679783   2.230324   3.515811   3.046473   1.112899
                    6          7          8          9         10
     6  H    0.000000
     7  H    2.585279   0.000000
     8  H    3.087382   1.816702   0.000000
     9  H    2.402868   1.814165   1.812333   0.000000
    10  H    3.681076   4.183059   3.045080   4.173279   0.000000
    11  H    3.645475   3.459484   1.792647   3.009344   1.836887
    12  H    4.134025   4.924679   3.495766   4.190863   1.837120
    13  H    2.619488   2.582841   3.332847   3.829077   3.552746
    14  H    2.704051   3.819726   3.822477   4.384616   2.475381
                   11         12         13         14
    11  H    0.000000
    12  H    1.839966   0.000000
    13  H    4.067567   4.979295   0.000000
    14  H    3.694193   3.895880   1.879915   0.000000
 Stoichiometry    C4H9O(2)
 Framework group  C1[X(C4H9O)]
 Deg. of freedom    36
 Full point group                 C1      NOp   1
 Largest Abelian subgroup         C1      NOp   1
 Largest concise Abelian subgroup C1      NOp   1
                         Standard orientation:                         
 ---------------------------------------------------------------------
 Center     Atomic      Atomic             Coordinates (Angstroms)
 Number     Number       Type             X           Y           Z
 ---------------------------------------------------------------------
      1          8           0       -0.854820   -0.022755    0.771835
      2          6           0        0.579881    0.095584    0.427318
      3          6           0        1.082183   -1.171559   -0.234167
      4          6           0       -1.634462   -0.083344   -0.451767
      5          6           0        0.877592    1.336436   -0.310998
      6          1           0        1.086353    0.161244    1.448614
      7          1           0        2.139689   -1.053052   -0.576142
      8          1           0        0.447216   -1.422115   -1.123623
      9          1           0        1.036421   -2.035704    0.476658
     10          1           0       -1.541642    0.881680   -1.026246
     11          1           0       -1.277721   -0.934616   -1.100842
     12          1           0       -2.700753   -0.248393   -0.157682
     13          1           0        1.930078    1.520799   -0.625381
     14          1           0        0.287750    2.249496   -0.072350
 ---------------------------------------------------------------------
 Rotational constants (GHZ):           6.5587875           4.3598416           3.4131391
 Leave Link  202 at Sat Mar  9 01:44:54 2019, MaxMem=   671088640 cpu:               0.2 elap:               0.0
 (Enter /shared/centos7/gaussian/g16/l301.exe)
 Standard basis: 6-311+G(2df,2p) (5D, 7F)
 Ernie: Thresh=  0.10000D-02 Tol=  0.10000D-05 Strict=F.
 There are   276 symmetry adapted cartesian basis functions of A   symmetry.
 There are   251 symmetry adapted basis functions of A   symmetry.
   251 basis functions,   359 primitive gaussians,   276 cartesian basis functions
    21 alpha electrons       20 beta electrons
       nuclear repulsion energy       187.2708618056 Hartrees.
 IExCor= 4336 DFT=T Ex+Corr=M062X ExCW=0 ScaHFX=  0.540000
 ScaDFX=  1.000000  1.000000  1.000000  1.000000 ScalE2=  1.000000  1.000000
 IRadAn=      5 IRanWt=     -1 IRanGd=            0 ICorTp=0 IEmpDi=  4
 NAtoms=   14 NActive=   14 NUniq=   14 SFac= 1.00D+00 NAtFMM=   60 NAOKFM=F Big=F
 Integral buffers will be    131072 words long.
 Raffenetti 2 integral format.
 Two-electron integral symmetry is turned on.
 Leave Link  301 at Sat Mar  9 01:44:54 2019, MaxMem=   671088640 cpu:               1.0 elap:               0.1
 (Enter /shared/centos7/gaussian/g16/l302.exe)
 NPDir=0 NMtPBC=     1 NCelOv=     1 NCel=       1 NClECP=     1 NCelD=      1
         NCelK=      1 NCelE2=     1 NClLst=     1 CellRange=     0.0.
 One-electron integrals computed using PRISM.
 One-electron integral symmetry used in STVInt
 NBasis=   251 RedAO= T EigKep=  3.57D-05  NBF=   251
 NBsUse=   251 1.00D-06 EigRej= -1.00D+00 NBFU=   251
 Precomputing XC quadrature grid using
 IXCGrd= 4 IRadAn=           5 IRanWt=          -1 IRanGd=           0 AccXCQ= 0.00D+00.
 Generated NRdTot=       0 NPtTot=           0 NUsed=           0 NTot=          32
 NSgBfM=   276   276   276   276   276 MxSgAt=    14 MxSgA2=    14.
 Leave Link  302 at Sat Mar  9 01:44:54 2019, MaxMem=   671088640 cpu:               6.5 elap:               0.4
 (Enter /shared/centos7/gaussian/g16/l303.exe)
 DipDrv:  MaxL=1.
 Leave Link  303 at Sat Mar  9 01:44:54 2019, MaxMem=   671088640 cpu:               0.5 elap:               0.0
 (Enter /shared/centos7/gaussian/g16/l401.exe)
 ExpMin= 4.38D-02 ExpMax= 8.59D+03 ExpMxC= 1.30D+03 IAcc=3 IRadAn=         5 AccDes= 0.00D+00
 Harris functional with IExCor= 1009 and IRadAn=       5 diagonalized for initial guess.
 HarFok:  IExCor= 1009 AccDes= 0.00D+00 IRadAn=         5 IDoV= 1 UseB2=F ITyADJ=14
 ICtDFT=  3500011 ScaDFX=  1.000000  1.000000  1.000000  1.000000
 FoFCou: FMM=F IPFlag=           0 FMFlag=      100000 FMFlg1=           0
         NFxFlg=           0 DoJE=T BraDBF=F KetDBF=T FulRan=T
         wScrn=  0.000000 ICntrl=       500 IOpCl=  0 I1Cent=   200000004 NGrid=           0
         NMat0=    1 NMatS0=      1 NMatT0=    0 NMatD0=    1 NMtDS0=    0 NMtDT0=    0
 Petite list used in FoFCou.
 Harris En= -232.836883317430    
 JPrj=0 DoOrth=F DoCkMO=F.
 Initial guess <Sx>= 0.0000 <Sy>= 0.0000 <Sz>= 0.5000 <S**2>= 0.7500 S= 0.5000
 Leave Link  401 at Sat Mar  9 01:44:55 2019, MaxMem=   671088640 cpu:              21.8 elap:               1.1
 (Enter /shared/centos7/gaussian/g16/l502.exe)
 Integral symmetry usage will be decided dynamically.
 UHF open shell SCF:
 Using DIIS extrapolation, IDIIS=  1040.
 NGot=   671088640 LenX=   670928170 LenY=   670851553
 Requested convergence on RMS density matrix=1.00D-08 within 128 cycles.
 Requested convergence on MAX density matrix=1.00D-06.
 Requested convergence on             energy=1.00D-06.
 No special actions if energy rises.
 Fock matrices will be formed incrementally for  20 cycles.

 Cycle   1  Pass 1  IDiag  1:
 FoFJK:  IHMeth= 1 ICntrl=       0 DoSepK=F KAlg= 0 I1Cent=           0 FoldK=F
 IRaf= 990000000 NMat=       1 IRICut=       1 DoRegI=T DoRafI=F ISym2E= 0 IDoP0=0 IntGTp=1.
 FoFCou: FMM=F IPFlag=           0 FMFlag=      100000 FMFlg1=           0
         NFxFlg=           0 DoJE=F BraDBF=F KetDBF=F FulRan=T
         wScrn=  0.000000 ICntrl=         0 IOpCl=  1 I1Cent=           0 NGrid=           0
         NMat0=    1 NMatS0=      1 NMatT0=    0 NMatD0=    1 NMtDS0=    0 NMtDT0=    0
 Symmetry not used in FoFCou.
 E= -232.784686829675    
 DIIS: error= 1.96D-02 at cycle   1 NSaved=   1.
 NSaved= 1 IEnMin= 1 EnMin= -232.784686829675     IErMin= 1 ErrMin= 1.96D-02
 ErrMax= 1.96D-02  0.00D+00 EMaxC= 1.00D-01 BMatC= 7.22D-01 BMatP= 7.22D-01
 IDIUse=3 WtCom= 8.04D-01 WtEn= 1.96D-01
 Coeff-Com:  0.100D+01
 Coeff-En:   0.100D+01
 Coeff:      0.100D+01
 Gap=     0.301 Goal=   None    Shift=    0.000
 Gap=     0.306 Goal=   None    Shift=    0.000
 GapD=    0.301 DampG=1.000 DampE=0.500 DampFc=0.5000 IDamp=-1.
 Damping current iteration by 5.00D-01
 RMSDP=2.72D-03 MaxDP=1.64D-01              OVMax= 1.32D-01

 Cycle   2  Pass 1  IDiag  1:
 RMSU=  1.30D-03    CP:  9.59D-01
 E= -232.863517268998     Delta-E=       -0.078830439323 Rises=F Damp=T
 DIIS: error= 4.50D-03 at cycle   2 NSaved=   2.
 NSaved= 2 IEnMin= 2 EnMin= -232.863517268998     IErMin= 2 ErrMin= 4.50D-03
 ErrMax= 4.50D-03  0.00D+00 EMaxC= 1.00D-01 BMatC= 5.60D-02 BMatP= 7.22D-01
 IDIUse=3 WtCom= 9.55D-01 WtEn= 4.50D-02
 Coeff-Com: -0.143D+00 0.114D+01
 Coeff-En:   0.000D+00 0.100D+01
 Coeff:     -0.137D+00 0.114D+01
 Gap=     0.293 Goal=   None    Shift=    0.000
 Gap=     0.314 Goal=   None    Shift=    0.000
 RMSDP=1.48D-03 MaxDP=1.20D-01 DE=-7.88D-02 OVMax= 6.74D-02

 Cycle   3  Pass 1  IDiag  1:
 RMSU=  1.46D-03    CP:  9.49D-01  1.14D+00
 E= -232.935877478107     Delta-E=       -0.072360209109 Rises=F Damp=F
 DIIS: error= 2.97D-03 at cycle   3 NSaved=   3.
 NSaved= 3 IEnMin= 3 EnMin= -232.935877478107     IErMin= 3 ErrMin= 2.97D-03
 ErrMax= 2.97D-03  0.00D+00 EMaxC= 1.00D-01 BMatC= 9.49D-03 BMatP= 5.60D-02
 IDIUse=3 WtCom= 9.70D-01 WtEn= 2.97D-02
 Coeff-Com: -0.894D-01 0.306D+00 0.783D+00
 Coeff-En:   0.000D+00 0.000D+00 0.100D+01
 Coeff:     -0.867D-01 0.297D+00 0.790D+00
 Gap=     0.292 Goal=   None    Shift=    0.000
 Gap=     0.285 Goal=   None    Shift=    0.000
 RMSDP=2.05D-04 MaxDP=8.88D-03 DE=-7.24D-02 OVMax= 1.36D-02

 Cycle   4  Pass 1  IDiag  1:
 RMSU=  1.77D-04    CP:  9.45D-01  1.20D+00  1.04D+00
 E= -232.937517747458     Delta-E=       -0.001640269351 Rises=F Damp=F
 DIIS: error= 1.48D-03 at cycle   4 NSaved=   4.
 NSaved= 4 IEnMin= 4 EnMin= -232.937517747458     IErMin= 4 ErrMin= 1.48D-03
 ErrMax= 1.48D-03  0.00D+00 EMaxC= 1.00D-01 BMatC= 2.60D-03 BMatP= 9.49D-03
 IDIUse=3 WtCom= 9.85D-01 WtEn= 1.48D-02
 Coeff-Com: -0.316D-01 0.742D-01 0.384D+00 0.573D+00
 Coeff-En:   0.000D+00 0.000D+00 0.428D-01 0.957D+00
 Coeff:     -0.311D-01 0.731D-01 0.379D+00 0.579D+00
 Gap=     0.291 Goal=   None    Shift=    0.000
 Gap=     0.293 Goal=   None    Shift=    0.000
 RMSDP=9.70D-05 MaxDP=9.59D-03 DE=-1.64D-03 OVMax= 5.78D-03

 Cycle   5  Pass 1  IDiag  1:
 RMSU=  6.76D-05    CP:  9.45D-01  1.19D+00  1.08D+00  8.46D-01
 E= -232.938002419330     Delta-E=       -0.000484671872 Rises=F Damp=F
 DIIS: error= 3.33D-04 at cycle   5 NSaved=   5.
 NSaved= 5 IEnMin= 5 EnMin= -232.938002419330     IErMin= 5 ErrMin= 3.33D-04
 ErrMax= 3.33D-04  0.00D+00 EMaxC= 1.00D-01 BMatC= 2.03D-04 BMatP= 2.60D-03
 IDIUse=3 WtCom= 9.97D-01 WtEn= 3.33D-03
 Coeff-Com: -0.200D-02-0.638D-02 0.598D-01 0.227D+00 0.721D+00
 Coeff-En:   0.000D+00 0.000D+00 0.000D+00 0.000D+00 0.100D+01
 Coeff:     -0.200D-02-0.636D-02 0.596D-01 0.227D+00 0.722D+00
 Gap=     0.292 Goal=   None    Shift=    0.000
 Gap=     0.293 Goal=   None    Shift=    0.000
 RMSDP=6.95D-05 MaxDP=1.09D-02 DE=-4.85D-04 OVMax= 2.57D-03

 Cycle   6  Pass 1  IDiag  1:
 RMSU=  4.48D-05    CP:  9.46D-01  1.19D+00  1.11D+00  9.89D-01  1.24D+00
 E= -232.938059059235     Delta-E=       -0.000056639905 Rises=F Damp=F
 DIIS: error= 1.27D-04 at cycle   6 NSaved=   6.
 NSaved= 6 IEnMin= 6 EnMin= -232.938059059235     IErMin= 6 ErrMin= 1.27D-04
 ErrMax= 1.27D-04  0.00D+00 EMaxC= 1.00D-01 BMatC= 2.19D-05 BMatP= 2.03D-04
 IDIUse=3 WtCom= 9.99D-01 WtEn= 1.27D-03
 Coeff-Com:  0.595D-02-0.152D-01-0.658D-01-0.818D-01 0.848D-01 0.107D+01
 Coeff-En:   0.000D+00 0.000D+00 0.000D+00 0.000D+00 0.000D+00 0.100D+01
 Coeff:      0.595D-02-0.152D-01-0.657D-01-0.817D-01 0.846D-01 0.107D+01
 Gap=     0.292 Goal=   None    Shift=    0.000
 Gap=     0.293 Goal=   None    Shift=    0.000
 RMSDP=2.28D-05 MaxDP=2.32D-03 DE=-5.66D-05 OVMax= 1.91D-03

 Cycle   7  Pass 1  IDiag  1:
 RMSU=  1.31D-05    CP:  9.46D-01  1.19D+00  1.12D+00  1.04D+00  1.40D+00
                    CP:  1.14D+00
 E= -232.938072347151     Delta-E=       -0.000013287916 Rises=F Damp=F
 DIIS: error= 6.49D-05 at cycle   7 NSaved=   7.
 NSaved= 7 IEnMin= 7 EnMin= -232.938072347151     IErMin= 7 ErrMin= 6.49D-05
 ErrMax= 6.49D-05  0.00D+00 EMaxC= 1.00D-01 BMatC= 4.96D-06 BMatP= 2.19D-05
 IDIUse=1 WtCom= 1.00D+00 WtEn= 0.00D+00
 Coeff-Com:  0.211D-02-0.381D-02-0.321D-01-0.666D-01-0.887D-01 0.419D+00
 Coeff-Com:  0.770D+00
 Coeff:      0.211D-02-0.381D-02-0.321D-01-0.666D-01-0.887D-01 0.419D+00
 Coeff:      0.770D+00
 Gap=     0.293 Goal=   None    Shift=    0.000
 Gap=     0.293 Goal=   None    Shift=    0.000
 RMSDP=6.30D-06 MaxDP=4.33D-04 DE=-1.33D-05 OVMax= 7.21D-04

 Cycle   8  Pass 1  IDiag  1:
 RMSU=  4.59D-06    CP:  9.46D-01  1.19D+00  1.12D+00  1.04D+00  1.42D+00
                    CP:  1.18D+00  1.26D+00
 E= -232.938074210607     Delta-E=       -0.000001863456 Rises=F Damp=F
 DIIS: error= 1.31D-05 at cycle   8 NSaved=   8.
 NSaved= 8 IEnMin= 8 EnMin= -232.938074210607     IErMin= 8 ErrMin= 1.31D-05
 ErrMax= 1.31D-05  0.00D+00 EMaxC= 1.00D-01 BMatC= 2.87D-07 BMatP= 4.96D-06
 IDIUse=1 WtCom= 1.00D+00 WtEn= 0.00D+00
 Coeff-Com: -0.429D-03 0.120D-02 0.209D-02-0.314D-02-0.251D-01-0.420D-01
 Coeff-Com:  0.122D+00 0.945D+00
 Coeff:     -0.429D-03 0.120D-02 0.209D-02-0.314D-02-0.251D-01-0.420D-01
 Coeff:      0.122D+00 0.945D+00
 Gap=     0.293 Goal=   None    Shift=    0.000
 Gap=     0.293 Goal=   None    Shift=    0.000
 RMSDP=4.66D-06 MaxDP=5.86D-04 DE=-1.86D-06 OVMax= 1.69D-04

 Cycle   9  Pass 1  IDiag  1:
 RMSU=  2.11D-06    CP:  9.46D-01  1.19D+00  1.12D+00  1.03D+00  1.41D+00
                    CP:  1.18D+00  1.42D+00  1.17D+00
 E= -232.938074341915     Delta-E=       -0.000000131308 Rises=F Damp=F
 DIIS: error= 4.97D-06 at cycle   9 NSaved=   9.
 NSaved= 9 IEnMin= 9 EnMin= -232.938074341915     IErMin= 9 ErrMin= 4.97D-06
 ErrMax= 4.97D-06  0.00D+00 EMaxC= 1.00D-01 BMatC= 3.16D-08 BMatP= 2.87D-07
 IDIUse=1 WtCom= 1.00D+00 WtEn= 0.00D+00
 Coeff-Com: -0.330D-03 0.702D-03 0.411D-02 0.659D-02 0.596D-02-0.558D-01
 Coeff-Com: -0.659D-01 0.204D+00 0.901D+00
 Coeff:     -0.330D-03 0.702D-03 0.411D-02 0.659D-02 0.596D-02-0.558D-01
 Coeff:     -0.659D-01 0.204D+00 0.901D+00
 Gap=     0.293 Goal=   None    Shift=    0.000
 Gap=     0.293 Goal=   None    Shift=    0.000
 RMSDP=2.54D-06 MaxDP=4.13D-04 DE=-1.31D-07 OVMax= 5.53D-05

 Cycle  10  Pass 1  IDiag  1:
 RMSU=  6.23D-07    CP:  9.46D-01  1.19D+00  1.11D+00  1.03D+00  1.40D+00
                    CP:  1.17D+00  1.48D+00  1.29D+00  1.06D+00
 E= -232.938074356343     Delta-E=       -0.000000014428 Rises=F Damp=F
 DIIS: error= 1.48D-06 at cycle  10 NSaved=  10.
 NSaved=10 IEnMin=10 EnMin= -232.938074356343     IErMin=10 ErrMin= 1.48D-06
 ErrMax= 1.48D-06  0.00D+00 EMaxC= 1.00D-01 BMatC= 3.72D-09 BMatP= 3.16D-08
 IDIUse=1 WtCom= 1.00D+00 WtEn= 0.00D+00
 Coeff-Com: -0.485D-04 0.884D-04 0.973D-03 0.195D-02 0.320D-02-0.119D-01
 Coeff-Com: -0.255D-01-0.150D-01 0.250D+00 0.796D+00
 Coeff:     -0.485D-04 0.884D-04 0.973D-03 0.195D-02 0.320D-02-0.119D-01
 Coeff:     -0.255D-01-0.150D-01 0.250D+00 0.796D+00
 Gap=     0.293 Goal=   None    Shift=    0.000
 Gap=     0.293 Goal=   None    Shift=    0.000
 RMSDP=4.33D-07 MaxDP=6.34D-05 DE=-1.44D-08 OVMax= 1.72D-05

 Cycle  11  Pass 1  IDiag  1:
 RMSU=  1.71D-07    CP:  9.46D-01  1.19D+00  1.11D+00  1.03D+00  1.40D+00
                    CP:  1.16D+00  1.49D+00  1.31D+00  1.10D+00  1.14D+00
 E= -232.938074357783     Delta-E=       -0.000000001440 Rises=F Damp=F
 DIIS: error= 6.22D-07 at cycle  11 NSaved=  11.
 NSaved=11 IEnMin=11 EnMin= -232.938074357783     IErMin=11 ErrMin= 6.22D-07
 ErrMax= 6.22D-07  0.00D+00 EMaxC= 1.00D-01 BMatC= 4.89D-10 BMatP= 3.72D-09
 IDIUse=1 WtCom= 1.00D+00 WtEn= 0.00D+00
 Coeff-Com:  0.424D-04-0.917D-04-0.404D-03-0.546D-03-0.414D-03 0.598D-02
 Coeff-Com:  0.457D-02-0.371D-01-0.845D-01 0.192D+00 0.921D+00
 Coeff:      0.424D-04-0.917D-04-0.404D-03-0.546D-03-0.414D-03 0.598D-02
 Coeff:      0.457D-02-0.371D-01-0.845D-01 0.192D+00 0.921D+00
 Gap=     0.293 Goal=   None    Shift=    0.000
 Gap=     0.293 Goal=   None    Shift=    0.000
 RMSDP=1.22D-07 MaxDP=1.02D-05 DE=-1.44D-09 OVMax= 1.04D-05

 Cycle  12  Pass 1  IDiag  1:
 RMSU=  6.60D-08    CP:  9.46D-01  1.19D+00  1.11D+00  1.03D+00  1.40D+00
                    CP:  1.16D+00  1.49D+00  1.31D+00  1.13D+00  1.25D+00
                    CP:  1.13D+00
 E= -232.938074358047     Delta-E=       -0.000000000265 Rises=F Damp=F
 DIIS: error= 1.73D-07 at cycle  12 NSaved=  12.
 NSaved=12 IEnMin=12 EnMin= -232.938074358047     IErMin=12 ErrMin= 1.73D-07
 ErrMax= 1.73D-07  0.00D+00 EMaxC= 1.00D-01 BMatC= 2.47D-11 BMatP= 4.89D-10
 IDIUse=1 WtCom= 1.00D+00 WtEn= 0.00D+00
 Coeff-Com:  0.200D-05-0.449D-05-0.645D-04-0.120D-03-0.231D-03 0.869D-03
 Coeff-Com:  0.184D-02 0.133D-02-0.196D-01-0.644D-01-0.128D-01 0.109D+01
 Coeff:      0.200D-05-0.449D-05-0.645D-04-0.120D-03-0.231D-03 0.869D-03
 Coeff:      0.184D-02 0.133D-02-0.196D-01-0.644D-01-0.128D-01 0.109D+01
 Gap=     0.293 Goal=   None    Shift=    0.000
 Gap=     0.293 Goal=   None    Shift=    0.000
 RMSDP=4.94D-08 MaxDP=4.61D-06 DE=-2.65D-10 OVMax= 4.33D-06

 Cycle  13  Pass 1  IDiag  1:
 RMSU=  2.04D-08    CP:  9.46D-01  1.19D+00  1.11D+00  1.03D+00  1.40D+00
                    CP:  1.16D+00  1.49D+00  1.31D+00  1.13D+00  1.25D+00
                    CP:  1.24D+00  1.36D+00
 E= -232.938074358069     Delta-E=       -0.000000000022 Rises=F Damp=F
 DIIS: error= 5.42D-08 at cycle  13 NSaved=  13.
 NSaved=13 IEnMin=13 EnMin= -232.938074358069     IErMin=13 ErrMin= 5.42D-08
 ErrMax= 5.42D-08  0.00D+00 EMaxC= 1.00D-01 BMatC= 2.43D-12 BMatP= 2.47D-11
 IDIUse=1 WtCom= 1.00D+00 WtEn= 0.00D+00
 Coeff-Com: -0.345D-05 0.723D-05 0.288D-04 0.354D-04 0.280D-04-0.456D-03
 Coeff-Com: -0.192D-03 0.307D-02 0.572D-02-0.193D-01-0.820D-01 0.442D-01
 Coeff-Com:  0.105D+01
 Coeff:     -0.345D-05 0.723D-05 0.288D-04 0.354D-04 0.280D-04-0.456D-03
 Coeff:     -0.192D-03 0.307D-02 0.572D-02-0.193D-01-0.820D-01 0.442D-01
 Coeff:      0.105D+01
 Gap=     0.293 Goal=   None    Shift=    0.000
 Gap=     0.293 Goal=   None    Shift=    0.000
 RMSDP=2.79D-08 MaxDP=3.86D-06 DE=-2.21D-11 OVMax= 1.26D-06

 Cycle  14  Pass 1  IDiag  1:
 RMSU=  5.03D-09    CP:  9.46D-01  1.19D+00  1.11D+00  1.03D+00  1.40D+00
                    CP:  1.16D+00  1.49D+00  1.31D+00  1.13D+00  1.25D+00
                    CP:  1.26D+00  1.50D+00  1.37D+00
 E= -232.938074358075     Delta-E=       -0.000000000005 Rises=F Damp=F
 DIIS: error= 1.40D-08 at cycle  14 NSaved=  14.
 NSaved=14 IEnMin=14 EnMin= -232.938074358075     IErMin=14 ErrMin= 1.40D-08
 ErrMax= 1.40D-08  0.00D+00 EMaxC= 1.00D-01 BMatC= 2.91D-13 BMatP= 2.43D-12
 IDIUse=1 WtCom= 1.00D+00 WtEn= 0.00D+00
 Coeff-Com: -0.450D-06 0.105D-05 0.790D-05 0.117D-04 0.160D-04-0.115D-03
 Coeff-Com: -0.141D-03 0.178D-03 0.221D-02 0.396D-02-0.928D-02-0.836D-01
 Coeff-Com:  0.974D-01 0.989D+00
 Coeff:     -0.450D-06 0.105D-05 0.790D-05 0.117D-04 0.160D-04-0.115D-03
 Coeff:     -0.141D-03 0.178D-03 0.221D-02 0.396D-02-0.928D-02-0.836D-01
 Coeff:      0.974D-01 0.989D+00
 Gap=     0.293 Goal=   None    Shift=    0.000
 Gap=     0.293 Goal=   None    Shift=    0.000
 RMSDP=8.89D-09 MaxDP=1.34D-06 DE=-5.17D-12 OVMax= 3.14D-07

 Cycle  15  Pass 1  IDiag  1:
 RMSU=  1.75D-09    CP:  9.46D-01  1.19D+00  1.11D+00  1.03D+00  1.40D+00
                    CP:  1.16D+00  1.49D+00  1.31D+00  1.13D+00  1.24D+00
                    CP:  1.26D+00  1.53D+00  1.49D+00  1.26D+00
 E= -232.938074358071     Delta-E=        0.000000000004 Rises=F Damp=F
 DIIS: error= 5.82D-09 at cycle  15 NSaved=  15.
 NSaved=15 IEnMin=14 EnMin= -232.938074358075     IErMin=15 ErrMin= 5.82D-09
 ErrMax= 5.82D-09  0.00D+00 EMaxC= 1.00D-01 BMatC= 6.87D-14 BMatP= 2.91D-13
 IDIUse=1 WtCom= 1.00D+00 WtEn= 0.00D+00
 Coeff-Com:  0.387D-06-0.759D-06-0.161D-05-0.151D-05 0.355D-06 0.309D-04
 Coeff-Com: -0.135D-04-0.406D-03-0.916D-04 0.415D-02 0.825D-02-0.323D-01
 Coeff-Com: -0.122D+00 0.329D+00 0.814D+00
 Coeff:      0.387D-06-0.759D-06-0.161D-05-0.151D-05 0.355D-06 0.309D-04
 Coeff:     -0.135D-04-0.406D-03-0.916D-04 0.415D-02 0.825D-02-0.323D-01
 Coeff:     -0.122D+00 0.329D+00 0.814D+00
 Gap=     0.293 Goal=   None    Shift=    0.000
 Gap=     0.293 Goal=   None    Shift=    0.000
 RMSDP=2.24D-09 MaxDP=3.34D-07 DE= 3.69D-12 OVMax= 1.23D-07

 SCF Done:  E(UM062X) =  -232.938074358     A.U. after   15 cycles
            NFock= 15  Conv=0.22D-08     -V/T= 2.0060
 <Sx>= 0.0000 <Sy>= 0.0000 <Sz>= 0.5000 <S**2>= 0.7551 S= 0.5026
 <L.S>= 0.000000000000E+00
 KE= 2.315537894740D+02 PE=-9.170945088948D+02 EE= 2.653317832571D+02
 Annihilation of the first spin contaminant:
 S**2 before annihilation     0.7551,   after     0.7500
 Leave Link  502 at Sat Mar  9 01:45:42 2019, MaxMem=   671088640 cpu:             938.9 elap:              47.0
 (Enter /shared/centos7/gaussian/g16/l801.exe)
 DoSCS=F DFT=T ScalE2(SS,OS)=  1.000000  1.000000
 Range of M.O.s used for correlation:     1   251
 NBasis=   251 NAE=    21 NBE=    20 NFC=     0 NFV=     0
 NROrb=    251 NOA=    21 NOB=    20 NVA=   230 NVB=   231

 **** Warning!!: The largest alpha MO coefficient is  0.46829841D+02


 **** Warning!!: The largest beta MO coefficient is  0.43395467D+02

 Leave Link  801 at Sat Mar  9 01:45:42 2019, MaxMem=   671088640 cpu:               0.4 elap:               0.0
 (Enter /shared/centos7/gaussian/g16/l1101.exe)
 Using compressed storage, NAtomX=    14.
 Will process     15 centers per pass.
 Leave Link 1101 at Sat Mar  9 01:45:43 2019, MaxMem=   671088640 cpu:               6.0 elap:               0.3
 (Enter /shared/centos7/gaussian/g16/l1102.exe)
 Symmetrizing basis deriv contribution to polar:
 IMax=3 JMax=2 DiffMx= 0.00D+00
 Leave Link 1102 at Sat Mar  9 01:45:43 2019, MaxMem=   671088640 cpu:               0.5 elap:               0.0
 (Enter /shared/centos7/gaussian/g16/l1110.exe)
 Forming Gx(P) for the SCF density, NAtomX=    14.
 Integral derivatives from FoFJK, PRISM(SPDF).
 Do as many integral derivatives as possible in FoFJK.
 G2DrvN: MDV=     671087496.
 G2DrvN: will do    15 centers at a time, making    1 passes.
 Calling FoFCou, ICntrl=  3107 FMM=F I1Cent=   0 AccDes= 0.00D+00.
 FoFJK:  IHMeth= 1 ICntrl=    3107 DoSepK=F KAlg= 0 I1Cent=           0 FoldK=F
 IRaf=         0 NMat=       1 IRICut=       1 DoRegI=T DoRafI=F ISym2E= 0 IDoP0=0 IntGTp=1.
 FoFCou: FMM=F IPFlag=           0 FMFlag=      100000 FMFlg1=           0
         NFxFlg=           0 DoJE=F BraDBF=F KetDBF=F FulRan=T
         wScrn=  0.000000 ICntrl=      3107 IOpCl=  1 I1Cent=           0 NGrid=           0
         NMat0=    1 NMatS0=      1 NMatT0=    0 NMatD0=    1 NMtDS0=    0 NMtDT0=    0
 Symmetry not used in FoFCou.
 End of G2Drv F.D. properties file   721 does not exist.
 End of G2Drv F.D. properties file   722 does not exist.
 End of G2Drv F.D. properties file   788 does not exist.
 Leave Link 1110 at Sat Mar  9 01:47:09 2019, MaxMem=   671088640 cpu:            1725.5 elap:              86.3
 (Enter /shared/centos7/gaussian/g16/l1002.exe)
 Minotr:  UHF open shell wavefunction.
          IDoAtm=11111111111111
          Direct CPHF calculation.
          Differentiating once with respect to nuclear coordinates.
          Requested convergence is 1.0D-08 RMS, and 1.0D-07 maximum.
          Secondary convergence is 1.0D-12 RMS, and 1.0D-12 maximum.
          NewPWx=T KeepS1=F KeepF1=F KeepIn=T MapXYZ=F SortEE=F KeepMc=T.
         4243 words used for storage of precomputed grid.
 Two-electron integrals replicated using symmetry.
          MDV=     671088640 using IRadAn=       1.
          Solving linear equations simultaneously, MaxMat=     380.
 FoF2E skips out because all densities are zero.
 CalDSu exits because no D1Ps are significant.
 FoFJK:  IHMeth= 1 ICntrl=       0 DoSepK=F KAlg= 0 I1Cent=           0 FoldK=F
 IRaf= 990000000 NMat=      42 IRICut=     105 DoRegI=T DoRafI=T ISym2E= 2 IDoP0=3 IntGTp=3.
 FoFCou: FMM=F IPFlag=           0 FMFlag=      100000 FMFlg1=           0
         NFxFlg=           0 DoJE=F BraDBF=F KetDBF=F FulRan=T
         wScrn=  0.000000 ICntrl=         0 IOpCl=  1 I1Cent=           0 NGrid=           0
         NMat0=   42 NMatS0=     42 NMatT0=    0 NMatD0=   42 NMtDS0=    0 NMtDT0=    0
 Integrals replicated using symmetry in FoFCou.
 Raff kept on since  97.32% of shell-pairs survive, threshold=   0.20 IRatSp=97.
          There are    45 degrees of freedom in the 1st order CPHF.  IDoFFX=6 NUNeed=     0.
     39 vectors produced by pass  0 Test12= 2.10D-14 2.22D-09 XBig12= 1.60D-01 8.89D-02.
 AX will form    39 AO Fock derivatives at one time.
     39 vectors produced by pass  1 Test12= 2.10D-14 2.22D-09 XBig12= 6.68D-03 1.18D-02.
     39 vectors produced by pass  2 Test12= 2.10D-14 2.22D-09 XBig12= 2.27D-04 2.57D-03.
     39 vectors produced by pass  3 Test12= 2.10D-14 2.22D-09 XBig12= 2.73D-06 2.46D-04.
     39 vectors produced by pass  4 Test12= 2.10D-14 2.22D-09 XBig12= 3.98D-08 2.12D-05.
     39 vectors produced by pass  5 Test12= 2.10D-14 2.22D-09 XBig12= 5.01D-10 2.41D-06.
     39 vectors produced by pass  6 Test12= 2.10D-14 2.22D-09 XBig12= 5.54D-12 2.73D-07.
     15 vectors produced by pass  7 Test12= 2.10D-14 2.22D-09 XBig12= 3.74D-14 1.67D-08.
 InvSVY:  IOpt=1 It=  1 EMax= 1.33D-15
 Solved reduced A of dimension   288 with    39 vectors.
 End of Minotr F.D. properties file   721 does not exist.
 End of Minotr F.D. properties file   722 does not exist.
 End of Minotr F.D. properties file   788 does not exist.
 Leave Link 1002 at Sat Mar  9 01:49:28 2019, MaxMem=   671088640 cpu:            2786.2 elap:             139.3
 (Enter /shared/centos7/gaussian/g16/l601.exe)
 Copying SCF densities to generalized density rwf, IOpCl= 1 IROHF=0.

 **********************************************************************

            Population analysis using the SCF density.

 **********************************************************************

 Orbital symmetries:
 Alpha Orbitals:
       Occupied  (A) (A) (A) (A) (A) (A) (A) (A) (A) (A) (A) (A)
                 (A) (A) (A) (A) (A) (A) (A) (A) (A)
       Virtual   (A) (A) (A) (A) (A) (A) (A) (A) (A) (A) (A) (A)
                 (A) (A) (A) (A) (A) (A) (A) (A) (A) (A) (A) (A)
                 (A) (A) (A) (A) (A) (A) (A) (A) (A) (A) (A) (A)
                 (A) (A) (A) (A) (A) (A) (A) (A) (A) (A) (A) (A)
                 (A) (A) (A) (A) (A) (A) (A) (A) (A) (A) (A) (A)
                 (A) (A) (A) (A) (A) (A) (A) (A) (A) (A) (A) (A)
                 (A) (A) (A) (A) (A) (A) (A) (A) (A) (A) (A) (A)
                 (A) (A) (A) (A) (A) (A) (A) (A) (A) (A) (A) (A)
                 (A) (A) (A) (A) (A) (A) (A) (A) (A) (A) (A) (A)
                 (A) (A) (A) (A) (A) (A) (A) (A) (A) (A) (A) (A)
                 (A) (A) (A) (A) (A) (A) (A) (A) (A) (A) (A) (A)
                 (A) (A) (A) (A) (A) (A) (A) (A) (A) (A) (A) (A)
                 (A) (A) (A) (A) (A) (A) (A) (A) (A) (A) (A) (A)
                 (A) (A) (A) (A) (A) (A) (A) (A) (A) (A) (A) (A)
                 (A) (A) (A) (A) (A) (A) (A) (A) (A) (A) (A) (A)
                 (A) (A) (A) (A) (A) (A) (A) (A) (A) (A) (A) (A)
                 (A) (A) (A) (A) (A) (A) (A) (A) (A) (A) (A) (A)
                 (A) (A) (A) (A) (A) (A) (A) (A) (A) (A) (A) (A)
                 (A) (A) (A) (A) (A) (A) (A) (A) (A) (A) (A) (A)
                 (A) (A)
 Beta  Orbitals:
       Occupied  (A) (A) (A) (A) (A) (A) (A) (A) (A) (A) (A) (A)
                 (A) (A) (A) (A) (A) (A) (A) (A)
       Virtual   (A) (A) (A) (A) (A) (A) (A) (A) (A) (A) (A) (A)
                 (A) (A) (A) (A) (A) (A) (A) (A) (A) (A) (A) (A)
                 (A) (A) (A) (A) (A) (A) (A) (A) (A) (A) (A) (A)
                 (A) (A) (A) (A) (A) (A) (A) (A) (A) (A) (A) (A)
                 (A) (A) (A) (A) (A) (A) (A) (A) (A) (A) (A) (A)
                 (A) (A) (A) (A) (A) (A) (A) (A) (A) (A) (A) (A)
                 (A) (A) (A) (A) (A) (A) (A) (A) (A) (A) (A) (A)
                 (A) (A) (A) (A) (A) (A) (A) (A) (A) (A) (A) (A)
                 (A) (A) (A) (A) (A) (A) (A) (A) (A) (A) (A) (A)
                 (A) (A) (A) (A) (A) (A) (A) (A) (A) (A) (A) (A)
                 (A) (A) (A) (A) (A) (A) (A) (A) (A) (A) (A) (A)
                 (A) (A) (A) (A) (A) (A) (A) (A) (A) (A) (A) (A)
                 (A) (A) (A) (A) (A) (A) (A) (A) (A) (A) (A) (A)
                 (A) (A) (A) (A) (A) (A) (A) (A) (A) (A) (A) (A)
                 (A) (A) (A) (A) (A) (A) (A) (A) (A) (A) (A) (A)
                 (A) (A) (A) (A) (A) (A) (A) (A) (A) (A) (A) (A)
                 (A) (A) (A) (A) (A) (A) (A) (A) (A) (A) (A) (A)
                 (A) (A) (A) (A) (A) (A) (A) (A) (A) (A) (A) (A)
                 (A) (A) (A) (A) (A) (A) (A) (A) (A) (A) (A) (A)
                 (A) (A) (A)
 The electronic state is 2-A.
 Alpha  occ. eigenvalues --  -19.62500 -10.59938 -10.58154 -10.55478 -10.53779
 Alpha  occ. eigenvalues --   -1.13307  -0.88236  -0.77971  -0.76559  -0.64245
 Alpha  occ. eigenvalues --   -0.56522  -0.53976  -0.53006  -0.47695  -0.47325
 Alpha  occ. eigenvalues --   -0.45257  -0.43735  -0.41792  -0.38658  -0.33505
 Alpha  occ. eigenvalues --   -0.27685
 Alpha virt. eigenvalues --    0.01578   0.02802   0.03440   0.04227   0.05941
 Alpha virt. eigenvalues --    0.06418   0.06713   0.07408   0.08991   0.09299
 Alpha virt. eigenvalues --    0.10645   0.11266   0.12718   0.13363   0.14708
 Alpha virt. eigenvalues --    0.15893   0.17243   0.19030   0.20125   0.21169
 Alpha virt. eigenvalues --    0.23105   0.23381   0.23760   0.24349   0.25870
 Alpha virt. eigenvalues --    0.26834   0.28440   0.29962   0.32172   0.32962
 Alpha virt. eigenvalues --    0.33726   0.35615   0.36355   0.41356   0.43307
 Alpha virt. eigenvalues --    0.44944   0.46417   0.48891   0.49838   0.51730
 Alpha virt. eigenvalues --    0.52856   0.53578   0.55569   0.55785   0.56491
 Alpha virt. eigenvalues --    0.57518   0.58665   0.59543   0.59844   0.61482
 Alpha virt. eigenvalues --    0.63046   0.63850   0.64900   0.65729   0.68951
 Alpha virt. eigenvalues --    0.70077   0.71732   0.75410   0.80317   0.83128
 Alpha virt. eigenvalues --    0.85759   0.87852   0.89387   0.91631   0.95639
 Alpha virt. eigenvalues --    0.96258   0.96852   0.99067   1.00844   1.02917
 Alpha virt. eigenvalues --    1.05810   1.05963   1.08751   1.09082   1.11669
 Alpha virt. eigenvalues --    1.15769   1.17550   1.19433   1.20637   1.22671
 Alpha virt. eigenvalues --    1.22795   1.24343   1.25141   1.27080   1.29049
 Alpha virt. eigenvalues --    1.32510   1.33095   1.33791   1.34278   1.35876
 Alpha virt. eigenvalues --    1.37408   1.39007   1.41103   1.44062   1.44418
 Alpha virt. eigenvalues --    1.45615   1.46977   1.49501   1.51443   1.52284
 Alpha virt. eigenvalues --    1.54090   1.55590   1.58711   1.59804   1.62740
 Alpha virt. eigenvalues --    1.65245   1.69514   1.75628   1.81973   2.00496
 Alpha virt. eigenvalues --    2.08294   2.10984   2.24415   2.30410   2.37434
 Alpha virt. eigenvalues --    2.44667   2.45839   2.50699   2.58268   2.61336
 Alpha virt. eigenvalues --    2.63660   2.66611   2.67972   2.75083   2.77619
 Alpha virt. eigenvalues --    2.84305   2.87244   2.89344   2.92496   2.96190
 Alpha virt. eigenvalues --    2.97609   2.98770   3.00238   3.03000   3.05490
 Alpha virt. eigenvalues --    3.06606   3.08248   3.11183   3.12425   3.16044
 Alpha virt. eigenvalues --    3.17735   3.19008   3.19316   3.23961   3.26970
 Alpha virt. eigenvalues --    3.28703   3.30500   3.32319   3.33454   3.36249
 Alpha virt. eigenvalues --    3.39089   3.40603   3.44381   3.45245   3.47709
 Alpha virt. eigenvalues --    3.50069   3.53125   3.57097   3.58144   3.62439
 Alpha virt. eigenvalues --    3.65191   3.66541   3.67836   3.72550   3.73971
 Alpha virt. eigenvalues --    3.76638   3.77432   3.78832   3.82452   3.83471
 Alpha virt. eigenvalues --    3.87038   3.90365   3.95076   3.95530   3.98227
 Alpha virt. eigenvalues --    4.02201   4.03532   4.08821   4.10150   4.14506
 Alpha virt. eigenvalues --    4.16157   4.16641   4.18650   4.20145   4.24943
 Alpha virt. eigenvalues --    4.27192   4.27637   4.29610   4.31079   4.34686
 Alpha virt. eigenvalues --    4.35807   4.39161   4.43129   4.44929   4.48784
 Alpha virt. eigenvalues --    4.50893   4.55822   4.56899   4.60358   4.78409
 Alpha virt. eigenvalues --    4.88644   4.92633   5.16275   5.24006   5.29290
 Alpha virt. eigenvalues --    5.30602   5.33855   5.37382   5.43406   5.45388
 Alpha virt. eigenvalues --    5.47736   5.49862   5.50136   5.52694   5.64777
 Alpha virt. eigenvalues --    5.72761   5.77903   6.07298   6.35646   6.49019
 Alpha virt. eigenvalues --    7.19787   7.22382   7.28072   7.59971   7.74536
 Alpha virt. eigenvalues --   24.12958  24.23397  24.26471  24.44029  50.15563
  Beta  occ. eigenvalues --  -19.62491 -10.59998 -10.58141 -10.54755 -10.53745
  Beta  occ. eigenvalues --   -1.13235  -0.87157  -0.77070  -0.75037  -0.62992
  Beta  occ. eigenvalues --   -0.55861  -0.53303  -0.52631  -0.47547  -0.46516
  Beta  occ. eigenvalues --   -0.44880  -0.43168  -0.41279  -0.38060  -0.33360
  Beta virt. eigenvalues --   -0.04031   0.01481   0.02728   0.03297   0.03896
  Beta virt. eigenvalues --    0.05947   0.06342   0.06656   0.07199   0.09006
  Beta virt. eigenvalues --    0.09342   0.10739   0.11371   0.11971   0.12509
  Beta virt. eigenvalues --    0.13877   0.15605   0.17817   0.19598   0.19965
  Beta virt. eigenvalues --    0.21444   0.22643   0.23203   0.23502   0.24624
  Beta virt. eigenvalues --    0.25911   0.27091   0.28455   0.30487   0.32258
  Beta virt. eigenvalues --    0.32817   0.33757   0.35718   0.36372   0.41516
  Beta virt. eigenvalues --    0.43334   0.45064   0.46974   0.49056   0.50177
  Beta virt. eigenvalues --    0.52134   0.53551   0.54238   0.55800   0.56309
  Beta virt. eigenvalues --    0.56700   0.57788   0.58850   0.59739   0.60446
  Beta virt. eigenvalues --    0.61982   0.62702   0.64006   0.65067   0.66298
  Beta virt. eigenvalues --    0.69036   0.70231   0.72034   0.75367   0.80202
  Beta virt. eigenvalues --    0.83166   0.85570   0.87643   0.89312   0.91496
  Beta virt. eigenvalues --    0.95532   0.96104   0.96816   0.98922   1.00602
  Beta virt. eigenvalues --    1.02585   1.05817   1.05967   1.08825   1.09064
  Beta virt. eigenvalues --    1.11607   1.15770   1.17732   1.19687   1.20941
  Beta virt. eigenvalues --    1.22709   1.23185   1.24610   1.25395   1.27275
  Beta virt. eigenvalues --    1.29177   1.32543   1.33300   1.33951   1.34490
  Beta virt. eigenvalues --    1.36418   1.37905   1.39215   1.41229   1.44621
  Beta virt. eigenvalues --    1.44741   1.45935   1.47219   1.49878   1.51455
  Beta virt. eigenvalues --    1.52667   1.54657   1.56089   1.59298   1.60098
  Beta virt. eigenvalues --    1.62838   1.65297   1.69500   1.76098   1.82013
  Beta virt. eigenvalues --    2.00892   2.08625   2.11143   2.24570   2.30376
  Beta virt. eigenvalues --    2.37704   2.44865   2.46290   2.51392   2.58726
  Beta virt. eigenvalues --    2.61997   2.64457   2.67453   2.69262   2.76179
  Beta virt. eigenvalues --    2.81179   2.85560   2.89074   2.92384   2.94757
  Beta virt. eigenvalues --    2.98395   2.99299   3.00651   3.01525   3.04893
  Beta virt. eigenvalues --    3.06555   3.08438   3.08758   3.12710   3.14410
  Beta virt. eigenvalues --    3.16690   3.19402   3.19986   3.20285   3.25417
  Beta virt. eigenvalues --    3.28815   3.29139   3.32426   3.34799   3.35118
  Beta virt. eigenvalues --    3.36958   3.40932   3.42493   3.46596   3.46812
  Beta virt. eigenvalues --    3.50722   3.53506   3.54524   3.58700   3.58822
  Beta virt. eigenvalues --    3.63027   3.65998   3.67740   3.69708   3.72705
  Beta virt. eigenvalues --    3.74333   3.77122   3.78505   3.79029   3.83349
  Beta virt. eigenvalues --    3.83987   3.87405   3.91108   3.96099   3.96849
  Beta virt. eigenvalues --    3.99178   4.03025   4.04321   4.10106   4.13134
  Beta virt. eigenvalues --    4.15624   4.16658   4.17504   4.19733   4.21865
  Beta virt. eigenvalues --    4.25649   4.27724   4.28213   4.30481   4.31697
  Beta virt. eigenvalues --    4.35514   4.37280   4.40017   4.44949   4.46071
  Beta virt. eigenvalues --    4.49409   4.52457   4.56930   4.57757   4.60782
  Beta virt. eigenvalues --    4.81205   4.90248   4.95165   5.17804   5.24333
  Beta virt. eigenvalues --    5.30019   5.30593   5.34112   5.41333   5.44268
  Beta virt. eigenvalues --    5.46510   5.48441   5.50308   5.52523   5.53619
  Beta virt. eigenvalues --    5.64902   5.72824   5.78332   6.07395   6.35662
  Beta virt. eigenvalues --    6.49080   7.19842   7.22434   7.28131   7.60018
  Beta virt. eigenvalues --    7.74577  24.13774  24.23462  24.26771  24.44486
  Beta virt. eigenvalues --   50.15561
          Condensed to atoms (all electrons):
               1          2          3          4          5          6
     1  O    8.134786   0.277926  -0.056687   0.147922  -0.124808  -0.071462
     2  C    0.277926   5.551668  -0.011929  -0.142754  -0.006518   0.517867
     3  C   -0.056687  -0.011929   5.244665  -0.006477   0.034020  -0.060022
     4  C    0.147922  -0.142754  -0.006477   5.014368   0.014569   0.001310
     5  C   -0.124808  -0.006518   0.034020   0.014569   5.779401  -0.075312
     6  H   -0.071462   0.517867  -0.060022   0.001310  -0.075312   0.552451
     7  H    0.010913  -0.072035   0.428231   0.001670   0.009417  -0.003758
     8  H   -0.014185   0.024558   0.391100  -0.008972  -0.023978   0.005547
     9  H   -0.005939  -0.044518   0.428258   0.000953   0.011517  -0.007740
    10  H   -0.044181  -0.009862  -0.004281   0.421176   0.012511   0.000060
    11  H   -0.042458   0.014257  -0.017524   0.423737  -0.010147  -0.000346
    12  H   -0.048926   0.005765   0.001795   0.425474   0.001952   0.000080
    13  H    0.008342  -0.056538   0.005805   0.000835   0.404369  -0.002445
    14  H    0.006279  -0.056149   0.015513  -0.000179   0.404139  -0.001773
               7          8          9         10         11         12
     1  O    0.010913  -0.014185  -0.005939  -0.044181  -0.042458  -0.048926
     2  C   -0.072035   0.024558  -0.044518  -0.009862   0.014257   0.005765
     3  C    0.428231   0.391100   0.428258  -0.004281  -0.017524   0.001795
     4  C    0.001670  -0.008972   0.000953   0.421176   0.423737   0.425474
     5  C    0.009417  -0.023978   0.011517   0.012511  -0.010147   0.001952
     6  H   -0.003758   0.005547  -0.007740   0.000060  -0.000346   0.000080
     7  H    0.549121  -0.030747  -0.022248   0.000143  -0.000053   0.000012
     8  H   -0.030747   0.554846  -0.028082   0.000237  -0.003699   0.000464
     9  H   -0.022248  -0.028082   0.518214  -0.000065   0.000999  -0.000072
    10  H    0.000143   0.000237  -0.000065   0.577663  -0.050345  -0.026091
    11  H   -0.000053  -0.003699   0.000999  -0.050345   0.590595  -0.025309
    12  H    0.000012   0.000464  -0.000072  -0.026091  -0.025309   0.524052
    13  H    0.000116   0.000450   0.000063  -0.000444   0.000019   0.000041
    14  H    0.000233  -0.000286  -0.000221  -0.003685   0.000752  -0.000181
              13         14
     1  O    0.008342   0.006279
     2  C   -0.056538  -0.056149
     3  C    0.005805   0.015513
     4  C    0.000835  -0.000179
     5  C    0.404369   0.404139
     6  H   -0.002445  -0.001773
     7  H    0.000116   0.000233
     8  H    0.000450  -0.000286
     9  H    0.000063  -0.000221
    10  H   -0.000444  -0.003685
    11  H    0.000019   0.000752
    12  H    0.000041  -0.000181
    13  H    0.492920  -0.017347
    14  H   -0.017347   0.474021
          Atomic-Atomic Spin Densities.
               1          2          3          4          5          6
     1  O    0.045674  -0.057746   0.029189  -0.003262  -0.007113  -0.021142
     2  C   -0.057746   0.080484  -0.044817  -0.004880  -0.023674   0.070117
     3  C    0.029189  -0.044817   0.051615   0.005175  -0.016165  -0.026354
     4  C   -0.003262  -0.004880   0.005175   0.041276  -0.015202  -0.000991
     5  C   -0.007113  -0.023674  -0.016165  -0.015202   1.157692  -0.047768
     6  H   -0.021142   0.070117  -0.026354  -0.000991  -0.047768   0.076100
     7  H    0.000966  -0.005761   0.002945   0.000697   0.000566  -0.001390
     8  H   -0.000416   0.000198  -0.000876   0.002566  -0.001168   0.000300
     9  H   -0.001830   0.009956  -0.007343  -0.001318   0.001359   0.001257
    10  H    0.006182  -0.014043   0.009320   0.008317  -0.014244  -0.000074
    11  H   -0.000686   0.005332  -0.004840  -0.000915  -0.000289  -0.000079
    12  H   -0.002150   0.006105  -0.003254  -0.004367   0.002112   0.000166
    13  H    0.000836   0.000198   0.005002   0.001221  -0.010101  -0.001718
    14  H    0.002634  -0.006997   0.004812   0.002234  -0.010862  -0.002355
               7          8          9         10         11         12
     1  O    0.000966  -0.000416  -0.001830   0.006182  -0.000686  -0.002150
     2  C   -0.005761   0.000198   0.009956  -0.014043   0.005332   0.006105
     3  C    0.002945  -0.000876  -0.007343   0.009320  -0.004840  -0.003254
     4  C    0.000697   0.002566  -0.001318   0.008317  -0.000915  -0.004367
     5  C    0.000566  -0.001168   0.001359  -0.014244  -0.000289   0.002112
     6  H   -0.001390   0.000300   0.001257  -0.000074  -0.000079   0.000166
     7  H    0.000263   0.000420  -0.000287   0.000001   0.000066  -0.000008
     8  H    0.000420  -0.003671   0.001084  -0.000050  -0.000412   0.000102
     9  H   -0.000287   0.001084  -0.003690   0.000006   0.000075  -0.000010
    10  H    0.000001  -0.000050   0.000006  -0.009834  -0.000380   0.000237
    11  H    0.000066  -0.000412   0.000075  -0.000380  -0.004788   0.000745
    12  H   -0.000008   0.000102  -0.000010   0.000237   0.000745   0.000169
    13  H    0.000398   0.000055  -0.000082   0.000249   0.000007  -0.000015
    14  H    0.000032   0.000017  -0.000048   0.002142  -0.000067  -0.000164
              13         14
     1  O    0.000836   0.002634
     2  C    0.000198  -0.006997
     3  C    0.005002   0.004812
     4  C    0.001221   0.002234
     5  C   -0.010101  -0.010862
     6  H   -0.001718  -0.002355
     7  H    0.000398   0.000032
     8  H    0.000055   0.000017
     9  H   -0.000082  -0.000048
    10  H    0.000249   0.002142
    11  H    0.000007  -0.000067
    12  H   -0.000015  -0.000164
    13  H   -0.039199   0.006003
    14  H    0.006003  -0.039465
 Mulliken charges and spin densities:
               1          2
     1  O   -0.177521  -0.008863
     2  C    0.008262   0.014473
     3  C   -0.392467   0.004408
     4  C   -0.293631   0.030550
     5  C   -0.431131   1.015142
     6  H    0.145545   0.046070
     7  H    0.128986  -0.001092
     8  H    0.132748  -0.001852
     9  H    0.148879  -0.000872
    10  H    0.127164  -0.012172
    11  H    0.119522  -0.006231
    12  H    0.140945  -0.000331
    13  H    0.163814  -0.037147
    14  H    0.178885  -0.042084
 Sum of Mulliken charges =  -0.00000   1.00000
 Mulliken charges and spin densities with hydrogens summed into heavy atoms:
               1          2
     1  O   -0.177521  -0.008863
     2  C    0.153807   0.060543
     3  C    0.018146   0.000593
     4  C    0.094000   0.011816
     5  C   -0.088432   0.935911
 APT charges:
               1
     1  O   -0.173578
     2  C   -0.277976
     3  C   -1.114026
     4  C   -1.075452
     5  C   -0.950112
     6  H    0.430623
     7  H    0.436055
     8  H    0.271283
     9  H    0.418552
    10  H    0.307268
    11  H    0.266043
    12  H    0.549408
    13  H    0.498085
    14  H    0.413829
 Sum of APT charges =  -0.00000
 APT charges with hydrogens summed into heavy atoms:
               1
     1  O   -0.173578
     2  C    0.152647
     3  C    0.011863
     4  C    0.047267
     5  C   -0.038199
 Electronic spatial extent (au):  <R**2>=            458.0580
 Charge=             -0.0000 electrons
 Dipole moment (field-independent basis, Debye):
    X=              0.8983    Y=              0.0016    Z=             -1.0846  Tot=              1.4083
 Quadrupole moment (field-independent basis, Debye-Ang):
   XX=            -30.8596   YY=            -32.4541   ZZ=            -35.3658
   XY=              0.1809   XZ=              2.3439   YZ=              0.3624
 Traceless Quadrupole moment (field-independent basis, Debye-Ang):
   XX=              2.0336   YY=              0.4391   ZZ=             -2.4726
   XY=              0.1809   XZ=              2.3439   YZ=              0.3624
 Octapole moment (field-independent basis, Debye-Ang**2):
  XXX=             -5.8726  YYY=              1.0023  ZZZ=              4.3819  XYY=             -1.3436
  XXY=              0.0648  XXZ=             -1.0917  XZZ=              0.7742  YZZ=             -1.9313
  YYZ=              1.1966  XYZ=             -0.6630
 Hexadecapole moment (field-independent basis, Debye-Ang**3):
 XXXX=           -291.4094 YYYY=           -208.0094 ZZZZ=           -108.1423 XXXY=              4.4410
 XXXZ=             -6.3168 YYYX=             -2.2774 YYYZ=             -1.2785 ZZZX=              3.6925
 ZZZY=              3.0222 XXYY=            -89.9624 XXZZ=            -72.5307 YYZZ=            -54.5443
 XXYZ=             -1.8844 YYXZ=              0.4225 ZZXY=             -0.4722
 N-N= 1.872708618056D+02 E-N=-9.170945084896D+02  KE= 2.315537894740D+02
  Exact polarizability:   0.000   0.000   0.000   0.000   0.000   0.000
 Approx polarizability:  66.663   0.283  61.856   0.326  -1.041  62.628
                          Isotropic Fermi Contact Couplings
        Atom                 a.u.       MegaHertz       Gauss      10(-4) cm-1
     1  O(17)              0.01360      -8.24386      -2.94161      -2.74986
     2  C(13)             -0.03394     -38.15102     -13.61323     -12.72581
     3  C(13)              0.02748      30.89374      11.02366      10.30504
     4  C(13)              0.00380       4.26756       1.52277       1.42350
     5  C(13)              0.22151     249.01421      88.85446      83.06220
     6  H(1)               0.02908     129.96402      46.37439      43.35133
     7  H(1)              -0.00032      -1.42664      -0.50906      -0.47588
     8  H(1)              -0.00062      -2.75145      -0.98179      -0.91779
     9  H(1)              -0.00025      -1.10479      -0.39422      -0.36852
    10  H(1)               0.00104       4.65654       1.66157       1.55325
    11  H(1)              -0.00024      -1.05653      -0.37700      -0.35242
    12  H(1)               0.00029       1.30192       0.46456       0.43427
    13  H(1)              -0.01385     -61.92600     -22.09674     -20.65629
    14  H(1)              -0.01249     -55.82152     -19.91851     -18.62005
 --------------------------------------------------------
       Center         ----  Spin Dipole Couplings  ----
                      3XX-RR        3YY-RR        3ZZ-RR
 --------------------------------------------------------
     1   Atom        0.022624     -0.012786     -0.009838
     2   Atom       -0.016313     -0.000362      0.016676
     3   Atom       -0.011392      0.023578     -0.012186
     4   Atom       -0.001757      0.001302      0.000455
     5   Atom       -0.279176     -0.462015      0.741191
     6   Atom       -0.007576      0.000888      0.006688
     7   Atom       -0.000744      0.006273     -0.005529
     8   Atom       -0.006622      0.010402     -0.003780
     9   Atom       -0.004262      0.006703     -0.002441
    10   Atom        0.016231     -0.006078     -0.010153
    11   Atom        0.001201      0.003262     -0.004463
    12   Atom        0.004533     -0.001962     -0.002571
    13   Atom        0.065238     -0.059107     -0.006131
    14   Atom       -0.013459      0.028522     -0.015063
 --------------------------------------------------------
                        XY            XZ            YZ
 --------------------------------------------------------
     1   Atom       -0.002089     -0.009663     -0.001584
     2   Atom        0.006350     -0.014548     -0.015290
     3   Atom       -0.012853     -0.003070      0.004624
     4   Atom        0.007240     -0.000637     -0.014113
     5   Atom        0.129217      0.554987      0.303178
     6   Atom        0.001765      0.004312     -0.011318
     7   Atom       -0.008375     -0.000972      0.000839
     8   Atom        0.002088      0.001184      0.003879
     9   Atom       -0.000808      0.000303     -0.002267
    10   Atom        0.006474      0.002841     -0.001774
    11   Atom        0.006106      0.001153      0.001746
    12   Atom        0.002569     -0.000875     -0.000784
    13   Atom        0.025130     -0.018685      0.004993
    14   Atom       -0.056451      0.006701      0.031897
 --------------------------------------------------------


 ---------------------------------------------------------------------------------
              Anisotropic Spin Dipole Couplings in Principal Axis System
 ---------------------------------------------------------------------------------

       Atom             a.u.   MegaHertz   Gauss  10(-4) cm-1        Axes

              Baa    -0.0148     1.068     0.381     0.356  0.2077  0.7360  0.6444
     1 O(17)  Bbb    -0.0106     0.766     0.273     0.256  0.1664 -0.6757  0.7181
              Bcc     0.0253    -1.834    -0.655    -0.612  0.9639 -0.0419 -0.2628
 
              Baa    -0.0218    -2.929    -1.045    -0.977  0.9394 -0.0350  0.3410
     2 C(13)  Bbb    -0.0091    -1.221    -0.436    -0.407 -0.1306  0.8833  0.4503
              Bcc     0.0309     4.150     1.481     1.384 -0.3170 -0.4676  0.8252
 
              Baa    -0.0162    -2.180    -0.778    -0.727  0.8861  0.2399  0.3967
     3 C(13)  Bbb    -0.0123    -1.644    -0.587    -0.548 -0.3418 -0.2399  0.9086
              Bcc     0.0285     3.824     1.365     1.276 -0.3132  0.9407  0.1305
 
              Baa    -0.0150    -2.009    -0.717    -0.670 -0.3522  0.6977  0.6238
     4 C(13)  Bbb    -0.0018    -0.243    -0.087    -0.081  0.8861  0.0342  0.4621
              Bcc     0.0168     2.252     0.804     0.751  0.3011  0.7156 -0.6303
 
              Baa    -0.5346   -71.735   -25.597   -23.928  0.1792  0.9368 -0.3006
     5 C(13)  Bbb    -0.5218   -70.022   -24.986   -23.357  0.9021 -0.2784 -0.3296
              Bcc     1.0564   141.757    50.582    47.285  0.3924  0.2121  0.8950
 
              Baa    -0.0119    -6.335    -2.261    -2.113  0.7005 -0.5253 -0.4830
     6 H(1)   Bbb    -0.0038    -2.048    -0.731    -0.683  0.7063  0.6073  0.3637
              Bcc     0.0157     8.383     2.991     2.796  0.1023 -0.5960  0.7965
 
              Baa    -0.0065    -3.445    -1.229    -1.149  0.7847  0.4914  0.3779
     7 H(1)   Bbb    -0.0055    -2.922    -1.043    -0.975 -0.2788 -0.2647  0.9232
              Bcc     0.0119     6.367     2.272     2.124 -0.5536  0.8298  0.0707
 
              Baa    -0.0071    -3.780    -1.349    -1.261  0.9579 -0.0518 -0.2824
     8 H(1)   Bbb    -0.0046    -2.456    -0.876    -0.819  0.2581 -0.2753  0.9261
              Bcc     0.0117     6.236     2.225     2.080  0.1257  0.9600  0.2503
 
              Baa    -0.0043    -2.313    -0.825    -0.771  0.9940  0.0532 -0.0952
     9 H(1)   Bbb    -0.0030    -1.581    -0.564    -0.527  0.0802  0.2339  0.9689
              Bcc     0.0073     3.894     1.389     1.299 -0.0738  0.9708 -0.2283
 
              Baa    -0.0118    -6.311    -2.252    -2.105 -0.1983  0.4859  0.8512
    10 H(1)   Bbb    -0.0063    -3.378    -1.206    -1.127 -0.1749  0.8370 -0.5185
              Bcc     0.0182     9.689     3.457     3.232  0.9644  0.2517  0.0810
 
              Baa    -0.0049    -2.591    -0.924    -0.864  0.1044 -0.2835  0.9533
    11 H(1)   Bbb    -0.0039    -2.078    -0.741    -0.693  0.7651 -0.5895 -0.2591
              Bcc     0.0088     4.669     1.666     1.557  0.6354  0.7564  0.1554
 
              Baa    -0.0032    -1.729    -0.617    -0.577 -0.1733  0.7441  0.6452
    12 H(1)   Bbb    -0.0023    -1.244    -0.444    -0.415  0.3128 -0.5796  0.7525
              Bcc     0.0056     2.973     1.061     0.992  0.9339  0.3323 -0.1323
 
              Baa    -0.0653   -34.816   -12.423   -11.614 -0.2073  0.9671 -0.1472
    13 H(1)   Bbb    -0.0087    -4.627    -1.651    -1.543  0.1810  0.1858  0.9658
              Bcc     0.0739    39.444    14.074    13.157  0.9614  0.1736 -0.2136
 
              Baa    -0.0649   -34.626   -12.355   -11.550  0.6840  0.5691 -0.4563
    14 H(1)   Bbb    -0.0088    -4.693    -1.675    -1.565  0.5200  0.0582  0.8522
              Bcc     0.0737    39.319    14.030    13.115 -0.5116  0.8202  0.2561
 

 ---------------------------------------------------------------------------------

 No NMR shielding tensors so no spin-rotation constants.
 Leave Link  601 at Sat Mar  9 01:49:29 2019, MaxMem=   671088640 cpu:               7.4 elap:               0.4
 (Enter /shared/centos7/gaussian/g16/l701.exe)
 SCFChk:  SCF convergence  2.24D-09 required  1.00D-08
 ... and contract with generalized density number  0.
 Compute integral second derivatives.
 Entering OneElI...
 Calculate overlap and kinetic energy integrals
    NBasis = 276  MinDer = 2  MaxDer = 2
 Requested accuracy = 0.1000D-12
 PrmmSu-InSpLW:  IPartL=    0 NPrtUS=   20 NPrtUL=    1 DoSpLW=F IThBeg=    0 IThEnd=   19 NThAct=   20.
 PrsmSu:  NPrtUS=  20 ThrOK=T IAlg=1 NPAlg=1 LenDen=           0 ISkipM=0 DoSpLW=F IThBeg=    0 IThEnd=   19.
 Prism:   IPart=     0 DynPar=F LinDyn=F Incr=           1.
 PRISM was handed    33456205 working-precision words and  3655 shell-pairs
 PRISM was handed    33456205 working-precision words and  3655 shell-pairs
 PRISM was handed    33456205 working-precision words and  3655 shell-pairs
 PRISM was handed    33456205 working-precision words and  3655 shell-pairs
 PRISM was handed    33456205 working-precision words and  3655 shell-pairs
 PRISM was handed    33456205 working-precision words and  3655 shell-pairs
 PRISM was handed    33456205 working-precision words and  3655 shell-pairs
 PRISM was handed    33456205 working-precision words and  3655 shell-pairs
 PRISM was handed    33456205 working-precision words and  3655 shell-pairs
 PRISM was handed    33456205 working-precision words and  3655 shell-pairs
 PRISM was handed    33456205 working-precision words and  3655 shell-pairs
 PRISM was handed    33456205 working-precision words and  3655 shell-pairs
 PRISM was handed    33456205 working-precision words and  3655 shell-pairs
 PRISM was handed    33456205 working-precision words and  3655 shell-pairs
 PRISM was handed    33456205 working-precision words and  3655 shell-pairs
 PRISM was handed    33456205 working-precision words and  3655 shell-pairs
 PRISM was handed    33456205 working-precision words and  3655 shell-pairs
 PRISM was handed    33456205 working-precision words and  3655 shell-pairs
 PRISM was handed    33456205 working-precision words and  3655 shell-pairs
 PRISM was handed    33456205 working-precision words and  3655 shell-pairs
 IPart=  5 NShTot=         194 NBatch=          41 AvBLen=         4.7
 IPart=  4 NShTot=         200 NBatch=          44 AvBLen=         4.5
 IPart=  2 NShTot=         205 NBatch=          47 AvBLen=         4.4
 IPart=  0 NShTot=         211 NBatch=          51 AvBLen=         4.1
 IPart=  7 NShTot=         189 NBatch=          38 AvBLen=         5.0
 IPart= 15 NShTot=         164 NBatch=          30 AvBLen=         5.5
 IPart= 11 NShTot=         172 NBatch=          34 AvBLen=         5.1
 IPart=  3 NShTot=         203 NBatch=          46 AvBLen=         4.4
 IPart=  9 NShTot=         187 NBatch=          37 AvBLen=         5.1
 IPart=  1 NShTot=         209 NBatch=          49 AvBLen=         4.3
 IPart=  8 NShTot=         188 NBatch=          38 AvBLen=         4.9
 IPart= 17 NShTot=         164 NBatch=          30 AvBLen=         5.5
 IPart= 10 NShTot=         174 NBatch=          35 AvBLen=         5.0
 IPart= 14 NShTot=         170 NBatch=          33 AvBLen=         5.2
 IPart= 16 NShTot=         164 NBatch=          30 AvBLen=         5.5
 IPart= 13 NShTot=         170 NBatch=          33 AvBLen=         5.2
 IPart= 12 NShTot=         172 NBatch=          34 AvBLen=         5.1
 IPart= 18 NShTot=         164 NBatch=          30 AvBLen=         5.5
 IPart= 19 NShTot=         164 NBatch=          30 AvBLen=         5.5
 IPart=  6 NShTot=         191 NBatch=          39 AvBLen=         4.9
 PrSmSu:  NxtVal=             21.
 Entering OneElI...
 Calculate potential energy integrals
    NBasis = 276  MinDer = 2  MaxDer = 2
 Requested accuracy = 0.1000D-12
 PrmmSu-InSpLW:  IPartL=    0 NPrtUS=   20 NPrtUL=    1 DoSpLW=F IThBeg=    0 IThEnd=   19 NThAct=   20.
 PrsmSu:  NPrtUS=  20 ThrOK=T IAlg=1 NPAlg=1 LenDen=           0 ISkipM=0 DoSpLW=F IThBeg=    0 IThEnd=   19.
 Prism:   IPart=     0 DynPar=F LinDyn=F Incr=          24.
 PRISM was handed    33468835 working-precision words and  3525 shell-pairs
 PRISM was handed    33468835 working-precision words and  3525 shell-pairs
 PRISM was handed    33468835 working-precision words and  3525 shell-pairs
 PRISM was handed    33468835 working-precision words and  3525 shell-pairs
 PRISM was handed    33468835 working-precision words and  3525 shell-pairs
 PRISM was handed    33468835 working-precision words and  3525 shell-pairs
 PRISM was handed    33468835 working-precision words and  3525 shell-pairs
 PRISM was handed    33468835 working-precision words and  3525 shell-pairs
 PRISM was handed    33468835 working-precision words and  3525 shell-pairs
 PRISM was handed    33468835 working-precision words and  3525 shell-pairs
 PRISM was handed    33468835 working-precision words and  3525 shell-pairs
 PRISM was handed    33468835 working-precision words and  3525 shell-pairs
 PRISM was handed    33468835 working-precision words and  3525 shell-pairs
 PRISM was handed    33468835 working-precision words and  3525 shell-pairs
 PRISM was handed    33468835 working-precision words and  3525 shell-pairs
 PRISM was handed    33468835 working-precision words and  3525 shell-pairs
 PRISM was handed    33468835 working-precision words and  3525 shell-pairs
 PRISM was handed    33468835 working-precision words and  3525 shell-pairs
 PRISM was handed    33468835 working-precision words and  3525 shell-pairs
 PRISM was handed    33468835 working-precision words and  3525 shell-pairs
 IPart= 19 NShTot=        2184 NBatch=         156 AvBLen=        14.0
 IPart= 17 NShTot=        2198 NBatch=         157 AvBLen=        14.0
 IPart= 15 NShTot=        2254 NBatch=         161 AvBLen=        14.0
 IPart= 16 NShTot=        2226 NBatch=         159 AvBLen=        14.0
 IPart=  9 NShTot=        2422 NBatch=         173 AvBLen=        14.0
 IPart= 14 NShTot=        2310 NBatch=         165 AvBLen=        14.0
 IPart= 12 NShTot=        2324 NBatch=         166 AvBLen=        14.0
 IPart= 11 NShTot=        2366 NBatch=         169 AvBLen=        14.0
 IPart= 13 NShTot=        2324 NBatch=         166 AvBLen=        14.0
 IPart= 10 NShTot=        2380 NBatch=         170 AvBLen=        14.0
 IPart=  5 NShTot=        2562 NBatch=         183 AvBLen=        14.0
 IPart=  4 NShTot=        2702 NBatch=         193 AvBLen=        14.0
 IPart=  8 NShTot=        2464 NBatch=         176 AvBLen=        14.0
 IPart=  0 NShTot=        2940 NBatch=         210 AvBLen=        14.0
 IPart=  3 NShTot=        2772 NBatch=         198 AvBLen=        14.0
 IPart=  2 NShTot=        2786 NBatch=         199 AvBLen=        14.0
 IPart=  1 NShTot=        2884 NBatch=         206 AvBLen=        14.0
 IPart= 18 NShTot=        2198 NBatch=         157 AvBLen=        14.0
 IPart=  7 NShTot=        2506 NBatch=         179 AvBLen=        14.0
 IPart=  6 NShTot=        2548 NBatch=         182 AvBLen=        14.0
 PrSmSu:  NxtVal=            481.
 Polarizability after L701:
                1             2             3 
      1  0.000000D+00
      2  0.000000D+00  0.000000D+00
      3  0.000000D+00  0.000000D+00  0.000000D+00
 Dipole Derivatives after L701:
                 1             2             3             4             5 
      1  -0.152344D+00 -0.208604D-02  0.266843D+00 -0.264605D+00 -0.717511D-01
      2  -0.122761D-01 -0.212449D+00  0.433861D-02 -0.825452D-01  0.378175D+00
      3   0.142353D+00 -0.843108D-02 -0.155942D+00 -0.354073D+00 -0.796224D-01
                 6             7             8             9            10 
      1  -0.495319D+00 -0.109664D+01  0.529005D+00  0.196089D+00 -0.147656D+01
      2  -0.145822D+00  0.265109D+00 -0.144263D+01 -0.111858D+00 -0.533128D-01
      3  -0.947498D+00 -0.126345D-01  0.426543D-01 -0.802804D+00  0.806416D-02
                11            12            13            14            15 
      1  -0.425065D-01 -0.669577D+00 -0.104030D+01 -0.387699D+00  0.301062D+00
      2  -0.928523D+00 -0.219705D-01 -0.221546D+00 -0.159210D+01  0.192332D+00
      3   0.173797D-01 -0.821276D+00  0.270987D+00  0.161426D+00 -0.217933D+00
                16            17            18            19            20 
      1   0.413849D+00  0.295412D-01  0.373362D+00  0.102852D+01  0.908481D-01
      2   0.369143D-01  0.189689D+00  0.610341D-01 -0.418295D+00  0.859408D-01
      3   0.287035D+00  0.370443D-01  0.688330D+00 -0.238887D+00 -0.242234D-01
                21            22            23            24            25 
      1  -0.312776D+00  0.392316D-01 -0.668801D-01 -0.124906D+00  0.990276D-01
      2   0.148545D+00  0.372368D+00  0.265241D+00  0.465533D+00  0.295553D-01
      3   0.193708D+00  0.329827D+00  0.112596D+00  0.509375D+00 -0.120596D-01
                26            27            28            29            30 
      1  -0.374131D+00  0.288787D+00  0.658378D-01 -0.527980D+00  0.368892D+00
      2   0.860828D+00 -0.576747D+00  0.695742D-01  0.489848D+00 -0.166871D+00
      3  -0.169930D+00  0.295799D+00 -0.304130D-01 -0.339210D+00  0.366120D+00
                31            32            33            34            35 
      1  -0.584459D-01  0.371684D+00  0.350632D+00  0.135924D+01  0.180855D+00
      2  -0.195618D+00  0.452905D+00  0.217264D+00  0.115817D+00  0.135727D+00
      3  -0.169213D+00  0.330216D+00  0.403669D+00  0.650382D-01  0.367118D-02
                36            37            38            39            40 
      1  -0.297114D+00  0.102397D+01  0.150536D+00 -0.260939D+00  0.592285D-01
      2  -0.333759D-01  0.706223D+00  0.266162D+00 -0.206277D+00 -0.611968D+00
      3   0.153261D+00 -0.300578D+00 -0.603623D-01  0.204122D+00  0.145535D-01
                41            42 
      1   0.120563D+00  0.149645D-01
      2   0.105119D+01  0.173875D+00
      3  -0.232093D-01  0.131070D+00
 Hessian after L701:
                1             2             3             4             5 
      1  0.288032D+01
      2 -0.713053D+00  0.119282D+02
      3 -0.870602D+00 -0.123085D+00  0.781554D+01
      4  0.235682D+00  0.542909D+00 -0.165888D+01  0.123846D+02
      5  0.575995D+00 -0.660335D+01 -0.887556D-01 -0.296471D+00  0.152013D+02
      6 -0.173955D+01 -0.849533D-01 -0.602513D+01  0.140208D+01  0.236815D+00
      7  0.201642D+00 -0.460748D+00 -0.277822D+00 -0.479544D+01 -0.150220D+01
      8 -0.401446D+00 -0.212110D-01  0.224583D+00 -0.148604D+01 -0.217603D+01
      9 -0.282452D+00  0.235968D+00 -0.125916D+00 -0.738046D+00  0.158373D+01
     10 -0.386917D+01  0.184498D+00  0.334144D+01  0.484623D+00  0.108490D+00
     11  0.188215D+00 -0.647539D+01  0.215352D+00  0.107039D+00 -0.821504D-01
     12  0.329254D+01  0.209554D+00 -0.152069D+01  0.184958D+00  0.339951D-01
     13  0.120771D+00  0.445325D+00 -0.801017D-01 -0.544996D+01  0.100295D+01
     14  0.338129D+00  0.343328D+00 -0.158293D+00  0.103548D+01 -0.226290D+01
     15 -0.728387D-01 -0.203083D+00 -0.451132D-01 -0.772028D+00 -0.203884D+01
     16 -0.485548D-01  0.104072D-01  0.734333D-01 -0.312166D+01  0.932417D-01
     17  0.439680D-02  0.955780D-01  0.132784D-01  0.110244D+00 -0.395460D+01
     18  0.131725D+00  0.235713D-01  0.211166D+00  0.138288D+01  0.135790D+00
     19  0.164037D+00 -0.526072D-01 -0.995773D-01 -0.324265D-01  0.411770D-01
     20 -0.464272D-01 -0.474618D-01  0.217001D-01  0.940763D-01  0.769236D-01
     21 -0.936029D-01  0.212157D-01 -0.117639D-01  0.455623D-01  0.314447D-02
     22 -0.167528D-01  0.110733D-01  0.302715D-01 -0.325879D-01  0.155740D-01
     23 -0.137736D-01  0.243466D-02  0.709138D-04 -0.510602D-01 -0.138442D-01
     24 -0.272837D-01  0.250156D-01  0.841258D-02 -0.277105D-01  0.533085D-01
     25  0.132438D-01 -0.464361D-01 -0.138013D-01  0.506624D-01  0.159345D-01
     26 -0.800406D-01  0.532178D-01  0.197902D-01 -0.458165D-01 -0.281888D-01
     27  0.165865D-01 -0.175224D-01 -0.309432D-01  0.346075D-02 -0.390141D-01
     28  0.341929D-01 -0.346036D-01 -0.109059D+00 -0.292659D-02  0.494583D-02
     29 -0.526267D-01  0.321068D+00 -0.182586D+00 -0.346031D-01  0.373495D-02
     30 -0.389174D-01 -0.170092D+00 -0.953827D-01  0.267229D-01 -0.528137D-02
     31  0.380887D-01 -0.391912D-01 -0.162042D+00  0.630677D-02  0.177542D-01
     32 -0.190716D-01  0.288382D+00  0.167562D+00  0.688662D-01 -0.232096D-01
[...]
 ! A18   A(10,4,12)            108.9486         -DE/DX =    0.0                 !
 ! A19   A(11,4,12)            108.6607         -DE/DX =    0.0                 !
 ! A20   A(2,5,13)             120.8811         -DE/DX =    0.0                 !
 ! A21   A(2,5,14)             119.2536         -DE/DX =    0.0                 !
 ! A22   A(13,5,14)            118.8395         -DE/DX =    0.0                 !
 ! D1    D(4,1,2,3)            -59.5344         -DE/DX =    0.0                 !
 ! D2    D(4,1,2,5)             67.8497         -DE/DX =    0.0                 !
 ! D3    D(4,1,2,6)           -175.5067         -DE/DX =    0.0                 !
 ! D4    D(2,1,4,10)           -50.4201         -DE/DX =    0.0                 !
 ! D5    D(2,1,4,11)            71.7161         -DE/DX =    0.0                 !
 ! D6    D(2,1,4,12)          -169.4958         -DE/DX =    0.0                 !
 ! D7    D(1,2,3,7)           -168.9986         -DE/DX =    0.0                 !
 ! D8    D(1,2,3,8)             71.6651         -DE/DX =    0.0                 !
 ! D9    D(1,2,3,9)            -49.4264         -DE/DX =    0.0                 !
 ! D10   D(5,2,3,7)             64.0454         -DE/DX =    0.0                 !
 ! D11   D(5,2,3,8)            -55.2909         -DE/DX =    0.0                 !
 ! D12   D(5,2,3,9)           -176.3824         -DE/DX =    0.0                 !
 ! D13   D(6,2,3,7)            -56.0127         -DE/DX =    0.0                 !
 ! D14   D(6,2,3,8)           -175.349          -DE/DX =    0.0                 !
 ! D15   D(6,2,3,9)             63.5595         -DE/DX =    0.0                 !
 ! D16   D(1,2,5,13)          -154.3659         -DE/DX =    0.0                 !
 ! D17   D(1,2,5,14)            37.3522         -DE/DX =    0.0                 !
 ! D18   D(3,2,5,13)           -26.7131         -DE/DX =    0.0                 !
 ! D19   D(3,2,5,14)           165.0051         -DE/DX =    0.0                 !
 ! D20   D(6,2,5,13)            92.7148         -DE/DX =    0.0                 !
 ! D21   D(6,2,5,14)           -75.567          -DE/DX =    0.0                 !
 --------------------------------------------------------------------------------
 GradGradGradGradGradGradGradGradGradGradGradGradGradGradGradGradGradGrad

 Leave Link  103 at Sat Mar  9 02:07:30 2019, MaxMem=   671088640 cpu:               0.4 elap:               0.1
 (Enter /shared/centos7/gaussian/g16/l9999.exe)

 ----------------------------------------------------------------------

 Electric dipole moment (input orientation):
 (Debye = 10**-18 statcoulomb cm , SI units = C m)
                  (au)            (Debye)         (10**-30 SI)
   Tot        0.519511D+00      0.132046D+01      0.440459D+01
   x         -0.163346D+00     -0.415185D+00     -0.138491D+01
   y         -0.480704D+00     -0.122183D+01     -0.407558D+01
   z         -0.110150D+00     -0.279975D+00     -0.933894D+00

 Dipole polarizability, Alpha (input orientation).
 (esu units = cm**3 , SI units = C**2 m**2 J**-1)
 Alpha(0;0):
               (au)            (10**-24 esu)      (10**-40 SI)
   iso        0.537114D+02      0.795921D+01      0.885582D+01
   aniso      0.817993D+01      0.121214D+01      0.134869D+01
   xx         0.578770D+02      0.857648D+01      0.954263D+01
   yx         0.122572D+01      0.181633D+00      0.202094D+00
   yy         0.488567D+02      0.723982D+01      0.805538D+01
   zx         0.217132D+00      0.321757D-01      0.358002D-01
   zy        -0.237948D+00     -0.352603D-01     -0.392324D-01
   zz         0.544006D+02      0.806134D+01      0.896945D+01

 ----------------------------------------------------------------------

 Dipole orientation:
     8          1.27379959         -0.26639608         -1.69448525
     6         -0.57692358         -0.98000543          0.11410053
     6          0.42474905         -2.86491592          2.05230790
     6          3.45366667          0.87435428         -0.68434354
     6         -1.75644762          1.27125272          1.32504546
     1         -2.00238469         -1.94914324         -1.03809084
     1         -1.14003515         -3.62452645          3.15408937
     1          1.74177654         -1.97062894          3.35923520
     1          1.37779333         -4.42201865          1.10202735
     1          2.97986497          2.41945223          0.60679610
     1          4.63944717         -0.48933297          0.31819364
     1          4.51937679          1.63223199         -2.26912288
     1         -2.57293276          1.14941468          3.19101700
     1         -2.11716883          2.93489934          0.19939578

 Electric dipole moment (dipole orientation):
 (Debye = 10**-18 statcoulomb cm , SI units = C m)
                  (au)            (Debye)         (10**-30 SI)
   Tot        0.519511D+00      0.132046D+01      0.440459D+01
   x          0.000000D+00      0.000000D+00      0.000000D+00
   y          0.000000D+00      0.000000D+00      0.000000D+00
   z          0.519511D+00      0.132046D+01      0.440459D+01

 Dipole polarizability, Alpha (dipole orientation).
 (esu units = cm**3 , SI units = C**2 m**2 J**-1)
 Alpha(0;0):
               (au)            (10**-24 esu)      (10**-40 SI)
   iso        0.537114D+02      0.795921D+01      0.885582D+01
   aniso      0.817993D+01      0.121214D+01      0.134869D+01
   xx         0.563118D+02      0.834455D+01      0.928456D+01
   yx         0.173588D+00      0.257231D-01      0.286208D-01
   yy         0.541760D+02      0.802806D+01      0.893242D+01
   zx        -0.328655D+01     -0.487016D+00     -0.541879D+00
   zy        -0.181286D+01     -0.268638D+00     -0.298900D+00
   zz         0.506465D+02      0.750504D+01      0.835048D+01

 ----------------------------------------------------------------------

 Test job not archived.
 1\1\GINC-C0146\Freq\UM062X\6-311+G(2df,2p)\C4H9O1(2)\UNDERKOFFLER.C\09
 -Mar-2019\0\\#P Geom=AllCheck Guess=TCheck SCRF=Check Test GenChk UM06
 2X/6-311+G(2df,2p) Freq\\Gaussian input prepared by ASE\\0,2\O,0.86718
 31587,0.7092867103,-0.1522610731\C,-0.4238618248,0.1696714242,-0.39666
 82869\C,-0.4989546144,-0.6137586125,-1.7037424618\C,1.9034579508,-0.23
 94546616,-0.0697311493\C,-0.9126459955,-0.623201378,0.7660443214\H,-1.
 0480511075,1.0654769584,-0.504752778\H,-1.5392705419,-0.8364626214,-1.
 9389467493\H,0.0372807544,-1.5599275341,-1.6316281355\H,-0.0754389205,
 -0.0275978206,-2.5181265967\H,1.6546216797,-1.0515268513,0.6207913633\
 H,2.1397341764,-0.6691006884,-1.0472399207\H,2.7813609221,0.2834121779
 ,0.301855818\H,-1.6354161388,-1.4142285975,0.6328758707\H,-0.689345960
 3,-0.2846788529,1.7669628764\\Version=EM64L-G16RevA.03\State=2-A\HF=-2
 32.9524359\S2=0.755151\S2-1=0.\S2A=0.75002\RMSD=3.560e-09\RMSF=3.353e-
 07\ZeroPoint=0.1223369\Thermal=0.1293434\Dipole=-0.1633462,-0.4807038,
 -0.1101504\DipoleDeriv=-1.1587522,0.0138977,-0.0658669,0.0736012,-0.59
 10148,-0.0152842,-0.0868095,0.0034467,-0.52371,0.847657,0.146899,-0.00
 50579,0.2281482,0.3057739,0.055011,0.0474227,0.0101457,0.465433,0.0057
 012,-0.0188188,0.0026677,-0.0682187,0.0168917,-0.0661772,-0.0535196,-0
 .096559,-0.0970223,0.5583844,-0.153069,0.0026516,-0.3245894,0.3825082,
 -0.0219628,-0.0069054,-0.0072269,0.3337226,-0.2274761,0.1585957,0.0365
 879,0.1443768,-0.0903825,-0.0023788,0.0777312,0.073382,-0.0587259,-0.0
 542101,0.0420206,0.0082648,0.0689106,-0.0898437,0.0307074,-0.0090428,0
 .0218791,-0.0006042,-0.108588,-0.0433375,-0.0554898,-0.031448,0.063847
 5,-0.0168833,-0.0191636,-0.0123517,0.0541367,0.0272713,0.0879299,0.010
 1187,0.0738521,-0.0593159,-0.0108174,-0.0226238,0.0351206,0.0302686,0.
 0498191,-0.0323836,0.075983,-0.0370214,0.0075502,0.0691957,0.0473964,0
 .0349851,-0.0586288,0.0145753,-0.0479108,0.0545777,0.0413478,-0.065447
 5,0.082042,0.020487,0.0885816,-0.0315287,0.007626,0.023398,0.0012925,0
 .0798939,-0.0000521,-0.0433972,0.0771463,-0.0842549,-0.1278147,-0.0927
 678,-0.0336586,-0.0485425,-0.0841112,0.0264319,-0.0400341,-0.064732,-0
 .0288331,0.0507109,0.0280726,-0.0978414,0.0079651,-0.1063725,0.0373666
 ,0.0027325,-0.0095608,-0.0254627,0.0291328,0.1026872,-0.0457211,-0.025
 1519,-0.0583696,0.0556866,-0.0227535,0.002174,-0.0128525,-0.0653702\Po
 lar=57.8769884,1.2257187,48.856705,0.2171321,-0.2379484,54.4006053\Qua
 drupole=1.4932891,-1.7250263,0.2317372,-0.6858345,0.3408408,-0.1558631
 \PG=C01 [X(C4H9O1)]\NImag=0\\0.49489016,-0.04754142,0.33245004,0.04980
 035,0.01051754,0.11047973,-0.18976047,-0.03124675,-0.01818863,0.485049
 28,-0.06191134,-0.11049156,-0.01561443,-0.04464053,0.53673387,-0.02416
 503,-0.01298908,-0.06745553,-0.00362911,-0.00763237,0.48899258,-0.0175
 0686,-0.02531968,-0.03460696,-0.07853252,0.00709839,0.00985035,0.58576
 630,-0.00948372,-0.00688132,-0.01269612,0.00278085,-0.10979505,-0.0488
 7361,0.00121644,0.55687958,-0.00865043,-0.00605298,-0.00499824,0.00535
 255,-0.05140215,-0.15945416,-0.01207310,-0.05053630,0.50444754,-0.1692
 4663,0.06329057,-0.00806178,-0.04577573,0.02310949,-0.00667480,0.00206
 123,-0.00174100,-0.00083993,0.55962807,0.09757505,-0.17669657,0.003658
 81,-0.00136045,0.01462379,0.00223140,-0.00471916,0.00081829,0.00017248
 ,0.06498191,0.54589659,-0.00638673,-0.00023084,-0.06211025,-0.00750719
 ,0.00400088,-0.00523788,-0.00226031,0.00234114,0.00031351,0.00513847,0
 .01333508,0.56824824,-0.02917131,-0.02772753,0.02203577,-0.06952469,-0
 .03495366,0.02938361,0.00431289,0.00270106,0.00104129,-0.00053611,-0.0
 0303406,0.00189425,0.28964435,-0.02401197,-0.01601459,0.01356598,-0.03
 865835,-0.10729756,0.05781292,0.00741732,0.00981587,-0.01043396,0.0025
 5709,-0.00077658,-0.00019094,0.27089522,0.39346571,0.00085587,0.000559
 83,0.00804501,0.02987243,0.05790241,-0.17808782,0.00787370,0.01607556,
 -0.03423144,0.00142896,-0.00236803,0.00132170,0.03943013,0.03436833,0.
 58187300,-0.04013695,0.02451038,-0.00689450,-0.11147459,0.10375196,-0.
 00784843,0.00173654,-0.00009001,-0.00028007,-0.00311166,-0.00451631,-0
 .00161717,0.00769460,-0.00612667,0.00075602,0.14659289,-0.01053415,0.0
 1093283,-0.00193383,0.12315917,-0.21484260,0.01578490,0.00887661,-0.01
 519187,-0.00105674,-0.00284430,0.00082479,-0.00052810,0.00363149,-0.01
 673594,0.00991456,-0.12008211,0.23456744,-0.00813377,0.00381041,0.0013
 7890,-0.01662185,0.02335211,-0.04874860,0.01563429,-0.02733573,-0.0000
 3879,-0.00063808,-0.00089514,0.00037221,-0.00791210,0.02355333,-0.0066
 4579,0.01680849,-0.02065861,0.05703045,0.00113585,0.00014824,-0.000549
 22,-0.00193045,0.00078458,0.00139734,-0.29575671,-0.05245272,-0.055600
 42,0.00027071,-0.00017853,0.00052515,-0.00006001,-0.00053939,0.0004270
 4,0.00063128,-0.00035357,-0.00028941,0.31961844,-0.00223991,-0.0019968
 0,-0.00525311,-0.01686760,-0.00376743,-0.00101732,-0.05143153,-0.05637
 035,-0.01128738,0.00192592,-0.00117785,-0.00042340,0.00030426,0.000238
 02,0.00054590,-0.00003630,0.00005067,0.00078941,0.05724242,0.05926870,
 -0.00287935,-0.00399212,-0.00550745,-0.02720098,-0.00292595,-0.0037417
 6,-0.05405209,-0.01079354,-0.05896837,0.00174652,-0.00138927,-0.000335
 34,0.00032009,0.00003391,0.00075506,0.00022600,0.00022206,0.00134509,0
 .06021949,0.01444379,0.06150173,0.00037604,0.00048878,0.00043938,0.000
 36798,-0.00189794,0.00079186,-0.11254080,0.11522762,-0.00940641,-0.001
 20164,-0.00040058,-0.00004862,0.00016724,0.00020237,0.00009890,0.00102
 869,-0.00050410,-0.00012167,-0.01432331,0.02751713,-0.00207826,0.12103
 814,-0.00119878,0.00085707,-0.00009722,0.00926955,-0.01438900,0.001172
 65,0.11493188,-0.24875036,0.01846135,0.00135409,-0.00068771,-0.0005041
 3,-0.00069948,0.00055843,0.00127944,-0.00037661,-0.00047721,-0.0032564
 9,-0.00360538,0.00697378,-0.00029453,-0.12730160,0.26888788,-0.0002785
 1,0.00168154,0.00106208,0.01798173,-0.02606710,0.00237322,-0.00994575,
 0.01934402,-0.04961849,-0.00114784,-0.00010858,0.00089965,-0.00049809,
 -0.00080166,0.00208403,-0.00037504,-0.00292425,-0.00503934,-0.00280837
 ,0.00625080,-0.00163431,0.01119822,-0.01756730,0.05204835,0.00070601,0
 .00065571,-0.00010956,-0.00067344,0.00022907,-0.00274433,-0.08852082,-
 0.05640933,0.07972886,0.00028193,0.00013218,-0.00044214,0.00051403,-0.
 00016299,-0.00013551,-0.00029918,0.00005086,0.00038613,-0.01048133,-0.
 01616641,0.02369477,0.00688094,0.00857248,-0.01358649,0.09134854,0.001
 31083,0.00071365,0.00161231,0.00766702,0.00998598,-0.01422751,-0.05743
 674,-0.12964287,0.11165492,-0.00057242,0.00033589,0.00037621,-0.001194
 42,-0.00158471,-0.00286350,0.00026516,0.00080451,0.00084947,-0.0013239
 1,-0.00383833,0.00349919,-0.01221082,-0.01374940,0.01973197,0.06277174
 ,0.13642994,0.00014359,0.00047396,0.00351912,0.01300773,0.01671386,-0.
 02233984,0.07840301,0.10976957,-0.19605929,-0.00052203,0.00041999,-0.0
 0045774,-0.00144279,-0.00428232,-0.00423444,-0.00008012,0.00000077,0.0
 0115522,-0.00274311,-0.00506435,0.00647168,-0.00001753,0.00037054,-0.0
 0130615,-0.08700946,-0.11929149,0.21420437,-0.00045072,0.02907686,-0.0
 1869042,0.00491300,0.00121366,-0.00179318,-0.00044391,-0.00006522,-0.0
 0000609,-0.06949078,-0.05232986,0.04409735,-0.00124756,-0.00028808,0.0
 0093889,-0.00012542,-0.00026435,0.00041412,-0.00001491,-0.00012499,-0.
 00015311,0.00005195,-0.00004234,-0.00009194,-0.00000270,0.00007968,0.0
 0005824,0.07220834,0.00920048,-0.02662005,0.01625508,-0.00408479,-0.00
 067758,-0.00143140,0.00064036,0.00038479,-0.00001064,-0.04731432,-0.17
 911487,0.11319628,-0.00017136,0.00077696,0.00055073,0.00025813,0.00004
 348,-0.00005415,0.00003279,0.00012322,0.00018176,0.00016850,-0.0000201
 1,0.00019382,-0.00006326,-0.00008411,-0.00014565,0.04394089,0.20467002
 ,-0.00684734,0.00388300,0.00302141,0.00149281,0.00159417,0.00068634,-0
 .00016248,0.00036581,-0.00023759,0.04233135,0.11468693,-0.15566157,0.0
 0050912,-0.00063747,-0.00010487,-0.00017862,-0.00008763,-0.00008735,-0
 .00000175,-0.00018806,0.00005897,0.00008932,-0.00026710,-0.00037741,0.
 00011929,-0.00019015,0.00018440,-0.04469313,-0.13108636,0.16229570,-0.
 01597690,0.02100613,0.02252418,0.00370496,0.00232335,0.00322282,-0.000
 35713,-0.00097700,-0.00058512,-0.05870922,0.01233062,0.03878363,-0.000
 48266,-0.00035765,-0.00026689,-0.00014295,-0.00017443,-0.00029333,0.00
 031871,0.00001266,0.00007353,-0.00165820,-0.00078662,-0.00086536,-0.00
 006680,0.00012174,-0.00034503,-0.00023946,0.00194359,0.00936302,0.0668
 0109,0.01846924,-0.01744708,-0.02010071,-0.00329617,-0.00130969,-0.001
 02432,-0.00009898,0.00057250,-0.00004957,0.01411724,-0.08259353,-0.081
 22550,0.00035127,0.00014056,0.00042001,0.00020260,0.00006362,0.0000246
 6,-0.00006851,0.00012089,0.00032264,-0.00089522,0.00016916,-0.00014559
 ,0.00019393,-0.00018775,0.00020235,-0.00464105,0.01048981,0.02138153,-
 0.02674561,0.09483495,0.00459728,-0.00222748,0.01122095,-0.00149703,-0
 .00067949,0.00019685,-0.00042733,-0.00148964,-0.00016662,0.04245709,-0
 .08337976,-0.26426131,0.00023691,0.00007732,-0.00014545,0.00016650,0.0
 0001483,0.00003802,-0.00017981,0.00082401,0.00036710,-0.00108768,0.000
 71732,-0.00050000,0.00021307,-0.00012982,-0.00032299,0.00206279,-0.007
 52980,-0.01820152,-0.04809598,0.09621747,0.28104910,-0.03302819,-0.006
 64748,-0.00866069,0.00026834,0.00503167,-0.00054486,0.00005890,0.00038
 174,0.00035846,-0.21487135,-0.10772872,-0.07237617,0.00014227,0.000163
 82,-0.00047210,-0.00138031,-0.00032884,-0.00024229,0.00006773,-0.00023
 365,-0.00013094,0.00016684,-0.00025285,0.00008326,-0.00004054,0.000045
 74,-0.00005604,-0.00465995,-0.00474137,-0.00214437,0.00686520,0.002315
 18,0.00158357,0.24651075,0.02965367,0.01147977,0.00939205,0.00231794,-
 0.00324178,0.00087506,0.00025996,-0.00058132,-0.00016825,-0.11939301,-
 0.12121331,-0.05001272,-0.00035175,0.00025311,0.00007890,0.00114627,0.
 00020216,0.00015092,-0.00015116,0.00030813,0.00010988,-0.00018308,0.00
 046044,0.00006694,-0.00001703,0.00002378,0.00001707,-0.01686635,-0.010
 10181,-0.00927204,-0.00864670,-0.00487693,-0.00251417,0.11210121,0.127
 27952,-0.00250748,0.00097114,0.00102959,0.00109306,0.00021873,-0.00020
 134,-0.00020566,-0.00038072,0.00018954,-0.07469345,-0.04723985,-0.0829
 1767,0.00028170,-0.00019208,0.00012182,-0.00009951,0.00001225,0.000155
 13,-0.00016227,0.00022094,0.00006660,-0.00007700,0.00040866,-0.0001587
 3,0.00014611,-0.00009755,0.00006445,0.01740240,0.01044816,0.00862711,-
 0.02353261,-0.01583268,-0.00935450,0.08239767,0.05142533,0.08235046,-0
 .00300027,-0.00198822,0.00174638,-0.00015095,-0.00270467,-0.00402956,0
 .00003871,-0.00020733,-0.00102113,0.00079173,-0.00077717,0.00004385,-0
 .16116652,-0.17136523,-0.02617440,-0.00096110,-0.00017830,0.00037540,0
 .00033348,0.00003975,0.00015359,-0.00030388,0.00016684,0.00037270,0.00
 008976,0.00031312,0.00000722,-0.00017237,0.00007734,-0.00018685,-0.000
 11640,0.00007213,0.00005534,-0.00004305,0.00010415,-0.00003245,0.16440
 068,-0.00083426,-0.00069372,0.00231011,-0.00887772,-0.00429798,-0.0072
 6723,0.00018066,0.00085499,-0.00060548,0.00101616,-0.00084889,0.000121
 62,-0.16696174,-0.19318375,-0.02597021,0.00075061,-0.00039962,0.000575
 61,0.00027684,0.00018073,0.00044265,-0.00002365,0.00001151,0.00023099,
 0.00017885,-0.00002186,-0.00006177,0.00025130,0.00025078,-0.00017394,-
 0.00012229,0.00016278,0.00004181,-0.00007750,0.00002450,0.00000514,0.1
 7877194,0.19966667,0.00468264,0.00390152,-0.00232225,0.01264920,0.0120
 7008,0.00815554,0.00003508,0.00020740,0.00113070,-0.00082144,0.0007149
 3,0.00004340,-0.02674947,-0.02832355,-0.06216093,-0.00042766,0.0009092
 1,-0.00088508,-0.00006891,0.00014702,-0.00063070,0.00019975,-0.0003649
 4,0.00000999,-0.00017682,-0.00010460,0.00026092,0.00019924,-0.00027849
 ,-0.00009115,0.00014354,-0.00014681,-0.00004603,0.00013023,-0.00007511
 ,-0.00002975,0.02702285,0.02908653,0.05460737,0.00117025,0.00129441,-0
 .00078432,0.00351926,0.00256596,0.00678330,-0.00031584,-0.00088139,0.0
 0198153,-0.00009054,0.00002508,0.00015562,-0.04028651,-0.03972551,-0.0
 5463304,-0.00005184,-0.00045396,0.00063406,0.00019053,0.00005826,0.000
 06074,-0.00004998,-0.00003117,-0.00003851,0.00026361,0.00016329,0.0005
 9631,-0.00032551,0.00011305,0.00030962,0.00005976,0.00002396,-0.000084
 73,-0.00005664,0.00002589,-0.00001051,0.00026018,-0.00452921,-0.016818
 23,0.03571327,0.00154627,0.00040833,-0.00161646,0.00383783,0.00876658,
 0.01658591,-0.00161552,-0.00211287,0.00131470,-0.00048741,0.00060996,-
 0.00025557,-0.04278929,-0.06965552,-0.09049394,0.00034291,0.00015774,-
 0.00090580,0.00018831,-0.00011338,0.00013953,-0.00018740,0.00015551,0.
 00011440,0.00003420,0.00081529,0.00087746,0.00005985,-0.00012052,-0.00
 000868,0.00007222,-0.00013930,0.00005740,-0.00002897,-0.00001628,0.000
 03253,-0.00232434,-0.00170614,-0.01774319,0.04135134,0.06295060,-0.000
 23109,-0.00030644,0.00263694,-0.00680473,-0.01153075,-0.01513758,0.001
 93724,0.00400215,-0.00230831,0.00029695,0.00016102,-0.00021695,-0.0585
 3043,-0.08454983,-0.30858988,-0.00015590,0.00033058,-0.00003006,-0.000
 16576,0.00001174,0.00025170,0.00001975,-0.00005824,0.00015710,-0.00008
 392,-0.00081944,-0.00113970,0.00025481,-0.00028934,-0.00011247,-0.0001
 2641,-0.00004348,0.00012638,0.00007426,-0.00007385,0.00005729,0.001667
 06,0.00126418,0.00195796,0.06184815,0.09190170,0.32234757\\-0.00000027
 ,0.00000024,-0.00000031,-0.00000025,-0.00000022,-0.00000014,0.00000002
 ,-0.00000050,0.00000012,0.00000006,0.00000049,-0.00000014,0.00000015,0
 .00000002,0.00000010,-0.00000037,-0.00000035,-0.00000028,0.00000006,-0
 .00000083,0.00000022,0.00000023,-0.00000031,0.00000030,-0.00000022,-0.
 00000060,-0.00000007,0.00000024,0.00000069,0.00000008,0.00000003,0.000
 00039,0.,-0.00000014,0.00000089,-0.00000032,0.00000039,-0.00000024,0.0
 0000038,0.00000007,0.00000034,0.00000005\\\@


 ACHIEVEMENT--  THE MAN WHO ROWS THE BOAT GENERALLY 
                DOESN'T HAVE TIME TO ROCK IT.

                   -- FROM THE BACK OF A SUGAR PACKET
 Job cpu time:       0 days  1 hours 50 minutes 44.3 seconds.
 Elapsed time:       0 days  0 hours  5 minutes 32.7 seconds.
 File lengths (MBytes):  RWF=   1376 Int=      0 D2E=      0 Chk=     32 Scr=     32
 Normal termination of Gaussian 16 at Sat Mar  9 02:07:30 2019.
