 Entering Gaussian System, Link 0=g16
 Input=BWWHSGPVJDTLAO-UHFFFAOYSA-N-u3_GeoFreq_a1.com
 Output=BWWHSGPVJDTLAO-UHFFFAOYSA-N-u3_GeoFreq_a1.log
 Initial command:
 /shared/centos7/gaussian/g16/l1.exe "/scratch/underkoffler.c/gaussian_scratch/Gau-28667.inp" -scrdir="/scratch/underkoffler.c/gaussian_scratch/"
 Entering Link 1 = /shared/centos7/gaussian/g16/l1.exe PID=     28668.
  
 Copyright (c) 1988,1990,1992,1993,1995,1998,2003,2009,2016,
            Gaussian, Inc.  All Rights Reserved.
  
 This is part of the Gaussian(R) 16 program.  It is based on
 the Gaussian(R) 09 system (copyright 2009, Gaussian, Inc.),
 the Gaussian(R) 03 system (copyright 2003, Gaussian, Inc.),
 the Gaussian(R) 98 system (copyright 1998, Gaussian, Inc.),
 the Gaussian(R) 94 system (copyright 1995, Gaussian, Inc.),
 the Gaussian 92(TM) system (copyright 1992, Gaussian, Inc.),
 the Gaussian 90(TM) system (copyright 1990, Gaussian, Inc.),
 the Gaussian 88(TM) system (copyright 1988, Gaussian, Inc.),
 the Gaussian 86(TM) system (copyright 1986, Carnegie Mellon
 University), and the Gaussian 82(TM) system (copyright 1983,
 Carnegie Mellon University). Gaussian is a federally registered
 trademark of Gaussian, Inc.
  
 This software contains proprietary and confidential information,
 including trade secrets, belonging to Gaussian, Inc.
  
 This software is provided under written license and may be
 used, copied, transmitted, or stored only in accord with that
 written license.
  
 The following legend is applicable only to US Government
 contracts under FAR:
  
                    RESTRICTED RIGHTS LEGEND
  
 Use, reproduction and disclosure by the US Government is
 subject to restrictions as set forth in subparagraphs (a)
 and (c) of the Commercial Computer Software - Restricted
 Rights clause in FAR 52.227-19.
  
 Gaussian, Inc.
 340 Quinnipiac St., Bldg. 40, Wallingford CT 06492
  
  
 ---------------------------------------------------------------
 Warning -- This program may not be used in any manner that
 competes with the business of Gaussian, Inc. or will provide
 assistance to any competitor of Gaussian, Inc.  The licensee
 of this program is prohibited from giving any competitor of
 Gaussian, Inc. access to this program.  By using this program,
 the user acknowledges that Gaussian, Inc. is engaged in the
 business of creating and licensing software in the field of
 computational chemistry and represents and warrants to the
 licensee that it is not a competitor of Gaussian, Inc. and that
 it will not use this program in any manner prohibited above.
 ---------------------------------------------------------------
  

 Cite this work as:
 Gaussian 16, Revision A.03,
 M. J. Frisch, G. W. Trucks, H. B. Schlegel, G. E. Scuseria, 
 M. A. Robb, J. R. Cheeseman, G. Scalmani, V. Barone, 
 G. A. Petersson, H. Nakatsuji, X. Li, M. Caricato, A. V. Marenich, 
 J. Bloino, B. G. Janesko, R. Gomperts, B. Mennucci, H. P. Hratchian, 
 J. V. Ortiz, A. F. Izmaylov, J. L. Sonnenberg, D. Williams-Young, 
 F. Ding, F. Lipparini, F. Egidi, J. Goings, B. Peng, A. Petrone, 
 T. Henderson, D. Ranasinghe, V. G. Zakrzewski, J. Gao, N. Rega, 
 G. Zheng, W. Liang, M. Hada, M. Ehara, K. Toyota, R. Fukuda, 
 J. Hasegawa, M. Ishida, T. Nakajima, Y. Honda, O. Kitao, H. Nakai, 
 T. Vreven, K. Throssell, J. A. Montgomery, Jr., J. E. Peralta, 
 F. Ogliaro, M. J. Bearpark, J. J. Heyd, E. N. Brothers, K. N. Kudin, 
 V. N. Staroverov, T. A. Keith, R. Kobayashi, J. Normand, 
 K. Raghavachari, A. P. Rendell, J. C. Burant, S. S. Iyengar, 
 J. Tomasi, M. Cossi, J. M. Millam, M. Klene, C. Adamo, R. Cammi, 
 J. W. Ochterski, R. L. Martin, K. Morokuma, O. Farkas, 
 J. B. Foresman, and D. J. Fox, Gaussian, Inc., Wallingford CT, 2016.
 
 ******************************************
 Gaussian 16:  EM64L-G16RevA.03 25-Dec-2016
                 6-Mar-2019 
 ******************************************
 ----------------------------------------------------------------------
 #p m062x/6-311+g(2df,2p) opt=(calcfc,verytight,gdiis,maxcycles=900) fr
 eq iop(7/33=1,2/16=3)
 ----------------------------------------------------------------------

 Warning!  Use of Opt=GDIIS is deprecated since it is seldom a good choice.

 1/6=900,7=1,10=4,18=20,19=11,26=3,38=1/1,3;
 2/9=110,12=2,16=3,17=6,18=5,40=1/2;
 3/5=4,6=6,7=214,11=2,25=1,30=1,71=2,74=-55,140=1/1,2,3;
 4//1;
 5/5=2,38=5/2;
 8/6=4,10=90,11=11/1;
 11/6=1,8=1,9=11,15=111,16=1/1,2,10;
 10/6=1,13=1/2;
 6/7=2,8=2,9=2,10=2,28=1/1;
 7/10=1,18=20,25=1,33=1/1,2,3,16;
 1/6=900,7=1,10=4,18=20,19=11,26=3/3(2);
 2/9=110,16=3/2;
 99//99;
 2/9=110,16=3/2;
 3/5=4,6=6,7=214,11=2,25=1,30=1,71=1,74=-55/1,2,3;
 4/5=5,16=3,69=1/1;
 5/5=2,38=5/2;
 7/33=1/1,2,3,16;
 1/6=900,7=1,18=20,19=11,26=3/3(-5);
 2/9=110,16=3/2;
 6/7=2,8=2,9=2,10=2,19=2,28=1/1;
 99/9=1/99;
 Leave Link    1 at Wed Mar  6 23:46:17 2019, MaxMem=           0 cpu:               0.2 elap:               1.6
 (Enter /shared/centos7/gaussian/g16/l101.exe)
 ------------------------------
 Gaussian input prepared by ASE
 ------------------------------
 Symbolic Z-matrix:
 Charge =  0 Multiplicity = 2
 O                     0.518    -0.5604    0.9624 
 C                    -0.1946   -0.1388   -0.1557 
 C                    -1.50007   0.41417   0.34539 
 C                     0.65973   0.885    -0.86108 
 C                     1.7254   -1.1547    0.6585 
 H                    -0.41729  -0.98888  -0.81285 
 H                    -2.08191  -0.46034   0.73344 
 H                    -2.11125   0.86496  -0.45113 
 H                    -1.30661   1.11342   1.19719 
 H                     0.66259   1.85876  -0.35335 
 H                     0.41466   0.93596  -1.9408 
 H                     1.71181   0.50453  -0.79959 
 H                     1.66439  -1.65251  -0.3259 
 H                     2.09056  -1.83026   1.46651 
 
 Add atom      5 valence  3 ND=      2 dihedral       1      5     13     14
 ITRead=  0  0  0  0  0  0  0  0  0  0  0  0  0  0
 MicOpt= -1 -1 -1 -1 -1 -1 -1 -1 -1 -1 -1 -1 -1 -1
 NAtoms=     14 NQM=       14 NQMF=       0 NMMI=      0 NMMIF=      0
                NMic=       0 NMicF=      0.
                    Isotopes and Nuclear Properties:
 (Nuclear quadrupole moments (NQMom) in fm**2, nuclear magnetic moments (NMagM)
  in nuclear magnetons)

  Atom         1           2           3           4           5           6           7           8           9          10
 IAtWgt=          16          12          12          12          12           1           1           1           1           1
 AtmWgt=  15.9949146  12.0000000  12.0000000  12.0000000  12.0000000   1.0078250   1.0078250   1.0078250   1.0078250   1.0078250
 NucSpn=           0           0           0           0           0           1           1           1           1           1
 AtZEff=  -0.0000000  -0.0000000  -0.0000000  -0.0000000  -0.0000000  -0.0000000  -0.0000000  -0.0000000  -0.0000000  -0.0000000
 NQMom=    0.0000000   0.0000000   0.0000000   0.0000000   0.0000000   0.0000000   0.0000000   0.0000000   0.0000000   0.0000000
 NMagM=    0.0000000   0.0000000   0.0000000   0.0000000   0.0000000   2.7928460   2.7928460   2.7928460   2.7928460   2.7928460
 AtZNuc=   8.0000000   6.0000000   6.0000000   6.0000000   6.0000000   1.0000000   1.0000000   1.0000000   1.0000000   1.0000000

  Atom        11          12          13          14
 IAtWgt=           1           1           1           1
 AtmWgt=   1.0078250   1.0078250   1.0078250   1.0078250
 NucSpn=           1           1           1           1
 AtZEff=  -0.0000000  -0.0000000  -0.0000000  -0.0000000
 NQMom=    0.0000000   0.0000000   0.0000000   0.0000000
 NMagM=    2.7928460   2.7928460   2.7928460   2.7928460
 AtZNuc=   1.0000000   1.0000000   1.0000000   1.0000000
 Leave Link  101 at Wed Mar  6 23:46:18 2019, MaxMem=   104857600 cpu:               0.3 elap:               0.4
 (Enter /shared/centos7/gaussian/g16/l103.exe)

 GradGradGradGradGradGradGradGradGradGradGradGradGradGradGradGradGradGrad
 Berny optimization.
 Initialization pass.
                           ----------------------------
                           !    Initial Parameters    !
                           ! (Angstroms and Degrees)  !
 --------------------------                            --------------------------
 ! Name  Definition              Value          Derivative Info.                !
 --------------------------------------------------------------------------------
 ! R1    R(1,2)                  1.3913         calculate D2E/DX2 analytically  !
 ! R2    R(1,5)                  1.3796         calculate D2E/DX2 analytically  !
 ! R3    R(2,3)                  1.5037         calculate D2E/DX2 analytically  !
 ! R4    R(2,4)                  1.5085         calculate D2E/DX2 analytically  !
 ! R5    R(2,6)                  1.0973         calculate D2E/DX2 analytically  !
 ! R6    R(3,7)                  1.1198         calculate D2E/DX2 analytically  !
 ! R7    R(3,8)                  1.1005         calculate D2E/DX2 analytically  !
 ! R8    R(3,9)                  1.1189         calculate D2E/DX2 analytically  !
 ! R9    R(4,10)                 1.0982         calculate D2E/DX2 analytically  !
 ! R10   R(4,11)                 1.1084         calculate D2E/DX2 analytically  !
 ! R11   R(4,12)                 1.1205         calculate D2E/DX2 analytically  !
 ! R12   R(5,13)                 1.1048         calculate D2E/DX2 analytically  !
 ! R13   R(5,14)                 1.1147         calculate D2E/DX2 analytically  !
 ! A1    A(2,1,5)              113.6882         calculate D2E/DX2 analytically  !
 ! A2    A(1,2,3)              106.756          calculate D2E/DX2 analytically  !
 ! A3    A(1,2,4)              106.9403         calculate D2E/DX2 analytically  !
 ! A4    A(1,2,6)              110.5165         calculate D2E/DX2 analytically  !
 ! A5    A(3,2,4)              113.4483         calculate D2E/DX2 analytically  !
 ! A6    A(3,2,6)              107.9547         calculate D2E/DX2 analytically  !
 ! A7    A(4,2,6)              111.1414         calculate D2E/DX2 analytically  !
 ! A8    A(2,3,7)              106.2238         calculate D2E/DX2 analytically  !
 ! A9    A(2,3,8)              113.0528         calculate D2E/DX2 analytically  !
 ! A10   A(2,3,9)              109.475          calculate D2E/DX2 analytically  !
 ! A11   A(7,3,8)              106.388          calculate D2E/DX2 analytically  !
 ! A12   A(7,3,9)              108.3057         calculate D2E/DX2 analytically  !
 ! A13   A(8,3,9)              113.0183         calculate D2E/DX2 analytically  !
 ! A14   A(2,4,10)             112.7726         calculate D2E/DX2 analytically  !
 ! A15   A(2,4,11)             111.1928         calculate D2E/DX2 analytically  !
 ! A16   A(2,4,12)             106.0011         calculate D2E/DX2 analytically  !
 ! A17   A(10,4,11)            114.2175         calculate D2E/DX2 analytically  !
 ! A18   A(10,4,12)            105.8587         calculate D2E/DX2 analytically  !
 ! A19   A(11,4,12)            106.0631         calculate D2E/DX2 analytically  !
 ! A20   A(1,5,13)             110.0016         calculate D2E/DX2 analytically  !
 ! A21   A(1,5,14)             112.835          calculate D2E/DX2 analytically  !
 ! A22   A(13,5,14)            113.0091         calculate D2E/DX2 analytically  !
 ! D1    D(5,1,2,3)            177.1554         calculate D2E/DX2 analytically  !
 ! D2    D(5,1,2,4)            -61.1009         calculate D2E/DX2 analytically  !
 ! D3    D(5,1,2,6)             60.0            calculate D2E/DX2 analytically  !
 ! D4    D(2,1,5,13)           -30.0            calculate D2E/DX2 analytically  !
 ! D5    D(2,1,5,14)          -157.2011         calculate D2E/DX2 analytically  !
 ! D6    D(1,2,3,7)            -68.9948         calculate D2E/DX2 analytically  !
 ! D7    D(1,2,3,8)            174.6988         calculate D2E/DX2 analytically  !
 ! D8    D(1,2,3,9)             47.74           calculate D2E/DX2 analytically  !
 ! D9    D(4,2,3,7)            173.4711         calculate D2E/DX2 analytically  !
 ! D10   D(4,2,3,8)             57.1647         calculate D2E/DX2 analytically  !
 ! D11   D(4,2,3,9)            -69.794          calculate D2E/DX2 analytically  !
 ! D12   D(6,2,3,7)             49.8422         calculate D2E/DX2 analytically  !
 ! D13   D(6,2,3,8)            -66.4642         calculate D2E/DX2 analytically  !
 ! D14   D(6,2,3,9)            166.577          calculate D2E/DX2 analytically  !
 ! D15   D(1,2,4,10)           -75.7592         calculate D2E/DX2 analytically  !
 ! D16   D(1,2,4,11)           154.455          calculate D2E/DX2 analytically  !
 ! D17   D(1,2,4,12)            39.6258         calculate D2E/DX2 analytically  !
 ! D18   D(3,2,4,10)            41.6675         calculate D2E/DX2 analytically  !
 ! D19   D(3,2,4,11)           -88.1182         calculate D2E/DX2 analytically  !
 ! D20   D(3,2,4,12)           157.0525         calculate D2E/DX2 analytically  !
 ! D21   D(6,2,4,10)           163.5371         calculate D2E/DX2 analytically  !
 ! D22   D(6,2,4,11)            33.7513         calculate D2E/DX2 analytically  !
 ! D23   D(6,2,4,12)           -81.0779         calculate D2E/DX2 analytically  !
 ! D24   D(1,5,13,14)         -127.1039         calculate D2E/DX2 analytically  !
 --------------------------------------------------------------------------------
 Trust Radius=3.00D-01 FncErr=1.00D-07 GrdErr=1.00D-06 EigMax=2.50D+02 EigMin=1.00D-04
 Number of steps in this run=    100 maximum allowed number of steps=    100.
 GradGradGradGradGradGradGradGradGradGradGradGradGradGradGradGradGradGrad

 Leave Link  103 at Wed Mar  6 23:46:18 2019, MaxMem=   104857600 cpu:               0.0 elap:               0.0
 (Enter /shared/centos7/gaussian/g16/l202.exe)
                          Input orientation:                          
 ---------------------------------------------------------------------
 Center     Atomic      Atomic             Coordinates (Angstroms)
 Number     Number       Type             X           Y           Z
 ---------------------------------------------------------------------
      1          8           0        0.518000   -0.560400    0.962400
      2          6           0       -0.194600   -0.138800   -0.155700
      3          6           0       -1.500069    0.414173    0.345391
      4          6           0        0.659726    0.884998   -0.861085
      5          6           0        1.725400   -1.154700    0.658500
      6          1           0       -0.417295   -0.988877   -0.812854
      7          1           0       -2.081908   -0.460340    0.733440
      8          1           0       -2.111250    0.864959   -0.451130
      9          1           0       -1.306607    1.113417    1.197189
     10          1           0        0.662593    1.858756   -0.353354
     11          1           0        0.414663    0.935959   -1.940805
     12          1           0        1.711809    0.504529   -0.799586
     13          1           0        1.664394   -1.652512   -0.325904
     14          1           0        2.090557   -1.830257    1.466505
 ---------------------------------------------------------------------
                    Distance matrix (angstroms):
                    1          2          3          4          5
     1  O    0.000000
     2  C    1.391292   0.000000
     3  C    2.324456   1.503702   0.000000
     4  C    2.331171   1.508510   2.518327   0.000000
     5  C    1.379624   2.319779   3.600424   2.757746   0.000000
     6  H    2.051803   1.097304   2.117187   2.161876   2.604519
     7  H    2.611888   2.110898   1.119773   3.445142   3.870833
     8  H    3.307971   2.183657   1.100544   2.801209   4.475509
     9  H    2.487163   2.152885   1.118896   2.855719   3.824605
    10  H    2.757613   2.182676   2.692985   1.098182   3.351764
    11  H    3.267777   2.170923   3.027400   1.108354   3.584030
    12  H    2.379885   2.112548   3.411055   1.120454   2.208901
    13  H    2.041238   2.403362   3.838704   2.781138   1.104803
    14  H    2.083169   3.273304   4.380292   3.851955   1.114715
                    6          7          8          9         10
     6  H    0.000000
     7  H    2.332663   0.000000
     8  H    2.537132   1.777775   0.000000
     9  H    3.041511   1.814626   1.850983   0.000000
    10  H    3.079985   3.753880   2.948117   2.614854   0.000000
    11  H    2.381054   3.915878   2.933326   3.583471   1.852842
    12  H    2.600677   4.203978   3.855789   3.669971   1.770284
    13  H    2.238517   4.071641   4.539694   4.335553   3.651487
    14  H    3.491807   4.452362   5.347588   4.503162   4.354283
                   11         12         13         14
    11  H    0.000000
    12  H    1.780758   0.000000
    13  H    3.296955   2.208948   0.000000
    14  H    4.697907   3.275645   1.850930   0.000000
 Stoichiometry    C4H9O(2)
 Framework group  C1[X(C4H9O)]
 Deg. of freedom    36
 Full point group                 C1      NOp   1
 Largest Abelian subgroup         C1      NOp   1
 Largest concise Abelian subgroup C1      NOp   1
                         Standard orientation:                         
 ---------------------------------------------------------------------
 Center     Atomic      Atomic             Coordinates (Angstroms)
 Number     Number       Type             X           Y           Z
 ---------------------------------------------------------------------
      1          8           0       -0.651547   -0.669234   -0.287274
      2          6           0        0.388403    0.008227    0.341410
      3          6           0        1.658140   -0.707376   -0.028458
      4          6           0        0.340390    1.435530   -0.144494
      5          6           0       -1.900860   -0.164039    0.008287
      6          1           0        0.276813   -0.042588    1.431841
      7          1           0        1.619580   -1.700161    0.488051
      8          1           0        2.562111   -0.199984    0.341119
      9          1           0        1.677395   -0.886284   -1.132791
     10          1           0        0.729382    1.550455   -1.165023
     11          1           0        0.792986    2.125986    0.595017
     12          1           0       -0.745315    1.707136   -0.198264
     13          1           0       -1.901047    0.274130    1.022485
     14          1           0       -2.715970   -0.908872   -0.144711
 ---------------------------------------------------------------------
 Rotational constants (GHZ):           8.1240535           4.1840296           3.0812081
 Leave Link  202 at Wed Mar  6 23:46:18 2019, MaxMem=   104857600 cpu:               0.0 elap:               0.0
 (Enter /shared/centos7/gaussian/g16/l301.exe)
 Standard basis: 6-311+G(2df,2p) (5D, 7F)
 Ernie: Thresh=  0.10000D-02 Tol=  0.10000D-05 Strict=F.
 There are   276 symmetry adapted cartesian basis functions of A   symmetry.
 There are   251 symmetry adapted basis functions of A   symmetry.
   251 basis functions,   359 primitive gaussians,   276 cartesian basis functions
    21 alpha electrons       20 beta electrons
       nuclear repulsion energy       190.3910594388 Hartrees.
 IExCor= 4336 DFT=T Ex+Corr=M062X ExCW=0 ScaHFX=  0.540000
 ScaDFX=  1.000000  1.000000  1.000000  1.000000 ScalE2=  1.000000  1.000000
 IRadAn=      5 IRanWt=     -1 IRanGd=            0 ICorTp=0 IEmpDi=  4
 NAtoms=   14 NActive=   14 NUniq=   14 SFac= 1.00D+00 NAtFMM=   60 NAOKFM=F Big=F
 Integral buffers will be    131072 words long.
 Raffenetti 2 integral format.
 Two-electron integral symmetry is turned on.
 Leave Link  301 at Wed Mar  6 23:46:18 2019, MaxMem=   104857600 cpu:               0.1 elap:               0.1
 (Enter /shared/centos7/gaussian/g16/l302.exe)
 NPDir=0 NMtPBC=     1 NCelOv=     1 NCel=       1 NClECP=     1 NCelD=      1
         NCelK=      1 NCelE2=     1 NClLst=     1 CellRange=     0.0.
 One-electron integrals computed using PRISM.
 One-electron integral symmetry used in STVInt
 NBasis=   251 RedAO= T EigKep=  3.96D-05  NBF=   251
 NBsUse=   251 1.00D-06 EigRej= -1.00D+00 NBFU=   251
 Precomputing XC quadrature grid using
 IXCGrd= 4 IRadAn=           5 IRanWt=          -1 IRanGd=           0 AccXCQ= 0.00D+00.
 Generated NRdTot=       0 NPtTot=           0 NUsed=           0 NTot=          32
 NSgBfM=   276   276   276   276   276 MxSgAt=    14 MxSgA2=    14.
 Leave Link  302 at Wed Mar  6 23:46:19 2019, MaxMem=   104857600 cpu:               0.6 elap:               0.6
 (Enter /shared/centos7/gaussian/g16/l303.exe)
 DipDrv:  MaxL=1.
 Leave Link  303 at Wed Mar  6 23:46:19 2019, MaxMem=   104857600 cpu:               0.1 elap:               0.2
 (Enter /shared/centos7/gaussian/g16/l401.exe)
 ExpMin= 4.38D-02 ExpMax= 8.59D+03 ExpMxC= 1.30D+03 IAcc=3 IRadAn=         5 AccDes= 0.00D+00
 Harris functional with IExCor= 1009 and IRadAn=       5 diagonalized for initial guess.
 HarFok:  IExCor= 1009 AccDes= 0.00D+00 IRadAn=         5 IDoV= 1 UseB2=F ITyADJ=14
 ICtDFT=  3500011 ScaDFX=  1.000000  1.000000  1.000000  1.000000
 FoFCou: FMM=F IPFlag=           0 FMFlag=      100000 FMFlg1=           0
         NFxFlg=           0 DoJE=T BraDBF=F KetDBF=T FulRan=T
         wScrn=  0.000000 ICntrl=       500 IOpCl=  0 I1Cent=   200000004 NGrid=           0
         NMat0=    1 NMatS0=      1 NMatT0=    0 NMatD0=    1 NMtDS0=    0 NMtDT0=    0
 Petite list used in FoFCou.
 Harris En= -232.860553868973    
 JPrj=0 DoOrth=F DoCkMO=F.
 Initial guess <Sx>= 0.0000 <Sy>= 0.0000 <Sz>= 0.5000 <S**2>= 0.7500 S= 0.5000
 Leave Link  401 at Wed Mar  6 23:46:27 2019, MaxMem=   104857600 cpu:               7.7 elap:               7.7
 (Enter /shared/centos7/gaussian/g16/l502.exe)
 Integral symmetry usage will be decided dynamically.
 UHF open shell SCF:
 Using DIIS extrapolation, IDIIS=  1040.
 NGot=   104857600 LenX=   104700994 LenY=   104624377
 Requested convergence on RMS density matrix=1.00D-08 within 128 cycles.
 Requested convergence on MAX density matrix=1.00D-06.
 Requested convergence on             energy=1.00D-06.
 No special actions if energy rises.
 Fock matrices will be formed incrementally for  20 cycles.

 Cycle   1  Pass 1  IDiag  1:
 FoFJK:  IHMeth= 1 ICntrl=       0 DoSepK=F KAlg= 0 I1Cent=           0 FoldK=F
 IRaf= 990000000 NMat=       1 IRICut=       1 DoRegI=T DoRafI=F ISym2E= 0 IDoP0=0 IntGTp=1.
 FoFCou: FMM=F IPFlag=           0 FMFlag=      100000 FMFlg1=           0
         NFxFlg=           0 DoJE=F BraDBF=F KetDBF=F FulRan=T
         wScrn=  0.000000 ICntrl=         0 IOpCl=  1 I1Cent=           0 NGrid=           0
         NMat0=    1 NMatS0=      1 NMatT0=    0 NMatD0=    1 NMtDS0=    0 NMtDT0=    0
 Symmetry not used in FoFCou.
 E= -232.775040066467    
 DIIS: error= 1.97D-02 at cycle   1 NSaved=   1.
 NSaved= 1 IEnMin= 1 EnMin= -232.775040066467     IErMin= 1 ErrMin= 1.97D-02
 ErrMax= 1.97D-02  0.00D+00 EMaxC= 1.00D-01 BMatC= 8.06D-01 BMatP= 8.06D-01
 IDIUse=3 WtCom= 8.03D-01 WtEn= 1.97D-01
 Coeff-Com:  0.100D+01
 Coeff-En:   0.100D+01
 Coeff:      0.100D+01
 Gap=     0.260 Goal=   None    Shift=    0.000
 Gap=     0.350 Goal=   None    Shift=    0.000
 GapD=    0.260 DampG=1.000 DampE=0.500 DampFc=0.5000 IDamp=-1.
 Damping current iteration by 5.00D-01
 RMSDP=2.30D-03 MaxDP=1.12D-01              OVMax= 1.44D-01

 Cycle   2  Pass 1  IDiag  1:
 RMSU=  1.12D-03    CP:  9.71D-01
 E= -232.864581553967     Delta-E=       -0.089541487500 Rises=F Damp=T
 DIIS: error= 4.78D-03 at cycle   2 NSaved=   2.
 NSaved= 2 IEnMin= 2 EnMin= -232.864581553967     IErMin= 2 ErrMin= 4.78D-03
 ErrMax= 4.78D-03  0.00D+00 EMaxC= 1.00D-01 BMatC= 5.69D-02 BMatP= 8.06D-01
 IDIUse=3 WtCom= 9.52D-01 WtEn= 4.78D-02
 Coeff-Com: -0.145D+00 0.114D+01
 Coeff-En:   0.000D+00 0.100D+01
 Coeff:     -0.138D+00 0.114D+01
 Gap=     0.275 Goal=   None    Shift=    0.000
 Gap=     0.378 Goal=   None    Shift=    0.000
 RMSDP=9.40D-04 MaxDP=4.75D-02 DE=-8.95D-02 OVMax= 7.28D-02

 Cycle   3  Pass 1  IDiag  1:
 RMSU=  9.21D-04    CP:  9.58D-01  1.13D+00
 E= -232.946323706718     Delta-E=       -0.081742152751 Rises=F Damp=F
 DIIS: error= 3.03D-03 at cycle   3 NSaved=   3.
 NSaved= 3 IEnMin= 3 EnMin= -232.946323706718     IErMin= 3 ErrMin= 3.03D-03
 ErrMax= 3.03D-03  0.00D+00 EMaxC= 1.00D-01 BMatC= 7.82D-03 BMatP= 5.69D-02
 IDIUse=3 WtCom= 9.70D-01 WtEn= 3.03D-02
 Coeff-Com: -0.799D-01 0.267D+00 0.813D+00
 Coeff-En:   0.000D+00 0.000D+00 0.100D+01
 Coeff:     -0.775D-01 0.259D+00 0.819D+00
 Gap=     0.275 Goal=   None    Shift=    0.000
 Gap=     0.337 Goal=   None    Shift=    0.000
 RMSDP=2.22D-04 MaxDP=9.01D-03 DE=-8.17D-02 OVMax= 1.41D-02

 Cycle   4  Pass 1  IDiag  1:
 RMSU=  2.01D-04    CP:  9.53D-01  1.20D+00  1.02D+00
 E= -232.947968879913     Delta-E=       -0.001645173194 Rises=F Damp=F
 DIIS: error= 1.11D-03 at cycle   4 NSaved=   4.
 NSaved= 4 IEnMin= 4 EnMin= -232.947968879913     IErMin= 4 ErrMin= 1.11D-03
 ErrMax= 1.11D-03  0.00D+00 EMaxC= 1.00D-01 BMatC= 1.89D-03 BMatP= 7.82D-03
 IDIUse=3 WtCom= 9.89D-01 WtEn= 1.11D-02
 Coeff-Com: -0.260D-01 0.621D-01 0.364D+00 0.600D+00
 Coeff-En:   0.000D+00 0.000D+00 0.000D+00 0.100D+01
 Coeff:     -0.257D-01 0.614D-01 0.360D+00 0.605D+00
 Gap=     0.273 Goal=   None    Shift=    0.000
 Gap=     0.343 Goal=   None    Shift=    0.000
 RMSDP=7.36D-05 MaxDP=4.46D-03 DE=-1.65D-03 OVMax= 1.42D-02

 Cycle   5  Pass 1  IDiag  1:
 RMSU=  6.33D-05    CP:  9.53D-01  1.19D+00  1.03D+00  8.29D-01
 E= -232.948447293197     Delta-E=       -0.000478413284 Rises=F Damp=F
 DIIS: error= 5.27D-04 at cycle   5 NSaved=   5.
 NSaved= 5 IEnMin= 5 EnMin= -232.948447293197     IErMin= 5 ErrMin= 5.27D-04
 ErrMax= 5.27D-04  0.00D+00 EMaxC= 1.00D-01 BMatC= 2.94D-04 BMatP= 1.89D-03
 IDIUse=3 WtCom= 9.95D-01 WtEn= 5.27D-03
 Coeff-Com:  0.443D-03-0.105D-01 0.364D-01 0.267D+00 0.707D+00
 Coeff-En:   0.000D+00 0.000D+00 0.000D+00 0.000D+00 0.100D+01
 Coeff:      0.441D-03-0.104D-01 0.362D-01 0.266D+00 0.708D+00
 Gap=     0.274 Goal=   None    Shift=    0.000
 Gap=     0.344 Goal=   None    Shift=    0.000
 RMSDP=3.78D-05 MaxDP=1.40D-03 DE=-4.78D-04 OVMax= 5.36D-03

 Cycle   6  Pass 1  IDiag  1:
 RMSU=  2.71D-05    CP:  9.53D-01  1.19D+00  1.05D+00  9.23D-01  1.21D+00
 E= -232.948548905431     Delta-E=       -0.000101612235 Rises=F Damp=F
 DIIS: error= 1.79D-04 at cycle   6 NSaved=   6.
 NSaved= 6 IEnMin= 6 EnMin= -232.948548905431     IErMin= 6 ErrMin= 1.79D-04
 ErrMax= 1.79D-04  0.00D+00 EMaxC= 1.00D-01 BMatC= 4.83D-05 BMatP= 2.94D-04
 IDIUse=3 WtCom= 9.98D-01 WtEn= 1.79D-03
 Coeff-Com:  0.760D-02-0.193D-01-0.971D-01-0.573D-01 0.891D-01 0.108D+01
 Coeff-En:   0.000D+00 0.000D+00 0.000D+00 0.000D+00 0.000D+00 0.100D+01
 Coeff:      0.758D-02-0.192D-01-0.969D-01-0.571D-01 0.890D-01 0.108D+01
 Gap=     0.275 Goal=   None    Shift=    0.000
 Gap=     0.344 Goal=   None    Shift=    0.000
 RMSDP=3.69D-05 MaxDP=1.43D-03 DE=-1.02D-04 OVMax= 7.21D-03

 Cycle   7  Pass 1  IDiag  1:
 RMSU=  1.54D-05    CP:  9.53D-01  1.19D+00  1.06D+00  1.03D+00  1.54D+00
                    CP:  1.46D+00
 E= -232.948596915050     Delta-E=       -0.000048009619 Rises=F Damp=F
 DIIS: error= 1.22D-04 at cycle   7 NSaved=   7.
 NSaved= 7 IEnMin= 7 EnMin= -232.948596915050     IErMin= 7 ErrMin= 1.22D-04
 ErrMax= 1.22D-04  0.00D+00 EMaxC= 1.00D-01 BMatC= 1.85D-05 BMatP= 4.83D-05
 IDIUse=3 WtCom= 9.99D-01 WtEn= 1.22D-03
 Coeff-Com:  0.189D-02-0.256D-02-0.426D-01-0.833D-01-0.242D+00 0.427D+00
 Coeff-Com:  0.942D+00
 Coeff-En:   0.000D+00 0.000D+00 0.000D+00 0.000D+00 0.000D+00 0.000D+00
 Coeff-En:   0.100D+01
 Coeff:      0.189D-02-0.255D-02-0.425D-01-0.832D-01-0.242D+00 0.426D+00
 Coeff:      0.942D+00
 Gap=     0.275 Goal=   None    Shift=    0.000
 Gap=     0.345 Goal=   None    Shift=    0.000
 RMSDP=2.05D-05 MaxDP=6.78D-04 DE=-4.80D-05 OVMax= 4.20D-03

 Cycle   8  Pass 1  IDiag  1:
 RMSU=  8.60D-06    CP:  9.53D-01  1.19D+00  1.06D+00  1.07D+00  1.71D+00
                    CP:  1.87D+00  1.35D+00
 E= -232.948609437465     Delta-E=       -0.000012522416 Rises=F Damp=F
 DIIS: error= 2.70D-05 at cycle   8 NSaved=   8.
 NSaved= 8 IEnMin= 8 EnMin= -232.948609437465     IErMin= 8 ErrMin= 2.70D-05
 ErrMax= 2.70D-05  0.00D+00 EMaxC= 1.00D-01 BMatC= 1.12D-06 BMatP= 1.85D-05
 IDIUse=1 WtCom= 1.00D+00 WtEn= 0.00D+00
 Coeff-Com: -0.130D-02 0.326D-02 0.137D-01 0.102D-01-0.316D-01-0.131D+00
 Coeff-Com:  0.390D-01 0.110D+01
 Coeff:     -0.130D-02 0.326D-02 0.137D-01 0.102D-01-0.316D-01-0.131D+00
 Coeff:      0.390D-01 0.110D+01
 Gap=     0.275 Goal=   None    Shift=    0.000
 Gap=     0.345 Goal=   None    Shift=    0.000
 RMSDP=6.35D-06 MaxDP=1.78D-04 DE=-1.25D-05 OVMax= 1.14D-03

 Cycle   9  Pass 1  IDiag  1:
 RMSU=  3.21D-06    CP:  9.53D-01  1.19D+00  1.06D+00  1.08D+00  1.73D+00
                    CP:  1.99D+00  1.56D+00  1.23D+00
 E= -232.948610369970     Delta-E=       -0.000000932504 Rises=F Damp=F
 DIIS: error= 1.02D-05 at cycle   9 NSaved=   9.
 NSaved= 9 IEnMin= 9 EnMin= -232.948610369970     IErMin= 9 ErrMin= 1.02D-05
 ErrMax= 1.02D-05  0.00D+00 EMaxC= 1.00D-01 BMatC= 1.38D-07 BMatP= 1.12D-06
 IDIUse=1 WtCom= 1.00D+00 WtEn= 0.00D+00
 Coeff-Com: -0.488D-03 0.100D-02 0.826D-02 0.132D-01 0.221D-01-0.804D-01
 Coeff-Com: -0.106D+00 0.236D+00 0.907D+00
 Coeff:     -0.488D-03 0.100D-02 0.826D-02 0.132D-01 0.221D-01-0.804D-01
 Coeff:     -0.106D+00 0.236D+00 0.907D+00
 Gap=     0.275 Goal=   None    Shift=    0.000
 Gap=     0.345 Goal=   None    Shift=    0.000
 RMSDP=1.54D-06 MaxDP=5.65D-05 DE=-9.33D-07 OVMax= 2.40D-04

 Cycle  10  Pass 1  IDiag  1:
 RMSU=  8.80D-07    CP:  9.53D-01  1.19D+00  1.06D+00  1.08D+00  1.73D+00
                    CP:  2.01D+00  1.60D+00  1.34D+00  1.12D+00
 E= -232.948610441596     Delta-E=       -0.000000071626 Rises=F Damp=F
 DIIS: error= 2.46D-06 at cycle  10 NSaved=  10.
 NSaved=10 IEnMin=10 EnMin= -232.948610441596     IErMin=10 ErrMin= 2.46D-06
 ErrMax= 2.46D-06  0.00D+00 EMaxC= 1.00D-01 BMatC= 1.52D-08 BMatP= 1.38D-07
 IDIUse=1 WtCom= 1.00D+00 WtEn= 0.00D+00
 Coeff-Com:  0.564D-04-0.149D-03 0.218D-03 0.181D-02 0.558D-02-0.207D-02
 Coeff-Com: -0.207D-01-0.541D-01 0.150D+00 0.919D+00
 Coeff:      0.564D-04-0.149D-03 0.218D-03 0.181D-02 0.558D-02-0.207D-02
 Coeff:     -0.207D-01-0.541D-01 0.150D+00 0.919D+00
 Gap=     0.275 Goal=   None    Shift=    0.000
 Gap=     0.345 Goal=   None    Shift=    0.000
 RMSDP=4.57D-07 MaxDP=2.54D-05 DE=-7.16D-08 OVMax= 4.49D-05

 Cycle  11  Pass 1  IDiag  1:
 RMSU=  2.69D-07    CP:  9.53D-01  1.19D+00  1.06D+00  1.08D+00  1.73D+00
                    CP:  2.01D+00  1.60D+00  1.35D+00  1.21D+00  1.22D+00
 E= -232.948610448065     Delta-E=       -0.000000006470 Rises=F Damp=F
 DIIS: error= 1.09D-06 at cycle  11 NSaved=  11.
 NSaved=11 IEnMin=11 EnMin= -232.948610448065     IErMin=11 ErrMin= 1.09D-06
 ErrMax= 1.09D-06  0.00D+00 EMaxC= 1.00D-01 BMatC= 2.98D-09 BMatP= 1.52D-08
 IDIUse=1 WtCom= 1.00D+00 WtEn= 0.00D+00
 Coeff-Com:  0.876D-04-0.188D-03-0.117D-02-0.137D-02-0.224D-02 0.117D-01
 Coeff-Com:  0.103D-01-0.515D-01-0.106D+00 0.273D+00 0.867D+00
 Coeff:      0.876D-04-0.188D-03-0.117D-02-0.137D-02-0.224D-02 0.117D-01
 Coeff:      0.103D-01-0.515D-01-0.106D+00 0.273D+00 0.867D+00
 Gap=     0.275 Goal=   None    Shift=    0.000
 Gap=     0.345 Goal=   None    Shift=    0.000
 RMSDP=2.00D-07 MaxDP=8.93D-06 DE=-6.47D-09 OVMax= 1.59D-05

 Cycle  12  Pass 1  IDiag  1:
 RMSU=  1.09D-07    CP:  9.53D-01  1.19D+00  1.06D+00  1.08D+00  1.73D+00
                    CP:  2.01D+00  1.60D+00  1.35D+00  1.24D+00  1.35D+00
                    CP:  1.09D+00
 E= -232.948610449236     Delta-E=       -0.000000001171 Rises=F Damp=F
 DIIS: error= 2.81D-07 at cycle  12 NSaved=  12.
 NSaved=12 IEnMin=12 EnMin= -232.948610449236     IErMin=12 ErrMin= 2.81D-07
 ErrMax= 2.81D-07  0.00D+00 EMaxC= 1.00D-01 BMatC= 1.43D-10 BMatP= 2.98D-09
 IDIUse=1 WtCom= 1.00D+00 WtEn= 0.00D+00
 Coeff-Com:  0.661D-06-0.270D-05-0.125D-03-0.227D-03-0.544D-03 0.146D-02
 Coeff-Com:  0.226D-02-0.128D-02-0.245D-01-0.461D-01 0.920D-01 0.977D+00
 Coeff:      0.661D-06-0.270D-05-0.125D-03-0.227D-03-0.544D-03 0.146D-02
 Coeff:      0.226D-02-0.128D-02-0.245D-01-0.461D-01 0.920D-01 0.977D+00
 Gap=     0.275 Goal=   None    Shift=    0.000
 Gap=     0.345 Goal=   None    Shift=    0.000
 RMSDP=5.18D-08 MaxDP=1.89D-06 DE=-1.17D-09 OVMax= 3.53D-06

 Cycle  13  Pass 1  IDiag  1:
 RMSU=  3.44D-08    CP:  9.53D-01  1.19D+00  1.06D+00  1.08D+00  1.73D+00
                    CP:  2.01D+00  1.60D+00  1.35D+00  1.24D+00  1.37D+00
                    CP:  1.16D+00  1.18D+00
 E= -232.948610449304     Delta-E=       -0.000000000068 Rises=F Damp=F
 DIIS: error= 9.37D-08 at cycle  13 NSaved=  13.
 NSaved=13 IEnMin=13 EnMin= -232.948610449304     IErMin=13 ErrMin= 9.37D-08
 ErrMax= 9.37D-08  0.00D+00 EMaxC= 1.00D-01 BMatC= 1.38D-11 BMatP= 1.43D-10
 IDIUse=1 WtCom= 1.00D+00 WtEn= 0.00D+00
 Coeff-Com: -0.569D-05 0.118D-04 0.540D-04 0.546D-04 0.920D-04-0.544D-03
 Coeff-Com: -0.347D-03 0.297D-02 0.403D-02-0.247D-01-0.512D-01 0.139D+00
 Coeff-Com:  0.930D+00
 Coeff:     -0.569D-05 0.118D-04 0.540D-04 0.546D-04 0.920D-04-0.544D-03
 Coeff:     -0.347D-03 0.297D-02 0.403D-02-0.247D-01-0.512D-01 0.139D+00
 Coeff:      0.930D+00
 Gap=     0.275 Goal=   None    Shift=    0.000
 Gap=     0.345 Goal=   None    Shift=    0.000
 RMSDP=1.37D-08 MaxDP=4.25D-07 DE=-6.82D-11 OVMax= 1.22D-06

 Cycle  14  Pass 1  IDiag  1:
 RMSU=  9.54D-09    CP:  9.53D-01  1.19D+00  1.06D+00  1.08D+00  1.73D+00
                    CP:  2.01D+00  1.60D+00  1.35D+00  1.24D+00  1.37D+00
                    CP:  1.17D+00  1.26D+00  1.12D+00
 E= -232.948610449313     Delta-E=       -0.000000000009 Rises=F Damp=F
 DIIS: error= 4.09D-08 at cycle  14 NSaved=  14.
 NSaved=14 IEnMin=14 EnMin= -232.948610449313     IErMin=14 ErrMin= 4.09D-08
 ErrMax= 4.09D-08  0.00D+00 EMaxC= 1.00D-01 BMatC= 2.40D-12 BMatP= 1.38D-11
 IDIUse=1 WtCom= 1.00D+00 WtEn= 0.00D+00
 Coeff-Com: -0.121D-05 0.281D-05 0.216D-04 0.272D-04 0.468D-04-0.235D-03
 Coeff-Com: -0.248D-03 0.767D-03 0.318D-02-0.175D-02-0.221D-01-0.670D-01
 Coeff-Com:  0.241D+00 0.846D+00
 Coeff:     -0.121D-05 0.281D-05 0.216D-04 0.272D-04 0.468D-04-0.235D-03
 Coeff:     -0.248D-03 0.767D-03 0.318D-02-0.175D-02-0.221D-01-0.670D-01
 Coeff:      0.241D+00 0.846D+00
 Gap=     0.275 Goal=   None    Shift=    0.000
 Gap=     0.345 Goal=   None    Shift=    0.000
 RMSDP=5.19D-09 MaxDP=1.64D-07 DE=-9.21D-12 OVMax= 4.68D-07

 SCF Done:  E(UM062X) =  -232.948610449     A.U. after   14 cycles
            NFock= 14  Conv=0.52D-08     -V/T= 2.0043
 <Sx>= 0.0000 <Sy>= 0.0000 <Sz>= 0.5000 <S**2>= 0.7545 S= 0.5022
 <L.S>= 0.000000000000E+00
 KE= 2.319416088839D+02 PE=-9.234042906927D+02 EE= 2.681230119207D+02
 Annihilation of the first spin contaminant:
 S**2 before annihilation     0.7545,   after     0.7500
 Leave Link  502 at Wed Mar  6 23:57:01 2019, MaxMem=   104857600 cpu:             634.7 elap:             634.9
 (Enter /shared/centos7/gaussian/g16/l801.exe)
 DoSCS=F DFT=T ScalE2(SS,OS)=  1.000000  1.000000
 Range of M.O.s used for correlation:     1   251
 NBasis=   251 NAE=    21 NBE=    20 NFC=     0 NFV=     0
 NROrb=    251 NOA=    21 NOB=    20 NVA=   230 NVB=   231

 **** Warning!!: The largest alpha MO coefficient is  0.43396868D+02


 **** Warning!!: The largest beta MO coefficient is  0.42877142D+02

 Leave Link  801 at Wed Mar  6 23:57:01 2019, MaxMem=   104857600 cpu:               0.1 elap:               0.1
 (Enter /shared/centos7/gaussian/g16/l1101.exe)
 Using compressed storage, NAtomX=    14.
 Will process     15 centers per pass.
 Leave Link 1101 at Wed Mar  6 23:57:02 2019, MaxMem=   104857600 cpu:               0.3 elap:               0.4
 (Enter /shared/centos7/gaussian/g16/l1102.exe)
 Symmetrizing basis deriv contribution to polar:
 IMax=3 JMax=2 DiffMx= 0.00D+00
 Leave Link 1102 at Wed Mar  6 23:57:02 2019, MaxMem=   104857600 cpu:               0.1 elap:               0.1
 (Enter /shared/centos7/gaussian/g16/l1110.exe)
 Forming Gx(P) for the SCF density, NAtomX=    14.
 Integral derivatives from FoFJK, PRISM(SPDF).
 Do as many integral derivatives as possible in FoFJK.
 G2DrvN: MDV=     104856456.
 G2DrvN: will do    15 centers at a time, making    1 passes.
 Calling FoFCou, ICntrl=  3107 FMM=F I1Cent=   0 AccDes= 0.00D+00.
 FoFJK:  IHMeth= 1 ICntrl=    3107 DoSepK=F KAlg= 0 I1Cent=           0 FoldK=F
 IRaf=         0 NMat=       1 IRICut=       1 DoRegI=T DoRafI=F ISym2E= 0 IDoP0=0 IntGTp=1.
 FoFCou: FMM=F IPFlag=           0 FMFlag=      100000 FMFlg1=           0
         NFxFlg=           0 DoJE=F BraDBF=F KetDBF=F FulRan=T
         wScrn=  0.000000 ICntrl=      3107 IOpCl=  1 I1Cent=           0 NGrid=           0
         NMat0=    1 NMatS0=      1 NMatT0=    0 NMatD0=    1 NMtDS0=    0 NMtDT0=    0
 Symmetry not used in FoFCou.
 End of G2Drv F.D. properties file   721 does not exist.
 End of G2Drv F.D. properties file   722 does not exist.
 End of G2Drv F.D. properties file   788 does not exist.
 Leave Link 1110 at Thu Mar  7 00:19:49 2019, MaxMem=   104857600 cpu:            1366.8 elap:            1366.8
 (Enter /shared/centos7/gaussian/g16/l1002.exe)
 Minotr:  UHF open shell wavefunction.
          IDoAtm=11111111111111
          Direct CPHF calculation.
          Differentiating once with respect to nuclear coordinates.
          Requested convergence is 1.0D-08 RMS, and 1.0D-07 maximum.
          Secondary convergence is 1.0D-12 RMS, and 1.0D-12 maximum.
          NewPWx=T KeepS1=F KeepF1=F KeepIn=T MapXYZ=F SortEE=F KeepMc=T.
         4257 words used for storage of precomputed grid.
 Two-electron integrals replicated using symmetry.
          MDV=     104857600 using IRadAn=       1.
          Solving linear equations simultaneously, MaxMat=     384.
 FoF2E skips out because all densities are zero.
 CalDSu exits because no D1Ps are significant.
 FoFJK:  IHMeth= 1 ICntrl=       0 DoSepK=F KAlg= 0 I1Cent=           0 FoldK=F
 IRaf= 980000000 NMat=      42 IRICut=     105 DoRegI=T DoRafI=T ISym2E= 2 IDoP0=3 IntGTp=3.
 FoFCou: FMM=F IPFlag=           0 FMFlag=      100000 FMFlg1=           0
         NFxFlg=           0 DoJE=F BraDBF=F KetDBF=F FulRan=T
         wScrn=  0.000000 ICntrl=         0 IOpCl=  1 I1Cent=           0 NGrid=           0
         NMat0=   42 NMatS0=     42 NMatT0=    0 NMatD0=   42 NMtDS0=    0 NMtDT0=    0
 Integrals replicated using symmetry in FoFCou.
 Raff kept on since  96.88% of shell-pairs survive, threshold=   0.20 IRatSp=97.
          There are    45 degrees of freedom in the 1st order CPHF.  IDoFFX=6 NUNeed=     0.
     39 vectors produced by pass  0 Test12= 2.10D-14 2.22D-09 XBig12= 1.55D-01 5.40D-02.
 AX will form    39 AO Fock derivatives at one time.
     39 vectors produced by pass  1 Test12= 2.10D-14 2.22D-09 XBig12= 1.01D-02 1.81D-02.
     39 vectors produced by pass  2 Test12= 2.10D-14 2.22D-09 XBig12= 6.02D-04 6.27D-03.
     39 vectors produced by pass  3 Test12= 2.10D-14 2.22D-09 XBig12= 8.75D-06 4.72D-04.
     39 vectors produced by pass  4 Test12= 2.10D-14 2.22D-09 XBig12= 1.18D-07 4.46D-05.
     39 vectors produced by pass  5 Test12= 2.10D-14 2.22D-09 XBig12= 1.42D-09 2.90D-06.
     38 vectors produced by pass  6 Test12= 2.10D-14 2.22D-09 XBig12= 1.15D-11 3.29D-07.
     13 vectors produced by pass  7 Test12= 2.10D-14 2.22D-09 XBig12= 7.45D-14 2.16D-08.
 InvSVY:  IOpt=1 It=  1 EMax= 3.00D-15
 Solved reduced A of dimension   285 with    39 vectors.
 End of Minotr F.D. properties file   721 does not exist.
 End of Minotr F.D. properties file   722 does not exist.
 End of Minotr F.D. properties file   788 does not exist.
 Leave Link 1002 at Thu Mar  7 00:53:23 2019, MaxMem=   104857600 cpu:            2014.4 elap:            2014.4
 (Enter /shared/centos7/gaussian/g16/l601.exe)
 Copying SCF densities to generalized density rwf, IOpCl= 1 IROHF=0.

 **********************************************************************

            Population analysis using the SCF density.

 **********************************************************************

 Orbital symmetries:
 Alpha Orbitals:
       Occupied  (A) (A) (A) (A) (A) (A) (A) (A) (A) (A) (A) (A)
                 (A) (A) (A) (A) (A) (A) (A) (A) (A)
       Virtual   (A) (A) (A) (A) (A) (A) (A) (A) (A) (A) (A) (A)
                 (A) (A) (A) (A) (A) (A) (A) (A) (A) (A) (A) (A)
                 (A) (A) (A) (A) (A) (A) (A) (A) (A) (A) (A) (A)
                 (A) (A) (A) (A) (A) (A) (A) (A) (A) (A) (A) (A)
                 (A) (A) (A) (A) (A) (A) (A) (A) (A) (A) (A) (A)
                 (A) (A) (A) (A) (A) (A) (A) (A) (A) (A) (A) (A)
                 (A) (A) (A) (A) (A) (A) (A) (A) (A) (A) (A) (A)
                 (A) (A) (A) (A) (A) (A) (A) (A) (A) (A) (A) (A)
                 (A) (A) (A) (A) (A) (A) (A) (A) (A) (A) (A) (A)
                 (A) (A) (A) (A) (A) (A) (A) (A) (A) (A) (A) (A)
                 (A) (A) (A) (A) (A) (A) (A) (A) (A) (A) (A) (A)
                 (A) (A) (A) (A) (A) (A) (A) (A) (A) (A) (A) (A)
                 (A) (A) (A) (A) (A) (A) (A) (A) (A) (A) (A) (A)
                 (A) (A) (A) (A) (A) (A) (A) (A) (A) (A) (A) (A)
                 (A) (A) (A) (A) (A) (A) (A) (A) (A) (A) (A) (A)
                 (A) (A) (A) (A) (A) (A) (A) (A) (A) (A) (A) (A)
                 (A) (A) (A) (A) (A) (A) (A) (A) (A) (A) (A) (A)
                 (A) (A) (A) (A) (A) (A) (A) (A) (A) (A) (A) (A)
                 (A) (A) (A) (A) (A) (A) (A) (A) (A) (A) (A) (A)
                 (A) (A)
 Beta  Orbitals:
       Occupied  (A) (A) (A) (A) (A) (A) (A) (A) (A) (A) (A) (A)
                 (A) (A) (A) (A) (A) (A) (A) (A)
       Virtual   (A) (A) (A) (A) (A) (A) (A) (A) (A) (A) (A) (A)
                 (A) (A) (A) (A) (A) (A) (A) (A) (A) (A) (A) (A)
                 (A) (A) (A) (A) (A) (A) (A) (A) (A) (A) (A) (A)
                 (A) (A) (A) (A) (A) (A) (A) (A) (A) (A) (A) (A)
                 (A) (A) (A) (A) (A) (A) (A) (A) (A) (A) (A) (A)
                 (A) (A) (A) (A) (A) (A) (A) (A) (A) (A) (A) (A)
                 (A) (A) (A) (A) (A) (A) (A) (A) (A) (A) (A) (A)
                 (A) (A) (A) (A) (A) (A) (A) (A) (A) (A) (A) (A)
                 (A) (A) (A) (A) (A) (A) (A) (A) (A) (A) (A) (A)
                 (A) (A) (A) (A) (A) (A) (A) (A) (A) (A) (A) (A)
                 (A) (A) (A) (A) (A) (A) (A) (A) (A) (A) (A) (A)
                 (A) (A) (A) (A) (A) (A) (A) (A) (A) (A) (A) (A)
                 (A) (A) (A) (A) (A) (A) (A) (A) (A) (A) (A) (A)
                 (A) (A) (A) (A) (A) (A) (A) (A) (A) (A) (A) (A)
                 (A) (A) (A) (A) (A) (A) (A) (A) (A) (A) (A) (A)
                 (A) (A) (A) (A) (A) (A) (A) (A) (A) (A) (A) (A)
                 (A) (A) (A) (A) (A) (A) (A) (A) (A) (A) (A) (A)
                 (A) (A) (A) (A) (A) (A) (A) (A) (A) (A) (A) (A)
                 (A) (A) (A) (A) (A) (A) (A) (A) (A) (A) (A) (A)
                 (A) (A) (A)
 The electronic state is 2-A.
 Alpha  occ. eigenvalues --  -19.65138 -10.59083 -10.58969 -10.53160 -10.52653
 Alpha  occ. eigenvalues --   -1.19693  -0.89057  -0.79218  -0.75516  -0.66794
 Alpha  occ. eigenvalues --   -0.57865  -0.55624  -0.54452  -0.47903  -0.46509
 Alpha  occ. eigenvalues --   -0.45425  -0.43712  -0.41768  -0.39025  -0.38488
 Alpha  occ. eigenvalues --   -0.25743
 Alpha virt. eigenvalues --    0.01800   0.03373   0.03560   0.03957   0.05718
 Alpha virt. eigenvalues --    0.06633   0.07238   0.07505   0.08222   0.09859
 Alpha virt. eigenvalues --    0.10694   0.11687   0.12088   0.13426   0.13738
 Alpha virt. eigenvalues --    0.15450   0.18723   0.19506   0.20928   0.22541
 Alpha virt. eigenvalues --    0.23050   0.24770   0.25054   0.25452   0.26277
 Alpha virt. eigenvalues --    0.27084   0.28552   0.29921   0.30344   0.31222
 Alpha virt. eigenvalues --    0.33373   0.35580   0.37591   0.41534   0.43651
 Alpha virt. eigenvalues --    0.46972   0.47275   0.47823   0.50314   0.50719
 Alpha virt. eigenvalues --    0.53808   0.54445   0.55617   0.56624   0.57883
 Alpha virt. eigenvalues --    0.59231   0.59634   0.60676   0.61771   0.61962
 Alpha virt. eigenvalues --    0.63541   0.65756   0.66488   0.68201   0.69040
 Alpha virt. eigenvalues --    0.69637   0.75449   0.76729   0.79610   0.82739
 Alpha virt. eigenvalues --    0.86473   0.87174   0.88919   0.90866   0.94100
 Alpha virt. eigenvalues --    0.97110   0.98959   1.00896   1.03005   1.04797
 Alpha virt. eigenvalues --    1.05579   1.07639   1.08467   1.11411   1.12361
 Alpha virt. eigenvalues --    1.15690   1.16196   1.19458   1.19633   1.21503
 Alpha virt. eigenvalues --    1.22612   1.25633   1.26711   1.28960   1.30022
 Alpha virt. eigenvalues --    1.31280   1.34004   1.34837   1.35576   1.37524
 Alpha virt. eigenvalues --    1.39571   1.40597   1.41217   1.43388   1.44426
 Alpha virt. eigenvalues --    1.45918   1.48538   1.50604   1.51323   1.53317
 Alpha virt. eigenvalues --    1.55332   1.58270   1.59801   1.62224   1.63247
 Alpha virt. eigenvalues --    1.64728   1.73260   1.74585   1.85364   1.99294
 Alpha virt. eigenvalues --    2.09042   2.12655   2.28621   2.33843   2.43344
 Alpha virt. eigenvalues --    2.47018   2.50486   2.53144   2.57363   2.59376
 Alpha virt. eigenvalues --    2.62817   2.68623   2.73487   2.76297   2.82125
 Alpha virt. eigenvalues --    2.86767   2.90834   2.94831   2.95303   2.97387
 Alpha virt. eigenvalues --    2.98978   2.99608   3.01989   3.02585   3.04816
 Alpha virt. eigenvalues --    3.05901   3.10924   3.11866   3.15202   3.17496
 Alpha virt. eigenvalues --    3.18737   3.20113   3.21110   3.25541   3.27402
 Alpha virt. eigenvalues --    3.29223   3.30362   3.32937   3.34546   3.36327
 Alpha virt. eigenvalues --    3.38204   3.41768   3.44635   3.50706   3.52156
 Alpha virt. eigenvalues --    3.54874   3.57730   3.58360   3.60106   3.65663
 Alpha virt. eigenvalues --    3.67975   3.69754   3.71106   3.73014   3.78229
 Alpha virt. eigenvalues --    3.80965   3.83335   3.85719   3.87328   3.89636
 Alpha virt. eigenvalues --    3.92261   3.95814   3.97280   4.00294   4.02490
 Alpha virt. eigenvalues --    4.04975   4.08534   4.08866   4.11312   4.14978
 Alpha virt. eigenvalues --    4.17143   4.18818   4.19318   4.22159   4.22461
 Alpha virt. eigenvalues --    4.23872   4.29927   4.31330   4.34916   4.38292
 Alpha virt. eigenvalues --    4.42166   4.43616   4.46638   4.49566   4.53915
 Alpha virt. eigenvalues --    4.54807   4.56651   4.63300   4.64854   4.77045
 Alpha virt. eigenvalues --    4.85241   5.06237   5.13790   5.25026   5.27558
 Alpha virt. eigenvalues --    5.37377   5.42144   5.45394   5.48682   5.49233
 Alpha virt. eigenvalues --    5.52545   5.54018   5.59289   5.61979   5.68023
 Alpha virt. eigenvalues --    5.82232   5.91469   6.24596   6.51691   6.77873
 Alpha virt. eigenvalues --    7.17916   7.23311   7.34799   7.71965   7.74865
 Alpha virt. eigenvalues --   24.28528  24.30839  24.34842  24.56922  50.21234
  Beta  occ. eigenvalues --  -19.64749 -10.59095 -10.58153 -10.53158 -10.52629
  Beta  occ. eigenvalues --   -1.18452  -0.88695  -0.78819  -0.73471  -0.66104
  Beta  occ. eigenvalues --   -0.56833  -0.54706  -0.53148  -0.46742  -0.46202
  Beta  occ. eigenvalues --   -0.45191  -0.42566  -0.41370  -0.38266  -0.36578
  Beta virt. eigenvalues --   -0.02097   0.01594   0.03152   0.03767   0.04162
  Beta virt. eigenvalues --    0.05756   0.06678   0.07195   0.07558   0.08278
  Beta virt. eigenvalues --    0.09741   0.10761   0.11766   0.12356   0.12971
  Beta virt. eigenvalues --    0.13511   0.15525   0.18921   0.19570   0.21348
  Beta virt. eigenvalues --    0.22728   0.23383   0.24920   0.25294   0.25892
  Beta virt. eigenvalues --    0.26117   0.27006   0.28812   0.29897   0.30406
  Beta virt. eigenvalues --    0.31884   0.33464   0.35544   0.37791   0.41539
  Beta virt. eigenvalues --    0.43591   0.47097   0.47280   0.47944   0.50429
  Beta virt. eigenvalues --    0.51667   0.53996   0.54471   0.55958   0.56809
  Beta virt. eigenvalues --    0.57973   0.59240   0.59936   0.60737   0.61793
  Beta virt. eigenvalues --    0.62207   0.64053   0.65681   0.66481   0.68318
  Beta virt. eigenvalues --    0.69106   0.69877   0.75720   0.76329   0.80508
  Beta virt. eigenvalues --    0.82916   0.86558   0.87317   0.88794   0.90762
  Beta virt. eigenvalues --    0.94136   0.97225   0.98972   1.00847   1.03308
  Beta virt. eigenvalues --    1.04403   1.05958   1.07633   1.08646   1.11590
  Beta virt. eigenvalues --    1.12624   1.15688   1.16196   1.19320   1.19578
  Beta virt. eigenvalues --    1.21548   1.22720   1.25797   1.26931   1.29178
  Beta virt. eigenvalues --    1.30119   1.31353   1.34177   1.34981   1.35583
  Beta virt. eigenvalues --    1.37520   1.39677   1.40976   1.41464   1.43750
  Beta virt. eigenvalues --    1.44513   1.45947   1.48584   1.50697   1.51265
  Beta virt. eigenvalues --    1.53952   1.55461   1.58540   1.60059   1.62277
  Beta virt. eigenvalues --    1.63457   1.64902   1.73698   1.74731   1.85659
  Beta virt. eigenvalues --    2.00167   2.09315   2.12952   2.29543   2.34208
  Beta virt. eigenvalues --    2.43827   2.47601   2.50805   2.53877   2.57544
  Beta virt. eigenvalues --    2.60075   2.63043   2.68807   2.73921   2.76944
  Beta virt. eigenvalues --    2.82391   2.87447   2.92282   2.95510   2.97322
  Beta virt. eigenvalues --    2.98967   2.99915   3.01855   3.03263   3.03715
  Beta virt. eigenvalues --    3.06251   3.08187   3.12695   3.13183   3.15938
  Beta virt. eigenvalues --    3.18834   3.19555   3.21294   3.23579   3.27230
  Beta virt. eigenvalues --    3.29422   3.30313   3.31725   3.33537   3.36220
  Beta virt. eigenvalues --    3.37640   3.40259   3.44451   3.45818   3.52064
  Beta virt. eigenvalues --    3.53796   3.55822   3.58054   3.59326   3.61837
  Beta virt. eigenvalues --    3.67014   3.68910   3.71454   3.71881   3.74693
  Beta virt. eigenvalues --    3.78894   3.81332   3.83978   3.85869   3.88054
  Beta virt. eigenvalues --    3.91765   3.93253   3.96160   3.97699   4.00754
  Beta virt. eigenvalues --    4.03211   4.06265   4.09369   4.10375   4.12023
  Beta virt. eigenvalues --    4.16239   4.17400   4.19278   4.19493   4.23223
  Beta virt. eigenvalues --    4.23877   4.24239   4.30141   4.32643   4.35336
  Beta virt. eigenvalues --    4.38522   4.42965   4.44003   4.47084   4.49677
  Beta virt. eigenvalues --    4.54389   4.55446   4.57011   4.63479   4.65114
  Beta virt. eigenvalues --    4.77098   4.85358   5.09864   5.13976   5.26524
  Beta virt. eigenvalues --    5.28684   5.38029   5.43356   5.47582   5.48915
  Beta virt. eigenvalues --    5.49510   5.53047   5.54384   5.59883   5.62348
  Beta virt. eigenvalues --    5.68661   5.82551   5.92237   6.24731   6.52262
  Beta virt. eigenvalues --    6.78252   7.18868   7.24343   7.35551   7.72270
  Beta virt. eigenvalues --    7.74836  24.28628  24.32161  24.34861  24.56899
  Beta virt. eigenvalues --   50.20953
          Condensed to atoms (all electrons):
               1          2          3          4          5          6
     1  O    8.164260   0.213952  -0.139573  -0.100475   0.061216  -0.038733
     2  C    0.213952   5.383441   0.302817   0.121695  -0.080631   0.458269
     3  C   -0.139573   0.302817   5.163914  -0.084967  -0.022881  -0.002475
     4  C   -0.100475   0.121695  -0.084967   5.249613  -0.021021  -0.079521
     5  C    0.061216  -0.080631  -0.022881  -0.021021   5.542486  -0.010346
     6  H   -0.038733   0.458269  -0.002475  -0.079521  -0.010346   0.515803
     7  H   -0.004944  -0.033274   0.393793   0.020282  -0.002738  -0.010918
     8  H    0.012523  -0.044543   0.414394   0.003980   0.001374  -0.004095
     9  H   -0.010423  -0.005558   0.410713  -0.028074   0.000504   0.005516
    10  H   -0.002529  -0.044835   0.015929   0.409492  -0.001766   0.005647
    11  H    0.010453  -0.046293  -0.007929   0.433930   0.000567  -0.004164
    12  H   -0.028229  -0.014939  -0.005470   0.406074   0.011112  -0.003961
    13  H   -0.040463   0.023963   0.004739  -0.015694   0.372616   0.000722
    14  H   -0.054414   0.002025   0.000816   0.004929   0.423993   0.000831
               7          8          9         10         11         12
     1  O   -0.004944   0.012523  -0.010423  -0.002529   0.010453  -0.028229
     2  C   -0.033274  -0.044543  -0.005558  -0.044835  -0.046293  -0.014939
     3  C    0.393793   0.414394   0.410713   0.015929  -0.007929  -0.005470
     4  C    0.020282   0.003980  -0.028074   0.409492   0.433930   0.406074
     5  C   -0.002738   0.001374   0.000504  -0.001766   0.000567   0.011112
     6  H   -0.010918  -0.004095   0.005516   0.005647  -0.004164  -0.003961
     7  H    0.547656  -0.026902  -0.024907   0.000092  -0.000140  -0.000419
     8  H   -0.026902   0.527588  -0.023351  -0.001816  -0.000137   0.000421
     9  H   -0.024907  -0.023351   0.518282   0.001869   0.000546  -0.000108
    10  H    0.000092  -0.001816   0.001869   0.515230  -0.019783  -0.029139
    11  H   -0.000140  -0.000137   0.000546  -0.019783   0.532597  -0.033293
    12  H   -0.000419   0.000421  -0.000108  -0.029139  -0.033293   0.558563
    13  H    0.000091  -0.000012  -0.000097   0.000301  -0.000243  -0.008344
    14  H   -0.000046   0.000013   0.000029  -0.000135   0.000054   0.000461
              13         14
     1  O   -0.040463  -0.054414
     2  C    0.023963   0.002025
     3  C    0.004739   0.000816
     4  C   -0.015694   0.004929
     5  C    0.372616   0.423993
     6  H    0.000722   0.000831
     7  H    0.000091  -0.000046
     8  H   -0.000012   0.000013
     9  H   -0.000097   0.000029
    10  H    0.000301  -0.000135
    11  H   -0.000243   0.000054
    12  H   -0.008344   0.000461
    13  H    0.561117  -0.032435
    14  H   -0.032435   0.508324
          Atomic-Atomic Spin Densities.
               1          2          3          4          5          6
     1  O    0.261767   0.013783  -0.005168   0.006314  -0.214128  -0.004752
     2  C    0.013783   0.037454  -0.019479  -0.027144   0.014416   0.004722
     3  C   -0.005168  -0.019479   0.041099  -0.011597  -0.015441   0.003651
     4  C    0.006314  -0.027144  -0.011597   0.092974  -0.034325  -0.002484
     5  C   -0.214128   0.014416  -0.015441  -0.034325   1.253931  -0.001941
     6  H   -0.004752   0.004722   0.003651  -0.002484  -0.001941   0.000945
     7  H    0.000693  -0.001629   0.000147   0.000340   0.000515  -0.000073
     8  H    0.000077   0.000430  -0.002429   0.002021  -0.000079  -0.000316
     9  H   -0.000018   0.002168  -0.001608  -0.000365  -0.000127   0.000013
    10  H   -0.001601   0.001418  -0.001740  -0.001712   0.002672  -0.000180
    11  H    0.000140   0.003949   0.001105  -0.007441   0.000027  -0.000068
    12  H    0.000530  -0.001796  -0.001624   0.013962  -0.003746  -0.000030
    13  H    0.001295   0.002671   0.006756  -0.000057  -0.044158   0.002463
    14  H    0.000409  -0.000540   0.001576   0.000712  -0.018172   0.000341
               7          8          9         10         11         12
     1  O    0.000693   0.000077  -0.000018  -0.001601   0.000140   0.000530
     2  C   -0.001629   0.000430   0.002168   0.001418   0.003949  -0.001796
     3  C    0.000147  -0.002429  -0.001608  -0.001740   0.001105  -0.001624
     4  C    0.000340   0.002021  -0.000365  -0.001712  -0.007441   0.013962
     5  C    0.000515  -0.000079  -0.000127   0.002672   0.000027  -0.003746
     6  H   -0.000073  -0.000316   0.000013  -0.000180  -0.000068  -0.000030
     7  H   -0.000969   0.000306   0.000088   0.000013   0.000013   0.000043
     8  H    0.000306  -0.000396  -0.000053   0.000006  -0.000051  -0.000011
     9  H    0.000088  -0.000053  -0.000476  -0.000011   0.000007  -0.000034
    10  H    0.000013   0.000006  -0.000011  -0.000645   0.000116   0.000392
    11  H    0.000013  -0.000051   0.000007   0.000116  -0.000833   0.000585
    12  H    0.000043  -0.000011  -0.000034   0.000392   0.000585  -0.028031
    13  H   -0.000061  -0.000020   0.000009  -0.000207  -0.000032   0.002118
    14  H   -0.000001  -0.000003   0.000006  -0.000020   0.000003  -0.000108
              13         14
     1  O    0.001295   0.000409
     2  C    0.002671  -0.000540
     3  C    0.006756   0.001576
     4  C   -0.000057   0.000712
     5  C   -0.044158  -0.018172
     6  H    0.002463   0.000341
     7  H   -0.000061  -0.000001
     8  H   -0.000020  -0.000003
     9  H    0.000009   0.000006
    10  H   -0.000207  -0.000020
    11  H   -0.000032   0.000003
    12  H    0.002118  -0.000108
    13  H   -0.003119   0.011144
    14  H    0.011144  -0.008868
 Mulliken charges and spin densities:
               1          2
     1  O   -0.042622   0.059340
     2  C   -0.236091   0.030424
     3  C   -0.443820  -0.004752
     4  C   -0.320244   0.031199
     5  C   -0.274486   0.939443
     6  H    0.167423   0.002290
     7  H    0.142374  -0.000577
     8  H    0.140563  -0.000517
     9  H    0.155060  -0.000399
    10  H    0.151445  -0.001500
    11  H    0.133835  -0.002482
    12  H    0.147270  -0.017750
    13  H    0.133739  -0.021198
    14  H    0.145554  -0.013521
 Sum of Mulliken charges =  -0.00000   1.00000
 Mulliken charges and spin densities with hydrogens summed into heavy atoms:
               1          2
     1  O   -0.042622   0.059340
     2  C   -0.068668   0.032714
     3  C   -0.005823  -0.006246
     4  C    0.112306   0.009467
     5  C    0.004807   0.904724
 APT charges:
               1
     1  O   -0.032866
     2  C   -0.298111
     3  C   -1.210264
     4  C   -1.027123
     5  C   -0.932421
     6  H    0.379746
     7  H    0.361587
     8  H    0.468053
     9  H    0.322776
    10  H    0.363123
    11  H    0.420233
    12  H    0.314829
    13  H    0.292199
    14  H    0.578238
 Sum of APT charges =  -0.00000
 APT charges with hydrogens summed into heavy atoms:
               1
     1  O   -0.032866
     2  C    0.081635
     3  C   -0.057848
     4  C    0.071063
     5  C   -0.061984
 Electronic spatial extent (au):  <R**2>=            464.9239
 Charge=             -0.0000 electrons
 Dipole moment (field-independent basis, Debye):
    X=              0.5300    Y=              0.4781    Z=              1.1265  Tot=              1.3336
 Quadrupole moment (field-independent basis, Debye-Ang):
   XX=            -31.9507   YY=            -34.4220   ZZ=            -32.9142
   XY=              0.6197   XZ=             -0.8565   YZ=             -0.0840
 Traceless Quadrupole moment (field-independent basis, Debye-Ang):
   XX=              1.1449   YY=             -1.3264   ZZ=              0.1815
   XY=              0.6197   XZ=             -0.8565   YZ=             -0.0840
 Octapole moment (field-independent basis, Debye-Ang**2):
  XXX=             -4.1799  YYY=             -3.3086  ZZZ=             -0.3950  XYY=             -0.0376
  XXY=             -4.5681  XXZ=              1.9356  XZZ=              1.4719  YZZ=             -0.3664
  YYZ=              0.8479  XYZ=             -0.5358
 Hexadecapole moment (field-independent basis, Debye-Ang**3):
 XXXX=           -368.6642 YYYY=           -205.0233 ZZZZ=            -70.8366 XXXY=             16.5048
 XXXZ=              0.8384 YYYX=              3.0786 YYYZ=              1.3707 ZZZX=             -2.7431
 ZZZY=              1.0917 XXYY=            -96.3269 XXZZ=            -76.6228 YYZZ=            -44.5851
 XXYZ=              3.6985 YYXZ=              1.6875 ZZXY=              0.7312
 N-N= 1.903910594388D+02 E-N=-9.234042943630D+02  KE= 2.319416088839D+02
  Exact polarizability:   0.000   0.000   0.000   0.000   0.000   0.000
 Approx polarizability:  66.137   0.197  59.588   0.737   1.098  61.063
                          Isotropic Fermi Contact Couplings
        Atom                 a.u.       MegaHertz       Gauss      10(-4) cm-1
     1  O(17)              0.03472     -21.04725      -7.51018      -7.02061
     2  C(13)             -0.00534      -6.00878      -2.14408      -2.00431
     3  C(13)              0.00130       1.46707       0.52349       0.48936
     4  C(13)              0.00169       1.90224       0.67877       0.63452
     5  C(13)              0.34174     384.17567     137.08343     128.14721
     6  H(1)               0.00128       5.74050       2.04835       1.91482
     7  H(1)              -0.00007      -0.31068      -0.11086      -0.10363
     8  H(1)              -0.00028      -1.27025      -0.45326      -0.42371
     9  H(1)              -0.00013      -0.59943      -0.21389      -0.19995
    10  H(1)              -0.00042      -1.88168      -0.67143      -0.62766
    11  H(1)              -0.00075      -3.33339      -1.18944      -1.11190
    12  H(1)              -0.00157      -7.03966      -2.51193      -2.34818
    13  H(1)              -0.00142      -6.32729      -2.25774      -2.11056
    14  H(1)              -0.00013      -0.56380      -0.20118      -0.18806
 --------------------------------------------------------
       Center         ----  Spin Dipole Couplings  ----
                      3XX-RR        3YY-RR        3ZZ-RR
 --------------------------------------------------------
     1   Atom       -0.410466      0.209093      0.201373
     2   Atom        0.015055     -0.006907     -0.008148
     3   Atom        0.007325     -0.003747     -0.003577
     4   Atom        0.024238      0.001412     -0.025650
     5   Atom       -0.451430      0.325414      0.126016
     6   Atom        0.005210     -0.006091      0.000881
     7   Atom        0.004106     -0.001320     -0.002786
     8   Atom        0.003673     -0.001782     -0.001890
     9   Atom        0.005314     -0.002762     -0.002552
    10   Atom        0.003003     -0.002178     -0.000825
    11   Atom        0.001659      0.000939     -0.002597
    12   Atom        0.010838      0.008879     -0.019717
    13   Atom       -0.054891     -0.004223      0.059114
    14   Atom        0.011210      0.015407     -0.026616
 --------------------------------------------------------
                        XY            XZ            YZ
 --------------------------------------------------------
     1   Atom       -0.071736      0.119581     -0.610998
     2   Atom        0.005089      0.007097      0.005233
     3   Atom       -0.001973     -0.000901      0.000486
     4   Atom       -0.019750      0.008680     -0.005204
     5   Atom       -0.130626      0.121215     -0.681935
     6   Atom        0.001003      0.009051      0.001386
     7   Atom       -0.003265      0.001583     -0.000772
     8   Atom       -0.000134      0.000720     -0.000110
     9   Atom       -0.001886     -0.002707      0.000483
    10   Atom        0.004257     -0.003852     -0.002715
    11   Atom        0.004252      0.003196      0.003390
    12   Atom        0.021072      0.001498      0.001312
    13   Atom       -0.001418      0.003889      0.024117
    14   Atom        0.052543      0.021688     -0.006691
 --------------------------------------------------------


 ---------------------------------------------------------------------------------
              Anisotropic Spin Dipole Couplings in Principal Axis System
 ---------------------------------------------------------------------------------

       Atom             a.u.   MegaHertz   Gauss  10(-4) cm-1        Axes

              Baa    -0.4509    32.627    11.642    10.883  0.7936 -0.3647 -0.4871
     1 O(17)  Bbb    -0.3801    27.502     9.813     9.174  0.5987  0.6105  0.5184
              Bcc     0.8310   -60.129   -21.455   -20.057 -0.1083  0.7030 -0.7028
 
              Baa    -0.0130    -1.741    -0.621    -0.581 -0.0900 -0.6063  0.7902
     2 C(13)  Bbb    -0.0057    -0.761    -0.272    -0.254 -0.3703  0.7569  0.5386
              Bcc     0.0186     2.502     0.893     0.835  0.9246  0.2441  0.2926
 
              Baa    -0.0043    -0.572    -0.204    -0.191  0.1122  0.8744 -0.4721
     3 C(13)  Bbb    -0.0035    -0.468    -0.167    -0.156  0.1560  0.4537  0.8774
              Bcc     0.0077     1.040     0.371     0.347  0.9814 -0.1721 -0.0855
 
              Baa    -0.0273    -3.661    -1.306    -1.221 -0.1327  0.0877  0.9873
     4 C(13)  Bbb    -0.0100    -1.340    -0.478    -0.447  0.5016  0.8650 -0.0094
              Bcc     0.0373     5.000     1.784     1.668  0.8548 -0.4940  0.1588
 
              Baa    -0.4771   -64.023   -22.845   -21.356  0.9023 -0.1843 -0.3897
     5 C(13)  Bbb    -0.4606   -61.812   -22.056   -20.618  0.4119  0.6352  0.6533
              Bcc     0.9377   125.835    44.901    41.974 -0.1272  0.7500 -0.6491
 
              Baa    -0.0067    -3.582    -1.278    -1.195  0.3967  0.6951 -0.5996
     6 H(1)   Bbb    -0.0058    -3.086    -1.101    -1.029 -0.4830  0.7135  0.5076
              Bcc     0.0125     6.668     2.379     2.224  0.7806  0.0883  0.6188
 
              Baa    -0.0031    -1.676    -0.598    -0.559 -0.1397  0.1633  0.9766
     7 H(1)   Bbb    -0.0028    -1.520    -0.542    -0.507  0.4394  0.8941 -0.0867
              Bcc     0.0060     3.197     1.141     1.066  0.8874 -0.4170  0.1967
 
              Baa    -0.0020    -1.077    -0.384    -0.359 -0.1083  0.3673  0.9238
     8 H(1)   Bbb    -0.0017    -0.934    -0.333    -0.311  0.0710  0.9297 -0.3614
              Bcc     0.0038     2.011     0.717     0.671  0.9916 -0.0264  0.1267
 
              Baa    -0.0034    -1.830    -0.653    -0.610  0.3443  0.3407  0.8748
     9 H(1)   Bbb    -0.0031    -1.671    -0.596    -0.557  0.0803  0.9177 -0.3890
              Bcc     0.0066     3.501     1.249     1.168  0.9354 -0.2042 -0.2887
 
              Baa    -0.0047    -2.511    -0.896    -0.837 -0.3594  0.8937  0.2684
    10 H(1)   Bbb    -0.0032    -1.713    -0.611    -0.571  0.5431 -0.0335  0.8390
              Bcc     0.0079     4.223     1.507     1.409  0.7588  0.4473 -0.4734
 
              Baa    -0.0048    -2.536    -0.905    -0.846 -0.1842 -0.3978  0.8988
    11 H(1)   Bbb    -0.0029    -1.557    -0.556    -0.519  0.7266 -0.6709 -0.1480
              Bcc     0.0077     4.093     1.460     1.365  0.6619  0.6258  0.4126
 
              Baa    -0.0198   -10.562    -3.769    -3.523 -0.0352 -0.0199  0.9992
    12 H(1)   Bbb    -0.0112    -5.995    -2.139    -2.000 -0.6901  0.7236 -0.0099
              Bcc     0.0310    16.557     5.908     5.523  0.7228  0.6899  0.0392
 
              Baa    -0.0551   -29.416   -10.496    -9.812  0.9978  0.0488 -0.0443
    13 H(1)   Bbb    -0.0122    -6.512    -2.323    -2.172 -0.0603  0.9466 -0.3168
              Bcc     0.0673    35.928    12.820    11.984  0.0264  0.3188  0.9475
 
              Baa    -0.0545   -29.075   -10.375    -9.698  0.6112 -0.5168 -0.5995
    14 H(1)   Bbb    -0.0126    -6.701    -2.391    -2.235  0.3622 -0.4909  0.7924
              Bcc     0.0671    35.776    12.766    11.934  0.7038  0.7014  0.1129
 

 ---------------------------------------------------------------------------------

 No NMR shielding tensors so no spin-rotation constants.
 Leave Link  601 at Thu Mar  7 00:53:24 2019, MaxMem=   104857600 cpu:               0.6 elap:               0.6
 (Enter /shared/centos7/gaussian/g16/l701.exe)
 SCFChk:  SCF convergence  5.19D-09 required  1.00D-08
 ... and contract with generalized density number  0.
 Compute integral second derivatives.
 Entering OneElI...
 Calculate overlap and kinetic energy integrals
    NBasis = 276  MinDer = 2  MaxDer = 2
 Requested accuracy = 0.1000D-12
 PrmmSu-InSpLW:  IPartL=    0 NPrtUS=    1 NPrtUL=    1 DoSpLW=F IThBeg=    0 IThEnd=    0 NThAct=    1.
 PrsmSu:  NPrtUS=   1 ThrOK=F IAlg=1 NPAlg=1 LenDen=           0 ISkipM=0 DoSpLW=F IThBeg=    0 IThEnd=    0.
 Prism:   IPart=     0 DynPar=F LinDyn=F Incr=          36.
 PRISM was handed   104330403 working-precision words and  3654 shell-pairs
 IPart=  0 NShTot=        3654 NBatch=         187 AvBLen=        19.5
 PrSmSu:  NxtVal=             37.
 Entering OneElI...
 Calculate potential energy integrals
    NBasis = 276  MinDer = 2  MaxDer = 2
 Requested accuracy = 0.1000D-12
 PrmmSu-InSpLW:  IPartL=    0 NPrtUS=    1 NPrtUL=    1 DoSpLW=F IThBeg=    0 IThEnd=    0 NThAct=    1.
 PrsmSu:  NPrtUS=   1 ThrOK=F IAlg=1 NPAlg=1 LenDen=           0 ISkipM=0 DoSpLW=F IThBeg=    0 IThEnd=    0.
 Prism:   IPart=     0 DynPar=F LinDyn=F Incr=         492.
 PRISM was handed   104421871 working-precision words and  3519 shell-pairs
 IPart=  0 NShTot=       49266 NBatch=        3519 AvBLen=        14.0
 PrSmSu:  NxtVal=            493.
 Polarizability after L701:
                1             2             3 
      1  0.000000D+00
      2  0.000000D+00  0.000000D+00
      3  0.000000D+00  0.000000D+00  0.000000D+00
 Dipole Derivatives after L701:
                 1             2             3             4             5 
      1   0.120360D+00 -0.199223D+00 -0.115197D+00 -0.130938D+00  0.174615D-01
      2  -0.942229D-01 -0.128136D+00 -0.419264D-01  0.377842D-01  0.102398D+00
      3  -0.817542D-01  0.222165D-01 -0.908223D-01 -0.157429D-01 -0.925628D-01
                 6             7             8             9            10 
      1  -0.104252D+00 -0.146143D+01  0.407650D+00  0.155295D-01 -0.714532D+00
      2  -0.503191D-01  0.112988D+00 -0.105924D+01  0.590370D-01  0.114818D+00
      3  -0.865793D+00 -0.651838D-01  0.753107D-01 -0.111013D+01  0.547476D-02
                11            12            13            14            15 
      1  -0.273026D+00  0.232723D-01 -0.164141D+01 -0.454270D+00  0.680034D+00
      2  -0.151616D+01  0.114258D+00 -0.327298D+00 -0.518320D+00 -0.201617D+00
      3  -0.122791D-01 -0.850678D+00 -0.337477D-01 -0.335646D+00 -0.637534D+00
                16            17            18            19            20 
      1   0.186358D+00 -0.303639D-02  0.111376D+00  0.806294D-01 -0.564487D+00
      2  -0.228887D-02  0.203242D+00 -0.263052D-01  0.457783D-01  0.761548D+00
      3  -0.330733D-02 -0.204438D-01  0.749639D+00 -0.278223D-01 -0.179170D+00
                21            22            23            24            25 
      1   0.339295D+00  0.111354D+01  0.465555D+00  0.415949D+00  0.108127D+00
      2  -0.380274D+00 -0.568551D-01  0.115741D+00 -0.214403D-01  0.988207D-02
      3   0.242584D+00  0.136104D+00  0.705544D-01  0.174878D+00  0.145716D-01
                26            27            28            29            30 
      1  -0.155158D+00 -0.724304D+00  0.230043D+00  0.313305D-01 -0.332318D+00
      2   0.206734D+00  0.374111D+00  0.195020D+00  0.227950D+00 -0.656785D+00
      3   0.944774D-01  0.653465D+00 -0.176740D+00 -0.612410D-01  0.631376D+00
                31            32            33            34            35 
      1   0.236430D+00  0.253102D+00  0.286622D+00  0.509302D+00 -0.356441D-01
      2   0.296634D+00  0.721726D+00  0.688824D+00 -0.670120D+00  0.286702D+00
      3   0.104550D+00  0.167156D+00  0.302542D+00  0.681533D-01 -0.158448D-01
                36            37            38            39            40 
      1   0.436802D-02  0.187931D+00 -0.354045D+00 -0.701405D+00  0.117559D+01
      2  -0.371421D-01  0.140515D-01  0.170157D+00  0.111926D+00  0.323828D+00
      3   0.148483D+00  0.134812D-01  0.202709D+00  0.518509D+00  0.619632D-01
                41            42 
      1   0.863790D+00  0.101029D+00
      2   0.425653D+00  0.676549D-01
      3   0.847623D-01  0.133476D+00
 Hessian after L701:
                1             2             3             4             5 
      1  0.165654D+01
      2 -0.390468D+00  0.115267D+02
      3 -0.123464D+01 -0.189212D+01  0.130845D+02
      4 -0.267958D+01  0.250452D+01  0.245120D+01  0.139649D+02
      5  0.246656D+01 -0.594393D+01  0.162644D+01 -0.676176D+00  0.166345D+02
      6  0.239569D+01  0.153944D+01 -0.621555D+01 -0.135690D+01 -0.719996D+00
      7  0.774362D+00 -0.167782D+00  0.216433D-01 -0.221558D+01 -0.181835D+01
      8 -0.366982D-02 -0.881370D-01 -0.190853D-01 -0.180757D+01 -0.495412D+01
      9  0.545753D-01 -0.320497D-01 -0.847944D-01 -0.946195D+00  0.445163D+00
     10 -0.489032D-01  0.379055D+00 -0.134029D+00 -0.557462D+01  0.627147D-01
     11  0.287831D+00  0.655836D+00 -0.186528D+00 -0.406339D-02 -0.140827D+01
     12 -0.938129D-01 -0.864643D-01 -0.261341D+00 -0.105353D+00 -0.123895D+01
     13 -0.465082D-02 -0.255604D+01 -0.120531D+01  0.457548D+00 -0.148475D-01
     14 -0.259739D+01 -0.629626D+01  0.503059D+00  0.653814D-02 -0.806171D-01
     15 -0.117411D+01  0.511744D+00 -0.709241D+01  0.846753D-01 -0.393900D-01
     16 -0.277491D-01 -0.821327D-01 -0.298904D-01 -0.426176D+01 -0.531161D-03
     17 -0.734566D-01 -0.561192D-01 -0.902914D-01 -0.145165D-02 -0.423470D+01
     18  0.683813D-02 -0.926971D-01  0.316020D+00  0.443917D-01 -0.797966D-01
     19  0.637725D-01 -0.363779D-01  0.129509D-01  0.572833D-01  0.689908D-01
     20 -0.801327D-01 -0.263360D-02 -0.147294D-01 -0.261294D-01 -0.305178D-01
     21  0.511588D-01 -0.244175D-01 -0.313193D-01  0.338089D-01 -0.565332D-01
     22  0.215875D+00  0.548101D-01  0.529956D-01 -0.595534D-01 -0.347035D-01
     23  0.583073D-01 -0.540951D-01  0.923734D-02  0.248936D-01  0.682020D-01
     24  0.604799D-01  0.912821D-02 -0.509753D-01 -0.810573D-02  0.155021D-01
     25  0.510983D-01 -0.348065D-01 -0.924598D-02  0.580382D-01 -0.148022D-01
     26 -0.361803D-01 -0.263127D-01  0.990766D-02 -0.383106D-01  0.122096D-02
     27 -0.783429D-01  0.242275D-01 -0.767740D-02 -0.625170D-01  0.111625D-01
     28  0.510949D-02  0.629506D-01 -0.293685D-01  0.826862D-01  0.117941D-01
     29  0.496497D-01  0.370549D-01 -0.329118D-01  0.143072D-01 -0.315107D-01
     30 -0.458853D-01 -0.682087D-01 -0.528801D-02 -0.522227D-01  0.442039D-01
     31 -0.507133D-02  0.921334D-01  0.402249D-01  0.223866D-01 -0.660487D-01
     32  0.104036D+00  0.114508D+00  0.770823D-01 -0.904955D-01  0.157711D-01
     33  0.518536D-01  0.907788D-01 -0.242169D-01  0.479673D-02  0.501868D-02
     34  0.433881D-01 -0.390156D-01  0.286912D-02  0.303179D-01 -0.856132D-01
     35  0.290103D-01 -0.492955D-01 -0.735608D-01  0.200718D-01  0.659857D-01
     36 -0.110158D-02 -0.504602D-01  0.304292D-01 -0.299288D-01 -0.239470D-02
     37 -0.610835D-01  0.101734D+00  0.241579D-01 -0.367359D-02  0.559672D-01
     38  0.317674D-01  0.558481D-01  0.691919D-01  0.101587D-01 -0.838675D-01
     39 -0.325579D-01  0.571204D-01  0.288380D+00 -0.794226D-01 -0.152153D-01
     40  0.168916D-01  0.111426D+00  0.364500D-01  0.121567D+00  0.450456D-01
     41  0.154135D+00  0.126862D+00  0.143061D-01  0.637060D-01 -0.181548D-01
     42  0.398521D-01  0.139798D-01  0.542207D-01  0.217737D-01  0.478577D-02
                6             7             8             9            10 
      6  0.183592D+02
      7 -0.929184D+00  0.976948D+01
      8  0.420839D+00  0.117547D+01  0.128843D+02
      9 -0.562517D+01  0.215266D+00 -0.115533D+00  0.128332D+02
     10 -0.944515D-01  0.411466D-01 -0.203389D+00  0.716728D-01  0.130489D+02
     11 -0.120196D+01 -0.105470D+00  0.152206D+00 -0.131937D+00 -0.399822D+00
     12 -0.519644D+01  0.717818D-01 -0.959060D-01 -0.860138D-01  0.289989D-01
     13 -0.541190D-01  0.171829D+00 -0.368009D-02 -0.472090D-01  0.132283D+00
     14 -0.342666D-01 -0.800159D-02 -0.107158D+00  0.242285D-02  0.313291D+00
     15 -0.192671D+00 -0.433326D-01  0.694935D-02 -0.117195D+00  0.586035D-01
     16  0.609494D-01 -0.273198D-01  0.126894D-01  0.127033D-01  0.164013D+00
     17 -0.477671D-01  0.113210D-01 -0.232552D-01 -0.139269D-01 -0.166384D-01
     18 -0.117556D+01 -0.490504D-01  0.551853D-02  0.728157D-01  0.529779D-02
     19  0.774794D-02 -0.344787D+01 -0.310262D-01  0.287674D-01 -0.346249D-01
     20 -0.515699D-01  0.128503D+00 -0.143425D+01 -0.106117D+01 -0.699411D-01
     21  0.500098D-01 -0.568239D-01 -0.102892D+01 -0.285693D+01  0.200719D-01
     22 -0.275953D-01 -0.161009D+01  0.965103D+00  0.791141D+00  0.489539D-01
     23  0.240094D-01  0.850793D+00 -0.309071D+01  0.342987D+00 -0.216661D-01
     24  0.429999D-01  0.730575D+00  0.361492D+00 -0.316768D+01  0.253232D-01
     25  0.419865D-01 -0.352055D+01 -0.184641D-01 -0.171418D+00  0.687978D-03
     26 -0.363409D-01  0.279383D-01 -0.339852D+01  0.558254D+00  0.147934D-01
     27 -0.265108D-01  0.509963D-01  0.487188D+00 -0.898056D+00  0.184231D-02
     28 -0.276196D-01 -0.403592D-01 -0.133130D-01 -0.212589D-02 -0.339630D+01
     29  0.115962D+00 -0.245732D-01  0.199839D-01 -0.234005D-01  0.164839D+00
     30  0.283584D-01  0.138194D-01 -0.631288D-01 -0.160630D-01 -0.757912D+00
     31  0.479578D-02 -0.159374D-01 -0.387294D-02 -0.769110D-03 -0.318030D+01
     32 -0.417434D-01  0.268916D-02  0.406706D-01  0.195620D-01  0.622489D+00
     33  0.655461D-01 -0.489006D-03  0.356094D-01 -0.833935D-02  0.609555D+00
     34 -0.236172D-01  0.571492D-01 -0.654920D-01  0.528762D-02 -0.122927D+01
     35  0.251741D-01 -0.618807D-01  0.208386D-01 -0.235940D-03 -0.885801D+00
     36 -0.402363D-01  0.500759D-02 -0.136301D-02 -0.242922D-01  0.196021D+00
     37 -0.179763D-01  0.355504D-01 -0.121388D-01 -0.140443D-01 -0.173875D-01
     38  0.647937D-02 -0.243428D-01 -0.174999D-01  0.749267D-02 -0.144145D-01
     39 -0.376701D-01 -0.334734D-01  0.460112D-02 -0.108007D-01 -0.318523D-01
     40  0.202928D-01  0.281850D-01  0.934972D-02  0.234749D-02  0.454604D-01
     41  0.174257D-02  0.136864D-01 -0.434367D-02  0.237648D-02  0.544908D-01
     42 -0.362711D-01  0.326376D-02  0.173730D-02 -0.106770D-01  0.858207D-03
               11            12            13            14            15 
     11  0.100454D+02
     12  0.632422D+00  0.130062D+02
     13  0.171088D+00  0.258739D-01  0.455300D+01
     14  0.853910D-02 -0.151949D-01  0.105816D+01  0.119612D+02
     15  0.506291D-02 -0.214992D+00  0.120817D+01 -0.165684D+01  0.125012D+02
     16 -0.880552D-02  0.430789D-02 -0.162416D-01  0.103948D-01  0.168164D-01
     17 -0.378006D-02  0.159911D+00  0.763724D-02 -0.943928D-02  0.226327D-02
     18  0.185928D+00  0.393745D-01  0.416649D-01  0.125847D-01  0.480135D-01
     19 -0.762058D-01  0.145339D-01  0.108054D-01 -0.998279D-02  0.350737D-02
     20  0.137026D+00 -0.385113D-01 -0.171325D-01  0.166723D-02 -0.954636D-02
     21 -0.464743D-01 -0.454432D-01  0.710260D-02 -0.651687D-02 -0.518045D-02
     22 -0.424089D-01  0.147443D-01  0.269057D-01 -0.144886D-02  0.109657D-01
     23 -0.147976D-01 -0.387946D-02  0.389336D-02 -0.886253D-02  0.301147D-02
     24 -0.113986D-01 -0.305326D-01  0.694127D-02 -0.268465D-03 -0.664556D-02
     25  0.383201D-01  0.149400D-01  0.223088D-01 -0.780309D-02 -0.830022D-02
     26 -0.183267D-01 -0.102773D-01 -0.118103D-01 -0.122238D-01  0.151620D-02
     27 -0.192155D-01  0.240494D-01 -0.258239D-01  0.720551D-02 -0.104424D-01
     28  0.120205D+00 -0.796053D+00  0.311944D-01  0.301980D-01 -0.202598D-01
     29 -0.360456D+01 -0.484408D+00  0.285834D-01 -0.577959D-02 -0.104318D-01
     30 -0.312496D+00 -0.125710D+01 -0.373751D-01 -0.258454D-01 -0.995441D-02
     31  0.603630D+00  0.639161D+00  0.212403D-01  0.365221D-01  0.180530D-01
     32 -0.241217D+01  0.121558D+01  0.424252D-01  0.180768D-01  0.185476D-01
     33  0.110612D+01 -0.229586D+01  0.185381D-01  0.198401D-01 -0.755289D-02
     34 -0.599908D+00  0.168461D+00 -0.107363D+00 -0.222501D-02  0.148156D-02
     35 -0.353892D+01 -0.449577D-01  0.700118D-01  0.840421D-01  0.360152D-02
     36 -0.268393D-01 -0.367112D+01 -0.380964D-02 -0.157964D-01 -0.970202D-01
     37 -0.236878D-01  0.111693D-01 -0.360597D+01 -0.182659D+00 -0.342693D+00
     38 -0.821915D-02  0.729468D-02 -0.387932D-01 -0.313359D+01  0.102981D+01
     39  0.671529D-02  0.961502D-02 -0.128263D+00  0.104603D+01 -0.141242D+01
     40  0.392973D-01  0.124690D-02 -0.169289D+01  0.135441D+01  0.186415D+00
     41  0.999108D-02  0.334399D-02  0.126051D+01 -0.241958D+01  0.133701D+00
     42  0.602451D-03 -0.204334D-01  0.193620D+00  0.163580D+00 -0.338275D+01
               16            17            18            19            20 
     16  0.418311D+01
     17  0.258067D-01  0.438232D+01
     18 -0.483208D-01  0.146905D-01  0.569299D+00
     19 -0.612192D-02  0.404746D-01  0.255694D-01  0.327092D+01
     20  0.381351D-01 -0.208434D-01 -0.198762D-01  0.128713D+00  0.136369D+01
[...]
 ! D1    D(5,1,2,3)            164.6591         -DE/DX =    0.0                 !
 ! D2    D(5,1,2,4)            -72.8586         -DE/DX =    0.0                 !
 ! D3    D(5,1,2,6)             46.8056         -DE/DX =    0.0                 !
 ! D4    D(2,1,5,13)           -27.1078         -DE/DX =    0.0                 !
 ! D5    D(2,1,5,14)          -178.818          -DE/DX =    0.0                 !
 ! D6    D(1,2,3,7)            -58.3699         -DE/DX =    0.0                 !
 ! D7    D(1,2,3,8)           -178.9155         -DE/DX =    0.0                 !
 ! D8    D(1,2,3,9)             61.4664         -DE/DX =    0.0                 !
 ! D9    D(4,2,3,7)           -179.4098         -DE/DX =    0.0                 !
 ! D10   D(4,2,3,8)             60.0446         -DE/DX =    0.0                 !
 ! D11   D(4,2,3,9)            -59.5735         -DE/DX =    0.0                 !
 ! D12   D(6,2,3,7)             58.1271         -DE/DX =    0.0                 !
 ! D13   D(6,2,3,8)            -62.4184         -DE/DX =    0.0                 !
 ! D14   D(6,2,3,9)            177.9635         -DE/DX =    0.0                 !
 ! D15   D(1,2,4,10)           -60.862          -DE/DX =    0.0                 !
 ! D16   D(1,2,4,11)           179.4201         -DE/DX =    0.0                 !
 ! D17   D(1,2,4,12)            58.9424         -DE/DX =    0.0                 !
 ! D18   D(3,2,4,10)            58.1233         -DE/DX =    0.0                 !
 ! D19   D(3,2,4,11)           -61.5946         -DE/DX =    0.0                 !
 ! D20   D(3,2,4,12)           177.9277         -DE/DX =    0.0                 !
 ! D21   D(6,2,4,10)          -179.3485         -DE/DX =    0.0                 !
 ! D22   D(6,2,4,11)            60.9337         -DE/DX =    0.0                 !
 ! D23   D(6,2,4,12)           -59.544          -DE/DX =    0.0                 !
 ! D24   D(1,5,13,14)         -149.6659         -DE/DX =    0.0                 !
 --------------------------------------------------------------------------------
 GradGradGradGradGradGradGradGradGradGradGradGradGradGradGradGradGradGrad

 Leave Link  103 at Thu Mar  7 04:21:50 2019, MaxMem=   104857600 cpu:               0.0 elap:               0.0
 (Enter /shared/centos7/gaussian/g16/l9999.exe)

 ----------------------------------------------------------------------

 Electric dipole moment (input orientation):
 (Debye = 10**-18 statcoulomb cm , SI units = C m)
                  (au)            (Debye)         (10**-30 SI)
   Tot        0.559617D+00      0.142240D+01      0.474463D+01
   x         -0.256852D+00     -0.652852D+00     -0.217768D+01
   y          0.280582D-01      0.713168D-01      0.237887D+00
   z         -0.496398D+00     -0.126172D+01     -0.420864D+01

 Dipole polarizability, Alpha (input orientation).
 (esu units = cm**3 , SI units = C**2 m**2 J**-1)
 Alpha(0;0):
               (au)            (10**-24 esu)      (10**-40 SI)
   iso        0.553358D+02      0.819992D+01      0.912364D+01
   aniso      0.135183D+02      0.200320D+01      0.222887D+01
   xx         0.596642D+02      0.884132D+01      0.983730D+01
   yx        -0.515713D+01     -0.764208D+00     -0.850296D+00
   yy         0.552569D+02      0.818823D+01      0.911063D+01
   zx         0.114968D+01      0.170365D+00      0.189556D+00
   zy        -0.382068D+01     -0.566167D+00     -0.629946D+00
   zz         0.510864D+02      0.757022D+01      0.842301D+01

 ----------------------------------------------------------------------

 Dipole orientation:
     8          0.07983789          1.01743920         -2.17212724
     6         -0.08942415          0.25820785          0.40921678
     6         -2.75725711         -0.69306623          0.81304574
     6          1.89037591         -1.73888437          0.98960137
     6          2.08315192          2.46927677         -2.76954317
     1          0.24369404          1.93294128          1.58327723
     1         -4.12743752          0.77331790          0.36309410
     1         -3.01988617         -1.27162418          2.77085746
     1         -3.11018613         -2.31658699         -0.40472821
     1          1.57259709         -3.39590918         -0.19324417
     1          1.77543866         -2.30611421          2.96576282
     1          3.78417112         -1.02461372          0.61707510
     1          2.90130568          3.63436018         -1.29719684
     1          2.14231710          3.04549083         -4.72195257

 Electric dipole moment (dipole orientation):
 (Debye = 10**-18 statcoulomb cm , SI units = C m)
                  (au)            (Debye)         (10**-30 SI)
   Tot        0.559617D+00      0.142240D+01      0.474463D+01
   x          0.000000D+00      0.000000D+00      0.000000D+00
   y          0.000000D+00      0.000000D+00      0.000000D+00
   z          0.559617D+00      0.142240D+01      0.474463D+01

 Dipole polarizability, Alpha (dipole orientation).
 (esu units = cm**3 , SI units = C**2 m**2 J**-1)
 Alpha(0;0):
               (au)            (10**-24 esu)      (10**-40 SI)
   iso        0.553358D+02      0.819992D+01      0.912364D+01
   aniso      0.135183D+02      0.200320D+01      0.222887D+01
   xx         0.568500D+02      0.842430D+01      0.937330D+01
   yx         0.263865D+01      0.391007D+00      0.435054D+00
   yy         0.547402D+02      0.811167D+01      0.902545D+01
   zx        -0.423031D+01     -0.626867D+00     -0.697484D+00
   zy        -0.585757D+01     -0.868002D+00     -0.965783D+00
   zz         0.544172D+02      0.806380D+01      0.897219D+01

 ----------------------------------------------------------------------

 Test job not archived.
 1\1\GINC-C0224\Freq\UM062X\6-311+G(2df,2p)\C4H9O1(2)\UNDERKOFFLER.C\07
 -Mar-2019\0\\#P Geom=AllCheck Guess=TCheck SCRF=Check Test GenChk UM06
 2X/6-311+G(2df,2p) Freq\\Gaussian input prepared by ASE\\0,2\O,0.55853
 37952,-0.5948040365,0.9732042802\C,-0.1430956053,-0.1261754321,-0.1772
 165053\C,-1.4891925113,0.3700445689,0.3064316015\C,0.6595359641,0.9574
 074268,-0.8775156129\C,1.636027281,-1.3649825452,0.7285431653\H,-0.282
 4602318,-0.9779257149,-0.8536589586\H,-2.0334954986,-0.4256790779,0.81
 15217911\H,-2.0844359339,0.7260462109,-0.5334215678\H,-1.3488543177,1.
 1934427279,1.0068459313\H,0.8081311081,1.7996650987,-0.2011449451\H,0.
 1291928507,1.3088624314,-1.7621541316\H,1.6356828362,0.5822725826,-1.1
 815701442\H,1.6555198887,-1.9363527295,-0.1921975163\H,2.1343249427,-1
 .7209151871,1.6153401285\\Version=EM64L-G16RevA.03\State=2-A\HF=-232.9
 651962\S2=0.754568\S2-1=0.\S2A=0.750015\RMSD=2.327e-09\RMSF=7.081e-07\
 ZeroPoint=0.1231437\Thermal=0.1298841\Dipole=-0.2568517,0.0280582,-0.4
 963979\DipoleDeriv=-1.1495473,0.6348696,-0.2020565,0.5045053,-0.658732
 2,0.1176781,-0.1093786,0.1075821,-0.6281214,0.6614903,-0.1682824,0.127
 0174,-0.1167467,0.4924009,-0.1591676,0.2889508,-0.3031207,0.5679283,-0
 .0740001,0.0516359,0.0256227,0.0329093,0.0347152,0.018806,0.0598576,0.
 0158295,0.0461221,-0.0746274,-0.0588175,0.0847608,-0.028693,-0.0401444
 ,0.0786326,0.0007985,0.1028141,0.0004048,0.4784851,-0.5874251,0.129769
 9,-0.5395356,0.1905265,0.0887563,-0.0675043,0.2115419,0.1664525,-0.022
 444,0.022943,0.011496,-0.0292107,-0.1332338,-0.102244,-0.0488936,-0.02
 02516,-0.0632817,-0.002115,-0.0436776,0.0499878,-0.0761912,-0.0300337,
 0.0615865,0.0738757,0.0456993,0.0317371,0.0044197,0.0427521,-0.044266,
 0.0498532,0.0463535,0.0374769,-0.087662,0.0513631,-0.0532389,0.0368408
 ,-0.046968,-0.0354897,0.0021875,-0.0316136,-0.0826896,0.0162167,-0.085
 4419,0.0065415,0.0597893,-0.0119794,0.0108025,-0.0317677,-0.037033,-0.
 0432555,-0.0090965,-0.1074863,-0.0137988,0.0300106,0.0294558,-0.096795
 ,0.0199203,0.0302277,0.0455358,-0.0792231,0.0677768,-0.0477049,-0.0733
 536,0.0213589,0.0621703,0.0477467,0.027548,-0.0189353,0.0427132,-0.011
 9197,0.0591203,0.0494068,0.0326114,-0.1040459,0.061999,0.0476466,-0.06
 34126,-0.0064366,-0.1135459,-0.0468067,0.0756449,0.0815233,-0.0189742,
 0.1030235,0.061372,0.0212323,-0.0742179,0.0391592,-0.0253542\Polar=59.
 664196,-5.1571332,55.2568849,1.1496791,-3.8206832,51.0863856\Quadrupol
 e=-0.1779263,0.4635233,-0.285597,-0.8226563,0.3447922,0.1459711\PG=C01
  [X(C4H9O1)]\NImag=0\\0.40460857,-0.24353511,0.24101128,0.04302961,-0.
 00947115,0.33789038,-0.09784123,0.02385315,-0.03201358,0.51620721,0.02
 049429,-0.07872900,0.01325610,-0.00053482,0.56638057,-0.05613011,0.032
 91774,-0.18167265,-0.01956256,0.07263653,0.51426374,-0.02916462,0.0154
 6442,-0.00212050,-0.17594407,0.03432312,0.03957879,0.51795434,0.018123
 75,-0.00708490,0.00075577,0.03536885,-0.09551138,-0.01765561,0.0293123
 8,0.57712936,-0.03923631,0.01860531,0.00457174,0.05384809,-0.02375100,
 -0.09683902,0.02755317,-0.01817400,0.58056671,0.00594122,0.02015211,-0
 .01476845,-0.11973156,-0.05222660,0.03333750,-0.02161961,-0.02444449,0
 .01715700,0.56375745,-0.00015358,-0.01149993,0.01721006,-0.04904239,-0
 .14450427,0.03175066,0.00256177,0.00946988,-0.00505432,-0.04153836,0.5
 2709467,0.00516555,0.03304867,-0.03030094,0.02630035,0.02660717,-0.092
 86649,0.01192970,0.00765692,-0.00511913,0.02546804,0.03192854,0.565612
 55,-0.25159966,0.15796542,0.02138647,-0.03336907,0.02028641,-0.0080013
 7,-0.00069563,0.00155394,-0.00180948,0.00435141,-0.00115602,0.00293740
 ,0.40883869,0.17526888,-0.12696815,-0.03598683,0.01945690,-0.01756775,
 0.00602539,-0.00058228,-0.00031853,-0.00040062,-0.00177692,-0.00018200
 ,0.00063703,-0.26180398,0.30700002,0.05451597,-0.05253353,-0.10995261,
 -0.02821786,0.01742215,0.00567417,-0.00226877,0.00175375,-0.00501153,-
 0.00264650,0.00147768,-0.00191594,0.11247401,0.09006538,0.64294292,-0.
 00928723,-0.00662687,-0.01983852,-0.05418150,-0.02161518,-0.01324082,0
 .00299668,0.02449966,0.01962526,-0.00204128,-0.01666232,-0.00937325,0.
 00259129,-0.00406502,-0.00314762,0.06311578,0.00544350,0.00955028,0.00
 935578,-0.02371477,-0.20675466,-0.11960327,-0.00080526,-0.00772812,-0.
 00600152,-0.00353606,-0.01977226,-0.01377204,-0.00068197,0.00236457,0.
 00250923,0.02408800,0.22148325,-0.01797915,-0.01390526,-0.03504433,-0.
 01587521,-0.11381745,-0.13298782,0.00067055,-0.00853215,-0.00511194,0.
 00301291,0.01262792,0.01086275,0.00520638,-0.00336014,-0.00035288,0.02
 278495,0.12463029,0.16045265,0.00296394,-0.00052700,-0.00032149,-0.015
 75258,-0.02415104,0.01385606,-0.11315331,-0.09832833,0.06110066,-0.005
 07879,0.00378154,0.00116245,-0.00010010,0.00042824,0.00003439,0.001278
 02,0.00022766,-0.00038134,0.12286487,-0.00097547,0.00069790,-0.0006262
 8,0.00728370,0.00911025,-0.00614433,-0.10094563,-0.19781541,0.09330620
 ,0.00193304,-0.00021481,-0.00022444,-0.00005663,0.00004520,-0.00018614
 ,-0.00084036,0.00087974,0.00011133,0.10796126,0.21062252,-0.00093582,-
 0.00048927,0.00059831,0.00434693,0.00900776,-0.00684846,0.06274655,0.0
 9203410,-0.10534008,0.00207706,-0.00167338,-0.00020161,-0.00017443,-0.
 00005206,0.00005626,-0.00035370,0.00009991,-0.00010150,-0.07046641,-0.
 10120003,0.11107338,-0.00744699,0.00422195,0.00197012,-0.01115927,0.00
 585198,-0.02506469,-0.12806855,0.04770613,-0.11192715,0.00100559,-0.00
 019479,-0.00075924,0.00006069,-0.00046714,-0.00152542,0.00093060,0.000
 25345,0.00034446,0.01014971,-0.00432509,0.01324812,0.13793434,0.003578
 04,-0.00087825,-0.00090295,0.00338360,-0.00473404,0.00945246,0.0484619
 8,-0.07529471,0.06781904,-0.00045931,0.00004814,0.00030265,0.00001669,
 0.00065081,0.00072416,-0.00045811,-0.00015406,-0.00006281,0.01424955,-
 0.00724941,0.01719841,-0.05416799,0.07791931,0.00275705,-0.00099691,0.
 00069889,0.00548703,-0.00310067,0.00784698,-0.11502795,0.06876115,-0.2
 1071289,-0.00005538,0.00009084,-0.00014900,0.00057034,-0.00023566,0.00
 077316,-0.00085389,0.00011265,0.00037432,-0.00766123,0.00305238,-0.010
 77243,0.12450381,-0.07534542,0.22640316,0.00254731,-0.00188872,0.00020
 072,0.00269890,0.02526094,0.02201070,-0.05211980,-0.03023011,-0.024946
 01,0.00197388,0.00114147,-0.00036199,-0.00031793,0.00034936,0.00019644
 ,-0.00520862,0.00187226,0.00157366,-0.00263974,-0.01091676,-0.01109354
 ,-0.00282151,-0.01433974,-0.01012246,0.05601804,-0.00072639,0.00077041
 ,0.00040457,-0.00081263,-0.01087332,-0.00871253,-0.02886573,-0.2007906
 6,-0.12979542,-0.00051498,0.00074063,0.00111141,0.00016547,-0.00002934
 ,0.00023667,0.00225570,0.00054027,-0.00023498,-0.00244476,-0.01680887,
 -0.01557886,0.00092134,0.00967038,0.00782656,0.02991036,0.21589326,0.0
 0013809,0.00068491,0.00108454,-0.00192561,-0.00919525,-0.00944158,-0.0
 2300857,-0.13000068,-0.15782533,-0.00089542,-0.00022083,0.00007391,-0.
 00010867,0.00031769,0.00022927,0.00221697,-0.00021444,0.00041769,0.001
 61608,0.01212747,0.01102348,-0.00204641,-0.01875869,-0.01487028,0.0234
 6697,0.14451262,0.16911709,0.00092660,0.00154511,-0.00001185,-0.004116
 91,-0.01510495,-0.01281439,0.00089846,-0.00043157,-0.00134877,-0.05190
 458,-0.02578536,-0.02100684,-0.00043616,0.00005177,0.00015532,-0.00125
 240,-0.00252305,0.00218267,0.00018052,0.00035590,0.00013026,-0.0000858
 3,-0.00002358,-0.00004713,-0.00026261,0.00012768,0.00062099,0.05327443
 ,0.00084929,0.00272457,-0.00019206,-0.00503871,-0.02256706,-0.01663258
 ,0.00144732,0.00092292,-0.00050385,-0.02601316,-0.20439993,-0.12929883
 ,0.00048813,-0.00036245,-0.00005820,-0.00267425,-0.00235200,0.00302907
 ,0.00027791,0.00025892,0.00023240,-0.00001136,0.00000749,0.00014032,-0
 .00064325,0.00068217,0.00046110,0.03226761,0.22340326,0.00054153,-0.00
 143396,0.00194033,0.00268437,0.01338083,0.00886964,-0.00076043,0.00048
 189,0.00091549,-0.02243543,-0.13083220,-0.15308207,-0.00044264,-0.0000
 6530,0.00007920,0.00183508,0.00275432,-0.00075156,-0.00016035,0.000067
 50,0.00007935,0.00003182,-0.00016657,-0.00000472,-0.00020697,-0.000219
 44,-0.00002629,0.02236377,0.14152933,0.16260601,0.00007988,-0.00422396
 ,0.00378998,0.00828537,-0.00319146,0.01348391,0.00016692,0.00038416,-0
 .00019075,-0.11251566,0.04225842,-0.10876377,-0.00054413,0.00092384,0.
 00010446,0.00058283,0.00047554,-0.00069531,0.00023713,0.00004752,-0.00
 014425,-0.00045321,-0.00031330,0.00046473,-0.00003092,0.00006183,0.000
 08164,-0.00267992,0.00116239,-0.00193149,0.11929196,-0.00104665,-0.005
 04026,0.00467913,0.01453349,-0.00519442,0.01670814,0.00072985,0.000563
 28,-0.00033641,0.04090333,-0.07467582,0.06953544,-0.00148080,0.0009029
 4,0.00060870,0.00035227,0.00019199,-0.00101130,0.00002316,-0.00013520,
 -0.00029004,-0.00036151,0.00034893,-0.00003297,-0.00013563,0.00000798,
 -0.00006515,-0.01283032,0.00987692,-0.02017580,-0.04532431,0.07773545,
 0.00064671,0.00454964,-0.00131544,-0.00888435,0.00098023,-0.01144618,-
 0.00076292,-0.00048545,0.00014484,-0.10703510,0.07040360,-0.22499880,0
 .00136553,-0.00125145,-0.00022701,0.00021670,0.00023908,0.00046773,0.0
 0016057,-0.00007944,0.00034906,0.00078404,-0.00000170,0.00022395,0.000
 01786,0.00012640,-0.00004421,-0.00878709,0.00731921,-0.01501395,0.1180
 3397,-0.07857312,0.24282660,0.00149026,-0.00027497,-0.00071854,-0.0167
 4814,0.00776492,0.00369443,-0.00065788,-0.00392322,0.00141160,-0.26371
 744,0.08486890,0.06812278,-0.00018705,0.00106237,-0.00006895,0.0005031
 2,-0.00012891,-0.00030632,-0.00091014,0.00050632,0.00056101,0.00037674
 ,-0.00003450,-0.00008924,0.00011849,0.00004822,-0.00002343,0.00544402,
 -0.00194261,-0.00157614,-0.01246770,0.00440752,0.00440030,0.28661149,0
 .00102117,0.00144771,-0.00222270,-0.02392733,0.00966407,0.00715169,-0.
 00173163,-0.00363257,0.00248705,0.08698956,-0.08187549,-0.02790343,0.0
 0003740,-0.00057751,0.00090777,0.00072089,0.00117962,-0.00075598,-0.00
 131968,0.00058688,0.00073547,0.00008076,-0.00015571,-0.00015374,-0.000
 08364,0.00005447,0.00031436,0.02241188,-0.00832180,-0.00527068,0.00800
 325,-0.00449586,-0.00343551,-0.09210720,0.08681828,-0.00089099,-0.0007
 3362,0.00114373,0.01362003,-0.00608734,-0.00575628,0.00110465,0.003040
 83,-0.00109578,0.06647971,-0.02745669,-0.06813598,0.00010221,-0.000035
 55,-0.00044746,-0.00080085,0.00004696,0.00029148,0.00106064,-0.0001735
 8,0.00011647,0.00022195,-0.00015473,0.00024924,-0.00035863,0.00021778,
 0.00031809,0.01861692,-0.00617098,-0.00559421,-0.02409802,0.00904033,0
 .00892318,-0.07512393,0.02822973,0.06988293,-0.00493404,0.02200029,0.0
 2478386,0.00218178,0.00020862,0.00514516,-0.00022298,-0.00003033,-0.00
 010020,0.00000799,-0.00005814,-0.00048968,-0.03987544,0.01315447,-0.02
 595746,-0.00002957,-0.00088756,-0.00063175,-0.00002059,0.00001479,0.00
 003897,-0.00005776,-0.00002695,-0.00006665,0.00000960,-0.00015266,-0.0
 0016048,-0.00007249,-0.00010700,0.00006443,-0.00011956,0.00011466,-0.0
 0002212,-0.00004570,-0.00016270,0.00014931,0.04005410,0.00883435,-0.01
 418480,-0.01386590,-0.00241919,0.00061540,-0.00411964,0.00017606,0.000
 16026,0.00054315,0.00034945,-0.00026072,0.00026670,0.02023489,-0.10491
 434,-0.13876376,0.00069944,0.00020185,0.00064798,-0.00013218,-0.000007
 42,-0.00000059,0.00014104,-0.00003963,0.00004543,-0.00018050,0.0001456
 6,0.00005993,-0.00009558,0.00017903,-0.00002410,-0.00020485,-0.0000079
 6,0.00015936,-0.00020146,-0.00062306,0.00025051,-0.02611907,0.11147730
 ,0.00226730,-0.00752991,-0.00121647,-0.00096960,0.00385448,0.00077038,
 -0.00001070,0.00030687,0.00047562,0.00016608,-0.00017879,0.00001176,-0
 .00668854,-0.12765174,-0.26037007,0.00063621,-0.00038248,0.00114392,0.
 00000891,-0.00002618,-0.00003651,0.00011111,-0.00005437,-0.00002574,-0
 .00026134,0.00007308,-0.00007713,0.00001915,0.00005360,-0.00003741,-0.
 00007263,-0.00006249,0.00007004,-0.00011443,0.00007093,0.00005773,0.00
 425484,0.14445613,0.26924721,-0.01828400,0.01187417,-0.02536783,-0.000
 52892,0.00263376,0.00370740,-0.00036996,0.00043917,-0.00113713,-0.0004
 2862,-0.00002111,-0.00033148,-0.08871691,0.05799951,-0.10364801,0.0000
 0229,-0.00008282,0.00009351,-0.00001893,-0.00004259,0.00001925,-0.0003
 6455,0.00013362,0.00014099,0.00003492,0.00002655,0.00002785,0.00008688
 ,-0.00006231,-0.00000754,0.00016703,0.00011495,-0.00013410,0.00018994,
 0.00006725,-0.00008300,0.00312468,-0.00108239,0.00065365,0.10510616,0.
 01282392,-0.01181687,0.01760646,0.00161015,0.00066561,-0.00377464,0.00
 045364,-0.00006941,0.00125639,0.00018239,0.00003193,0.00010422,0.06443
 105,-0.06004347,0.07583615,0.00032615,0.00036952,0.00063348,-0.0000463
 5,0.00002970,-0.00002381,0.00035124,-0.00013924,-0.00016397,-0.0001160
 4,-0.00000304,-0.00002304,0.00003445,-0.00005204,-0.00002581,-0.000059
 04,-0.00007795,0.00004914,-0.00004536,-0.00006905,-0.00001365,-0.00794
 842,0.00725845,-0.01292914,-0.07199776,0.06391586,0.00611059,-0.002712
 64,0.01157450,0.00116197,-0.00119355,0.00043357,0.00037644,0.00005660,
 0.00038129,0.00013797,-0.00007308,0.00020899,-0.12681720,0.07199387,-0
 .27147749,0.00029348,0.00022553,0.00033948,-0.00000894,-0.00000447,0.0
 0000427,0.00010747,-0.00004949,-0.00003465,-0.00011541,0.00003214,0.00
 002076,-0.00007301,0.00009147,0.00002019,-0.00006247,-0.00002444,0.000
 04019,-0.00016913,-0.00015496,0.00004685,-0.00700821,0.01034480,-0.010
 01331,0.12606643,-0.07853178,0.26845537\\-0.00000061,-0.00000067,-0.00
 000015,0.00000005,0.00000016,-0.00000032,-0.00000015,-0.00000013,-0.00
 000067,0.00000056,0.00000055,0.00000098,-0.00000049,-0.00000066,-0.000
 00010,0.00000042,0.00000060,-0.00000089,-0.00000051,-0.00000046,-0.000
 00152,0.00000034,0.00000048,-0.00000075,-0.00000052,-0.00000062,0.,0.0
 0000021,0.00000008,0.00000165,0.00000108,0.00000119,0.00000093,0.00000
 069,0.00000072,0.00000129,-0.00000004,0.00000001,-0.00000044,-0.000001
 02,-0.00000124,0.\\\@


 THEREFORE SHALL EVIL COME UPON THEE...
 THOU SHALT NOT KNOW FROM WHENCE IT RISETH...
 AND MISCHIEF SHALL FALL UPON THEE...
 THOU SHALT NOT BE ABLE TO PUT IT OFF...
 AND DESOLATION SHALL COME UPON THEE SUDDENLY...
 WHICH THOU SHALT NOT KNOW...

                                         ISAIAH 47.11
 Job cpu time:       0 days  1 hours 20 minutes 33.5 seconds.
 Elapsed time:       0 days  1 hours 20 minutes 33.3 seconds.
 File lengths (MBytes):  RWF=   1376 Int=      0 D2E=      0 Chk=     32 Scr=     32
 Normal termination of Gaussian 16 at Thu Mar  7 04:21:51 2019.
