 Entering Gaussian System, Link 0=g16
 Input=DBQZVPSKYUCKNT-UHFFFAOYSA-N_72by10.0_tor14_a1.com
 Output=DBQZVPSKYUCKNT-UHFFFAOYSA-N_72by10.0_tor14_a1.log
 Initial command:
 /shared/centos7/gaussian/g16/l1.exe "/scratch/underkoffler.c/gaussian_scratch/Gau-10687.inp" -scrdir="/scratch/underkoffler.c/gaussian_scratch/"
 Entering Link 1 = /shared/centos7/gaussian/g16/l1.exe PID=     10688.
  
 Copyright (c) 1988,1990,1992,1993,1995,1998,2003,2009,2016,
            Gaussian, Inc.  All Rights Reserved.
  
 This is part of the Gaussian(R) 16 program.  It is based on
 the Gaussian(R) 09 system (copyright 2009, Gaussian, Inc.),
 the Gaussian(R) 03 system (copyright 2003, Gaussian, Inc.),
 the Gaussian(R) 98 system (copyright 1998, Gaussian, Inc.),
 the Gaussian(R) 94 system (copyright 1995, Gaussian, Inc.),
 the Gaussian 92(TM) system (copyright 1992, Gaussian, Inc.),
 the Gaussian 90(TM) system (copyright 1990, Gaussian, Inc.),
 the Gaussian 88(TM) system (copyright 1988, Gaussian, Inc.),
 the Gaussian 86(TM) system (copyright 1986, Carnegie Mellon
 University), and the Gaussian 82(TM) system (copyright 1983,
 Carnegie Mellon University). Gaussian is a federally registered
 trademark of Gaussian, Inc.
  
 This software contains proprietary and confidential information,
 including trade secrets, belonging to Gaussian, Inc.
  
 This software is provided under written license and may be
 used, copied, transmitted, or stored only in accord with that
 written license.
  
 The following legend is applicable only to US Government
 contracts under FAR:
  
                    RESTRICTED RIGHTS LEGEND
  
 Use, reproduction and disclosure by the US Government is
 subject to restrictions as set forth in subparagraphs (a)
 and (c) of the Commercial Computer Software - Restricted
 Rights clause in FAR 52.227-19.
  
 Gaussian, Inc.
 340 Quinnipiac St., Bldg. 40, Wallingford CT 06492
  
  
 ---------------------------------------------------------------
 Warning -- This program may not be used in any manner that
 competes with the business of Gaussian, Inc. or will provide
 assistance to any competitor of Gaussian, Inc.  The licensee
 of this program is prohibited from giving any competitor of
 Gaussian, Inc. access to this program.  By using this program,
 the user acknowledges that Gaussian, Inc. is engaged in the
 business of creating and licensing software in the field of
 computational chemistry and represents and warrants to the
 licensee that it is not a competitor of Gaussian, Inc. and that
 it will not use this program in any manner prohibited above.
 ---------------------------------------------------------------
  

 Cite this work as:
 Gaussian 16, Revision A.03,
 M. J. Frisch, G. W. Trucks, H. B. Schlegel, G. E. Scuseria, 
 M. A. Robb, J. R. Cheeseman, G. Scalmani, V. Barone, 
 G. A. Petersson, H. Nakatsuji, X. Li, M. Caricato, A. V. Marenich, 
 J. Bloino, B. G. Janesko, R. Gomperts, B. Mennucci, H. P. Hratchian, 
 J. V. Ortiz, A. F. Izmaylov, J. L. Sonnenberg, D. Williams-Young, 
 F. Ding, F. Lipparini, F. Egidi, J. Goings, B. Peng, A. Petrone, 
 T. Henderson, D. Ranasinghe, V. G. Zakrzewski, J. Gao, N. Rega, 
 G. Zheng, W. Liang, M. Hada, M. Ehara, K. Toyota, R. Fukuda, 
 J. Hasegawa, M. Ishida, T. Nakajima, Y. Honda, O. Kitao, H. Nakai, 
 T. Vreven, K. Throssell, J. A. Montgomery, Jr., J. E. Peralta, 
 F. Ogliaro, M. J. Bearpark, J. J. Heyd, E. N. Brothers, K. N. Kudin, 
 V. N. Staroverov, T. A. Keith, R. Kobayashi, J. Normand, 
 K. Raghavachari, A. P. Rendell, J. C. Burant, S. S. Iyengar, 
 J. Tomasi, M. Cossi, J. M. Millam, M. Klene, C. Adamo, R. Cammi, 
 J. W. Ochterski, R. L. Martin, K. Morokuma, O. Farkas, 
 J. B. Foresman, and D. J. Fox, Gaussian, Inc., Wallingford CT, 2016.
 
 ******************************************
 Gaussian 16:  EM64L-G16RevA.03 25-Dec-2016
                 9-Mar-2019 
 ******************************************
 %nprocshared=20
 Will use up to   20 processors via shared memory.
 %mem=5GB
 ----------------------------------------------
 #p m062x/6-311+g(2df,2p) Opt=(CalcFC,ModRedun)
 ----------------------------------------------
 1/10=4,18=120,19=15,26=3,38=1/1,3;
 2/9=110,12=2,17=6,18=5,40=1/2;
 3/5=4,6=6,7=214,11=2,25=1,30=1,71=2,74=-55,140=1/1,2,3;
 4//1;
 5/5=2,38=5/2;
 8/6=4,10=90,11=11/1;
 11/6=1,8=1,9=11,15=111,16=1/1,2,10;
 10/6=1,13=1/2;
 6/7=2,8=2,9=2,10=2,28=1/1;
 7/10=1,18=20,25=1/1,2,3,16;
 1/10=4,18=20,19=15,26=3/3(2);
 2/9=110/2;
 99//99;
 2/9=110/2;
 3/5=4,6=6,7=214,11=2,25=1,30=1,71=1,74=-55/1,2,3;
 4/5=5,16=3,69=1/1;
 5/5=2,38=5/2;
 7//1,2,3,16;
 1/18=20,19=15,26=3/3(-5);
 2/9=110/2;
 6/7=2,8=2,9=2,10=2,19=2,28=1/1;
 99/9=1/99;
 Leave Link    1 at Sat Mar  9 13:21:35 2019, MaxMem=   671088640 cpu:              34.8 elap:               1.8
 (Enter /shared/centos7/gaussian/g16/l101.exe)
 ----------------------------------------
 Gaussian Input Prepared from Scan Object
 ----------------------------------------
 Symbolic Z-matrix:
 Charge =  0 Multiplicity = 2
 O                    -1.28665  -1.38676  -0.26677 
 C                    -1.27582   1.0468   -0.13808 
 C                    -1.77015  -0.26977   0.44945 
 C                    -1.03779   2.10011  -2.4982 
 C                    -1.79026   1.2738   -1.51821 
 H                    -1.58829   1.86255   0.53017 
 H                    -0.18252   1.04847  -0.1406 
 H                    -2.86654  -0.27095   0.47373 
 H                    -1.41549  -0.38856   1.47209 
 H                    -1.43746   2.00261  -3.50632 
 H                    -1.07354   3.16643  -2.2383 
 H                     0.01817   1.82221  -2.51627 
 H                    -2.84368   1.08669  -1.69576 
 H                    -1.46802  -1.24396  -1.20001 
 
 The following ModRedundant input section has been read:
 B       5      13 B                                                           
 B       4      11 B                                                           
 B       2       3 B                                                           
 B       1       3 B                                                           
 B       4      12 B                                                           
 B       2       7 B                                                           
 B       4       5 B                                                           
 B       1      14 B                                                           
 B       3       8 B                                                           
 B       2       6 B                                                           
 B       2       5 B                                                           
 B       3       9 B                                                           
 B       4      10 B                                                           
 D      14       2       5      13 S  72 10.000                                
 
 ITRead=  0  0  0  0  0  0  0  0  0  0  0  0  0  0
 MicOpt= -1 -1 -1 -1 -1 -1 -1 -1 -1 -1 -1 -1 -1 -1
 NAtoms=     14 NQM=       14 NQMF=       0 NMMI=      0 NMMIF=      0
                NMic=       0 NMicF=      0.
                    Isotopes and Nuclear Properties:
 (Nuclear quadrupole moments (NQMom) in fm**2, nuclear magnetic moments (NMagM)
  in nuclear magnetons)

  Atom         1           2           3           4           5           6           7           8           9          10
 IAtWgt=          16          12          12          12          12           1           1           1           1           1
 AtmWgt=  15.9949146  12.0000000  12.0000000  12.0000000  12.0000000   1.0078250   1.0078250   1.0078250   1.0078250   1.0078250
 NucSpn=           0           0           0           0           0           1           1           1           1           1
 AtZEff=  -0.0000000  -0.0000000  -0.0000000  -0.0000000  -0.0000000  -0.0000000  -0.0000000  -0.0000000  -0.0000000  -0.0000000
 NQMom=    0.0000000   0.0000000   0.0000000   0.0000000   0.0000000   0.0000000   0.0000000   0.0000000   0.0000000   0.0000000
 NMagM=    0.0000000   0.0000000   0.0000000   0.0000000   0.0000000   2.7928460   2.7928460   2.7928460   2.7928460   2.7928460
 AtZNuc=   8.0000000   6.0000000   6.0000000   6.0000000   6.0000000   1.0000000   1.0000000   1.0000000   1.0000000   1.0000000

  Atom        11          12          13          14
 IAtWgt=           1           1           1           1
 AtmWgt=   1.0078250   1.0078250   1.0078250   1.0078250
 NucSpn=           1           1           1           1
 AtZEff=  -0.0000000  -0.0000000  -0.0000000  -0.0000000
 NQMom=    0.0000000   0.0000000   0.0000000   0.0000000
 NMagM=    2.7928460   2.7928460   2.7928460   2.7928460
 AtZNuc=   1.0000000   1.0000000   1.0000000   1.0000000
 Leave Link  101 at Sat Mar  9 13:21:35 2019, MaxMem=   671088640 cpu:               5.5 elap:               0.3
 (Enter /shared/centos7/gaussian/g16/l103.exe)

 GradGradGradGradGradGradGradGradGradGradGradGradGradGradGradGradGradGrad
 Berny optimization.
 Initialization pass.
                           ----------------------------
                           !    Initial Parameters    !
                           ! (Angstroms and Degrees)  !
 --------------------------                            --------------------------
 ! Name  Definition              Value          Derivative Info.                !
 --------------------------------------------------------------------------------
 ! R1    R(1,3)                  1.4122         calculate D2E/DX2 analytically  !
 ! R2    R(1,14)                 0.9614         calculate D2E/DX2 analytically  !
 ! R3    R(2,3)                  1.5241         calculate D2E/DX2 analytically  !
 ! R4    R(2,5)                  1.4903         calculate D2E/DX2 analytically  !
 ! R5    R(2,6)                  1.0998         calculate D2E/DX2 analytically  !
 ! R6    R(2,7)                  1.0933         calculate D2E/DX2 analytically  !
 ! R7    R(3,8)                  1.0967         calculate D2E/DX2 analytically  !
 ! R8    R(3,9)                  1.0889         calculate D2E/DX2 analytically  !
 ! R9    R(4,5)                  1.4864         calculate D2E/DX2 analytically  !
 ! R10   R(4,10)                 1.0888         calculate D2E/DX2 analytically  !
 ! R11   R(4,11)                 1.0981         calculate D2E/DX2 analytically  !
 ! R12   R(4,12)                 1.0921         calculate D2E/DX2 analytically  !
 ! R13   R(5,13)                 1.0845         calculate D2E/DX2 analytically  !
 ! A1    A(3,1,14)             108.0745         calculate D2E/DX2 analytically  !
 ! A2    A(3,2,5)              112.1242         calculate D2E/DX2 analytically  !
 ! A3    A(3,2,6)              108.3212         calculate D2E/DX2 analytically  !
 ! A4    A(3,2,7)              109.0587         calculate D2E/DX2 analytically  !
 ! A5    A(5,2,6)              110.5872         calculate D2E/DX2 analytically  !
 ! A6    A(5,2,7)              110.0491         calculate D2E/DX2 analytically  !
 ! A7    A(6,2,7)              106.5217         calculate D2E/DX2 analytically  !
 ! A8    A(1,3,2)              112.1291         calculate D2E/DX2 analytically  !
 ! A9    A(1,3,8)              110.65           calculate D2E/DX2 analytically  !
 ! A10   A(1,3,9)              106.1712         calculate D2E/DX2 analytically  !
 ! A11   A(2,3,8)              109.4946         calculate D2E/DX2 analytically  !
 ! A12   A(2,3,9)              110.5256         calculate D2E/DX2 analytically  !
 ! A13   A(8,3,9)              107.7411         calculate D2E/DX2 analytically  !
 ! A14   A(5,4,10)             112.0139         calculate D2E/DX2 analytically  !
 ! A15   A(5,4,11)             111.5488         calculate D2E/DX2 analytically  !
 ! A16   A(5,4,12)             111.0355         calculate D2E/DX2 analytically  !
 ! A17   A(10,4,11)            107.1055         calculate D2E/DX2 analytically  !
 ! A18   A(10,4,12)            108.4705         calculate D2E/DX2 analytically  !
 ! A19   A(11,4,12)            106.41           calculate D2E/DX2 analytically  !
 ! A20   A(2,5,4)              121.3659         calculate D2E/DX2 analytically  !
 ! A21   A(2,5,13)             117.4266         calculate D2E/DX2 analytically  !
 ! A22   A(4,5,13)             118.6654         calculate D2E/DX2 analytically  !
 ! D1    D(14,1,3,2)           -50.664          calculate D2E/DX2 analytically  !
 ! D2    D(14,1,3,8)            71.9002         calculate D2E/DX2 analytically  !
 ! D3    D(14,1,3,9)          -171.4626         calculate D2E/DX2 analytically  !
 ! D4    D(5,2,3,1)             64.2446         calculate D2E/DX2 analytically  !
 ! D5    D(5,2,3,8)            -58.9725         calculate D2E/DX2 analytically  !
 ! D6    D(5,2,3,9)           -177.5077         calculate D2E/DX2 analytically  !
 ! D7    D(6,2,3,1)           -173.4474         calculate D2E/DX2 analytically  !
 ! D8    D(6,2,3,8)             63.3355         calculate D2E/DX2 analytically  !
 ! D9    D(6,2,3,9)            -55.1997         calculate D2E/DX2 analytically  !
 ! D10   D(7,2,3,1)            -57.8952         calculate D2E/DX2 analytically  !
 ! D11   D(7,2,3,8)            178.8877         calculate D2E/DX2 analytically  !
 ! D12   D(7,2,3,9)             60.3525         calculate D2E/DX2 analytically  !
 ! D13   D(3,2,5,4)           -152.6439         calculate D2E/DX2 analytically  !
 ! D14   D(3,2,5,13)            45.6843         calculate D2E/DX2 analytically  !
 ! D15   D(6,2,5,4)             86.3463         calculate D2E/DX2 analytically  !
 ! D16   D(6,2,5,13)           -75.3255         calculate D2E/DX2 analytically  !
 ! D17   D(7,2,5,4)            -31.0701         calculate D2E/DX2 analytically  !
 ! D18   D(7,2,5,13)           167.2581         calculate D2E/DX2 analytically  !
 ! D19   D(14,2,5,13)           78.4373         Scan                            !
 ! D20   D(10,4,5,2)           168.3897         calculate D2E/DX2 analytically  !
 ! D21   D(10,4,5,13)          -30.1585         calculate D2E/DX2 analytically  !
 ! D22   D(11,4,5,2)           -71.5598         calculate D2E/DX2 analytically  !
 ! D23   D(11,4,5,13)           89.892          calculate D2E/DX2 analytically  !
 ! D24   D(12,4,5,2)            46.9489         calculate D2E/DX2 analytically  !
 ! D25   D(12,4,5,13)         -151.5993         calculate D2E/DX2 analytically  !
 --------------------------------------------------------------------------------
 Trust Radius=3.00D-01 FncErr=1.00D-07 GrdErr=1.00D-06 EigMax=2.50D+02 EigMin=1.00D-04
 Number of optimizations in scan=  73
 Number of steps in this run=     70 maximum allowed number of steps=    100.
 GradGradGradGradGradGradGradGradGradGradGradGradGradGradGradGradGradGrad

 Leave Link  103 at Sat Mar  9 13:21:35 2019, MaxMem=   671088640 cpu:               0.1 elap:               0.0
 (Enter /shared/centos7/gaussian/g16/l202.exe)
                          Input orientation:                          
 ---------------------------------------------------------------------
 Center     Atomic      Atomic             Coordinates (Angstroms)
 Number     Number       Type             X           Y           Z
 ---------------------------------------------------------------------
      1          8           0       -1.286653   -1.386756   -0.266770
      2          6           0       -1.275823    1.046804   -0.138077
      3          6           0       -1.770148   -0.269774    0.449447
      4          6           0       -1.037788    2.100110   -2.498197
      5          6           0       -1.790257    1.273803   -1.518214
      6          1           0       -1.588294    1.862551    0.530166
      7          1           0       -0.182523    1.048467   -0.140596
      8          1           0       -2.866536   -0.270951    0.473726
      9          1           0       -1.415491   -0.388556    1.472088
     10          1           0       -1.437461    2.002611   -3.506323
     11          1           0       -1.073543    3.166432   -2.238299
     12          1           0        0.018172    1.822205   -2.516272
     13          1           0       -2.843678    1.086691   -1.695757
     14          1           0       -1.468016   -1.243964   -1.200014
 ---------------------------------------------------------------------
                    Distance matrix (angstroms):
                    1          2          3          4          5
     1  O    0.000000
     2  C    2.436984   0.000000
     3  C    1.412226   1.524113   0.000000
     4  C    4.147221   2.595435   3.852442   0.000000
     5  C    2.983003   1.490285   2.500945   1.486391   0.000000
     6  H    3.359180   1.099832   2.141587   3.087147   2.140858
     7  H    2.676814   1.093305   2.146268   2.719506   2.129182
     8  H    2.071083   2.154332   1.096657   4.218836   2.740888
     9  H    2.009136   2.161573   1.088892   4.700988   3.441772
    10  H    4.690976   3.504964   4.574116   1.088835   2.146672
    11  H    4.966273   2.990765   4.417777   1.098119   2.148079
    12  H    4.130407   2.816289   4.045981   1.092066   2.137119
    13  H    3.253348   2.210458   2.755788   2.220849   1.084541
    14  H    0.961367   2.532245   1.939343   3.612922   2.558171
                    6          7          8          9         10
     6  H    0.000000
     7  H    1.757512   0.000000
     8  H    2.487753   3.053225   0.000000
     9  H    2.446336   2.487166   1.765244   0.000000
    10  H    4.041733   3.716635   4.801264   5.522928   0.000000
    11  H    3.103140   3.111278   4.731332   5.149936   1.759203
    12  H    3.444292   2.506549   4.652196   4.780154   1.769636
    13  H    2.670708   3.082488   2.559369   3.775091   2.468705
    14  H    3.557867   2.833742   2.388308   2.806173   3.982492
                   11         12         13         14
    11  H    0.000000
    12  H    1.753868   0.000000
    13  H    2.784431   3.066661   0.000000
    14  H    4.548102   3.652763   2.751392   0.000000
 Stoichiometry    C4H9O(2)
 Framework group  C1[X(C4H9O)]
 Deg. of freedom    36
 Full point group                 C1      NOp   1
 Largest Abelian subgroup         C1      NOp   1
 Largest concise Abelian subgroup C1      NOp   1
                         Standard orientation:                         
 ---------------------------------------------------------------------
 Center     Atomic      Atomic             Coordinates (Angstroms)
 Number     Number       Type             X           Y           Z
 ---------------------------------------------------------------------
      1          8           0        1.812857   -0.879076   -0.195072
      2          6           0        0.050534    0.803139   -0.252202
      3          6           0        1.471986    0.443560    0.163848
      4          6           0       -2.294159   -0.304936   -0.147954
      5          6           0       -0.967782   -0.020012    0.459419
      6          1           0       -0.108193    1.872860   -0.051871
      7          1           0       -0.049361    0.671037   -1.332890
      8          1           0        1.585848    0.592636    1.244342
      9          1           0        2.191424    1.088906   -0.337771
     10          1           0       -2.836292   -1.075072    0.398437
     11          1           0       -2.931253    0.589348   -0.163242
     12          1           0       -2.188894   -0.626533   -1.186271
     13          1           0       -0.847227   -0.148421    1.529562
     14          1           0        1.117615   -1.462664    0.121614
 ---------------------------------------------------------------------
 Rotational constants (GHZ):          11.2369404           2.5815691           2.3292566
 Leave Link  202 at Sat Mar  9 13:21:35 2019, MaxMem=   671088640 cpu:               0.2 elap:               0.0
 (Enter /shared/centos7/gaussian/g16/l301.exe)
 Standard basis: 6-311+G(2df,2p) (5D, 7F)
 Ernie: Thresh=  0.10000D-02 Tol=  0.10000D-05 Strict=F.
 There are   276 symmetry adapted cartesian basis functions of A   symmetry.
 There are   251 symmetry adapted basis functions of A   symmetry.
   251 basis functions,   359 primitive gaussians,   276 cartesian basis functions
    21 alpha electrons       20 beta electrons
       nuclear repulsion energy       179.6872366878 Hartrees.
 IExCor= 4336 DFT=T Ex+Corr=M062X ExCW=0 ScaHFX=  0.540000
 ScaDFX=  1.000000  1.000000  1.000000  1.000000 ScalE2=  1.000000  1.000000
 IRadAn=      5 IRanWt=     -1 IRanGd=            0 ICorTp=0 IEmpDi=  4
 NAtoms=   14 NActive=   14 NUniq=   14 SFac= 1.00D+00 NAtFMM=   60 NAOKFM=F Big=F
 Integral buffers will be    131072 words long.
 Raffenetti 2 integral format.
 Two-electron integral symmetry is turned on.
 Leave Link  301 at Sat Mar  9 13:21:35 2019, MaxMem=   671088640 cpu:               1.0 elap:               0.1
 (Enter /shared/centos7/gaussian/g16/l302.exe)
 NPDir=0 NMtPBC=     1 NCelOv=     1 NCel=       1 NClECP=     1 NCelD=      1
         NCelK=      1 NCelE2=     1 NClLst=     1 CellRange=     0.0.
 One-electron integrals computed using PRISM.
 One-electron integral symmetry used in STVInt
 NBasis=   251 RedAO= T EigKep=  4.14D-05  NBF=   251
 NBsUse=   251 1.00D-06 EigRej= -1.00D+00 NBFU=   251
 Precomputing XC quadrature grid using
 IXCGrd= 4 IRadAn=           5 IRanWt=          -1 IRanGd=           0 AccXCQ= 0.00D+00.
 Generated NRdTot=       0 NPtTot=           0 NUsed=           0 NTot=          32
 NSgBfM=   276   276   276   276   276 MxSgAt=    14 MxSgA2=    14.
 Leave Link  302 at Sat Mar  9 13:21:36 2019, MaxMem=   671088640 cpu:               6.4 elap:               0.4
 (Enter /shared/centos7/gaussian/g16/l303.exe)
 DipDrv:  MaxL=1.
 Leave Link  303 at Sat Mar  9 13:21:36 2019, MaxMem=   671088640 cpu:               0.5 elap:               0.0
 (Enter /shared/centos7/gaussian/g16/l401.exe)
 ExpMin= 4.38D-02 ExpMax= 8.59D+03 ExpMxC= 1.30D+03 IAcc=3 IRadAn=         5 AccDes= 0.00D+00
 Harris functional with IExCor= 1009 and IRadAn=       5 diagonalized for initial guess.
 HarFok:  IExCor= 1009 AccDes= 0.00D+00 IRadAn=         5 IDoV= 1 UseB2=F ITyADJ=14
 ICtDFT=  3500011 ScaDFX=  1.000000  1.000000  1.000000  1.000000
 FoFCou: FMM=F IPFlag=           0 FMFlag=      100000 FMFlg1=           0
         NFxFlg=           0 DoJE=T BraDBF=F KetDBF=T FulRan=T
         wScrn=  0.000000 ICntrl=       500 IOpCl=  0 I1Cent=   200000004 NGrid=           0
         NMat0=    1 NMatS0=      1 NMatT0=    0 NMatD0=    1 NMtDS0=    0 NMtDT0=    0
 Petite list used in FoFCou.
 Harris En= -232.903228347387    
 JPrj=0 DoOrth=F DoCkMO=F.
 Initial guess <Sx>= 0.0000 <Sy>= 0.0000 <Sz>= 0.5000 <S**2>= 0.7500 S= 0.5000
 Leave Link  401 at Sat Mar  9 13:21:36 2019, MaxMem=   671088640 cpu:              15.7 elap:               0.8
 (Enter /shared/centos7/gaussian/g16/l502.exe)
 Integral symmetry usage will be decided dynamically.
 UHF open shell SCF:
 Using DIIS extrapolation, IDIIS=  1040.
 NGot=   671088640 LenX=   670928170 LenY=   670851553
 Requested convergence on RMS density matrix=1.00D-08 within 128 cycles.
 Requested convergence on MAX density matrix=1.00D-06.
 Requested convergence on             energy=1.00D-06.
 No special actions if energy rises.
 Fock matrices will be formed incrementally for  20 cycles.

 Cycle   1  Pass 1  IDiag  1:
 FoFJK:  IHMeth= 1 ICntrl=       0 DoSepK=F KAlg= 0 I1Cent=           0 FoldK=F
 IRaf= 970000000 NMat=       1 IRICut=       1 DoRegI=T DoRafI=F ISym2E= 0 IDoP0=0 IntGTp=1.
 FoFCou: FMM=F IPFlag=           0 FMFlag=      100000 FMFlg1=           0
         NFxFlg=           0 DoJE=F BraDBF=F KetDBF=F FulRan=T
         wScrn=  0.000000 ICntrl=         0 IOpCl=  1 I1Cent=           0 NGrid=           0
         NMat0=    1 NMatS0=      1 NMatT0=    0 NMatD0=    1 NMtDS0=    0 NMtDT0=    0
 Symmetry not used in FoFCou.
 E= -232.773380098118    
 DIIS: error= 2.21D-02 at cycle   1 NSaved=   1.
 NSaved= 1 IEnMin= 1 EnMin= -232.773380098118     IErMin= 1 ErrMin= 2.21D-02
 ErrMax= 2.21D-02  0.00D+00 EMaxC= 1.00D-01 BMatC= 9.41D-01 BMatP= 9.41D-01
 IDIUse=3 WtCom= 7.79D-01 WtEn= 2.21D-01
 Coeff-Com:  0.100D+01
 Coeff-En:   0.100D+01
 Coeff:      0.100D+01
 Gap=     0.229 Goal=   None    Shift=    0.000
 Gap=     0.313 Goal=   None    Shift=    0.000
 GapD=    0.229 DampG=1.000 DampE=0.500 DampFc=0.5000 IDamp=-1.
 Damping current iteration by 5.00D-01
 RMSDP=3.99D-03 MaxDP=2.49D-01              OVMax= 1.49D-01

 Cycle   2  Pass 1  IDiag  1:
 RMSU=  1.99D-03    CP:  9.89D-01
 E= -232.872195887514     Delta-E=       -0.098815789396 Rises=F Damp=T
 DIIS: error= 4.96D-03 at cycle   2 NSaved=   2.
 NSaved= 2 IEnMin= 2 EnMin= -232.872195887514     IErMin= 2 ErrMin= 4.96D-03
 ErrMax= 4.96D-03  0.00D+00 EMaxC= 1.00D-01 BMatC= 5.78D-02 BMatP= 9.41D-01
 IDIUse=3 WtCom= 9.50D-01 WtEn= 4.96D-02
 Coeff-Com: -0.836D-01 0.108D+01
 Coeff-En:   0.000D+00 0.100D+01
 Coeff:     -0.795D-01 0.108D+01
 Gap=     0.269 Goal=   None    Shift=    0.000
 Gap=     0.351 Goal=   None    Shift=    0.000
 RMSDP=1.25D-03 MaxDP=7.52D-02 DE=-9.88D-02 OVMax= 8.17D-02

 Cycle   3  Pass 1  IDiag  1:
 RMSU=  1.24D-03    CP:  9.80D-01  9.48D-01
 E= -232.966978511174     Delta-E=       -0.094782623659 Rises=F Damp=F
 DIIS: error= 3.65D-03 at cycle   3 NSaved=   3.
 NSaved= 3 IEnMin= 3 EnMin= -232.966978511174     IErMin= 3 ErrMin= 3.65D-03
 ErrMax= 3.65D-03  0.00D+00 EMaxC= 1.00D-01 BMatC= 1.41D-02 BMatP= 5.78D-02
 IDIUse=3 WtCom= 9.64D-01 WtEn= 3.65D-02
 Coeff-Com: -0.745D-01 0.326D+00 0.748D+00
 Coeff-En:   0.000D+00 0.000D+00 0.100D+01
 Coeff:     -0.718D-01 0.315D+00 0.757D+00
 Gap=     0.269 Goal=   None    Shift=    0.000
 Gap=     0.317 Goal=   None    Shift=    0.000
 RMSDP=2.87D-04 MaxDP=2.25D-02 DE=-9.48D-02 OVMax= 1.54D-02

 Cycle   4  Pass 1  IDiag  1:
 RMSU=  2.22D-04    CP:  9.82D-01  1.04D+00  9.71D-01
 E= -232.968939546796     Delta-E=       -0.001961035622 Rises=F Damp=F
 DIIS: error= 1.63D-03 at cycle   4 NSaved=   4.
 NSaved= 4 IEnMin= 4 EnMin= -232.968939546796     IErMin= 4 ErrMin= 1.63D-03
 ErrMax= 1.63D-03  0.00D+00 EMaxC= 1.00D-01 BMatC= 3.37D-03 BMatP= 1.41D-02
 IDIUse=3 WtCom= 9.84D-01 WtEn= 1.63D-02
 Coeff-Com: -0.262D-01 0.614D-01 0.365D+00 0.600D+00
 Coeff-En:   0.000D+00 0.000D+00 0.104D+00 0.896D+00
 Coeff:     -0.258D-01 0.604D-01 0.360D+00 0.605D+00
 Gap=     0.267 Goal=   None    Shift=    0.000
 Gap=     0.323 Goal=   None    Shift=    0.000
 RMSDP=1.30D-04 MaxDP=1.08D-02 DE=-1.96D-03 OVMax= 5.53D-03

 Cycle   5  Pass 1  IDiag  1:
 RMSU=  7.33D-05    CP:  9.80D-01  1.02D+00  1.02D+00  6.47D-01
 E= -232.969594952486     Delta-E=       -0.000655405690 Rises=F Damp=F
 DIIS: error= 2.56D-04 at cycle   5 NSaved=   5.
 NSaved= 5 IEnMin= 5 EnMin= -232.969594952486     IErMin= 5 ErrMin= 2.56D-04
 ErrMax= 2.56D-04  0.00D+00 EMaxC= 1.00D-01 BMatC= 9.96D-05 BMatP= 3.37D-03
 IDIUse=3 WtCom= 9.97D-01 WtEn= 2.56D-03
 Coeff-Com: -0.220D-03-0.896D-02 0.228D-01 0.134D+00 0.852D+00
 Coeff-En:   0.000D+00 0.000D+00 0.000D+00 0.000D+00 0.100D+01
 Coeff:     -0.220D-03-0.893D-02 0.228D-01 0.134D+00 0.853D+00
 Gap=     0.269 Goal=   None    Shift=    0.000
 Gap=     0.322 Goal=   None    Shift=    0.000
 RMSDP=4.49D-05 MaxDP=3.59D-03 DE=-6.55D-04 OVMax= 2.61D-03

 Cycle   6  Pass 1  IDiag  1:
 RMSU=  3.09D-05    CP:  9.80D-01  1.02D+00  1.03D+00  7.53D-01  1.09D+00
 E= -232.969631592806     Delta-E=       -0.000036640320 Rises=F Damp=F
 DIIS: error= 1.27D-04 at cycle   6 NSaved=   6.
 NSaved= 6 IEnMin= 6 EnMin= -232.969631592806     IErMin= 6 ErrMin= 1.27D-04
 ErrMax= 1.27D-04  0.00D+00 EMaxC= 1.00D-01 BMatC= 1.30D-05 BMatP= 9.96D-05
 IDIUse=3 WtCom= 9.99D-01 WtEn= 1.27D-03
 Coeff-Com:  0.376D-02-0.978D-02-0.491D-01-0.729D-01 0.798D-01 0.105D+01
 Coeff-En:   0.000D+00 0.000D+00 0.000D+00 0.000D+00 0.000D+00 0.100D+01
 Coeff:      0.376D-02-0.977D-02-0.490D-01-0.728D-01 0.797D-01 0.105D+01
 Gap=     0.269 Goal=   None    Shift=    0.000
 Gap=     0.323 Goal=   None    Shift=    0.000
 RMSDP=1.60D-05 MaxDP=9.91D-04 DE=-3.66D-05 OVMax= 1.29D-03

 Cycle   7  Pass 1  IDiag  1:
 RMSU=  1.13D-05    CP:  9.80D-01  1.02D+00  1.03D+00  7.59D-01  1.21D+00
                    CP:  1.11D+00
 E= -232.969639224932     Delta-E=       -0.000007632126 Rises=F Damp=F
 DIIS: error= 5.45D-05 at cycle   7 NSaved=   7.
 NSaved= 7 IEnMin= 7 EnMin= -232.969639224932     IErMin= 7 ErrMin= 5.45D-05
 ErrMax= 5.45D-05  0.00D+00 EMaxC= 1.00D-01 BMatC= 2.82D-06 BMatP= 1.30D-05
 IDIUse=1 WtCom= 1.00D+00 WtEn= 0.00D+00
 Coeff-Com:  0.122D-02-0.211D-02-0.201D-01-0.452D-01-0.928D-01 0.381D+00
 Coeff-Com:  0.778D+00
 Coeff:      0.122D-02-0.211D-02-0.201D-01-0.452D-01-0.928D-01 0.381D+00
 Coeff:      0.778D+00
 Gap=     0.269 Goal=   None    Shift=    0.000
 Gap=     0.323 Goal=   None    Shift=    0.000
 RMSDP=6.34D-06 MaxDP=3.10D-04 DE=-7.63D-06 OVMax= 6.09D-04

 Cycle   8  Pass 1  IDiag  1:
 RMSU=  3.88D-06    CP:  9.80D-01  1.02D+00  1.04D+00  7.68D-01  1.23D+00
                    CP:  1.23D+00  1.19D+00
 E= -232.969640259123     Delta-E=       -0.000001034192 Rises=F Damp=F
 DIIS: error= 1.35D-05 at cycle   8 NSaved=   8.
 NSaved= 8 IEnMin= 8 EnMin= -232.969640259123     IErMin= 8 ErrMin= 1.35D-05
 ErrMax= 1.35D-05  0.00D+00 EMaxC= 1.00D-01 BMatC= 1.57D-07 BMatP= 2.82D-06
 IDIUse=1 WtCom= 1.00D+00 WtEn= 0.00D+00
 Coeff-Com: -0.245D-03 0.705D-03 0.189D-02-0.432D-03-0.222D-01-0.416D-01
 Coeff-Com:  0.129D+00 0.933D+00
 Coeff:     -0.245D-03 0.705D-03 0.189D-02-0.432D-03-0.222D-01-0.416D-01
 Coeff:      0.129D+00 0.933D+00
 Gap=     0.269 Goal=   None    Shift=    0.000
 Gap=     0.323 Goal=   None    Shift=    0.000
 RMSDP=2.36D-06 MaxDP=1.59D-04 DE=-1.03D-06 OVMax= 1.19D-04

 Cycle   9  Pass 1  IDiag  1:
 RMSU=  1.36D-06    CP:  9.80D-01  1.02D+00  1.03D+00  7.66D-01  1.22D+00
                    CP:  1.24D+00  1.31D+00  1.23D+00
 E= -232.969640325810     Delta-E=       -0.000000066687 Rises=F Damp=F
 DIIS: error= 4.82D-06 at cycle   9 NSaved=   9.
 NSaved= 9 IEnMin= 9 EnMin= -232.969640325810     IErMin= 9 ErrMin= 4.82D-06
 ErrMax= 4.82D-06  0.00D+00 EMaxC= 1.00D-01 BMatC= 1.32D-08 BMatP= 1.57D-07
 IDIUse=1 WtCom= 1.00D+00 WtEn= 0.00D+00
 Coeff-Com: -0.177D-03 0.373D-03 0.241D-02 0.456D-02 0.588D-02-0.473D-01
 Coeff-Com: -0.560D-01 0.161D+00 0.929D+00
 Coeff:     -0.177D-03 0.373D-03 0.241D-02 0.456D-02 0.588D-02-0.473D-01
 Coeff:     -0.560D-01 0.161D+00 0.929D+00
 Gap=     0.269 Goal=   None    Shift=    0.000
 Gap=     0.323 Goal=   None    Shift=    0.000
 RMSDP=1.20D-06 MaxDP=1.37D-04 DE=-6.67D-08 OVMax= 5.13D-05

 Cycle  10  Pass 1  IDiag  1:
 RMSU=  4.65D-07    CP:  9.80D-01  1.02D+00  1.03D+00  7.66D-01  1.22D+00
                    CP:  1.23D+00  1.37D+00  1.37D+00  1.08D+00
 E= -232.969640332272     Delta-E=       -0.000000006462 Rises=F Damp=F
 DIIS: error= 8.81D-07 at cycle  10 NSaved=  10.
 NSaved=10 IEnMin=10 EnMin= -232.969640332272     IErMin=10 ErrMin= 8.81D-07
 ErrMax= 8.81D-07  0.00D+00 EMaxC= 1.00D-01 BMatC= 9.61D-10 BMatP= 1.32D-08
 IDIUse=1 WtCom= 1.00D+00 WtEn= 0.00D+00
 Coeff-Com:  0.403D-05-0.130D-04 0.117D-03 0.471D-03 0.190D-02-0.244D-02
 Coeff-Com: -0.127D-01-0.508D-01 0.107D+00 0.957D+00
 Coeff:      0.403D-05-0.130D-04 0.117D-03 0.471D-03 0.190D-02-0.244D-02
 Coeff:     -0.127D-01-0.508D-01 0.107D+00 0.957D+00
 Gap=     0.269 Goal=   None    Shift=    0.000
 Gap=     0.323 Goal=   None    Shift=    0.000
 RMSDP=1.92D-07 MaxDP=1.11D-05 DE=-6.46D-09 OVMax= 1.52D-05

 Cycle  11  Pass 1  IDiag  1:
 RMSU=  1.10D-07    CP:  9.80D-01  1.02D+00  1.03D+00  7.66D-01  1.22D+00
                    CP:  1.23D+00  1.37D+00  1.38D+00  1.15D+00  1.13D+00
 E= -232.969640332729     Delta-E=       -0.000000000457 Rises=F Damp=F
 DIIS: error= 3.01D-07 at cycle  11 NSaved=  11.
 NSaved=11 IEnMin=11 EnMin= -232.969640332729     IErMin=11 ErrMin= 3.01D-07
 ErrMax= 3.01D-07  0.00D+00 EMaxC= 1.00D-01 BMatC= 1.50D-10 BMatP= 9.61D-10
 IDIUse=1 WtCom= 1.00D+00 WtEn= 0.00D+00
 Coeff-Com:  0.183D-04-0.398D-04-0.193D-03-0.276D-03 0.650D-04 0.359D-02
 Coeff-Com:  0.160D-02-0.303D-01-0.535D-01 0.271D+00 0.808D+00
 Coeff:      0.183D-04-0.398D-04-0.193D-03-0.276D-03 0.650D-04 0.359D-02
 Coeff:      0.160D-02-0.303D-01-0.535D-01 0.271D+00 0.808D+00
 Gap=     0.269 Goal=   None    Shift=    0.000
 Gap=     0.323 Goal=   None    Shift=    0.000
 RMSDP=5.33D-08 MaxDP=2.49D-06 DE=-4.57D-10 OVMax= 3.92D-06

 Cycle  12  Pass 1  IDiag  1:
 RMSU=  3.10D-08    CP:  9.80D-01  1.02D+00  1.03D+00  7.66D-01  1.22D+00
                    CP:  1.23D+00  1.37D+00  1.38D+00  1.16D+00  1.18D+00
                    CP:  1.26D+00
 E= -232.969640332785     Delta-E=       -0.000000000056 Rises=F Damp=F
 DIIS: error= 1.59D-07 at cycle  12 NSaved=  12.
 NSaved=12 IEnMin=12 EnMin= -232.969640332785     IErMin=12 ErrMin= 1.59D-07
 ErrMax= 1.59D-07  0.00D+00 EMaxC= 1.00D-01 BMatC= 1.69D-11 BMatP= 1.50D-10
 IDIUse=1 WtCom= 1.00D+00 WtEn= 0.00D+00
 Coeff-Com:  0.330D-05-0.726D-05-0.611D-04-0.122D-03-0.220D-03 0.111D-02
 Coeff-Com:  0.202D-02-0.353D-03-0.256D-01-0.545D-01 0.197D+00 0.881D+00
 Coeff:      0.330D-05-0.726D-05-0.611D-04-0.122D-03-0.220D-03 0.111D-02
 Coeff:      0.202D-02-0.353D-03-0.256D-01-0.545D-01 0.197D+00 0.881D+00
 Gap=     0.269 Goal=   None    Shift=    0.000
 Gap=     0.323 Goal=   None    Shift=    0.000
 RMSDP=2.78D-08 MaxDP=2.25D-06 DE=-5.62D-11 OVMax= 1.54D-06

 Cycle  13  Pass 1  IDiag  1:
 RMSU=  1.28D-08    CP:  9.80D-01  1.02D+00  1.03D+00  7.66D-01  1.22D+00
                    CP:  1.23D+00  1.37D+00  1.38D+00  1.16D+00  1.19D+00
                    CP:  1.40D+00  1.20D+00
 E= -232.969640332793     Delta-E=       -0.000000000008 Rises=F Damp=F
 DIIS: error= 2.77D-08 at cycle  13 NSaved=  13.
 NSaved=13 IEnMin=13 EnMin= -232.969640332793     IErMin=13 ErrMin= 2.77D-08
 ErrMax= 2.77D-08  0.00D+00 EMaxC= 1.00D-01 BMatC= 1.17D-12 BMatP= 1.69D-11
 IDIUse=1 WtCom= 1.00D+00 WtEn= 0.00D+00
 Coeff-Com: -0.165D-05 0.340D-05 0.125D-04 0.166D-04-0.158D-04-0.238D-03
 Coeff-Com: -0.190D-04 0.278D-02 0.222D-02-0.328D-01-0.616D-01 0.974D-01
 Coeff-Com:  0.992D+00
 Coeff:     -0.165D-05 0.340D-05 0.125D-04 0.166D-04-0.158D-04-0.238D-03
 Coeff:     -0.190D-04 0.278D-02 0.222D-02-0.328D-01-0.616D-01 0.974D-01
 Coeff:      0.992D+00
 Gap=     0.269 Goal=   None    Shift=    0.000
 Gap=     0.323 Goal=   None    Shift=    0.000
 RMSDP=1.50D-08 MaxDP=1.94D-06 DE=-7.79D-12 OVMax= 6.57D-07

 Cycle  14  Pass 1  IDiag  1:
 RMSU=  3.44D-09    CP:  9.80D-01  1.02D+00  1.03D+00  7.66D-01  1.22D+00
                    CP:  1.23D+00  1.37D+00  1.38D+00  1.16D+00  1.18D+00
                    CP:  1.45D+00  1.34D+00  1.30D+00
 E= -232.969640332791     Delta-E=        0.000000000002 Rises=F Damp=F
 DIIS: error= 8.73D-09 at cycle  14 NSaved=  14.
 NSaved=14 IEnMin=13 EnMin= -232.969640332793     IErMin=14 ErrMin= 8.73D-09
 ErrMax= 8.73D-09  0.00D+00 EMaxC= 1.00D-01 BMatC= 7.38D-14 BMatP= 1.17D-12
 IDIUse=1 WtCom= 1.00D+00 WtEn= 0.00D+00
 Coeff-Com: -0.929D-07 0.270D-06 0.298D-05 0.550D-05 0.100D-04-0.509D-04
 Coeff-Com: -0.112D-03-0.130D-04 0.150D-02 0.432D-02-0.103D-01-0.640D-01
 Coeff-Com: -0.437D-01 0.111D+01
 Coeff:     -0.929D-07 0.270D-06 0.298D-05 0.550D-05 0.100D-04-0.509D-04
 Coeff:     -0.112D-03-0.130D-04 0.150D-02 0.432D-02-0.103D-01-0.640D-01
 Coeff:     -0.437D-01 0.111D+01
 Gap=     0.269 Goal=   None    Shift=    0.000
 Gap=     0.323 Goal=   None    Shift=    0.000
 RMSDP=4.45D-09 MaxDP=5.70D-07 DE= 1.82D-12 OVMax= 1.67D-07

 SCF Done:  E(UM062X) =  -232.969640333     A.U. after   14 cycles
            NFock= 14  Conv=0.45D-08     -V/T= 2.0039
 <Sx>= 0.0000 <Sy>= 0.0000 <Sz>= 0.5000 <S**2>= 0.7551 S= 0.5025
 <L.S>= 0.000000000000E+00
 KE= 2.320721609802D+02 PE=-9.023894864988D+02 EE= 2.576604484981D+02
 Annihilation of the first spin contaminant:
 S**2 before annihilation     0.7551,   after     0.7500
 Leave Link  502 at Sat Mar  9 13:22:19 2019, MaxMem=   671088640 cpu:             844.7 elap:              42.3
 (Enter /shared/centos7/gaussian/g16/l801.exe)
 DoSCS=F DFT=T ScalE2(SS,OS)=  1.000000  1.000000
 Range of M.O.s used for correlation:     1   251
 NBasis=   251 NAE=    21 NBE=    20 NFC=     0 NFV=     0
 NROrb=    251 NOA=    21 NOB=    20 NVA=   230 NVB=   231

 **** Warning!!: The largest alpha MO coefficient is  0.47421221D+02


 **** Warning!!: The largest beta MO coefficient is  0.49438068D+02

 Leave Link  801 at Sat Mar  9 13:22:19 2019, MaxMem=   671088640 cpu:               0.4 elap:               0.0
 (Enter /shared/centos7/gaussian/g16/l1101.exe)
 Using compressed storage, NAtomX=    14.
 Will process     15 centers per pass.
 Leave Link 1101 at Sat Mar  9 13:22:19 2019, MaxMem=   671088640 cpu:               5.7 elap:               0.3
 (Enter /shared/centos7/gaussian/g16/l1102.exe)
 Symmetrizing basis deriv contribution to polar:
 IMax=3 JMax=2 DiffMx= 0.00D+00
 Leave Link 1102 at Sat Mar  9 13:22:19 2019, MaxMem=   671088640 cpu:               0.5 elap:               0.0
 (Enter /shared/centos7/gaussian/g16/l1110.exe)
 Forming Gx(P) for the SCF density, NAtomX=    14.
 Integral derivatives from FoFJK, PRISM(SPDF).
 Do as many integral derivatives as possible in FoFJK.
 G2DrvN: MDV=     671087496.
 G2DrvN: will do    15 centers at a time, making    1 passes.
 Calling FoFCou, ICntrl=  3107 FMM=F I1Cent=   0 AccDes= 0.00D+00.
 FoFJK:  IHMeth= 1 ICntrl=    3107 DoSepK=F KAlg= 0 I1Cent=           0 FoldK=F
 IRaf=         0 NMat=       1 IRICut=       1 DoRegI=T DoRafI=F ISym2E= 0 IDoP0=0 IntGTp=1.
 FoFCou: FMM=F IPFlag=           0 FMFlag=      100000 FMFlg1=           0
         NFxFlg=           0 DoJE=F BraDBF=F KetDBF=F FulRan=T
         wScrn=  0.000000 ICntrl=      3107 IOpCl=  1 I1Cent=           0 NGrid=           0
         NMat0=    1 NMatS0=      1 NMatT0=    0 NMatD0=    1 NMtDS0=    0 NMtDT0=    0
 Symmetry not used in FoFCou.
 End of G2Drv F.D. properties file   721 does not exist.
 End of G2Drv F.D. properties file   722 does not exist.
 End of G2Drv F.D. properties file   788 does not exist.
 Leave Link 1110 at Sat Mar  9 13:23:42 2019, MaxMem=   671088640 cpu:            1651.2 elap:              82.6
 (Enter /shared/centos7/gaussian/g16/l1002.exe)
 Minotr:  UHF open shell wavefunction.
          IDoAtm=11111111111111
          Direct CPHF calculation.
          Differentiating once with respect to nuclear coordinates.
          Requested convergence is 1.0D-08 RMS, and 1.0D-07 maximum.
          Secondary convergence is 1.0D-12 RMS, and 1.0D-12 maximum.
          NewPWx=T KeepS1=F KeepF1=F KeepIn=T MapXYZ=F SortEE=F KeepMc=T.
         4264 words used for storage of precomputed grid.
 Two-electron integrals replicated using symmetry.
          MDV=     671088640 using IRadAn=       1.
          Solving linear equations simultaneously, MaxMat=     380.
 FoF2E skips out because all densities are zero.
 CalDSu exits because no D1Ps are significant.
 FoFJK:  IHMeth= 1 ICntrl=       0 DoSepK=F KAlg= 0 I1Cent=           0 FoldK=F
 IRaf= 970000000 NMat=      42 IRICut=     105 DoRegI=T DoRafI=T ISym2E= 2 IDoP0=3 IntGTp=3.
 FoFCou: FMM=F IPFlag=           0 FMFlag=      100000 FMFlg1=           0
         NFxFlg=           0 DoJE=F BraDBF=F KetDBF=F FulRan=T
         wScrn=  0.000000 ICntrl=         0 IOpCl=  1 I1Cent=           0 NGrid=           0
         NMat0=   42 NMatS0=     42 NMatT0=    0 NMatD0=   42 NMtDS0=    0 NMtDT0=    0
 Integrals replicated using symmetry in FoFCou.
 Raff kept on since  95.49% of shell-pairs survive, threshold=   0.20 IRatSp=95.
          There are    45 degrees of freedom in the 1st order CPHF.  IDoFFX=6 NUNeed=     0.
     39 vectors produced by pass  0 Test12= 2.10D-14 2.22D-09 XBig12= 1.46D-01 9.21D-02.
 AX will form    39 AO Fock derivatives at one time.
     39 vectors produced by pass  1 Test12= 2.10D-14 2.22D-09 XBig12= 9.66D-03 1.20D-02.
     39 vectors produced by pass  2 Test12= 2.10D-14 2.22D-09 XBig12= 4.90D-04 3.07D-03.
     39 vectors produced by pass  3 Test12= 2.10D-14 2.22D-09 XBig12= 9.03D-06 3.49D-04.
     39 vectors produced by pass  4 Test12= 2.10D-14 2.22D-09 XBig12= 1.03D-07 3.25D-05.
     39 vectors produced by pass  5 Test12= 2.10D-14 2.22D-09 XBig12= 1.05D-09 4.05D-06.
     39 vectors produced by pass  6 Test12= 2.10D-14 2.22D-09 XBig12= 7.87D-12 2.52D-07.
     15 vectors produced by pass  7 Test12= 2.10D-14 2.22D-09 XBig12= 5.96D-14 2.28D-08.
 InvSVY:  IOpt=1 It=  1 EMax= 2.00D-15
 Solved reduced A of dimension   288 with    39 vectors.
 End of Minotr F.D. properties file   721 does not exist.
 End of Minotr F.D. properties file   722 does not exist.
 End of Minotr F.D. properties file   788 does not exist.
 Leave Link 1002 at Sat Mar  9 13:25:52 2019, MaxMem=   671088640 cpu:            2596.4 elap:             129.9
 (Enter /shared/centos7/gaussian/g16/l601.exe)
 Copying SCF densities to generalized density rwf, IOpCl= 1 IROHF=0.

 **********************************************************************

            Population analysis using the SCF density.

 **********************************************************************

 Orbital symmetries:
 Alpha Orbitals:
       Occupied  (A) (A) (A) (A) (A) (A) (A) (A) (A) (A) (A) (A)
                 (A) (A) (A) (A) (A) (A) (A) (A) (A)
       Virtual   (A) (A) (A) (A) (A) (A) (A) (A) (A) (A) (A) (A)
                 (A) (A) (A) (A) (A) (A) (A) (A) (A) (A) (A) (A)
                 (A) (A) (A) (A) (A) (A) (A) (A) (A) (A) (A) (A)
                 (A) (A) (A) (A) (A) (A) (A) (A) (A) (A) (A) (A)
                 (A) (A) (A) (A) (A) (A) (A) (A) (A) (A) (A) (A)
                 (A) (A) (A) (A) (A) (A) (A) (A) (A) (A) (A) (A)
                 (A) (A) (A) (A) (A) (A) (A) (A) (A) (A) (A) (A)
                 (A) (A) (A) (A) (A) (A) (A) (A) (A) (A) (A) (A)
                 (A) (A) (A) (A) (A) (A) (A) (A) (A) (A) (A) (A)
                 (A) (A) (A) (A) (A) (A) (A) (A) (A) (A) (A) (A)
                 (A) (A) (A) (A) (A) (A) (A) (A) (A) (A) (A) (A)
                 (A) (A) (A) (A) (A) (A) (A) (A) (A) (A) (A) (A)
                 (A) (A) (A) (A) (A) (A) (A) (A) (A) (A) (A) (A)
                 (A) (A) (A) (A) (A) (A) (A) (A) (A) (A) (A) (A)
                 (A) (A) (A) (A) (A) (A) (A) (A) (A) (A) (A) (A)
                 (A) (A) (A) (A) (A) (A) (A) (A) (A) (A) (A) (A)
                 (A) (A) (A) (A) (A) (A) (A) (A) (A) (A) (A) (A)
                 (A) (A) (A) (A) (A) (A) (A) (A) (A) (A) (A) (A)
                 (A) (A) (A) (A) (A) (A) (A) (A) (A) (A) (A) (A)
                 (A) (A)
 Beta  Orbitals:
       Occupied  (A) (A) (A) (A) (A) (A) (A) (A) (A) (A) (A) (A)
                 (A) (A) (A) (A) (A) (A) (A) (A)
       Virtual   (A) (A) (A) (A) (A) (A) (A) (A) (A) (A) (A) (A)
                 (A) (A) (A) (A) (A) (A) (A) (A) (A) (A) (A) (A)
                 (A) (A) (A) (A) (A) (A) (A) (A) (A) (A) (A) (A)
                 (A) (A) (A) (A) (A) (A) (A) (A) (A) (A) (A) (A)
                 (A) (A) (A) (A) (A) (A) (A) (A) (A) (A) (A) (A)
                 (A) (A) (A) (A) (A) (A) (A) (A) (A) (A) (A) (A)
                 (A) (A) (A) (A) (A) (A) (A) (A) (A) (A) (A) (A)
                 (A) (A) (A) (A) (A) (A) (A) (A) (A) (A) (A) (A)
                 (A) (A) (A) (A) (A) (A) (A) (A) (A) (A) (A) (A)
                 (A) (A) (A) (A) (A) (A) (A) (A) (A) (A) (A) (A)
                 (A) (A) (A) (A) (A) (A) (A) (A) (A) (A) (A) (A)
                 (A) (A) (A) (A) (A) (A) (A) (A) (A) (A) (A) (A)
                 (A) (A) (A) (A) (A) (A) (A) (A) (A) (A) (A) (A)
                 (A) (A) (A) (A) (A) (A) (A) (A) (A) (A) (A) (A)
                 (A) (A) (A) (A) (A) (A) (A) (A) (A) (A) (A) (A)
                 (A) (A) (A) (A) (A) (A) (A) (A) (A) (A) (A) (A)
                 (A) (A) (A) (A) (A) (A) (A) (A) (A) (A) (A) (A)
                 (A) (A) (A) (A) (A) (A) (A) (A) (A) (A) (A) (A)
                 (A) (A) (A) (A) (A) (A) (A) (A) (A) (A) (A) (A)
                 (A) (A) (A)
 The electronic state is 2-A.
 Alpha  occ. eigenvalues --  -19.61543 -10.57962 -10.55036 -10.53771 -10.53434
 Alpha  occ. eigenvalues --   -1.14192  -0.90307  -0.82563  -0.73139  -0.65886
 Alpha  occ. eigenvalues --   -0.58329  -0.53850  -0.52486  -0.50507  -0.47842
 Alpha  occ. eigenvalues --   -0.46569  -0.42997  -0.42075  -0.39176  -0.34776
 Alpha  occ. eigenvalues --   -0.25272
 Alpha virt. eigenvalues --    0.01622   0.02772   0.03151   0.04213   0.05522
 Alpha virt. eigenvalues --    0.06250   0.06636   0.07416   0.08460   0.09411
 Alpha virt. eigenvalues --    0.10167   0.11866   0.13282   0.13748   0.16356
 Alpha virt. eigenvalues --    0.17136   0.18918   0.19990   0.20259   0.21579
 Alpha virt. eigenvalues --    0.21929   0.23431   0.24144   0.25444   0.26437
 Alpha virt. eigenvalues --    0.27701   0.27786   0.29046   0.29567   0.30247
 Alpha virt. eigenvalues --    0.31702   0.32978   0.37610   0.41521   0.43798
 Alpha virt. eigenvalues --    0.44101   0.46318   0.48521   0.51293   0.53224
 Alpha virt. eigenvalues --    0.53901   0.54965   0.56558   0.57348   0.58057
 Alpha virt. eigenvalues --    0.59042   0.59473   0.61142   0.62549   0.63070
 Alpha virt. eigenvalues --    0.64582   0.65631   0.67407   0.68460   0.68605
 Alpha virt. eigenvalues --    0.69470   0.70013   0.72939   0.78228   0.82358
 Alpha virt. eigenvalues --    0.83655   0.86714   0.89081   0.91661   0.92997
 Alpha virt. eigenvalues --    0.94035   0.97731   0.99385   1.03550   1.04591
 Alpha virt. eigenvalues --    1.06076   1.07104   1.08671   1.11774   1.14416
 Alpha virt. eigenvalues --    1.15704   1.16955   1.18580   1.20563   1.21561
 Alpha virt. eigenvalues --    1.22423   1.24546   1.26068   1.28899   1.30869
 Alpha virt. eigenvalues --    1.31811   1.32109   1.33470   1.36174   1.39345
 Alpha virt. eigenvalues --    1.40447   1.42565   1.44232   1.45080   1.46335
 Alpha virt. eigenvalues --    1.47562   1.50105   1.50649   1.51965   1.53731
 Alpha virt. eigenvalues --    1.54680   1.58640   1.58905   1.60821   1.62005
 Alpha virt. eigenvalues --    1.64498   1.72283   1.77119   1.79107   1.93820
 Alpha virt. eigenvalues --    2.09817   2.18619   2.29666   2.31387   2.37415
 Alpha virt. eigenvalues --    2.43373   2.49231   2.50144   2.54285   2.59856
 Alpha virt. eigenvalues --    2.60859   2.65922   2.72969   2.76476   2.77464
 Alpha virt. eigenvalues --    2.81367   2.84586   2.86898   2.90680   2.92373
 Alpha virt. eigenvalues --    2.94288   2.95673   2.98617   3.01817   3.06163
 Alpha virt. eigenvalues --    3.08687   3.10916   3.13975   3.14517   3.17191
 Alpha virt. eigenvalues --    3.17946   3.20333   3.24361   3.24978   3.28621
 Alpha virt. eigenvalues --    3.29695   3.33362   3.36486   3.37022   3.39720
 Alpha virt. eigenvalues --    3.40772   3.44181   3.48590   3.50813   3.53521
 Alpha virt. eigenvalues --    3.55248   3.56565   3.59460   3.62014   3.63850
 Alpha virt. eigenvalues --    3.64659   3.69877   3.71495   3.74234   3.75859
 Alpha virt. eigenvalues --    3.78053   3.84290   3.87438   3.88957   3.90925
 Alpha virt. eigenvalues --    3.95969   3.96794   4.00184   4.01735   4.05102
 Alpha virt. eigenvalues --    4.06403   4.10523   4.11526   4.13245   4.18573
 Alpha virt. eigenvalues --    4.20902   4.21686   4.23843   4.25949   4.27914
 Alpha virt. eigenvalues --    4.30052   4.33233   4.35444   4.36107   4.38846
 Alpha virt. eigenvalues --    4.41191   4.46224   4.47441   4.48984   4.52593
 Alpha virt. eigenvalues --    4.53855   4.61387   4.66196   4.68817   4.71858
 Alpha virt. eigenvalues --    4.96925   5.02890   5.17333   5.22344   5.26245
 Alpha virt. eigenvalues --    5.28060   5.39875   5.44627   5.47889   5.50288
 Alpha virt. eigenvalues --    5.55364   5.57980   5.60059   5.60880   5.62604
 Alpha virt. eigenvalues --    5.64680   5.85732   5.96132   6.51794   6.99221
 Alpha virt. eigenvalues --    7.20074   7.23602   7.27200   7.51256   7.63872
 Alpha virt. eigenvalues --   24.17133  24.38312  24.44472  24.52682  50.15488
  Beta  occ. eigenvalues --  -19.61523 -10.57932 -10.54362 -10.53831 -10.53494
  Beta  occ. eigenvalues --   -1.14115  -0.88638  -0.82028  -0.72531  -0.63872
  Beta  occ. eigenvalues --   -0.58051  -0.52742  -0.51829  -0.49476  -0.46826
  Beta  occ. eigenvalues --   -0.46074  -0.42352  -0.41602  -0.38880  -0.34650
  Beta virt. eigenvalues --   -0.02306   0.01486   0.02611   0.02992   0.04101
  Beta virt. eigenvalues --    0.05480   0.06273   0.06624   0.07368   0.08204
  Beta virt. eigenvalues --    0.09306   0.10077   0.11553   0.13039   0.13571
  Beta virt. eigenvalues --    0.15787   0.17092   0.18993   0.20248   0.20388
  Beta virt. eigenvalues --    0.21767   0.21932   0.23666   0.24601   0.25555
  Beta virt. eigenvalues --    0.26670   0.27606   0.27755   0.29229   0.29536
  Beta virt. eigenvalues --    0.30418   0.32544   0.33255   0.37609   0.41797
  Beta virt. eigenvalues --    0.43977   0.44153   0.46416   0.49102   0.51559
  Beta virt. eigenvalues --    0.54138   0.54370   0.55055   0.57070   0.57841
  Beta virt. eigenvalues --    0.58461   0.58958   0.59796   0.61728   0.62534
  Beta virt. eigenvalues --    0.63417   0.65305   0.66070   0.67528   0.68561
  Beta virt. eigenvalues --    0.69004   0.69498   0.70538   0.73221   0.77877
  Beta virt. eigenvalues --    0.82301   0.83640   0.86703   0.88994   0.91749
  Beta virt. eigenvalues --    0.92938   0.93606   0.98124   0.99484   1.03968
  Beta virt. eigenvalues --    1.04959   1.06120   1.07140   1.09241   1.11898
  Beta virt. eigenvalues --    1.14255   1.15747   1.16874   1.18814   1.20717
  Beta virt. eigenvalues --    1.21577   1.22746   1.24710   1.26370   1.28819
  Beta virt. eigenvalues --    1.31236   1.31655   1.32818   1.34325   1.36611
  Beta virt. eigenvalues --    1.39510   1.40640   1.42811   1.43843   1.45172
  Beta virt. eigenvalues --    1.46368   1.47660   1.50309   1.50781   1.51861
  Beta virt. eigenvalues --    1.54199   1.55018   1.58566   1.59088   1.60641
  Beta virt. eigenvalues --    1.62099   1.65129   1.72773   1.77645   1.79355
  Beta virt. eigenvalues --    1.93948   2.09929   2.18820   2.29753   2.31475
  Beta virt. eigenvalues --    2.38196   2.44012   2.49425   2.50744   2.54969
  Beta virt. eigenvalues --    2.60841   2.61598   2.66609   2.74840   2.77760
  Beta virt. eigenvalues --    2.79712   2.84941   2.87584   2.88360   2.92360
  Beta virt. eigenvalues --    2.94268   2.95498   2.96769   3.00687   3.03006
  Beta virt. eigenvalues --    3.07824   3.10695   3.11545   3.14952   3.16426
  Beta virt. eigenvalues --    3.17752   3.18610   3.20752   3.24634   3.25967
  Beta virt. eigenvalues --    3.29594   3.30693   3.34870   3.37613   3.38940
  Beta virt. eigenvalues --    3.40943   3.44747   3.46020   3.49675   3.52208
  Beta virt. eigenvalues --    3.54880   3.55634   3.57459   3.61525   3.63365
  Beta virt. eigenvalues --    3.64366   3.68075   3.70201   3.72475   3.74525
  Beta virt. eigenvalues --    3.76708   3.78456   3.84890   3.87639   3.89018
  Beta virt. eigenvalues --    3.91916   3.96445   3.97084   4.00990   4.02966
  Beta virt. eigenvalues --    4.06301   4.07668   4.11399   4.12604   4.14279
  Beta virt. eigenvalues --    4.18885   4.21683   4.22893   4.24209   4.26604
  Beta virt. eigenvalues --    4.28883   4.31325   4.33844   4.35981   4.37088
  Beta virt. eigenvalues --    4.38987   4.41786   4.46751   4.49310   4.50827
  Beta virt. eigenvalues --    4.53054   4.54953   4.62685   4.68317   4.69804
  Beta virt. eigenvalues --    4.74625   4.99617   5.06128   5.17935   5.22422
  Beta virt. eigenvalues --    5.26643   5.29071   5.39922   5.44512   5.50938
  Beta virt. eigenvalues --    5.53940   5.55661   5.58009   5.60107   5.61162
  Beta virt. eigenvalues --    5.62783   5.64600   5.85779   5.96275   6.51818
  Beta virt. eigenvalues --    6.99350   7.20135   7.23651   7.27294   7.51349
  Beta virt. eigenvalues --    7.63987  24.17977  24.38380  24.44638  24.53214
  Beta virt. eigenvalues --   50.15461
          Condensed to atoms (all electrons):
               1          2          3          4          5          6
     1  O    8.078958   0.023578   0.145813  -0.007184  -0.045158   0.007957
     2  C    0.023578   5.607230   0.161915   0.061177  -0.277235   0.396274
     3  C    0.145813   0.161915   5.049568  -0.030286   0.090532  -0.041185
     4  C   -0.007184   0.061177  -0.030286   5.177258   0.034123  -0.015656
     5  C   -0.045158  -0.277235   0.090532   0.034123   6.162550  -0.002886
     6  H    0.007957   0.396274  -0.041185  -0.015656  -0.002886   0.546303
     7  H   -0.013353   0.485747  -0.041190   0.030445  -0.116349  -0.034361
     8  H   -0.047149   0.049778   0.386126   0.006519  -0.058724  -0.005585
     9  H   -0.052573  -0.087182   0.467554  -0.001092   0.032818  -0.002494
    10  H    0.000041   0.018605   0.001814   0.406412  -0.048002  -0.000411
    11  H    0.000066  -0.024872  -0.002398   0.396015  -0.004327   0.001806
    12  H   -0.000710  -0.007308   0.002461   0.435016  -0.068936  -0.000100
    13  H    0.000242  -0.005750  -0.012183  -0.000862   0.362931  -0.002134
    14  H    0.255010  -0.066676   0.004855  -0.016082   0.067140   0.000354
               7          8          9         10         11         12
     1  O   -0.013353  -0.047149  -0.052573   0.000041   0.000066  -0.000710
     2  C    0.485747   0.049778  -0.087182   0.018605  -0.024872  -0.007308
     3  C   -0.041190   0.386126   0.467554   0.001814  -0.002398   0.002461
     4  C    0.030445   0.006519  -0.001092   0.406412   0.396015   0.435016
     5  C   -0.116349  -0.058724   0.032818  -0.048002  -0.004327  -0.068936
     6  H   -0.034361  -0.005585  -0.002494  -0.000411   0.001806  -0.000100
     7  H    0.505247   0.004585  -0.005085   0.000241  -0.001599   0.002749
     8  H    0.004585   0.561958  -0.034534  -0.000005  -0.000031  -0.000061
     9  H   -0.005085  -0.034534   0.534848   0.000015  -0.000009   0.000010
    10  H    0.000241  -0.000005   0.000015   0.543515  -0.028283  -0.021533
    11  H   -0.001599  -0.000031  -0.000009  -0.028283   0.567094  -0.040444
    12  H    0.002749  -0.000061   0.000010  -0.021533  -0.040444   0.551693
    13  H    0.003774   0.002866  -0.000208  -0.006543  -0.001008   0.004850
    14  H   -0.000541  -0.005727   0.008011   0.000106  -0.000058   0.000136
              13         14
     1  O    0.000242   0.255010
     2  C   -0.005750  -0.066676
     3  C   -0.012183   0.004855
     4  C   -0.000862  -0.016082
     5  C    0.362931   0.067140
     6  H   -0.002134   0.000354
     7  H    0.003774  -0.000541
     8  H    0.002866  -0.005727
     9  H   -0.000208   0.008011
    10  H   -0.006543   0.000106
    11  H   -0.001008  -0.000058
    12  H    0.004850   0.000136
    13  H    0.464902  -0.000965
    14  H   -0.000965   0.501995
          Atomic-Atomic Spin Densities.
               1          2          3          4          5          6
     1  O    0.009656   0.000169  -0.008070   0.000939  -0.002539   0.001284
     2  C    0.000169   0.009151   0.016836   0.044414  -0.178587   0.001224
     3  C   -0.008070   0.016836   0.043292  -0.000490  -0.033868  -0.011367
     4  C    0.000939   0.044414  -0.000490  -0.002774  -0.161446  -0.004223
     5  C   -0.002539  -0.178587  -0.033868  -0.161446   1.553551  -0.003608
     6  H    0.001284   0.001224  -0.011367  -0.004223  -0.003608   0.072514
     7  H   -0.001669   0.017307   0.006936   0.009233  -0.035732  -0.009340
     8  H   -0.000999   0.002275   0.001384   0.000827  -0.004975  -0.001404
     9  H    0.000607   0.000507   0.000094   0.000140  -0.000796   0.000192
    10  H    0.000007   0.005608   0.001456   0.011529  -0.023216  -0.000297
    11  H    0.000060  -0.011890  -0.004281   0.007052   0.001266   0.003544
    12  H   -0.000007   0.012619   0.003821   0.027162  -0.051677  -0.001254
    13  H    0.000313   0.017176   0.000854   0.013389  -0.036101  -0.001988
    14  H    0.009226   0.005157   0.002224   0.001271  -0.001386   0.000348
               7          8          9         10         11         12
     1  O   -0.001669  -0.000999   0.000607   0.000007   0.000060  -0.000007
     2  C    0.017307   0.002275   0.000507   0.005608  -0.011890   0.012619
     3  C    0.006936   0.001384   0.000094   0.001456  -0.004281   0.003821
     4  C    0.009233   0.000827   0.000140   0.011529   0.007052   0.027162
     5  C   -0.035732  -0.004975  -0.000796  -0.023216   0.001266  -0.051677
     6  H   -0.009340  -0.001404   0.000192  -0.000297   0.003544  -0.001254
     7  H    0.016955   0.000259   0.000084   0.000234  -0.001877   0.002774
     8  H    0.000259  -0.003103   0.000812   0.000006  -0.000026   0.000020
     9  H    0.000084   0.000812  -0.002563   0.000000  -0.000000   0.000006
    10  H    0.000234   0.000006   0.000000   0.014310  -0.008043   0.004981
    11  H   -0.001877  -0.000026  -0.000000  -0.008043   0.082684  -0.014392
    12  H    0.002774   0.000020   0.000006   0.004981  -0.014392   0.035494
    13  H    0.000402   0.000226   0.000037   0.001688  -0.002268   0.000572
    14  H   -0.000539   0.000058  -0.000596  -0.000040   0.000058  -0.000123
              13         14
     1  O    0.000313   0.009226
     2  C    0.017176   0.005157
     3  C    0.000854   0.002224
     4  C    0.013389   0.001271
     5  C   -0.036101  -0.001386
     6  H   -0.001988   0.000348
     7  H    0.000402  -0.000539
     8  H    0.000226   0.000058
     9  H    0.000037  -0.000596
    10  H    0.001688  -0.000040
    11  H   -0.002268   0.000058
    12  H    0.000572  -0.000123
    13  H   -0.054633  -0.000210
    14  H   -0.000210  -0.017218
 Mulliken charges and spin densities:
               1          2
     1  O   -0.345538   0.008978
     2  C   -0.335281  -0.058036
     3  C   -0.183396   0.018822
     4  C   -0.475803  -0.052975
     5  C   -0.128477   1.020885
     6  H    0.152118   0.045623
     7  H    0.179689   0.005026
     8  H    0.139984  -0.004640
     9  H    0.139920  -0.001476
    10  H    0.134028   0.008224
    11  H    0.138048   0.051888
    12  H    0.142176   0.019996
    13  H    0.190089  -0.060545
    14  H    0.252443  -0.001771
 Sum of Mulliken charges =  -0.00000   1.00000
 Mulliken charges and spin densities with hydrogens summed into heavy atoms:
               1          2
     1  O   -0.093095   0.007207
     2  C   -0.003474  -0.007386
     3  C    0.096507   0.012706
     4  C   -0.061551   0.027133
     5  C    0.061612   0.960341
 APT charges:
               1
     1  O   -0.554224
     2  C   -0.806288
     3  C   -0.656691
     4  C   -1.313860
     5  C   -0.222115
     6  H    0.392617
     7  H    0.355138
     8  H    0.353255
     9  H    0.488094
    10  H    0.482465
    11  H    0.431632
    12  H    0.298738
    13  H    0.377075
    14  H    0.374165
 Sum of APT charges =  -0.00000
 APT charges with hydrogens summed into heavy atoms:
               1
     1  O   -0.180059
     2  C   -0.058534
     3  C    0.184658
     4  C   -0.101025
     5  C    0.154960
 Electronic spatial extent (au):  <R**2>=            568.9744
 Charge=             -0.0000 electrons
 Dipole moment (field-independent basis, Debye):
    X=             -1.8327    Y=              0.8645    Z=              0.6798  Tot=              2.1374
 Quadrupole moment (field-independent basis, Debye-Ang):
   XX=            -36.7280   YY=            -31.9913   ZZ=            -32.7151
   XY=              3.1757   XZ=              1.1745   YZ=             -1.1009
 Traceless Quadrupole moment (field-independent basis, Debye-Ang):
   XX=             -2.9166   YY=              1.8202   ZZ=              1.0964
   XY=              3.1757   XZ=              1.1745   YZ=             -1.1009
 Octapole moment (field-independent basis, Debye-Ang**2):
  XXX=             -5.1521  YYY=             -5.3048  ZZZ=             -0.1124  XYY=              1.6448
  XXY=              6.6300  XXZ=              1.4894  XZZ=              1.7518  YZZ=             -1.1413
  YYZ=              0.6746  XYZ=             -1.3240
 Hexadecapole moment (field-independent basis, Debye-Ang**3):
 XXXX=           -569.4416 YYYY=           -123.6398 ZZZZ=            -76.9568 XXXY=             15.3047
 XXXZ=             -1.5576 YYYX=             -7.4322 YYYZ=             -0.6767 ZZZX=              0.8875
 ZZZY=             -0.2769 XXYY=           -115.5487 XXZZ=           -106.3351 YYZZ=            -37.2240
 XXYZ=             -4.5868 YYXZ=             -0.1640 ZZXY=              1.1723
 N-N= 1.796872366878D+02 E-N=-9.023894865188D+02  KE= 2.320721609802D+02
  Exact polarizability:   0.000   0.000   0.000   0.000   0.000   0.000
 Approx polarizability:  62.464   1.087  61.495   0.121  -0.560  59.309
                          Isotropic Fermi Contact Couplings
        Atom                 a.u.       MegaHertz       Gauss      10(-4) cm-1
     1  O(17)              0.00098      -0.59270      -0.21149      -0.19770
     2  C(13)             -0.03104     -34.89142     -12.45013     -11.63852
     3  C(13)              0.02195      24.67442       8.80445       8.23050
     4  C(13)             -0.03076     -34.58294     -12.34005     -11.53563
     5  C(13)              0.17473     196.43039      70.09125      65.52213
     6  H(1)               0.02605     116.44150      41.54922      38.84070
     7  H(1)               0.00421      18.84028       6.72268       6.28444
     8  H(1)              -0.00040      -1.79602      -0.64086      -0.59909
     9  H(1)              -0.00058      -2.57031      -0.91715      -0.85736
    10  H(1)               0.00391      17.46170       6.23077       5.82460
    11  H(1)               0.02887     129.03445      46.04270      43.04126
    12  H(1)               0.01037      46.34457      16.53689      15.45888
    13  H(1)              -0.01412     -63.11648     -22.52153     -21.05339
    14  H(1)              -0.00146      -6.53152      -2.33061      -2.17868
 --------------------------------------------------------
       Center         ----  Spin Dipole Couplings  ----
                      3XX-RR        3YY-RR        3ZZ-RR
 --------------------------------------------------------
     1   Atom        0.013681     -0.005202     -0.008479
     2   Atom       -0.004153      0.012010     -0.007857
     3   Atom        0.026221     -0.012173     -0.014048
     4   Atom        0.008743      0.000886     -0.009629
     5   Atom       -0.278496      0.709213     -0.430717
     6   Atom       -0.002903      0.010019     -0.007116
     7   Atom       -0.004135     -0.003759      0.007894
     8   Atom        0.007673     -0.004317     -0.003356
     9   Atom        0.005503     -0.001586     -0.003917
    10   Atom        0.013148     -0.004101     -0.009047
    11   Atom        0.012386     -0.005314     -0.007072
    12   Atom        0.001372     -0.007666      0.006294
    13   Atom       -0.056558     -0.015695      0.072253
    14   Atom        0.018377     -0.004814     -0.013562
 --------------------------------------------------------
                        XY            XZ            YZ
 --------------------------------------------------------
     1   Atom        0.028472     -0.030174     -0.023616
     2   Atom        0.006584     -0.005261     -0.003452
     3   Atom        0.000402      0.006788     -0.002414
     4   Atom       -0.007197      0.005654      0.003201
     5   Atom       -0.568982     -0.159140      0.347547
     6   Atom        0.008827     -0.004482     -0.005562
     7   Atom        0.003636     -0.009519     -0.009251
     8   Atom        0.004029      0.005417      0.001761
     9   Atom        0.003376     -0.002230     -0.001037
    10   Atom        0.009547      0.000440      0.001126
    11   Atom       -0.005669      0.007556     -0.001419
    12   Atom        0.003607      0.012928      0.003699
    13   Atom       -0.026497      0.009850     -0.004686
    14   Atom       -0.009246     -0.005632      0.000720
 --------------------------------------------------------


 ---------------------------------------------------------------------------------
              Anisotropic Spin Dipole Couplings in Principal Axis System
 ---------------------------------------------------------------------------------

       Atom             a.u.   MegaHertz   Gauss  10(-4) cm-1        Axes

              Baa    -0.0313     2.262     0.807     0.755  0.2657  0.4716  0.8408
     1 O(17)  Bbb    -0.0255     1.843     0.658     0.615 -0.6694  0.7179 -0.1911
              Bcc     0.0567    -4.105    -1.465    -1.369  0.6937  0.5121 -0.5065
 
              Baa    -0.0116    -1.561    -0.557    -0.521  0.6049 -0.0524  0.7946
     2 C(13)  Bbb    -0.0038    -0.514    -0.183    -0.171  0.7091 -0.4185 -0.5675
              Bcc     0.0155     2.075     0.740     0.692  0.3623  0.9067 -0.2159
 
              Baa    -0.0165    -2.219    -0.792    -0.740 -0.1412  0.4893  0.8606
     3 C(13)  Bbb    -0.0108    -1.449    -0.517    -0.483  0.0791  0.8721 -0.4829
              Bcc     0.0273     3.668     1.309     1.224  0.9868  0.0002  0.1619
 
              Baa    -0.0132    -1.778    -0.634    -0.593 -0.3431 -0.3702  0.8633
     4 C(13)  Bbb    -0.0003    -0.034    -0.012    -0.011  0.3423  0.8066  0.4819
              Bcc     0.0135     1.812     0.647     0.604  0.8747 -0.4608  0.1500
 
              Baa    -0.5381   -72.206   -25.765   -24.085  0.9140  0.4024  0.0520
     5 C(13)  Bbb    -0.5283   -70.891   -25.296   -23.647  0.0537 -0.2470  0.9675
              Bcc     1.0664   143.097    51.060    47.732 -0.4022  0.8815  0.2474
 
              Baa    -0.0100    -5.315    -1.897    -1.773  0.5397 -0.0041  0.8419
     6 H(1)   Bbb    -0.0066    -3.524    -1.257    -1.175  0.7119 -0.5316 -0.4590
              Bcc     0.0166     8.840     3.154     2.949  0.4494  0.8470 -0.2840
 
              Baa    -0.0101    -5.404    -1.928    -1.802  0.6390  0.4929  0.5905
     7 H(1)   Bbb    -0.0076    -4.032    -1.439    -1.345 -0.6439  0.7628  0.0600
              Bcc     0.0177     9.435     3.367     3.147 -0.4209 -0.4186  0.8048
 
              Baa    -0.0057    -3.026    -1.080    -1.009 -0.0946 -0.6729  0.7337
     8 H(1)   Bbb    -0.0055    -2.918    -1.041    -0.973 -0.4468  0.6873  0.5727
              Bcc     0.0111     5.943     2.121     1.982  0.8896  0.2736  0.3657
 
              Baa    -0.0045    -2.381    -0.849    -0.794  0.1642  0.1582  0.9736
     9 H(1)   Bbb    -0.0029    -1.561    -0.557    -0.521 -0.3895  0.9172 -0.0834
              Bcc     0.0074     3.941     1.406     1.315  0.9063  0.3655 -0.2123
 
              Baa    -0.0096    -5.140    -1.834    -1.715  0.1989 -0.5130  0.8350
    10 H(1)   Bbb    -0.0078    -4.153    -1.482    -1.385 -0.3563  0.7559  0.5493
              Bcc     0.0174     9.293     3.316     3.100  0.9130  0.4068  0.0325
 
              Baa    -0.0097    -5.198    -1.855    -1.734 -0.3555 -0.1601  0.9209
    11 H(1)   Bbb    -0.0068    -3.621    -1.292    -1.208  0.1879  0.9529  0.2381
              Bcc     0.0165     8.819     3.147     2.942  0.9156 -0.2577  0.3086
 
              Baa    -0.0095    -5.085    -1.815    -1.696  0.7445 -0.4350 -0.5065
    12 H(1)   Bbb    -0.0085    -4.532    -1.617    -1.512  0.2282  0.8787 -0.4193
              Bcc     0.0180     9.618     3.432     3.208  0.6275  0.1966  0.7534
 
              Baa    -0.0699   -37.301   -13.310   -12.442  0.8990  0.4352 -0.0479
    13 H(1)   Bbb    -0.0036    -1.933    -0.690    -0.645 -0.4283  0.8968  0.1110
              Bcc     0.0735    39.234    14.000    13.087  0.0913 -0.0792  0.9927
 
              Baa    -0.0146    -7.803    -2.784    -2.603  0.1985  0.1156  0.9733
    14 H(1)   Bbb    -0.0078    -4.185    -1.493    -1.396  0.2946  0.9401 -0.1718
              Bcc     0.0225    11.988     4.278     3.999  0.9348 -0.3208 -0.1525
 

 ---------------------------------------------------------------------------------

 No NMR shielding tensors so no spin-rotation constants.
 Leave Link  601 at Sat Mar  9 13:25:52 2019, MaxMem=   671088640 cpu:               7.4 elap:               0.4
 (Enter /shared/centos7/gaussian/g16/l701.exe)
 ... and contract with generalized density number  0.
 Compute integral second derivatives.
 Leave Link  701 at Sat Mar  9 13:25:52 2019, MaxMem=   671088640 cpu:               5.5 elap:               0.3
 (Enter /shared/centos7/gaussian/g16/l702.exe)
 L702 exits ... SP integral derivatives will be done elsewhere.
 Leave Link  702 at Sat Mar  9 13:25:52 2019, MaxMem=   671088640 cpu:               0.3 elap:               0.0
 (Enter /shared/centos7/gaussian/g16/l703.exe)
 Integral derivatives from FoFJK, PRISM(SPDF).
 Compute integral second derivatives, UseDBF=F ICtDFT=           0.
 Calling FoFJK, ICntrl=    100147 FMM=F ISym2X=0 I1Cent= 0 IOpClX= 1 NMat=1 NMatS=1 NMatT=0.
 FoFJK:  IHMeth= 1 ICntrl=  100147 DoSepK=F KAlg= 0 I1Cent=           0 FoldK=F
 IRaf=         0 NMat=       1 IRICut=       1 DoRegI=T DoRafI=F ISym2E= 0 IDoP0=0 IntGTp=1.
 FoFCou: FMM=F IPFlag=           0 FMFlag=      100000 FMFlg1=         800
         NFxFlg=           0 DoJE=F BraDBF=F KetDBF=F FulRan=T
         wScrn=  0.000000 ICntrl=    100147 IOpCl=  1 I1Cent=           0 NGrid=           0
         NMat0=    1 NMatS0=      1 NMatT0=    0 NMatD0=    1 NMtDS0=    0 NMtDT0=    0
 Symmetry not used in FoFCou.
 Leave Link  703 at Sat Mar  9 13:27:12 2019, MaxMem=   671088640 cpu:            1587.2 elap:              79.4
 (Enter /shared/centos7/gaussian/g16/l716.exe)
 Dipole        =-7.21055171D-01 3.40130607D-01 2.67439547D-01
 Polarizability= 0.00000000D+00 0.00000000D+00 0.00000000D+00
                 0.00000000D+00 0.00000000D+00 0.00000000D+00
 ***** Axes restored to original set *****
 -------------------------------------------------------------------
 Center     Atomic                   Forces (Hartrees/Bohr)
 Number     Number              X              Y              Z
 -------------------------------------------------------------------
      1        8           0.000000396    0.000000006   -0.000000051
      2        6          -0.000000081   -0.000000016    0.000000026
      3        6           0.000000120   -0.000000075   -0.000000032
      4        6          -0.000000097    0.000000084    0.000000033
      5        6          -0.000000036   -0.000000022   -0.000000000
      6        1          -0.000000316   -0.000000072    0.000000016
      7        1          -0.000000107    0.000000224    0.000000096
      8        1           0.000000103   -0.000000329   -0.000000145
      9        1           0.000000056   -0.000000064   -0.000000042
     10        1          -0.000000027    0.000000074    0.000000038
     11        1          -0.000000359    0.000000107    0.000000102
     12        1          -0.000000074    0.000000331    0.000000137
     13        1          -0.000000006   -0.000000250   -0.000000099
     14        1           0.000000428    0.000000003   -0.000000078
 -------------------------------------------------------------------
 Cartesian Forces:  Max     0.000000428 RMS     0.000000161
 FormGI is forming the generalized inverse of G from B-inverse, IUseBI=4.
 Leave Link  716 at Sat Mar  9 13:27:12 2019, MaxMem=   671088640 cpu:               0.6 elap:               0.0
 (Enter /shared/centos7/gaussian/g16/l103.exe)

 GradGradGradGradGradGradGradGradGradGradGradGradGradGradGradGradGradGrad
 Berny optimization.
 Red2BG is reusing G-inverse.
 Internal  Forces:  Max     0.000000026 RMS     0.000000009
 Search for a local minimum.
 Step number   1 out of a maximum of   70 on scan point     1 out of    73
 All quantities printed in internal units (Hartrees-Bohrs-Radians)
 RMS Force = .78357D-08 SwitMx=.10000D-02 MixMth= 2
 Mixed Optimization -- En-DIIS/RFO-DIIS
 Second derivative matrix not updated -- analytic derivatives used.
 ITU=  0
     Eigenvalues ---    0.00107   0.00292   0.00342   0.00620   0.03480
     Eigenvalues ---    0.04201   0.04877   0.05559   0.05694   0.05870
     Eigenvalues ---    0.07150   0.08576   0.10510   0.10664   0.11967
     Eigenvalues ---    0.11993   0.12764   0.13815   0.16677   0.17121
     Eigenvalues ---    0.20122   0.22956   0.27842   0.30803   0.31458
     Eigenvalues ---    0.32100   0.32659   0.33303   0.34008   0.34146
     Eigenvalues ---    0.34377   0.35171   0.35664   0.40078   0.53634
     Eigenvalues --- 1000.000001000.000001000.000001000.000001000.00000
     Eigenvalues --- 1000.000001000.000001000.000001000.000001000.00000
     Eigenvalues --- 1000.000001000.000001000.000001000.000001000.00000
     Eigenvalues --- 1000.000001000.000001000.000001000.000001000.00000
     Eigenvalues --- 1000.000001000.000001000.000001000.000001000.00000
 RFO step:  Lambda= 0.00000000D+00 EMin= 1.06615741D-03
 Linear search not attempted -- first point.
 Iteration  1 RMS(Cart)=  0.00000153 RMS(Int)=  0.00000000
 Iteration  2 RMS(Cart)=  0.00000000 RMS(Int)=  0.00000000
 Iteration  1 RMS(Cart)=  0.00000000 RMS(Int)=  0.00000000
 ITry= 1 IFail=0 DXMaxC= 4.75D-06 DCOld= 1.00D+10 DXMaxT= 3.00D-01 DXLimC= 3.00D+00 Rises=F
 Variable       Old X    -DE/DX   Delta X   Delta X   Delta X     New X
                                 (Linear)    (Quad)   (Total)
    R1        2.66872   0.00000   0.00000   0.00000   0.00000   2.66872
    R2        1.81672   0.00000   0.00000   0.00000   0.00000   1.81672
    R3        2.88016  -0.00000   0.00000   0.00000   0.00000   2.88016
    R4        2.81623   0.00000   0.00000  -0.00000  -0.00000   2.81623
    R5        2.07838   0.00000   0.00000  -0.00000  -0.00000   2.07838
    R6        2.06605  -0.00000   0.00000  -0.00000  -0.00000   2.06605
    R7        2.07238   0.00000   0.00000   0.00000   0.00000   2.07238
    R8        2.05771  -0.00000   0.00000  -0.00000  -0.00000   2.05771
    R9        2.80887   0.00000   0.00000  -0.00000  -0.00000   2.80887
   R10        2.05760  -0.00000   0.00000  -0.00000  -0.00000   2.05760
   R11        2.07514   0.00000   0.00000   0.00000   0.00000   2.07514
   R12        2.06371  -0.00000   0.00000  -0.00000  -0.00000   2.06371
   R13        2.04948   0.00000   0.00000   0.00000   0.00000   2.04948
    A1        1.88626  -0.00000   0.00000  -0.00000  -0.00000   1.88626
    A2        1.95694  -0.00000   0.00000  -0.00000  -0.00000   1.95694
    A3        1.89056   0.00000   0.00000  -0.00000  -0.00000   1.89056
    A4        1.90343  -0.00000   0.00000   0.00000   0.00000   1.90343
    A5        1.93011  -0.00000   0.00000   0.00000   0.00000   1.93011
    A6        1.92072   0.00000   0.00000  -0.00000  -0.00000   1.92072
    A7        1.85915   0.00000   0.00000   0.00000   0.00000   1.85915
    A8        1.95702  -0.00000   0.00000  -0.00000  -0.00000   1.95702
    A9        1.93121  -0.00000   0.00000  -0.00000  -0.00000   1.93121
   A10        1.85304   0.00000   0.00000  -0.00000  -0.00000   1.85304
   A11        1.91104   0.00000   0.00000   0.00000   0.00000   1.91104
   A12        1.92904   0.00000   0.00000   0.00000   0.00000   1.92904
   A13        1.88044  -0.00000   0.00000   0.00000   0.00000   1.88044
   A14        1.95501   0.00000   0.00000   0.00000   0.00000   1.95501
   A15        1.94689  -0.00000   0.00000  -0.00000  -0.00000   1.94689
   A16        1.93794   0.00000   0.00000   0.00000   0.00000   1.93794
   A17        1.86934   0.00000   0.00000  -0.00000  -0.00000   1.86934
   A18        1.89317   0.00000   0.00000   0.00000   0.00000   1.89317
   A19        1.85720   0.00000   0.00000  -0.00000  -0.00000   1.85720
   A20        2.11823   0.00000   0.00000   0.00000   0.00000   2.11823
   A21        2.04948  -0.00000   0.00000   0.00000   0.00000   2.04948
   A22        2.07110   0.00000   0.00000   0.00000   0.00000   2.07110
    D1       -0.88425  -0.00000   0.00000  -0.00000  -0.00000  -0.88426
    D2        1.25490  -0.00000   0.00000  -0.00000  -0.00000   1.25489
    D3       -2.99259   0.00000   0.00000  -0.00000  -0.00000  -2.99259
    D4        1.12128  -0.00000   0.00000  -0.00000  -0.00000   1.12128
    D5       -1.02926   0.00000   0.00000  -0.00000  -0.00000  -1.02926
    D6       -3.09809  -0.00000   0.00000  -0.00000  -0.00000  -3.09809
    D7       -3.02723  -0.00000   0.00000  -0.00000  -0.00000  -3.02723
    D8        1.10541   0.00000   0.00000  -0.00000  -0.00000   1.10541
    D9       -0.96342  -0.00000   0.00000  -0.00000  -0.00000  -0.96342
   D10       -1.01046   0.00000   0.00000  -0.00000  -0.00000  -1.01046
   D11        3.12218   0.00000   0.00000  -0.00000  -0.00000   3.12218
   D12        1.05335  -0.00000   0.00000  -0.00000  -0.00000   1.05335
   D13       -2.66414   0.00000   0.00000   0.00000   0.00000  -2.66414
   D14        0.79734   0.00000   0.00000   0.00000   0.00000   0.79734
   D15        1.50703   0.00000   0.00000   0.00000   0.00000   1.50703
   D16       -1.31468   0.00000   0.00000   0.00000   0.00000  -1.31468
   D17       -0.54228   0.00000   0.00000   0.00000   0.00000  -0.54227
   D18        2.91920   0.00000   0.00000   0.00000   0.00000   2.91921
   D19        1.36899   0.00000   0.00000   0.00000   0.00000   1.36899
   D20        2.93896   0.00000   0.00000  -0.00000  -0.00000   2.93895
   D21       -0.52636   0.00000   0.00000   0.00000   0.00000  -0.52636
   D22       -1.24895  -0.00000   0.00000  -0.00000  -0.00000  -1.24896
   D23        1.56891   0.00000   0.00000   0.00000   0.00000   1.56891
   D24        0.81941  -0.00000   0.00000  -0.00000  -0.00000   0.81941
   D25       -2.64591   0.00000   0.00000   0.00000   0.00000  -2.64591
         Item               Value     Threshold  Converged?
 Maximum Force            0.000000     0.000450     YES
 RMS     Force            0.000000     0.000300     YES
 Maximum Displacement     0.000005     0.001800     YES
 RMS     Displacement     0.000002     0.001200     YES
 Predicted change in Energy=-9.511306D-14
 Optimization completed.
    -- Stationary point found.
                           ----------------------------
                           !   Optimized Parameters   !
                           ! (Angstroms and Degrees)  !
 --------------------------                            --------------------------
 ! Name  Definition              Value          Derivative Info.                !
 --------------------------------------------------------------------------------
 ! R1    R(1,3)                  1.4122         -DE/DX =    0.0                 !
 ! R2    R(1,14)                 0.9614         -DE/DX =    0.0                 !
 ! R3    R(2,3)                  1.5241         -DE/DX =    0.0                 !
 ! R4    R(2,5)                  1.4903         -DE/DX =    0.0                 !
 ! R5    R(2,6)                  1.0998         -DE/DX =    0.0                 !
 ! R6    R(2,7)                  1.0933         -DE/DX =    0.0                 !
 ! R7    R(3,8)                  1.0967         -DE/DX =    0.0                 !
 ! R8    R(3,9)                  1.0889         -DE/DX =    0.0                 !
 ! R9    R(4,5)                  1.4864         -DE/DX =    0.0                 !
 ! R10   R(4,10)                 1.0888         -DE/DX =    0.0                 !
 ! R11   R(4,11)                 1.0981         -DE/DX =    0.0                 !
 ! R12   R(4,12)                 1.0921         -DE/DX =    0.0                 !
 ! R13   R(5,13)                 1.0845         -DE/DX =    0.0                 !
 ! A1    A(3,1,14)             108.0745         -DE/DX =    0.0                 !
 ! A2    A(3,2,5)              112.1242         -DE/DX =    0.0                 !
 ! A3    A(3,2,6)              108.3212         -DE/DX =    0.0                 !
 ! A4    A(3,2,7)              109.0587         -DE/DX =    0.0                 !
 ! A5    A(5,2,6)              110.5872         -DE/DX =    0.0                 !
 ! A6    A(5,2,7)              110.0491         -DE/DX =    0.0                 !
 ! A7    A(6,2,7)              106.5217         -DE/DX =    0.0                 !
 ! A8    A(1,3,2)              112.1291         -DE/DX =    0.0                 !
[...]
     Eigenvalues --- 1000.000001000.000001000.000001000.000001000.00000
     Eigenvalues --- 1000.000001000.000001000.000001000.000001000.00000
     Eigenvalues --- 1000.000001000.000001000.000001000.000001000.00000
 RFO step:  Lambda=-4.21087638D-03 EMin= 8.21658474D-04
 Linear search not attempted -- first point.
 Iteration  1 RMS(Cart)=  0.06166800 RMS(Int)=  0.00173905
 Iteration  2 RMS(Cart)=  0.00231657 RMS(Int)=  0.00045654
 Iteration  3 RMS(Cart)=  0.00000306 RMS(Int)=  0.00045654
 Iteration  4 RMS(Cart)=  0.00000000 RMS(Int)=  0.00045654
 Iteration  1 RMS(Cart)=  0.00040318 RMS(Int)=  0.00023923
 Iteration  2 RMS(Cart)=  0.00024632 RMS(Int)=  0.00026614
 Iteration  3 RMS(Cart)=  0.00015053 RMS(Int)=  0.00030420
 Iteration  4 RMS(Cart)=  0.00009201 RMS(Int)=  0.00033289
 Iteration  5 RMS(Cart)=  0.00005625 RMS(Int)=  0.00035193
 Iteration  6 RMS(Cart)=  0.00003439 RMS(Int)=  0.00036405
 Iteration  7 RMS(Cart)=  0.00002103 RMS(Int)=  0.00037161
 Iteration  8 RMS(Cart)=  0.00001285 RMS(Int)=  0.00037629
 Iteration  9 RMS(Cart)=  0.00000786 RMS(Int)=  0.00037917
 Iteration 10 RMS(Cart)=  0.00000481 RMS(Int)=  0.00038094
 Iteration 11 RMS(Cart)=  0.00000294 RMS(Int)=  0.00038202
 Iteration 12 RMS(Cart)=  0.00000180 RMS(Int)=  0.00038269
 Iteration 13 RMS(Cart)=  0.00000110 RMS(Int)=  0.00038310
 Iteration 14 RMS(Cart)=  0.00000067 RMS(Int)=  0.00038334
 ITry= 1 IFail=0 DXMaxC= 2.42D-01 DCOld= 1.00D+10 DXMaxT= 6.91D-01 DXLimC= 3.00D+00 Rises=F
 Variable       Old X    -DE/DX   Delta X   Delta X   Delta X     New X
                                 (Linear)    (Quad)   (Total)
    R1        2.69341  -0.00773   0.00000  -0.02400  -0.02455   2.66886
    R2        1.83030  -0.00748   0.00000  -0.01327  -0.01354   1.81676
    R3        2.85862   0.01161   0.00000   0.03281   0.03349   2.89211
    R4        2.82026   0.00215   0.00000   0.00014   0.00014   2.82039
    R5        2.07800  -0.00021   0.00000  -0.00155  -0.00155   2.07645
    R6        2.06032  -0.00030   0.00000  -0.00094  -0.00094   2.05938
    R7        2.07067  -0.00076   0.00000  -0.00031  -0.00031   2.07035
    R8        2.05805  -0.00038   0.00000  -0.00014  -0.00014   2.05791
    R9        2.81482  -0.00076   0.00000  -0.00145  -0.00145   2.81337
   R10        2.06909  -0.00041   0.00000  -0.00060  -0.00060   2.06849
   R11        2.07381  -0.00027   0.00000  -0.00064  -0.00064   2.07317
   R12        2.05549  -0.00014   0.00000  -0.00055  -0.00055   2.05494
   R13        2.04166  -0.00013   0.00000  -0.00130  -0.00130   2.04036
    A1        1.92865  -0.00724   0.00000  -0.03730  -0.03820   1.89046
    A2        1.93153   0.00705   0.00000   0.03427   0.03497   1.96650
    A3        1.92887  -0.00295   0.00000  -0.04891  -0.04995   1.87892
    A4        1.86608  -0.00014   0.00000   0.02395   0.02496   1.89104
    A5        1.90705  -0.00123   0.00000   0.01259   0.01336   1.92041
    A6        1.96203  -0.00423   0.00000  -0.03146  -0.03267   1.92936
    A7        1.86715   0.00124   0.00000   0.00710   0.00744   1.87458
    A8        1.88038   0.01575   0.00000   0.07396   0.07591   1.95630
    A9        1.98073  -0.00827   0.00000  -0.04546  -0.04680   1.93393
   A10        1.85711  -0.00561   0.00000  -0.00451  -0.00426   1.85285
   A11        1.92446  -0.00080   0.00000  -0.00478  -0.00465   1.91980
   A12        1.95188  -0.00390   0.00000  -0.03064  -0.03148   1.92040
   A13        1.86950   0.00219   0.00000   0.00866   0.00842   1.87792
   A14        1.95787  -0.00001   0.00000   0.00033   0.00033   1.95820
   A15        1.93978  -0.00002   0.00000  -0.00074  -0.00074   1.93904
   A16        1.95164  -0.00018   0.00000   0.00061   0.00061   1.95224
   A17        1.84783   0.00017   0.00000  -0.00009  -0.00009   1.84773
   A18        1.87967   0.00002   0.00000   0.00044   0.00044   1.88011
   A19        1.88207   0.00003   0.00000  -0.00059  -0.00059   1.88148
   A20        2.10456  -0.00011   0.00000   0.00032   0.00020   2.10476
   A21        2.07656   0.00119   0.00000   0.01047   0.01049   2.08705
   A22        2.08894  -0.00087   0.00000  -0.00725  -0.00752   2.08142
    D1       -0.79276  -0.00059   0.00000  -0.02672  -0.02672  -0.81949
    D2        1.34309   0.00429   0.00000  -0.00949  -0.01063   1.33247
    D3       -2.88858  -0.00126   0.00000  -0.02718  -0.02813  -2.91671
    D4        1.10868  -0.00027   0.00000  -0.00655  -0.00664   1.10204
    D5       -1.06150   0.00004   0.00000   0.00379   0.00366  -1.05785
    D6       -3.13964   0.00032   0.00000   0.01586   0.01593  -3.12371
    D7       -3.05955   0.00090   0.00000  -0.00052  -0.00100  -3.06055
    D8        1.05345   0.00121   0.00000   0.00982   0.00930   1.06275
    D9       -1.02468   0.00150   0.00000   0.02189   0.02157  -1.00312
   D10       -1.03344   0.00075   0.00000  -0.00406  -0.00484  -1.03828
   D11        3.07956   0.00106   0.00000   0.00628   0.00545   3.08502
   D12        1.00143   0.00135   0.00000   0.01835   0.01772   1.01915
   D13        1.07314   0.00052   0.00000   0.04326   0.04244   1.11558
   D14       -2.24239   0.00182   0.00000   0.06581   0.06408  -2.17831
   D15       -1.05468   0.00046   0.00000   0.07385   0.07340  -0.98128
   D16        1.91298   0.00176   0.00000   0.09640   0.09504   2.00802
   D17       -3.12479   0.00237   0.00000   0.07627   0.07586  -3.04892
   D18       -0.15713   0.00367   0.00000   0.09882   0.09750  -0.05963
   D19       -1.59807  -0.01067   0.00000   0.00000   0.00001  -1.59807
   D20       -1.05933   0.00056   0.00000   0.00817   0.00761  -1.05172
   D21        2.25743  -0.00096   0.00000  -0.01630  -0.01574   2.24168
   D22        1.00563   0.00076   0.00000   0.00777   0.00722   1.01285
   D23       -1.96079  -0.00075   0.00000  -0.01670  -0.01614  -1.97693
   D24        3.10992   0.00067   0.00000   0.00692   0.00637   3.11629
   D25        0.14349  -0.00085   0.00000  -0.01754  -0.01699   0.12651
         Item               Value     Threshold  Converged?
 Maximum Force            0.010950     0.000450     NO 
 RMS     Force            0.003331     0.000300     NO 
 Maximum Displacement     0.241810     0.001800     NO 
 RMS     Displacement     0.062421     0.001200     NO 
 Predicted change in Energy=-2.231377D-03
 Lowest energy point so far.  Saving SCF results.
 GradGradGradGradGradGradGradGradGradGradGradGradGradGradGradGradGradGrad

 Leave Link  103 at Sat Mar  9 14:53:59 2019, MaxMem=   671088640 cpu:               0.7 elap:               0.1
 (Enter /shared/centos7/gaussian/g16/l202.exe)
                          Input orientation:                          
 ---------------------------------------------------------------------
 Center     Atomic      Atomic             Coordinates (Angstroms)
 Number     Number       Type             X           Y           Z
 ---------------------------------------------------------------------
      1          8           0       -0.364662   -0.872413    0.000255
      2          6           0       -1.666150    1.193068    0.047619
      3          6           0       -1.671354   -0.336563   -0.001903
      4          6           0       -1.617465    1.623198   -2.505482
      5          6           0       -1.023796    1.805324   -1.152399
      6          1           0       -2.709784    1.527439    0.127688
      7          1           0       -1.153169    1.505124    0.957061
      8          1           0       -2.231823   -0.681141   -0.877941
      9          1           0       -2.164508   -0.736729    0.882735
     10          1           0       -1.670580    0.568995   -2.795278
     11          1           0       -2.648962    1.995429   -2.537543
     12          1           0       -1.050523    2.148600   -3.270354
     13          1           0       -0.206254    2.498776   -1.023845
     14          1           0        0.160988   -0.389434   -0.643706
 ---------------------------------------------------------------------
                    Distance matrix (angstroms):
                    1          2          3          4          5
     1  O    0.000000
     2  C    2.441788   0.000000
     3  C    1.412298   1.530441   0.000000
     4  C    3.751841   2.589539   3.179855   0.000000
     5  C    2.988871   1.492488   2.516079   1.488774   0.000000
     6  H    3.357845   1.098811   2.137670   2.852353   2.135041
     7  H    2.681399   1.089776   2.140078   3.495528   2.134638
     8  H    2.072222   2.165481   1.095583   2.887266   2.777979
     9  H    2.009136   2.160994   1.088999   4.165157   3.450367
    10  H    3.405596   2.910593   2.936491   1.094598   2.155432
    11  H    4.459032   2.879716   3.580973   1.097073   2.143811
    12  H    4.504865   3.507276   4.152618   1.087428   2.145760
    13  H    3.526867   2.232534   3.351124   2.225624   1.079712
    14  H    0.961386   2.514096   1.942212   3.267996   2.545476
                    6          7          8          9         10
     6  H    0.000000
     7  H    1.763918   0.000000
     8  H    2.473371   3.051308   0.000000
     9  H    2.448240   2.460535   1.762839   0.000000
    10  H    3.246889   3.901807   2.356696   3.934039   0.000000
    11  H    2.706690   3.832760   3.176840   4.404280   1.748820
    12  H    3.832190   4.277339   3.889286   5.178246   1.762191
    13  H    2.921847   2.409975   3.773075   4.235363   3.001046
    14  H    3.537059   2.806922   2.421881   2.803314   2.983704
                   11         12         13         14
    11  H    0.000000
    12  H    1.765072   0.000000
    13  H    2.917441   2.425328   0.000000
    14  H    4.143671   3.848201   2.936176   0.000000
 Stoichiometry    C4H9O(2)
 Framework group  C1[X(C4H9O)]
 Deg. of freedom    36
 Full point group                 C1      NOp   1
 RotChk:  IX=0 Diff= 3.22D-02
 Largest Abelian subgroup         C1      NOp   1
 Largest concise Abelian subgroup C1      NOp   1
                         Standard orientation:                         
 ---------------------------------------------------------------------
 Center     Atomic      Atomic             Coordinates (Angstroms)
 Number     Number       Type             X           Y           Z
 ---------------------------------------------------------------------
      1          8           0        1.756747   -0.741011   -0.353395
      2          6           0        0.101662    1.028600   -0.050900
      3          6           0        1.163537    0.129837    0.586984
      4          6           0       -1.932440   -0.535554    0.297757
      5          6           0       -1.049875    0.256000   -0.602781
      6          1           0       -0.249499    1.728350    0.720087
      7          1           0        0.577046    1.618424   -0.834309
      8          1           0        0.726597   -0.434360    1.418288
      9          1           0        1.972635    0.736917    0.990386
     10          1           0       -1.382077   -1.312315    0.838024
     11          1           0       -2.384943    0.101892    1.067480
     12          1           0       -2.738248   -1.020016   -0.248567
     13          1           0       -1.329663    0.382816   -1.637872
     14          1           0        1.056879   -1.146915   -0.872714
 ---------------------------------------------------------------------
 Rotational constants (GHZ):           8.7760932           3.0100018           2.7597485
 Leave Link  202 at Sat Mar  9 14:53:59 2019, MaxMem=   671088640 cpu:               0.2 elap:               0.0
 (Enter /shared/centos7/gaussian/g16/l301.exe)
 Standard basis: 6-311+G(2df,2p) (5D, 7F)
 Ernie: Thresh=  0.10000D-02 Tol=  0.10000D-05 Strict=F.
 There are   276 symmetry adapted cartesian basis functions of A   symmetry.
 There are   251 symmetry adapted basis functions of A   symmetry.
   251 basis functions,   359 primitive gaussians,   276 cartesian basis functions
    21 alpha electrons       20 beta electrons
       nuclear repulsion energy       182.2933302783 Hartrees.
 IExCor= 4336 DFT=T Ex+Corr=M062X ExCW=0 ScaHFX=  0.540000
 ScaDFX=  1.000000  1.000000  1.000000  1.000000 ScalE2=  1.000000  1.000000
 IRadAn=      5 IRanWt=     -1 IRanGd=            0 ICorTp=0 IEmpDi=  4
 NAtoms=   14 NActive=   14 NUniq=   14 SFac= 1.00D+00 NAtFMM=   60 NAOKFM=F Big=F
 Integral buffers will be    131072 words long.
 Raffenetti 2 integral format.
 Two-electron integral symmetry is turned on.
 Leave Link  301 at Sat Mar  9 14:53:59 2019, MaxMem=   671088640 cpu:               1.0 elap:               0.1
 (Enter /shared/centos7/gaussian/g16/l302.exe)
 NPDir=0 NMtPBC=     1 NCelOv=     1 NCel=       1 NClECP=     1 NCelD=      1
         NCelK=      1 NCelE2=     1 NClLst=     1 CellRange=     0.0.
 One-electron integrals computed using PRISM.
 One-electron integral symmetry used in STVInt
 NBasis=   251 RedAO= T EigKep=  5.27D-05  NBF=   251
 NBsUse=   251 1.00D-06 EigRej= -1.00D+00 NBFU=   251
 Precomputing XC quadrature grid using
 IXCGrd= 4 IRadAn=           5 IRanWt=          -1 IRanGd=           0 AccXCQ= 0.00D+00.
 Generated NRdTot=       0 NPtTot=           0 NUsed=           0 NTot=          32
 NSgBfM=   276   276   276   276   276 MxSgAt=    14 MxSgA2=    14.
 Leave Link  302 at Sat Mar  9 14:54:00 2019, MaxMem=   671088640 cpu:               6.2 elap:               0.3
 (Enter /shared/centos7/gaussian/g16/l303.exe)
 DipDrv:  MaxL=1.
 Leave Link  303 at Sat Mar  9 14:54:00 2019, MaxMem=   671088640 cpu:               0.5 elap:               0.0
 (Enter /shared/centos7/gaussian/g16/l401.exe)
 Initial guess from the checkpoint file:  "/scratch/underkoffler.c/gaussian_scratch/Gau-10688.chk"
 B after Tr=    -0.000000    0.000000    0.000000
         Rot=    0.999936   -0.001742    0.000035   -0.011141 Ang=  -1.29 deg.
 Guess basis will be translated and rotated to current coordinates.
 JPrj=2 DoOrth=T DoCkMO=T.
 Initial guess <Sx>= 0.0000 <Sy>= 0.0000 <Sz>= 0.5000 <S**2>= 0.7553 S= 0.5027
 Generating alternative initial guess.
 ExpMin= 4.38D-02 ExpMax= 8.59D+03 ExpMxC= 1.30D+03 IAcc=2 IRadAn=         4 AccDes= 0.00D+00
 Harris functional with IExCor= 1009 and IRadAn=       4 diagonalized for initial guess.
 HarFok:  IExCor= 1009 AccDes= 0.00D+00 IRadAn=         4 IDoV= 1 UseB2=F ITyADJ=14
 ICtDFT=  3500011 ScaDFX=  1.000000  1.000000  1.000000  1.000000
 FoFCou: FMM=F IPFlag=           0 FMFlag=      100000 FMFlg1=           0
         NFxFlg=           0 DoJE=T BraDBF=F KetDBF=T FulRan=T
         wScrn=  0.000000 ICntrl=       500 IOpCl=  0 I1Cent=   200000004 NGrid=           0
         NMat0=    1 NMatS0=      1 NMatT0=    0 NMatD0=    1 NMtDS0=    0 NMtDT0=    0
 Petite list used in FoFCou.
 Harris En= -232.901644901202    
 Leave Link  401 at Sat Mar  9 14:54:00 2019, MaxMem=   671088640 cpu:              13.2 elap:               0.7
 (Enter /shared/centos7/gaussian/g16/l502.exe)
 Integral symmetry usage will be decided dynamically.
 UHF open shell SCF:
 Using DIIS extrapolation, IDIIS=  1040.
 NGot=   671088640 LenX=   670928170 LenY=   670851553
 Requested convergence on RMS density matrix=1.00D-08 within 128 cycles.
 Requested convergence on MAX density matrix=1.00D-06.
 Requested convergence on             energy=1.00D-06.
 No special actions if energy rises.
 Fock matrices will be formed incrementally for  20 cycles.

 Cycle   1  Pass 1  IDiag  1:
 FoFJK:  IHMeth= 1 ICntrl=       0 DoSepK=F KAlg= 0 I1Cent=           0 FoldK=F
 IRaf= 990000000 NMat=       1 IRICut=       1 DoRegI=T DoRafI=F ISym2E= 0 IDoP0=0 IntGTp=1.
 FoFCou: FMM=F IPFlag=           0 FMFlag=      100000 FMFlg1=           0
         NFxFlg=           0 DoJE=F BraDBF=F KetDBF=F FulRan=T
         wScrn=  0.000000 ICntrl=         0 IOpCl=  1 I1Cent=           0 NGrid=           0
         NMat0=    1 NMatS0=      1 NMatT0=    0 NMatD0=    1 NMtDS0=    0 NMtDT0=    0
 Symmetry not used in FoFCou.
 E= -232.965723937542    
 DIIS: error= 2.22D-03 at cycle   1 NSaved=   1.
 NSaved= 1 IEnMin= 1 EnMin= -232.965723937542     IErMin= 1 ErrMin= 2.22D-03
 ErrMax= 2.22D-03  0.00D+00 EMaxC= 1.00D-01 BMatC= 9.60D-03 BMatP= 9.60D-03
 IDIUse=3 WtCom= 9.78D-01 WtEn= 2.22D-02
 Coeff-Com:  0.100D+01
 Coeff-En:   0.100D+01
 Coeff:      0.100D+01
 Gap=     0.517 Goal=   None    Shift=    0.000
 Gap=     0.591 Goal=   None    Shift=    0.000
 GapD=    0.517 DampG=2.000 DampE=1.000 DampFc=2.0000 IDamp=-1.
 RMSDP=4.53D-04 MaxDP=2.09D-02              OVMax= 1.55D-02

 Cycle   2  Pass 1  IDiag  1:
 RMSU=  4.53D-04    CP:  9.98D-01
 E= -232.968925868050     Delta-E=       -0.003201930509 Rises=F Damp=F
 DIIS: error= 4.70D-04 at cycle   2 NSaved=   2.
 NSaved= 2 IEnMin= 2 EnMin= -232.968925868050     IErMin= 2 ErrMin= 4.70D-04
 ErrMax= 4.70D-04  0.00D+00 EMaxC= 1.00D-01 BMatC= 2.77D-04 BMatP= 9.60D-03
 IDIUse=3 WtCom= 9.95D-01 WtEn= 4.70D-03
 Coeff-Com: -0.115D+00 0.111D+01
 Coeff-En:   0.000D+00 0.100D+01
 Coeff:     -0.114D+00 0.111D+01
 Gap=     0.265 Goal=   None    Shift=    0.000
 Gap=     0.322 Goal=   None    Shift=    0.000
 RMSDP=7.98D-05 MaxDP=2.71D-03 DE=-3.20D-03 OVMax= 4.93D-03

 Cycle   3  Pass 1  IDiag  1:
 RMSU=  5.14D-05    CP:  9.98D-01  1.13D+00
 E= -232.969071991731     Delta-E=       -0.000146123681 Rises=F Damp=F
 DIIS: error= 2.19D-04 at cycle   3 NSaved=   3.
 NSaved= 3 IEnMin= 3 EnMin= -232.969071991731     IErMin= 3 ErrMin= 2.19D-04
 ErrMax= 2.19D-04  0.00D+00 EMaxC= 1.00D-01 BMatC= 7.47D-05 BMatP= 2.77D-04
 IDIUse=3 WtCom= 9.98D-01 WtEn= 2.19D-03
 Coeff-Com: -0.564D-01 0.394D+00 0.662D+00
 Coeff-En:   0.000D+00 0.000D+00 0.100D+01
 Coeff:     -0.563D-01 0.393D+00 0.663D+00
 Gap=     0.265 Goal=   None    Shift=    0.000
 Gap=     0.323 Goal=   None    Shift=    0.000
 RMSDP=3.25D-05 MaxDP=2.83D-03 DE=-1.46D-04 OVMax= 1.33D-03

 Cycle   4  Pass 1  IDiag  1:
 RMSU=  2.85D-05    CP:  9.97D-01  1.14D+00  1.25D+00
 E= -232.969085843703     Delta-E=       -0.000013851972 Rises=F Damp=F
 DIIS: error= 1.01D-04 at cycle   4 NSaved=   4.
 NSaved= 4 IEnMin= 4 EnMin= -232.969085843703     IErMin= 4 ErrMin= 1.01D-04
 ErrMax= 1.01D-04  0.00D+00 EMaxC= 1.00D-01 BMatC= 1.50D-05 BMatP= 7.47D-05
 IDIUse=3 WtCom= 9.99D-01 WtEn= 1.01D-03
 Coeff-Com:  0.151D-02-0.793D-01 0.280D+00 0.798D+00
 Coeff-En:   0.000D+00 0.000D+00 0.000D+00 0.100D+01
 Coeff:      0.151D-02-0.792D-01 0.279D+00 0.798D+00
 Gap=     0.265 Goal=   None    Shift=    0.000
 Gap=     0.322 Goal=   None    Shift=    0.000
 RMSDP=1.54D-05 MaxDP=9.82D-04 DE=-1.39D-05 OVMax= 8.53D-04

 Cycle   5  Pass 1  IDiag  1:
 RMSU=  1.32D-05    CP:  9.97D-01  1.14D+00  1.40D+00  9.95D-01
 E= -232.969089504432     Delta-E=       -0.000003660729 Rises=F Damp=F
 DIIS: error= 2.90D-05 at cycle   5 NSaved=   5.
 NSaved= 5 IEnMin= 5 EnMin= -232.969089504432     IErMin= 5 ErrMin= 2.90D-05
 ErrMax= 2.90D-05  0.00D+00 EMaxC= 1.00D-01 BMatC= 6.33D-07 BMatP= 1.50D-05
 IDIUse=1 WtCom= 1.00D+00 WtEn= 0.00D+00
 Coeff-Com:  0.365D-02-0.447D-01 0.333D-01 0.224D+00 0.784D+00
 Coeff:      0.365D-02-0.447D-01 0.333D-01 0.224D+00 0.784D+00
 Gap=     0.265 Goal=   None    Shift=    0.000
 Gap=     0.322 Goal=   None    Shift=    0.000
 RMSDP=4.35D-06 MaxDP=2.64D-04 DE=-3.66D-06 OVMax= 2.36D-04

 Cycle   6  Pass 1  IDiag  1:
 RMSU=  2.82D-06    CP:  9.97D-01  1.14D+00  1.44D+00  1.05D+00  1.12D+00
 E= -232.969089759926     Delta-E=       -0.000000255494 Rises=F Damp=F
 DIIS: error= 1.10D-05 at cycle   6 NSaved=   6.
 NSaved= 6 IEnMin= 6 EnMin= -232.969089759926     IErMin= 6 ErrMin= 1.10D-05
 ErrMax= 1.10D-05  0.00D+00 EMaxC= 1.00D-01 BMatC= 8.74D-08 BMatP= 6.33D-07
 IDIUse=1 WtCom= 1.00D+00 WtEn= 0.00D+00
 Coeff-Com:  0.727D-03-0.422D-03-0.284D-01-0.509D-01 0.164D+00 0.915D+00
 Coeff:      0.727D-03-0.422D-03-0.284D-01-0.509D-01 0.164D+00 0.915D+00
 Gap=     0.265 Goal=   None    Shift=    0.000
 Gap=     0.322 Goal=   None    Shift=    0.000
 RMSDP=3.16D-06 MaxDP=2.24D-04 DE=-2.55D-07 OVMax= 1.53D-04

 Cycle   7  Pass 1  IDiag  1:
 RMSU=  7.79D-07    CP:  9.97D-01  1.14D+00  1.46D+00  1.08D+00  1.33D+00
                    CP:  1.27D+00
