 Entering Gaussian System, Link 0=g16
 Input=DBQZVPSKYUCKNT-UHFFFAOYSA-N_72by10.0_tor34_a1.com
 Output=DBQZVPSKYUCKNT-UHFFFAOYSA-N_72by10.0_tor34_a1.log
 Initial command:
 /shared/centos7/gaussian/g16/l1.exe "/scratch/underkoffler.c/gaussian_scratch/Gau-37964.inp" -scrdir="/scratch/underkoffler.c/gaussian_scratch/"
 Entering Link 1 = /shared/centos7/gaussian/g16/l1.exe PID=     37975.
  
 Copyright (c) 1988,1990,1992,1993,1995,1998,2003,2009,2016,
            Gaussian, Inc.  All Rights Reserved.
  
 This is part of the Gaussian(R) 16 program.  It is based on
 the Gaussian(R) 09 system (copyright 2009, Gaussian, Inc.),
 the Gaussian(R) 03 system (copyright 2003, Gaussian, Inc.),
 the Gaussian(R) 98 system (copyright 1998, Gaussian, Inc.),
 the Gaussian(R) 94 system (copyright 1995, Gaussian, Inc.),
 the Gaussian 92(TM) system (copyright 1992, Gaussian, Inc.),
 the Gaussian 90(TM) system (copyright 1990, Gaussian, Inc.),
 the Gaussian 88(TM) system (copyright 1988, Gaussian, Inc.),
 the Gaussian 86(TM) system (copyright 1986, Carnegie Mellon
 University), and the Gaussian 82(TM) system (copyright 1983,
 Carnegie Mellon University). Gaussian is a federally registered
 trademark of Gaussian, Inc.
  
 This software contains proprietary and confidential information,
 including trade secrets, belonging to Gaussian, Inc.
  
 This software is provided under written license and may be
 used, copied, transmitted, or stored only in accord with that
 written license.
  
 The following legend is applicable only to US Government
 contracts under FAR:
  
                    RESTRICTED RIGHTS LEGEND
  
 Use, reproduction and disclosure by the US Government is
 subject to restrictions as set forth in subparagraphs (a)
 and (c) of the Commercial Computer Software - Restricted
 Rights clause in FAR 52.227-19.
  
 Gaussian, Inc.
 340 Quinnipiac St., Bldg. 40, Wallingford CT 06492
  
  
 ---------------------------------------------------------------
 Warning -- This program may not be used in any manner that
 competes with the business of Gaussian, Inc. or will provide
 assistance to any competitor of Gaussian, Inc.  The licensee
 of this program is prohibited from giving any competitor of
 Gaussian, Inc. access to this program.  By using this program,
 the user acknowledges that Gaussian, Inc. is engaged in the
 business of creating and licensing software in the field of
 computational chemistry and represents and warrants to the
 licensee that it is not a competitor of Gaussian, Inc. and that
 it will not use this program in any manner prohibited above.
 ---------------------------------------------------------------
  

 Cite this work as:
 Gaussian 16, Revision A.03,
 M. J. Frisch, G. W. Trucks, H. B. Schlegel, G. E. Scuseria, 
 M. A. Robb, J. R. Cheeseman, G. Scalmani, V. Barone, 
 G. A. Petersson, H. Nakatsuji, X. Li, M. Caricato, A. V. Marenich, 
 J. Bloino, B. G. Janesko, R. Gomperts, B. Mennucci, H. P. Hratchian, 
 J. V. Ortiz, A. F. Izmaylov, J. L. Sonnenberg, D. Williams-Young, 
 F. Ding, F. Lipparini, F. Egidi, J. Goings, B. Peng, A. Petrone, 
 T. Henderson, D. Ranasinghe, V. G. Zakrzewski, J. Gao, N. Rega, 
 G. Zheng, W. Liang, M. Hada, M. Ehara, K. Toyota, R. Fukuda, 
 J. Hasegawa, M. Ishida, T. Nakajima, Y. Honda, O. Kitao, H. Nakai, 
 T. Vreven, K. Throssell, J. A. Montgomery, Jr., J. E. Peralta, 
 F. Ogliaro, M. J. Bearpark, J. J. Heyd, E. N. Brothers, K. N. Kudin, 
 V. N. Staroverov, T. A. Keith, R. Kobayashi, J. Normand, 
 K. Raghavachari, A. P. Rendell, J. C. Burant, S. S. Iyengar, 
 J. Tomasi, M. Cossi, J. M. Millam, M. Klene, C. Adamo, R. Cammi, 
 J. W. Ochterski, R. L. Martin, K. Morokuma, O. Farkas, 
 J. B. Foresman, and D. J. Fox, Gaussian, Inc., Wallingford CT, 2016.
 
 ******************************************
 Gaussian 16:  EM64L-G16RevA.03 25-Dec-2016
                 9-Mar-2019 
 ******************************************
 %nprocshared=20
 Will use up to   20 processors via shared memory.
 %mem=5GB
 ----------------------------------------------
 #p m062x/6-311+g(2df,2p) Opt=(CalcFC,ModRedun)
 ----------------------------------------------
 1/10=4,18=120,19=15,26=3,38=1/1,3;
 2/9=110,12=2,17=6,18=5,40=1/2;
 3/5=4,6=6,7=214,11=2,25=1,30=1,71=2,74=-55,140=1/1,2,3;
 4//1;
 5/5=2,38=5/2;
 8/6=4,10=90,11=11/1;
 11/6=1,8=1,9=11,15=111,16=1/1,2,10;
 10/6=1,13=1/2;
 6/7=2,8=2,9=2,10=2,28=1/1;
 7/10=1,18=20,25=1/1,2,3,16;
 1/10=4,18=20,19=15,26=3/3(2);
 2/9=110/2;
 99//99;
 2/9=110/2;
 3/5=4,6=6,7=214,11=2,25=1,30=1,71=1,74=-55/1,2,3;
 4/5=5,16=3,69=1/1;
 5/5=2,38=5/2;
 7//1,2,3,16;
 1/18=20,19=15,26=3/3(-5);
 2/9=110/2;
 6/7=2,8=2,9=2,10=2,19=2,28=1/1;
 99/9=1/99;
 Leave Link    1 at Sat Mar  9 13:21:35 2019, MaxMem=   671088640 cpu:              39.8 elap:               2.1
 (Enter /shared/centos7/gaussian/g16/l101.exe)
 ----------------------------------------
 Gaussian Input Prepared from Scan Object
 ----------------------------------------
 Symbolic Z-matrix:
 Charge =  0 Multiplicity = 2
 O                    -1.28665  -1.38676  -0.26677 
 C                    -1.27582   1.0468   -0.13808 
 C                    -1.77015  -0.26977   0.44945 
 C                    -1.03779   2.10011  -2.4982 
 C                    -1.79026   1.2738   -1.51821 
 H                    -1.58829   1.86255   0.53017 
 H                    -0.18252   1.04847  -0.1406 
 H                    -2.86654  -0.27095   0.47373 
 H                    -1.41549  -0.38856   1.47209 
 H                    -1.43746   2.00261  -3.50632 
 H                    -1.07354   3.16643  -2.2383 
 H                     0.01817   1.82221  -2.51627 
 H                    -2.84368   1.08669  -1.69576 
 H                    -1.46802  -1.24396  -1.20001 
 
 The following ModRedundant input section has been read:
 B       5      13 B                                                           
 B       4      11 B                                                           
 B       2       3 B                                                           
 B       1       3 B                                                           
 B       4      12 B                                                           
 B       2       7 B                                                           
 B       4       5 B                                                           
 B       1      14 B                                                           
 B       3       8 B                                                           
 B       2       6 B                                                           
 B       2       5 B                                                           
 B       3       9 B                                                           
 B       4      10 B                                                           
 D      14       4       5      13 S  72 10.000                                
 
 ITRead=  0  0  0  0  0  0  0  0  0  0  0  0  0  0
 MicOpt= -1 -1 -1 -1 -1 -1 -1 -1 -1 -1 -1 -1 -1 -1
 NAtoms=     14 NQM=       14 NQMF=       0 NMMI=      0 NMMIF=      0
                NMic=       0 NMicF=      0.
                    Isotopes and Nuclear Properties:
 (Nuclear quadrupole moments (NQMom) in fm**2, nuclear magnetic moments (NMagM)
  in nuclear magnetons)

  Atom         1           2           3           4           5           6           7           8           9          10
 IAtWgt=          16          12          12          12          12           1           1           1           1           1
 AtmWgt=  15.9949146  12.0000000  12.0000000  12.0000000  12.0000000   1.0078250   1.0078250   1.0078250   1.0078250   1.0078250
 NucSpn=           0           0           0           0           0           1           1           1           1           1
 AtZEff=  -0.0000000  -0.0000000  -0.0000000  -0.0000000  -0.0000000  -0.0000000  -0.0000000  -0.0000000  -0.0000000  -0.0000000
 NQMom=    0.0000000   0.0000000   0.0000000   0.0000000   0.0000000   0.0000000   0.0000000   0.0000000   0.0000000   0.0000000
 NMagM=    0.0000000   0.0000000   0.0000000   0.0000000   0.0000000   2.7928460   2.7928460   2.7928460   2.7928460   2.7928460
 AtZNuc=   8.0000000   6.0000000   6.0000000   6.0000000   6.0000000   1.0000000   1.0000000   1.0000000   1.0000000   1.0000000

  Atom        11          12          13          14
 IAtWgt=           1           1           1           1
 AtmWgt=   1.0078250   1.0078250   1.0078250   1.0078250
 NucSpn=           1           1           1           1
 AtZEff=  -0.0000000  -0.0000000  -0.0000000  -0.0000000
 NQMom=    0.0000000   0.0000000   0.0000000   0.0000000
 NMagM=    2.7928460   2.7928460   2.7928460   2.7928460
 AtZNuc=   1.0000000   1.0000000   1.0000000   1.0000000
 Leave Link  101 at Sat Mar  9 13:21:35 2019, MaxMem=   671088640 cpu:               6.4 elap:               0.4
 (Enter /shared/centos7/gaussian/g16/l103.exe)

 GradGradGradGradGradGradGradGradGradGradGradGradGradGradGradGradGradGrad
 Berny optimization.
 Initialization pass.
                           ----------------------------
                           !    Initial Parameters    !
                           ! (Angstroms and Degrees)  !
 --------------------------                            --------------------------
 ! Name  Definition              Value          Derivative Info.                !
 --------------------------------------------------------------------------------
 ! R1    R(1,3)                  1.4122         calculate D2E/DX2 analytically  !
 ! R2    R(1,14)                 0.9614         calculate D2E/DX2 analytically  !
 ! R3    R(2,3)                  1.5241         calculate D2E/DX2 analytically  !
 ! R4    R(2,5)                  1.4903         calculate D2E/DX2 analytically  !
 ! R5    R(2,6)                  1.0998         calculate D2E/DX2 analytically  !
 ! R6    R(2,7)                  1.0933         calculate D2E/DX2 analytically  !
 ! R7    R(3,8)                  1.0967         calculate D2E/DX2 analytically  !
 ! R8    R(3,9)                  1.0889         calculate D2E/DX2 analytically  !
 ! R9    R(4,5)                  1.4864         calculate D2E/DX2 analytically  !
 ! R10   R(4,10)                 1.0888         calculate D2E/DX2 analytically  !
 ! R11   R(4,11)                 1.0981         calculate D2E/DX2 analytically  !
 ! R12   R(4,12)                 1.0921         calculate D2E/DX2 analytically  !
 ! R13   R(5,13)                 1.0845         calculate D2E/DX2 analytically  !
 ! A1    A(3,1,14)             108.0745         calculate D2E/DX2 analytically  !
 ! A2    A(3,2,5)              112.1242         calculate D2E/DX2 analytically  !
 ! A3    A(3,2,6)              108.3212         calculate D2E/DX2 analytically  !
 ! A4    A(3,2,7)              109.0587         calculate D2E/DX2 analytically  !
 ! A5    A(5,2,6)              110.5872         calculate D2E/DX2 analytically  !
 ! A6    A(5,2,7)              110.0491         calculate D2E/DX2 analytically  !
 ! A7    A(6,2,7)              106.5217         calculate D2E/DX2 analytically  !
 ! A8    A(1,3,2)              112.1291         calculate D2E/DX2 analytically  !
 ! A9    A(1,3,8)              110.65           calculate D2E/DX2 analytically  !
 ! A10   A(1,3,9)              106.1712         calculate D2E/DX2 analytically  !
 ! A11   A(2,3,8)              109.4946         calculate D2E/DX2 analytically  !
 ! A12   A(2,3,9)              110.5256         calculate D2E/DX2 analytically  !
 ! A13   A(8,3,9)              107.7411         calculate D2E/DX2 analytically  !
 ! A14   A(5,4,10)             112.0139         calculate D2E/DX2 analytically  !
 ! A15   A(5,4,11)             111.5488         calculate D2E/DX2 analytically  !
 ! A16   A(5,4,12)             111.0355         calculate D2E/DX2 analytically  !
 ! A17   A(10,4,11)            107.1055         calculate D2E/DX2 analytically  !
 ! A18   A(10,4,12)            108.4705         calculate D2E/DX2 analytically  !
 ! A19   A(11,4,12)            106.41           calculate D2E/DX2 analytically  !
 ! A20   A(2,5,4)              121.3659         calculate D2E/DX2 analytically  !
 ! A21   A(2,5,13)             117.4266         calculate D2E/DX2 analytically  !
 ! A22   A(4,5,13)             118.6654         calculate D2E/DX2 analytically  !
 ! D1    D(14,1,3,2)           -50.664          calculate D2E/DX2 analytically  !
 ! D2    D(14,1,3,8)            71.9002         calculate D2E/DX2 analytically  !
 ! D3    D(14,1,3,9)          -171.4626         calculate D2E/DX2 analytically  !
 ! D4    D(5,2,3,1)             64.2446         calculate D2E/DX2 analytically  !
 ! D5    D(5,2,3,8)            -58.9725         calculate D2E/DX2 analytically  !
 ! D6    D(5,2,3,9)           -177.5077         calculate D2E/DX2 analytically  !
 ! D7    D(6,2,3,1)           -173.4474         calculate D2E/DX2 analytically  !
 ! D8    D(6,2,3,8)             63.3355         calculate D2E/DX2 analytically  !
 ! D9    D(6,2,3,9)            -55.1997         calculate D2E/DX2 analytically  !
 ! D10   D(7,2,3,1)            -57.8952         calculate D2E/DX2 analytically  !
 ! D11   D(7,2,3,8)            178.8877         calculate D2E/DX2 analytically  !
 ! D12   D(7,2,3,9)             60.3525         calculate D2E/DX2 analytically  !
 ! D13   D(3,2,5,4)           -152.6439         calculate D2E/DX2 analytically  !
 ! D14   D(3,2,5,13)            45.6843         calculate D2E/DX2 analytically  !
 ! D15   D(6,2,5,4)             86.3463         calculate D2E/DX2 analytically  !
 ! D16   D(6,2,5,13)           -75.3255         calculate D2E/DX2 analytically  !
 ! D17   D(7,2,5,4)            -31.0701         calculate D2E/DX2 analytically  !
 ! D18   D(7,2,5,13)           167.2581         calculate D2E/DX2 analytically  !
 ! D19   D(10,4,5,2)           168.3897         calculate D2E/DX2 analytically  !
 ! D20   D(10,4,5,13)          -30.1585         calculate D2E/DX2 analytically  !
 ! D21   D(11,4,5,2)           -71.5598         calculate D2E/DX2 analytically  !
 ! D22   D(11,4,5,13)           89.892          calculate D2E/DX2 analytically  !
 ! D23   D(12,4,5,2)            46.9489         calculate D2E/DX2 analytically  !
 ! D24   D(12,4,5,13)         -151.5993         calculate D2E/DX2 analytically  !
 ! D25   D(14,4,5,13)         -109.7125         Scan                            !
 --------------------------------------------------------------------------------
 Trust Radius=3.00D-01 FncErr=1.00D-07 GrdErr=1.00D-06 EigMax=2.50D+02 EigMin=1.00D-04
 Number of optimizations in scan=  73
 Number of steps in this run=     70 maximum allowed number of steps=    100.
 GradGradGradGradGradGradGradGradGradGradGradGradGradGradGradGradGradGrad

 Leave Link  103 at Sat Mar  9 13:21:35 2019, MaxMem=   671088640 cpu:               0.2 elap:               0.0
 (Enter /shared/centos7/gaussian/g16/l202.exe)
                          Input orientation:                          
 ---------------------------------------------------------------------
 Center     Atomic      Atomic             Coordinates (Angstroms)
 Number     Number       Type             X           Y           Z
 ---------------------------------------------------------------------
      1          8           0       -1.286653   -1.386756   -0.266770
      2          6           0       -1.275823    1.046804   -0.138077
      3          6           0       -1.770148   -0.269774    0.449447
      4          6           0       -1.037788    2.100110   -2.498197
      5          6           0       -1.790257    1.273803   -1.518214
      6          1           0       -1.588294    1.862551    0.530166
      7          1           0       -0.182523    1.048467   -0.140596
      8          1           0       -2.866536   -0.270951    0.473726
      9          1           0       -1.415491   -0.388556    1.472088
     10          1           0       -1.437461    2.002611   -3.506323
     11          1           0       -1.073543    3.166432   -2.238299
     12          1           0        0.018172    1.822205   -2.516272
     13          1           0       -2.843678    1.086691   -1.695757
     14          1           0       -1.468016   -1.243964   -1.200014
 ---------------------------------------------------------------------
                    Distance matrix (angstroms):
                    1          2          3          4          5
     1  O    0.000000
     2  C    2.436984   0.000000
     3  C    1.412226   1.524113   0.000000
     4  C    4.147221   2.595435   3.852442   0.000000
     5  C    2.983003   1.490285   2.500945   1.486391   0.000000
     6  H    3.359180   1.099832   2.141587   3.087147   2.140858
     7  H    2.676814   1.093305   2.146268   2.719506   2.129182
     8  H    2.071083   2.154332   1.096657   4.218836   2.740888
     9  H    2.009136   2.161573   1.088892   4.700988   3.441772
    10  H    4.690976   3.504964   4.574116   1.088835   2.146672
    11  H    4.966273   2.990765   4.417777   1.098119   2.148079
    12  H    4.130407   2.816289   4.045981   1.092066   2.137119
    13  H    3.253348   2.210458   2.755788   2.220849   1.084541
    14  H    0.961367   2.532245   1.939343   3.612922   2.558171
                    6          7          8          9         10
     6  H    0.000000
     7  H    1.757512   0.000000
     8  H    2.487753   3.053225   0.000000
     9  H    2.446336   2.487166   1.765244   0.000000
    10  H    4.041733   3.716635   4.801264   5.522928   0.000000
    11  H    3.103140   3.111278   4.731332   5.149936   1.759203
    12  H    3.444292   2.506549   4.652196   4.780154   1.769636
    13  H    2.670708   3.082488   2.559369   3.775091   2.468705
    14  H    3.557867   2.833742   2.388308   2.806173   3.982492
                   11         12         13         14
    11  H    0.000000
    12  H    1.753868   0.000000
    13  H    2.784431   3.066661   0.000000
    14  H    4.548102   3.652763   2.751392   0.000000
 Stoichiometry    C4H9O(2)
 Framework group  C1[X(C4H9O)]
 Deg. of freedom    36
 Full point group                 C1      NOp   1
 Largest Abelian subgroup         C1      NOp   1
 Largest concise Abelian subgroup C1      NOp   1
                         Standard orientation:                         
 ---------------------------------------------------------------------
 Center     Atomic      Atomic             Coordinates (Angstroms)
 Number     Number       Type             X           Y           Z
 ---------------------------------------------------------------------
      1          8           0        1.812857   -0.879076   -0.195072
      2          6           0        0.050534    0.803139   -0.252202
      3          6           0        1.471986    0.443560    0.163848
      4          6           0       -2.294159   -0.304936   -0.147954
      5          6           0       -0.967782   -0.020012    0.459419
      6          1           0       -0.108193    1.872860   -0.051871
      7          1           0       -0.049361    0.671037   -1.332890
      8          1           0        1.585848    0.592636    1.244342
      9          1           0        2.191424    1.088906   -0.337771
     10          1           0       -2.836292   -1.075072    0.398437
     11          1           0       -2.931253    0.589348   -0.163242
     12          1           0       -2.188894   -0.626533   -1.186271
     13          1           0       -0.847227   -0.148421    1.529562
     14          1           0        1.117615   -1.462664    0.121614
 ---------------------------------------------------------------------
 Rotational constants (GHZ):          11.2369404           2.5815691           2.3292566
 Leave Link  202 at Sat Mar  9 13:21:35 2019, MaxMem=   671088640 cpu:               0.3 elap:               0.0
 (Enter /shared/centos7/gaussian/g16/l301.exe)
 Standard basis: 6-311+G(2df,2p) (5D, 7F)
 Ernie: Thresh=  0.10000D-02 Tol=  0.10000D-05 Strict=F.
 There are   276 symmetry adapted cartesian basis functions of A   symmetry.
 There are   251 symmetry adapted basis functions of A   symmetry.
   251 basis functions,   359 primitive gaussians,   276 cartesian basis functions
    21 alpha electrons       20 beta electrons
       nuclear repulsion energy       179.6872366878 Hartrees.
 IExCor= 4336 DFT=T Ex+Corr=M062X ExCW=0 ScaHFX=  0.540000
 ScaDFX=  1.000000  1.000000  1.000000  1.000000 ScalE2=  1.000000  1.000000
 IRadAn=      5 IRanWt=     -1 IRanGd=            0 ICorTp=0 IEmpDi=  4
 NAtoms=   14 NActive=   14 NUniq=   14 SFac= 1.00D+00 NAtFMM=   60 NAOKFM=F Big=F
 Integral buffers will be    131072 words long.
 Raffenetti 2 integral format.
 Two-electron integral symmetry is turned on.
 Leave Link  301 at Sat Mar  9 13:21:35 2019, MaxMem=   671088640 cpu:               1.1 elap:               0.1
 (Enter /shared/centos7/gaussian/g16/l302.exe)
 NPDir=0 NMtPBC=     1 NCelOv=     1 NCel=       1 NClECP=     1 NCelD=      1
         NCelK=      1 NCelE2=     1 NClLst=     1 CellRange=     0.0.
 One-electron integrals computed using PRISM.
 One-electron integral symmetry used in STVInt
 NBasis=   251 RedAO= T EigKep=  4.14D-05  NBF=   251
 NBsUse=   251 1.00D-06 EigRej= -1.00D+00 NBFU=   251
 Precomputing XC quadrature grid using
 IXCGrd= 4 IRadAn=           5 IRanWt=          -1 IRanGd=           0 AccXCQ= 0.00D+00.
 Generated NRdTot=       0 NPtTot=           0 NUsed=           0 NTot=          32
 NSgBfM=   276   276   276   276   276 MxSgAt=    14 MxSgA2=    14.
 Leave Link  302 at Sat Mar  9 13:21:36 2019, MaxMem=   671088640 cpu:               6.5 elap:               0.4
 (Enter /shared/centos7/gaussian/g16/l303.exe)
 DipDrv:  MaxL=1.
 Leave Link  303 at Sat Mar  9 13:21:36 2019, MaxMem=   671088640 cpu:               0.5 elap:               0.0
 (Enter /shared/centos7/gaussian/g16/l401.exe)
 ExpMin= 4.38D-02 ExpMax= 8.59D+03 ExpMxC= 1.30D+03 IAcc=3 IRadAn=         5 AccDes= 0.00D+00
 Harris functional with IExCor= 1009 and IRadAn=       5 diagonalized for initial guess.
 HarFok:  IExCor= 1009 AccDes= 0.00D+00 IRadAn=         5 IDoV= 1 UseB2=F ITyADJ=14
 ICtDFT=  3500011 ScaDFX=  1.000000  1.000000  1.000000  1.000000
 FoFCou: FMM=F IPFlag=           0 FMFlag=      100000 FMFlg1=           0
         NFxFlg=           0 DoJE=T BraDBF=F KetDBF=T FulRan=T
         wScrn=  0.000000 ICntrl=       500 IOpCl=  0 I1Cent=   200000004 NGrid=           0
         NMat0=    1 NMatS0=      1 NMatT0=    0 NMatD0=    1 NMtDS0=    0 NMtDT0=    0
 Petite list used in FoFCou.
 Harris En= -232.903228347387    
 JPrj=0 DoOrth=F DoCkMO=F.
 Initial guess <Sx>= 0.0000 <Sy>= 0.0000 <Sz>= 0.5000 <S**2>= 0.7500 S= 0.5000
 Leave Link  401 at Sat Mar  9 13:21:37 2019, MaxMem=   671088640 cpu:              20.7 elap:               1.1
 (Enter /shared/centos7/gaussian/g16/l502.exe)
 Integral symmetry usage will be decided dynamically.
 UHF open shell SCF:
 Using DIIS extrapolation, IDIIS=  1040.
 NGot=   671088640 LenX=   670928170 LenY=   670851553
 Requested convergence on RMS density matrix=1.00D-08 within 128 cycles.
 Requested convergence on MAX density matrix=1.00D-06.
 Requested convergence on             energy=1.00D-06.
 No special actions if energy rises.
 Fock matrices will be formed incrementally for  20 cycles.

 Cycle   1  Pass 1  IDiag  1:
 FoFJK:  IHMeth= 1 ICntrl=       0 DoSepK=F KAlg= 0 I1Cent=           0 FoldK=F
 IRaf= 970000000 NMat=       1 IRICut=       1 DoRegI=T DoRafI=F ISym2E= 0 IDoP0=0 IntGTp=1.
 FoFCou: FMM=F IPFlag=           0 FMFlag=      100000 FMFlg1=           0
         NFxFlg=           0 DoJE=F BraDBF=F KetDBF=F FulRan=T
         wScrn=  0.000000 ICntrl=         0 IOpCl=  1 I1Cent=           0 NGrid=           0
         NMat0=    1 NMatS0=      1 NMatT0=    0 NMatD0=    1 NMtDS0=    0 NMtDT0=    0
 Symmetry not used in FoFCou.
 E= -232.773380098119    
 DIIS: error= 2.21D-02 at cycle   1 NSaved=   1.
 NSaved= 1 IEnMin= 1 EnMin= -232.773380098119     IErMin= 1 ErrMin= 2.21D-02
 ErrMax= 2.21D-02  0.00D+00 EMaxC= 1.00D-01 BMatC= 9.41D-01 BMatP= 9.41D-01
 IDIUse=3 WtCom= 7.79D-01 WtEn= 2.21D-01
 Coeff-Com:  0.100D+01
 Coeff-En:   0.100D+01
 Coeff:      0.100D+01
 Gap=     0.229 Goal=   None    Shift=    0.000
 Gap=     0.313 Goal=   None    Shift=    0.000
 GapD=    0.229 DampG=1.000 DampE=0.500 DampFc=0.5000 IDamp=-1.
 Damping current iteration by 5.00D-01
 RMSDP=3.99D-03 MaxDP=2.49D-01              OVMax= 1.49D-01

 Cycle   2  Pass 1  IDiag  1:
 RMSU=  1.99D-03    CP:  9.89D-01
 E= -232.872195887517     Delta-E=       -0.098815789398 Rises=F Damp=T
 DIIS: error= 4.96D-03 at cycle   2 NSaved=   2.
 NSaved= 2 IEnMin= 2 EnMin= -232.872195887517     IErMin= 2 ErrMin= 4.96D-03
 ErrMax= 4.96D-03  0.00D+00 EMaxC= 1.00D-01 BMatC= 5.78D-02 BMatP= 9.41D-01
 IDIUse=3 WtCom= 9.50D-01 WtEn= 4.96D-02
 Coeff-Com: -0.836D-01 0.108D+01
 Coeff-En:   0.000D+00 0.100D+01
 Coeff:     -0.795D-01 0.108D+01
 Gap=     0.269 Goal=   None    Shift=    0.000
 Gap=     0.351 Goal=   None    Shift=    0.000
 RMSDP=1.25D-03 MaxDP=7.52D-02 DE=-9.88D-02 OVMax= 8.17D-02

 Cycle   3  Pass 1  IDiag  1:
 RMSU=  1.24D-03    CP:  9.80D-01  9.48D-01
 E= -232.966978511171     Delta-E=       -0.094782623654 Rises=F Damp=F
 DIIS: error= 3.65D-03 at cycle   3 NSaved=   3.
 NSaved= 3 IEnMin= 3 EnMin= -232.966978511171     IErMin= 3 ErrMin= 3.65D-03
 ErrMax= 3.65D-03  0.00D+00 EMaxC= 1.00D-01 BMatC= 1.41D-02 BMatP= 5.78D-02
 IDIUse=3 WtCom= 9.64D-01 WtEn= 3.65D-02
 Coeff-Com: -0.745D-01 0.326D+00 0.748D+00
 Coeff-En:   0.000D+00 0.000D+00 0.100D+01
 Coeff:     -0.718D-01 0.315D+00 0.757D+00
 Gap=     0.269 Goal=   None    Shift=    0.000
 Gap=     0.317 Goal=   None    Shift=    0.000
 RMSDP=2.87D-04 MaxDP=2.25D-02 DE=-9.48D-02 OVMax= 1.54D-02

 Cycle   4  Pass 1  IDiag  1:
 RMSU=  2.22D-04    CP:  9.82D-01  1.04D+00  9.71D-01
 E= -232.968939546797     Delta-E=       -0.001961035626 Rises=F Damp=F
 DIIS: error= 1.63D-03 at cycle   4 NSaved=   4.
 NSaved= 4 IEnMin= 4 EnMin= -232.968939546797     IErMin= 4 ErrMin= 1.63D-03
 ErrMax= 1.63D-03  0.00D+00 EMaxC= 1.00D-01 BMatC= 3.37D-03 BMatP= 1.41D-02
 IDIUse=3 WtCom= 9.84D-01 WtEn= 1.63D-02
 Coeff-Com: -0.262D-01 0.614D-01 0.365D+00 0.600D+00
 Coeff-En:   0.000D+00 0.000D+00 0.104D+00 0.896D+00
 Coeff:     -0.258D-01 0.604D-01 0.360D+00 0.605D+00
 Gap=     0.267 Goal=   None    Shift=    0.000
 Gap=     0.323 Goal=   None    Shift=    0.000
 RMSDP=1.30D-04 MaxDP=1.08D-02 DE=-1.96D-03 OVMax= 5.53D-03

 Cycle   5  Pass 1  IDiag  1:
 RMSU=  7.33D-05    CP:  9.80D-01  1.02D+00  1.02D+00  6.47D-01
 E= -232.969594952486     Delta-E=       -0.000655405689 Rises=F Damp=F
 DIIS: error= 2.56D-04 at cycle   5 NSaved=   5.
 NSaved= 5 IEnMin= 5 EnMin= -232.969594952486     IErMin= 5 ErrMin= 2.56D-04
 ErrMax= 2.56D-04  0.00D+00 EMaxC= 1.00D-01 BMatC= 9.96D-05 BMatP= 3.37D-03
 IDIUse=3 WtCom= 9.97D-01 WtEn= 2.56D-03
 Coeff-Com: -0.220D-03-0.896D-02 0.228D-01 0.134D+00 0.852D+00
 Coeff-En:   0.000D+00 0.000D+00 0.000D+00 0.000D+00 0.100D+01
 Coeff:     -0.220D-03-0.893D-02 0.228D-01 0.134D+00 0.853D+00
 Gap=     0.269 Goal=   None    Shift=    0.000
 Gap=     0.322 Goal=   None    Shift=    0.000
 RMSDP=4.49D-05 MaxDP=3.59D-03 DE=-6.55D-04 OVMax= 2.61D-03

 Cycle   6  Pass 1  IDiag  1:
 RMSU=  3.09D-05    CP:  9.80D-01  1.02D+00  1.03D+00  7.53D-01  1.09D+00
 E= -232.969631592804     Delta-E=       -0.000036640319 Rises=F Damp=F
 DIIS: error= 1.27D-04 at cycle   6 NSaved=   6.
 NSaved= 6 IEnMin= 6 EnMin= -232.969631592804     IErMin= 6 ErrMin= 1.27D-04
 ErrMax= 1.27D-04  0.00D+00 EMaxC= 1.00D-01 BMatC= 1.30D-05 BMatP= 9.96D-05
 IDIUse=3 WtCom= 9.99D-01 WtEn= 1.27D-03
 Coeff-Com:  0.376D-02-0.978D-02-0.491D-01-0.729D-01 0.798D-01 0.105D+01
 Coeff-En:   0.000D+00 0.000D+00 0.000D+00 0.000D+00 0.000D+00 0.100D+01
 Coeff:      0.376D-02-0.977D-02-0.490D-01-0.728D-01 0.797D-01 0.105D+01
 Gap=     0.269 Goal=   None    Shift=    0.000
 Gap=     0.323 Goal=   None    Shift=    0.000
 RMSDP=1.60D-05 MaxDP=9.91D-04 DE=-3.66D-05 OVMax= 1.29D-03

 Cycle   7  Pass 1  IDiag  1:
 RMSU=  1.13D-05    CP:  9.80D-01  1.02D+00  1.03D+00  7.59D-01  1.21D+00
                    CP:  1.11D+00
 E= -232.969639224931     Delta-E=       -0.000007632126 Rises=F Damp=F
 DIIS: error= 5.45D-05 at cycle   7 NSaved=   7.
 NSaved= 7 IEnMin= 7 EnMin= -232.969639224931     IErMin= 7 ErrMin= 5.45D-05
 ErrMax= 5.45D-05  0.00D+00 EMaxC= 1.00D-01 BMatC= 2.82D-06 BMatP= 1.30D-05
 IDIUse=1 WtCom= 1.00D+00 WtEn= 0.00D+00
 Coeff-Com:  0.122D-02-0.211D-02-0.201D-01-0.452D-01-0.928D-01 0.381D+00
 Coeff-Com:  0.778D+00
 Coeff:      0.122D-02-0.211D-02-0.201D-01-0.452D-01-0.928D-01 0.381D+00
 Coeff:      0.778D+00
 Gap=     0.269 Goal=   None    Shift=    0.000
 Gap=     0.323 Goal=   None    Shift=    0.000
 RMSDP=6.34D-06 MaxDP=3.10D-04 DE=-7.63D-06 OVMax= 6.09D-04

 Cycle   8  Pass 1  IDiag  1:
 RMSU=  3.88D-06    CP:  9.80D-01  1.02D+00  1.04D+00  7.68D-01  1.23D+00
                    CP:  1.23D+00  1.19D+00
 E= -232.969640259124     Delta-E=       -0.000001034193 Rises=F Damp=F
 DIIS: error= 1.35D-05 at cycle   8 NSaved=   8.
 NSaved= 8 IEnMin= 8 EnMin= -232.969640259124     IErMin= 8 ErrMin= 1.35D-05
 ErrMax= 1.35D-05  0.00D+00 EMaxC= 1.00D-01 BMatC= 1.57D-07 BMatP= 2.82D-06
 IDIUse=1 WtCom= 1.00D+00 WtEn= 0.00D+00
 Coeff-Com: -0.245D-03 0.705D-03 0.189D-02-0.432D-03-0.222D-01-0.416D-01
 Coeff-Com:  0.129D+00 0.933D+00
 Coeff:     -0.245D-03 0.705D-03 0.189D-02-0.432D-03-0.222D-01-0.416D-01
 Coeff:      0.129D+00 0.933D+00
 Gap=     0.269 Goal=   None    Shift=    0.000
 Gap=     0.323 Goal=   None    Shift=    0.000
 RMSDP=2.36D-06 MaxDP=1.59D-04 DE=-1.03D-06 OVMax= 1.19D-04

 Cycle   9  Pass 1  IDiag  1:
 RMSU=  1.36D-06    CP:  9.80D-01  1.02D+00  1.03D+00  7.66D-01  1.22D+00
                    CP:  1.24D+00  1.31D+00  1.23D+00
 E= -232.969640325808     Delta-E=       -0.000000066684 Rises=F Damp=F
 DIIS: error= 4.82D-06 at cycle   9 NSaved=   9.
 NSaved= 9 IEnMin= 9 EnMin= -232.969640325808     IErMin= 9 ErrMin= 4.82D-06
 ErrMax= 4.82D-06  0.00D+00 EMaxC= 1.00D-01 BMatC= 1.32D-08 BMatP= 1.57D-07
 IDIUse=1 WtCom= 1.00D+00 WtEn= 0.00D+00
 Coeff-Com: -0.177D-03 0.373D-03 0.241D-02 0.456D-02 0.588D-02-0.473D-01
 Coeff-Com: -0.560D-01 0.161D+00 0.929D+00
 Coeff:     -0.177D-03 0.373D-03 0.241D-02 0.456D-02 0.588D-02-0.473D-01
 Coeff:     -0.560D-01 0.161D+00 0.929D+00
 Gap=     0.269 Goal=   None    Shift=    0.000
 Gap=     0.323 Goal=   None    Shift=    0.000
 RMSDP=1.20D-06 MaxDP=1.37D-04 DE=-6.67D-08 OVMax= 5.13D-05

 Cycle  10  Pass 1  IDiag  1:
 RMSU=  4.65D-07    CP:  9.80D-01  1.02D+00  1.03D+00  7.66D-01  1.22D+00
                    CP:  1.23D+00  1.37D+00  1.37D+00  1.08D+00
 E= -232.969640332272     Delta-E=       -0.000000006464 Rises=F Damp=F
 DIIS: error= 8.81D-07 at cycle  10 NSaved=  10.
 NSaved=10 IEnMin=10 EnMin= -232.969640332272     IErMin=10 ErrMin= 8.81D-07
 ErrMax= 8.81D-07  0.00D+00 EMaxC= 1.00D-01 BMatC= 9.61D-10 BMatP= 1.32D-08
 IDIUse=1 WtCom= 1.00D+00 WtEn= 0.00D+00
 Coeff-Com:  0.403D-05-0.130D-04 0.117D-03 0.471D-03 0.190D-02-0.244D-02
 Coeff-Com: -0.127D-01-0.508D-01 0.107D+00 0.957D+00
 Coeff:      0.403D-05-0.130D-04 0.117D-03 0.471D-03 0.190D-02-0.244D-02
 Coeff:     -0.127D-01-0.508D-01 0.107D+00 0.957D+00
 Gap=     0.269 Goal=   None    Shift=    0.000
 Gap=     0.323 Goal=   None    Shift=    0.000
 RMSDP=1.92D-07 MaxDP=1.11D-05 DE=-6.46D-09 OVMax= 1.52D-05

 Cycle  11  Pass 1  IDiag  1:
 RMSU=  1.10D-07    CP:  9.80D-01  1.02D+00  1.03D+00  7.66D-01  1.22D+00
                    CP:  1.23D+00  1.37D+00  1.38D+00  1.15D+00  1.13D+00
 E= -232.969640332730     Delta-E=       -0.000000000458 Rises=F Damp=F
 DIIS: error= 3.01D-07 at cycle  11 NSaved=  11.
 NSaved=11 IEnMin=11 EnMin= -232.969640332730     IErMin=11 ErrMin= 3.01D-07
 ErrMax= 3.01D-07  0.00D+00 EMaxC= 1.00D-01 BMatC= 1.50D-10 BMatP= 9.61D-10
 IDIUse=1 WtCom= 1.00D+00 WtEn= 0.00D+00
 Coeff-Com:  0.183D-04-0.398D-04-0.193D-03-0.276D-03 0.650D-04 0.359D-02
 Coeff-Com:  0.160D-02-0.303D-01-0.535D-01 0.271D+00 0.808D+00
 Coeff:      0.183D-04-0.398D-04-0.193D-03-0.276D-03 0.650D-04 0.359D-02
 Coeff:      0.160D-02-0.303D-01-0.535D-01 0.271D+00 0.808D+00
 Gap=     0.269 Goal=   None    Shift=    0.000
 Gap=     0.323 Goal=   None    Shift=    0.000
 RMSDP=5.33D-08 MaxDP=2.49D-06 DE=-4.58D-10 OVMax= 3.92D-06

 Cycle  12  Pass 1  IDiag  1:
 RMSU=  3.10D-08    CP:  9.80D-01  1.02D+00  1.03D+00  7.66D-01  1.22D+00
                    CP:  1.23D+00  1.37D+00  1.38D+00  1.16D+00  1.18D+00
                    CP:  1.26D+00
 E= -232.969640332785     Delta-E=       -0.000000000055 Rises=F Damp=F
 DIIS: error= 1.59D-07 at cycle  12 NSaved=  12.
 NSaved=12 IEnMin=12 EnMin= -232.969640332785     IErMin=12 ErrMin= 1.59D-07
 ErrMax= 1.59D-07  0.00D+00 EMaxC= 1.00D-01 BMatC= 1.69D-11 BMatP= 1.50D-10
 IDIUse=1 WtCom= 1.00D+00 WtEn= 0.00D+00
 Coeff-Com:  0.330D-05-0.726D-05-0.611D-04-0.122D-03-0.220D-03 0.111D-02
 Coeff-Com:  0.202D-02-0.353D-03-0.256D-01-0.545D-01 0.197D+00 0.881D+00
 Coeff:      0.330D-05-0.726D-05-0.611D-04-0.122D-03-0.220D-03 0.111D-02
 Coeff:      0.202D-02-0.353D-03-0.256D-01-0.545D-01 0.197D+00 0.881D+00
 Gap=     0.269 Goal=   None    Shift=    0.000
 Gap=     0.323 Goal=   None    Shift=    0.000
 RMSDP=2.78D-08 MaxDP=2.25D-06 DE=-5.49D-11 OVMax= 1.54D-06

 Cycle  13  Pass 1  IDiag  1:
 RMSU=  1.28D-08    CP:  9.80D-01  1.02D+00  1.03D+00  7.66D-01  1.22D+00
                    CP:  1.23D+00  1.37D+00  1.38D+00  1.16D+00  1.19D+00
                    CP:  1.40D+00  1.20D+00
 E= -232.969640332794     Delta-E=       -0.000000000010 Rises=F Damp=F
 DIIS: error= 2.77D-08 at cycle  13 NSaved=  13.
 NSaved=13 IEnMin=13 EnMin= -232.969640332794     IErMin=13 ErrMin= 2.77D-08
 ErrMax= 2.77D-08  0.00D+00 EMaxC= 1.00D-01 BMatC= 1.17D-12 BMatP= 1.69D-11
 IDIUse=1 WtCom= 1.00D+00 WtEn= 0.00D+00
 Coeff-Com: -0.165D-05 0.340D-05 0.125D-04 0.166D-04-0.158D-04-0.238D-03
 Coeff-Com: -0.190D-04 0.278D-02 0.222D-02-0.328D-01-0.616D-01 0.974D-01
 Coeff-Com:  0.992D+00
 Coeff:     -0.165D-05 0.340D-05 0.125D-04 0.166D-04-0.158D-04-0.238D-03
 Coeff:     -0.190D-04 0.278D-02 0.222D-02-0.328D-01-0.616D-01 0.974D-01
 Coeff:      0.992D+00
 Gap=     0.269 Goal=   None    Shift=    0.000
 Gap=     0.323 Goal=   None    Shift=    0.000
 RMSDP=1.50D-08 MaxDP=1.94D-06 DE=-9.55D-12 OVMax= 6.57D-07

 Cycle  14  Pass 1  IDiag  1:
 RMSU=  3.44D-09    CP:  9.80D-01  1.02D+00  1.03D+00  7.66D-01  1.22D+00
                    CP:  1.23D+00  1.37D+00  1.38D+00  1.16D+00  1.18D+00
                    CP:  1.45D+00  1.34D+00  1.30D+00
 E= -232.969640332793     Delta-E=        0.000000000001 Rises=F Damp=F
 DIIS: error= 8.73D-09 at cycle  14 NSaved=  14.
 NSaved=14 IEnMin=13 EnMin= -232.969640332794     IErMin=14 ErrMin= 8.73D-09
 ErrMax= 8.73D-09  0.00D+00 EMaxC= 1.00D-01 BMatC= 7.38D-14 BMatP= 1.17D-12
 IDIUse=1 WtCom= 1.00D+00 WtEn= 0.00D+00
 Coeff-Com: -0.929D-07 0.270D-06 0.298D-05 0.550D-05 0.100D-04-0.509D-04
 Coeff-Com: -0.112D-03-0.130D-04 0.150D-02 0.432D-02-0.103D-01-0.640D-01
 Coeff-Com: -0.437D-01 0.111D+01
 Coeff:     -0.929D-07 0.270D-06 0.298D-05 0.550D-05 0.100D-04-0.509D-04
 Coeff:     -0.112D-03-0.130D-04 0.150D-02 0.432D-02-0.103D-01-0.640D-01
 Coeff:     -0.437D-01 0.111D+01
 Gap=     0.269 Goal=   None    Shift=    0.000
 Gap=     0.323 Goal=   None    Shift=    0.000
 RMSDP=4.45D-09 MaxDP=5.70D-07 DE= 1.08D-12 OVMax= 1.67D-07

 SCF Done:  E(UM062X) =  -232.969640333     A.U. after   14 cycles
            NFock= 14  Conv=0.45D-08     -V/T= 2.0039
 <Sx>= 0.0000 <Sy>= 0.0000 <Sz>= 0.5000 <S**2>= 0.7551 S= 0.5025
 <L.S>= 0.000000000000E+00
 KE= 2.320721609802D+02 PE=-9.023894864988D+02 EE= 2.576604484981D+02
 Annihilation of the first spin contaminant:
 S**2 before annihilation     0.7551,   after     0.7500
 Leave Link  502 at Sat Mar  9 13:22:20 2019, MaxMem=   671088640 cpu:             865.4 elap:              43.3
 (Enter /shared/centos7/gaussian/g16/l801.exe)
 DoSCS=F DFT=T ScalE2(SS,OS)=  1.000000  1.000000
 Range of M.O.s used for correlation:     1   251
 NBasis=   251 NAE=    21 NBE=    20 NFC=     0 NFV=     0
 NROrb=    251 NOA=    21 NOB=    20 NVA=   230 NVB=   231

 **** Warning!!: The largest alpha MO coefficient is  0.47421221D+02


 **** Warning!!: The largest beta MO coefficient is  0.49438068D+02

 Leave Link  801 at Sat Mar  9 13:22:20 2019, MaxMem=   671088640 cpu:               0.4 elap:               0.0
 (Enter /shared/centos7/gaussian/g16/l1101.exe)
 Using compressed storage, NAtomX=    14.
 Will process     15 centers per pass.
 Leave Link 1101 at Sat Mar  9 13:22:21 2019, MaxMem=   671088640 cpu:               5.7 elap:               0.3
 (Enter /shared/centos7/gaussian/g16/l1102.exe)
 Symmetrizing basis deriv contribution to polar:
 IMax=3 JMax=2 DiffMx= 0.00D+00
 Leave Link 1102 at Sat Mar  9 13:22:21 2019, MaxMem=   671088640 cpu:               0.5 elap:               0.1
 (Enter /shared/centos7/gaussian/g16/l1110.exe)
 Forming Gx(P) for the SCF density, NAtomX=    14.
 Integral derivatives from FoFJK, PRISM(SPDF).
 Do as many integral derivatives as possible in FoFJK.
 G2DrvN: MDV=     671087496.
 G2DrvN: will do    15 centers at a time, making    1 passes.
 Calling FoFCou, ICntrl=  3107 FMM=F I1Cent=   0 AccDes= 0.00D+00.
 FoFJK:  IHMeth= 1 ICntrl=    3107 DoSepK=F KAlg= 0 I1Cent=           0 FoldK=F
 IRaf=         0 NMat=       1 IRICut=       1 DoRegI=T DoRafI=F ISym2E= 0 IDoP0=0 IntGTp=1.
 FoFCou: FMM=F IPFlag=           0 FMFlag=      100000 FMFlg1=           0
         NFxFlg=           0 DoJE=F BraDBF=F KetDBF=F FulRan=T
         wScrn=  0.000000 ICntrl=      3107 IOpCl=  1 I1Cent=           0 NGrid=           0
         NMat0=    1 NMatS0=      1 NMatT0=    0 NMatD0=    1 NMtDS0=    0 NMtDT0=    0
 Symmetry not used in FoFCou.
 End of G2Drv F.D. properties file   721 does not exist.
 End of G2Drv F.D. properties file   722 does not exist.
 End of G2Drv F.D. properties file   788 does not exist.
 Leave Link 1110 at Sat Mar  9 13:23:44 2019, MaxMem=   671088640 cpu:            1661.5 elap:              83.1
 (Enter /shared/centos7/gaussian/g16/l1002.exe)
 Minotr:  UHF open shell wavefunction.
          IDoAtm=11111111111111
          Direct CPHF calculation.
          Differentiating once with respect to nuclear coordinates.
          Requested convergence is 1.0D-08 RMS, and 1.0D-07 maximum.
          Secondary convergence is 1.0D-12 RMS, and 1.0D-12 maximum.
          NewPWx=T KeepS1=F KeepF1=F KeepIn=T MapXYZ=F SortEE=F KeepMc=T.
         4264 words used for storage of precomputed grid.
 Two-electron integrals replicated using symmetry.
          MDV=     671088640 using IRadAn=       1.
          Solving linear equations simultaneously, MaxMat=     380.
 FoF2E skips out because all densities are zero.
 CalDSu exits because no D1Ps are significant.
 FoFJK:  IHMeth= 1 ICntrl=       0 DoSepK=F KAlg= 0 I1Cent=           0 FoldK=F
 IRaf= 970000000 NMat=      42 IRICut=     105 DoRegI=T DoRafI=T ISym2E= 2 IDoP0=3 IntGTp=3.
 FoFCou: FMM=F IPFlag=           0 FMFlag=      100000 FMFlg1=           0
         NFxFlg=           0 DoJE=F BraDBF=F KetDBF=F FulRan=T
         wScrn=  0.000000 ICntrl=         0 IOpCl=  1 I1Cent=           0 NGrid=           0
         NMat0=   42 NMatS0=     42 NMatT0=    0 NMatD0=   42 NMtDS0=    0 NMtDT0=    0
 Integrals replicated using symmetry in FoFCou.
 Raff kept on since  95.49% of shell-pairs survive, threshold=   0.20 IRatSp=95.
          There are    45 degrees of freedom in the 1st order CPHF.  IDoFFX=6 NUNeed=     0.
     39 vectors produced by pass  0 Test12= 2.10D-14 2.22D-09 XBig12= 1.46D-01 9.21D-02.
 AX will form    39 AO Fock derivatives at one time.
     39 vectors produced by pass  1 Test12= 2.10D-14 2.22D-09 XBig12= 9.66D-03 1.20D-02.
     39 vectors produced by pass  2 Test12= 2.10D-14 2.22D-09 XBig12= 4.90D-04 3.07D-03.
     39 vectors produced by pass  3 Test12= 2.10D-14 2.22D-09 XBig12= 9.03D-06 3.49D-04.
     39 vectors produced by pass  4 Test12= 2.10D-14 2.22D-09 XBig12= 1.03D-07 3.25D-05.
     39 vectors produced by pass  5 Test12= 2.10D-14 2.22D-09 XBig12= 1.05D-09 4.05D-06.
     39 vectors produced by pass  6 Test12= 2.10D-14 2.22D-09 XBig12= 7.87D-12 2.52D-07.
     15 vectors produced by pass  7 Test12= 2.10D-14 2.22D-09 XBig12= 5.96D-14 2.28D-08.
 InvSVY:  IOpt=1 It=  1 EMax= 1.44D-15
 Solved reduced A of dimension   288 with    39 vectors.
 End of Minotr F.D. properties file   721 does not exist.
 End of Minotr F.D. properties file   722 does not exist.
 End of Minotr F.D. properties file   788 does not exist.
 Leave Link 1002 at Sat Mar  9 13:25:55 2019, MaxMem=   671088640 cpu:            2623.0 elap:             131.2
 (Enter /shared/centos7/gaussian/g16/l601.exe)
 Copying SCF densities to generalized density rwf, IOpCl= 1 IROHF=0.

 **********************************************************************

            Population analysis using the SCF density.

 **********************************************************************

 Orbital symmetries:
 Alpha Orbitals:
       Occupied  (A) (A) (A) (A) (A) (A) (A) (A) (A) (A) (A) (A)
                 (A) (A) (A) (A) (A) (A) (A) (A) (A)
       Virtual   (A) (A) (A) (A) (A) (A) (A) (A) (A) (A) (A) (A)
                 (A) (A) (A) (A) (A) (A) (A) (A) (A) (A) (A) (A)
                 (A) (A) (A) (A) (A) (A) (A) (A) (A) (A) (A) (A)
                 (A) (A) (A) (A) (A) (A) (A) (A) (A) (A) (A) (A)
                 (A) (A) (A) (A) (A) (A) (A) (A) (A) (A) (A) (A)
                 (A) (A) (A) (A) (A) (A) (A) (A) (A) (A) (A) (A)
                 (A) (A) (A) (A) (A) (A) (A) (A) (A) (A) (A) (A)
                 (A) (A) (A) (A) (A) (A) (A) (A) (A) (A) (A) (A)
                 (A) (A) (A) (A) (A) (A) (A) (A) (A) (A) (A) (A)
                 (A) (A) (A) (A) (A) (A) (A) (A) (A) (A) (A) (A)
                 (A) (A) (A) (A) (A) (A) (A) (A) (A) (A) (A) (A)
                 (A) (A) (A) (A) (A) (A) (A) (A) (A) (A) (A) (A)
                 (A) (A) (A) (A) (A) (A) (A) (A) (A) (A) (A) (A)
                 (A) (A) (A) (A) (A) (A) (A) (A) (A) (A) (A) (A)
                 (A) (A) (A) (A) (A) (A) (A) (A) (A) (A) (A) (A)
                 (A) (A) (A) (A) (A) (A) (A) (A) (A) (A) (A) (A)
                 (A) (A) (A) (A) (A) (A) (A) (A) (A) (A) (A) (A)
                 (A) (A) (A) (A) (A) (A) (A) (A) (A) (A) (A) (A)
                 (A) (A) (A) (A) (A) (A) (A) (A) (A) (A) (A) (A)
                 (A) (A)
 Beta  Orbitals:
       Occupied  (A) (A) (A) (A) (A) (A) (A) (A) (A) (A) (A) (A)
                 (A) (A) (A) (A) (A) (A) (A) (A)
       Virtual   (A) (A) (A) (A) (A) (A) (A) (A) (A) (A) (A) (A)
                 (A) (A) (A) (A) (A) (A) (A) (A) (A) (A) (A) (A)
                 (A) (A) (A) (A) (A) (A) (A) (A) (A) (A) (A) (A)
                 (A) (A) (A) (A) (A) (A) (A) (A) (A) (A) (A) (A)
                 (A) (A) (A) (A) (A) (A) (A) (A) (A) (A) (A) (A)
                 (A) (A) (A) (A) (A) (A) (A) (A) (A) (A) (A) (A)
                 (A) (A) (A) (A) (A) (A) (A) (A) (A) (A) (A) (A)
                 (A) (A) (A) (A) (A) (A) (A) (A) (A) (A) (A) (A)
                 (A) (A) (A) (A) (A) (A) (A) (A) (A) (A) (A) (A)
                 (A) (A) (A) (A) (A) (A) (A) (A) (A) (A) (A) (A)
                 (A) (A) (A) (A) (A) (A) (A) (A) (A) (A) (A) (A)
                 (A) (A) (A) (A) (A) (A) (A) (A) (A) (A) (A) (A)
                 (A) (A) (A) (A) (A) (A) (A) (A) (A) (A) (A) (A)
                 (A) (A) (A) (A) (A) (A) (A) (A) (A) (A) (A) (A)
                 (A) (A) (A) (A) (A) (A) (A) (A) (A) (A) (A) (A)
                 (A) (A) (A) (A) (A) (A) (A) (A) (A) (A) (A) (A)
                 (A) (A) (A) (A) (A) (A) (A) (A) (A) (A) (A) (A)
                 (A) (A) (A) (A) (A) (A) (A) (A) (A) (A) (A) (A)
                 (A) (A) (A) (A) (A) (A) (A) (A) (A) (A) (A) (A)
                 (A) (A) (A)
 The electronic state is 2-A.
 Alpha  occ. eigenvalues --  -19.61543 -10.57962 -10.55036 -10.53771 -10.53434
 Alpha  occ. eigenvalues --   -1.14192  -0.90307  -0.82563  -0.73139  -0.65886
 Alpha  occ. eigenvalues --   -0.58329  -0.53850  -0.52486  -0.50507  -0.47842
 Alpha  occ. eigenvalues --   -0.46569  -0.42997  -0.42075  -0.39176  -0.34776
 Alpha  occ. eigenvalues --   -0.25272
 Alpha virt. eigenvalues --    0.01622   0.02772   0.03151   0.04213   0.05522
 Alpha virt. eigenvalues --    0.06250   0.06636   0.07416   0.08460   0.09411
 Alpha virt. eigenvalues --    0.10167   0.11866   0.13282   0.13748   0.16356
 Alpha virt. eigenvalues --    0.17136   0.18918   0.19990   0.20259   0.21579
 Alpha virt. eigenvalues --    0.21929   0.23431   0.24144   0.25444   0.26437
 Alpha virt. eigenvalues --    0.27701   0.27786   0.29046   0.29567   0.30247
 Alpha virt. eigenvalues --    0.31702   0.32978   0.37610   0.41521   0.43798
 Alpha virt. eigenvalues --    0.44101   0.46318   0.48521   0.51293   0.53224
 Alpha virt. eigenvalues --    0.53901   0.54965   0.56558   0.57348   0.58057
 Alpha virt. eigenvalues --    0.59042   0.59473   0.61142   0.62549   0.63070
 Alpha virt. eigenvalues --    0.64582   0.65631   0.67407   0.68460   0.68605
 Alpha virt. eigenvalues --    0.69470   0.70013   0.72939   0.78228   0.82358
 Alpha virt. eigenvalues --    0.83655   0.86714   0.89081   0.91661   0.92997
 Alpha virt. eigenvalues --    0.94035   0.97731   0.99385   1.03550   1.04591
 Alpha virt. eigenvalues --    1.06076   1.07104   1.08671   1.11774   1.14416
 Alpha virt. eigenvalues --    1.15704   1.16955   1.18580   1.20563   1.21561
 Alpha virt. eigenvalues --    1.22423   1.24546   1.26068   1.28899   1.30869
 Alpha virt. eigenvalues --    1.31811   1.32109   1.33470   1.36174   1.39345
 Alpha virt. eigenvalues --    1.40447   1.42565   1.44232   1.45080   1.46335
 Alpha virt. eigenvalues --    1.47562   1.50105   1.50649   1.51965   1.53731
 Alpha virt. eigenvalues --    1.54680   1.58640   1.58905   1.60821   1.62005
 Alpha virt. eigenvalues --    1.64498   1.72283   1.77119   1.79107   1.93820
 Alpha virt. eigenvalues --    2.09817   2.18619   2.29666   2.31387   2.37415
 Alpha virt. eigenvalues --    2.43373   2.49231   2.50144   2.54285   2.59856
 Alpha virt. eigenvalues --    2.60859   2.65922   2.72969   2.76476   2.77464
 Alpha virt. eigenvalues --    2.81367   2.84586   2.86898   2.90680   2.92373
 Alpha virt. eigenvalues --    2.94288   2.95673   2.98617   3.01817   3.06163
 Alpha virt. eigenvalues --    3.08687   3.10916   3.13975   3.14517   3.17191
 Alpha virt. eigenvalues --    3.17946   3.20333   3.24361   3.24978   3.28621
 Alpha virt. eigenvalues --    3.29695   3.33362   3.36486   3.37022   3.39720
 Alpha virt. eigenvalues --    3.40772   3.44181   3.48590   3.50813   3.53521
 Alpha virt. eigenvalues --    3.55248   3.56565   3.59460   3.62014   3.63850
 Alpha virt. eigenvalues --    3.64659   3.69877   3.71495   3.74234   3.75859
 Alpha virt. eigenvalues --    3.78053   3.84290   3.87438   3.88957   3.90925
 Alpha virt. eigenvalues --    3.95969   3.96794   4.00184   4.01735   4.05102
 Alpha virt. eigenvalues --    4.06403   4.10523   4.11526   4.13245   4.18573
 Alpha virt. eigenvalues --    4.20902   4.21686   4.23843   4.25949   4.27914
 Alpha virt. eigenvalues --    4.30052   4.33233   4.35444   4.36107   4.38846
 Alpha virt. eigenvalues --    4.41191   4.46224   4.47441   4.48984   4.52593
 Alpha virt. eigenvalues --    4.53855   4.61387   4.66196   4.68817   4.71858
 Alpha virt. eigenvalues --    4.96925   5.02890   5.17333   5.22344   5.26245
 Alpha virt. eigenvalues --    5.28060   5.39875   5.44627   5.47889   5.50288
 Alpha virt. eigenvalues --    5.55364   5.57980   5.60059   5.60880   5.62604
 Alpha virt. eigenvalues --    5.64680   5.85732   5.96132   6.51794   6.99221
 Alpha virt. eigenvalues --    7.20074   7.23602   7.27200   7.51256   7.63872
 Alpha virt. eigenvalues --   24.17133  24.38312  24.44472  24.52682  50.15488
  Beta  occ. eigenvalues --  -19.61523 -10.57932 -10.54362 -10.53831 -10.53494
  Beta  occ. eigenvalues --   -1.14115  -0.88638  -0.82028  -0.72531  -0.63872
  Beta  occ. eigenvalues --   -0.58051  -0.52742  -0.51829  -0.49476  -0.46826
  Beta  occ. eigenvalues --   -0.46074  -0.42352  -0.41602  -0.38880  -0.34650
  Beta virt. eigenvalues --   -0.02306   0.01486   0.02611   0.02992   0.04101
  Beta virt. eigenvalues --    0.05480   0.06273   0.06624   0.07368   0.08204
  Beta virt. eigenvalues --    0.09306   0.10077   0.11553   0.13039   0.13571
  Beta virt. eigenvalues --    0.15787   0.17092   0.18993   0.20248   0.20388
  Beta virt. eigenvalues --    0.21767   0.21932   0.23666   0.24601   0.25555
  Beta virt. eigenvalues --    0.26670   0.27606   0.27755   0.29229   0.29536
  Beta virt. eigenvalues --    0.30418   0.32544   0.33255   0.37609   0.41797
  Beta virt. eigenvalues --    0.43977   0.44153   0.46416   0.49102   0.51559
  Beta virt. eigenvalues --    0.54138   0.54370   0.55055   0.57070   0.57841
  Beta virt. eigenvalues --    0.58461   0.58958   0.59796   0.61728   0.62534
  Beta virt. eigenvalues --    0.63417   0.65305   0.66070   0.67528   0.68561
  Beta virt. eigenvalues --    0.69004   0.69498   0.70538   0.73221   0.77877
  Beta virt. eigenvalues --    0.82301   0.83640   0.86703   0.88994   0.91749
  Beta virt. eigenvalues --    0.92938   0.93606   0.98124   0.99484   1.03968
  Beta virt. eigenvalues --    1.04959   1.06120   1.07140   1.09241   1.11898
  Beta virt. eigenvalues --    1.14255   1.15747   1.16874   1.18814   1.20717
  Beta virt. eigenvalues --    1.21577   1.22746   1.24710   1.26370   1.28819
  Beta virt. eigenvalues --    1.31236   1.31655   1.32818   1.34325   1.36611
  Beta virt. eigenvalues --    1.39510   1.40640   1.42811   1.43843   1.45172
  Beta virt. eigenvalues --    1.46368   1.47660   1.50309   1.50781   1.51861
  Beta virt. eigenvalues --    1.54199   1.55018   1.58566   1.59088   1.60641
  Beta virt. eigenvalues --    1.62099   1.65129   1.72773   1.77645   1.79355
  Beta virt. eigenvalues --    1.93948   2.09929   2.18820   2.29753   2.31475
  Beta virt. eigenvalues --    2.38196   2.44012   2.49425   2.50744   2.54969
  Beta virt. eigenvalues --    2.60841   2.61598   2.66609   2.74840   2.77760
  Beta virt. eigenvalues --    2.79712   2.84941   2.87584   2.88360   2.92360
  Beta virt. eigenvalues --    2.94268   2.95498   2.96769   3.00687   3.03006
  Beta virt. eigenvalues --    3.07824   3.10695   3.11545   3.14952   3.16426
  Beta virt. eigenvalues --    3.17752   3.18610   3.20752   3.24634   3.25967
  Beta virt. eigenvalues --    3.29594   3.30693   3.34870   3.37613   3.38940
  Beta virt. eigenvalues --    3.40943   3.44747   3.46020   3.49675   3.52208
  Beta virt. eigenvalues --    3.54880   3.55634   3.57459   3.61525   3.63365
  Beta virt. eigenvalues --    3.64366   3.68075   3.70201   3.72475   3.74525
  Beta virt. eigenvalues --    3.76708   3.78456   3.84890   3.87639   3.89018
  Beta virt. eigenvalues --    3.91916   3.96445   3.97084   4.00990   4.02966
  Beta virt. eigenvalues --    4.06301   4.07668   4.11399   4.12604   4.14279
  Beta virt. eigenvalues --    4.18885   4.21683   4.22893   4.24209   4.26604
  Beta virt. eigenvalues --    4.28883   4.31325   4.33844   4.35981   4.37088
  Beta virt. eigenvalues --    4.38987   4.41786   4.46751   4.49310   4.50827
  Beta virt. eigenvalues --    4.53054   4.54953   4.62685   4.68317   4.69804
  Beta virt. eigenvalues --    4.74625   4.99617   5.06128   5.17935   5.22422
  Beta virt. eigenvalues --    5.26643   5.29071   5.39922   5.44512   5.50938
  Beta virt. eigenvalues --    5.53940   5.55661   5.58009   5.60107   5.61162
  Beta virt. eigenvalues --    5.62783   5.64600   5.85779   5.96275   6.51818
  Beta virt. eigenvalues --    6.99350   7.20135   7.23651   7.27294   7.51349
  Beta virt. eigenvalues --    7.63987  24.17977  24.38380  24.44638  24.53214
  Beta virt. eigenvalues --   50.15461
          Condensed to atoms (all electrons):
               1          2          3          4          5          6
     1  O    8.078958   0.023578   0.145813  -0.007184  -0.045158   0.007957
     2  C    0.023578   5.607230   0.161915   0.061177  -0.277235   0.396274
     3  C    0.145813   0.161915   5.049568  -0.030286   0.090532  -0.041185
     4  C   -0.007184   0.061177  -0.030286   5.177258   0.034123  -0.015656
     5  C   -0.045158  -0.277235   0.090532   0.034123   6.162550  -0.002886
     6  H    0.007957   0.396274  -0.041185  -0.015656  -0.002886   0.546303
     7  H   -0.013353   0.485747  -0.041190   0.030445  -0.116349  -0.034361
     8  H   -0.047149   0.049778   0.386126   0.006519  -0.058724  -0.005585
     9  H   -0.052573  -0.087182   0.467554  -0.001092   0.032818  -0.002494
    10  H    0.000041   0.018605   0.001814   0.406412  -0.048002  -0.000411
    11  H    0.000066  -0.024872  -0.002398   0.396015  -0.004327   0.001806
    12  H   -0.000710  -0.007308   0.002461   0.435016  -0.068936  -0.000100
    13  H    0.000242  -0.005750  -0.012183  -0.000862   0.362931  -0.002134
    14  H    0.255010  -0.066676   0.004855  -0.016082   0.067140   0.000354
               7          8          9         10         11         12
     1  O   -0.013353  -0.047149  -0.052573   0.000041   0.000066  -0.000710
     2  C    0.485747   0.049778  -0.087182   0.018605  -0.024872  -0.007308
     3  C   -0.041190   0.386126   0.467554   0.001814  -0.002398   0.002461
     4  C    0.030445   0.006519  -0.001092   0.406412   0.396015   0.435016
     5  C   -0.116349  -0.058724   0.032818  -0.048002  -0.004327  -0.068936
     6  H   -0.034361  -0.005585  -0.002494  -0.000411   0.001806  -0.000100
     7  H    0.505247   0.004585  -0.005085   0.000241  -0.001599   0.002749
     8  H    0.004585   0.561958  -0.034534  -0.000005  -0.000031  -0.000061
     9  H   -0.005085  -0.034534   0.534848   0.000015  -0.000009   0.000010
    10  H    0.000241  -0.000005   0.000015   0.543515  -0.028283  -0.021533
    11  H   -0.001599  -0.000031  -0.000009  -0.028283   0.567094  -0.040444
    12  H    0.002749  -0.000061   0.000010  -0.021533  -0.040444   0.551693
    13  H    0.003774   0.002866  -0.000208  -0.006543  -0.001008   0.004850
    14  H   -0.000541  -0.005727   0.008011   0.000106  -0.000058   0.000136
              13         14
     1  O    0.000242   0.255010
     2  C   -0.005750  -0.066676
     3  C   -0.012183   0.004855
     4  C   -0.000862  -0.016082
     5  C    0.362931   0.067140
     6  H   -0.002134   0.000354
     7  H    0.003774  -0.000541
     8  H    0.002866  -0.005727
     9  H   -0.000208   0.008011
    10  H   -0.006543   0.000106
    11  H   -0.001008  -0.000058
    12  H    0.004850   0.000136
    13  H    0.464902  -0.000965
    14  H   -0.000965   0.501995
          Atomic-Atomic Spin Densities.
               1          2          3          4          5          6
     1  O    0.009656   0.000169  -0.008070   0.000939  -0.002539   0.001284
     2  C    0.000169   0.009151   0.016836   0.044414  -0.178587   0.001224
     3  C   -0.008070   0.016836   0.043292  -0.000490  -0.033868  -0.011367
     4  C    0.000939   0.044414  -0.000490  -0.002774  -0.161446  -0.004223
     5  C   -0.002539  -0.178587  -0.033868  -0.161446   1.553551  -0.003608
     6  H    0.001284   0.001224  -0.011367  -0.004223  -0.003608   0.072514
     7  H   -0.001669   0.017307   0.006936   0.009233  -0.035732  -0.009340
     8  H   -0.000999   0.002275   0.001384   0.000827  -0.004975  -0.001404
     9  H    0.000607   0.000507   0.000094   0.000140  -0.000796   0.000192
    10  H    0.000007   0.005608   0.001456   0.011529  -0.023216  -0.000297
    11  H    0.000060  -0.011890  -0.004281   0.007052   0.001266   0.003544
    12  H   -0.000007   0.012619   0.003821   0.027162  -0.051677  -0.001254
    13  H    0.000313   0.017176   0.000854   0.013389  -0.036101  -0.001988
    14  H    0.009226   0.005157   0.002224   0.001271  -0.001386   0.000348
               7          8          9         10         11         12
     1  O   -0.001669  -0.000999   0.000607   0.000007   0.000060  -0.000007
     2  C    0.017307   0.002275   0.000507   0.005608  -0.011890   0.012619
     3  C    0.006936   0.001384   0.000094   0.001456  -0.004281   0.003821
     4  C    0.009233   0.000827   0.000140   0.011529   0.007052   0.027162
     5  C   -0.035732  -0.004975  -0.000796  -0.023216   0.001266  -0.051677
     6  H   -0.009340  -0.001404   0.000192  -0.000297   0.003544  -0.001254
     7  H    0.016955   0.000259   0.000084   0.000234  -0.001877   0.002774
     8  H    0.000259  -0.003103   0.000812   0.000006  -0.000026   0.000020
     9  H    0.000084   0.000812  -0.002563   0.000000  -0.000000   0.000006
    10  H    0.000234   0.000006   0.000000   0.014310  -0.008043   0.004981
    11  H   -0.001877  -0.000026  -0.000000  -0.008043   0.082684  -0.014392
    12  H    0.002774   0.000020   0.000006   0.004981  -0.014392   0.035494
    13  H    0.000402   0.000226   0.000037   0.001688  -0.002268   0.000572
    14  H   -0.000539   0.000058  -0.000596  -0.000040   0.000058  -0.000123
              13         14
     1  O    0.000313   0.009226
     2  C    0.017176   0.005157
     3  C    0.000854   0.002224
     4  C    0.013389   0.001271
     5  C   -0.036101  -0.001386
     6  H   -0.001988   0.000348
     7  H    0.000402  -0.000539
     8  H    0.000226   0.000058
     9  H    0.000037  -0.000596
    10  H    0.001688  -0.000040
    11  H   -0.002268   0.000058
    12  H    0.000572  -0.000123
    13  H   -0.054633  -0.000210
    14  H   -0.000210  -0.017218
 Mulliken charges and spin densities:
               1          2
     1  O   -0.345538   0.008978
     2  C   -0.335281  -0.058036
     3  C   -0.183396   0.018822
     4  C   -0.475803  -0.052975
     5  C   -0.128477   1.020885
     6  H    0.152118   0.045623
     7  H    0.179689   0.005026
     8  H    0.139984  -0.004640
     9  H    0.139920  -0.001476
    10  H    0.134028   0.008224
    11  H    0.138048   0.051888
    12  H    0.142176   0.019996
    13  H    0.190089  -0.060545
    14  H    0.252443  -0.001771
 Sum of Mulliken charges =  -0.00000   1.00000
 Mulliken charges and spin densities with hydrogens summed into heavy atoms:
               1          2
     1  O   -0.093095   0.007207
     2  C   -0.003474  -0.007386
     3  C    0.096507   0.012706
     4  C   -0.061551   0.027133
     5  C    0.061612   0.960341
 APT charges:
               1
     1  O   -0.554224
     2  C   -0.806288
     3  C   -0.656691
     4  C   -1.313860
     5  C   -0.222115
     6  H    0.392617
     7  H    0.355138
     8  H    0.353255
     9  H    0.488094
    10  H    0.482465
    11  H    0.431632
    12  H    0.298738
    13  H    0.377075
    14  H    0.374165
 Sum of APT charges =  -0.00000
 APT charges with hydrogens summed into heavy atoms:
               1
     1  O   -0.180059
     2  C   -0.058534
     3  C    0.184658
     4  C   -0.101025
     5  C    0.154960
 Electronic spatial extent (au):  <R**2>=            568.9744
 Charge=             -0.0000 electrons
 Dipole moment (field-independent basis, Debye):
    X=             -1.8327    Y=              0.8645    Z=              0.6798  Tot=              2.1374
 Quadrupole moment (field-independent basis, Debye-Ang):
   XX=            -36.7280   YY=            -31.9913   ZZ=            -32.7151
   XY=              3.1757   XZ=              1.1745   YZ=             -1.1009
 Traceless Quadrupole moment (field-independent basis, Debye-Ang):
   XX=             -2.9166   YY=              1.8202   ZZ=              1.0964
   XY=              3.1757   XZ=              1.1745   YZ=             -1.1009
 Octapole moment (field-independent basis, Debye-Ang**2):
  XXX=             -5.1521  YYY=             -5.3048  ZZZ=             -0.1124  XYY=              1.6448
  XXY=              6.6300  XXZ=              1.4894  XZZ=              1.7518  YZZ=             -1.1413
  YYZ=              0.6746  XYZ=             -1.3240
 Hexadecapole moment (field-independent basis, Debye-Ang**3):
 XXXX=           -569.4416 YYYY=           -123.6398 ZZZZ=            -76.9568 XXXY=             15.3047
 XXXZ=             -1.5576 YYYX=             -7.4322 YYYZ=             -0.6767 ZZZX=              0.8875
 ZZZY=             -0.2769 XXYY=           -115.5487 XXZZ=           -106.3351 YYZZ=            -37.2240
 XXYZ=             -4.5868 YYXZ=             -0.1640 ZZXY=              1.1723
 N-N= 1.796872366878D+02 E-N=-9.023894865188D+02  KE= 2.320721609802D+02
  Exact polarizability:   0.000   0.000   0.000   0.000   0.000   0.000
 Approx polarizability:  62.464   1.087  61.495   0.121  -0.560  59.309
                          Isotropic Fermi Contact Couplings
        Atom                 a.u.       MegaHertz       Gauss      10(-4) cm-1
     1  O(17)              0.00098      -0.59270      -0.21149      -0.19770
     2  C(13)             -0.03104     -34.89142     -12.45013     -11.63852
     3  C(13)              0.02195      24.67442       8.80445       8.23050
     4  C(13)             -0.03076     -34.58294     -12.34005     -11.53563
     5  C(13)              0.17473     196.43039      70.09125      65.52213
     6  H(1)               0.02605     116.44150      41.54922      38.84070
     7  H(1)               0.00421      18.84028       6.72268       6.28444
     8  H(1)              -0.00040      -1.79602      -0.64086      -0.59909
     9  H(1)              -0.00058      -2.57031      -0.91715      -0.85736
    10  H(1)               0.00391      17.46170       6.23077       5.82460
    11  H(1)               0.02887     129.03445      46.04270      43.04126
    12  H(1)               0.01037      46.34457      16.53689      15.45888
    13  H(1)              -0.01412     -63.11648     -22.52153     -21.05339
    14  H(1)              -0.00146      -6.53152      -2.33061      -2.17868
 --------------------------------------------------------
       Center         ----  Spin Dipole Couplings  ----
                      3XX-RR        3YY-RR        3ZZ-RR
 --------------------------------------------------------
     1   Atom        0.013681     -0.005202     -0.008479
     2   Atom       -0.004153      0.012010     -0.007857
     3   Atom        0.026221     -0.012173     -0.014048
     4   Atom        0.008743      0.000886     -0.009629
     5   Atom       -0.278496      0.709213     -0.430717
     6   Atom       -0.002903      0.010019     -0.007116
     7   Atom       -0.004135     -0.003759      0.007894
     8   Atom        0.007673     -0.004317     -0.003356
     9   Atom        0.005503     -0.001586     -0.003917
    10   Atom        0.013148     -0.004101     -0.009047
    11   Atom        0.012386     -0.005314     -0.007072
    12   Atom        0.001372     -0.007666      0.006294
    13   Atom       -0.056558     -0.015695      0.072253
    14   Atom        0.018377     -0.004814     -0.013562
 --------------------------------------------------------
                        XY            XZ            YZ
 --------------------------------------------------------
     1   Atom        0.028472     -0.030174     -0.023616
     2   Atom        0.006584     -0.005261     -0.003452
     3   Atom        0.000402      0.006788     -0.002414
     4   Atom       -0.007197      0.005654      0.003201
     5   Atom       -0.568982     -0.159140      0.347547
     6   Atom        0.008827     -0.004482     -0.005562
     7   Atom        0.003636     -0.009519     -0.009251
     8   Atom        0.004029      0.005417      0.001761
     9   Atom        0.003376     -0.002230     -0.001037
    10   Atom        0.009547      0.000440      0.001126
    11   Atom       -0.005669      0.007556     -0.001419
    12   Atom        0.003607      0.012928      0.003699
    13   Atom       -0.026497      0.009850     -0.004686
    14   Atom       -0.009246     -0.005632      0.000720
 --------------------------------------------------------


 ---------------------------------------------------------------------------------
              Anisotropic Spin Dipole Couplings in Principal Axis System
 ---------------------------------------------------------------------------------

       Atom             a.u.   MegaHertz   Gauss  10(-4) cm-1        Axes

              Baa    -0.0313     2.262     0.807     0.755  0.2657  0.4716  0.8408
     1 O(17)  Bbb    -0.0255     1.843     0.658     0.615 -0.6694  0.7179 -0.1911
              Bcc     0.0567    -4.105    -1.465    -1.369  0.6937  0.5121 -0.5065
 
              Baa    -0.0116    -1.561    -0.557    -0.521  0.6049 -0.0524  0.7946
     2 C(13)  Bbb    -0.0038    -0.514    -0.183    -0.171  0.7091 -0.4185 -0.5675
              Bcc     0.0155     2.075     0.740     0.692  0.3623  0.9067 -0.2159
 
              Baa    -0.0165    -2.219    -0.792    -0.740 -0.1412  0.4893  0.8606
     3 C(13)  Bbb    -0.0108    -1.449    -0.517    -0.483  0.0791  0.8721 -0.4829
              Bcc     0.0273     3.668     1.309     1.224  0.9868  0.0002  0.1619
 
              Baa    -0.0132    -1.778    -0.634    -0.593 -0.3431 -0.3702  0.8633
     4 C(13)  Bbb    -0.0003    -0.034    -0.012    -0.011  0.3423  0.8066  0.4819
              Bcc     0.0135     1.812     0.647     0.604  0.8747 -0.4608  0.1500
 
              Baa    -0.5381   -72.206   -25.765   -24.085  0.9140  0.4024  0.0520
     5 C(13)  Bbb    -0.5283   -70.891   -25.296   -23.647  0.0537 -0.2470  0.9675
              Bcc     1.0664   143.097    51.060    47.732 -0.4022  0.8815  0.2474
 
              Baa    -0.0100    -5.315    -1.897    -1.773  0.5397 -0.0041  0.8419
     6 H(1)   Bbb    -0.0066    -3.524    -1.257    -1.175  0.7119 -0.5316 -0.4590
              Bcc     0.0166     8.840     3.154     2.949  0.4494  0.8470 -0.2840
 
              Baa    -0.0101    -5.404    -1.928    -1.802  0.6390  0.4929  0.5905
     7 H(1)   Bbb    -0.0076    -4.032    -1.439    -1.345 -0.6439  0.7628  0.0600
              Bcc     0.0177     9.435     3.367     3.147 -0.4209 -0.4186  0.8048
 
              Baa    -0.0057    -3.026    -1.080    -1.009 -0.0946 -0.6729  0.7337
     8 H(1)   Bbb    -0.0055    -2.918    -1.041    -0.973 -0.4468  0.6873  0.5727
              Bcc     0.0111     5.943     2.121     1.982  0.8896  0.2736  0.3657
 
              Baa    -0.0045    -2.381    -0.849    -0.794  0.1642  0.1582  0.9736
     9 H(1)   Bbb    -0.0029    -1.561    -0.557    -0.521 -0.3895  0.9172 -0.0834
              Bcc     0.0074     3.941     1.406     1.315  0.9063  0.3655 -0.2123
 
              Baa    -0.0096    -5.140    -1.834    -1.715  0.1989 -0.5130  0.8350
    10 H(1)   Bbb    -0.0078    -4.153    -1.482    -1.385 -0.3563  0.7559  0.5493
              Bcc     0.0174     9.293     3.316     3.100  0.9130  0.4068  0.0325
 
              Baa    -0.0097    -5.198    -1.855    -1.734 -0.3555 -0.1601  0.9209
    11 H(1)   Bbb    -0.0068    -3.621    -1.292    -1.208  0.1879  0.9529  0.2381
              Bcc     0.0165     8.819     3.147     2.942  0.9156 -0.2577  0.3086
 
              Baa    -0.0095    -5.085    -1.815    -1.696  0.7445 -0.4350 -0.5065
    12 H(1)   Bbb    -0.0085    -4.532    -1.617    -1.512  0.2282  0.8787 -0.4193
              Bcc     0.0180     9.618     3.432     3.208  0.6275  0.1966  0.7534
 
              Baa    -0.0699   -37.301   -13.310   -12.442  0.8990  0.4352 -0.0479
    13 H(1)   Bbb    -0.0036    -1.933    -0.690    -0.645 -0.4283  0.8968  0.1110
              Bcc     0.0735    39.234    14.000    13.087  0.0913 -0.0792  0.9927
 
              Baa    -0.0146    -7.803    -2.784    -2.603  0.1985  0.1156  0.9733
    14 H(1)   Bbb    -0.0078    -4.185    -1.493    -1.396  0.2946  0.9401 -0.1718
              Bcc     0.0225    11.988     4.278     3.999  0.9348 -0.3208 -0.1525
 

 ---------------------------------------------------------------------------------

 No NMR shielding tensors so no spin-rotation constants.
 Leave Link  601 at Sat Mar  9 13:25:55 2019, MaxMem=   671088640 cpu:               7.3 elap:               0.4
 (Enter /shared/centos7/gaussian/g16/l701.exe)
 ... and contract with generalized density number  0.
 Compute integral second derivatives.
 Leave Link  701 at Sat Mar  9 13:25:56 2019, MaxMem=   671088640 cpu:               6.1 elap:               0.3
 (Enter /shared/centos7/gaussian/g16/l702.exe)
 L702 exits ... SP integral derivatives will be done elsewhere.
 Leave Link  702 at Sat Mar  9 13:25:56 2019, MaxMem=   671088640 cpu:               0.4 elap:               0.0
 (Enter /shared/centos7/gaussian/g16/l703.exe)
 Integral derivatives from FoFJK, PRISM(SPDF).
 Compute integral second derivatives, UseDBF=F ICtDFT=           0.
 Calling FoFJK, ICntrl=    100147 FMM=F ISym2X=0 I1Cent= 0 IOpClX= 1 NMat=1 NMatS=1 NMatT=0.
 FoFJK:  IHMeth= 1 ICntrl=  100147 DoSepK=F KAlg= 0 I1Cent=           0 FoldK=F
 IRaf=         0 NMat=       1 IRICut=       1 DoRegI=T DoRafI=F ISym2E= 0 IDoP0=0 IntGTp=1.
 FoFCou: FMM=F IPFlag=           0 FMFlag=      100000 FMFlg1=         800
         NFxFlg=           0 DoJE=F BraDBF=F KetDBF=F FulRan=T
         wScrn=  0.000000 ICntrl=    100147 IOpCl=  1 I1Cent=           0 NGrid=           0
         NMat0=    1 NMatS0=      1 NMatT0=    0 NMatD0=    1 NMtDS0=    0 NMtDT0=    0
 Symmetry not used in FoFCou.
 Leave Link  703 at Sat Mar  9 13:27:14 2019, MaxMem=   671088640 cpu:            1554.0 elap:              77.7
 (Enter /shared/centos7/gaussian/g16/l716.exe)
 Dipole        =-7.21055171D-01 3.40130607D-01 2.67439547D-01
 Polarizability= 0.00000000D+00 0.00000000D+00 0.00000000D+00
                 0.00000000D+00 0.00000000D+00 0.00000000D+00
 ***** Axes restored to original set *****
 -------------------------------------------------------------------
 Center     Atomic                   Forces (Hartrees/Bohr)
 Number     Number              X              Y              Z
 -------------------------------------------------------------------
      1        8           0.000000396    0.000000006   -0.000000051
      2        6          -0.000000081   -0.000000016    0.000000026
      3        6           0.000000120   -0.000000075   -0.000000032
      4        6          -0.000000097    0.000000084    0.000000033
      5        6          -0.000000036   -0.000000022   -0.000000000
      6        1          -0.000000316   -0.000000072    0.000000016
      7        1          -0.000000107    0.000000224    0.000000096
      8        1           0.000000103   -0.000000329   -0.000000145
      9        1           0.000000056   -0.000000064   -0.000000042
     10        1          -0.000000027    0.000000074    0.000000038
     11        1          -0.000000359    0.000000107    0.000000102
     12        1          -0.000000074    0.000000331    0.000000137
     13        1          -0.000000006   -0.000000250   -0.000000099
     14        1           0.000000428    0.000000003   -0.000000078
 -------------------------------------------------------------------
 Cartesian Forces:  Max     0.000000428 RMS     0.000000161
 FormGI is forming the generalized inverse of G from B-inverse, IUseBI=4.
 Leave Link  716 at Sat Mar  9 13:27:14 2019, MaxMem=   671088640 cpu:               0.5 elap:               0.0
 (Enter /shared/centos7/gaussian/g16/l103.exe)

 GradGradGradGradGradGradGradGradGradGradGradGradGradGradGradGradGradGrad
 Berny optimization.
 Red2BG is reusing G-inverse.
 Internal  Forces:  Max     0.000000032 RMS     0.000000009
 Search for a local minimum.
 Step number   1 out of a maximum of   70 on scan point     1 out of    73
 All quantities printed in internal units (Hartrees-Bohrs-Radians)
 RMS Force = .91286D-08 SwitMx=.10000D-02 MixMth= 2
 Mixed Optimization -- En-DIIS/RFO-DIIS
 Second derivative matrix not updated -- analytic derivatives used.
 ITU=  0
     Eigenvalues ---    0.00108   0.00149   0.00342   0.00604   0.03581
     Eigenvalues ---    0.03930   0.04595   0.05020   0.05560   0.05702
     Eigenvalues ---    0.06765   0.08070   0.09913   0.10755   0.11290
     Eigenvalues ---    0.11980   0.13215   0.13631   0.14730   0.17096
     Eigenvalues ---    0.19889   0.24464   0.29414   0.30578   0.31423
     Eigenvalues ---    0.32104   0.32639   0.33313   0.33996   0.34146
     Eigenvalues ---    0.34250   0.35181   0.35572   0.40197   0.52500
     Eigenvalues --- 1000.000001000.000001000.000001000.000001000.00000
     Eigenvalues --- 1000.000001000.000001000.000001000.000001000.00000
     Eigenvalues --- 1000.000001000.000001000.000001000.000001000.00000
     Eigenvalues --- 1000.000001000.000001000.000001000.000001000.00000
     Eigenvalues --- 1000.000001000.000001000.000001000.000001000.00000
 RFO step:  Lambda= 0.00000000D+00 EMin= 1.07772882D-03
 Linear search not attempted -- first point.
 Iteration  1 RMS(Cart)=  0.00000407 RMS(Int)=  0.00000000
 Iteration  2 RMS(Cart)=  0.00000000 RMS(Int)=  0.00000000
 Iteration  1 RMS(Cart)=  0.00000000 RMS(Int)=  0.00000000
 ITry= 1 IFail=0 DXMaxC= 1.26D-05 DCOld= 1.00D+10 DXMaxT= 3.00D-01 DXLimC= 3.00D+00 Rises=F
 Variable       Old X    -DE/DX   Delta X   Delta X   Delta X     New X
                                 (Linear)    (Quad)   (Total)
    R1        2.66872   0.00000   0.00000   0.00000   0.00000   2.66872
    R2        1.81672   0.00000   0.00000   0.00000   0.00000   1.81672
    R3        2.88016  -0.00000   0.00000   0.00000   0.00000   2.88016
    R4        2.81623   0.00000   0.00000   0.00000   0.00000   2.81623
    R5        2.07838   0.00000   0.00000  -0.00000  -0.00000   2.07838
    R6        2.06605  -0.00000   0.00000  -0.00000  -0.00000   2.06605
    R7        2.07238   0.00000   0.00000   0.00000   0.00000   2.07238
    R8        2.05771  -0.00000   0.00000  -0.00000  -0.00000   2.05771
    R9        2.80887   0.00000   0.00000  -0.00000  -0.00000   2.80887
   R10        2.05760  -0.00000   0.00000  -0.00000  -0.00000   2.05760
   R11        2.07514   0.00000   0.00000   0.00000   0.00000   2.07514
   R12        2.06371  -0.00000   0.00000  -0.00000  -0.00000   2.06371
   R13        2.04948   0.00000   0.00000   0.00000   0.00000   2.04948
    A1        1.88626   0.00000   0.00000  -0.00000  -0.00000   1.88626
    A2        1.95694  -0.00000   0.00000  -0.00000  -0.00000   1.95694
    A3        1.89056   0.00000   0.00000  -0.00000  -0.00000   1.89056
    A4        1.90343  -0.00000   0.00000  -0.00000  -0.00000   1.90343
    A5        1.93011  -0.00000   0.00000   0.00000   0.00000   1.93011
    A6        1.92072   0.00000   0.00000   0.00000   0.00000   1.92072
    A7        1.85915   0.00000   0.00000   0.00000   0.00000   1.85915
    A8        1.95702  -0.00000   0.00000  -0.00000  -0.00000   1.95702
    A9        1.93121   0.00000   0.00000  -0.00000  -0.00000   1.93121
   A10        1.85304   0.00000   0.00000   0.00000   0.00000   1.85304
   A11        1.91104   0.00000   0.00000   0.00000   0.00000   1.91104
   A12        1.92904   0.00000   0.00000   0.00000   0.00000   1.92904
   A13        1.88044  -0.00000   0.00000   0.00000   0.00000   1.88044
   A14        1.95501   0.00000   0.00000  -0.00000  -0.00000   1.95501
   A15        1.94689  -0.00000   0.00000  -0.00000  -0.00000   1.94689
   A16        1.93794   0.00000   0.00000   0.00000   0.00000   1.93794
   A17        1.86934   0.00000   0.00000  -0.00000  -0.00000   1.86934
   A18        1.89317   0.00000   0.00000   0.00000   0.00000   1.89317
   A19        1.85720   0.00000   0.00000  -0.00000  -0.00000   1.85720
   A20        2.11823   0.00000   0.00000   0.00000   0.00000   2.11823
   A21        2.04948  -0.00000   0.00000   0.00000   0.00000   2.04948
   A22        2.07110   0.00000   0.00000   0.00000   0.00000   2.07110
    D1       -0.88425   0.00000   0.00000  -0.00000  -0.00000  -0.88426
    D2        1.25490   0.00000   0.00000  -0.00000  -0.00000   1.25489
    D3       -2.99259   0.00000   0.00000  -0.00000  -0.00000  -2.99259
    D4        1.12128   0.00000   0.00000  -0.00000  -0.00000   1.12128
    D5       -1.02926   0.00000   0.00000  -0.00000  -0.00000  -1.02926
    D6       -3.09809  -0.00000   0.00000  -0.00000  -0.00000  -3.09809
    D7       -3.02723  -0.00000   0.00000  -0.00000  -0.00000  -3.02723
    D8        1.10541   0.00000   0.00000  -0.00000  -0.00000   1.10541
    D9       -0.96342  -0.00000   0.00000  -0.00000  -0.00000  -0.96342
   D10       -1.01046   0.00000   0.00000  -0.00000  -0.00000  -1.01046
   D11        3.12218   0.00000   0.00000  -0.00000  -0.00000   3.12218
   D12        1.05335  -0.00000   0.00000  -0.00000  -0.00000   1.05335
   D13       -2.66414   0.00000   0.00000   0.00001   0.00001  -2.66413
   D14        0.79734   0.00000   0.00000   0.00001   0.00001   0.79735
   D15        1.50703   0.00000   0.00000   0.00001   0.00001   1.50704
   D16       -1.31468   0.00000   0.00000   0.00001   0.00001  -1.31467
   D17       -0.54228   0.00000   0.00000   0.00001   0.00001  -0.54227
   D18        2.91920   0.00000   0.00000   0.00001   0.00001   2.91921
   D19        2.93896   0.00000   0.00000  -0.00000  -0.00000   2.93895
   D20       -0.52636   0.00000   0.00000   0.00000   0.00000  -0.52636
   D21       -1.24895  -0.00000   0.00000  -0.00000  -0.00000  -1.24896
   D22        1.56891   0.00000   0.00000   0.00000   0.00000   1.56891
   D23        0.81941  -0.00000   0.00000  -0.00000  -0.00000   0.81941
   D24       -2.64591  -0.00000   0.00000   0.00000   0.00000  -2.64591
   D25       -1.91484   0.00000   0.00000   0.00000  -0.00000  -1.91484
         Item               Value     Threshold  Converged?
 Maximum Force            0.000000     0.000450     YES
 RMS     Force            0.000000     0.000300     YES
 Maximum Displacement     0.000013     0.001800     YES
 RMS     Displacement     0.000004     0.001200     YES
 Predicted change in Energy=-2.555234D-13
 Optimization completed.
    -- Stationary point found.
                           ----------------------------
                           !   Optimized Parameters   !
                           ! (Angstroms and Degrees)  !
 --------------------------                            --------------------------
 ! Name  Definition              Value          Derivative Info.                !
 --------------------------------------------------------------------------------
 ! R1    R(1,3)                  1.4122         -DE/DX =    0.0                 !
 ! R2    R(1,14)                 0.9614         -DE/DX =    0.0                 !
 ! R3    R(2,3)                  1.5241         -DE/DX =    0.0                 !
 ! R4    R(2,5)                  1.4903         -DE/DX =    0.0                 !
 ! R5    R(2,6)                  1.0998         -DE/DX =    0.0                 !
 ! R6    R(2,7)                  1.0933         -DE/DX =    0.0                 !
 ! R7    R(3,8)                  1.0967         -DE/DX =    0.0                 !
 ! R8    R(3,9)                  1.0889         -DE/DX =    0.0                 !
 ! R9    R(4,5)                  1.4864         -DE/DX =    0.0                 !
 ! R10   R(4,10)                 1.0888         -DE/DX =    0.0                 !
 ! R11   R(4,11)                 1.0981         -DE/DX =    0.0                 !
 ! R12   R(4,12)                 1.0921         -DE/DX =    0.0                 !
 ! R13   R(5,13)                 1.0845         -DE/DX =    0.0                 !
 ! A1    A(3,1,14)             108.0745         -DE/DX =    0.0                 !
 ! A2    A(3,2,5)              112.1242         -DE/DX =    0.0                 !
 ! A3    A(3,2,6)              108.3212         -DE/DX =    0.0                 !
 ! A4    A(3,2,7)              109.0587         -DE/DX =    0.0                 !
 ! A5    A(5,2,6)              110.5872         -DE/DX =    0.0                 !
 ! A6    A(5,2,7)              110.0491         -DE/DX =    0.0                 !
 ! A7    A(6,2,7)              106.5217         -DE/DX =    0.0                 !
 ! A8    A(1,3,2)              112.1291         -DE/DX =    0.0                 !
[...]
 IRaf=         0 NMat=       1 IRICut=       1 DoRegI=T DoRafI=F ISym2E= 0 IDoP0=0 IntGTp=1.
 FoFCou: FMM=F IPFlag=           0 FMFlag=      100000 FMFlg1=         800
         NFxFlg=           0 DoJE=F BraDBF=F KetDBF=F FulRan=T
         wScrn=  0.000000 ICntrl=      2127 IOpCl=  1 I1Cent=           0 NGrid=           0
         NMat0=    1 NMatS0=      1 NMatT0=    0 NMatD0=    1 NMtDS0=    0 NMtDT0=    0
 Symmetry not used in FoFCou.
 Leave Link  703 at Sat Mar  9 14:54:01 2019, MaxMem=   671088640 cpu:             114.9 elap:               5.8
 (Enter /shared/centos7/gaussian/g16/l716.exe)
 Dipole        =-7.98690289D-01 1.73704409D-01 1.24770810D-01
 ***** Axes restored to original set *****
 -------------------------------------------------------------------
 Center     Atomic                   Forces (Hartrees/Bohr)
 Number     Number              X              Y              Z
 -------------------------------------------------------------------
      1        8          -0.000008072    0.000047279   -0.000172932
      2        6           0.000238167   -0.000156995    0.000041470
      3        6           0.000059564   -0.000036102   -0.000177781
      4        6           0.000307542    0.000475583    0.000537719
      5        6           0.000058661    0.000247395    0.000557661
      6        1          -0.000008172   -0.000064273   -0.000047765
      7        1           0.000030756   -0.000032378    0.000103411
      8        1          -0.000082436    0.000092327   -0.000231061
      9        1           0.000015767   -0.000008415    0.000037198
     10        1          -0.000190218    0.000089023   -0.000406746
     11        1          -0.000170141   -0.000267513   -0.000104489
     12        1          -0.000098113   -0.000350397   -0.000193832
     13        1          -0.000148123   -0.000059269   -0.000186716
     14        1          -0.000005182    0.000023734    0.000243864
 -------------------------------------------------------------------
 Cartesian Forces:  Max     0.000557661 RMS     0.000209205
 Leave Link  716 at Sat Mar  9 14:54:02 2019, MaxMem=   671088640 cpu:               0.5 elap:               0.0
 (Enter /shared/centos7/gaussian/g16/l103.exe)

 GradGradGradGradGradGradGradGradGradGradGradGradGradGradGradGradGradGrad
 Berny optimization.
 Using GEDIIS/GDIIS optimizer.
 FormGI is forming the generalized inverse of G from B-inverse, IUseBI=4.
 Internal  Forces:  Max     0.000517390 RMS     0.000152946
 Search for a local minimum.
 Step number   9 out of a maximum of   70 on scan point    23 out of    73
 All quantities printed in internal units (Hartrees-Bohrs-Radians)
 RMS Force = .14673D-03 SwitMx=.10000D-02 MixMth= 2
 Mixed Optimization -- En-DIIS/RFO-DIIS
 Swapping is turned off.
 Update second derivatives using D2CorX and points    8    9
 DE= -2.55D-05 DEPred=-1.87D-05 R= 1.36D+00
 TightC=F SS=  1.41D+00  RLast= 1.65D-01 DXNew= 3.0813D+00 4.9400D-01
 Trust test= 1.36D+00 RLast= 1.65D-01 DXMaxT set to 1.83D+00
 ITU=  1  1  1  1  1  1  1  1  0
     Eigenvalues ---    0.00018   0.00183   0.00303   0.00453   0.02928
     Eigenvalues ---    0.04153   0.04848   0.05201   0.05631   0.06002
     Eigenvalues ---    0.07414   0.07872   0.10058   0.11139   0.12087
     Eigenvalues ---    0.12120   0.13073   0.14317   0.14863   0.17045
     Eigenvalues ---    0.19540   0.24410   0.27905   0.30510   0.31826
     Eigenvalues ---    0.32089   0.32638   0.33134   0.33509   0.34175
     Eigenvalues ---    0.34340   0.35293   0.35929   0.41042   0.56197
     Eigenvalues --- 1000.000001000.000001000.000001000.000001000.00000
     Eigenvalues --- 1000.000001000.000001000.000001000.000001000.00000
     Eigenvalues --- 1000.000001000.000001000.000001000.000001000.00000
     Eigenvalues --- 1000.000001000.000001000.000001000.000001000.00000
     Eigenvalues --- 1000.000001000.000001000.000001000.000001000.00000
 En-DIIS/RFO-DIIS/Sim-DIIS IScMMF=       -3 using points:     9    8
 RFO step:  Lambda=-1.06267944D-04.
 NNeg= 0 NGDIIS= 2 SimSw=  2.50D-01 Rises=F DC= -2.55D-05 SmlDif=  1.00D-05
 NRisDI= 0 DoIntr=F SqrtH=F CThrHd= 10.0 CDAdj=  3.0
 RMS Error=  0.7018379919D-01 NUsed= 2 OKEnD=T EnDIS=F
 InvSVX:  RCond= 3.62D-03 Info=           0 Equed=N FErr=  3.35D-14 BErr=  4.38D-17
 DidBck=T Rises=F RFO-DIIS coefs:   -1.81811    2.81811
 Iteration  1 RMS(Cart)=  0.13130548 RMS(Int)=  0.02033250
 Iteration  2 RMS(Cart)=  0.02474656 RMS(Int)=  0.00060414
 Iteration  3 RMS(Cart)=  0.00063671 RMS(Int)=  0.00017737
 Iteration  4 RMS(Cart)=  0.00000043 RMS(Int)=  0.00017737
 Iteration  1 RMS(Cart)=  0.00000699 RMS(Int)=  0.00000291
 Iteration  2 RMS(Cart)=  0.00000371 RMS(Int)=  0.00000325
 Iteration  3 RMS(Cart)=  0.00000197 RMS(Int)=  0.00000366
 Iteration  4 RMS(Cart)=  0.00000105 RMS(Int)=  0.00000392
 Iteration  5 RMS(Cart)=  0.00000056 RMS(Int)=  0.00000407
 ITry= 1 IFail=0 DXMaxC= 5.35D-01 DCOld= 1.00D+10 DXMaxT= 1.83D+00 DXLimC= 3.00D+00 Rises=F
 Variable       Old X    -DE/DX   Delta X   Delta X   Delta X     New X
                                 (Linear)    (Quad)   (Total)
    R1        2.66663  -0.00012  -0.00245   0.00372   0.00126   2.66789
    R2        1.81715  -0.00030  -0.00182   0.00172  -0.00011   1.81703
    R3        2.89573  -0.00014   0.00391  -0.00726  -0.00335   2.89239
    R4        2.82064  -0.00010  -0.00080  -0.00036  -0.00115   2.81950
    R5        2.07413  -0.00008   0.00039   0.00066   0.00105   2.07518
    R6        2.06017   0.00006  -0.00021   0.00014  -0.00007   2.06010
    R7        2.07053   0.00015  -0.00168   0.00277   0.00109   2.07162
    R8        2.05803   0.00004   0.00014  -0.00023  -0.00009   2.05793
    R9        2.81141   0.00009  -0.00021   0.00234   0.00213   2.81354
   R10        2.05656   0.00044  -0.00247   0.00403   0.00156   2.05812
   R11        2.06399   0.00001  -0.00131   0.00549   0.00419   2.06818
   R12        2.07603  -0.00034   0.00093  -0.00512  -0.00418   2.07185
   R13        2.04181   0.00008  -0.00158   0.00151  -0.00008   2.04173
    A1        1.88579  -0.00010  -0.00131   0.00361   0.00229   1.88808
    A2        1.96364  -0.00052   0.01634  -0.02348  -0.00711   1.95653
    A3        1.87921   0.00009  -0.00218  -0.00027  -0.00247   1.87674
    A4        1.88742   0.00017  -0.00829   0.01754   0.00925   1.89666
    A5        1.92141   0.00007   0.00161  -0.00377  -0.00219   1.91922
    A6        1.93106   0.00027  -0.00917   0.01417   0.00499   1.93605
    A7        1.87828  -0.00008   0.00113  -0.00352  -0.00238   1.87590
    A8        1.95714   0.00017   0.00240  -0.00176   0.00065   1.95779
    A9        1.93248  -0.00004   0.00024  -0.00114  -0.00090   1.93157
   A10        1.85426  -0.00006  -0.00097   0.00156   0.00058   1.85485
   A11        1.91846  -0.00015   0.00600  -0.01028  -0.00428   1.91417
   A12        1.91995  -0.00001  -0.00567   0.00875   0.00307   1.92302
   A13        1.87902   0.00010  -0.00259   0.00374   0.00115   1.88017
   A14        1.95817   0.00017  -0.00461   0.00304  -0.00158   1.95659
   A15        1.94744  -0.00016   0.01046  -0.00820   0.00225   1.94969
   A16        1.93875  -0.00004   0.00022   0.00025   0.00047   1.93922
   A17        1.89110  -0.00012  -0.00183  -0.00834  -0.01018   1.88092
   A18        1.87043  -0.00012   0.00341   0.00264   0.00604   1.87647
   A19        1.85309   0.00027  -0.00812   0.01125   0.00313   1.85621
   A20        2.09914  -0.00002   0.01077  -0.01163  -0.00166   2.09748
   A21        2.08457   0.00014  -0.01045   0.01982   0.00859   2.09316
   A22        2.07549  -0.00011  -0.00110   0.00765   0.00575   2.08124
    D1       -0.92816   0.00003   0.02719  -0.00356   0.02363  -0.90453
    D2        1.22159  -0.00008   0.03688  -0.01899   0.01789   1.23948
    D3       -3.02622  -0.00001   0.03338  -0.01425   0.01912  -3.00710
    D4        1.10058   0.00011  -0.01502   0.02226   0.00723   1.10781
    D5       -1.05704   0.00016  -0.02142   0.03247   0.01105  -1.04599
    D6       -3.12317   0.00014  -0.01844   0.02883   0.01039  -3.11278
    D7       -3.06235  -0.00006  -0.00420   0.00262  -0.00157  -3.06392
    D8        1.06321  -0.00001  -0.01059   0.01284   0.00225   1.06547
    D9       -1.00291  -0.00003  -0.00762   0.00920   0.00159  -1.00132
   D10       -1.03747  -0.00001  -0.00826   0.00738  -0.00088  -1.03835
   D11        3.08810   0.00003  -0.01465   0.01760   0.00294   3.09103
   D12        1.02197   0.00001  -0.01168   0.01396   0.00227   1.02424
   D13        1.35455  -0.00016   0.02371  -0.20043  -0.17677   1.17778
   D14       -2.02308  -0.00013   0.01974  -0.12267  -0.10291  -2.12599
   D15       -0.74148   0.00001   0.01447  -0.18191  -0.16749  -0.90897
   D16        2.16408   0.00005   0.01049  -0.10416  -0.09363   2.07045
   D17       -2.81537  -0.00011   0.01778  -0.18402  -0.16628  -2.98165
   D18        0.09018  -0.00007   0.01381  -0.10627  -0.09242  -0.00223
   D19       -2.80557   0.00003  -0.18883  -0.00868  -0.19753  -3.00310
   D20        0.57084  -0.00004  -0.18361  -0.08768  -0.27127   0.29957
   D21       -0.67964  -0.00011  -0.18694  -0.02326  -0.21021  -0.88985
   D22        2.69677  -0.00018  -0.18172  -0.10226  -0.28396   2.41281
   D23        1.38444   0.00010  -0.19020  -0.01429  -0.20450   1.17994
   D24       -1.52233   0.00003  -0.18498  -0.09329  -0.27824  -1.80057
   D25        1.92488  -0.00026   0.00001   0.00000   0.00000   1.92488
         Item               Value     Threshold  Converged?
 Maximum Force            0.000436     0.000450     YES
 RMS     Force            0.000147     0.000300     YES
 Maximum Displacement     0.534781     0.001800     NO 
 RMS     Displacement     0.148358     0.001200     NO 
 Predicted change in Energy=-7.512305D-05
 Lowest energy point so far.  Saving SCF results.
 GradGradGradGradGradGradGradGradGradGradGradGradGradGradGradGradGradGrad

 Leave Link  103 at Sat Mar  9 14:54:02 2019, MaxMem=   671088640 cpu:               0.7 elap:               0.1
 (Enter /shared/centos7/gaussian/g16/l202.exe)
                          Input orientation:                          
 ---------------------------------------------------------------------
 Center     Atomic      Atomic             Coordinates (Angstroms)
 Number     Number       Type             X           Y           Z
 ---------------------------------------------------------------------
      1          8           0       -2.422162   -0.987628   -0.106631
      2          6           0       -0.611059    0.640233   -0.298581
      3          6           0       -1.919500    0.236501    0.385288
      4          6           0       -1.601002    2.047105   -2.226480
      5          6           0       -0.793653    0.886901   -1.758690
      6          1           0       -0.248580    1.552659    0.193349
      7          1           0        0.128927   -0.141317   -0.125257
      8          1           0       -2.660536    1.035375    0.265135
      9          1           0       -1.756884    0.092856    1.452466
     10          1           0       -1.764115    2.025441   -3.303090
     11          1           0       -2.581189    2.080361   -1.740771
     12          1           0       -1.105426    2.995275   -1.986871
     13          1           0       -0.221459    0.317971   -2.477203
     14          1           0       -2.461404   -0.932061   -1.065755
 ---------------------------------------------------------------------
                    Distance matrix (angstroms):
                    1          2          3          4          5
     1  O    0.000000
     2  C    2.442718   0.000000
     3  C    1.411787   1.530586   0.000000
     4  C    3.791789   2.583810   3.193910   0.000000
     5  C    2.982482   1.492013   2.507427   1.488863   0.000000
     6  H    3.356710   1.098138   2.135670   2.815865   2.133259
     7  H    2.687870   1.090156   2.144634   3.492418   2.139273
     8  H    2.070646   2.162006   1.096254   2.890390   2.757383
     9  H    2.010180   2.163030   1.089012   4.168697   3.445264
    10  H    4.441729   3.503628   4.102265   1.089111   2.150172
    11  H    3.479692   2.834659   2.890982   1.094434   2.149408
    12  H    4.597022   2.939549   3.728363   1.096374   2.143481
    13  H    3.488165   2.236523   3.329239   2.226187   1.080439
    14  H    0.961533   2.546456   1.940289   3.311042   2.563235
                    6          7          8          9         10
     6  H    0.000000
     7  H    1.764533   0.000000
     8  H    2.467846   3.052559   0.000000
     9  H    2.447729   2.469884   1.764847   0.000000
    10  H    3.839981   4.286848   3.809990   5.133249   0.000000
    11  H    3.075769   3.858817   2.263172   3.850509   1.763935
    12  H    2.751125   3.850642   3.366171   4.547249   1.762635
    13  H    2.942285   2.421852   3.739543   4.224986   2.444857
    14  H    3.557494   2.866988   2.383637   2.808601   3.773419
                   11         12         13         14
    11  H    0.000000
    12  H    1.753714   0.000000
    13  H    3.035898   2.861779   0.000000
    14  H    3.089446   4.255713   2.927818   0.000000
 Stoichiometry    C4H9O(2)
 Framework group  C1[X(C4H9O)]
 Deg. of freedom    36
 Full point group                 C1      NOp   1
 RotChk:  IX=2 Diff= 2.79D-01
 Largest Abelian subgroup         C1      NOp   1
 Largest concise Abelian subgroup C1      NOp   1
                         Standard orientation:                         
 ---------------------------------------------------------------------
 Center     Atomic      Atomic             Coordinates (Angstroms)
 Number     Number       Type             X           Y           Z
 ---------------------------------------------------------------------
      1          8           0        1.779017   -0.731177   -0.329509
      2          6           0        0.093985    1.019564   -0.079632
      3          6           0        1.161073    0.147605    0.586477
      4          6           0       -1.952099   -0.509735    0.308771
      5          6           0       -1.036468    0.209135   -0.619432
      6          1           0       -0.277227    1.723744    0.676834
      7          1           0        0.564974    1.605372   -0.869213
      8          1           0        0.715207   -0.410793    1.417842
      9          1           0        1.955201    0.771399    0.994141
     10          1           0       -2.639961   -1.166953   -0.221394
     11          1           0       -1.399822   -1.117728    1.032041
     12          1           0       -2.554279    0.195167    0.894030
     13          1           0       -1.284407    0.262104   -1.669703
     14          1           0        1.089235   -1.212314   -0.795615
 ---------------------------------------------------------------------
 Rotational constants (GHZ):           8.9225415           2.9736594           2.7460568
 Leave Link  202 at Sat Mar  9 14:54:02 2019, MaxMem=   671088640 cpu:               0.2 elap:               0.0
 (Enter /shared/centos7/gaussian/g16/l301.exe)
 Standard basis: 6-311+G(2df,2p) (5D, 7F)
 Ernie: Thresh=  0.10000D-02 Tol=  0.10000D-05 Strict=F.
 There are   276 symmetry adapted cartesian basis functions of A   symmetry.
 There are   251 symmetry adapted basis functions of A   symmetry.
   251 basis functions,   359 primitive gaussians,   276 cartesian basis functions
    21 alpha electrons       20 beta electrons
       nuclear repulsion energy       182.2109519631 Hartrees.
 IExCor= 4336 DFT=T Ex+Corr=M062X ExCW=0 ScaHFX=  0.540000
 ScaDFX=  1.000000  1.000000  1.000000  1.000000 ScalE2=  1.000000  1.000000
 IRadAn=      5 IRanWt=     -1 IRanGd=            0 ICorTp=0 IEmpDi=  4
 NAtoms=   14 NActive=   14 NUniq=   14 SFac= 1.00D+00 NAtFMM=   60 NAOKFM=F Big=F
 Integral buffers will be    131072 words long.
 Raffenetti 2 integral format.
 Two-electron integral symmetry is turned on.
 Leave Link  301 at Sat Mar  9 14:54:02 2019, MaxMem=   671088640 cpu:               1.0 elap:               0.1
 (Enter /shared/centos7/gaussian/g16/l302.exe)
 NPDir=0 NMtPBC=     1 NCelOv=     1 NCel=       1 NClECP=     1 NCelD=      1
         NCelK=      1 NCelE2=     1 NClLst=     1 CellRange=     0.0.
 One-electron integrals computed using PRISM.
 One-electron integral symmetry used in STVInt
 NBasis=   251 RedAO= T EigKep=  5.21D-05  NBF=   251
 NBsUse=   251 1.00D-06 EigRej= -1.00D+00 NBFU=   251
 Precomputing XC quadrature grid using
 IXCGrd= 4 IRadAn=           5 IRanWt=          -1 IRanGd=           0 AccXCQ= 0.00D+00.
 Generated NRdTot=       0 NPtTot=           0 NUsed=           0 NTot=          32
 NSgBfM=   276   276   276   276   276 MxSgAt=    14 MxSgA2=    14.
 Leave Link  302 at Sat Mar  9 14:54:02 2019, MaxMem=   671088640 cpu:               5.6 elap:               0.3
 (Enter /shared/centos7/gaussian/g16/l303.exe)
 DipDrv:  MaxL=1.
 Leave Link  303 at Sat Mar  9 14:54:02 2019, MaxMem=   671088640 cpu:               0.6 elap:               0.0
 (Enter /shared/centos7/gaussian/g16/l401.exe)
 Initial guess from the checkpoint file:  "/scratch/underkoffler.c/gaussian_scratch/Gau-37975.chk"
 B after Tr=     0.000000   -0.000000    0.000000
         Rot=    0.996184   -0.086836   -0.007835    0.003857 Ang= -10.01 deg.
 Guess basis will be translated and rotated to current coordinates.
 JPrj=2 DoOrth=T DoCkMO=T.
 Initial guess <Sx>= 0.0000 <Sy>= 0.0000 <Sz>= 0.5000 <S**2>= 0.7554 S= 0.5027
 Generating alternative initial guess.
 ExpMin= 4.38D-02 ExpMax= 8.59D+03 ExpMxC= 1.30D+03 IAcc=2 IRadAn=         4 AccDes= 0.00D+00
 Harris functional with IExCor= 1009 and IRadAn=       4 diagonalized for initial guess.
 HarFok:  IExCor= 1009 AccDes= 0.00D+00 IRadAn=         4 IDoV= 1 UseB2=F ITyADJ=14
 ICtDFT=  3500011 ScaDFX=  1.000000  1.000000  1.000000  1.000000
 FoFCou: FMM=F IPFlag=           0 FMFlag=      100000 FMFlg1=           0
         NFxFlg=           0 DoJE=T BraDBF=F KetDBF=T FulRan=T
         wScrn=  0.000000 ICntrl=       500 IOpCl=  0 I1Cent=   200000004 NGrid=           0
         NMat0=    1 NMatS0=      1 NMatT0=    0 NMatD0=    1 NMtDS0=    0 NMtDT0=    0
 Petite list used in FoFCou.
 Harris En= -232.901716433854    
 Leave Link  401 at Sat Mar  9 14:54:03 2019, MaxMem=   671088640 cpu:              15.1 elap:               0.8
 (Enter /shared/centos7/gaussian/g16/l502.exe)
 Integral symmetry usage will be decided dynamically.
 UHF open shell SCF:
 Using DIIS extrapolation, IDIIS=  1040.
 NGot=   671088640 LenX=   670928170 LenY=   670851553
 Requested convergence on RMS density matrix=1.00D-08 within 128 cycles.
 Requested convergence on MAX density matrix=1.00D-06.
 Requested convergence on             energy=1.00D-06.
 No special actions if energy rises.
 Fock matrices will be formed incrementally for  20 cycles.

 Cycle   1  Pass 1  IDiag  1:
 FoFJK:  IHMeth= 1 ICntrl=       0 DoSepK=F KAlg= 0 I1Cent=           0 FoldK=F
 IRaf= 990000000 NMat=       1 IRICut=       1 DoRegI=T DoRafI=F ISym2E= 0 IDoP0=0 IntGTp=1.
 FoFCou: FMM=F IPFlag=           0 FMFlag=      100000 FMFlg1=           0
         NFxFlg=           0 DoJE=F BraDBF=F KetDBF=F FulRan=T
         wScrn=  0.000000 ICntrl=         0 IOpCl=  1 I1Cent=           0 NGrid=           0
         NMat0=    1 NMatS0=      1 NMatT0=    0 NMatD0=    1 NMtDS0=    0 NMtDT0=    0
 Symmetry not used in FoFCou.
 E= -232.946776619396    
 DIIS: error= 7.33D-03 at cycle   1 NSaved=   1.
 NSaved= 1 IEnMin= 1 EnMin= -232.946776619396     IErMin= 1 ErrMin= 7.33D-03
 ErrMax= 7.33D-03  0.00D+00 EMaxC= 1.00D-01 BMatC= 5.84D-02 BMatP= 5.84D-02
 IDIUse=3 WtCom= 9.27D-01 WtEn= 7.33D-02
 Coeff-Com:  0.100D+01
 Coeff-En:   0.100D+01
 Coeff:      0.100D+01
 Gap=     0.518 Goal=   None    Shift=    0.000
 Gap=     0.589 Goal=   None    Shift=    0.000
 GapD=    0.518 DampG=2.000 DampE=1.000 DampFc=2.0000 IDamp=-1.
 RMSDP=7.91D-04 MaxDP=2.74D-02              OVMax= 5.10D-02

 Cycle   2  Pass 1  IDiag  1:
 RMSU=  7.91D-04    CP:  9.97D-01
