 Entering Gaussian System, Link 0=g16
 Input=NPWGWQRXHVJJRD-UHFFFAOYSA-N_GeoFreq_c1_a1.com
 Output=NPWGWQRXHVJJRD-UHFFFAOYSA-N_GeoFreq_c1_a1.log
 Initial command:
 /shared/centos7/gaussian/g16/l1.exe "/scratch/underkoffler.c/gaussian_scratch/Gau-9480.inp" -scrdir="/scratch/underkoffler.c/gaussian_scratch/"
 Entering Link 1 = /shared/centos7/gaussian/g16/l1.exe PID=      9481.
  
 Copyright (c) 1988,1990,1992,1993,1995,1998,2003,2009,2016,
            Gaussian, Inc.  All Rights Reserved.
  
 This is part of the Gaussian(R) 16 program.  It is based on
 the Gaussian(R) 09 system (copyright 2009, Gaussian, Inc.),
 the Gaussian(R) 03 system (copyright 2003, Gaussian, Inc.),
 the Gaussian(R) 98 system (copyright 1998, Gaussian, Inc.),
 the Gaussian(R) 94 system (copyright 1995, Gaussian, Inc.),
 the Gaussian 92(TM) system (copyright 1992, Gaussian, Inc.),
 the Gaussian 90(TM) system (copyright 1990, Gaussian, Inc.),
 the Gaussian 88(TM) system (copyright 1988, Gaussian, Inc.),
 the Gaussian 86(TM) system (copyright 1986, Carnegie Mellon
 University), and the Gaussian 82(TM) system (copyright 1983,
 Carnegie Mellon University). Gaussian is a federally registered
 trademark of Gaussian, Inc.
  
 This software contains proprietary and confidential information,
 including trade secrets, belonging to Gaussian, Inc.
  
 This software is provided under written license and may be
 used, copied, transmitted, or stored only in accord with that
 written license.
  
 The following legend is applicable only to US Government
 contracts under FAR:
  
                    RESTRICTED RIGHTS LEGEND
  
 Use, reproduction and disclosure by the US Government is
 subject to restrictions as set forth in subparagraphs (a)
 and (c) of the Commercial Computer Software - Restricted
 Rights clause in FAR 52.227-19.
  
 Gaussian, Inc.
 340 Quinnipiac St., Bldg. 40, Wallingford CT 06492
  
  
 ---------------------------------------------------------------
 Warning -- This program may not be used in any manner that
 competes with the business of Gaussian, Inc. or will provide
 assistance to any competitor of Gaussian, Inc.  The licensee
 of this program is prohibited from giving any competitor of
 Gaussian, Inc. access to this program.  By using this program,
 the user acknowledges that Gaussian, Inc. is engaged in the
 business of creating and licensing software in the field of
 computational chemistry and represents and warrants to the
 licensee that it is not a competitor of Gaussian, Inc. and that
 it will not use this program in any manner prohibited above.
 ---------------------------------------------------------------
  

 Cite this work as:
 Gaussian 16, Revision A.03,
 M. J. Frisch, G. W. Trucks, H. B. Schlegel, G. E. Scuseria, 
 M. A. Robb, J. R. Cheeseman, G. Scalmani, V. Barone, 
 G. A. Petersson, H. Nakatsuji, X. Li, M. Caricato, A. V. Marenich, 
 J. Bloino, B. G. Janesko, R. Gomperts, B. Mennucci, H. P. Hratchian, 
 J. V. Ortiz, A. F. Izmaylov, J. L. Sonnenberg, D. Williams-Young, 
 F. Ding, F. Lipparini, F. Egidi, J. Goings, B. Peng, A. Petrone, 
 T. Henderson, D. Ranasinghe, V. G. Zakrzewski, J. Gao, N. Rega, 
 G. Zheng, W. Liang, M. Hada, M. Ehara, K. Toyota, R. Fukuda, 
 J. Hasegawa, M. Ishida, T. Nakajima, Y. Honda, O. Kitao, H. Nakai, 
 T. Vreven, K. Throssell, J. A. Montgomery, Jr., J. E. Peralta, 
 F. Ogliaro, M. J. Bearpark, J. J. Heyd, E. N. Brothers, K. N. Kudin, 
 V. N. Staroverov, T. A. Keith, R. Kobayashi, J. Normand, 
 K. Raghavachari, A. P. Rendell, J. C. Burant, S. S. Iyengar, 
 J. Tomasi, M. Cossi, J. M. Millam, M. Klene, C. Adamo, R. Cammi, 
 J. W. Ochterski, R. L. Martin, K. Morokuma, O. Farkas, 
 J. B. Foresman, and D. J. Fox, Gaussian, Inc., Wallingford CT, 2016.
 
 ******************************************
 Gaussian 16:  EM64L-G16RevA.03 25-Dec-2016
                 9-Apr-2019 
 ******************************************
 %nprocshared=20
 Will use up to   20 processors via shared memory.
 %mem=5GB
 ----------------------------------------------------------------------
 #p m062x/6-311+g(2df,2p) opt=(calcfc,verytight,gdiis,maxcycles=900) fr
 eq iop(7/33=1,2/16=3)
 ----------------------------------------------------------------------

 Warning!  Use of Opt=GDIIS is deprecated since it is seldom a good choice.

 1/6=900,7=1,10=4,18=20,19=11,26=3,38=1/1,3;
 2/9=110,12=2,16=3,17=6,18=5,40=1/2;
 3/5=4,6=6,7=214,11=2,25=1,30=1,71=2,74=-55,140=1/1,2,3;
 4//1;
 5/5=2,38=5/2;
 8/6=4,10=90,11=11/1;
 11/6=1,8=1,9=11,15=111,16=1/1,2,10;
 10/6=1,13=1/2;
 6/7=2,8=2,9=2,10=2,28=1/1;
 7/10=1,18=20,25=1,33=1/1,2,3,16;
 1/6=900,7=1,10=4,18=20,19=11,26=3/3(2);
 2/9=110,16=3/2;
 99//99;
 2/9=110,16=3/2;
 3/5=4,6=6,7=214,11=2,25=1,30=1,71=1,74=-55/1,2,3;
 4/5=5,16=3,69=1/1;
 5/5=2,38=5/2;
 7/33=1/1,2,3,16;
 1/6=900,7=1,18=20,19=11,26=3/3(-5);
 2/9=110,16=3/2;
 6/7=2,8=2,9=2,10=2,19=2,28=1/1;
 99/9=1/99;
 Leave Link    1 at Tue Apr  9 00:03:41 2019, MaxMem=   671088640 cpu:              28.5 elap:               1.5
 (Enter /shared/centos7/gaussian/g16/l101.exe)
 ------------------------------
 Gaussian input prepared by ASE
 ------------------------------
 Symbolic Z-matrix:
 Charge =  0 Multiplicity = 1
 O                    -5.11745  -6.74846  -1.99169 
 O                    -1.00501  -8.47687  -3.37569 
 O                    -2.70889  -9.92304  -2.87168 
 N                    -4.35162  -7.87516  -1.93782 
 C                    -3.03638  -7.53373  -2.46711 
 C                    -2.27666  -8.73213  -2.89822 
 H                    -2.46494  -6.98816  -1.69007 
 H                    -3.11888  -6.82588  -3.3302 
 H                    -4.75486  -8.47988  -2.69589 
 H                    -5.53304  -6.67654  -1.10257 
 H                    -0.62002  -9.3814   -3.65331 
 
 ITRead=  0  0  0  0  0  0  0  0  0  0  0
 MicOpt= -1 -1 -1 -1 -1 -1 -1 -1 -1 -1 -1
 NAtoms=     11 NQM=       11 NQMF=       0 NMMI=      0 NMMIF=      0
                NMic=       0 NMicF=      0.
                    Isotopes and Nuclear Properties:
 (Nuclear quadrupole moments (NQMom) in fm**2, nuclear magnetic moments (NMagM)
  in nuclear magnetons)

  Atom         1           2           3           4           5           6           7           8           9          10
 IAtWgt=          16          16          16          14          12          12           1           1           1           1
 AtmWgt=  15.9949146  15.9949146  15.9949146  14.0030740  12.0000000  12.0000000   1.0078250   1.0078250   1.0078250   1.0078250
 NucSpn=           0           0           0           2           0           0           1           1           1           1
 AtZEff=  -0.0000000  -0.0000000  -0.0000000  -0.0000000  -0.0000000  -0.0000000  -0.0000000  -0.0000000  -0.0000000  -0.0000000
 NQMom=    0.0000000   0.0000000   0.0000000   2.0440000   0.0000000   0.0000000   0.0000000   0.0000000   0.0000000   0.0000000
 NMagM=    0.0000000   0.0000000   0.0000000   0.4037610   0.0000000   0.0000000   2.7928460   2.7928460   2.7928460   2.7928460
 AtZNuc=   8.0000000   8.0000000   8.0000000   7.0000000   6.0000000   6.0000000   1.0000000   1.0000000   1.0000000   1.0000000

  Atom        11
 IAtWgt=           1
 AtmWgt=   1.0078250
 NucSpn=           1
 AtZEff=  -0.0000000
 NQMom=    0.0000000
 NMagM=    2.7928460
 AtZNuc=   1.0000000
 Leave Link  101 at Tue Apr  9 00:03:42 2019, MaxMem=   671088640 cpu:               6.3 elap:               0.3
 (Enter /shared/centos7/gaussian/g16/l103.exe)

 GradGradGradGradGradGradGradGradGradGradGradGradGradGradGradGradGradGrad
 Berny optimization.
 Initialization pass.
                           ----------------------------
                           !    Initial Parameters    !
                           ! (Angstroms and Degrees)  !
 --------------------------                            --------------------------
 ! Name  Definition              Value          Derivative Info.                !
 --------------------------------------------------------------------------------
 ! R1    R(1,4)                  1.3634         calculate D2E/DX2 analytically  !
 ! R2    R(1,10)                 0.9841         calculate D2E/DX2 analytically  !
 ! R3    R(2,6)                  1.3821         calculate D2E/DX2 analytically  !
 ! R4    R(2,11)                 1.0215         calculate D2E/DX2 analytically  !
 ! R5    R(3,6)                  1.2672         calculate D2E/DX2 analytically  !
 ! R6    R(4,5)                  1.4583         calculate D2E/DX2 analytically  !
 ! R7    R(4,9)                  1.0502         calculate D2E/DX2 analytically  !
 ! R8    R(5,6)                  1.483          calculate D2E/DX2 analytically  !
 ! R9    R(5,7)                  1.1081         calculate D2E/DX2 analytically  !
 ! R10   R(5,8)                  1.1193         calculate D2E/DX2 analytically  !
 ! A1    A(4,1,10)             105.1835         calculate D2E/DX2 analytically  !
 ! A2    A(6,2,11)             106.0877         calculate D2E/DX2 analytically  !
 ! A3    A(1,4,5)              107.3849         calculate D2E/DX2 analytically  !
 ! A4    A(1,4,9)              103.3941         calculate D2E/DX2 analytically  !
 ! A5    A(5,4,9)              102.6579         calculate D2E/DX2 analytically  !
 ! A6    A(4,5,6)              112.2321         calculate D2E/DX2 analytically  !
 ! A7    A(4,5,7)              109.0177         calculate D2E/DX2 analytically  !
 ! A8    A(4,5,8)              111.1901         calculate D2E/DX2 analytically  !
 ! A9    A(6,5,7)              109.7261         calculate D2E/DX2 analytically  !
 ! A10   A(6,5,8)              108.9444         calculate D2E/DX2 analytically  !
 ! A11   A(7,5,8)              105.5076         calculate D2E/DX2 analytically  !
 ! A12   A(2,6,3)              119.6462         calculate D2E/DX2 analytically  !
 ! A13   A(2,6,5)              114.9944         calculate D2E/DX2 analytically  !
 ! A14   A(3,6,5)              125.3541         calculate D2E/DX2 analytically  !
 ! D1    D(10,1,4,5)          -131.7637         calculate D2E/DX2 analytically  !
 ! D2    D(10,1,4,9)           120.1414         calculate D2E/DX2 analytically  !
 ! D3    D(11,2,6,3)             0.6658         calculate D2E/DX2 analytically  !
 ! D4    D(11,2,6,5)          -178.5392         calculate D2E/DX2 analytically  !
 ! D5    D(1,4,5,6)           -160.1786         calculate D2E/DX2 analytically  !
 ! D6    D(1,4,5,7)             78.0477         calculate D2E/DX2 analytically  !
 ! D7    D(1,4,5,8)            -37.8606         calculate D2E/DX2 analytically  !
 ! D8    D(9,4,5,6)            -51.5702         calculate D2E/DX2 analytically  !
 ! D9    D(9,4,5,7)           -173.3439         calculate D2E/DX2 analytically  !
 ! D10   D(9,4,5,8)             70.7478         calculate D2E/DX2 analytically  !
 ! D11   D(4,5,6,2)           -178.2801         calculate D2E/DX2 analytically  !
 ! D12   D(4,5,6,3)              2.567          calculate D2E/DX2 analytically  !
 ! D13   D(7,5,6,2)            -56.9117         calculate D2E/DX2 analytically  !
 ! D14   D(7,5,6,3)            123.9354         calculate D2E/DX2 analytically  !
 ! D15   D(8,5,6,2)             58.1362         calculate D2E/DX2 analytically  !
 ! D16   D(8,5,6,3)           -121.0166         calculate D2E/DX2 analytically  !
 --------------------------------------------------------------------------------
 Trust Radius=3.00D-01 FncErr=1.00D-07 GrdErr=1.00D-06 EigMax=2.50D+02 EigMin=1.00D-04
 Number of steps in this run=    100 maximum allowed number of steps=    100.
 GradGradGradGradGradGradGradGradGradGradGradGradGradGradGradGradGradGrad

 Leave Link  103 at Tue Apr  9 00:03:42 2019, MaxMem=   671088640 cpu:               0.2 elap:               0.0
 (Enter /shared/centos7/gaussian/g16/l202.exe)
                          Input orientation:                          
 ---------------------------------------------------------------------
 Center     Atomic      Atomic             Coordinates (Angstroms)
 Number     Number       Type             X           Y           Z
 ---------------------------------------------------------------------
      1          8           0       -5.117448   -6.748464   -1.991694
      2          8           0       -1.005012   -8.476868   -3.375688
      3          8           0       -2.708889   -9.923041   -2.871681
      4          7           0       -4.351619   -7.875156   -1.937820
      5          6           0       -3.036378   -7.533730   -2.467105
      6          6           0       -2.276657   -8.732134   -2.898224
      7          1           0       -2.464937   -6.988162   -1.690070
      8          1           0       -3.118883   -6.825879   -3.330198
      9          1           0       -4.754863   -8.479885   -2.695888
     10          1           0       -5.533036   -6.676540   -1.102566
     11          1           0       -0.620023   -9.381398   -3.653310
 ---------------------------------------------------------------------
                    Distance matrix (angstroms):
                    1          2          3          4          5
     1  O    0.000000
     2  O    4.670647   0.000000
     3  O    4.080866   2.290990   0.000000
     4  N    1.363389   3.691788   2.786484   0.000000
     5  C    2.274534   2.416916   2.445351   1.458277   0.000000
     6  C    3.581457   1.382105   1.267197   2.441773   1.482974
     7  H    2.680344   2.681219   3.173205   2.099455   1.108140
     8  H    2.406625   2.682589   3.157649   2.135260   1.119280
     9  H    1.903989   3.810973   2.509903   1.050223   1.975029
    10  H    0.984091   5.376920   4.652456   1.878850   2.971539
    11  H    5.469930   1.021502   2.295143   4.374526   3.264925
                    6          7          8          9         10
     6  C    0.000000
     7  H    2.129912   0.000000
     8  H    2.128322   1.773133   0.000000
     9  H    2.499215   2.912159   2.411330   0.000000
    10  H    4.248984   3.139348   3.288279   2.529087   0.000000
    11  H    1.932908   3.603554   3.588786   4.338926   6.161189
                   11
    11  H    0.000000
 Stoichiometry    C2H5NO3
 Framework group  C1[X(C2H5NO3)]
 Deg. of freedom    27
 Full point group                 C1      NOp   1
 Largest Abelian subgroup         C1      NOp   1
 Largest concise Abelian subgroup C1      NOp   1
                         Standard orientation:                         
 ---------------------------------------------------------------------
 Center     Atomic      Atomic             Coordinates (Angstroms)
 Number     Number       Type             X           Y           Z
 ---------------------------------------------------------------------
      1          8           0        2.512037   -0.214197   -0.192292
      2          8           0       -2.115618   -0.828850   -0.044124
      3          8           0       -1.272438    1.300951   -0.003752
      4          7           0        1.357384    0.400765    0.191673
      5          6           0        0.285024   -0.582030    0.088093
      6          6           0       -1.053246    0.053042    0.017880
      7          1           0        0.331514   -1.260748    0.962824
      8          1           0        0.423119   -1.238604   -0.807803
      9          1           0        1.151184    1.051360   -0.606560
     10          1           0        3.167140    0.007226    0.507885
     11          1           0       -2.957167   -0.253890   -0.112542
 ---------------------------------------------------------------------
 Rotational constants (GHZ):           9.5541280           1.9254729           1.6383574
 Leave Link  202 at Tue Apr  9 00:03:42 2019, MaxMem=   671088640 cpu:               0.3 elap:               0.0
 (Enter /shared/centos7/gaussian/g16/l301.exe)
 Standard basis: 6-311+G(2df,2p) (5D, 7F)
 Ernie: Thresh=  0.10000D-02 Tol=  0.10000D-05 Strict=F.
 There are   279 symmetry adapted cartesian basis functions of A   symmetry.
 There are   249 symmetry adapted basis functions of A   symmetry.
   249 basis functions,   367 primitive gaussians,   279 cartesian basis functions
    24 alpha electrons       24 beta electrons
       nuclear repulsion energy       240.0301416592 Hartrees.
 IExCor= 4336 DFT=T Ex+Corr=M062X ExCW=0 ScaHFX=  0.540000
 ScaDFX=  1.000000  1.000000  1.000000  1.000000 ScalE2=  1.000000  1.000000
 IRadAn=      5 IRanWt=     -1 IRanGd=            0 ICorTp=0 IEmpDi=  4
 NAtoms=   11 NActive=   11 NUniq=   11 SFac= 1.00D+00 NAtFMM=   60 NAOKFM=F Big=F
 Integral buffers will be    131072 words long.
 Raffenetti 2 integral format.
 Two-electron integral symmetry is turned on.
 Leave Link  301 at Tue Apr  9 00:03:42 2019, MaxMem=   671088640 cpu:               1.1 elap:               0.1
 (Enter /shared/centos7/gaussian/g16/l302.exe)
 NPDir=0 NMtPBC=     1 NCelOv=     1 NCel=       1 NClECP=     1 NCelD=      1
         NCelK=      1 NCelE2=     1 NClLst=     1 CellRange=     0.0.
 One-electron integrals computed using PRISM.
 One-electron integral symmetry used in STVInt
 NBasis=   249 RedAO= T EigKep=  4.48D-05  NBF=   249
 NBsUse=   249 1.00D-06 EigRej= -1.00D+00 NBFU=   249
 Precomputing XC quadrature grid using
 IXCGrd= 4 IRadAn=           5 IRanWt=          -1 IRanGd=           0 AccXCQ= 0.00D+00.
 Generated NRdTot=       0 NPtTot=           0 NUsed=           0 NTot=          32
 NSgBfM=   279   279   279   279   279 MxSgAt=    11 MxSgA2=    11.
 Leave Link  302 at Tue Apr  9 00:03:42 2019, MaxMem=   671088640 cpu:               6.6 elap:               0.4
 (Enter /shared/centos7/gaussian/g16/l303.exe)
 DipDrv:  MaxL=1.
 Leave Link  303 at Tue Apr  9 00:03:43 2019, MaxMem=   671088640 cpu:               0.6 elap:               0.2
 (Enter /shared/centos7/gaussian/g16/l401.exe)
 ExpMin= 4.38D-02 ExpMax= 8.59D+03 ExpMxC= 1.30D+03 IAcc=3 IRadAn=         5 AccDes= 0.00D+00
 Harris functional with IExCor= 1009 and IRadAn=       5 diagonalized for initial guess.
 HarFok:  IExCor= 1009 AccDes= 0.00D+00 IRadAn=         5 IDoV= 1 UseB2=F ITyADJ=14
 ICtDFT=  3500011 ScaDFX=  1.000000  1.000000  1.000000  1.000000
 FoFCou: FMM=F IPFlag=           0 FMFlag=      100000 FMFlg1=           0
         NFxFlg=           0 DoJE=T BraDBF=F KetDBF=T FulRan=T
         wScrn=  0.000000 ICntrl=       500 IOpCl=  0 I1Cent=   200000004 NGrid=           0
         NMat0=    1 NMatS0=      1 NMatT0=    0 NMatD0=    1 NMtDS0=    0 NMtDT0=    0
 Petite list used in FoFCou.
 Harris En= -359.394099008474    
 JPrj=0 DoOrth=F DoCkMO=F.
 Leave Link  401 at Tue Apr  9 00:03:44 2019, MaxMem=   671088640 cpu:              17.3 elap:               0.9
 (Enter /shared/centos7/gaussian/g16/l502.exe)
 Keep R1 ints in memory in canonical form, NReq=506568544.
 FoFCou: FMM=F IPFlag=           0 FMFlag=           0 FMFlg1=           0
         NFxFlg=           0 DoJE=F BraDBF=F KetDBF=F FulRan=T
         wScrn=  0.000000 ICntrl=       600 IOpCl=  0 I1Cent=           0 NGrid=           0
         NMat0=    1 NMatS0=  31125 NMatT0=    0 NMatD0=    1 NMtDS0=    0 NMtDT0=    0
 Symmetry not used in FoFCou.
 Two-electron integral symmetry not used.
 Closed shell SCF:
 Using DIIS extrapolation, IDIIS=  1040.
 NGot=   671088640 LenX=   186526494 LenY=   186448212
 Requested convergence on RMS density matrix=1.00D-08 within 128 cycles.
 Requested convergence on MAX density matrix=1.00D-06.
 Requested convergence on             energy=1.00D-06.
 No special actions if energy rises.

 Cycle   1  Pass 1  IDiag  1:
 E= -359.424113799539    
 DIIS: error= 1.86D-02 at cycle   1 NSaved=   1.
 NSaved= 1 IEnMin= 1 EnMin= -359.424113799539     IErMin= 1 ErrMin= 1.86D-02
 ErrMax= 1.86D-02  0.00D+00 EMaxC= 1.00D-01 BMatC= 2.61D-01 BMatP= 2.61D-01
 IDIUse=3 WtCom= 8.14D-01 WtEn= 1.86D-01
 Coeff-Com:  0.100D+01
 Coeff-En:   0.100D+01
 Coeff:      0.100D+01
 Gap=     0.311 Goal=   None    Shift=    0.000
 GapD=    0.311 DampG=1.000 DampE=0.500 DampFc=0.5000 IDamp=-1.
 Damping current iteration by 5.00D-01
 RMSDP=2.85D-03 MaxDP=8.62D-02              OVMax= 1.93D-01

 Cycle   2  Pass 1  IDiag  1:
 E= -359.485959777836     Delta-E=       -0.061845978296 Rises=F Damp=T
 DIIS: error= 8.46D-03 at cycle   2 NSaved=   2.
 NSaved= 2 IEnMin= 2 EnMin= -359.485959777836     IErMin= 2 ErrMin= 8.46D-03
 ErrMax= 8.46D-03  0.00D+00 EMaxC= 1.00D-01 BMatC= 2.70D-02 BMatP= 2.61D-01
 IDIUse=3 WtCom= 9.15D-01 WtEn= 8.46D-02
 Coeff-Com:  0.386D-01 0.961D+00
 Coeff-En:   0.154D+00 0.846D+00
 Coeff:      0.483D-01 0.952D+00
 Gap=     0.389 Goal=   None    Shift=    0.000
 RMSDP=8.76D-04 MaxDP=4.51D-02 DE=-6.18D-02 OVMax= 1.34D-01

 Cycle   3  Pass 1  IDiag  1:
 E= -359.562194818989     Delta-E=       -0.076235041153 Rises=F Damp=F
 DIIS: error= 7.38D-03 at cycle   3 NSaved=   3.
 NSaved= 3 IEnMin= 3 EnMin= -359.562194818989     IErMin= 3 ErrMin= 7.38D-03
 ErrMax= 7.38D-03  0.00D+00 EMaxC= 1.00D-01 BMatC= 1.65D-02 BMatP= 2.70D-02
 IDIUse=3 WtCom= 9.26D-01 WtEn= 7.38D-02
 Coeff-Com: -0.741D-01 0.446D+00 0.628D+00
 Coeff-En:   0.000D+00 0.000D+00 0.100D+01
 Coeff:     -0.686D-01 0.413D+00 0.656D+00
 Gap=     0.339 Goal=   None    Shift=    0.000
 RMSDP=4.33D-04 MaxDP=1.60D-02 DE=-7.62D-02 OVMax= 5.75D-02

 Cycle   4  Pass 1  IDiag  1:
 E= -359.571653098707     Delta-E=       -0.009458279718 Rises=F Damp=F
 DIIS: error= 2.93D-03 at cycle   4 NSaved=   4.
 NSaved= 4 IEnMin= 4 EnMin= -359.571653098707     IErMin= 4 ErrMin= 2.93D-03
 ErrMax= 2.93D-03  0.00D+00 EMaxC= 1.00D-01 BMatC= 3.96D-03 BMatP= 1.65D-02
 IDIUse=3 WtCom= 9.71D-01 WtEn= 2.93D-02
 Coeff-Com: -0.391D-01 0.104D+00 0.373D+00 0.562D+00
 Coeff-En:   0.000D+00 0.000D+00 0.194D+00 0.806D+00
 Coeff:     -0.379D-01 0.100D+00 0.368D+00 0.569D+00
 Gap=     0.335 Goal=   None    Shift=    0.000
 RMSDP=1.59D-04 MaxDP=6.62D-03 DE=-9.46D-03 OVMax= 1.67D-02

 Cycle   5  Pass 1  IDiag  1:
 E= -359.574408925221     Delta-E=       -0.002755826514 Rises=F Damp=F
 DIIS: error= 4.41D-04 at cycle   5 NSaved=   5.
 NSaved= 5 IEnMin= 5 EnMin= -359.574408925221     IErMin= 5 ErrMin= 4.41D-04
 ErrMax= 4.41D-04  0.00D+00 EMaxC= 1.00D-01 BMatC= 1.18D-04 BMatP= 3.96D-03
 IDIUse=3 WtCom= 9.96D-01 WtEn= 4.41D-03
 Coeff-Com: -0.128D-01 0.246D-01 0.139D+00 0.263D+00 0.586D+00
 Coeff-En:   0.000D+00 0.000D+00 0.000D+00 0.000D+00 0.100D+01
 Coeff:     -0.128D-01 0.245D-01 0.139D+00 0.262D+00 0.588D+00
 Gap=     0.333 Goal=   None    Shift=    0.000
 RMSDP=3.11D-05 MaxDP=1.26D-03 DE=-2.76D-03 OVMax= 3.29D-03

 Cycle   6  Pass 1  IDiag  1:
 E= -359.574496465883     Delta-E=       -0.000087540662 Rises=F Damp=F
 DIIS: error= 1.22D-04 at cycle   6 NSaved=   6.
 NSaved= 6 IEnMin= 6 EnMin= -359.574496465883     IErMin= 6 ErrMin= 1.22D-04
 ErrMax= 1.22D-04  0.00D+00 EMaxC= 1.00D-01 BMatC= 7.29D-06 BMatP= 1.18D-04
 IDIUse=3 WtCom= 9.99D-01 WtEn= 1.22D-03
 Coeff-Com: -0.361D-03-0.220D-02 0.116D-01 0.312D-01 0.216D+00 0.743D+00
 Coeff-En:   0.000D+00 0.000D+00 0.000D+00 0.000D+00 0.000D+00 0.100D+01
 Coeff:     -0.361D-03-0.220D-02 0.116D-01 0.311D-01 0.216D+00 0.744D+00
 Gap=     0.334 Goal=   None    Shift=    0.000
 RMSDP=1.12D-05 MaxDP=3.76D-04 DE=-8.75D-05 OVMax= 8.45D-04

 Cycle   7  Pass 1  IDiag  1:
 E= -359.574503729421     Delta-E=       -0.000007263538 Rises=F Damp=F
 DIIS: error= 2.74D-05 at cycle   7 NSaved=   7.
 NSaved= 7 IEnMin= 7 EnMin= -359.574503729421     IErMin= 7 ErrMin= 2.74D-05
 ErrMax= 2.74D-05  0.00D+00 EMaxC= 1.00D-01 BMatC= 4.86D-07 BMatP= 7.29D-06
 IDIUse=1 WtCom= 1.00D+00 WtEn= 0.00D+00
 Coeff-Com:  0.160D-02-0.345D-02-0.123D-01-0.258D-01-0.287D-01 0.728D-01
 Coeff-Com:  0.996D+00
 Coeff:      0.160D-02-0.345D-02-0.123D-01-0.258D-01-0.287D-01 0.728D-01
 Coeff:      0.996D+00
 Gap=     0.333 Goal=   None    Shift=    0.000
 RMSDP=5.32D-06 MaxDP=1.57D-04 DE=-7.26D-06 OVMax= 5.02D-04

 Cycle   8  Pass 1  IDiag  1:
 E= -359.574504516476     Delta-E=       -0.000000787055 Rises=F Damp=F
 DIIS: error= 1.55D-05 at cycle   8 NSaved=   8.
 NSaved= 8 IEnMin= 8 EnMin= -359.574504516476     IErMin= 8 ErrMin= 1.55D-05
 ErrMax= 1.55D-05  0.00D+00 EMaxC= 1.00D-01 BMatC= 1.16D-07 BMatP= 4.86D-07
 IDIUse=1 WtCom= 1.00D+00 WtEn= 0.00D+00
 Coeff-Com:  0.687D-03-0.122D-02-0.528D-02-0.130D-01-0.303D-01-0.453D-01
 Coeff-Com:  0.405D+00 0.690D+00
 Coeff:      0.687D-03-0.122D-02-0.528D-02-0.130D-01-0.303D-01-0.453D-01
 Coeff:      0.405D+00 0.690D+00
 Gap=     0.334 Goal=   None    Shift=    0.000
 RMSDP=1.37D-06 MaxDP=5.15D-05 DE=-7.87D-07 OVMax= 1.35D-04

 Cycle   9  Pass 1  IDiag  1:
 E= -359.574504637965     Delta-E=       -0.000000121488 Rises=F Damp=F
 DIIS: error= 3.80D-06 at cycle   9 NSaved=   9.
 NSaved= 9 IEnMin= 9 EnMin= -359.574504637965     IErMin= 9 ErrMin= 3.80D-06
 ErrMax= 3.80D-06  0.00D+00 EMaxC= 1.00D-01 BMatC= 9.34D-09 BMatP= 1.16D-07
 IDIUse=1 WtCom= 1.00D+00 WtEn= 0.00D+00
 Coeff-Com: -0.207D-04 0.934D-04 0.433D-03-0.860D-04-0.349D-02-0.211D-01
 Coeff-Com: -0.330D-01 0.159D+00 0.898D+00
 Coeff:     -0.207D-04 0.934D-04 0.433D-03-0.860D-04-0.349D-02-0.211D-01
 Coeff:     -0.330D-01 0.159D+00 0.898D+00
 Gap=     0.334 Goal=   None    Shift=    0.000
 RMSDP=6.34D-07 MaxDP=1.96D-05 DE=-1.21D-07 OVMax= 5.82D-05

 Cycle  10  Pass 1  IDiag  1:
 E= -359.574504649537     Delta-E=       -0.000000011572 Rises=F Damp=F
 DIIS: error= 1.55D-06 at cycle  10 NSaved=  10.
 NSaved=10 IEnMin=10 EnMin= -359.574504649537     IErMin=10 ErrMin= 1.55D-06
 ErrMax= 1.55D-06  0.00D+00 EMaxC= 1.00D-01 BMatC= 1.69D-09 BMatP= 9.34D-09
 IDIUse=1 WtCom= 1.00D+00 WtEn= 0.00D+00
 Coeff-Com: -0.735D-04 0.156D-03 0.736D-03 0.123D-02 0.166D-02-0.367D-02
 Coeff-Com: -0.545D-01-0.115D-01 0.379D+00 0.687D+00
 Coeff:     -0.735D-04 0.156D-03 0.736D-03 0.123D-02 0.166D-02-0.367D-02
 Coeff:     -0.545D-01-0.115D-01 0.379D+00 0.687D+00
 Gap=     0.334 Goal=   None    Shift=    0.000
 RMSDP=1.69D-07 MaxDP=4.31D-06 DE=-1.16D-08 OVMax= 1.44D-05

 Cycle  11  Pass 1  IDiag  1:
 E= -359.574504651046     Delta-E=       -0.000000001509 Rises=F Damp=F
 DIIS: error= 4.21D-07 at cycle  11 NSaved=  11.
 NSaved=11 IEnMin=11 EnMin= -359.574504651046     IErMin=11 ErrMin= 4.21D-07
 ErrMax= 4.21D-07  0.00D+00 EMaxC= 1.00D-01 BMatC= 1.24D-10 BMatP= 1.69D-09
 IDIUse=1 WtCom= 1.00D+00 WtEn= 0.00D+00
 Coeff-Com: -0.223D-04 0.428D-04 0.231D-03 0.438D-03 0.931D-03 0.802D-03
 Coeff-Com: -0.170D-01-0.218D-01 0.509D-01 0.243D+00 0.742D+00
 Coeff:     -0.223D-04 0.428D-04 0.231D-03 0.438D-03 0.931D-03 0.802D-03
 Coeff:     -0.170D-01-0.218D-01 0.509D-01 0.243D+00 0.742D+00
 Gap=     0.334 Goal=   None    Shift=    0.000
 RMSDP=4.63D-08 MaxDP=1.64D-06 DE=-1.51D-09 OVMax= 3.67D-06

 Cycle  12  Pass 1  IDiag  1:
 E= -359.574504651143     Delta-E=       -0.000000000097 Rises=F Damp=F
 DIIS: error= 1.39D-07 at cycle  12 NSaved=  12.
 NSaved=12 IEnMin=12 EnMin= -359.574504651143     IErMin=12 ErrMin= 1.39D-07
 ErrMax= 1.39D-07  0.00D+00 EMaxC= 1.00D-01 BMatC= 1.31D-11 BMatP= 1.24D-10
 IDIUse=1 WtCom= 1.00D+00 WtEn= 0.00D+00
 Coeff-Com: -0.170D-05 0.227D-05 0.296D-04 0.627D-04 0.226D-03 0.624D-03
 Coeff-Com: -0.167D-02-0.762D-02-0.159D-01 0.290D-01 0.280D+00 0.715D+00
 Coeff:     -0.170D-05 0.227D-05 0.296D-04 0.627D-04 0.226D-03 0.624D-03
 Coeff:     -0.167D-02-0.762D-02-0.159D-01 0.290D-01 0.280D+00 0.715D+00
 Gap=     0.334 Goal=   None    Shift=    0.000
 RMSDP=1.33D-08 MaxDP=6.01D-07 DE=-9.72D-11 OVMax= 7.86D-07

 Cycle  13  Pass 1  IDiag  1:
 E= -359.574504651153     Delta-E=       -0.000000000010 Rises=F Damp=F
 DIIS: error= 3.84D-08 at cycle  13 NSaved=  13.
 NSaved=13 IEnMin=13 EnMin= -359.574504651153     IErMin=13 ErrMin= 3.84D-08
 ErrMax= 3.84D-08  0.00D+00 EMaxC= 1.00D-01 BMatC= 1.17D-12 BMatP= 1.31D-11
 IDIUse=1 WtCom= 1.00D+00 WtEn= 0.00D+00
 Coeff-Com:  0.207D-05-0.419D-05-0.144D-04-0.293D-04-0.259D-04 0.821D-04
 Coeff-Com:  0.138D-02 0.495D-04-0.108D-01-0.182D-01 0.112D-01 0.251D+00
 Coeff-Com:  0.766D+00
 Coeff:      0.207D-05-0.419D-05-0.144D-04-0.293D-04-0.259D-04 0.821D-04
 Coeff:      0.138D-02 0.495D-04-0.108D-01-0.182D-01 0.112D-01 0.251D+00
 Coeff:      0.766D+00
 Gap=     0.334 Goal=   None    Shift=    0.000
 RMSDP=4.41D-09 MaxDP=1.22D-07 DE=-9.78D-12 OVMax= 2.54D-07

 SCF Done:  E(RM062X) =  -359.574504651     A.U. after   13 cycles
            NFock= 13  Conv=0.44D-08     -V/T= 2.0043
 KE= 3.580228947810D+02 PE=-1.325190450618D+03 EE= 3.675629095262D+02
 Leave Link  502 at Tue Apr  9 00:04:10 2019, MaxMem=   671088640 cpu:             325.0 elap:              26.0
 (Enter /shared/centos7/gaussian/g16/l801.exe)
 DoSCS=F DFT=T ScalE2(SS,OS)=  1.000000  1.000000
 Range of M.O.s used for correlation:     1   249
 NBasis=   249 NAE=    24 NBE=    24 NFC=     0 NFV=     0
 NROrb=    249 NOA=    24 NOB=    24 NVA=   225 NVB=   225

 **** Warning!!: The largest alpha MO coefficient is  0.40788673D+02

 Leave Link  801 at Tue Apr  9 00:04:10 2019, MaxMem=   671088640 cpu:               0.3 elap:               0.0
 (Enter /shared/centos7/gaussian/g16/l1101.exe)
 Using compressed storage, NAtomX=    11.
 Will process     12 centers per pass.
 Leave Link 1101 at Tue Apr  9 00:04:10 2019, MaxMem=   671088640 cpu:               6.0 elap:               0.3
 (Enter /shared/centos7/gaussian/g16/l1102.exe)
 Symmetrizing basis deriv contribution to polar:
 IMax=3 JMax=2 DiffMx= 0.00D+00
 Leave Link 1102 at Tue Apr  9 00:04:10 2019, MaxMem=   671088640 cpu:               0.5 elap:               0.1
 (Enter /shared/centos7/gaussian/g16/l1110.exe)
 Forming Gx(P) for the SCF density, NAtomX=    11.
 Integral derivatives from FoFJK, PRISM(SPDF).
 Do as many integral derivatives as possible in FoFJK.
 G2DrvN: MDV=     671087712.
 G2DrvN: will do    12 centers at a time, making    1 passes.
 Calling FoFCou, ICntrl=  3107 FMM=F I1Cent=   0 AccDes= 0.00D+00.
 FoFJK:  IHMeth= 1 ICntrl=    3107 DoSepK=F KAlg= 0 I1Cent=           0 FoldK=F
 IRaf=         0 NMat=       1 IRICut=       1 DoRegI=T DoRafI=F ISym2E= 0 IDoP0=0 IntGTp=1.
 FoFCou: FMM=F IPFlag=           0 FMFlag=      100000 FMFlg1=           0
         NFxFlg=           0 DoJE=F BraDBF=F KetDBF=F FulRan=T
         wScrn=  0.000000 ICntrl=      3107 IOpCl=  0 I1Cent=           0 NGrid=           0
         NMat0=    1 NMatS0=      1 NMatT0=    0 NMatD0=    1 NMtDS0=    0 NMtDT0=    0
 Symmetry not used in FoFCou.
 End of G2Drv F.D. properties file   721 does not exist.
 End of G2Drv F.D. properties file   722 does not exist.
 End of G2Drv F.D. properties file   788 does not exist.
 Leave Link 1110 at Tue Apr  9 00:04:42 2019, MaxMem=   671088640 cpu:             646.2 elap:              32.3
 (Enter /shared/centos7/gaussian/g16/l1002.exe)
 Minotr:  Closed shell wavefunction.
          IDoAtm=11111111111
          Direct CPHF calculation.
          Differentiating once with respect to nuclear coordinates.
          Requested convergence is 1.0D-08 RMS, and 1.0D-07 maximum.
          Secondary convergence is 1.0D-12 RMS, and 1.0D-12 maximum.
          NewPWx=T KeepS1=F KeepF1=F KeepIn=T MapXYZ=F SortEE=F KeepMc=T.
         3349 words used for storage of precomputed grid.
 Keep R1 ints in memory in canonical form, NReq=506509632.
 FoFCou: FMM=F IPFlag=           0 FMFlag=           0 FMFlg1=           0
         NFxFlg=           0 DoJE=F BraDBF=F KetDBF=F FulRan=T
         wScrn=  0.000000 ICntrl=       600 IOpCl=  0 I1Cent=           0 NGrid=           0
         NMat0=    1 NMatS0=  31125 NMatT0=    0 NMatD0=    1 NMtDS0=    0 NMtDT0=    0
 Symmetry not used in FoFCou.
 Two-electron integral symmetry not used.
          MDV=     671088640 using IRadAn=       1.
          Solving linear equations simultaneously, MaxMat=       0.
          There are    36 degrees of freedom in the 1st order CPHF.  IDoFFX=6 NUNeed=     0.
     30 vectors produced by pass  0 Test12= 1.50D-14 2.78D-09 XBig12= 6.31D-02 9.88D-02.
 AX will form    30 AO Fock derivatives at one time.
     30 vectors produced by pass  1 Test12= 1.50D-14 2.78D-09 XBig12= 1.28D-02 5.74D-02.
     30 vectors produced by pass  2 Test12= 1.50D-14 2.78D-09 XBig12= 4.82D-04 5.13D-03.
     30 vectors produced by pass  3 Test12= 1.50D-14 2.78D-09 XBig12= 5.66D-06 4.19D-04.
     30 vectors produced by pass  4 Test12= 1.50D-14 2.78D-09 XBig12= 4.86D-08 2.67D-05.
     30 vectors produced by pass  5 Test12= 1.50D-14 2.78D-09 XBig12= 3.20D-10 3.25D-06.
     28 vectors produced by pass  6 Test12= 1.50D-14 2.78D-09 XBig12= 1.83D-12 1.74D-07.
      8 vectors produced by pass  7 Test12= 1.50D-14 2.78D-09 XBig12= 8.03D-15 1.11D-08.
 InvSVY:  IOpt=1 It=  1 EMax= 1.55D-15
 Solved reduced A of dimension   216 with    30 vectors.
 End of Minotr F.D. properties file   721 does not exist.
 End of Minotr F.D. properties file   722 does not exist.
 End of Minotr F.D. properties file   788 does not exist.
 Leave Link 1002 at Tue Apr  9 00:05:20 2019, MaxMem=   671088640 cpu:             746.2 elap:              37.3
 (Enter /shared/centos7/gaussian/g16/l601.exe)
 Copying SCF densities to generalized density rwf, IOpCl= 0 IROHF=0.

 **********************************************************************

            Population analysis using the SCF density.

 **********************************************************************

 Orbital symmetries:
       Occupied  (A) (A) (A) (A) (A) (A) (A) (A) (A) (A) (A) (A)
                 (A) (A) (A) (A) (A) (A) (A) (A) (A) (A) (A) (A)
       Virtual   (A) (A) (A) (A) (A) (A) (A) (A) (A) (A) (A) (A)
                 (A) (A) (A) (A) (A) (A) (A) (A) (A) (A) (A) (A)
                 (A) (A) (A) (A) (A) (A) (A) (A) (A) (A) (A) (A)
                 (A) (A) (A) (A) (A) (A) (A) (A) (A) (A) (A) (A)
                 (A) (A) (A) (A) (A) (A) (A) (A) (A) (A) (A) (A)
                 (A) (A) (A) (A) (A) (A) (A) (A) (A) (A) (A) (A)
                 (A) (A) (A) (A) (A) (A) (A) (A) (A) (A) (A) (A)
                 (A) (A) (A) (A) (A) (A) (A) (A) (A) (A) (A) (A)
                 (A) (A) (A) (A) (A) (A) (A) (A) (A) (A) (A) (A)
                 (A) (A) (A) (A) (A) (A) (A) (A) (A) (A) (A) (A)
                 (A) (A) (A) (A) (A) (A) (A) (A) (A) (A) (A) (A)
                 (A) (A) (A) (A) (A) (A) (A) (A) (A) (A) (A) (A)
                 (A) (A) (A) (A) (A) (A) (A) (A) (A) (A) (A) (A)
                 (A) (A) (A) (A) (A) (A) (A) (A) (A) (A) (A) (A)
                 (A) (A) (A) (A) (A) (A) (A) (A) (A) (A) (A) (A)
                 (A) (A) (A) (A) (A) (A) (A) (A) (A) (A) (A) (A)
                 (A) (A) (A) (A) (A) (A) (A) (A) (A) (A) (A) (A)
                 (A) (A) (A) (A) (A) (A) (A) (A) (A) (A) (A) (A)
                 (A) (A) (A) (A) (A) (A) (A) (A) (A)
 The electronic state is 1-A.
 Alpha  occ. eigenvalues --  -19.68950 -19.66455 -19.63260 -14.80344 -10.70404
 Alpha  occ. eigenvalues --  -10.59766  -1.22898  -1.22216  -1.12633  -0.96194
 Alpha  occ. eigenvalues --   -0.81963  -0.68957  -0.63071  -0.59822  -0.58516
 Alpha  occ. eigenvalues --   -0.55402  -0.53776  -0.53554  -0.47855  -0.47084
 Alpha  occ. eigenvalues --   -0.40066  -0.38903  -0.36829  -0.32800
 Alpha virt. eigenvalues --    0.00556   0.01337   0.02376   0.03781   0.04530
 Alpha virt. eigenvalues --    0.05914   0.07934   0.07991   0.10539   0.11465
 Alpha virt. eigenvalues --    0.11933   0.13677   0.15713   0.17872   0.18687
 Alpha virt. eigenvalues --    0.20730   0.21150   0.21211   0.23426   0.24014
 Alpha virt. eigenvalues --    0.24275   0.25157   0.26229   0.26547   0.28041
 Alpha virt. eigenvalues --    0.28469   0.29785   0.32024   0.33083   0.34211
 Alpha virt. eigenvalues --    0.35133   0.36772   0.39300   0.40338   0.46119
 Alpha virt. eigenvalues --    0.46957   0.51218   0.53140   0.53878   0.55545
 Alpha virt. eigenvalues --    0.57350   0.58249   0.61209   0.63187   0.63238
 Alpha virt. eigenvalues --    0.66143   0.68106   0.69704   0.70518   0.72515
 Alpha virt. eigenvalues --    0.75539   0.77812   0.80217   0.83993   0.88423
 Alpha virt. eigenvalues --    0.89129   0.93000   0.96166   0.98435   0.99931
 Alpha virt. eigenvalues --    1.00688   1.02856   1.05520   1.06380   1.09546
 Alpha virt. eigenvalues --    1.10689   1.13459   1.15310   1.16873   1.19005
 Alpha virt. eigenvalues --    1.20372   1.21675   1.25376   1.27054   1.28081
 Alpha virt. eigenvalues --    1.29807   1.32902   1.35215   1.36464   1.41558
 Alpha virt. eigenvalues --    1.42631   1.45085   1.47787   1.49107   1.52877
 Alpha virt. eigenvalues --    1.54948   1.59560   1.60072   1.63307   1.64550
 Alpha virt. eigenvalues --    1.68158   1.70935   1.75054   1.76604   1.78318
 Alpha virt. eigenvalues --    1.82232   1.93215   1.96982   2.03402   2.09397
 Alpha virt. eigenvalues --    2.11994   2.13714   2.16087   2.29015   2.30583
 Alpha virt. eigenvalues --    2.32061   2.39787   2.47760   2.52920   2.59208
 Alpha virt. eigenvalues --    2.62664   2.63794   2.74263   2.76623   2.78409
 Alpha virt. eigenvalues --    2.82753   2.88826   2.99579   3.02661   3.06286
 Alpha virt. eigenvalues --    3.07387   3.10427   3.13713   3.18664   3.22958
 Alpha virt. eigenvalues --    3.26721   3.33294   3.37704   3.38005   3.40238
 Alpha virt. eigenvalues --    3.42814   3.46296   3.48970   3.52036   3.54402
 Alpha virt. eigenvalues --    3.56374   3.57016   3.66303   3.67135   3.70163
 Alpha virt. eigenvalues --    3.72956   3.78394   3.82075   3.84140   3.88388
 Alpha virt. eigenvalues --    3.90281   3.95698   3.98127   3.99217   4.02425
 Alpha virt. eigenvalues --    4.06445   4.11863   4.12519   4.16958   4.19412
 Alpha virt. eigenvalues --    4.23423   4.32216   4.37242   4.39304   4.48208
 Alpha virt. eigenvalues --    4.50080   4.58760   4.65292   4.74734   4.83433
 Alpha virt. eigenvalues --    4.95064   5.05336   5.06725   5.07119   5.08533
 Alpha virt. eigenvalues --    5.10212   5.13239   5.16510   5.16892   5.19014
 Alpha virt. eigenvalues --    5.21188   5.21882   5.25623   5.27942   5.34522
 Alpha virt. eigenvalues --    5.35336   5.37097   5.40600   5.42865   5.45054
 Alpha virt. eigenvalues --    5.51234   5.51565   5.55789   5.59748   5.62410
 Alpha virt. eigenvalues --    5.66285   5.77833   5.79494   5.81051   5.94897
 Alpha virt. eigenvalues --    6.11771   6.15959   6.22311   6.43272   6.72328
 Alpha virt. eigenvalues --    6.79580   6.80114   6.85546   6.87949   6.89583
 Alpha virt. eigenvalues --    6.93098   6.99035   7.10537   7.12789   7.14196
 Alpha virt. eigenvalues --    7.19980   7.22766   7.24245   7.48020   7.50668
 Alpha virt. eigenvalues --    7.52033   7.62877   7.70697   7.72320  24.36838
 Alpha virt. eigenvalues --   24.64970  35.77551  50.06151  50.10552  50.18238
          Condensed to atoms (all electrons):
               1          2          3          4          5          6
     1  O    8.034547  -0.000728   0.000041   0.116147  -0.095512   0.052928
     2  O   -0.000728   7.945035  -0.083389   0.009924  -0.149735   0.341884
     3  O    0.000041  -0.083389   8.135874   0.000151  -0.054606   0.410818
     4  N    0.116147   0.009924   0.000151   6.864422   0.229523  -0.132357
     5  C   -0.095512  -0.149735  -0.054606   0.229523   5.465953  -0.023392
     6  C    0.052928   0.341884   0.410818  -0.132357  -0.023392   5.100170
     7  H    0.001810   0.000347   0.000934  -0.052598   0.430341  -0.028925
     8  H    0.001440   0.002735   0.001588  -0.024882   0.431578  -0.048543
     9  H   -0.087005  -0.000987   0.002614   0.335324  -0.072869   0.032444
    10  H    0.226494  -0.000008   0.000208  -0.047154  -0.008851   0.008879
    11  H    0.000129   0.262513   0.014913  -0.000998  -0.023098   0.006991
               7          8          9         10         11
     1  O    0.001810   0.001440  -0.087005   0.226494   0.000129
     2  O    0.000347   0.002735  -0.000987  -0.000008   0.262513
     3  O    0.000934   0.001588   0.002614   0.000208   0.014913
     4  N   -0.052598  -0.024882   0.335324  -0.047154  -0.000998
     5  C    0.430341   0.431578  -0.072869  -0.008851  -0.023098
     6  C   -0.028925  -0.048543   0.032444   0.008879   0.006991
     7  H    0.524117  -0.042595   0.008687   0.003253   0.000087
     8  H   -0.042595   0.532338  -0.015437  -0.002503  -0.000015
     9  H    0.008687  -0.015437   0.559754   0.012254   0.000238
    10  H    0.003253  -0.002503   0.012254   0.500157  -0.000000
    11  H    0.000087  -0.000015   0.000238  -0.000000   0.435577
 Mulliken charges:
               1
     1  O   -0.250292
     2  O   -0.327589
     3  O   -0.429143
     4  N   -0.297502
     5  C   -0.129333
     6  C    0.279104
     7  H    0.154543
     8  H    0.164295
     9  H    0.224983
    10  H    0.307272
    11  H    0.303662
 Sum of Mulliken charges =  -0.00000
 Mulliken charges with hydrogens summed into heavy atoms:
               1
     1  O    0.056980
     2  O   -0.023927
     3  O   -0.429143
     4  N   -0.072519
     5  C    0.189505
     6  C    0.279104
 APT charges:
               1
     1  O   -0.967485
     2  O   -0.655616
     3  O   -0.389895
     4  N   -0.252019
     5  C   -0.508406
     6  C    0.157868
     7  H    0.383413
     8  H    0.360947
     9  H    0.401921
    10  H    0.730766
    11  H    0.738506
 Sum of APT charges =  -0.00000
 APT charges with hydrogens summed into heavy atoms:
               1
     1  O   -0.236719
     2  O    0.082890
     3  O   -0.389895
     4  N    0.149902
     5  C    0.235954
     6  C    0.157868
 Electronic spatial extent (au):  <R**2>=            681.1614
 Charge=              0.0000 electrons
 Dipole moment (field-independent basis, Debye):
    X=              0.1572    Y=             -1.4527    Z=              0.0802  Tot=              1.4633
 Quadrupole moment (field-independent basis, Debye-Ang):
   XX=            -27.4519   YY=            -40.3914   ZZ=            -34.7850
   XY=              2.0403   XZ=              2.9908   YZ=             -1.8232
 Traceless Quadrupole moment (field-independent basis, Debye-Ang):
   XX=              6.7575   YY=             -6.1820   ZZ=             -0.5755
   XY=              2.0403   XZ=              2.9908   YZ=             -1.8232
 Octapole moment (field-independent basis, Debye-Ang**2):
  XXX=             -6.9607  YYY=             -2.9066  ZZZ=             -0.9407  XYY=              8.4060
  XXY=              4.5232  XXZ=             10.3161  XZZ=              0.9025  YZZ=             -0.8408
  YYZ=             -1.5104  XYZ=             -2.2120
 Hexadecapole moment (field-independent basis, Debye-Ang**3):
 XXXX=           -415.6650 YYYY=           -158.6272 ZZZZ=            -44.3677 XXXY=             11.3585
 XXXZ=             47.3571 YYYX=              4.5174 YYYZ=             -2.8788 ZZZX=              0.5498
 ZZZY=             -2.3057 XXYY=           -145.0187 XXZZ=           -107.7110 YYZZ=            -31.3926
 XXYZ=             -2.4538 YYXZ=             -2.1521 ZZXY=             -0.7977
 N-N= 2.400301416592D+02 E-N=-1.325190458354D+03  KE= 3.580228947810D+02
  Exact polarizability:   0.000   0.000   0.000   0.000   0.000   0.000
 Approx polarizability:  57.194  -1.321  61.728   1.525  -0.411  43.711
 No NMR shielding tensors so no spin-rotation constants.
 Leave Link  601 at Tue Apr  9 00:05:20 2019, MaxMem=   671088640 cpu:               4.4 elap:               0.3
 (Enter /shared/centos7/gaussian/g16/l701.exe)
 SCFChk:  SCF convergence  4.41D-09 required  1.00D-08
 ... and contract with generalized density number  0.
 Compute integral second derivatives.
 Entering OneElI...
 Calculate overlap and kinetic energy integrals
    NBasis = 279  MinDer = 2  MaxDer = 2
 Requested accuracy = 0.1000D-12
 PrmmSu-InSpLW:  IPartL=    0 NPrtUS=   20 NPrtUL=    1 DoSpLW=F IThBeg=    0 IThEnd=   19 NThAct=   20.
 PrsmSu:  NPrtUS=  20 ThrOK=T IAlg=1 NPAlg=1 LenDen=           0 ISkipM=0 DoSpLW=F IThBeg=    0 IThEnd=   19.
 Prism:   IPart=     0 DynPar=F LinDyn=F Incr=           1.
 PRISM was handed    33473005 working-precision words and  2661 shell-pairs
 PRISM was handed    33473005 working-precision words and  2661 shell-pairs
 PRISM was handed    33473005 working-precision words and  2661 shell-pairs
 PRISM was handed    33473005 working-precision words and  2661 shell-pairs
 PRISM was handed    33473005 working-precision words and  2661 shell-pairs
 PRISM was handed    33473005 working-precision words and  2661 shell-pairs
 PRISM was handed    33473005 working-precision words and  2661 shell-pairs
 PRISM was handed    33473005 working-precision words and  2661 shell-pairs
 PRISM was handed    33473005 working-precision words and  2661 shell-pairs
 PRISM was handed    33473005 working-precision words and  2661 shell-pairs
 PRISM was handed    33473005 working-precision words and  2661 shell-pairs
 PRISM was handed    33473005 working-precision words and  2661 shell-pairs
 PRISM was handed    33473005 working-precision words and  2661 shell-pairs
 PRISM was handed    33473005 working-precision words and  2661 shell-pairs
 PRISM was handed    33473005 working-precision words and  2661 shell-pairs
 PRISM was handed    33473005 working-precision words and  2661 shell-pairs
 PRISM was handed    33473005 working-precision words and  2661 shell-pairs
 PRISM was handed    33473005 working-precision words and  2661 shell-pairs
 PRISM was handed    33473005 working-precision words and  2661 shell-pairs
 PRISM was handed    33473005 working-precision words and  2661 shell-pairs
 IPart= 18 NShTot=         112 NBatch=          30 AvBLen=         3.7
 IPart= 16 NShTot=         116 NBatch=          30 AvBLen=         3.9
 IPart= 19 NShTot=         112 NBatch=          30 AvBLen=         3.7
 IPart= 17 NShTot=         114 NBatch=          30 AvBLen=         3.8
 IPart=  0 NShTot=         168 NBatch=          57 AvBLen=         2.9
 IPart=  3 NShTot=         153 NBatch=          45 AvBLen=         3.4
 IPart=  4 NShTot=         150 NBatch=          43 AvBLen=         3.5
 IPart=  2 NShTot=         158 NBatch=          49 AvBLen=         3.2
 IPart=  5 NShTot=         143 NBatch=          40 AvBLen=         3.6
 IPart=  6 NShTot=         136 NBatch=          34 AvBLen=         4.0
 IPart= 13 NShTot=         123 NBatch=          31 AvBLen=         4.0
 IPart= 11 NShTot=         127 NBatch=          31 AvBLen=         4.1
 IPart=  1 NShTot=         162 NBatch=          53 AvBLen=         3.1
 IPart=  8 NShTot=         133 NBatch=          32 AvBLen=         4.2
 IPart=  7 NShTot=         134 NBatch=          33 AvBLen=         4.1
 IPart=  9 NShTot=         130 NBatch=          31 AvBLen=         4.2
 IPart= 12 NShTot=         125 NBatch=          31 AvBLen=         4.0
 IPart= 15 NShTot=         116 NBatch=          30 AvBLen=         3.9
 IPart= 14 NShTot=         120 NBatch=          31 AvBLen=         3.9
 IPart= 10 NShTot=         129 NBatch=          31 AvBLen=         4.2
 PrSmSu:  NxtVal=             21.
 Entering OneElI...
 Calculate potential energy integrals
    NBasis = 279  MinDer = 2  MaxDer = 2
 Requested accuracy = 0.1000D-12
 PrmmSu-InSpLW:  IPartL=    0 NPrtUS=   20 NPrtUL=    1 DoSpLW=F IThBeg=    0 IThEnd=   19 NThAct=   20.
 PrsmSu:  NPrtUS=  20 ThrOK=T IAlg=1 NPAlg=1 LenDen=           0 ISkipM=0 DoSpLW=F IThBeg=    0 IThEnd=   19.
 Prism:   IPart=     0 DynPar=F LinDyn=F Incr=          13.
 PRISM was handed    33484454 working-precision words and  2516 shell-pairs
 PRISM was handed    33484454 working-precision words and  2516 shell-pairs
 PRISM was handed    33484454 working-precision words and  2516 shell-pairs
 PRISM was handed    33484454 working-precision words and  2516 shell-pairs
 PRISM was handed    33484454 working-precision words and  2516 shell-pairs
 PRISM was handed    33484454 working-precision words and  2516 shell-pairs
 PRISM was handed    33484454 working-precision words and  2516 shell-pairs
 PRISM was handed    33484454 working-precision words and  2516 shell-pairs
 PRISM was handed    33484454 working-precision words and  2516 shell-pairs
 PRISM was handed    33484454 working-precision words and  2516 shell-pairs
 PRISM was handed    33484454 working-precision words and  2516 shell-pairs
 PRISM was handed    33484454 working-precision words and  2516 shell-pairs
 PRISM was handed    33484454 working-precision words and  2516 shell-pairs
 PRISM was handed    33484454 working-precision words and  2516 shell-pairs
 PRISM was handed    33484454 working-precision words and  2516 shell-pairs
 PRISM was handed    33484454 working-precision words and  2516 shell-pairs
 PRISM was handed    33484454 working-precision words and  2516 shell-pairs
 PRISM was handed    33484454 working-precision words and  2516 shell-pairs
 PRISM was handed    33484454 working-precision words and  2516 shell-pairs
 PRISM was handed    33484454 working-precision words and  2516 shell-pairs
 IPart= 19 NShTot=        1188 NBatch=         108 AvBLen=        11.0
 IPart= 18 NShTot=        1199 NBatch=         109 AvBLen=        11.0
 IPart= 17 NShTot=        1210 NBatch=         110 AvBLen=        11.0
 IPart= 16 NShTot=        1221 NBatch=         111 AvBLen=        11.0
 IPart=  6 NShTot=        1441 NBatch=         131 AvBLen=        11.0
 IPart=  5 NShTot=        1485 NBatch=         135 AvBLen=        11.0
 IPart=  3 NShTot=        1584 NBatch=         144 AvBLen=        11.0
 IPart=  0 NShTot=        1782 NBatch=         162 AvBLen=        11.0
 IPart=  8 NShTot=        1353 NBatch=         123 AvBLen=        11.0
 IPart=  9 NShTot=        1331 NBatch=         121 AvBLen=        11.0
 IPart= 11 NShTot=        1298 NBatch=         118 AvBLen=        11.0
 IPart=  7 NShTot=        1408 NBatch=         128 AvBLen=        11.0
 IPart=  1 NShTot=        1716 NBatch=         156 AvBLen=        11.0
 IPart=  4 NShTot=        1540 NBatch=         140 AvBLen=        11.0
 IPart=  2 NShTot=        1617 NBatch=         147 AvBLen=        11.0
 IPart= 13 NShTot=        1254 NBatch=         114 AvBLen=        11.0
 IPart= 15 NShTot=        1221 NBatch=         111 AvBLen=        11.0
 IPart= 14 NShTot=        1243 NBatch=         113 AvBLen=        11.0
 IPart= 12 NShTot=        1276 NBatch=         116 AvBLen=        11.0
 IPart= 10 NShTot=        1309 NBatch=         119 AvBLen=        11.0
 PrSmSu:  NxtVal=            261.
 Polarizability after L701:
                1             2             3 
      1  0.000000D+00
      2  0.000000D+00  0.000000D+00
      3  0.000000D+00  0.000000D+00  0.000000D+00
 Dipole Derivatives after L701:
                 1             2             3             4             5 
      1  -0.189595D+01  0.266899D+00 -0.925161D+00 -0.123238D+01  0.617586D+00
      2   0.908340D-02 -0.390340D+00 -0.944654D-01 -0.281034D-01 -0.282359D+00
      3  -0.879565D-01 -0.163102D+00 -0.616162D+00 -0.339688D-01  0.283116D-01
                 6             7             8             9            10 
      1  -0.701239D-01 -0.401726D+00 -0.523817D+00  0.142294D-01  0.210878D+00
      2  -0.174826D-02 -0.256294D-01 -0.178581D+00 -0.740112D-02  0.137896D+00
      3  -0.452107D+00 -0.669374D-02  0.236950D-01 -0.589378D+00  0.194995D-01
                11            12            13            14            15 
      1  -0.884027D+00  0.447905D+00  0.171466D+00  0.296076D+00  0.411452D-01
      2  -0.524574D+00  0.387847D+00  0.251247D-01 -0.824546D+00  0.960146D-02
      3   0.191811D+00 -0.442362D+00  0.535243D-01  0.436548D-01 -0.872138D+00
                16            17            18            19            20 
      1  -0.224709D+00  0.554326D+00 -0.815727D-01  0.128378D+00 -0.786089D-01
      2  -0.499588D-01  0.313470D-01  0.538017D-02 -0.226272D-01  0.511197D+00
      3  -0.746251D-01 -0.271358D-01  0.666965D+00  0.492340D-01 -0.257536D+00
                21            22            23            24            25 
      1   0.129090D+00  0.154990D+00 -0.114802D+00 -0.159205D+00  0.255623D+00
      2  -0.404713D+00 -0.745805D-01  0.488571D+00  0.373785D+00 -0.330653D-01
      3   0.510663D+00 -0.746293D-01  0.194595D+00  0.439280D+00 -0.228431D-01
                26            27            28            29            30 
      1   0.273937D+00 -0.424134D+00  0.126127D+01  0.263054D+00  0.928306D+00
      2   0.493837D+00 -0.330384D+00 -0.205908D-01  0.370217D+00  0.560152D-01
      3  -0.109222D+00  0.456304D+00  0.130179D+00  0.101917D+00  0.560813D+00
                31            32            33 
      1   0.157217D+01 -0.670623D+00  0.995208D-01
      2   0.824513D-01  0.305231D+00  0.608249D-02
      3   0.482799D-01 -0.269877D-01  0.338122D+00
 Hessian after L701:
                1             2             3             4             5 
      1  0.241553D+01
      2  0.192957D+01  0.113501D+02
      3  0.426887D-02 -0.139149D+01  0.993720D+01
      4  0.140789D+00  0.492047D-01 -0.184643D-01  0.258142D+01
      5  0.364900D-01 -0.865473D-01 -0.518573D-02 -0.378887D+01  0.861586D+01
      6 -0.730305D-02 -0.287668D-02 -0.100346D+00 -0.745456D+00 -0.142251D+00
      7  0.193938D+00 -0.135995D+00 -0.493203D-01  0.715208D-01  0.634031D+00
      8 -0.174415D+00 -0.843680D-01  0.234783D-01  0.565771D+00  0.423560D+00
      9 -0.232112D-01  0.525649D-02 -0.155211D+00 -0.155324D-01  0.902742D-02
     10 -0.922890D+00 -0.303502D+01 -0.186085D+01  0.359849D+00  0.252088D+00
     11 -0.292568D+01 -0.628112D+01  0.117383D+01  0.171375D+00 -0.134167D+00
     12 -0.192016D+01  0.121522D+01 -0.645363D+01  0.509555D-01  0.306266D-01
     13  0.316091D+00  0.613170D+00 -0.198768D+00  0.284515D+00 -0.803515D-01
     14  0.386493D+00 -0.147320D-01 -0.618014D-01  0.925701D-01  0.647831D-01
     15 -0.154670D+00 -0.938469D-01 -0.663316D-01 -0.191198D-01 -0.108298D-01
     16  0.564702D+00 -0.128089D+00 -0.250674D-01 -0.213808D+01  0.505858D+01
     17 -0.792596D-01 -0.272092D+00 -0.357099D-02  0.484469D+01 -0.514285D+01
     18 -0.955933D-02  0.404625D-02 -0.261959D+00  0.478847D+00  0.304019D+00
     19  0.681742D-01  0.561715D-01 -0.437984D-01  0.819072D-01 -0.300331D-01
     20  0.865582D-01 -0.221247D-01 -0.378622D-01 -0.828339D-01 -0.454417D-01
     21 -0.879350D-01 -0.438595D-01 -0.225356D-01  0.111072D+00 -0.181964D-01
     22  0.680599D-01  0.756612D-01 -0.296356D-01  0.106299D+00 -0.352494D-01
     23  0.114408D+00  0.132578D-01 -0.846171D-02 -0.883526D-01 -0.515680D-01
     24  0.370178D-01  0.331853D-01 -0.729561D-01 -0.102582D+00  0.158350D-01
     25 -0.272116D+00  0.137896D+00  0.117447D+00  0.757947D-02  0.149832D-01
     26  0.209132D+00  0.431472D+00 -0.227162D+00  0.306973D-01  0.596955D-02
     27  0.125498D+00 -0.266745D+00  0.426823D+00 -0.239447D-01 -0.177531D-01
     28 -0.259364D+01  0.435858D+00  0.210868D+01  0.190869D-01  0.597813D-02
     29  0.422401D+00 -0.502775D+01  0.536776D+00  0.577141D-02 -0.336826D-02
     30  0.203564D+01  0.541113D+00 -0.322525D+01  0.130231D-01  0.437448D-02
     31  0.213683D-01  0.157420D-02 -0.449045D-02 -0.151488D+01 -0.206764D+01
     32 -0.570042D-02 -0.614208D-02  0.145221D-02 -0.180003D+01 -0.364623D+01
     33  0.417425D-03 -0.263632D-05 -0.580359D-02  0.271201D+00 -0.169666D+00
                6             7             8             9            10 
      6  0.147767D+02
      7 -0.141570D-01  0.120860D+02
      8  0.405472D-02  0.321902D+01 -0.175928D+01
      9 -0.753972D-02 -0.211199D+00  0.322764D+00  0.166877D+02
     10  0.261183D-01  0.591952D+00 -0.335672D+00  0.796687D-01  0.711527D+01
     11  0.171401D-01 -0.351875D+00 -0.269690D+00 -0.124282D-01  0.832218D+00
     12 -0.200639D+00  0.158150D+00 -0.524845D-01 -0.398494D+00  0.571774D+00
     13 -0.202870D-01  0.617000D+00 -0.628680D+00  0.584171D-01 -0.249580D+01
     14  0.671883D-03 -0.454746D+00  0.203267D-01 -0.446562D-01  0.293596D+01
     15  0.608999D-01  0.514476D-01 -0.419102D-01 -0.124563D+00  0.150583D+00
     16  0.473844D+00 -0.137541D+02 -0.270835D+01  0.141902D+00  0.400454D+00
     17  0.284879D+00 -0.287028D+01  0.159734D+01 -0.279818D+00  0.946176D-01
     18 -0.960181D+01  0.144314D+00 -0.285693D+00 -0.158257D+02  0.636647D-01
     19  0.689236D-01 -0.214169D-01 -0.491512D-01  0.347005D-01  0.273086D-01
     20 -0.355829D-01 -0.617151D-01  0.934247D-01 -0.649024D-01 -0.120870D+00
     21 -0.162630D-02  0.498223D-01 -0.947588D-01  0.327855D-02 -0.442794D-01
     22 -0.603116D-01 -0.139866D-01 -0.580717D-01 -0.388719D-01 -0.142524D-02
     23  0.275104D-01 -0.658150D-01  0.879577D-01  0.596846D-01 -0.449653D-02
     24 -0.245875D-01 -0.529500D-01  0.901779D-01 -0.543622D-02  0.739586D-01
     25 -0.176337D-02  0.132397D+00 -0.501753D-01 -0.405963D-01 -0.478035D+01
     26 -0.367892D-02  0.126574D-01 -0.894405D-01 -0.157787D-02 -0.842515D+00
     27 -0.101201D-01 -0.110355D+00  0.272855D-01 -0.606920D-01  0.791997D+00
     28  0.258061D-02  0.332066D-01 -0.190547D-01  0.370719D-02 -0.320110D+00
     29  0.138393D-02 -0.150603D-02 -0.873544D-02  0.101773D-02  0.233389D+00
     30 -0.295170D-02  0.216506D-01 -0.102817D-01 -0.508804D-02  0.143021D+00
     31  0.277811D+00  0.634436D-01  0.238777D+00  0.110151D-01  0.257422D-01
     32 -0.151250D+00  0.762208D-01 -0.110902D-01  0.563279D-02 -0.970026D-02
     33 -0.488797D+01  0.125972D-01  0.173683D-01 -0.108255D+00  0.434601D-02
               11            12            13            14            15 
     11  0.147607D+02
     12  0.417628D+00  0.166476D+02
     13  0.293335D+01  0.223855D+00  0.107586D+02
     14 -0.462856D+01  0.473338D-01 -0.730630D+00  0.166509D+02
     15  0.333690D-01 -0.691521D+01 -0.261632D+00  0.370007D-01  0.184717D+02
     16 -0.688385D-01  0.106174D+00 -0.128308D+01 -0.180223D+01  0.300119D+00
     17 -0.680422D-01  0.671276D-01 -0.175223D+01 -0.600963D+01 -0.119720D+00
     18  0.377252D-01 -0.220338D-01  0.296091D+00 -0.122143D+00 -0.649521D+01
     19 -0.163517D+00 -0.175344D-01 -0.431820D+01 -0.644719D-01  0.410670D-01
     20 -0.175794D+00 -0.689431D-01 -0.327539D-01 -0.295408D+01 -0.153854D+01
     21 -0.446085D-01  0.245536D+00  0.119868D-01 -0.151704D+01 -0.261634D+01
     22 -0.532888D-01  0.369908D-01 -0.427648D+01 -0.228518D+00 -0.219192D+00
     23  0.371040D-01  0.188264D+00 -0.220934D+00 -0.293828D+01  0.156791D+01
     24  0.160181D+00  0.270651D+00 -0.210400D+00  0.152045D+01 -0.244335D+01
     25 -0.638587D+00  0.641760D+00  0.182543D+00 -0.172283D+00  0.802423D-01
     26 -0.334590D+01 -0.187147D+01 -0.127805D+00 -0.162744D+00  0.156097D+00
     27 -0.182445D+01 -0.344478D+01  0.444351D-01  0.135798D+00  0.141731D+00
     28  0.269034D+00  0.137206D+00  0.147566D+00  0.345197D-01  0.299061D-01
     29  0.106956D+00  0.290070D-01  0.410437D-01 -0.297377D-01  0.108847D-01
     30  0.412910D-01  0.276330D+00  0.534159D-01  0.369175D-02 -0.220823D-01
     31 -0.419425D-02  0.108300D-01  0.672631D-01  0.333271D-02  0.124783D-02
     32 -0.153246D-02 -0.231665D-02 -0.141777D-01  0.177756D-02 -0.413135D-03
     33  0.318241D-03 -0.533970D-02  0.288585D-02  0.695112D-03  0.875809D-02
               16            17            18            19            20 
     16  0.159052D+02
     17 -0.343565D+00  0.100365D+02
     18 -0.999970D+00  0.148954D+00  0.323229D+02
     19  0.731425D-01  0.140084D-01 -0.562417D-01  0.392431D+01
     20 -0.313359D-01 -0.259491D-01  0.424985D-01  0.194831D+00  0.289051D+01
     21  0.815817D-03  0.339755D-01 -0.172808D-01 -0.298071D-01  0.178079D+01
     22  0.994713D-01  0.662993D-01  0.103049D+00  0.151156D+00 -0.278174D-02
     23  0.379051D-01 -0.321452D-01 -0.977651D-01 -0.269451D-02  0.158435D+00
     24  0.542698D-01 -0.862451D-01  0.137042D-01  0.234106D-01  0.245326D-02
     25  0.498336D-01  0.822210D-01 -0.331222D-01 -0.285018D-01  0.328576D-01
     26  0.117852D+00 -0.371289D-01 -0.232834D-01  0.316675D-01  0.782909D-01
     27 -0.850155D-01 -0.481302D-01 -0.769920D-01 -0.232276D-01 -0.816562D-01
     28  0.534323D-01  0.150716D-02  0.962451D-02  0.330502D-01  0.284456D-01
     29  0.367973D-02 -0.161101D-01  0.188156D-02  0.169817D-01  0.559907D-03
     30  0.277409D-01  0.702066D-02 -0.130160D-01 -0.432376D-03  0.420444D-02
     31  0.290575D-01 -0.580080D-01  0.330309D-02  0.906539D-02 -0.104014D-01
     32 -0.135602D+00 -0.299343D-01 -0.102399D-01 -0.379219D-02  0.217099D-02
     33  0.518658D-02 -0.447231D-02 -0.225945D-01  0.293996D-02 -0.245323D-02
               21            22            23            24            25 
     21  0.264745D+01
     22  0.215637D-01  0.383391D+01
     23 -0.138559D-02  0.295648D+00  0.282804D+01
     24 -0.254776D+00  0.195571D+00 -0.172539D+01  0.246936D+01
     25 -0.263707D-01  0.354357D-01 -0.540906D-01 -0.803050D-02  0.460140D+01
     26 -0.841520D-01 -0.498016D-01 -0.107706D+00 -0.141357D-01  0.687055D+00
     27  0.311550D-01 -0.104489D-02 -0.126266D-01  0.428344D-01 -0.791129D+00
     28 -0.176965D-01 -0.114629D-01 -0.198337D-02 -0.128101D-02  0.644703D-01
     29 -0.624549D-02 -0.605397D-02  0.277550D-02 -0.353724D-03 -0.410826D-01
     30 -0.149850D-01 -0.682276D-02  0.143088D-02  0.591207D-02  0.621618D-01
     31  0.108278D-01  0.902723D-02 -0.959517D-02 -0.898376D-02  0.730848D-02
     32 -0.451509D-02 -0.384407D-02  0.213158D-02  0.384252D-02  0.120503D-02
     33  0.126398D-03 -0.129620D-02  0.827824D-03 -0.135947D-02 -0.599651D-03
               26            27            28            29            30 
     26  0.324320D+01
     27  0.211510D+01  0.294315D+01
     28 -0.766460D-01  0.801511D-01  0.256974D+01
     29 -0.136829D-01 -0.286426D-01 -0.675755D+00  0.498978D+01
     30 -0.456095D-01  0.846833D-02 -0.235330D+01 -0.545825D+00  0.299254D+01
     31  0.770665D-02 -0.736515D-02  0.466594D-02  0.113063D-02  0.390520D-02
     32 -0.232887D-02  0.181922D-02 -0.190429D-02 -0.681374D-03 -0.140907D-02
     33 -0.128239D-03 -0.157662D-02  0.422287D-03  0.116029D-03  0.121415D-03
               31            32            33 
     31  0.127794D+01
     32  0.189732D+01  0.369186D+01
     33 -0.298101D+00  0.157397D+00  0.502389D+01
 Leave Link  701 at Tue Apr  9 00:05:20 2019, MaxMem=   671088640 cpu:               6.6 elap:               0.4
 (Enter /shared/centos7/gaussian/g16/l702.exe)
 L702 exits ... SP integral derivatives will be done elsewhere.
 Leave Link  702 at Tue Apr  9 00:05:20 2019, MaxMem=   671088640 cpu:               0.3 elap:               0.0
 (Enter /shared/centos7/gaussian/g16/l703.exe)
 Integral derivatives from FoFJK, PRISM(SPDF).
 Compute integral second derivatives, UseDBF=F ICtDFT=           0.
 ICntrl=    100147.
 Calling FoFJK, ICntrl=    100147 FMM=F ISym2X=0 I1Cent= 0 IOpClX= 0 NMat=1 NMatS=1 NMatT=0.
 FoFJK:  IHMeth= 1 ICntrl=  100147 DoSepK=F KAlg= 0 I1Cent=           0 FoldK=F
 IRaf=         0 NMat=       1 IRICut=       1 DoRegI=T DoRafI=F ISym2E= 0 IDoP0=0 IntGTp=1.
 FoFCou: FMM=F IPFlag=           0 FMFlag=      100000 FMFlg1=         800
         NFxFlg=           0 DoJE=F BraDBF=F KetDBF=F FulRan=T
         wScrn=  0.000000 ICntrl=    100147 IOpCl=  0 I1Cent=           0 NGrid=           0
         NMat0=    1 NMatS0=      1 NMatT0=    0 NMatD0=    1 NMtDS0=    0 NMtDT0=    0
 Symmetry not used in FoFCou.
 FoFCou:  KetSym=F NOpSet=  1 NOpAb=1 NOp=  1.
 FoFCou:  CnvScl= 1.00D+00 Thresh= 1.00D-08 IAcrcy=      12.
 PrismS was handed   670797096 working-precision words and  2566 shell-pairs
 FoFCou: LinMIO=F DoNuc=F BraDBF=F KetDBF=F HaveP=T PDBF=F HaveZ=T HaveW=F
         NIJTC =      15 NIJTAt=       0 NIJTCD=       0 NIJTT =      15
         IJTBeg=       1 IJTEnd=      15 KLTBeg=       1 KLTEnd=      15
         IPTBeg=       1 IPTEnd=      15 IPTBCv=       1 IPTECv=      15
         IZTBeg=       1 IZTEnd=      15 IZTBCv=       1 IZTECv=      15
         IWTBeg=      16 IWTEnd=      15 IWTBCv=      16 IWTECv=      15
         INTBeg=       1 INTEnd=       0 IFTBCv=       1 IFTECv=      15
 NCel replicated for PrismC:     1
 CoulSu-InSpLW:  IPartL=    0 NPrtUS=   20 NPrtUL=    1 DoSpLW=F IThBeg=    0 IThEnd=   19 NThAct=   20.
 CoulSu:  IncDef=  1024 NBBP=        3293461 NTPThr=   100 NPartT=   20 Incr=        1024 LDynOK=F GPUOK=T.
 CoulSu:  NPrtUS=  20 ThrOK=T IAlg=1 NPAlg=1 LenDen=           0 LWGrdD=           0 DoCopy=F ISkipM=0
          DoSpLW=F IThBeg=    0 IThEnd=   19.
 Enter PrismC:  IPart=  0 JobTyp=22 DoJE=F Cont=F.
 PrismC:  IPart=     0 DynPar=T LinDyn=F Incr=        1024 UseFst=F UseS4=T ISplat=2.
 PrismC was handed    33488150 working-precision words and  2566 shell-pairs
 Enter PrismC:  IPart=  4 JobTyp=22 DoJE=F Cont=F.
 Enter PrismC:  IPart= 14 JobTyp=22 DoJE=F Cont=F.
 PrismC:  IPart=    14 DynPar=T LinDyn=F Incr=        1024 UseFst=F UseS4=T ISplat=2.
 PrismC was handed    33488150 working-precision words and  2566 shell-pairs
 PrismC:  IPart=     4 DynPar=T LinDyn=F Incr=        1024 UseFst=F UseS4=T ISplat=2.
 PrismC was handed    33488150 working-precision words and  2566 shell-pairs
 Enter PrismC:  IPart= 13 JobTyp=22 DoJE=F Cont=F.
 Enter PrismC:  IPart=  1 JobTyp=22 DoJE=F Cont=F.
 PrismC:  IPart=    13 DynPar=T LinDyn=F Incr=        1024 UseFst=F UseS4=T ISplat=2.
 PrismC was handed    33488150 working-precision words and  2566 shell-pairs
 PrismC:  IPart=     1 DynPar=T LinDyn=F Incr=        1024 UseFst=F UseS4=T ISplat=2.
 Enter PrismC:  IPart=  9 JobTyp=22 DoJE=F Cont=F.
 PrismC was handed    33488150 working-precision words and  2566 shell-pairs
 PrismC:  IPart=     9 DynPar=T LinDyn=F Incr=        1024 UseFst=F UseS4=T ISplat=2.
 PrismC was handed    33488150 working-precision words and  2566 shell-pairs
 Enter PrismC:  IPart=  7 JobTyp=22 DoJE=F Cont=F.
 PrismC:  IPart=     7 DynPar=T LinDyn=F Incr=        1024 UseFst=F UseS4=T ISplat=2.
 PrismC was handed    33488150 working-precision words and  2566 shell-pairs
 Enter PrismC:  IPart=  6 JobTyp=22 DoJE=F Cont=F.
 Enter PrismC:  IPart=  5 JobTyp=22 DoJE=F Cont=F.
 Enter PrismC:  IPart= 11 JobTyp=22 DoJE=F Cont=F.
 PrismC:  IPart=     6 DynPar=T LinDyn=F Incr=        1024 UseFst=F UseS4=T ISplat=2.
 PrismC:  IPart=     5 DynPar=T LinDyn=F Incr=        1024 UseFst=F UseS4=T ISplat=2.
 PrismC was handed    33488150 working-precision words and  2566 shell-pairs
 PrismC:  IPart=    11 DynPar=T LinDyn=F Incr=        1024 UseFst=F UseS4=T ISplat=2.
 Enter PrismC:  IPart=  8 JobTyp=22 DoJE=F Cont=F.
 PrismC was handed    33488150 working-precision words and  2566 shell-pairs
 PrismC was handed    33488150 working-precision words and  2566 shell-pairs
 Enter PrismC:  IPart= 12 JobTyp=22 DoJE=F Cont=F.
 PrismC:  IPart=    12 DynPar=T LinDyn=F Incr=        1024 UseFst=F UseS4=T ISplat=2.
 PrismC:  IPart=     8 DynPar=T LinDyn=F Incr=        1024 UseFst=F UseS4=T ISplat=2.
 PrismC was handed    33488150 working-precision words and  2566 shell-pairs
 Enter PrismC:  IPart= 15 JobTyp=22 DoJE=F Cont=F.
 PrismC was handed    33488150 working-precision words and  2566 shell-pairs
 PrismC:  IPart=    15 DynPar=T LinDyn=F Incr=        1024 UseFst=F UseS4=T ISplat=2.
 PrismC was handed    33488150 working-precision words and  2566 shell-pairs
 Enter PrismC:  IPart= 19 JobTyp=22 DoJE=F Cont=F.
 Enter PrismC:  IPart= 16 JobTyp=22 DoJE=F Cont=F.
 Enter PrismC:  IPart= 10 JobTyp=22 DoJE=F Cont=F.
 PrismC:  IPart=    19 DynPar=T LinDyn=F Incr=        1024 UseFst=F UseS4=T ISplat=2.
 Enter PrismC:  IPart= 17 JobTyp=22 DoJE=F Cont=F.
 PrismC was handed    33488150 working-precision words and  2566 shell-pairs
 Enter PrismC:  IPart=  3 JobTyp=22 DoJE=F Cont=F.
 PrismC:  IPart=    10 DynPar=T LinDyn=F Incr=        1024 UseFst=F UseS4=T ISplat=2.
 PrismC was handed    33488150 working-precision words and  2566 shell-pairs
 PrismC:  IPart=    16 DynPar=T LinDyn=F Incr=        1024 UseFst=F UseS4=T ISplat=2.
 PrismC was handed    33488150 working-precision words and  2566 shell-pairs
 PrismC:  IPart=    17 DynPar=T LinDyn=F Incr=        1024 UseFst=F UseS4=T ISplat=2.
 PrismC was handed    33488150 working-precision words and  2566 shell-pairs
 PrismC:  IPart=     3 DynPar=T LinDyn=F Incr=        1024 UseFst=F UseS4=T ISplat=2.
 PrismC was handed    33488150 working-precision words and  2566 shell-pairs
 Enter PrismC:  IPart=  2 JobTyp=22 DoJE=F Cont=F.
 Enter PrismC:  IPart= 18 JobTyp=22 DoJE=F Cont=F.
 PrismC:  IPart=     2 DynPar=T LinDyn=F Incr=        1024 UseFst=F UseS4=T ISplat=2.
 PrismC was handed    33488150 working-precision words and  2566 shell-pairs
 PrismC:  IPart=    18 DynPar=T LinDyn=F Incr=        1024 UseFst=F UseS4=T ISplat=2.
 PrismC was handed    33488150 working-precision words and  2566 shell-pairs
 IPart=  7 NShTot=      129124 NShNF=      129124 NShFF=           0 MinMC=       7
           NShCPU=      129124 NBCPU=        5308 AvBCPU=        24.3
           NShGPU=           0 NBGPU=           0 AvBGPU=         0.0
 IPart=  6 NShTot=      124821 NShNF=      124821 NShFF=           0 MinMC=       7
           NShCPU=      124821 NBCPU=        5685 AvBCPU=        22.0
           NShGPU=           0 NBGPU=           0 AvBGPU=         0.0
 IPart=  8 NShTot=      120311 NShNF=      120311 NShFF=           0 MinMC=       7
           NShCPU=      120311 NBCPU=        4985 AvBCPU=        24.1
           NShGPU=           0 NBGPU=           0 AvBGPU=         0.0
 IPart= 13 NShTot=      110808 NShNF=      110808 NShFF=           0 MinMC=       7
           NShCPU=      110808 NBCPU=        5195 AvBCPU=        21.3
           NShGPU=           0 NBGPU=           0 AvBGPU=         0.0
 IPart=  1 NShTot=      108532 NShNF=      108532 NShFF=           0 MinMC=       7
           NShCPU=      108532 NBCPU=        4713 AvBCPU=        23.0
           NShGPU=           0 NBGPU=           0 AvBGPU=         0.0
 IPart=  5 NShTot=      102059 NShNF=      102059 NShFF=           0 MinMC=       7
           NShCPU=      102059 NBCPU=        4236 AvBCPU=        24.1
           NShGPU=           0 NBGPU=           0 AvBGPU=         0.0
 IPart= 15 NShTot=      104098 NShNF=      104098 NShFF=           0 MinMC=       7
           NShCPU=      104098 NBCPU=        4784 AvBCPU=        21.8
           NShGPU=           0 NBGPU=           0 AvBGPU=         0.0
 IPart= 19 NShTot=      118230 NShNF=      118230 NShFF=           0 MinMC=       7
           NShCPU=      118230 NBCPU=        5142 AvBCPU=        23.0
           NShGPU=           0 NBGPU=           0 AvBGPU=         0.0
 IPart= 17 NShTot=      120930 NShNF=      120930 NShFF=           0 MinMC=       7
           NShCPU=      120930 NBCPU=        5441 AvBCPU=        22.2
           NShGPU=           0 NBGPU=           0 AvBGPU=         0.0
 IPart= 18 NShTot=      109715 NShNF=      109715 NShFF=           0 MinMC=       7
           NShCPU=      109715 NBCPU=        4951 AvBCPU=        22.2
           NShGPU=           0 NBGPU=           0 AvBGPU=         0.0
 IPart=  2 NShTot=       95443 NShNF=       95443 NShFF=           0 MinMC=       7
           NShCPU=       95443 NBCPU=        3868 AvBCPU=        24.7
           NShGPU=           0 NBGPU=           0 AvBGPU=         0.0
 IPart= 11 NShTot=      107239 NShNF=      107239 NShFF=           0 MinMC=       7
           NShCPU=      107239 NBCPU=        4674 AvBCPU=        22.9
           NShGPU=           0 NBGPU=           0 AvBGPU=         0.0
 IPart= 10 NShTot=      121189 NShNF=      121189 NShFF=           0 MinMC=       7
           NShCPU=      121189 NBCPU=        5325 AvBCPU=        22.8
           NShGPU=           0 NBGPU=           0 AvBGPU=         0.0
 IPart= 14 NShTot=      116570 NShNF=      116570 NShFF=           0 MinMC=       7
           NShCPU=      116570 NBCPU=        4877 AvBCPU=        23.9
           NShGPU=           0 NBGPU=           0 AvBGPU=         0.0
 IPart=  3 NShTot=      111669 NShNF=      111669 NShFF=           0 MinMC=       7
           NShCPU=      111669 NBCPU=        5068 AvBCPU=        22.0
           NShGPU=           0 NBGPU=           0 AvBGPU=         0.0
 IPart=  4 NShTot=      116702 NShNF=      116702 NShFF=           0 MinMC=       7
           NShCPU=      116702 NBCPU=        4900 AvBCPU=        23.8
           NShGPU=           0 NBGPU=           0 AvBGPU=         0.0
 IPart=  0 NShTot=      107837 NShNF=      107837 NShFF=           0 MinMC=       7
           NShCPU=      107837 NBCPU=        4835 AvBCPU=        22.3
           NShGPU=           0 NBGPU=           0 AvBGPU=         0.0
 IPart=  9 NShTot=      135496 NShNF=      135496 NShFF=           0 MinMC=       7
           NShCPU=      135496 NBCPU=        5563 AvBCPU=        24.4
           NShGPU=           0 NBGPU=           0 AvBGPU=         0.0
 IPart= 12 NShTot=      119982 NShNF=      119982 NShFF=           0 MinMC=       7
           NShCPU=      119982 NBCPU=        5002 AvBCPU=        24.0
           NShGPU=           0 NBGPU=           0 AvBGPU=         0.0
 IPart= 16 NShTot=      105360 NShNF=      105360 NShFF=           0 MinMC=       7
           NShCPU=      105360 NBCPU=        4765 AvBCPU=        22.1
           NShGPU=           0 NBGPU=           0 AvBGPU=         0.0
 CoulSu:  NxtVal=        3458049 LenVP=       33488151 MinMC=       7.
 ReadGW:  IGet=0 IStart=           1 Next=           1 LGW=           0.
 Remaining memory in FofDFT      639.92 Mw
 CkSvGd:  ISavGI=        -1 IRadAn=       5 IRASav=       5 ISavGd=        -1.
 CalDSu-InSpLW:  IPartL=    0 NPrtUS=   20 NPrtUL=    1 DoSpLW=F IThBeg=    0 IThEnd=   19 NThAct=   20.
 CalDSu:  NPrtUS=  20 ThrOK=T IAlg=1 NPAlg=2 DoDPD=T LenP=       39060 LenD1P=             0 GPUOK=F
          ISkipM=0 DoSpLW=F IThBeg=    0 IThEnd=   19.
 IPart=  0 IRanGd=          0 ScrnBf=T ScrnGd=T RCrit=4.00D+00 DoMicB=T.
 IPart=  8        13387 of        16350 points in      19 batches and       88 microbatches, Max-NSigAt=      11 Max-NSgAt2=      11
 IPart= 19        12966 of        15166 points in      17 batches and       87 microbatches, Max-NSigAt=      11 Max-NSgAt2=      11
 IPart=  9        11963 of        13580 points in      14 batches and       54 microbatches, Max-NSigAt=      11 Max-NSgAt2=      11
 IPart= 13        12901 of        13956 points in      14 batches and       51 microbatches, Max-NSigAt=      11 Max-NSgAt2=      11
 IPart=  5        10654 of        11322 points in      12 batches and       67 microbatches, Max-NSigAt=      11 Max-NSgAt2=      11
 IPart=  4        11200 of        12880 points in      16 batches and       86 microbatches, Max-NSigAt=      11 Max-NSgAt2=      11
 IPart=  0        10763 of        11328 points in      11 batches and       61 microbatches, Max-NSigAt=      11 Max-NSgAt2=      11
 IPart= 18        11208 of        11760 points in      11 batches and       56 microbatches, Max-NSigAt=      11 Max-NSgAt2=      11
 IPart= 16        10266 of        10674 points in      11 batches and       60 microbatches, Max-NSigAt=      11 Max-NSgAt2=      11
 IPart=  1        11652 of        12744 points in      14 batches and       70 microbatches, Max-NSigAt=      11 Max-NSgAt2=      11
 IPart= 10        11715 of        12704 points in      13 batches and       68 microbatches, Max-NSigAt=      11 Max-NSgAt2=      11
 IPart= 14        11978 of        13224 points in      13 batches and       64 microbatches, Max-NSigAt=      11 Max-NSgAt2=      11
 IPart=  3        12217 of        14184 points in      16 batches and       89 microbatches, Max-NSigAt=      11 Max-NSgAt2=      11
 IPart= 12        11376 of        12252 points in      12 batches and       57 microbatches, Max-NSigAt=      11 Max-NSgAt2=      11
 IPart= 15        11809 of        12992 points in      13 batches and       50 microbatches, Max-NSigAt=      11 Max-NSgAt2=      11
 IPart=  6        11149 of        12264 points in      13 batches and       85 microbatches, Max-NSigAt=      11 Max-NSgAt2=      11
 IPart= 11        11733 of        12372 points in      12 batches and       49 microbatches, Max-NSigAt=      11 Max-NSgAt2=      11
 IPart=  2         8002 of         8948 points in      10 batches and       73 microbatches, Max-NSigAt=      11 Max-NSgAt2=      11
 IPart= 17        10913 of        11912 points in      12 batches and       71 microbatches, Max-NSigAt=      11 Max-NSgAt2=      11
 IPart=  7        10680 of        11476 points in      11 batches and       69 microbatches, Max-NSigAt=      11 Max-NSgAt2=      11
 Polarizability after L703:
                1             2             3 
      1  0.000000D+00
      2  0.000000D+00  0.000000D+00
      3  0.000000D+00  0.000000D+00  0.000000D+00
 Dipole Derivatives after L703:
                 1             2             3             4             5 
      1  -0.189595D+01  0.266899D+00 -0.925161D+00 -0.123238D+01  0.617586D+00
      2   0.908340D-02 -0.390340D+00 -0.944654D-01 -0.281034D-01 -0.282359D+00
      3  -0.879565D-01 -0.163102D+00 -0.616162D+00 -0.339688D-01  0.283116D-01
                 6             7             8             9            10 
      1  -0.701239D-01 -0.401726D+00 -0.523817D+00  0.142294D-01  0.210878D+00
      2  -0.174826D-02 -0.256294D-01 -0.178581D+00 -0.740112D-02  0.137896D+00
      3  -0.452107D+00 -0.669374D-02  0.236950D-01 -0.589378D+00  0.194995D-01
                11            12            13            14            15 
      1  -0.884027D+00  0.447905D+00  0.171466D+00  0.296076D+00  0.411452D-01
      2  -0.524574D+00  0.387847D+00  0.251247D-01 -0.824546D+00  0.960146D-02
      3   0.191811D+00 -0.442362D+00  0.535243D-01  0.436548D-01 -0.872138D+00
                16            17            18            19            20 
      1  -0.224709D+00  0.554326D+00 -0.815727D-01  0.128378D+00 -0.786089D-01
      2  -0.499588D-01  0.313470D-01  0.538017D-02 -0.226272D-01  0.511197D+00
      3  -0.746251D-01 -0.271358D-01  0.666965D+00  0.492340D-01 -0.257536D+00
                21            22            23            24            25 
      1   0.129090D+00  0.154990D+00 -0.114802D+00 -0.159205D+00  0.255623D+00
      2  -0.404713D+00 -0.745805D-01  0.488571D+00  0.373785D+00 -0.330653D-01
      3   0.510663D+00 -0.746293D-01  0.194595D+00  0.439280D+00 -0.228431D-01
                26            27            28            29            30 
      1   0.273937D+00 -0.424134D+00  0.126127D+01  0.263054D+00  0.928306D+00
      2   0.493837D+00 -0.330384D+00 -0.205908D-01  0.370217D+00  0.560152D-01
      3  -0.109222D+00  0.456304D+00  0.130179D+00  0.101917D+00  0.560813D+00
                31            32            33 
      1   0.157217D+01 -0.670623D+00  0.995208D-01
      2   0.824513D-01  0.305231D+00  0.608249D-02
      3   0.482799D-01 -0.269877D-01  0.338122D+00
 Hessian after L703:
                1             2             3             4             5 
      1  0.573415D+00
      2 -0.916002D-01  0.168705D+00
      3  0.134376D+00  0.136185D+00  0.326074D+00
      4 -0.496747D-02 -0.530877D-03 -0.136404D-03  0.452550D+00
      5  0.303690D-03  0.138828D-02  0.388811D-03 -0.453378D-01  0.382255D+00
      6 -0.664713D-03 -0.916922D-04  0.228353D-03  0.271250D-01 -0.714664D-02
      7 -0.238751D-02  0.115002D-02  0.238570D-03  0.181072D-01 -0.503399D-01
      8  0.145580D-03  0.255095D-02  0.182608D-03 -0.452380D-01 -0.816788D-01
      9  0.226189D-03  0.856991D-04  0.450497D-03  0.235195D-03 -0.169106D-02
     10 -0.288266D+00  0.122327D+00  0.665104D-01 -0.170344D-02  0.237963D-02
     11  0.120466D+00 -0.123293D+00 -0.460511D-01  0.603625D-02 -0.155319D-02
     12  0.536644D-01 -0.348583D-01 -0.758728D-01 -0.658106D-03  0.333136D-03
     13 -0.529216D-01 -0.212985D-01 -0.800259D-02 -0.315406D-01  0.667722D-02
     14  0.285291D-01  0.167668D-01 -0.247981D-02 -0.226874D-01  0.132449D-01
     15  0.153495D-01  0.440116D-02 -0.779747D-03 -0.283083D-02  0.365052D-03
     16  0.685977D-04 -0.317574D-02 -0.274691D-02 -0.191423D+00 -0.264250D-01
     17 -0.568922D-02 -0.581138D-02 -0.180672D-02 -0.442353D-01 -0.148625D+00
     18  0.191252D-02 -0.286625D-03  0.495775D-03 -0.720992D-02 -0.632426D-03
     19  0.196439D-02  0.189320D-02 -0.640967D-03 -0.124936D-02 -0.134694D-02
     20 -0.627027D-03  0.166188D-02 -0.588506D-03 -0.129549D-02  0.390875D-03
     21  0.605751D-03 -0.811953D-03 -0.206121D-03 -0.876650D-04 -0.287625D-03
     22  0.473125D-02  0.256115D-03 -0.201118D-03 -0.123613D-02 -0.120690D-02
     23  0.285097D-02  0.237200D-02  0.284760D-02 -0.140052D-02  0.414234D-03
[...]
    R5        2.26412   0.00000   0.00000   0.00000   0.00000   2.26412
    R6        2.73976   0.00000   0.00000   0.00000   0.00000   2.73976
    R7        1.91915   0.00000   0.00000   0.00000   0.00000   1.91915
    R8        2.84409  -0.00000   0.00000  -0.00000  -0.00000   2.84409
    R9        2.05780  -0.00000   0.00000  -0.00000  -0.00000   2.05780
   R10        2.07343  -0.00000   0.00000  -0.00000  -0.00000   2.07343
    A1        1.81422  -0.00000   0.00000  -0.00000  -0.00000   1.81422
    A2        1.87872  -0.00000   0.00000  -0.00000  -0.00000   1.87872
    A3        1.87421   0.00000   0.00000   0.00000   0.00000   1.87422
    A4        1.84234  -0.00000   0.00000   0.00000   0.00000   1.84234
    A5        1.88838   0.00000   0.00000   0.00000   0.00000   1.88838
    A6        1.90891   0.00000   0.00000   0.00000   0.00000   1.90891
    A7        1.93445  -0.00000   0.00000  -0.00000  -0.00000   1.93445
    A8        1.95436  -0.00000   0.00000  -0.00000  -0.00000   1.95436
    A9        1.91640   0.00000   0.00000   0.00000   0.00000   1.91640
   A10        1.87091  -0.00000   0.00000  -0.00000  -0.00000   1.87091
   A11        1.87746   0.00000   0.00000   0.00000   0.00000   1.87746
   A12        2.15298  -0.00000   0.00000  -0.00000  -0.00000   2.15298
   A13        1.95153   0.00000   0.00000   0.00000   0.00000   1.95153
   A14        2.17823  -0.00000   0.00000  -0.00000  -0.00000   2.17823
    D1       -2.18143   0.00000   0.00000   0.00000   0.00000  -2.18142
    D2        2.08998  -0.00000   0.00000   0.00000   0.00000   2.08998
    D3        0.02016  -0.00000   0.00000  -0.00000  -0.00000   0.02016
    D4       -3.09088   0.00000   0.00000   0.00000   0.00000  -3.09088
    D5       -2.73110  -0.00000   0.00000   0.00000   0.00000  -2.73109
    D6        1.43673  -0.00000   0.00000   0.00000   0.00000   1.43673
    D7       -0.65986  -0.00000   0.00000   0.00000   0.00000  -0.65985
    D8       -0.75013   0.00000   0.00000   0.00000   0.00000  -0.75013
    D9       -2.86549   0.00000   0.00000   0.00000   0.00000  -2.86549
   D10        1.32111   0.00000   0.00000   0.00000   0.00000   1.32111
   D11       -2.82091  -0.00000   0.00000  -0.00000  -0.00000  -2.82091
   D12        0.35176  -0.00000   0.00000  -0.00000  -0.00000   0.35176
   D13       -0.69466  -0.00000   0.00000  -0.00000  -0.00000  -0.69466
   D14        2.47802   0.00000   0.00000   0.00000   0.00000   2.47802
   D15        1.33987   0.00000   0.00000   0.00000   0.00000   1.33987
   D16       -1.77064   0.00000   0.00000   0.00000   0.00000  -1.77064
         Item               Value     Threshold  Converged?
 Maximum Force            0.000001     0.000002     YES
 RMS     Force            0.000000     0.000001     YES
 Maximum Displacement     0.000003     0.000006     YES
 RMS     Displacement     0.000002     0.000004     YES
 Predicted change in Energy=-1.318393D-12
 Optimization completed.
    -- Stationary point found.
                           ----------------------------
                           !   Optimized Parameters   !
                           ! (Angstroms and Degrees)  !
 --------------------------                            --------------------------
 ! Name  Definition              Value          Derivative Info.                !
 --------------------------------------------------------------------------------
 ! R1    R(1,4)                  1.4174         -DE/DX =    0.0                 !
 ! R2    R(1,10)                 0.9596         -DE/DX =    0.0                 !
 ! R3    R(2,6)                  1.3404         -DE/DX =    0.0                 !
 ! R4    R(2,11)                 0.9662         -DE/DX =    0.0                 !
 ! R5    R(3,6)                  1.1981         -DE/DX =    0.0                 !
 ! R6    R(4,5)                  1.4498         -DE/DX =    0.0                 !
 ! R7    R(4,9)                  1.0156         -DE/DX =    0.0                 !
 ! R8    R(5,6)                  1.505          -DE/DX =    0.0                 !
 ! R9    R(5,7)                  1.0889         -DE/DX =    0.0                 !
 ! R10   R(5,8)                  1.0972         -DE/DX =    0.0                 !
 ! A1    A(4,1,10)             103.947          -DE/DX =    0.0                 !
 ! A2    A(6,2,11)             107.6428         -DE/DX =    0.0                 !
 ! A3    A(1,4,5)              107.3846         -DE/DX =    0.0                 !
 ! A4    A(1,4,9)              105.5581         -DE/DX =    0.0                 !
 ! A5    A(5,4,9)              108.196          -DE/DX =    0.0                 !
 ! A6    A(4,5,6)              109.3726         -DE/DX =    0.0                 !
 ! A7    A(4,5,7)              110.8357         -DE/DX =    0.0                 !
 ! A8    A(4,5,8)              111.9764         -DE/DX =    0.0                 !
 ! A9    A(6,5,7)              109.8018         -DE/DX =    0.0                 !
 ! A10   A(6,5,8)              107.195          -DE/DX =    0.0                 !
 ! A11   A(7,5,8)              107.5707         -DE/DX =    0.0                 !
 ! A12   A(2,6,3)              123.3569         -DE/DX =    0.0                 !
 ! A13   A(2,6,5)              111.8145         -DE/DX =    0.0                 !
 ! A14   A(3,6,5)              124.8033         -DE/DX =    0.0                 !
 ! D1    D(10,1,4,5)          -124.9865         -DE/DX =    0.0                 !
 ! D2    D(10,1,4,9)           119.747          -DE/DX =    0.0                 !
 ! D3    D(11,2,6,3)             1.155          -DE/DX =    0.0                 !
 ! D4    D(11,2,6,5)          -177.0942         -DE/DX =    0.0                 !
 ! D5    D(1,4,5,6)           -156.4803         -DE/DX =    0.0                 !
 ! D6    D(1,4,5,7)             82.3185         -DE/DX =    0.0                 !
 ! D7    D(1,4,5,8)            -37.807          -DE/DX =    0.0                 !
 ! D8    D(9,4,5,6)            -42.9795         -DE/DX =    0.0                 !
 ! D9    D(9,4,5,7)           -164.1807         -DE/DX =    0.0                 !
 ! D10   D(9,4,5,8)             75.6938         -DE/DX =    0.0                 !
 ! D11   D(4,5,6,2)           -161.6265         -DE/DX =    0.0                 !
 ! D12   D(4,5,6,3)             20.1545         -DE/DX =    0.0                 !
 ! D13   D(7,5,6,2)            -39.801          -DE/DX =    0.0                 !
 ! D14   D(7,5,6,3)            141.98           -DE/DX =    0.0                 !
 ! D15   D(8,5,6,2)             76.7689         -DE/DX =    0.0                 !
 ! D16   D(8,5,6,3)           -101.4501         -DE/DX =    0.0                 !
 --------------------------------------------------------------------------------
 GradGradGradGradGradGradGradGradGradGradGradGradGradGradGradGradGradGrad

 Leave Link  103 at Tue Apr  9 00:12:14 2019, MaxMem=   671088640 cpu:               0.3 elap:               0.0
 (Enter /shared/centos7/gaussian/g16/l9999.exe)

 ----------------------------------------------------------------------

 Electric dipole moment (input orientation):
 (Debye = 10**-18 statcoulomb cm , SI units = C m)
                  (au)            (Debye)         (10**-30 SI)
   Tot        0.580756D+00      0.147614D+01      0.492386D+01
   x          0.472665D+00      0.120140D+01      0.400742D+01
   y          0.325247D+00      0.826695D+00      0.275756D+01
   z          0.898889D-01      0.228475D+00      0.762110D+00

 Dipole polarizability, Alpha (input orientation).
 (esu units = cm**3 , SI units = C**2 m**2 J**-1)
 Alpha(0;0):
               (au)            (10**-24 esu)      (10**-40 SI)
   iso        0.452527D+02      0.670575D+01      0.746116D+01
   aniso      0.188343D+02      0.279095D+01      0.310535D+01
   xx         0.513703D+02      0.761229D+01      0.846981D+01
   yx        -0.358121D+01     -0.530680D+00     -0.590461D+00
   yy         0.477996D+02      0.708317D+01      0.788109D+01
   zx        -0.533609D+01     -0.790728D+00     -0.879803D+00
   zy         0.417750D+01      0.619042D+00      0.688777D+00
   zz         0.365882D+02      0.542181D+01      0.603258D+01

 ----------------------------------------------------------------------

 Dipole orientation:
     8          3.96437542         -3.35601563        -15.68912875
     8         10.40407175         -7.62996793        -11.47408539
     8          9.93897833         -8.01336822        -15.65567213
     7          5.37020321         -5.63033825        -15.52914398
     6          7.01707653         -5.42310636        -13.34942978
     6          9.23718086         -7.17069468        -13.67486207
     1          6.00585656         -5.89518507        -11.62052919
     1          7.77380654         -3.50541851        -13.12820288
     1          6.46441436         -5.67107118        -17.10526748
     1          2.23777434         -3.90977454        -15.70649137
     1         11.85231006         -8.68482641        -11.82521863

 Electric dipole moment (dipole orientation):
 (Debye = 10**-18 statcoulomb cm , SI units = C m)
                  (au)            (Debye)         (10**-30 SI)
   Tot        0.580756D+00      0.147614D+01      0.492386D+01
   x          0.000000D+00      0.000000D+00      0.000000D+00
   y          0.000000D+00      0.000000D+00      0.000000D+00
   z          0.580756D+00      0.147614D+01      0.492386D+01

 Dipole polarizability, Alpha (dipole orientation).
 (esu units = cm**3 , SI units = C**2 m**2 J**-1)
 Alpha(0;0):
               (au)            (10**-24 esu)      (10**-40 SI)
   iso        0.452527D+02      0.670575D+01      0.746116D+01
   aniso      0.188343D+02      0.279095D+01      0.310535D+01
   xx         0.486153D+02      0.720404D+01      0.801558D+01
   yx        -0.937439D+01     -0.138914D+01     -0.154563D+01
   yy         0.411313D+02      0.609503D+01      0.678164D+01
   zx         0.396984D+01      0.588269D+00      0.654537D+00
   zy         0.412319D+00      0.610994D-01      0.679822D-01
   zz         0.460114D+02      0.681818D+01      0.758625D+01

 ----------------------------------------------------------------------

 Test job not archived.
 1\1\GINC-C0235\Freq\RM062X\6-311+G(2df,2p)\C2H5N1O3\UNDERKOFFLER.C\09-
 Apr-2019\0\\#P Geom=AllCheck Guess=TCheck SCRF=Check Test GenChk RM062
 X/6-311+G(2df,2p) Freq\\Gaussian input prepared by ASE\\0,1\O,-5.16161
 42504,-6.7712612503,-1.9978373202\O,-1.000533321,-8.5145563424,-3.1594
 583813\O,-2.8263430992,-9.8044497723,-3.1880196068\N,-4.3004662315,-7.
 8941231419,-1.9161846458\C,-3.033389348,-7.5122509126,-2.5083546176\C,
 -2.3075960297,-8.7460217,-2.9732610644\H,-2.4183367164,-6.9706195797,-
 1.7913242706\H,-3.1679186046,-6.8655762736,-3.3844748941\H,-4.72388212
 95,-8.6054749148,-2.504467724\H,-5.4430058339,-6.6292135913,-1.0915241
 919\H,-0.6046598715,-9.3277100239,-3.4993357396\\Version=EM64L-G16RevA
 .03\State=1-A\HF=-359.5924891\RMSD=8.457e-09\RMSF=8.176e-07\ZeroPoint=
 0.0854096\Thermal=0.0919117\Dipole=0.4726652,0.3252469,0.0898889\Dipol
 eDeriv=-0.6543092,0.1232343,0.1113803,0.1875018,-0.5136747,-0.131319,-
 0.0122352,-0.0210396,-0.21119,-1.4410165,-0.1328371,0.1629065,0.030393
 8,-0.4154472,-0.0163875,0.2146877,0.0184383,-0.4053018,-0.8075476,-0.0
 956521,0.0639148,-0.3099845,-1.0862568,-0.152231,-0.0161176,-0.1969708
 ,-0.4096384,-0.0374619,-0.242344,0.0009593,-0.2347876,-0.043626,0.1429
 104,0.075263,0.1157257,-0.3166089,0.314902,0.1238675,-0.0651874,0.1908
 779,-0.0893804,-0.1210691,0.0136482,-0.0531876,0.2643335,1.8128285,0.1
 942394,-0.2220061,0.2213158,1.3655218,0.2455705,-0.198698,0.247218,0.3
 959,-0.0194827,-0.0101699,-0.0132873,-0.0517348,0.045799,-0.0123657,-0
 .0381473,-0.0728002,0.0132229,0.0027467,0.0444399,0.0114082,-0.0432501
 ,0.0364635,0.0643194,0.0598505,0.0381508,-0.0552565,0.1522749,0.018734
 8,-0.0162121,0.0233795,0.1811733,-0.0277595,-0.0542624,-0.0797273,0.16
 28542,0.3172592,0.0216646,-0.0164328,0.0187483,0.2887821,0.0374943,-0.
 0300206,0.0327996,0.2267968,0.3598067,-0.0451775,-0.0174434,-0.0324601
 ,0.2306455,-0.0291628,-0.0139683,-0.0286069,0.3348881\Polar=51.3702505
 ,-3.5812081,47.7995929,-5.3360939,4.177501,36.5881748\Quadrupole=1.983
 9224,-2.8727336,0.8888112,-2.1339836,-2.824932,1.8939409\PG=C01 [X(C2H
 5N1O3)]\NImag=0\\0.21078659,-0.17168158,0.25226102,-0.15403247,0.06180
 799,0.56681888,-0.00348833,0.00227029,0.00156818,0.50002387,0.00296556
 ,-0.00019397,-0.00141250,-0.08565925,0.51423200,0.00178744,-0.00040800
 ,-0.00062993,-0.11927155,0.16792451,0.11604720,-0.00015043,0.00250826,
 0.00089142,-0.06431633,-0.07741180,-0.00465431,0.26428788,0.00270667,0
 .00121995,-0.00056897,-0.06886183,-0.01047722,0.00140326,0.31382319,0.
 71842560,0.00068654,-0.00086669,-0.00006059,-0.00373967,0.00308221,0.0
 3118462,0.04792852,0.14201746,0.06568917,-0.13199535,0.09504307,-0.001
 94481,0.00203094,0.00048497,0.00023450,-0.00156316,-0.00414399,-0.0007
 3146,0.51251918,0.10048570,-0.19449707,0.00949012,0.00483532,-0.005069
 69,-0.00232616,0.00158664,0.00042739,-0.00016599,0.06967879,0.53660011
 ,0.00322462,-0.00241931,-0.06570676,0.00083814,-0.00058824,0.00078320,
 0.00016120,0.00078416,0.00090282,0.00955774,0.15222765,0.32700872,-0.0
 2862626,0.00465600,0.01714200,-0.03187206,0.03184902,0.01624669,0.0133
 6227,-0.02024509,-0.00226247,-0.18895958,-0.04660297,0.02819901,0.5587
 4879,0.04635477,-0.00259197,-0.02109240,0.00178337,0.00628626,-0.00153
 189,0.00155793,-0.04484639,-0.01648409,-0.07080910,-0.11024916,0.01307
 474,0.03558378,0.55417642,-0.00237633,0.00046084,-0.00202099,0.0088394
 7,-0.00995743,0.00748415,0.00495288,-0.01611821,0.02072466,0.08008709,
 0.01336957,-0.09613336,0.04128675,0.02033621,0.54297730,-0.00324004,-0
 .00322746,0.00475511,-0.28879759,-0.00141791,0.04384091,-0.22260410,-0
 .22846698,-0.03957942,-0.02272074,0.02770796,0.00770125,-0.11339265,0.
 05062857,0.01995237,0.67822665,-0.00768280,-0.00024041,0.00110358,-0.0
 2360295,-0.12466190,-0.01382363,-0.24322061,-0.65013967,-0.12337509,0.
 00700508,0.00661344,0.00237293,0.05336950,-0.15177867,-0.02964187,0.16
 003945,0.93812682,-0.00142549,0.00145449,-0.00077838,0.03727946,-0.018
 18479,-0.07934129,-0.04627136,-0.12543693,-0.10921926,0.01184822,-0.01
 172461,-0.00731436,0.01845852,-0.02961297,-0.10410691,-0.03769158,0.17
 887524,0.29549017,0.00134444,0.00183025,-0.00002753,-0.00166503,0.0011
 8879,-0.00034501,-0.00114273,0.00547396,-0.00093854,-0.02254625,-0.022
 88954,-0.01351264,-0.12655721,-0.06949282,-0.09870415,0.01188508,0.003
 82018,0.01281201,0.14565961,-0.00097594,0.00073978,0.00060477,0.000363
 84,0.00116772,0.00195734,0.00355624,-0.00500294,0.00021174,-0.00613477
 ,-0.00563470,-0.00373376,-0.06976390,-0.11058063,-0.09048524,-0.018563
 38,-0.01378617,-0.02041724,0.08278623,0.12188166,-0.00071982,0.0002212
 2,-0.00001092,0.00114073,0.00044095,0.00075535,0.00143527,-0.00102098,
 0.00065623,0.01137977,0.01162402,0.01446924,-0.10114050,-0.09487156,-0
 .17495634,-0.00810272,-0.00169910,-0.00710816,0.10468614,0.09710699,0.
 18404417,0.00443242,-0.00188487,-0.00254303,-0.00147804,0.00007960,0.0
 0218234,0.00007741,0.00098863,0.00239899,-0.00704590,-0.02209742,0.032
 59156,-0.05405500,0.02785707,-0.03566462,-0.00102366,0.00631867,-0.016
 58462,-0.00208419,0.01010505,-0.01277260,0.05966720,-0.00003332,0.0016
 6128,-0.00285480,-0.00000131,0.00086813,-0.00194338,0.00064646,-0.0006
 3558,-0.00498521,-0.00329036,-0.00630962,0.01054601,0.02267857,-0.1331
 9306,0.11837733,0.00385956,-0.01880480,0.02516767,-0.00291602,0.010541
 51,-0.01272970,-0.02141644,0.14616336,-0.00102298,-0.00116133,0.001827
 69,0.00054120,0.00030139,-0.00063255,-0.00082680,-0.00212460,-0.002945
 39,0.01057605,0.01151517,-0.01309844,-0.03281421,0.11311648,-0.2023173
 1,0.00019669,-0.00436586,0.01096203,-0.00543750,0.01412903,-0.01787108
 ,0.02962137,-0.13125714,0.22315493,0.00233624,0.03310982,0.01959364,0.
 00230704,0.00104401,-0.00012300,0.00330476,0.00186045,0.00003412,-0.12
 724612,-0.12083289,-0.09313112,-0.01922380,-0.02372737,-0.02293027,-0.
 00540338,-0.00532814,-0.00097512,-0.00505026,-0.00132044,0.00406827,0.
 00102984,-0.00006504,0.00010929,0.14873005,0.00050707,-0.02889490,-0.0
 2022025,-0.00117353,-0.00113114,-0.00006730,0.00073376,-0.00323577,-0.
 00037373,-0.10342687,-0.20478939,-0.13976186,-0.01148608,-0.00703260,-
 0.00518806,0.00225170,0.00409041,-0.00031311,0.00081672,0.00044898,0.0
 0095531,0.00051394,-0.00007456,-0.00059444,0.11018643,0.24435809,0.003
 91283,0.01227850,0.00232456,-0.00065091,0.00016172,0.00026920,0.000828
 64,0.00006719,-0.00215420,-0.11264882,-0.19122162,-0.17200450,0.013627
 24,0.01665017,0.00416740,0.00065100,-0.00105023,0.00139331,0.00155277,
 0.00019848,-0.00002526,0.00077839,0.00077996,0.00065753,0.09280759,0.1
 6453367,0.16521881,-0.05097582,0.03757738,0.11424058,-0.00025693,0.000
 39042,0.00013786,0.00028489,-0.00035328,-0.00012741,-0.01269268,0.0062
 8749,0.02453890,-0.00389977,0.00513663,0.00313976,-0.00197062,-0.00028
 024,0.00020556,-0.00037213,0.00004542,-0.00004564,0.00030916,0.0004997
 2,-0.00061904,-0.00050833,0.00084336,-0.00088351,0.07026844,0.02746483
 ,-0.02952275,-0.02691703,-0.00005740,-0.00015959,-0.00000192,0.0002186
 6,-0.00011524,0.00016277,0.01599883,-0.01695623,-0.03287315,0.00109655
 ,-0.00279319,-0.00002621,0.00081901,0.00017383,-0.00057526,-0.00023234
 ,0.00024687,-0.00011442,-0.00013172,-0.00022802,0.00018321,0.00493103,
 -0.00374345,-0.00229305,-0.05017159,0.05306720,0.14988597,-0.07141885,
 -0.50173629,-0.00074319,0.00028857,0.00016971,-0.00046573,0.00027587,0
 .00013905,-0.00843749,0.00721127,0.01050017,0.00033354,0.00121240,0.00
 032999,0.00031125,-0.00049011,0.00008777,-0.00017775,-0.00026678,-0.00
 013235,-0.00048582,-0.00028383,0.00037328,0.00040226,0.00103311,0.0001
 5612,-0.14062074,0.06244231,0.49011681,-0.00042346,-0.00020116,0.00035
 692,-0.11248753,0.12648659,0.05996412,0.00845954,-0.00278171,-0.003669
 21,0.00021966,0.00184091,-0.00016866,-0.00552472,-0.00487284,0.0014170
 4,-0.03095893,0.04956186,0.02234439,0.00052865,-0.00009835,0.00007111,
 0.00017075,0.00003819,-0.00032407,-0.00027604,0.00023348,0.00002478,-0
 .00018621,0.00006414,-0.00000230,0.14047828,-0.00011093,0.00005903,0.0
 0005949,0.17010345,-0.38086060,-0.15118282,-0.00399872,-0.00562012,0.0
 0077662,-0.00040566,-0.00013508,0.00037082,-0.00113538,0.00260300,-0.0
 0112693,0.00636948,0.01040712,0.00076752,-0.00038540,-0.00002210,0.000
 08728,-0.00033252,0.00001135,0.00025810,0.00014212,0.00000433,-0.00010
 479,0.00002469,0.00003057,-0.00000395,-0.17027111,0.37352250,0.0000796
 8,0.00005115,-0.00002728,0.07419815,-0.14205638,-0.07608967,-0.0039797
 2,0.00072177,-0.00491711,0.00007920,0.00000059,0.00059328,0.00092343,-
 0.00079708,0.00385142,0.00796512,-0.00790586,-0.00006493,0.00009220,0.
 00069467,0.00017911,0.00047805,-0.00081691,-0.00011068,0.00014433,-0.0
 0000335,-0.00000298,0.00003367,0.00001275,-0.00000427,-0.08001410,0.15
 009867,0.07659312\\0.00000055,0.00000146,-0.00000068,0.00000046,-0.000
 00149,0.00000023,-0.00000086,-0.00000041,0.00000096,0.00000017,0.00000
 066,-0.00000002,0.00000005,0.,-0.00000021,-0.00000122,-0.00000112,0.00
 000041,0.00000057,0.00000002,-0.00000042,0.00000065,-0.00000038,-0.000
 00058,-0.00000027,0.00000098,0.00000025,0.00000065,0.00000195,-0.00000
 079,-0.00000074,-0.00000167,0.00000086\\\@


 PENOTUS DIED A HUNDRED YEARS OLD WANTING BUT TWO...
 AND HE USED TO SAY BEFORE HE DIED, HAVING SPENT HIS
 WHOLE LIFE IN VAINLY SEARCHING AFTER THE PHILOSOPHER'S
 STONE, THAT IF HE HAD A MORTAL ENEMY HE DID NOT DARE
 TO ENCOUNTER OPENLY, HE WOULD ADVISE HIM ABOVE ALL
 THINGS TO GIVE HIMSELF UP TO THE STUDY AND PRACTICE
 OF ALCHEMY.  --  NICOLAS LEMERY, M.D.
 "A COURSE OF CHYMISTRY", WALTER KETTILBY, LONDON, 1686
 Job cpu time:       0 days  0 hours 47 minutes 52.2 seconds.
 Elapsed time:       0 days  0 hours  2 minutes 25.1 seconds.
 File lengths (MBytes):  RWF=   1328 Int=      0 D2E=      0 Chk=     32 Scr=     32
 Normal termination of Gaussian 16 at Tue Apr  9 00:12:14 2019.
