 Entering Gaussian System, Link 0=g16
 Input=NPWGWQRXHVJJRD-UHFFFAOYSA-N_36by10.0_tor45_a1.com
 Output=NPWGWQRXHVJJRD-UHFFFAOYSA-N_36by10.0_tor45_a1.log
 Initial command:
 /shared/centos7/gaussian/g16/l1.exe "/scratch/underkoffler.c/gaussian_scratch/Gau-44762.inp" -scrdir="/scratch/underkoffler.c/gaussian_scratch/"
 Entering Link 1 = /shared/centos7/gaussian/g16/l1.exe PID=     44763.
  
 Copyright (c) 1988,1990,1992,1993,1995,1998,2003,2009,2016,
            Gaussian, Inc.  All Rights Reserved.
  
 This is part of the Gaussian(R) 16 program.  It is based on
 the Gaussian(R) 09 system (copyright 2009, Gaussian, Inc.),
 the Gaussian(R) 03 system (copyright 2003, Gaussian, Inc.),
 the Gaussian(R) 98 system (copyright 1998, Gaussian, Inc.),
 the Gaussian(R) 94 system (copyright 1995, Gaussian, Inc.),
 the Gaussian 92(TM) system (copyright 1992, Gaussian, Inc.),
 the Gaussian 90(TM) system (copyright 1990, Gaussian, Inc.),
 the Gaussian 88(TM) system (copyright 1988, Gaussian, Inc.),
 the Gaussian 86(TM) system (copyright 1986, Carnegie Mellon
 University), and the Gaussian 82(TM) system (copyright 1983,
 Carnegie Mellon University). Gaussian is a federally registered
 trademark of Gaussian, Inc.
  
 This software contains proprietary and confidential information,
 including trade secrets, belonging to Gaussian, Inc.
  
 This software is provided under written license and may be
 used, copied, transmitted, or stored only in accord with that
 written license.
  
 The following legend is applicable only to US Government
 contracts under FAR:
  
                    RESTRICTED RIGHTS LEGEND
  
 Use, reproduction and disclosure by the US Government is
 subject to restrictions as set forth in subparagraphs (a)
 and (c) of the Commercial Computer Software - Restricted
 Rights clause in FAR 52.227-19.
  
 Gaussian, Inc.
 340 Quinnipiac St., Bldg. 40, Wallingford CT 06492
  
  
 ---------------------------------------------------------------
 Warning -- This program may not be used in any manner that
 competes with the business of Gaussian, Inc. or will provide
 assistance to any competitor of Gaussian, Inc.  The licensee
 of this program is prohibited from giving any competitor of
 Gaussian, Inc. access to this program.  By using this program,
 the user acknowledges that Gaussian, Inc. is engaged in the
 business of creating and licensing software in the field of
 computational chemistry and represents and warrants to the
 licensee that it is not a competitor of Gaussian, Inc. and that
 it will not use this program in any manner prohibited above.
 ---------------------------------------------------------------
  

 Cite this work as:
 Gaussian 16, Revision A.03,
 M. J. Frisch, G. W. Trucks, H. B. Schlegel, G. E. Scuseria, 
 M. A. Robb, J. R. Cheeseman, G. Scalmani, V. Barone, 
 G. A. Petersson, H. Nakatsuji, X. Li, M. Caricato, A. V. Marenich, 
 J. Bloino, B. G. Janesko, R. Gomperts, B. Mennucci, H. P. Hratchian, 
 J. V. Ortiz, A. F. Izmaylov, J. L. Sonnenberg, D. Williams-Young, 
 F. Ding, F. Lipparini, F. Egidi, J. Goings, B. Peng, A. Petrone, 
 T. Henderson, D. Ranasinghe, V. G. Zakrzewski, J. Gao, N. Rega, 
 G. Zheng, W. Liang, M. Hada, M. Ehara, K. Toyota, R. Fukuda, 
 J. Hasegawa, M. Ishida, T. Nakajima, Y. Honda, O. Kitao, H. Nakai, 
 T. Vreven, K. Throssell, J. A. Montgomery, Jr., J. E. Peralta, 
 F. Ogliaro, M. J. Bearpark, J. J. Heyd, E. N. Brothers, K. N. Kudin, 
 V. N. Staroverov, T. A. Keith, R. Kobayashi, J. Normand, 
 K. Raghavachari, A. P. Rendell, J. C. Burant, S. S. Iyengar, 
 J. Tomasi, M. Cossi, J. M. Millam, M. Klene, C. Adamo, R. Cammi, 
 J. W. Ochterski, R. L. Martin, K. Morokuma, O. Farkas, 
 J. B. Foresman, and D. J. Fox, Gaussian, Inc., Wallingford CT, 2016.
 
 ******************************************
 Gaussian 16:  EM64L-G16RevA.03 25-Dec-2016
                11-Mar-2019 
 ******************************************
 %nprocshared=20
 Will use up to   20 processors via shared memory.
 %mem=5GB
 ----------------------------------------------
 #p m062x/6-311+g(2df,2p) Opt=(CalcFC,ModRedun)
 ----------------------------------------------
 1/10=4,18=120,19=15,26=3,38=1/1,3;
 2/9=110,12=2,17=6,18=5,40=1/2;
 3/5=4,6=6,7=214,11=2,25=1,30=1,71=2,74=-55,140=1/1,2,3;
 4//1;
 5/5=2,38=5/2;
 8/6=4,10=90,11=11/1;
 11/6=1,8=1,9=11,15=111,16=1/1,2,10;
 10/6=1,13=1/2;
 6/7=2,8=2,9=2,10=2,28=1/1;
 7/10=1,18=20,25=1/1,2,3,16;
 1/10=4,18=20,19=15,26=3/3(2);
 2/9=110/2;
 99//99;
 2/9=110/2;
 3/5=4,6=6,7=214,11=2,25=1,30=1,71=1,74=-55/1,2,3;
 4/5=5,16=3,69=1/1;
 5/5=2,38=5/2;
 7//1,2,3,16;
 1/18=20,19=15,26=3/3(-5);
 2/9=110/2;
 6/7=2,8=2,9=2,10=2,19=2,28=1/1;
 99/9=1/99;
 Leave Link    1 at Mon Mar 11 19:45:10 2019, MaxMem=   671088640 cpu:              40.7 elap:               2.1
 (Enter /shared/centos7/gaussian/g16/l101.exe)
 ----------------------------------------
 Gaussian Input Prepared from Scan Object
 ----------------------------------------
 Symbolic Z-matrix:
 Charge =  0 Multiplicity = 1
 O                    -2.88942  -2.71006   0.30602 
 O                    -4.52046  -0.50962  -2.76873 
 O                    -3.25246  -0.14063  -0.96505 
 N                    -4.25132  -2.32078   0.33384 
 C                    -4.67997  -2.08447  -1.02604 
 C                    -4.06091  -0.80787  -1.54263 
 H                    -4.40333  -2.88806  -1.71842 
 H                    -5.76535  -1.97602  -1.04572 
 H                    -4.72999  -3.13384   0.70175 
 H                    -2.429    -1.89307   0.52229 
 H                    -4.07793   0.29824  -3.05914 
 
 The following ModRedundant input section has been read:
 B       4       5 B                                                           
 B       2       6 B                                                           
 B       2      11 B                                                           
 B       1      10 B                                                           
 B       4       9 B                                                           
 B       1       4 B                                                           
 B       5       7 B                                                           
 B       3       6 B                                                           
 B       5       8 B                                                           
 B       5       6 B                                                           
 D       8       5       6       3 S  36 10.000                                
 
 ITRead=  0  0  0  0  0  0  0  0  0  0  0
 MicOpt= -1 -1 -1 -1 -1 -1 -1 -1 -1 -1 -1
 NAtoms=     11 NQM=       11 NQMF=       0 NMMI=      0 NMMIF=      0
                NMic=       0 NMicF=      0.
                    Isotopes and Nuclear Properties:
 (Nuclear quadrupole moments (NQMom) in fm**2, nuclear magnetic moments (NMagM)
  in nuclear magnetons)

  Atom         1           2           3           4           5           6           7           8           9          10
 IAtWgt=          16          16          16          14          12          12           1           1           1           1
 AtmWgt=  15.9949146  15.9949146  15.9949146  14.0030740  12.0000000  12.0000000   1.0078250   1.0078250   1.0078250   1.0078250
 NucSpn=           0           0           0           2           0           0           1           1           1           1
 AtZEff=  -0.0000000  -0.0000000  -0.0000000  -0.0000000  -0.0000000  -0.0000000  -0.0000000  -0.0000000  -0.0000000  -0.0000000
 NQMom=    0.0000000   0.0000000   0.0000000   2.0440000   0.0000000   0.0000000   0.0000000   0.0000000   0.0000000   0.0000000
 NMagM=    0.0000000   0.0000000   0.0000000   0.4037610   0.0000000   0.0000000   2.7928460   2.7928460   2.7928460   2.7928460
 AtZNuc=   8.0000000   8.0000000   8.0000000   7.0000000   6.0000000   6.0000000   1.0000000   1.0000000   1.0000000   1.0000000

  Atom        11
 IAtWgt=           1
 AtmWgt=   1.0078250
 NucSpn=           1
 AtZEff=  -0.0000000
 NQMom=    0.0000000
 NMagM=    2.7928460
 AtZNuc=   1.0000000
 Leave Link  101 at Mon Mar 11 19:45:10 2019, MaxMem=   671088640 cpu:               6.0 elap:               0.3
 (Enter /shared/centos7/gaussian/g16/l103.exe)

 GradGradGradGradGradGradGradGradGradGradGradGradGradGradGradGradGradGrad
 Berny optimization.
 Initialization pass.
                           ----------------------------
                           !    Initial Parameters    !
                           ! (Angstroms and Degrees)  !
 --------------------------                            --------------------------
 ! Name  Definition              Value          Derivative Info.                !
 --------------------------------------------------------------------------------
 ! R1    R(1,4)                  1.4167         calculate D2E/DX2 analytically  !
 ! R2    R(1,10)                 0.9624         calculate D2E/DX2 analytically  !
 ! R3    R(2,6)                  1.3429         calculate D2E/DX2 analytically  !
 ! R4    R(2,11)                 0.9658         calculate D2E/DX2 analytically  !
 ! R5    R(3,6)                  1.1968         calculate D2E/DX2 analytically  !
 ! R6    R(4,5)                  1.4453         calculate D2E/DX2 analytically  !
 ! R7    R(4,9)                  1.0127         calculate D2E/DX2 analytically  !
 ! R8    R(5,6)                  1.5099         calculate D2E/DX2 analytically  !
 ! R9    R(5,7)                  1.0962         calculate D2E/DX2 analytically  !
 ! R10   R(5,8)                  1.091          calculate D2E/DX2 analytically  !
 ! A1    A(4,1,10)             102.8396         calculate D2E/DX2 analytically  !
 ! A2    A(6,2,11)             107.6677         calculate D2E/DX2 analytically  !
 ! A3    A(1,4,5)              108.1532         calculate D2E/DX2 analytically  !
 ! A4    A(1,4,9)              103.9401         calculate D2E/DX2 analytically  !
 ! A5    A(5,4,9)              109.4465         calculate D2E/DX2 analytically  !
 ! A6    A(4,5,6)              109.7891         calculate D2E/DX2 analytically  !
 ! A7    A(4,5,7)              113.5518         calculate D2E/DX2 analytically  !
 ! A8    A(4,5,8)              109.1649         calculate D2E/DX2 analytically  !
 ! A9    A(6,5,7)              107.4715         calculate D2E/DX2 analytically  !
 ! A10   A(6,5,8)              108.5231         calculate D2E/DX2 analytically  !
 ! A11   A(7,5,8)              108.213          calculate D2E/DX2 analytically  !
 ! A12   A(2,6,3)              123.2266         calculate D2E/DX2 analytically  !
 ! A13   A(2,6,5)              111.0903         calculate D2E/DX2 analytically  !
 ! A14   A(3,6,5)              125.676          calculate D2E/DX2 analytically  !
 ! D1    D(10,1,4,5)            99.0223         calculate D2E/DX2 analytically  !
 ! D2    D(10,1,4,9)          -144.7217         calculate D2E/DX2 analytically  !
 ! D3    D(11,2,6,3)             0.5092         calculate D2E/DX2 analytically  !
 ! D4    D(11,2,6,5)          -178.5681         calculate D2E/DX2 analytically  !
 ! D5    D(1,4,5,6)            -72.1532         calculate D2E/DX2 analytically  !
 ! D6    D(1,4,5,7)             48.1718         calculate D2E/DX2 analytically  !
 ! D7    D(1,4,5,8)            168.999          calculate D2E/DX2 analytically  !
 ! D8    D(9,4,5,6)            175.2262         calculate D2E/DX2 analytically  !
 ! D9    D(9,4,5,7)            -64.4488         calculate D2E/DX2 analytically  !
 ! D10   D(9,4,5,8)             56.3783         calculate D2E/DX2 analytically  !
 ! D11   D(4,5,6,2)           -175.3513         calculate D2E/DX2 analytically  !
 ! D12   D(4,5,6,3)              5.5989         calculate D2E/DX2 analytically  !
 ! D13   D(7,5,6,2)             60.7004         calculate D2E/DX2 analytically  !
 ! D14   D(7,5,6,3)           -118.3494         calculate D2E/DX2 analytically  !
 ! D15   D(8,5,6,2)            -56.109          calculate D2E/DX2 analytically  !
 ! D16   D(8,5,6,3)            124.8412         Scan                            !
 --------------------------------------------------------------------------------
 Trust Radius=3.00D-01 FncErr=1.00D-07 GrdErr=1.00D-06 EigMax=2.50D+02 EigMin=1.00D-04
 Number of optimizations in scan=  37
 Number of steps in this run=     50 maximum allowed number of steps=    100.
 GradGradGradGradGradGradGradGradGradGradGradGradGradGradGradGradGradGrad

 Leave Link  103 at Mon Mar 11 19:45:10 2019, MaxMem=   671088640 cpu:               0.1 elap:               0.0
 (Enter /shared/centos7/gaussian/g16/l202.exe)
                          Input orientation:                          
 ---------------------------------------------------------------------
 Center     Atomic      Atomic             Coordinates (Angstroms)
 Number     Number       Type             X           Y           Z
 ---------------------------------------------------------------------
      1          8           0       -2.889417   -2.710055    0.306018
      2          8           0       -4.520465   -0.509618   -2.768731
      3          8           0       -3.252463   -0.140629   -0.965046
      4          7           0       -4.251322   -2.320782    0.333837
      5          6           0       -4.679969   -2.084468   -1.026043
      6          6           0       -4.060909   -0.807868   -1.542631
      7          1           0       -4.403327   -2.888060   -1.718418
      8          1           0       -5.765350   -1.976021   -1.045718
      9          1           0       -4.729988   -3.133839    0.701754
     10          1           0       -2.429005   -1.893069    0.522288
     11          1           0       -4.077929    0.298244   -3.059140
 ---------------------------------------------------------------------
                    Distance matrix (angstroms):
                    1          2          3          4          5
     1  O    0.000000
     2  O    4.117806   0.000000
     3  O    2.889525   2.235456   0.000000
     4  N    1.416720   3.602594   2.727248   0.000000
     5  C    2.317720   2.354264   2.412469   1.445287   0.000000
     6  C    2.899692   1.342932   1.196828   2.417912   1.509903
     7  H    2.534158   2.602665   3.072529   2.134634   1.096210
     8  H    3.261440   2.582412   3.112840   2.077092   1.090962
     9  H    1.929742   4.355997   3.731034   1.012693   2.022119
    10  H    0.962402   4.137505   2.441575   1.881301   2.738759
    11  H    4.667624   0.965824   2.293302   4.289715   3.189554
                    6          7          8          9         10
     6  C    0.000000
     7  H    2.115503   0.000000
     8  H    2.125235   1.771849   0.000000
     9  H    3.300769   2.454455   2.337985   0.000000
    10  H    2.846869   3.147812   3.687373   2.620352   0.000000
    11  H    1.877118   3.472168   3.474700   5.133099   4.510812
                   11
    11  H    0.000000
 Stoichiometry    C2H5NO3
 Framework group  C1[X(C2H5NO3)]
 Deg. of freedom    27
 Full point group                 C1      NOp   1
 Largest Abelian subgroup         C1      NOp   1
 Largest concise Abelian subgroup C1      NOp   1
                         Standard orientation:                         
 ---------------------------------------------------------------------
 Center     Atomic      Atomic             Coordinates (Angstroms)
 Number     Number       Type             X           Y           Z
 ---------------------------------------------------------------------
      1          8           0       -1.926880    0.471266    0.523260
      2          8           0        2.087275   -0.408317    0.260170
      3          8           0        0.718905    1.257290   -0.331927
      4          7           0       -1.438880   -0.404190   -0.478003
      5          6           0       -0.184792   -0.957666   -0.019980
      6          6           0        0.888711    0.103200   -0.064267
      7          1           0       -0.224586   -1.343011    1.005497
      8          1           0        0.108340   -1.775140   -0.680289
      9          1           0       -2.135504   -1.137945   -0.521163
     10          1           0       -1.663353    1.337460    0.196949
     11          1           0        2.729354    0.312849    0.238476
 ---------------------------------------------------------------------
 Rotational constants (GHZ):           7.7313576           2.4836061           2.0692647
 Leave Link  202 at Mon Mar 11 19:45:10 2019, MaxMem=   671088640 cpu:               0.2 elap:               0.0
 (Enter /shared/centos7/gaussian/g16/l301.exe)
 Standard basis: 6-311+G(2df,2p) (5D, 7F)
 Ernie: Thresh=  0.10000D-02 Tol=  0.10000D-05 Strict=F.
 There are   279 symmetry adapted cartesian basis functions of A   symmetry.
 There are   249 symmetry adapted basis functions of A   symmetry.
   249 basis functions,   367 primitive gaussians,   279 cartesian basis functions
    24 alpha electrons       24 beta electrons
       nuclear repulsion energy       249.1135376242 Hartrees.
 IExCor= 4336 DFT=T Ex+Corr=M062X ExCW=0 ScaHFX=  0.540000
 ScaDFX=  1.000000  1.000000  1.000000  1.000000 ScalE2=  1.000000  1.000000
 IRadAn=      5 IRanWt=     -1 IRanGd=            0 ICorTp=0 IEmpDi=  4
 NAtoms=   11 NActive=   11 NUniq=   11 SFac= 1.00D+00 NAtFMM=   60 NAOKFM=F Big=F
 Integral buffers will be    131072 words long.
 Raffenetti 2 integral format.
 Two-electron integral symmetry is turned on.
 Leave Link  301 at Mon Mar 11 19:45:10 2019, MaxMem=   671088640 cpu:               0.8 elap:               0.1
 (Enter /shared/centos7/gaussian/g16/l302.exe)
 NPDir=0 NMtPBC=     1 NCelOv=     1 NCel=       1 NClECP=     1 NCelD=      1
         NCelK=      1 NCelE2=     1 NClLst=     1 CellRange=     0.0.
 One-electron integrals computed using PRISM.
 One-electron integral symmetry used in STVInt
 NBasis=   249 RedAO= T EigKep=  5.17D-05  NBF=   249
 NBsUse=   249 1.00D-06 EigRej= -1.00D+00 NBFU=   249
 Precomputing XC quadrature grid using
 IXCGrd= 4 IRadAn=           5 IRanWt=          -1 IRanGd=           0 AccXCQ= 0.00D+00.
 Generated NRdTot=       0 NPtTot=           0 NUsed=           0 NTot=          32
 NSgBfM=   279   279   279   279   279 MxSgAt=    11 MxSgA2=    11.
 Leave Link  302 at Mon Mar 11 19:45:10 2019, MaxMem=   671088640 cpu:               5.0 elap:               0.3
 (Enter /shared/centos7/gaussian/g16/l303.exe)
 DipDrv:  MaxL=1.
 Leave Link  303 at Mon Mar 11 19:45:11 2019, MaxMem=   671088640 cpu:               0.5 elap:               0.0
 (Enter /shared/centos7/gaussian/g16/l401.exe)
 ExpMin= 4.38D-02 ExpMax= 8.59D+03 ExpMxC= 1.30D+03 IAcc=3 IRadAn=         5 AccDes= 0.00D+00
 Harris functional with IExCor= 1009 and IRadAn=       5 diagonalized for initial guess.
 HarFok:  IExCor= 1009 AccDes= 0.00D+00 IRadAn=         5 IDoV= 1 UseB2=F ITyADJ=14
 ICtDFT=  3500011 ScaDFX=  1.000000  1.000000  1.000000  1.000000
 FoFCou: FMM=F IPFlag=           0 FMFlag=      100000 FMFlg1=           0
         NFxFlg=           0 DoJE=T BraDBF=F KetDBF=T FulRan=T
         wScrn=  0.000000 ICntrl=       500 IOpCl=  0 I1Cent=   200000004 NGrid=           0
         NMat0=    1 NMatS0=      1 NMatT0=    0 NMatD0=    1 NMtDS0=    0 NMtDT0=    0
 Petite list used in FoFCou.
 Harris En= -359.413921687285    
 JPrj=0 DoOrth=F DoCkMO=F.
 Leave Link  401 at Mon Mar 11 19:45:11 2019, MaxMem=   671088640 cpu:              15.6 elap:               0.8
 (Enter /shared/centos7/gaussian/g16/l502.exe)
 Keep R1 ints in memory in canonical form, NReq=506568544.
 FoFCou: FMM=F IPFlag=           0 FMFlag=           0 FMFlg1=           0
         NFxFlg=           0 DoJE=F BraDBF=F KetDBF=F FulRan=T
         wScrn=  0.000000 ICntrl=       600 IOpCl=  0 I1Cent=           0 NGrid=           0
         NMat0=    1 NMatS0=  31125 NMatT0=    0 NMatD0=    1 NMtDS0=    0 NMtDT0=    0
 Symmetry not used in FoFCou.
 Two-electron integral symmetry not used.
 Closed shell SCF:
 Using DIIS extrapolation, IDIIS=  1040.
 NGot=   671088640 LenX=   186526494 LenY=   186448212
 Requested convergence on RMS density matrix=1.00D-08 within 128 cycles.
 Requested convergence on MAX density matrix=1.00D-06.
 Requested convergence on             energy=1.00D-06.
 No special actions if energy rises.

 Cycle   1  Pass 1  IDiag  1:
 E= -359.443229081727    
 DIIS: error= 2.12D-02 at cycle   1 NSaved=   1.
 NSaved= 1 IEnMin= 1 EnMin= -359.443229081727     IErMin= 1 ErrMin= 2.12D-02
 ErrMax= 2.12D-02  0.00D+00 EMaxC= 1.00D-01 BMatC= 2.64D-01 BMatP= 2.64D-01
 IDIUse=3 WtCom= 7.88D-01 WtEn= 2.12D-01
 Coeff-Com:  0.100D+01
 Coeff-En:   0.100D+01
 Coeff:      0.100D+01
 Gap=     0.340 Goal=   None    Shift=    0.000
 GapD=    0.340 DampG=1.000 DampE=0.500 DampFc=0.5000 IDamp=-1.
 Damping current iteration by 5.00D-01
 RMSDP=2.73D-03 MaxDP=8.90D-02              OVMax= 1.70D-01

 Cycle   2  Pass 1  IDiag  1:
 E= -359.512174860780     Delta-E=       -0.068945779053 Rises=F Damp=T
 DIIS: error= 5.95D-03 at cycle   2 NSaved=   2.
 NSaved= 2 IEnMin= 2 EnMin= -359.512174860780     IErMin= 2 ErrMin= 5.95D-03
 ErrMax= 5.95D-03  0.00D+00 EMaxC= 1.00D-01 BMatC= 2.33D-02 BMatP= 2.64D-01
 IDIUse=3 WtCom= 9.41D-01 WtEn= 5.95D-02
 Coeff-Com: -0.198D-01 0.102D+01
 Coeff-En:   0.420D-01 0.958D+00
 Coeff:     -0.161D-01 0.102D+01
 Gap=     0.388 Goal=   None    Shift=    0.000
 RMSDP=7.79D-04 MaxDP=3.40D-02 DE=-6.89D-02 OVMax= 1.00D-01

 Cycle   3  Pass 1  IDiag  1:
 E= -359.585823705680     Delta-E=       -0.073648844900 Rises=F Damp=F
 DIIS: error= 4.97D-03 at cycle   3 NSaved=   3.
 NSaved= 3 IEnMin= 3 EnMin= -359.585823705680     IErMin= 3 ErrMin= 4.97D-03
 ErrMax= 4.97D-03  0.00D+00 EMaxC= 1.00D-01 BMatC= 1.13D-02 BMatP= 2.33D-02
 IDIUse=3 WtCom= 9.50D-01 WtEn= 4.97D-02
 Coeff-Com: -0.913D-01 0.424D+00 0.668D+00
 Coeff-En:   0.000D+00 0.000D+00 0.100D+01
 Coeff:     -0.868D-01 0.403D+00 0.684D+00
 Gap=     0.333 Goal=   None    Shift=    0.000
 RMSDP=3.63D-04 MaxDP=1.33D-02 DE=-7.36D-02 OVMax= 4.25D-02

 Cycle   4  Pass 1  IDiag  1:
 E= -359.592021202552     Delta-E=       -0.006197496872 Rises=F Damp=F
 DIIS: error= 2.30D-03 at cycle   4 NSaved=   4.
 NSaved= 4 IEnMin= 4 EnMin= -359.592021202552     IErMin= 4 ErrMin= 2.30D-03
 ErrMax= 2.30D-03  0.00D+00 EMaxC= 1.00D-01 BMatC= 2.67D-03 BMatP= 1.13D-02
 IDIUse=3 WtCom= 9.77D-01 WtEn= 2.30D-02
 Coeff-Com: -0.422D-01 0.104D+00 0.379D+00 0.559D+00
 Coeff-En:   0.000D+00 0.000D+00 0.183D+00 0.817D+00
 Coeff:     -0.412D-01 0.102D+00 0.374D+00 0.565D+00
 Gap=     0.328 Goal=   None    Shift=    0.000
 RMSDP=1.30D-04 MaxDP=5.44D-03 DE=-6.20D-03 OVMax= 1.26D-02

 Cycle   5  Pass 1  IDiag  1:
 E= -359.593892294699     Delta-E=       -0.001871092147 Rises=F Damp=F
 DIIS: error= 3.93D-04 at cycle   5 NSaved=   5.
 NSaved= 5 IEnMin= 5 EnMin= -359.593892294699     IErMin= 5 ErrMin= 3.93D-04
 ErrMax= 3.93D-04  0.00D+00 EMaxC= 1.00D-01 BMatC= 7.05D-05 BMatP= 2.67D-03
 IDIUse=3 WtCom= 9.96D-01 WtEn= 3.93D-03
 Coeff-Com: -0.127D-01 0.243D-01 0.131D+00 0.243D+00 0.614D+00
 Coeff-En:   0.000D+00 0.000D+00 0.000D+00 0.000D+00 0.100D+01
 Coeff:     -0.127D-01 0.242D-01 0.130D+00 0.242D+00 0.616D+00
 Gap=     0.327 Goal=   None    Shift=    0.000
 RMSDP=2.69D-05 MaxDP=1.10D-03 DE=-1.87D-03 OVMax= 2.61D-03

 Cycle   6  Pass 1  IDiag  1:
 E= -359.593940695145     Delta-E=       -0.000048400446 Rises=F Damp=F
 DIIS: error= 1.14D-04 at cycle   6 NSaved=   6.
 NSaved= 6 IEnMin= 6 EnMin= -359.593940695145     IErMin= 6 ErrMin= 1.14D-04
 ErrMax= 1.14D-04  0.00D+00 EMaxC= 1.00D-01 BMatC= 6.29D-06 BMatP= 7.05D-05
 IDIUse=3 WtCom= 9.99D-01 WtEn= 1.14D-03
 Coeff-Com: -0.110D-02-0.154D-03 0.178D-01 0.427D-01 0.257D+00 0.683D+00
 Coeff-En:   0.000D+00 0.000D+00 0.000D+00 0.000D+00 0.000D+00 0.100D+01
 Coeff:     -0.110D-02-0.153D-03 0.178D-01 0.426D-01 0.257D+00 0.684D+00
 Gap=     0.328 Goal=   None    Shift=    0.000
 RMSDP=9.94D-06 MaxDP=3.30D-04 DE=-4.84D-05 OVMax= 6.26D-04

 Cycle   7  Pass 1  IDiag  1:
 E= -359.593946236968     Delta-E=       -0.000005541823 Rises=F Damp=F
 DIIS: error= 2.63D-05 at cycle   7 NSaved=   7.
 NSaved= 7 IEnMin= 7 EnMin= -359.593946236968     IErMin= 7 ErrMin= 2.63D-05
 ErrMax= 2.63D-05  0.00D+00 EMaxC= 1.00D-01 BMatC= 4.03D-07 BMatP= 6.29D-06
 IDIUse=1 WtCom= 1.00D+00 WtEn= 0.00D+00
 Coeff-Com:  0.157D-02-0.348D-02-0.121D-01-0.230D-01-0.162D-01 0.127D+00
 Coeff-Com:  0.926D+00
 Coeff:      0.157D-02-0.348D-02-0.121D-01-0.230D-01-0.162D-01 0.127D+00
 Coeff:      0.926D+00
 Gap=     0.328 Goal=   None    Shift=    0.000
 RMSDP=4.01D-06 MaxDP=1.23D-04 DE=-5.54D-06 OVMax= 3.82D-04

 Cycle   8  Pass 1  IDiag  1:
 E= -359.593946744456     Delta-E=       -0.000000507488 Rises=F Damp=F
 DIIS: error= 1.37D-05 at cycle   8 NSaved=   8.
 NSaved= 8 IEnMin= 8 EnMin= -359.593946744456     IErMin= 8 ErrMin= 1.37D-05
 ErrMax= 1.37D-05  0.00D+00 EMaxC= 1.00D-01 BMatC= 1.32D-07 BMatP= 4.03D-07
 IDIUse=1 WtCom= 1.00D+00 WtEn= 0.00D+00
 Coeff-Com:  0.862D-03-0.164D-02-0.707D-02-0.156D-01-0.332D-01-0.159D-01
 Coeff-Com:  0.447D+00 0.625D+00
 Coeff:      0.862D-03-0.164D-02-0.707D-02-0.156D-01-0.332D-01-0.159D-01
 Coeff:      0.447D+00 0.625D+00
 Gap=     0.328 Goal=   None    Shift=    0.000
 RMSDP=1.40D-06 MaxDP=5.39D-05 DE=-5.07D-07 OVMax= 9.43D-05

 Cycle   9  Pass 1  IDiag  1:
 E= -359.593946856455     Delta-E=       -0.000000111999 Rises=F Damp=F
 DIIS: error= 3.32D-06 at cycle   9 NSaved=   9.
 NSaved= 9 IEnMin= 9 EnMin= -359.593946856455     IErMin= 9 ErrMin= 3.32D-06
 ErrMax= 3.32D-06  0.00D+00 EMaxC= 1.00D-01 BMatC= 8.46D-09 BMatP= 1.32D-07
 IDIUse=1 WtCom= 1.00D+00 WtEn= 0.00D+00
 Coeff-Com:  0.346D-04-0.283D-04-0.143D-03-0.141D-02-0.597D-02-0.213D-01
 Coeff-Com: -0.241D-02 0.166D+00 0.865D+00
 Coeff:      0.346D-04-0.283D-04-0.143D-03-0.141D-02-0.597D-02-0.213D-01
 Coeff:     -0.241D-02 0.166D+00 0.865D+00
 Gap=     0.328 Goal=   None    Shift=    0.000
 RMSDP=5.17D-07 MaxDP=1.13D-05 DE=-1.12D-07 OVMax= 3.96D-05

 Cycle  10  Pass 1  IDiag  1:
 E= -359.593946865504     Delta-E=       -0.000000009048 Rises=F Damp=F
 DIIS: error= 1.08D-06 at cycle  10 NSaved=  10.
 NSaved=10 IEnMin=10 EnMin= -359.593946865504     IErMin=10 ErrMin= 1.08D-06
 ErrMax= 1.08D-06  0.00D+00 EMaxC= 1.00D-01 BMatC= 9.27D-10 BMatP= 8.46D-09
 IDIUse=1 WtCom= 1.00D+00 WtEn= 0.00D+00
 Coeff-Com: -0.709D-04 0.149D-03 0.670D-03 0.993D-03 0.126D-02-0.542D-02
 Coeff-Com: -0.450D-01-0.123D-01 0.296D+00 0.764D+00
 Coeff:     -0.709D-04 0.149D-03 0.670D-03 0.993D-03 0.126D-02-0.542D-02
 Coeff:     -0.450D-01-0.123D-01 0.296D+00 0.764D+00
 Gap=     0.328 Goal=   None    Shift=    0.000
 RMSDP=1.53D-07 MaxDP=4.55D-06 DE=-9.05D-09 OVMax= 1.16D-05

 Cycle  11  Pass 1  IDiag  1:
 E= -359.593946866372     Delta-E=       -0.000000000868 Rises=F Damp=F
 DIIS: error= 3.38D-07 at cycle  11 NSaved=  11.
 NSaved=11 IEnMin=11 EnMin= -359.593946866372     IErMin=11 ErrMin= 3.38D-07
 ErrMax= 3.38D-07  0.00D+00 EMaxC= 1.00D-01 BMatC= 9.18D-11 BMatP= 9.27D-10
 IDIUse=1 WtCom= 1.00D+00 WtEn= 0.00D+00
 Coeff-Com: -0.284D-04 0.562D-04 0.268D-03 0.484D-03 0.996D-03-0.606D-04
 Coeff-Com: -0.165D-01-0.210D-01 0.364D-01 0.287D+00 0.713D+00
 Coeff:     -0.284D-04 0.562D-04 0.268D-03 0.484D-03 0.996D-03-0.606D-04
 Coeff:     -0.165D-01-0.210D-01 0.364D-01 0.287D+00 0.713D+00
 Gap=     0.328 Goal=   None    Shift=    0.000
 RMSDP=4.37D-08 MaxDP=2.17D-06 DE=-8.68D-10 OVMax= 2.65D-06

 Cycle  12  Pass 1  IDiag  1:
 E= -359.593946866450     Delta-E=       -0.000000000078 Rises=F Damp=F
 DIIS: error= 7.19D-08 at cycle  12 NSaved=  12.
 NSaved=12 IEnMin=12 EnMin= -359.593946866450     IErMin=12 ErrMin= 7.19D-08
 ErrMax= 7.19D-08  0.00D+00 EMaxC= 1.00D-01 BMatC= 5.12D-12 BMatP= 9.18D-11
 IDIUse=1 WtCom= 1.00D+00 WtEn= 0.00D+00
 Coeff-Com: -0.143D-05 0.248D-05 0.211D-04 0.485D-04 0.164D-03 0.389D-03
 Coeff-Com: -0.835D-03-0.487D-02-0.153D-01 0.122D-01 0.190D+00 0.818D+00
 Coeff:     -0.143D-05 0.248D-05 0.211D-04 0.485D-04 0.164D-03 0.389D-03
 Coeff:     -0.835D-03-0.487D-02-0.153D-01 0.122D-01 0.190D+00 0.818D+00
 Gap=     0.328 Goal=   None    Shift=    0.000
 RMSDP=1.14D-08 MaxDP=4.38D-07 DE=-7.80D-11 OVMax= 6.40D-07

 Cycle  13  Pass 1  IDiag  1:
 E= -359.593946866449     Delta-E=        0.000000000001 Rises=F Damp=F
 DIIS: error= 2.63D-08 at cycle  13 NSaved=  13.
 NSaved=13 IEnMin=12 EnMin= -359.593946866450     IErMin=13 ErrMin= 2.63D-08
 ErrMax= 2.63D-08  0.00D+00 EMaxC= 1.00D-01 BMatC= 4.73D-13 BMatP= 5.12D-12
 IDIUse=1 WtCom= 1.00D+00 WtEn= 0.00D+00
 Coeff-Com:  0.159D-05-0.313D-05-0.110D-04-0.198D-04-0.160D-04 0.965D-04
 Coeff-Com:  0.912D-03 0.100D-03-0.686D-02-0.172D-01 0.570D-02 0.262D+00
 Coeff-Com:  0.755D+00
 Coeff:      0.159D-05-0.313D-05-0.110D-04-0.198D-04-0.160D-04 0.965D-04
 Coeff:      0.912D-03 0.100D-03-0.686D-02-0.172D-01 0.570D-02 0.262D+00
 Coeff:      0.755D+00
 Gap=     0.328 Goal=   None    Shift=    0.000
 RMSDP=2.74D-09 MaxDP=1.03D-07 DE= 9.09D-13 OVMax= 1.53D-07

 SCF Done:  E(RM062X) =  -359.593946866     A.U. after   13 cycles
            NFock= 13  Conv=0.27D-08     -V/T= 2.0031
 KE= 3.584762804153D+02 PE=-1.343765817355D+03 EE= 3.765820524493D+02
 Leave Link  502 at Mon Mar 11 19:45:37 2019, MaxMem=   671088640 cpu:             323.7 elap:              25.2
 (Enter /shared/centos7/gaussian/g16/l801.exe)
 DoSCS=F DFT=T ScalE2(SS,OS)=  1.000000  1.000000
 Range of M.O.s used for correlation:     1   249
 NBasis=   249 NAE=    24 NBE=    24 NFC=     0 NFV=     0
 NROrb=    249 NOA=    24 NOB=    24 NVA=   225 NVB=   225

 **** Warning!!: The largest alpha MO coefficient is  0.49352910D+02

 Leave Link  801 at Mon Mar 11 19:45:37 2019, MaxMem=   671088640 cpu:               0.3 elap:               0.0
 (Enter /shared/centos7/gaussian/g16/l1101.exe)
 Using compressed storage, NAtomX=    11.
 Will process     12 centers per pass.
 Leave Link 1101 at Mon Mar 11 19:45:37 2019, MaxMem=   671088640 cpu:               5.1 elap:               0.3
 (Enter /shared/centos7/gaussian/g16/l1102.exe)
 Symmetrizing basis deriv contribution to polar:
 IMax=3 JMax=2 DiffMx= 0.00D+00
 Leave Link 1102 at Mon Mar 11 19:45:37 2019, MaxMem=   671088640 cpu:               0.4 elap:               0.0
 (Enter /shared/centos7/gaussian/g16/l1110.exe)
 Forming Gx(P) for the SCF density, NAtomX=    11.
 Integral derivatives from FoFJK, PRISM(SPDF).
 Do as many integral derivatives as possible in FoFJK.
 G2DrvN: MDV=     671087712.
 G2DrvN: will do    12 centers at a time, making    1 passes.
 Calling FoFCou, ICntrl=  3107 FMM=F I1Cent=   0 AccDes= 0.00D+00.
 FoFJK:  IHMeth= 1 ICntrl=    3107 DoSepK=F KAlg= 0 I1Cent=           0 FoldK=F
 IRaf=         0 NMat=       1 IRICut=       1 DoRegI=T DoRafI=F ISym2E= 0 IDoP0=0 IntGTp=1.
 FoFCou: FMM=F IPFlag=           0 FMFlag=      100000 FMFlg1=           0
         NFxFlg=           0 DoJE=F BraDBF=F KetDBF=F FulRan=T
         wScrn=  0.000000 ICntrl=      3107 IOpCl=  0 I1Cent=           0 NGrid=           0
         NMat0=    1 NMatS0=      1 NMatT0=    0 NMatD0=    1 NMtDS0=    0 NMtDT0=    0
 Symmetry not used in FoFCou.
 End of G2Drv F.D. properties file   721 does not exist.
 End of G2Drv F.D. properties file   722 does not exist.
 End of G2Drv F.D. properties file   788 does not exist.
 Leave Link 1110 at Mon Mar 11 19:46:10 2019, MaxMem=   671088640 cpu:             653.5 elap:              32.7
 (Enter /shared/centos7/gaussian/g16/l1002.exe)
 Minotr:  Closed shell wavefunction.
          IDoAtm=11111111111
          Direct CPHF calculation.
          Differentiating once with respect to nuclear coordinates.
          Requested convergence is 1.0D-08 RMS, and 1.0D-07 maximum.
          Secondary convergence is 1.0D-12 RMS, and 1.0D-12 maximum.
          NewPWx=T KeepS1=F KeepF1=F KeepIn=T MapXYZ=F SortEE=F KeepMc=T.
         3342 words used for storage of precomputed grid.
 Keep R1 ints in memory in canonical form, NReq=506509625.
 FoFCou: FMM=F IPFlag=           0 FMFlag=           0 FMFlg1=           0
         NFxFlg=           0 DoJE=F BraDBF=F KetDBF=F FulRan=T
         wScrn=  0.000000 ICntrl=       600 IOpCl=  0 I1Cent=           0 NGrid=           0
         NMat0=    1 NMatS0=  31125 NMatT0=    0 NMatD0=    1 NMtDS0=    0 NMtDT0=    0
 Symmetry not used in FoFCou.
 Two-electron integral symmetry not used.
          MDV=     671088640 using IRadAn=       1.
          Solving linear equations simultaneously, MaxMat=       0.
          There are    36 degrees of freedom in the 1st order CPHF.  IDoFFX=6 NUNeed=     0.
     30 vectors produced by pass  0 Test12= 1.50D-14 2.78D-09 XBig12= 7.02D-02 6.95D-02.
 AX will form    30 AO Fock derivatives at one time.
     30 vectors produced by pass  1 Test12= 1.50D-14 2.78D-09 XBig12= 1.17D-02 3.98D-02.
     30 vectors produced by pass  2 Test12= 1.50D-14 2.78D-09 XBig12= 3.91D-04 2.65D-03.
     30 vectors produced by pass  3 Test12= 1.50D-14 2.78D-09 XBig12= 4.71D-06 3.06D-04.
     30 vectors produced by pass  4 Test12= 1.50D-14 2.78D-09 XBig12= 3.82D-08 2.59D-05.
     30 vectors produced by pass  5 Test12= 1.50D-14 2.78D-09 XBig12= 2.40D-10 2.00D-06.
     26 vectors produced by pass  6 Test12= 1.50D-14 2.78D-09 XBig12= 1.09D-12 1.13D-07.
      8 vectors produced by pass  7 Test12= 1.50D-14 2.78D-09 XBig12= 4.23D-15 7.45D-09.
 InvSVY:  IOpt=1 It=  1 EMax= 1.33D-15
 Solved reduced A of dimension   214 with    30 vectors.
 End of Minotr F.D. properties file   721 does not exist.
 End of Minotr F.D. properties file   722 does not exist.
 End of Minotr F.D. properties file   788 does not exist.
 Leave Link 1002 at Mon Mar 11 19:46:50 2019, MaxMem=   671088640 cpu:             797.5 elap:              39.9
 (Enter /shared/centos7/gaussian/g16/l601.exe)
 Copying SCF densities to generalized density rwf, IOpCl= 0 IROHF=0.

 **********************************************************************

            Population analysis using the SCF density.

 **********************************************************************

 Orbital symmetries:
       Occupied  (A) (A) (A) (A) (A) (A) (A) (A) (A) (A) (A) (A)
                 (A) (A) (A) (A) (A) (A) (A) (A) (A) (A) (A) (A)
       Virtual   (A) (A) (A) (A) (A) (A) (A) (A) (A) (A) (A) (A)
                 (A) (A) (A) (A) (A) (A) (A) (A) (A) (A) (A) (A)
                 (A) (A) (A) (A) (A) (A) (A) (A) (A) (A) (A) (A)
                 (A) (A) (A) (A) (A) (A) (A) (A) (A) (A) (A) (A)
                 (A) (A) (A) (A) (A) (A) (A) (A) (A) (A) (A) (A)
                 (A) (A) (A) (A) (A) (A) (A) (A) (A) (A) (A) (A)
                 (A) (A) (A) (A) (A) (A) (A) (A) (A) (A) (A) (A)
                 (A) (A) (A) (A) (A) (A) (A) (A) (A) (A) (A) (A)
                 (A) (A) (A) (A) (A) (A) (A) (A) (A) (A) (A) (A)
                 (A) (A) (A) (A) (A) (A) (A) (A) (A) (A) (A) (A)
                 (A) (A) (A) (A) (A) (A) (A) (A) (A) (A) (A) (A)
                 (A) (A) (A) (A) (A) (A) (A) (A) (A) (A) (A) (A)
                 (A) (A) (A) (A) (A) (A) (A) (A) (A) (A) (A) (A)
                 (A) (A) (A) (A) (A) (A) (A) (A) (A) (A) (A) (A)
                 (A) (A) (A) (A) (A) (A) (A) (A) (A) (A) (A) (A)
                 (A) (A) (A) (A) (A) (A) (A) (A) (A) (A) (A) (A)
                 (A) (A) (A) (A) (A) (A) (A) (A) (A) (A) (A) (A)
                 (A) (A) (A) (A) (A) (A) (A) (A) (A) (A) (A) (A)
                 (A) (A) (A) (A) (A) (A) (A) (A) (A)
 The electronic state is 1-A.
 Alpha  occ. eigenvalues --  -19.68339 -19.65071 -19.62967 -14.79785 -10.68770
 Alpha  occ. eigenvalues --  -10.58984  -1.25422  -1.19770  -1.15724  -0.96308
 Alpha  occ. eigenvalues --   -0.82530  -0.70254  -0.61561  -0.60121  -0.59054
 Alpha  occ. eigenvalues --   -0.56371  -0.55284  -0.51358  -0.48536  -0.47761
 Alpha  occ. eigenvalues --   -0.41515  -0.39289  -0.36907  -0.32121
 Alpha virt. eigenvalues --    0.00650   0.01954   0.03349   0.04260   0.05224
 Alpha virt. eigenvalues --    0.06287   0.07535   0.07960   0.08846   0.12200
 Alpha virt. eigenvalues --    0.13161   0.14390   0.17608   0.17990   0.19330
 Alpha virt. eigenvalues --    0.20456   0.20858   0.21540   0.22423   0.24144
 Alpha virt. eigenvalues --    0.24904   0.26309   0.26726   0.27802   0.28430
 Alpha virt. eigenvalues --    0.29224   0.29677   0.31068   0.31873   0.34648
 Alpha virt. eigenvalues --    0.35678   0.36491   0.38755   0.40835   0.49466
 Alpha virt. eigenvalues --    0.51391   0.51552   0.54784   0.55726   0.56550
 Alpha virt. eigenvalues --    0.58601   0.60710   0.61835   0.64031   0.65365
 Alpha virt. eigenvalues --    0.66629   0.70121   0.70614   0.71801   0.76880
 Alpha virt. eigenvalues --    0.77377   0.78234   0.80361   0.83839   0.86854
 Alpha virt. eigenvalues --    0.90023   0.90827   0.96023   0.99731   1.00012
 Alpha virt. eigenvalues --    1.02599   1.03973   1.06794   1.07893   1.08712
 Alpha virt. eigenvalues --    1.10744   1.12734   1.15517   1.17391   1.17858
 Alpha virt. eigenvalues --    1.19666   1.22692   1.23682   1.27124   1.28088
 Alpha virt. eigenvalues --    1.30000   1.30803   1.35773   1.40816   1.43622
 Alpha virt. eigenvalues --    1.44058   1.46628   1.49710   1.52249   1.55321
 Alpha virt. eigenvalues --    1.56177   1.58763   1.61977   1.63365   1.65119
 Alpha virt. eigenvalues --    1.74155   1.74355   1.78530   1.80578   1.85286
 Alpha virt. eigenvalues --    1.89224   1.93368   1.96707   2.01694   2.04798
 Alpha virt. eigenvalues --    2.14454   2.18299   2.20949   2.27552   2.32885
 Alpha virt. eigenvalues --    2.35088   2.38365   2.51772   2.58581   2.61295
 Alpha virt. eigenvalues --    2.64175   2.72911   2.74067   2.78981   2.80785
 Alpha virt. eigenvalues --    2.82520   2.88697   2.98773   3.05904   3.07200
 Alpha virt. eigenvalues --    3.08866   3.12501   3.15088   3.20601   3.27465
 Alpha virt. eigenvalues --    3.29931   3.34310   3.37308   3.38389   3.41349
 Alpha virt. eigenvalues --    3.45420   3.47861   3.49513   3.51531   3.56369
 Alpha virt. eigenvalues --    3.57994   3.60322   3.68230   3.69335   3.73173
 Alpha virt. eigenvalues --    3.74845   3.80520   3.84922   3.88858   3.89454
 Alpha virt. eigenvalues --    3.92678   3.96024   4.02061   4.03550   4.10143
 Alpha virt. eigenvalues --    4.12312   4.12819   4.17822   4.22062   4.23302
 Alpha virt. eigenvalues --    4.27798   4.30049   4.35492   4.39734   4.43032
 Alpha virt. eigenvalues --    4.53452   4.55420   4.73717   4.80180   4.89135
 Alpha virt. eigenvalues --    4.95996   5.05863   5.06702   5.07546   5.11035
 Alpha virt. eigenvalues --    5.12891   5.15213   5.15780   5.17334   5.18860
 Alpha virt. eigenvalues --    5.21148   5.26052   5.27225   5.30404   5.35780
 Alpha virt. eigenvalues --    5.37505   5.43437   5.46401   5.50568   5.51561
 Alpha virt. eigenvalues --    5.55073   5.58143   5.60136   5.63715   5.72850
 Alpha virt. eigenvalues --    5.76016   5.78835   5.91235   5.95404   5.96331
 Alpha virt. eigenvalues --    6.05850   6.31269   6.37513   6.58971   6.79429
 Alpha virt. eigenvalues --    6.80709   6.90565   6.91761   6.95418   7.00425
 Alpha virt. eigenvalues --    7.07266   7.12000   7.14845   7.19163   7.19774
 Alpha virt. eigenvalues --    7.25079   7.26274   7.28865   7.46245   7.53194
 Alpha virt. eigenvalues --    7.60381   7.66625   7.68667   7.71724  24.44200
 Alpha virt. eigenvalues --   24.81910  35.78304  50.10673  50.11729  50.28645
          Condensed to atoms (all electrons):
               1          2          3          4          5          6
     1  O    8.018064  -0.002600  -0.001676   0.110823   0.018945  -0.065878
     2  O   -0.002600   7.957278  -0.096682   0.011343  -0.137847   0.311238
     3  O   -0.001676  -0.096682   8.175458   0.008616  -0.034698   0.373586
     4  N    0.110823   0.011343   0.008616   6.785652   0.173977  -0.055132
     5  C    0.018945  -0.137847  -0.034698   0.173977   5.586513  -0.181339
     6  C   -0.065878   0.311238   0.373586  -0.055132  -0.181339   5.281659
     7  H   -0.006160   0.002221   0.003838  -0.019897   0.479125  -0.098888
     8  H    0.012737  -0.000303   0.002093  -0.060026   0.423403  -0.016003
     9  H   -0.063688  -0.000622  -0.000223   0.351235  -0.046490   0.026452
    10  H    0.253008  -0.000642   0.004370  -0.062046  -0.030648   0.041596
    11  H    0.000384   0.269155   0.019107  -0.001906  -0.018877   0.004283
               7          8          9         10         11
     1  O   -0.006160   0.012737  -0.063688   0.253008   0.000384
     2  O    0.002221  -0.000303  -0.000622  -0.000642   0.269155
     3  O    0.003838   0.002093  -0.000223   0.004370   0.019107
     4  N   -0.019897  -0.060026   0.351235  -0.062046  -0.001906
     5  C    0.479125   0.423403  -0.046490  -0.030648  -0.018877
     6  C   -0.098888  -0.016003   0.026452   0.041596   0.004283
     7  H    0.496037  -0.026709  -0.009820  -0.001216  -0.000219
     8  H   -0.026709   0.504056   0.000958  -0.000109   0.000330
     9  H   -0.009820   0.000958   0.511212   0.012451   0.000062
    10  H   -0.001216  -0.000109   0.012451   0.486867   0.000182
    11  H   -0.000219   0.000330   0.000062   0.000182   0.446856
 Mulliken charges:
               1
     1  O   -0.273959
     2  O   -0.312540
     3  O   -0.453788
     4  N   -0.242640
     5  C   -0.232065
     6  C    0.378426
     7  H    0.181688
     8  H    0.159573
     9  H    0.218473
    10  H    0.296187
    11  H    0.280645
 Sum of Mulliken charges =  -0.00000
 Mulliken charges with hydrogens summed into heavy atoms:
               1
     1  O    0.022228
     2  O   -0.031895
     3  O   -0.453788
     4  N   -0.024167
     5  C    0.109196
     6  C    0.378426
 APT charges:
               1
     1  O   -0.507439
     2  O   -0.645375
     3  O   -0.467504
     4  N   -0.599014
     5  C   -0.802065
     6  C    0.446852
     7  H    0.378292
     8  H    0.426304
     9  H    0.627803
    10  H    0.450621
    11  H    0.691526
 Sum of APT charges =  -0.00000
 APT charges with hydrogens summed into heavy atoms:
               1
     1  O   -0.056819
     2  O    0.046150
     3  O   -0.467504
     4  N    0.028789
     5  C    0.002532
     6  C    0.446852
 Electronic spatial extent (au):  <R**2>=            578.5670
 Charge=             -0.0000 electrons
 Dipole moment (field-independent basis, Debye):
    X=              1.1636    Y=             -1.7863    Z=              0.1204  Tot=              2.1353
 Quadrupole moment (field-independent basis, Debye-Ang):
   XX=            -31.9297   YY=            -33.3303   ZZ=            -37.3587
   XY=              2.9875   XZ=              1.4905   YZ=              1.9523
 Traceless Quadrupole moment (field-independent basis, Debye-Ang):
   XX=              2.2765   YY=              0.8759   ZZ=             -3.1525
   XY=              2.9875   XZ=              1.4905   YZ=              1.9523
 Octapole moment (field-independent basis, Debye-Ang**2):
  XXX=             22.7035  YYY=             -0.2046  ZZZ=              2.5645  XYY=            -11.1879
  XXY=              5.7599  XXZ=             -2.9413  XZZ=              3.9634  YZZ=             -0.4949
  YYZ=              0.5243  XYZ=              1.2547
 Hexadecapole moment (field-independent basis, Debye-Ang**3):
 XXXX=           -399.4029 YYYY=           -157.6893 ZZZZ=            -68.4199 XXXY=             36.0819
 XXXZ=             15.3553 YYYX=             -8.8571 YYYZ=              6.2342 ZZZX=             -3.1216
 ZZZY=             -0.0395 XXYY=            -93.0008 XXZZ=            -94.1975 YYZZ=            -36.0334
 XXYZ=              5.2872 YYXZ=              1.0216 ZZXY=              0.9890
 N-N= 2.491135376242D+02 E-N=-1.343765823460D+03  KE= 3.584762804153D+02
  Exact polarizability:   0.000   0.000   0.000   0.000   0.000   0.000
 Approx polarizability:  51.989  -2.907  59.642   1.190  -1.132  44.731
 No NMR shielding tensors so no spin-rotation constants.
 Leave Link  601 at Mon Mar 11 19:46:50 2019, MaxMem=   671088640 cpu:               4.6 elap:               0.3
 (Enter /shared/centos7/gaussian/g16/l701.exe)
 ... and contract with generalized density number  0.
 Compute integral second derivatives.
 Leave Link  701 at Mon Mar 11 19:46:50 2019, MaxMem=   671088640 cpu:               6.1 elap:               0.3
 (Enter /shared/centos7/gaussian/g16/l702.exe)
 L702 exits ... SP integral derivatives will be done elsewhere.
 Leave Link  702 at Mon Mar 11 19:46:50 2019, MaxMem=   671088640 cpu:               0.3 elap:               0.0
 (Enter /shared/centos7/gaussian/g16/l703.exe)
 Integral derivatives from FoFJK, PRISM(SPDF).
 Compute integral second derivatives, UseDBF=F ICtDFT=           0.
 Calling FoFJK, ICntrl=    100147 FMM=F ISym2X=0 I1Cent= 0 IOpClX= 0 NMat=1 NMatS=1 NMatT=0.
 FoFJK:  IHMeth= 1 ICntrl=  100147 DoSepK=F KAlg= 0 I1Cent=           0 FoldK=F
 IRaf=         0 NMat=       1 IRICut=       1 DoRegI=T DoRafI=F ISym2E= 0 IDoP0=0 IntGTp=1.
 FoFCou: FMM=F IPFlag=           0 FMFlag=      100000 FMFlg1=         800
         NFxFlg=           0 DoJE=F BraDBF=F KetDBF=F FulRan=T
         wScrn=  0.000000 ICntrl=    100147 IOpCl=  0 I1Cent=           0 NGrid=           0
         NMat0=    1 NMatS0=      1 NMatT0=    0 NMatD0=    1 NMtDS0=    0 NMtDT0=    0
 Symmetry not used in FoFCou.
 Leave Link  703 at Mon Mar 11 19:47:45 2019, MaxMem=   671088640 cpu:            1100.6 elap:              55.1
 (Enter /shared/centos7/gaussian/g16/l716.exe)
 Dipole        = 4.57783169D-01-7.02795002D-01 4.73660619D-02
 Polarizability= 0.00000000D+00 0.00000000D+00 0.00000000D+00
                 0.00000000D+00 0.00000000D+00 0.00000000D+00
 ***** Axes restored to original set *****
 -------------------------------------------------------------------
 Center     Atomic                   Forces (Hartrees/Bohr)
 Number     Number              X              Y              Z
 -------------------------------------------------------------------
      1        8          -0.000001187   -0.000001019    0.000000187
      2        8           0.000001257    0.000000211   -0.000000037
      3        8           0.000001446   -0.000000766   -0.000000024
      4        7          -0.000000692    0.000000223    0.000000027
      5        6          -0.000000414    0.000000525    0.000000031
      6        6           0.000000793   -0.000000068   -0.000000196
      7        1          -0.000001079    0.000000210    0.000000060
      8        1          -0.000000263    0.000001545   -0.000000138
      9        1          -0.000001522    0.000000751    0.000000039
     10        1          -0.000000362   -0.000001426    0.000000213
     11        1           0.000002024   -0.000000186   -0.000000161
 -------------------------------------------------------------------
 Cartesian Forces:  Max     0.000002024 RMS     0.000000805
 Force constants in Cartesian coordinates: 
                1             2             3             4             5 
      1  0.460128D+00
      2  0.144105D+00  0.489934D+00
      3  0.625511D-01  0.100435D+00  0.817400D-01
      4  0.140323D-02  0.662664D-03 -0.521491D-03  0.241838D+00
      5  0.164701D-02  0.300975D-03 -0.378032D-03  0.219211D+00  0.469037D+00
      6 -0.216478D-03  0.185333D-02 -0.888195D-03  0.724781D-01 -0.182966D+00
      7  0.432138D-02  0.377187D-02 -0.300779D-02 -0.160592D-01 -0.115917D-01
      8  0.285036D-02 -0.312858D-02  0.324144D-02 -0.795123D-02  0.341043D-01
      9  0.255897D-02  0.360781D-02 -0.174747D-02 -0.704452D-01 -0.262388D-01
     10 -0.252695D+00  0.373377D-01  0.221140D-01 -0.134680D-02 -0.610095D-02
     11  0.438502D-01 -0.865766D-01  0.301011D-03 -0.242809D-02 -0.614466D-02
     12 -0.101257D-02  0.817034D-02 -0.537723D-01  0.211806D-02  0.372086D-02
     13 -0.392092D-01  0.819678D-02 -0.453225D-01  0.120664D-01  0.617742D-02
     14  0.125708D-01 -0.244306D-02  0.126419D-01 -0.590592D-02 -0.728224D-02
     15 -0.195282D-02 -0.283074D-02  0.423610D-02  0.806820D-02  0.366736D-01
     16 -0.563298D-02 -0.827634D-03  0.339181D-02 -0.106167D+00 -0.624959D-02
     17 -0.701014D-02 -0.176120D-02  0.290997D-03 -0.165742D-01 -0.128891D+00
     18 -0.111301D-02 -0.312916D-02  0.369193D-02 -0.507524D-01  0.691811D-01
     19  0.348202D-02 -0.212791D-02  0.266651D-03 -0.359160D-03  0.785242D-03
     20 -0.264326D-02  0.370395D-03 -0.207257D-03 -0.112389D-02  0.124874D-02
     21  0.189792D-02  0.140143D-02  0.565209D-02  0.793395D-03  0.802185D-03
     22  0.525570D-03 -0.266746D-03 -0.295813D-02  0.152346D-02  0.459059D-03
     23  0.205830D-02  0.869540D-03  0.258544D-02  0.210930D-02 -0.592365D-03
     24 -0.561697D-02  0.985505D-03 -0.636233D-02 -0.882735D-03  0.173980D-02
     25 -0.389123D-01 -0.328029D-01  0.810873D-02  0.313605D-03  0.130543D-02
     26  0.180047D-01  0.107677D-01 -0.936161D-02 -0.250803D-03 -0.465851D-03
     27 -0.363301D-03 -0.212597D-02  0.439938D-03  0.831257D-03  0.188822D-02
     28 -0.133400D+00 -0.157951D+00 -0.447694D-01  0.314070D-03 -0.281718D-03
     29 -0.215589D+00 -0.408515D+00 -0.109234D+00 -0.148445D-02 -0.768658D-03
     30 -0.565503D-01 -0.108021D+00 -0.333227D-01  0.834586D-03  0.134930D-03
     31 -0.110897D-04 -0.977649D-04  0.147126D-03 -0.133526D+00 -0.205361D+00
     32  0.156701D-03  0.181797D-03 -0.315176D-03 -0.186264D+00 -0.360547D+00
     33 -0.182537D-03 -0.346409D-03  0.332984D-03  0.374783D-01  0.954417D-01
                6             7             8             9            10 
      6  0.414001D+00
      7 -0.666605D-01  0.429885D+00
      8 -0.208336D-01  0.323341D+00  0.328313D+00
      9 -0.632938D-01  0.290181D+00  0.199783D+00  0.293516D+00
     10  0.274786D-02 -0.322424D-02 -0.206877D-03 -0.502306D-03  0.502813D+00
     11  0.396054D-02  0.302521D-02  0.319505D-02  0.229859D-02  0.117935D+00
     12 -0.144498D-02 -0.192858D-03 -0.235766D-02  0.206183D-02 -0.203339D-01
     13 -0.782153D-02 -0.534003D-02 -0.392480D-01 -0.603351D-02 -0.917434D-01
     14  0.129280D-01 -0.295477D-01 -0.145085D-01  0.118477D-02 -0.103107D-01
     15 -0.193478D-01 -0.200181D-01 -0.164916D-01  0.100771D-01 -0.422196D-01
     16 -0.634246D-01 -0.401135D+00 -0.274925D+00 -0.220782D+00  0.793155D-02
     17  0.546889D-01 -0.280643D+00 -0.334674D+00 -0.173878D+00  0.493255D-02
     18 -0.251450D+00 -0.208967D+00 -0.159224D+00 -0.249077D+00  0.167187D-01
     19  0.152900D-03 -0.372731D-02 -0.109968D-02  0.113064D-02  0.213354D-02
     20  0.241359D-02 -0.440571D-02 -0.147701D-02  0.304405D-02 -0.146028D-02
     21 -0.165747D-02  0.356212D-02  0.122521D-02 -0.775065D-04  0.432786D-02
     22 -0.475880D-03  0.833538D-03 -0.174946D-02  0.126896D-02 -0.929464D-02
     23 -0.108598D-03  0.207101D-03 -0.719858D-02 -0.171351D-03  0.649470D-02
     24 -0.133482D-02  0.608595D-04  0.256246D-02  0.496950D-03 -0.321673D-01
     25 -0.928315D-03  0.493750D-03  0.548293D-03  0.799424D-04 -0.120501D+00
     26  0.583632D-03  0.329323D-03  0.343587D-03  0.781229D-03 -0.165759D+00
     27 -0.693277D-03  0.958048D-04 -0.575925D-03  0.121093D-02  0.462433D-01
     28  0.119180D-02  0.000000D+00 -0.993844D-03  0.188377D-02 -0.348953D-01
     29 -0.191356D-02 -0.317455D-02 -0.315930D-02 -0.281738D-02  0.180925D-01
     30  0.205099D-02  0.352130D-02 -0.488709D-03  0.126524D-02  0.216826D-02
     31  0.629567D-01 -0.604724D-02 -0.565429D-03  0.659076D-03  0.822755D-03
     32  0.129393D+00 -0.131186D-02 -0.181000D-02 -0.759366D-02 -0.954596D-03
     33 -0.759414D-01  0.142438D-02 -0.684050D-02  0.556793D-02  0.903175D-03
               11            12            13            14            15 
     11  0.460793D+00
     12 -0.185717D+00  0.430256D+00
     13  0.363775D-04 -0.138051D-01  0.597590D+00
     14 -0.773186D-01  0.407360D-02 -0.192313D-01  0.510970D+00
     15  0.532071D-01 -0.233509D+00 -0.247535D-02  0.111471D-01  0.543378D+00
     16  0.565820D-02 -0.677331D-02 -0.103986D+00 -0.316014D-01  0.292257D-01
     17 -0.823256D-02  0.128118D-01 -0.316489D-01 -0.166793D+00  0.346139D-01
     18  0.346659D-01 -0.278256D-01  0.212965D-01  0.340899D-01 -0.916039D-01
     19 -0.613694D-02 -0.905447D-02 -0.635831D-01  0.496694D-01  0.407948D-01
     20  0.100999D-01  0.500778D-02  0.517479D-01 -0.194344D+00 -0.112984D+00
     21 -0.215656D-01 -0.382033D-01  0.396038D-01 -0.110234D+00 -0.136277D+00
     22  0.104728D-02  0.762743D-03 -0.312251D+00  0.262653D-01 -0.238923D-02
     23 -0.152843D-02 -0.150264D-02  0.235464D-01 -0.468916D-01  0.413889D-02
     24  0.754715D-03  0.254181D-02  0.545429D-02  0.323692D-02 -0.515335D-01
     25 -0.128085D+00  0.555556D-01  0.852608D-02  0.964615D-02 -0.438409D-02
     26 -0.305986D+00  0.151422D+00 -0.209341D-02 -0.545431D-02 -0.956420D-02
     27  0.105133D+00 -0.793724D-01  0.163848D-01  0.332779D-01 -0.209237D-01
     28 -0.353558D-01 -0.670674D-02 -0.359350D-02 -0.847847D-03 -0.155941D-02
     29  0.121051D-01  0.468943D-02  0.172960D-02  0.756992D-03 -0.688961D-03
     30  0.543356D-02 -0.981165D-04 -0.275731D-02 -0.180186D-02 -0.487171D-03
     31  0.454519D-03 -0.557521D-03  0.152331D-02 -0.706786D-03 -0.309010D-02
     32 -0.406512D-03 -0.318122D-03  0.787074D-03  0.330879D-02  0.277925D-02
     33  0.152829D-02 -0.634084D-03 -0.452414D-02 -0.544661D-03 -0.400944D-02
               16            17            18            19            20 
     16  0.607015D+00
     17  0.328138D+00  0.666092D+00
     18  0.240800D+00  0.284639D-01  0.637321D+00
     19  0.508947D-02 -0.130089D-01 -0.905062D-02  0.644223D-01
     20  0.106352D-01 -0.234768D-01 -0.215419D-01 -0.525447D-01  0.206889D+00
     21 -0.648327D-02  0.414409D-02  0.781922D-02 -0.441223D-01  0.124591D+00
     22 -0.154143D-01  0.147317D-02 -0.116938D-02 -0.662618D-02  0.379596D-03
     23 -0.316649D-01  0.662468D-02 -0.147294D-02  0.244098D-01 -0.919764D-03
     24  0.996600D-02 -0.681907D-02  0.902269D-03  0.185646D-01 -0.389848D-03
     25 -0.375802D-03 -0.427323D-03 -0.310125D-02 -0.192275D-03 -0.261735D-03
     26  0.389198D-03 -0.206202D-03  0.520369D-03 -0.590092D-04  0.134407D-02
     27 -0.403300D-02 -0.220046D-02 -0.552344D-02  0.108222D-02 -0.220664D-03
     28 -0.830795D-03  0.349992D-03 -0.255199D-02 -0.304771D-03  0.221353D-03
     29  0.485113D-02  0.466866D-02  0.325784D-02 -0.125953D-03 -0.177452D-03
     30 -0.467743D-02 -0.148597D-02 -0.388368D-02  0.176049D-03 -0.748662D-04
     31  0.135054D-01  0.144189D-01 -0.211000D-02 -0.334546D-03 -0.544514D-03
     32 -0.440294D-02 -0.133509D-01  0.151887D-01  0.238504D-03  0.443455D-03
     33  0.227897D-01  0.493698D-01 -0.203710D-01  0.596291D-04  0.362976D-03
               21            22            23            24            25 
     21  0.160660D+00
     22  0.473743D-03  0.340251D+00
     23  0.132023D-03 -0.279567D-01  0.503003D-01
     24  0.725193D-03  0.489162D-02 -0.358867D-02  0.532750D-01
     25 -0.295709D-03  0.322746D-04  0.939554D-04  0.365032D-03  0.158004D+00
     26 -0.585906D-03  0.473209D-03 -0.155121D-03  0.918176D-03  0.146851D+00
     27  0.110088D-02 -0.181159D-03 -0.113599D-03  0.157990D-02 -0.584464D-01
     28  0.483195D-03  0.211268D-04  0.344102D-03 -0.556734D-03 -0.726949D-02
     29  0.491118D-03  0.323349D-03 -0.510451D-03  0.961743D-03  0.299276D-02
     30 -0.106260D-03 -0.101046D-03  0.642173D-03 -0.403812D-03  0.326917D-02
     31 -0.240740D-03  0.399196D-03  0.357885D-03 -0.785893D-04 -0.118865D-03
     32 -0.401445D-03 -0.448026D-03  0.186235D-05 -0.361737D-03  0.139943D-03
     33  0.364084D-03 -0.122227D-03 -0.540737D-03  0.113343D-03 -0.222736D-03
               26            27            28            29            30 
     26  0.299159D+00
     27 -0.134973D+00  0.102014D+00
     28  0.206531D-02 -0.143951D-02  0.179908D+00
     29  0.494705D-03 -0.360397D-03  0.192365D+00  0.395287D+00
     30  0.178881D-03  0.601256D-03  0.541782D-01  0.105247D+00  0.346796D-01
     31  0.490939D-04 -0.174049D-03  0.512308D-04  0.203424D-04 -0.614979D-04
     32  0.158361D-03  0.270807D-03  0.845521D-04 -0.180831D-03  0.236162D-03
     33  0.806897D-04 -0.434509D-03 -0.153115D-03  0.367058D-03 -0.295322D-03
               31            32            33 
     31  0.123736D+00
     32  0.191975D+00  0.372201D+00
     33 -0.574504D-01 -0.138878D+00  0.953074D-01
 FormGI is forming the generalized inverse of G from B-inverse, IUseBI=4.
 Force constants in internal coordinates: 
                1             2             3             4             5 
      1  0.368924D+00
      2  0.650659D-03  0.535823D+00
      3 -0.824282D-03  0.504138D-03  0.423944D+00
      4  0.319931D-03 -0.811175D-04  0.118006D-01  0.527836D+00
      5  0.656809D-02 -0.369352D-02  0.964376D-01 -0.646688D-02  0.906791D+00
      6  0.190996D-01  0.138961D-02  0.172917D-02 -0.688496D-04  0.220070D-02
      7  0.368241D-02 -0.137335D-02  0.337937D-03 -0.721545D-04 -0.836081D-03
      8 -0.267493D-02  0.420014D-04  0.249913D-01 -0.267376D-02  0.329382D-01
      9  0.162534D-02 -0.400690D-03  0.547381D-03  0.347838D-03 -0.872463D-03
     10 -0.242310D-03 -0.284753D-03  0.378419D-04  0.195140D-03 -0.620732D-03
     11  0.721860D-01  0.111222D-01 -0.298500D-02  0.388847D-03  0.475184D-02
     12  0.442254D-03 -0.326549D-03  0.359668D-01  0.263636D-01  0.435915D-02
     13  0.505337D-01  0.219188D-02 -0.374702D-02 -0.151889D-03  0.427531D-02
     14  0.167181D-01  0.852237D-03  0.113963D-03 -0.818040D-04 -0.197941D-02
     15 -0.260062D-01 -0.277281D-02  0.375223D-02  0.250875D-03 -0.203681D-02
     16 -0.683944D-02  0.212824D-02  0.690111D-02  0.140613D-02 -0.681045D-02
     17 -0.344374D-02 -0.604150D-03 -0.322177D-02 -0.171263D-03 -0.853078D-03
     18  0.927841D-02 -0.117292D-02 -0.296133D-02  0.512449D-04 -0.660773D-04
     19  0.374296D-02 -0.699453D-03 -0.134138D-02 -0.647234D-03  0.611652D-02
     20 -0.229977D-02  0.544640D-04 -0.544272D-03 -0.799658D-03  0.398863D-02
     21 -0.509062D-03  0.307943D-03  0.120950D-02  0.954600D-04 -0.199000D-02
     22 -0.131364D-02  0.176994D-02  0.189548D-01 -0.105026D-01  0.414117D-01
     23  0.448115D-02 -0.814479D-03  0.278752D-01  0.738558D-02 -0.517286D-01
     24 -0.316616D-02 -0.960221D-03 -0.468287D-01  0.311750D-02  0.103271D-01
     25  0.709690D-03  0.371316D-02 -0.318027D-02  0.168893D-03  0.411111D-02
     26  0.137902D-02  0.192900D-02 -0.489899D-03  0.348384D-03  0.269770D-02
     27  0.739696D-04 -0.205855D-03 -0.311625D-03  0.232246D-04  0.443360D-03
     28  0.122529D-04  0.114402D-03  0.606197D-04 -0.571101D-04 -0.211816D-03
     29  0.163682D-01  0.976749D-03  0.768109D-03 -0.122972D-03 -0.190254D-02
     30  0.139567D-01  0.119742D-02  0.182257D-02 -0.612207D-04  0.487973D-03
     31  0.176509D-01  0.350504D-03 -0.891652D-03 -0.164943D-04 -0.266868D-02
     32 -0.164189D-01  0.231700D-03  0.694684D-03 -0.741515D-04 -0.776042D-03
     33 -0.188304D-01  0.452371D-03  0.174915D-02 -0.124000D-04  0.161447D-02
     34 -0.151362D-01 -0.394546D-03 -0.965077D-03  0.323264D-04 -0.154219D-02
     35 -0.425530D-02  0.227761D-03 -0.112052D-03 -0.197847D-03  0.171082D-03
     36 -0.434228D-02  0.526892D-03 -0.492250D-03 -0.129352D-03 -0.830537D-03
     37  0.181987D-02  0.100171D-03  0.430630D-03 -0.443226D-03  0.150611D-02
     38  0.173288D-02  0.399303D-03  0.504330D-04 -0.374730D-03  0.504487D-03
     39  0.161887D-02  0.831995D-04  0.836396D-05  0.207757D-03 -0.150312D-02
     40  0.153189D-02  0.382331D-03 -0.371834D-03  0.276252D-03 -0.250474D-02
                6             7             8             9            10 
      6  0.353004D+00
      7 -0.807958D-04  0.451862D+00
      8  0.203193D-01 -0.895737D-03  0.296777D+00
      9  0.135901D-01  0.250611D-03  0.596180D-02  0.328252D+00
     10  0.584284D-02  0.471241D-03  0.400058D-02  0.282838D-02  0.343011D+00
     11  0.358565D-02  0.386640D-02 -0.231909D-02 -0.703932D-03  0.351587D-03
     12  0.218766D-02  0.262002D-03  0.293752D-02  0.336884D-03  0.195263D-03
     13  0.295181D-01  0.281881D-02  0.110460D-02 -0.727169D-02  0.824959D-02
     14 -0.161065D-01 -0.782902D-03 -0.272897D-02  0.107570D-02 -0.218209D-02
     15  0.235049D-01  0.101797D-01  0.190368D-02  0.801964D-03 -0.145222D-02
     16  0.366714D-01  0.411228D-02  0.360892D-01 -0.460140D-02 -0.470616D-02
     17  0.532074D-02 -0.263823D-02 -0.150240D-01 -0.110976D-02 -0.140333D-02
     18 -0.188157D-03 -0.410703D-03 -0.136829D-01 -0.629577D-03  0.249842D-02
     19 -0.213812D-01 -0.320152D-03 -0.250823D-02  0.733397D-02 -0.240699D-02
     20 -0.203050D-01 -0.135886D-02 -0.278297D-02 -0.339964D-02  0.432691D-02
     21 -0.218878D-02  0.582201D-03 -0.202270D-02  0.241667D-02  0.200820D-02
     22 -0.298209D-02 -0.633446D-04 -0.347843D-01 -0.506259D-03 -0.264663D-03
     23  0.101297D-01  0.832515D-03  0.154808D-01 -0.234782D-02 -0.306779D-02
     24 -0.714323D-02 -0.772722D-03  0.193138D-01  0.283041D-02  0.335242D-02
     25 -0.140797D-01 -0.715761D-02 -0.188307D-02  0.108466D-02 -0.223825D-03
     26  0.178013D-01  0.530209D-02 -0.560171D-03 -0.664748D-03  0.673098D-03
     27  0.346044D-03 -0.521208D-04  0.562698D-03 -0.282605D-03  0.195537D-03
     28  0.120096D-03  0.184112D-03 -0.345304D-03  0.122082D-02 -0.112521D-02
     29  0.518843D-03  0.273902D-02 -0.193487D-02 -0.567633D-02  0.438859D-02
     30  0.293738D-02  0.349859D-02  0.105784D-01 -0.318065D-03 -0.300487D-02
     31  0.354416D-02  0.219467D-02 -0.117777D-01  0.158127D-02  0.413997D-03
     32 -0.771125D-02 -0.291904D-02 -0.262230D-03 -0.356663D-02  0.339617D-02
     33 -0.529272D-02 -0.215947D-02  0.122510D-01  0.179164D-02 -0.399730D-02
     34 -0.468593D-02 -0.346339D-02 -0.101050D-01  0.369098D-02 -0.578426D-03
     35  0.151575D-02 -0.818843D-03 -0.449934D-04  0.817200D-03 -0.199435D-02
     36  0.123042D-02 -0.584088D-03 -0.372159D-03  0.240460D-02 -0.331164D-02
     37 -0.140276D-01  0.797100D-04 -0.236260D-02  0.308964D-03  0.421307D-02
     38 -0.143130D-01  0.314465D-03 -0.268977D-02  0.189636D-02  0.289579D-02
     39  0.105739D-01  0.275007D-03  0.281074D-02 -0.467996D-02  0.877851D-03
     40  0.102885D-01  0.509762D-03  0.248358D-02 -0.309257D-02 -0.439436D-03
               11            12            13            14            15 
     11  0.224309D+00
     12  0.780898D-03  0.170757D+00
     13  0.250093D-02 -0.511726D-03  0.273209D+00
     14  0.102542D-01 -0.274357D-03 -0.830466D-01  0.697769D-01
     15 -0.802777D-02  0.796353D-03 -0.554562D-01 -0.275083D-01  0.886688D-01
     16 -0.913690D-02  0.612487D-02  0.184117D-02 -0.909979D-02  0.112358D-01
     17  0.194212D-02 -0.159275D-02 -0.143139D-01  0.609664D-02 -0.163134D-02
     18  0.425328D-02 -0.131422D-02  0.181577D-01 -0.252811D-02 -0.754833D-02
     19  0.316327D-02 -0.209844D-02  0.722897D-02 -0.147311D-03 -0.400974D-02
     20  0.109466D-02 -0.204805D-02 -0.128429D-01  0.688544D-02 -0.220281D-03
     21 -0.126113D-02  0.795879D-03 -0.639408D-03 -0.854744D-03  0.219574D-02
     22  0.161476D-02 -0.292191D-01 -0.393864D-02  0.327732D-02 -0.407230D-03
     23  0.403359D-02  0.263031D-01 -0.513149D-02  0.473033D-03  0.499693D-02
     24 -0.564107D-02  0.291843D-02  0.907934D-02 -0.376565D-02 -0.458145D-02
     25 -0.101773D-02  0.310538D-03 -0.269574D-02  0.151006D-01 -0.333793D-01
     26 -0.406893D-02  0.860156D-03  0.133539D-01 -0.186240D-01  0.299675D-01
     27  0.336548D-03 -0.201432D-04  0.556272D-03 -0.583442D-03  0.940235D-04
     28 -0.800760D-04 -0.265380D-03 -0.128138D-03  0.445602D-03 -0.399340D-03
     29  0.443824D-02 -0.134715D-03  0.706463D-02  0.155872D-01 -0.875788D-02
     30  0.325861D-02  0.488877D-03  0.802701D-02  0.129839D-01 -0.695228D-02
     31  0.597985D-02 -0.492994D-03  0.106764D-01  0.141377D-01 -0.106289D-01
     32 -0.486034D-02  0.528474D-04 -0.945378D-02 -0.936385D-02  0.776953D-02
     33 -0.603996D-02  0.676440D-03 -0.849140D-02 -0.119672D-01  0.957513D-02
     34 -0.331872D-02 -0.305431D-03 -0.584201D-02 -0.108134D-01  0.589851D-02
     35 -0.652983D-03 -0.209183D-03 -0.920817D-02  0.227023D-02  0.179137D-02
     36 -0.116673D-02 -0.109533D-03 -0.976206D-02  0.324948D-02  0.123319D-02
     37  0.593479D-03 -0.700861D-03  0.260363D-02  0.515897D-03 -0.595988D-03
     38  0.797358D-04 -0.601211D-03  0.204974D-02  0.149514D-02 -0.115417D-02
     39 -0.184501D-03  0.553141D-03  0.619612D-02 -0.199356D-02 -0.921804D-03
     40 -0.698244D-03  0.652791D-03  0.564223D-02 -0.101432D-02 -0.147999D-02
               16            17            18            19            20 
     16  0.186769D+00
     17 -0.549123D-01  0.622554D-01
     18 -0.514890D-01 -0.132012D-02  0.570516D-01
     19 -0.586077D-01 -0.176746D-01  0.258758D-01  0.611086D-01
     20 -0.582685D-01  0.262757D-01 -0.158517D-01  0.479780D-02  0.596620D-01
     21  0.332897D-01 -0.147757D-01 -0.154650D-01 -0.139259D-01 -0.130708D-01
     22 -0.169306D-01  0.660662D-02  0.567345D-02  0.239161D-02  0.355777D-02
     23  0.128919D-01 -0.292335D-02 -0.173901D-02 -0.613598D-02 -0.594014D-02
     24  0.407087D-02 -0.365700D-02 -0.397306D-02  0.367329D-02  0.243045D-02
     25 -0.592406D-02  0.355897D-02  0.124069D-02  0.878926D-04  0.203357D-02
     26  0.325201D-02 -0.160228D-02 -0.636557D-03 -0.138548D-02 -0.488925D-03
     27  0.914279D-03  0.399709D-03 -0.867696D-03 -0.157483D-02  0.105335D-02
     28 -0.123680D-02 -0.125090D-02  0.167597D-02  0.299129D-02 -0.206782D-02
     29 -0.840376D-02  0.590271D-02 -0.190983D-02 -0.119801D-01  0.181284D-01
     30  0.132443D-01 -0.142040D-01 -0.648369D-02  0.125041D-01  0.239349D-03
     31 -0.175512D-01  0.736661D-02  0.136743D-01  0.146399D-02 -0.103233D-01
     32 -0.432537D-02  0.699861D-02 -0.457744D-02 -0.135457D-01  0.168263D-01
     33  0.173227D-01 -0.131081D-01 -0.915129D-02  0.109385D-01 -0.106281D-02
     34 -0.134728D-01  0.846251D-02  0.110067D-01 -0.101627D-03 -0.116254D-01
     35 -0.128902D-03  0.181141D-01 -0.171766D-01 -0.865731D-02  0.766648D-02
     36 -0.211162D-02  0.162990D-01 -0.146661D-01 -0.393746D-02  0.444266D-02
     37 -0.107858D-01 -0.129887D-01 -0.249365D-03  0.100839D-01  0.844025D-02
     38 -0.127685D-01 -0.148038D-01  0.226110D-02  0.148037D-01  0.521643D-02
     39  0.117785D-01  0.129521D-03  0.123935D-01 -0.869289D-02 -0.988496D-02
     40  0.979575D-02 -0.168556D-02  0.149040D-01 -0.397304D-02 -0.131088D-01
               21            22            23            24            25 
     21  0.236853D-01
     22 -0.118585D-02  0.201684D+00
     23  0.344442D-02 -0.101035D+00  0.163869D+00
     24 -0.225378D-02 -0.100675D+00 -0.628198D-01  0.163511D+00
     25 -0.953244D-03  0.433312D-03  0.729567D-04 -0.519913D-03  0.210580D-01
     26  0.852556D-03 -0.158634D-03  0.375053D-02 -0.359956D-02 -0.108097D-01
     27  0.113662D-03 -0.155151D-02  0.147630D-03  0.159014D-02 -0.410227D-03
     28 -0.178937D-03  0.139783D-02 -0.463399D-03 -0.112964D-02  0.477022D-03
     29 -0.855979D-03  0.266271D-02  0.109351D-02 -0.373694D-02  0.110363D-02
     30 -0.480653D-02 -0.194785D-02  0.491965D-03  0.142475D-02 -0.631164D-03
     31  0.457042D-02  0.498619D-02  0.170524D-02 -0.672659D-02  0.140435D-02
     32 -0.624024D-03  0.106610D-02  0.692193D-03 -0.172999D-02  0.155036D-02
     33 -0.457457D-02 -0.354446D-02  0.906497D-04  0.343170D-02 -0.184430D-03
     34  0.480238D-02  0.338958D-02  0.130392D-02 -0.471964D-02  0.185108D-02
     35  0.262804D-03  0.667968D-03 -0.640018D-03  0.172643D-03  0.754215D-03
     36 -0.524609D-04  0.315263D-03 -0.919602D-03  0.412567D-03  0.165699D-02
     37  0.675149D-02  0.151455D-02 -0.109338D-02 -0.227021D-03 -0.172671D-05
     38  0.643623D-02  0.116185D-02 -0.137296D-02  0.129028D-04  0.901045D-03
     39 -0.685456D-02 -0.225274D-03  0.123342D-02 -0.806745D-03  0.115525D-04
     40 -0.716983D-02 -0.577979D-03  0.953835D-03 -0.566821D-03  0.914324D-03
               26            27            28            29            30 
     26  0.201224D-01
     27 -0.343845D-03  0.150595D-01
     28  0.183022D-03  0.300534D-02  0.156336D-01
     29  0.182398D-02  0.199961D-03 -0.100682D-02  0.239480D-01
     30  0.129920D-02 -0.894969D-03  0.110022D-02  0.655288D-02  0.225056D-01
     31  0.867928D-03 -0.110443D-02  0.123829D-02  0.801824D-02  0.228582D-02
     32  0.169281D-02  0.548602D-03 -0.126260D-02  0.638907D-02 -0.935771D-02
     33  0.116803D-02 -0.546328D-03  0.844447D-03 -0.110060D-01  0.659502D-02
     34  0.736756D-03 -0.755784D-03  0.982518D-03 -0.954068D-02 -0.136248D-01
     35 -0.133369D-03  0.586866D-02 -0.709433D-02 -0.158280D-02 -0.597035D-03
     36  0.368049D-03 -0.650867D-02  0.588132D-02 -0.289894D-02  0.149570D-02
     37  0.712289D-03  0.582493D-02 -0.671662D-02  0.410856D-02  0.584880D-03
     38  0.121371D-02 -0.655241D-02  0.625903D-02  0.279242D-02  0.267761D-02
     39  0.704734D-03  0.598303D-02 -0.702542D-02  0.205607D-02 -0.566875D-03
     40  0.120615D-02 -0.639431D-02  0.595023D-02  0.739930D-03  0.152586D-02
               31            32            33            34            35 
     31  0.227994D-01
     32 -0.877477D-02  0.183818D-01
     33 -0.145072D-01  0.263508D-02  0.202361D-01
     34  0.600644D-02  0.321802D-02 -0.866066D-03  0.187651D-01
     35 -0.499460D-03 -0.366562D-03  0.619198D-03  0.716774D-03  0.188473D-01
     36  0.177876D-02 -0.226388D-02  0.213076D-02  0.241382D-02  0.549313D-02
     37  0.396110D-03  0.245098D-02 -0.107270D-02 -0.126147D-02  0.221439D-02
     38  0.267433D-02  0.553664D-03  0.438857D-03  0.435572D-03 -0.111398D-01
     39 -0.376055D-03  0.164197D-02 -0.980975D-03 -0.790154D-03  0.253037D-02
     40  0.190216D-02 -0.255342D-03  0.530583D-03  0.906889D-03 -0.108238D-01
               36            37            38            39            40 
     36  0.182536D-01
     37 -0.107198D-01  0.184009D-01
     38  0.204065D-02  0.546671D-02  0.186472D-01
     39 -0.108726D-01  0.661228D-03 -0.127417D-01  0.185328D-01
     40  0.188783D-02 -0.122729D-01  0.438725D-03  0.512987D-02  0.178415D-01
 Leave Link  716 at Mon Mar 11 19:47:45 2019, MaxMem=   671088640 cpu:               0.5 elap:               0.0
 (Enter /shared/centos7/gaussian/g16/l103.exe)

 GradGradGradGradGradGradGradGradGradGradGradGradGradGradGradGradGradGrad
 Berny optimization.
 Red2BG is reusing G-inverse.
 Internal  Forces:  Max     0.000000099 RMS     0.000000028
 Search for a local minimum.
 Step number   1 out of a maximum of   50 on scan point     1 out of    37
 All quantities printed in internal units (Hartrees-Bohrs-Radians)
 RMS Force = .28229D-07 SwitMx=.10000D-02 MixMth= 2
 Mixed Optimization -- En-DIIS/RFO-DIIS
 Second derivative matrix not updated -- analytic derivatives used.
 ITU=  0
     Eigenvalues ---    0.00618   0.01295   0.01805   0.02261   0.04319
     Eigenvalues ---    0.05085   0.05524   0.07971   0.11867   0.13069
     Eigenvalues ---    0.15240   0.19022   0.20390   0.23314   0.25842
     Eigenvalues ---    0.29381   0.32971   0.33870   0.34570   0.39832
     Eigenvalues ---    0.43436   0.43770   0.45466   0.53312   0.53652
     Eigenvalues ---    0.933801000.000001000.000001000.000001000.00000
     Eigenvalues --- 1000.000001000.000001000.000001000.000001000.00000
     Eigenvalues --- 1000.000001000.000001000.000001000.000001000.00000
 RFO step:  Lambda= 0.00000000D+00 EMin= 6.17928281D-03
 Linear search not attempted -- first point.
 Iteration  1 RMS(Cart)=  0.00000096 RMS(Int)=  0.00000000
 Iteration  1 RMS(Cart)=  0.00000000 RMS(Int)=  0.00000000
 ITry= 1 IFail=0 DXMaxC= 4.67D-06 DCOld= 1.00D+10 DXMaxT= 3.00D-01 DXLimC= 3.00D+00 Rises=F
 Variable       Old X    -DE/DX   Delta X   Delta X   Delta X     New X
                                 (Linear)    (Quad)   (Total)
    R1        2.67721  -0.00000   0.00000  -0.00000  -0.00000   2.67721
    R2        1.81868   0.00000   0.00000  -0.00000  -0.00000   1.81868
    R3        2.53777  -0.00000   0.00000  -0.00000  -0.00000   2.53777
    R4        1.82514   0.00000   0.00000   0.00000   0.00000   1.82514
    R5        2.26168   0.00000   0.00000   0.00000   0.00000   2.26168
    R6        2.73120  -0.00000   0.00000  -0.00000  -0.00000   2.73120
    R7        1.91371  -0.00000   0.00000  -0.00000  -0.00000   1.91371
    R8        2.85330   0.00000   0.00000   0.00000   0.00000   2.85330
    R9        2.07154   0.00000   0.00000   0.00000   0.00000   2.07154
   R10        2.06162  -0.00000   0.00000  -0.00000  -0.00000   2.06162
    A1        1.79489  -0.00000   0.00000   0.00000   0.00000   1.79489
    A2        1.87916   0.00000   0.00000   0.00000   0.00000   1.87916
    A3        1.88763   0.00000   0.00000   0.00000   0.00000   1.88763
    A4        1.81410  -0.00000   0.00000   0.00000   0.00000   1.81410
    A5        1.91020  -0.00000   0.00000  -0.00000  -0.00000   1.91020
    A6        1.91618   0.00000   0.00000   0.00000   0.00000   1.91618
    A7        1.98185  -0.00000   0.00000   0.00000   0.00000   1.98185
    A8        1.90529  -0.00000   0.00000  -0.00000  -0.00000   1.90529
    A9        1.87573  -0.00000   0.00000   0.00000   0.00000   1.87573
   A10        1.89409  -0.00000   0.00000  -0.00000  -0.00000   1.89409
   A11        1.88867   0.00000   0.00000  -0.00000  -0.00000   1.88867
   A12        2.15071   0.00000   0.00000   0.00000   0.00000   2.15071
   A13        1.93889  -0.00000   0.00000  -0.00000  -0.00000   1.93889
   A14        2.19346   0.00000   0.00000   0.00000   0.00000   2.19346
    D1        1.72826   0.00000   0.00000   0.00000   0.00000   1.72827
    D2       -2.52587   0.00000   0.00000   0.00000   0.00000  -2.52587
    D3        0.00889   0.00000   0.00000   0.00000   0.00000   0.00889
    D4       -3.11660  -0.00000   0.00000  -0.00000  -0.00000  -3.11660
    D5       -1.25931  -0.00000   0.00000  -0.00000  -0.00000  -1.25931
    D6        0.84076   0.00000   0.00000  -0.00000  -0.00000   0.84076
    D7        2.94959  -0.00000   0.00000  -0.00000  -0.00000   2.94959
    D8        3.05827  -0.00000   0.00000  -0.00000  -0.00000   3.05827
    D9       -1.12484   0.00000   0.00000  -0.00000  -0.00000  -1.12484
   D10        0.98399  -0.00000   0.00000  -0.00000  -0.00000   0.98399
   D11       -3.06046   0.00000   0.00000   0.00000   0.00000  -3.06046
   D12        0.09772   0.00000   0.00000   0.00000   0.00000   0.09772
   D13        1.05942  -0.00000   0.00000   0.00000   0.00000   1.05942
   D14       -2.06559  -0.00000   0.00000  -0.00000  -0.00000  -2.06559
   D15       -0.97929   0.00000   0.00000   0.00000   0.00000  -0.97929
   D16        2.17889   0.00000   0.00000   0.00000  -0.00000   2.17889
         Item               Value     Threshold  Converged?
 Maximum Force            0.000000     0.000450     YES
 RMS     Force            0.000000     0.000300     YES
 Maximum Displacement     0.000005     0.001800     YES
 RMS     Displacement     0.000001     0.001200     YES
 Predicted change in Energy=-1.243968D-13
 Optimization completed.
    -- Stationary point found.
                           ----------------------------
                           !   Optimized Parameters   !
                           ! (Angstroms and Degrees)  !
 --------------------------                            --------------------------
 ! Name  Definition              Value          Derivative Info.                !
 --------------------------------------------------------------------------------
 ! R1    R(1,4)                  1.4167         -DE/DX =    0.0                 !
 ! R2    R(1,10)                 0.9624         -DE/DX =    0.0                 !
 ! R3    R(2,6)                  1.3429         -DE/DX =    0.0                 !
 ! R4    R(2,11)                 0.9658         -DE/DX =    0.0                 !
 ! R5    R(3,6)                  1.1968         -DE/DX =    0.0                 !
 ! R6    R(4,5)                  1.4453         -DE/DX =    0.0                 !
 ! R7    R(4,9)                  1.0127         -DE/DX =    0.0                 !
 ! R8    R(5,6)                  1.5099         -DE/DX =    0.0                 !
 ! R9    R(5,7)                  1.0962         -DE/DX =    0.0                 !
 ! R10   R(5,8)                  1.091          -DE/DX =    0.0                 !
 ! A1    A(4,1,10)             102.8396         -DE/DX =    0.0                 !
 ! A2    A(6,2,11)             107.6677         -DE/DX =    0.0                 !
 ! A3    A(1,4,5)              108.1532         -DE/DX =    0.0                 !
 ! A4    A(1,4,9)              103.9401         -DE/DX =    0.0                 !
 ! A5    A(5,4,9)              109.4465         -DE/DX =    0.0                 !
 ! A6    A(4,5,6)              109.7891         -DE/DX =    0.0                 !
 ! A7    A(4,5,7)              113.5518         -DE/DX =    0.0                 !
 ! A8    A(4,5,8)              109.1649         -DE/DX =    0.0                 !
 ! A9    A(6,5,7)              107.4715         -DE/DX =    0.0                 !
 ! A10   A(6,5,8)              108.5231         -DE/DX =    0.0                 !
 ! A11   A(7,5,8)              108.213          -DE/DX =    0.0                 !
 ! A12   A(2,6,3)              123.2266         -DE/DX =    0.0                 !
 ! A13   A(2,6,5)              111.0903         -DE/DX =    0.0                 !
 ! A14   A(3,6,5)              125.676          -DE/DX =    0.0                 !
 ! D1    D(10,1,4,5)            99.0223         -DE/DX =    0.0                 !
 ! D2    D(10,1,4,9)          -144.7217         -DE/DX =    0.0                 !
 ! D3    D(11,2,6,3)             0.5092         -DE/DX =    0.0                 !
 ! D4    D(11,2,6,5)          -178.5681         -DE/DX =    0.0                 !
 ! D5    D(1,4,5,6)            -72.1532         -DE/DX =    0.0                 !
 ! D6    D(1,4,5,7)             48.1718         -DE/DX =    0.0                 !
 ! D7    D(1,4,5,8)            168.999          -DE/DX =    0.0                 !
 ! D8    D(9,4,5,6)            175.2262         -DE/DX =    0.0                 !
 ! D9    D(9,4,5,7)            -64.4488         -DE/DX =    0.0                 !
 ! D10   D(9,4,5,8)             56.3783         -DE/DX =    0.0                 !
 ! D11   D(4,5,6,2)           -175.3513         -DE/DX =    0.0                 !
 ! D12   D(4,5,6,3)              5.5989         -DE/DX =    0.0                 !
 ! D13   D(7,5,6,2)             60.7004         -DE/DX =    0.0                 !
 ! D14   D(7,5,6,3)           -118.3494         -DE/DX =    0.0                 !
 ! D15   D(8,5,6,2)            -56.109          -DE/DX =    0.0                 !
 ! D16   D(8,5,6,3)            124.8412         -DE/DX =    0.0                 !
 --------------------------------------------------------------------------------
 Lowest energy point so far.  Saving SCF results.
 Iteration  1 RMS(Cart)=  0.01596052 RMS(Int)=  0.02035460
 Iteration  2 RMS(Cart)=  0.00052772 RMS(Int)=  0.02035056
 Iteration  3 RMS(Cart)=  0.00002202 RMS(Int)=  0.02035056
 Iteration  4 RMS(Cart)=  0.00000080 RMS(Int)=  0.02035056
 Iteration  1 RMS(Cart)=  0.00864527 RMS(Int)=  0.01111334
 Iteration  2 RMS(Cart)=  0.00470810 RMS(Int)=  0.01242139
 Iteration  3 RMS(Cart)=  0.00257536 RMS(Int)=  0.01403559
 Iteration  4 RMS(Cart)=  0.00141205 RMS(Int)=  0.01510575
 Iteration  5 RMS(Cart)=  0.00077520 RMS(Int)=  0.01573674
 Iteration  6 RMS(Cart)=  0.00042586 RMS(Int)=  0.01609480
 Iteration  7 RMS(Cart)=  0.00023404 RMS(Int)=  0.01629477
 Iteration  8 RMS(Cart)=  0.00012865 RMS(Int)=  0.01640562
 Iteration  9 RMS(Cart)=  0.00007072 RMS(Int)=  0.01646683
 Iteration 10 RMS(Cart)=  0.00003888 RMS(Int)=  0.01650056
 Iteration 11 RMS(Cart)=  0.00002138 RMS(Int)=  0.01651913
 Iteration 12 RMS(Cart)=  0.00001175 RMS(Int)=  0.01652935
 Iteration 13 RMS(Cart)=  0.00000646 RMS(Int)=  0.01653497
 Iteration 14 RMS(Cart)=  0.00000355 RMS(Int)=  0.01653806
 Iteration 15 RMS(Cart)=  0.00000195 RMS(Int)=  0.01653976
 Iteration 16 RMS(Cart)=  0.00000107 RMS(Int)=  0.01654070
 Iteration 17 RMS(Cart)=  0.00000059 RMS(Int)=  0.01654121
 GradGradGradGradGradGradGradGradGradGradGradGradGradGradGradGradGradGrad

 Leave Link  103 at Mon Mar 11 19:47:46 2019, MaxMem=   671088640 cpu:               0.6 elap:               0.1
 (Enter /shared/centos7/gaussian/g16/l202.exe)
[...]
           A4         104.56893 104.53186 104.46175 104.35453 104.23951
           A5         108.73622 108.97119 109.19536 109.34705 109.44413
           A6         108.90939 109.04276 109.18982 109.32916 109.51324
           A7         113.67547 114.00819 114.25048 114.32850 114.21742
           A8         106.28196 106.43733 106.71868 107.16240 107.76085
           A9         109.74919 109.52546 109.25076 108.91557 108.49056
           A10        107.34344 107.26481 107.21991 107.35265 107.60402
           A11        110.64080 110.31428 109.96265 109.52404 109.05914
           A12        123.19448 123.20705 123.23122 123.26242 123.27665
           A13        111.67731 111.37271 111.10932 110.95028 110.89024
           A14        125.08131 125.35970 125.60048 125.74823 125.81921
           D1         120.95599 117.40060 113.16880 108.88223 105.29360
           D2        -123.63107-126.88400-130.81629-134.90927-138.38792
           D3          -0.02055  -0.36861  -0.57760  -0.57014  -0.37676
           D4         177.60144 176.93695 176.76884 177.27287 178.33728
           D5         -68.62870 -67.76369 -67.39341 -67.60542 -68.84924
           D6          54.06873  54.97416  55.26781  54.77960  53.04387
           D7         176.01005 176.82075 177.02269 176.34646 174.37911
           D8         178.75690 179.49072 179.74320 179.49729 178.27530
           D9         -58.54566 -57.77143 -57.59557 -58.11769 -59.83159
           D10         63.39565  64.07517  64.15930  63.44917  61.50365
           D11        132.59889 142.72383 152.30886 161.13653 169.29628
           D12        -49.83285 -40.04059 -30.42103 -21.08581 -12.02959
           D13          7.57096  17.33757  26.70385  35.56638  44.02881
           D14       -174.86079-165.42684-156.02604-146.65595-137.29706
           D15       -112.72713-102.39449 -92.42902 -82.93659 -73.83318
           D16         64.84113  74.84110  84.84110  94.84107 104.84095
                          36        37
     Eigenvalues --    -0.59376  -0.59395
           R1           1.41662   1.41673
           R2           0.96221   0.96240
           R3           1.34322   1.34294
           R4           0.96578   0.96582
           R5           1.19631   1.19681
           R6           1.44513   1.44525
           R7           1.01282   1.01268
           R8           1.51064   1.50982
           R9           1.09520   1.09623
           R10          1.09169   1.09094
           A1         102.87258 102.84447
           A2         107.63673 107.66779
           A3         108.06915 108.15220
           A4         104.09611 103.93839
           A5         109.46729 109.45536
           A6         109.66711 109.79683
           A7         113.93927 113.55440
           A8         108.44515 109.16234
           A9         107.99107 107.46215
           A10        108.03255 108.51669
           A11        108.60988 108.22043
           A12        123.25657 123.23181
           A13        110.94704 111.07588
           A14        125.79590 125.68500
           D1         101.99607  98.94513
           D2        -141.68506-144.79004
           D3           0.04571   0.52833
           D4         179.80512-178.53841
           D5         -70.36758 -72.15268
           D6          50.80033  48.16761
           D7         171.87414 169.00416
           D8         176.86197 175.22478
           D9         -61.97012 -64.45493
           D10         59.10369  56.38161
           D11        177.07393-175.36012
           D12         -3.17411   5.60098
           D13         52.38477  60.68962
           D14       -127.86327-118.34928
           D15        -64.91085 -56.12021
           D16        114.84111 124.84089
 Largest change from initial coordinates is atom   10       0.001 Angstoms.
 GradGradGradGradGradGradGradGradGradGradGradGradGradGradGradGradGradGrad

 Leave Link  103 at Mon Mar 11 20:54:56 2019, MaxMem=   671088640 cpu:               0.4 elap:               0.1
 (Enter /shared/centos7/gaussian/g16/l202.exe)
                          Input orientation:                          
 ---------------------------------------------------------------------
 Center     Atomic      Atomic             Coordinates (Angstroms)
 Number     Number       Type             X           Y           Z
 ---------------------------------------------------------------------
      1          8           0       -4.093102   -1.877769    1.082392
      2          8           0       -3.382809   -0.758706   -2.816154
      3          8           0       -4.510264    0.025088   -1.052072
      4          7           0       -4.813902   -2.466819    0.014410
      5          6           0       -4.024504   -2.334015   -1.188904
      6          6           0       -4.025321   -0.894652   -1.644754
      7          1           0       -2.978998   -2.638537   -1.062792
      8          1           0       -4.465747   -2.946998   -1.976113
      9          1           0       -4.875216   -3.444430    0.271407
     10          1           0       -4.497703   -1.007958    1.159529
     11          1           0       -3.392577    0.178631   -3.048778
 ---------------------------------------------------------------------
                    Distance matrix (angstroms):
                    1          2          3          4          5
     1  O    0.000000
     2  O    4.117703   0.000000
     3  O    2.889779   2.235503   0.000000
     4  N    1.416728   3.602466   2.727485   0.000000
     5  C    2.317682   2.354000   2.412479   1.445251   0.000000
     6  C    2.899731   1.342937   1.196813   2.417931   1.509824
     7  H    2.534129   2.602134   3.072424   2.134648   1.096229
     8  H    3.261375   2.582062   3.112736   2.077009   1.090936
     9  H    1.929722   4.355849   3.731265   1.012685   2.022186
    10  H    0.962405   4.136564   2.441008   1.881370   2.738153
    11  H    4.667557   0.965821   2.293390   4.289719   3.189335
                    6          7          8          9         10
     6  C    0.000000
     7  H    2.115326   0.000000
     8  H    2.125064   1.771926   0.000000
     9  H    3.300812   2.454627   2.338044   0.000000
    10  H    2.846047   3.147056   3.686888   2.620624   0.000000
    11  H    1.877122   3.471545   3.474458   5.133071   4.509894
                   11
    11  H    0.000000
 Stoichiometry    C2H5NO3
 Framework group  C1[X(C2H5NO3)]
 Deg. of freedom    27
 Full point group                 C1      NOp   1
 RotChk:  IX=0 Diff= 1.65D-15
 Largest Abelian subgroup         C1      NOp   1
 Largest concise Abelian subgroup C1      NOp   1
                         Standard orientation:                         
 ---------------------------------------------------------------------
 Center     Atomic      Atomic             Coordinates (Angstroms)
 Number     Number       Type             X           Y           Z
 ---------------------------------------------------------------------
      1          8           0       -1.926929    0.471242    0.523272
      2          8           0        2.087082   -0.408537    0.260243
      3          8           0        0.719074    1.257381   -0.331994
      4          7           0       -1.438927   -0.404211   -0.478004
      5          6           0       -0.184781   -0.957522   -0.020057
      6          6           0        0.888686    0.103266   -0.064389
      7          1           0       -0.224394   -1.342775    1.005481
      8          1           0        0.108387   -1.774910   -0.680413
      9          1           0       -2.135572   -1.137937   -0.521159
     10          1           0       -1.662450    1.337387    0.197591
     11          1           0        2.729262    0.312549    0.239036
 ---------------------------------------------------------------------
 Rotational constants (GHZ):           7.7309019           2.4836748           2.0693197
 Leave Link  202 at Mon Mar 11 20:54:56 2019, MaxMem=   671088640 cpu:               0.1 elap:               0.0
 (Enter /shared/centos7/gaussian/g16/l601.exe)
 Copying SCF densities to generalized density rwf, IOpCl= 0 IROHF=0.

 **********************************************************************

            Population analysis using the SCF density.

 **********************************************************************

 Orbital symmetries:
       Occupied  (A) (A) (A) (A) (A) (A) (A) (A) (A) (A) (A) (A)
                 (A) (A) (A) (A) (A) (A) (A) (A) (A) (A) (A) (A)
       Virtual   (A) (A) (A) (A) (A) (A) (A) (A) (A) (A) (A) (A)
                 (A) (A) (A) (A) (A) (A) (A) (A) (A) (A) (A) (A)
                 (A) (A) (A) (A) (A) (A) (A) (A) (A) (A) (A) (A)
                 (A) (A) (A) (A) (A) (A) (A) (A) (A) (A) (A) (A)
                 (A) (A) (A) (A) (A) (A) (A) (A) (A) (A) (A) (A)
                 (A) (A) (A) (A) (A) (A) (A) (A) (A) (A) (A) (A)
                 (A) (A) (A) (A) (A) (A) (A) (A) (A) (A) (A) (A)
                 (A) (A) (A) (A) (A) (A) (A) (A) (A) (A) (A) (A)
                 (A) (A) (A) (A) (A) (A) (A) (A) (A) (A) (A) (A)
                 (A) (A) (A) (A) (A) (A) (A) (A) (A) (A) (A) (A)
                 (A) (A) (A) (A) (A) (A) (A) (A) (A) (A) (A) (A)
                 (A) (A) (A) (A) (A) (A) (A) (A) (A) (A) (A) (A)
                 (A) (A) (A) (A) (A) (A) (A) (A) (A) (A) (A) (A)
                 (A) (A) (A) (A) (A) (A) (A) (A) (A) (A) (A) (A)
                 (A) (A) (A) (A) (A) (A) (A) (A) (A) (A) (A) (A)
                 (A) (A) (A) (A) (A) (A) (A) (A) (A) (A) (A) (A)
                 (A) (A) (A) (A) (A) (A) (A) (A) (A) (A) (A) (A)
                 (A) (A) (A) (A) (A) (A) (A) (A) (A) (A) (A) (A)
                 (A) (A) (A) (A) (A) (A) (A) (A) (A)
 The electronic state is 1-A.
 Alpha  occ. eigenvalues --  -19.68340 -19.65071 -19.62970 -14.79784 -10.68771
 Alpha  occ. eigenvalues --  -10.58983  -1.25424  -1.19770  -1.15727  -0.96308
 Alpha  occ. eigenvalues --   -0.82534  -0.70255  -0.61561  -0.60121  -0.59055
 Alpha  occ. eigenvalues --   -0.56375  -0.55285  -0.51356  -0.48538  -0.47761
 Alpha  occ. eigenvalues --   -0.41518  -0.39293  -0.36910  -0.32118
 Alpha virt. eigenvalues --    0.00650   0.01954   0.03347   0.04260   0.05223
 Alpha virt. eigenvalues --    0.06287   0.07535   0.07960   0.08847   0.12200
 Alpha virt. eigenvalues --    0.13162   0.14392   0.17609   0.17990   0.19331
 Alpha virt. eigenvalues --    0.20456   0.20859   0.21540   0.22423   0.24142
 Alpha virt. eigenvalues --    0.24903   0.26308   0.26723   0.27801   0.28432
 Alpha virt. eigenvalues --    0.29223   0.29675   0.31069   0.31871   0.34649
 Alpha virt. eigenvalues --    0.35679   0.36488   0.38755   0.40838   0.49466
 Alpha virt. eigenvalues --    0.51392   0.51552   0.54784   0.55726   0.56550
 Alpha virt. eigenvalues --    0.58601   0.60708   0.61835   0.64031   0.65359
 Alpha virt. eigenvalues --    0.66633   0.70124   0.70615   0.71803   0.76879
 Alpha virt. eigenvalues --    0.77373   0.78235   0.80356   0.83835   0.86859
 Alpha virt. eigenvalues --    0.90021   0.90833   0.96022   0.99729   1.00014
 Alpha virt. eigenvalues --    1.02600   1.03977   1.06799   1.07897   1.08708
 Alpha virt. eigenvalues --    1.10742   1.12731   1.15505   1.17394   1.17858
 Alpha virt. eigenvalues --    1.19665   1.22694   1.23682   1.27124   1.28090
 Alpha virt. eigenvalues --    1.30005   1.30801   1.35772   1.40813   1.43618
 Alpha virt. eigenvalues --    1.44059   1.46630   1.49704   1.52253   1.55326
 Alpha virt. eigenvalues --    1.56175   1.58763   1.61977   1.63361   1.65125
 Alpha virt. eigenvalues --    1.74159   1.74363   1.78531   1.80570   1.85288
 Alpha virt. eigenvalues --    1.89226   1.93374   1.96706   2.01692   2.04793
 Alpha virt. eigenvalues --    2.14459   2.18298   2.20954   2.27549   2.32888
 Alpha virt. eigenvalues --    2.35084   2.38363   2.51770   2.58580   2.61299
 Alpha virt. eigenvalues --    2.64180   2.72921   2.74054   2.78988   2.80791
 Alpha virt. eigenvalues --    2.82534   2.88690   2.98778   3.05907   3.07197
 Alpha virt. eigenvalues --    3.08861   3.12498   3.15088   3.20604   3.27466
 Alpha virt. eigenvalues --    3.29940   3.34310   3.37301   3.38390   3.41352
 Alpha virt. eigenvalues --    3.45420   3.47863   3.49514   3.51527   3.56365
 Alpha virt. eigenvalues --    3.57998   3.60329   3.68230   3.69334   3.73179
 Alpha virt. eigenvalues --    3.74845   3.80520   3.84919   3.88864   3.89459
 Alpha virt. eigenvalues --    3.92679   3.96031   4.02062   4.03543   4.10158
 Alpha virt. eigenvalues --    4.12329   4.12842   4.17830   4.22059   4.23301
 Alpha virt. eigenvalues --    4.27801   4.30043   4.35487   4.39734   4.43048
 Alpha virt. eigenvalues --    4.53452   4.55411   4.73720   4.80185   4.89153
 Alpha virt. eigenvalues --    4.95998   5.05863   5.06704   5.07546   5.11035
 Alpha virt. eigenvalues --    5.12894   5.15214   5.15781   5.17333   5.18856
 Alpha virt. eigenvalues --    5.21145   5.26058   5.27222   5.30400   5.35786
 Alpha virt. eigenvalues --    5.37511   5.43435   5.46400   5.50562   5.51557
 Alpha virt. eigenvalues --    5.55079   5.58142   5.60142   5.63718   5.72849
 Alpha virt. eigenvalues --    5.76021   5.78835   5.91240   5.95408   5.96332
 Alpha virt. eigenvalues --    6.05851   6.31275   6.37526   6.58976   6.79429
 Alpha virt. eigenvalues --    6.80711   6.90563   6.91761   6.95419   7.00432
 Alpha virt. eigenvalues --    7.07275   7.11997   7.14839   7.19170   7.19770
 Alpha virt. eigenvalues --    7.25073   7.26276   7.28869   7.46248   7.53198
 Alpha virt. eigenvalues --    7.60385   7.66625   7.68662   7.71724  24.44210
 Alpha virt. eigenvalues --   24.81918  35.78307  50.10674  50.11729  50.28647
          Condensed to atoms (all electrons):
               1          2          3          4          5          6
     1  O    8.018108  -0.002598  -0.001693   0.110861   0.019011  -0.065963
     2  O   -0.002598   7.957330  -0.096674   0.011344  -0.137924   0.311255
     3  O   -0.001693  -0.096674   8.175448   0.008617  -0.034605   0.373453
     4  N    0.110861   0.011344   0.008617   6.785561   0.173850  -0.055066
     5  C    0.019011  -0.137924  -0.034605   0.173850   5.586719  -0.181542
     6  C   -0.065963   0.311255   0.373453  -0.055066  -0.181542   5.282010
     7  H   -0.006151   0.002219   0.003840  -0.019911   0.479163  -0.098937
     8  H    0.012737  -0.000306   0.002094  -0.060006   0.423407  -0.016025
     9  H   -0.063682  -0.000622  -0.000226   0.351309  -0.046457   0.026438
    10  H    0.253006  -0.000642   0.004397  -0.062058  -0.030629   0.041598
    11  H    0.000384   0.269146   0.019103  -0.001905  -0.018881   0.004297
               7          8          9         10         11
     1  O   -0.006151   0.012737  -0.063682   0.253006   0.000384
     2  O    0.002219  -0.000306  -0.000622  -0.000642   0.269146
     3  O    0.003840   0.002094  -0.000226   0.004397   0.019103
     4  N   -0.019911  -0.060006   0.351309  -0.062058  -0.001905
     5  C    0.479163   0.423407  -0.046457  -0.030629  -0.018881
     6  C   -0.098937  -0.016025   0.026438   0.041598   0.004297
     7  H    0.496047  -0.026698  -0.009814  -0.001219  -0.000220
     8  H   -0.026698   0.504043   0.000948  -0.000109   0.000331
     9  H   -0.009814   0.000948   0.511129   0.012449   0.000062
    10  H   -0.001219  -0.000109   0.012449   0.486861   0.000182
    11  H   -0.000220   0.000331   0.000062   0.000182   0.446864
 Mulliken charges:
               1
     1  O   -0.274019
     2  O   -0.312530
     3  O   -0.453754
     4  N   -0.242595
     5  C   -0.232114
     6  C    0.378481
     7  H    0.181682
     8  H    0.159584
     9  H    0.218467
    10  H    0.296163
    11  H    0.280636
 Sum of Mulliken charges =   0.00000
 Mulliken charges with hydrogens summed into heavy atoms:
               1
     1  O    0.022144
     2  O   -0.031894
     3  O   -0.453754
     4  N   -0.024129
     5  C    0.109152
     6  C    0.378481
 Electronic spatial extent (au):  <R**2>=            578.5558
 Charge=             -0.0000 electrons
 Dipole moment (field-independent basis, Debye):
    X=              1.1652    Y=             -1.7865    Z=              0.1218  Tot=              2.1364
 Quadrupole moment (field-independent basis, Debye-Ang):
   XX=            -31.9341   YY=            -33.3324   ZZ=            -37.3578
   XY=              2.9895   XZ=              1.4919   YZ=              1.9553
 Traceless Quadrupole moment (field-independent basis, Debye-Ang):
   XX=              2.2740   YY=              0.8757   ZZ=             -3.1497
   XY=              2.9895   XZ=              1.4919   YZ=              1.9553
 Octapole moment (field-independent basis, Debye-Ang**2):
  XXX=             22.7165  YYY=             -0.2058  ZZZ=              2.5648  XYY=            -11.1858
  XXY=              5.7440  XXZ=             -2.9310  XZZ=              3.9654  YZZ=             -0.4944
  YYZ=              0.5269  XYZ=              1.2530
 Hexadecapole moment (field-independent basis, Debye-Ang**3):
 XXXX=           -399.4015 YYYY=           -157.6938 ZZZZ=            -68.4264 XXXY=             36.0969
 XXXZ=             15.3792 YYYX=             -8.8493 YYYZ=              6.2399 ZZZX=             -3.1197
 ZZZY=             -0.0376 XXYY=            -93.0157 XXZZ=            -94.1904 YYZZ=            -36.0331
 XXYZ=              5.2949 YYXZ=              1.0186 ZZXY=              0.9885
 N-N= 2.491161838092D+02 E-N=-1.343770817887D+03  KE= 3.584765516737D+02
 No NMR shielding tensors so no spin-rotation constants.
 Leave Link  601 at Mon Mar 11 20:54:56 2019, MaxMem=   671088640 cpu:               3.9 elap:               0.2
 (Enter /shared/centos7/gaussian/g16/l9999.exe)
 1\1\GINC-C0233\Scan\RM062X\6-311+G(2df,2p)\C2H5N1O3\UNDERKOFFLER.C\11-
 Mar-2019\0\\#p m062x/6-311+g(2df,2p) Opt=(CalcFC,ModRedun)\\Gaussian I
 nput Prepared from Scan Object\\0,1\O,-4.0931020895,-1.8777690946,1.08
 23921624\O,-3.3828090008,-0.7587061127,-2.8161535046\O,-4.5102644724,0
 .025087636,-1.0520718729\N,-4.813902323,-2.4668187105,0.0144095788\C,-
 4.0245038609,-2.3340154893,-1.1889035936\C,-4.0253211583,-0.8946516965
 ,-1.6447537948\H,-2.9789983542,-2.6385368868,-1.0627924238\H,-4.465746
 5665,-2.9469977686,-1.9761131447\H,-4.8752162977,-3.4444299806,0.27140
 67251\H,-4.4977030703,-1.0079582267,1.1595287826\H,-3.3925768477,0.178
 6310427,-3.0487782857\\Version=EM64L-G16RevA.03\State=1-A\HF=-359.5939
 469,-359.5937551,-359.5931768,-359.5922392,-359.5910503,-359.5898019,-
 359.5887707,-359.5881403,-359.5879024,-359.5879434,-359.5882197,-359.5
 887253,-359.5894249,-359.5901747,-359.5908358,-359.5913389,-359.591656
 8,-359.591799,-359.5917754,-359.5916062,-359.5913183,-359.5909059,-359
 .5903701,-359.5897053,-359.5889183,-359.5880801,-359.5873984,-359.5872
 759,-359.5876981,-359.5884179,-359.5893031,-359.5903147,-359.5913841,-
 359.5923949,-359.5932216,-359.5937594,-359.5939468\RMSD=2.741e-09,9.59
 1e-09,5.018e-09,6.406e-09,9.142e-09,3.220e-09,9.274e-09,7.686e-09,5.74
 3e-09,6.121e-09,6.864e-09,9.437e-09,6.469e-09,9.928e-09,4.050e-09,8.68
 7e-09,2.999e-09,3.968e-09,8.967e-09,9.279e-09,5.991e-09,5.751e-09,5.18
 1e-09,5.706e-09,5.617e-09,5.905e-09,3.780e-09,4.721e-09,5.347e-09,9.52
 7e-09,9.095e-09,5.402e-09,6.298e-09,8.375e-09,5.543e-09,4.270e-09,6.19
 2e-09\PG=C01 [X(C2H5N1O3)]\\@


 IT IS A PROFOUNDLY ERRONEOUS TRUISM ... THAT WE SHOULD CULTIVATE
 THE HABIT OF THINKING OF WHAT WE ARE DOING.
 THE PRECISE OPPOSITE IS THE CASE.
 CIVILIZATION ADVANCES BY EXTENDING THE NUMBER OF IMPORTANT OPERATIONS
 WHICH WE CAN PERFORM WITHOUT THINKING ABOUT THEM.

                                    -- ALFRED NORTH WHITEHEAD
 Job cpu time:       0 days 16 hours 36 minutes 48.7 seconds.
 Elapsed time:       0 days  1 hours  9 minutes 34.4 seconds.
 File lengths (MBytes):  RWF=    288 Int=      0 D2E=      0 Chk=     32 Scr=     32
 Normal termination of Gaussian 16 at Mon Mar 11 20:54:56 2019.
