 Entering Gaussian System, Link 0=g16
 Input=NPWGWQRXHVJJRD-UHFFFAOYSA-N_GeoFreq_c2_a1.com
 Output=NPWGWQRXHVJJRD-UHFFFAOYSA-N_GeoFreq_c2_a1.log
 Initial command:
 /shared/centos7/gaussian/g16/l1.exe "/scratch/underkoffler.c/gaussian_scratch/Gau-14488.inp" -scrdir="/scratch/underkoffler.c/gaussian_scratch/"
 Entering Link 1 = /shared/centos7/gaussian/g16/l1.exe PID=     14489.
  
 Copyright (c) 1988,1990,1992,1993,1995,1998,2003,2009,2016,
            Gaussian, Inc.  All Rights Reserved.
  
 This is part of the Gaussian(R) 16 program.  It is based on
 the Gaussian(R) 09 system (copyright 2009, Gaussian, Inc.),
 the Gaussian(R) 03 system (copyright 2003, Gaussian, Inc.),
 the Gaussian(R) 98 system (copyright 1998, Gaussian, Inc.),
 the Gaussian(R) 94 system (copyright 1995, Gaussian, Inc.),
 the Gaussian 92(TM) system (copyright 1992, Gaussian, Inc.),
 the Gaussian 90(TM) system (copyright 1990, Gaussian, Inc.),
 the Gaussian 88(TM) system (copyright 1988, Gaussian, Inc.),
 the Gaussian 86(TM) system (copyright 1986, Carnegie Mellon
 University), and the Gaussian 82(TM) system (copyright 1983,
 Carnegie Mellon University). Gaussian is a federally registered
 trademark of Gaussian, Inc.
  
 This software contains proprietary and confidential information,
 including trade secrets, belonging to Gaussian, Inc.
  
 This software is provided under written license and may be
 used, copied, transmitted, or stored only in accord with that
 written license.
  
 The following legend is applicable only to US Government
 contracts under FAR:
  
                    RESTRICTED RIGHTS LEGEND
  
 Use, reproduction and disclosure by the US Government is
 subject to restrictions as set forth in subparagraphs (a)
 and (c) of the Commercial Computer Software - Restricted
 Rights clause in FAR 52.227-19.
  
 Gaussian, Inc.
 340 Quinnipiac St., Bldg. 40, Wallingford CT 06492
  
  
 ---------------------------------------------------------------
 Warning -- This program may not be used in any manner that
 competes with the business of Gaussian, Inc. or will provide
 assistance to any competitor of Gaussian, Inc.  The licensee
 of this program is prohibited from giving any competitor of
 Gaussian, Inc. access to this program.  By using this program,
 the user acknowledges that Gaussian, Inc. is engaged in the
 business of creating and licensing software in the field of
 computational chemistry and represents and warrants to the
 licensee that it is not a competitor of Gaussian, Inc. and that
 it will not use this program in any manner prohibited above.
 ---------------------------------------------------------------
  

 Cite this work as:
 Gaussian 16, Revision A.03,
 M. J. Frisch, G. W. Trucks, H. B. Schlegel, G. E. Scuseria, 
 M. A. Robb, J. R. Cheeseman, G. Scalmani, V. Barone, 
 G. A. Petersson, H. Nakatsuji, X. Li, M. Caricato, A. V. Marenich, 
 J. Bloino, B. G. Janesko, R. Gomperts, B. Mennucci, H. P. Hratchian, 
 J. V. Ortiz, A. F. Izmaylov, J. L. Sonnenberg, D. Williams-Young, 
 F. Ding, F. Lipparini, F. Egidi, J. Goings, B. Peng, A. Petrone, 
 T. Henderson, D. Ranasinghe, V. G. Zakrzewski, J. Gao, N. Rega, 
 G. Zheng, W. Liang, M. Hada, M. Ehara, K. Toyota, R. Fukuda, 
 J. Hasegawa, M. Ishida, T. Nakajima, Y. Honda, O. Kitao, H. Nakai, 
 T. Vreven, K. Throssell, J. A. Montgomery, Jr., J. E. Peralta, 
 F. Ogliaro, M. J. Bearpark, J. J. Heyd, E. N. Brothers, K. N. Kudin, 
 V. N. Staroverov, T. A. Keith, R. Kobayashi, J. Normand, 
 K. Raghavachari, A. P. Rendell, J. C. Burant, S. S. Iyengar, 
 J. Tomasi, M. Cossi, J. M. Millam, M. Klene, C. Adamo, R. Cammi, 
 J. W. Ochterski, R. L. Martin, K. Morokuma, O. Farkas, 
 J. B. Foresman, and D. J. Fox, Gaussian, Inc., Wallingford CT, 2016.
 
 ******************************************
 Gaussian 16:  EM64L-G16RevA.03 25-Dec-2016
                 9-Apr-2019 
 ******************************************
 %nprocshared=20
 Will use up to   20 processors via shared memory.
 %mem=5GB
 ----------------------------------------------------------------------
 #p m062x/6-311+g(2df,2p) opt=(calcfc,verytight,gdiis,maxcycles=900) fr
 eq iop(7/33=1,2/16=3)
 ----------------------------------------------------------------------

 Warning!  Use of Opt=GDIIS is deprecated since it is seldom a good choice.

 1/6=900,7=1,10=4,18=20,19=11,26=3,38=1/1,3;
 2/9=110,12=2,16=3,17=6,18=5,40=1/2;
 3/5=4,6=6,7=214,11=2,25=1,30=1,71=2,74=-55,140=1/1,2,3;
 4//1;
 5/5=2,38=5/2;
 8/6=4,10=90,11=11/1;
 11/6=1,8=1,9=11,15=111,16=1/1,2,10;
 10/6=1,13=1/2;
 6/7=2,8=2,9=2,10=2,28=1/1;
 7/10=1,18=20,25=1,33=1/1,2,3,16;
 1/6=900,7=1,10=4,18=20,19=11,26=3/3(2);
 2/9=110,16=3/2;
 99//99;
 2/9=110,16=3/2;
 3/5=4,6=6,7=214,11=2,25=1,30=1,71=1,74=-55/1,2,3;
 4/5=5,16=3,69=1/1;
 5/5=2,38=5/2;
 7/33=1/1,2,3,16;
 1/6=900,7=1,18=20,19=11,26=3/3(-5);
 2/9=110,16=3/2;
 6/7=2,8=2,9=2,10=2,19=2,28=1/1;
 99/9=1/99;
 Leave Link    1 at Tue Apr  9 00:03:42 2019, MaxMem=   671088640 cpu:              25.2 elap:               1.3
 (Enter /shared/centos7/gaussian/g16/l101.exe)
 ------------------------------
 Gaussian input prepared by ASE
 ------------------------------
 Symbolic Z-matrix:
 Charge =  0 Multiplicity = 1
 O                    -8.96012  -8.27424   0.43274 
 O                    -7.86035  -5.51511   0.99551 
 O                    -8.21699  -4.94833  -1.1965 
 N                    -7.60555  -8.16696   0.32104 
 C                    -7.33314  -7.16492  -0.70281 
 C                    -7.84433  -5.8175   -0.35302 
 H                    -7.73524  -7.47125  -1.68894 
 H                    -6.22254  -7.0992   -0.82542 
 H                    -7.33019  -9.06053  -0.15716 
 H                    -9.13597  -8.31823   1.39999 
 H                    -8.21662  -4.56043   1.06702 
 
 ITRead=  0  0  0  0  0  0  0  0  0  0  0
 MicOpt= -1 -1 -1 -1 -1 -1 -1 -1 -1 -1 -1
 NAtoms=     11 NQM=       11 NQMF=       0 NMMI=      0 NMMIF=      0
                NMic=       0 NMicF=      0.
                    Isotopes and Nuclear Properties:
 (Nuclear quadrupole moments (NQMom) in fm**2, nuclear magnetic moments (NMagM)
  in nuclear magnetons)

  Atom         1           2           3           4           5           6           7           8           9          10
 IAtWgt=          16          16          16          14          12          12           1           1           1           1
 AtmWgt=  15.9949146  15.9949146  15.9949146  14.0030740  12.0000000  12.0000000   1.0078250   1.0078250   1.0078250   1.0078250
 NucSpn=           0           0           0           2           0           0           1           1           1           1
 AtZEff=  -0.0000000  -0.0000000  -0.0000000  -0.0000000  -0.0000000  -0.0000000  -0.0000000  -0.0000000  -0.0000000  -0.0000000
 NQMom=    0.0000000   0.0000000   0.0000000   2.0440000   0.0000000   0.0000000   0.0000000   0.0000000   0.0000000   0.0000000
 NMagM=    0.0000000   0.0000000   0.0000000   0.4037610   0.0000000   0.0000000   2.7928460   2.7928460   2.7928460   2.7928460
 AtZNuc=   8.0000000   8.0000000   8.0000000   7.0000000   6.0000000   6.0000000   1.0000000   1.0000000   1.0000000   1.0000000

  Atom        11
 IAtWgt=           1
 AtmWgt=   1.0078250
 NucSpn=           1
 AtZEff=  -0.0000000
 NQMom=    0.0000000
 NMagM=    2.7928460
 AtZNuc=   1.0000000
 Leave Link  101 at Tue Apr  9 00:03:42 2019, MaxMem=   671088640 cpu:               5.2 elap:               0.3
 (Enter /shared/centos7/gaussian/g16/l103.exe)

 GradGradGradGradGradGradGradGradGradGradGradGradGradGradGradGradGradGrad
 Berny optimization.
 Initialization pass.
                           ----------------------------
                           !    Initial Parameters    !
                           ! (Angstroms and Degrees)  !
 --------------------------                            --------------------------
 ! Name  Definition              Value          Derivative Info.                !
 --------------------------------------------------------------------------------
 ! R1    R(1,4)                  1.3634         calculate D2E/DX2 analytically  !
 ! R2    R(1,10)                 0.9841         calculate D2E/DX2 analytically  !
 ! R3    R(2,6)                  1.3821         calculate D2E/DX2 analytically  !
 ! R4    R(2,11)                 1.0215         calculate D2E/DX2 analytically  !
 ! R5    R(3,6)                  1.2672         calculate D2E/DX2 analytically  !
 ! R6    R(4,5)                  1.4583         calculate D2E/DX2 analytically  !
 ! R7    R(4,9)                  1.0502         calculate D2E/DX2 analytically  !
 ! R8    R(5,6)                  1.483          calculate D2E/DX2 analytically  !
 ! R9    R(5,7)                  1.1081         calculate D2E/DX2 analytically  !
 ! R10   R(5,8)                  1.1193         calculate D2E/DX2 analytically  !
 ! A1    A(4,1,10)             105.1635         calculate D2E/DX2 analytically  !
 ! A2    A(6,2,11)             106.0705         calculate D2E/DX2 analytically  !
 ! A3    A(1,4,5)              107.2885         calculate D2E/DX2 analytically  !
 ! A4    A(1,4,9)              103.347          calculate D2E/DX2 analytically  !
 ! A5    A(5,4,9)              102.4727         calculate D2E/DX2 analytically  !
 ! A6    A(4,5,6)              113.2241         calculate D2E/DX2 analytically  !
 ! A7    A(4,5,7)              111.5345         calculate D2E/DX2 analytically  !
 ! A8    A(4,5,8)              107.6147         calculate D2E/DX2 analytically  !
 ! A9    A(6,5,7)              109.6327         calculate D2E/DX2 analytically  !
 ! A10   A(6,5,8)              108.332          calculate D2E/DX2 analytically  !
 ! A11   A(7,5,8)              106.1886         calculate D2E/DX2 analytically  !
 ! A12   A(2,6,3)              119.7344         calculate D2E/DX2 analytically  !
 ! A13   A(2,6,5)              115.6533         calculate D2E/DX2 analytically  !
 ! A14   A(3,6,5)              124.5811         calculate D2E/DX2 analytically  !
 ! D1    D(10,1,4,5)          -137.2239         calculate D2E/DX2 analytically  !
 ! D2    D(10,1,4,9)           114.9386         calculate D2E/DX2 analytically  !
 ! D3    D(11,2,6,3)             0.8776         calculate D2E/DX2 analytically  !
 ! D4    D(11,2,6,5)           178.9392         calculate D2E/DX2 analytically  !
 ! D5    D(1,4,5,6)             62.3282         calculate D2E/DX2 analytically  !
 ! D6    D(1,4,5,7)            -61.8921         calculate D2E/DX2 analytically  !
 ! D7    D(1,4,5,8)           -177.9802         calculate D2E/DX2 analytically  !
 ! D8    D(9,4,5,6)            170.7772         calculate D2E/DX2 analytically  !
 ! D9    D(9,4,5,7)             46.557          calculate D2E/DX2 analytically  !
 ! D10   D(9,4,5,8)            -69.5312         calculate D2E/DX2 analytically  !
 ! D11   D(4,5,6,2)             31.3318         calculate D2E/DX2 analytically  !
 ! D12   D(4,5,6,3)           -150.7127         calculate D2E/DX2 analytically  !
 ! D13   D(7,5,6,2)            156.5822         calculate D2E/DX2 analytically  !
 ! D14   D(7,5,6,3)            -25.4622         calculate D2E/DX2 analytically  !
 ! D15   D(8,5,6,2)            -87.9483         calculate D2E/DX2 analytically  !
 ! D16   D(8,5,6,3)             90.0073         calculate D2E/DX2 analytically  !
 --------------------------------------------------------------------------------
 Trust Radius=3.00D-01 FncErr=1.00D-07 GrdErr=1.00D-06 EigMax=2.50D+02 EigMin=1.00D-04
 Number of steps in this run=    100 maximum allowed number of steps=    100.
 GradGradGradGradGradGradGradGradGradGradGradGradGradGradGradGradGradGrad

 Leave Link  103 at Tue Apr  9 00:03:42 2019, MaxMem=   671088640 cpu:               0.1 elap:               0.0
 (Enter /shared/centos7/gaussian/g16/l202.exe)
                          Input orientation:                          
 ---------------------------------------------------------------------
 Center     Atomic      Atomic             Coordinates (Angstroms)
 Number     Number       Type             X           Y           Z
 ---------------------------------------------------------------------
      1          8           0       -8.960116   -8.274239    0.432736
      2          8           0       -7.860345   -5.515115    0.995507
      3          8           0       -8.216994   -4.948329   -1.196496
      4          7           0       -7.605551   -8.166957    0.321043
      5          6           0       -7.333138   -7.164918   -0.702814
      6          6           0       -7.844333   -5.817500   -0.353018
      7          1           0       -7.735240   -7.471248   -1.688942
      8          1           0       -6.222537   -7.099195   -0.825422
      9          1           0       -7.330190   -9.060527   -0.157159
     10          1           0       -9.135965   -8.318232    1.399988
     11          1           0       -8.216625   -4.560433    1.067019
 ---------------------------------------------------------------------
                    Distance matrix (angstroms):
                    1          2          3          4          5
     1  O    0.000000
     2  O    3.023073   0.000000
     3  O    3.777341   2.292013   0.000000
     4  N    1.363389   2.748106   3.610589   0.000000
     5  C    2.273131   2.425715   2.436840   1.458277   0.000000
     6  C    2.810329   1.382105   1.267197   2.455875   1.482974
     7  H    2.578107   3.323910   2.615284   2.130932   1.108140
     8  H    3.233888   2.916763   2.956650   2.089791   1.119280
     9  H    1.903388   3.765588   4.333222   1.050223   1.972582
    10  H    0.984091   3.106168   4.352296   1.878610   3.000349
    11  H    3.840241   1.021502   2.296511   3.733216   3.270504
                    6          7          8          9         10
     6  C    0.000000
     7  H    2.128727   0.000000
     8  H    2.120408   1.781113   0.000000
     9  H    3.289366   2.244156   2.349531   0.000000
    10  H    3.315872   3.495841   3.863491   2.497306   0.000000
    11  H    1.932698   4.037313   3.742062   4.747128   3.882926
                   11
    11  H    0.000000
 Stoichiometry    C2H5NO3
 Framework group  C1[X(C2H5NO3)]
 Deg. of freedom    27
 Full point group                 C1      NOp   1
 Largest Abelian subgroup         C1      NOp   1
 Largest concise Abelian subgroup C1      NOp   1
                         Standard orientation:                         
 ---------------------------------------------------------------------
 Center     Atomic      Atomic             Coordinates (Angstroms)
 Number     Number       Type             X           Y           Z
 ---------------------------------------------------------------------
      1          8           0        1.710443    0.397919    0.767235
      2          8           0       -0.920581    1.190458   -0.493149
      3          8           0       -1.941926   -0.549917    0.593713
      4          7           0        1.484975   -0.137943   -0.465992
      5          6           0        0.260539   -0.925210   -0.379164
      6          6           0       -0.933088   -0.114266   -0.037352
      7          1           0        0.363488   -1.759086    0.343350
      8          1           0        0.090261   -1.398077   -1.379259
      9          1           0        2.225351   -0.878308   -0.547680
     10          1           0        1.984503    1.327746    0.597683
     11          1           0       -1.806615    1.602499   -0.195438
 ---------------------------------------------------------------------
 Rotational constants (GHZ):           6.5357010           2.5090406           2.2334898
 Leave Link  202 at Tue Apr  9 00:03:42 2019, MaxMem=   671088640 cpu:               0.1 elap:               0.0
 (Enter /shared/centos7/gaussian/g16/l301.exe)
 Standard basis: 6-311+G(2df,2p) (5D, 7F)
 Ernie: Thresh=  0.10000D-02 Tol=  0.10000D-05 Strict=F.
 There are   279 symmetry adapted cartesian basis functions of A   symmetry.
 There are   249 symmetry adapted basis functions of A   symmetry.
   249 basis functions,   367 primitive gaussians,   279 cartesian basis functions
    24 alpha electrons       24 beta electrons
       nuclear repulsion energy       246.7938589670 Hartrees.
 IExCor= 4336 DFT=T Ex+Corr=M062X ExCW=0 ScaHFX=  0.540000
 ScaDFX=  1.000000  1.000000  1.000000  1.000000 ScalE2=  1.000000  1.000000
 IRadAn=      5 IRanWt=     -1 IRanGd=            0 ICorTp=0 IEmpDi=  4
 NAtoms=   11 NActive=   11 NUniq=   11 SFac= 1.00D+00 NAtFMM=   60 NAOKFM=F Big=F
 Integral buffers will be    131072 words long.
 Raffenetti 2 integral format.
 Two-electron integral symmetry is turned on.
 Leave Link  301 at Tue Apr  9 00:03:42 2019, MaxMem=   671088640 cpu:               1.0 elap:               0.1
 (Enter /shared/centos7/gaussian/g16/l302.exe)
 NPDir=0 NMtPBC=     1 NCelOv=     1 NCel=       1 NClECP=     1 NCelD=      1
         NCelK=      1 NCelE2=     1 NClLst=     1 CellRange=     0.0.
 One-electron integrals computed using PRISM.
 One-electron integral symmetry used in STVInt
 NBasis=   249 RedAO= T EigKep=  5.61D-05  NBF=   249
 NBsUse=   249 1.00D-06 EigRej= -1.00D+00 NBFU=   249
 Precomputing XC quadrature grid using
 IXCGrd= 4 IRadAn=           5 IRanWt=          -1 IRanGd=           0 AccXCQ= 0.00D+00.
 Generated NRdTot=       0 NPtTot=           0 NUsed=           0 NTot=          32
 NSgBfM=   279   279   279   279   279 MxSgAt=    11 MxSgA2=    11.
 Leave Link  302 at Tue Apr  9 00:03:43 2019, MaxMem=   671088640 cpu:               6.2 elap:               0.3
 (Enter /shared/centos7/gaussian/g16/l303.exe)
 DipDrv:  MaxL=1.
 Leave Link  303 at Tue Apr  9 00:03:43 2019, MaxMem=   671088640 cpu:               0.5 elap:               0.0
 (Enter /shared/centos7/gaussian/g16/l401.exe)
 ExpMin= 4.38D-02 ExpMax= 8.59D+03 ExpMxC= 1.30D+03 IAcc=3 IRadAn=         5 AccDes= 0.00D+00
 Harris functional with IExCor= 1009 and IRadAn=       5 diagonalized for initial guess.
 HarFok:  IExCor= 1009 AccDes= 0.00D+00 IRadAn=         5 IDoV= 1 UseB2=F ITyADJ=14
 ICtDFT=  3500011 ScaDFX=  1.000000  1.000000  1.000000  1.000000
 FoFCou: FMM=F IPFlag=           0 FMFlag=      100000 FMFlg1=           0
         NFxFlg=           0 DoJE=T BraDBF=F KetDBF=T FulRan=T
         wScrn=  0.000000 ICntrl=       500 IOpCl=  0 I1Cent=   200000004 NGrid=           0
         NMat0=    1 NMatS0=      1 NMatT0=    0 NMatD0=    1 NMtDS0=    0 NMtDT0=    0
 Petite list used in FoFCou.
 Harris En= -359.393974493686    
 JPrj=0 DoOrth=F DoCkMO=F.
 Leave Link  401 at Tue Apr  9 00:03:43 2019, MaxMem=   671088640 cpu:              13.5 elap:               0.7
 (Enter /shared/centos7/gaussian/g16/l502.exe)
 Keep R1 ints in memory in canonical form, NReq=506568544.
 FoFCou: FMM=F IPFlag=           0 FMFlag=           0 FMFlg1=           0
         NFxFlg=           0 DoJE=F BraDBF=F KetDBF=F FulRan=T
         wScrn=  0.000000 ICntrl=       600 IOpCl=  0 I1Cent=           0 NGrid=           0
         NMat0=    1 NMatS0=  31125 NMatT0=    0 NMatD0=    1 NMtDS0=    0 NMtDT0=    0
 Symmetry not used in FoFCou.
 Two-electron integral symmetry not used.
 Closed shell SCF:
 Using DIIS extrapolation, IDIIS=  1040.
 NGot=   671088640 LenX=   186526494 LenY=   186448212
 Requested convergence on RMS density matrix=1.00D-08 within 128 cycles.
 Requested convergence on MAX density matrix=1.00D-06.
 Requested convergence on             energy=1.00D-06.
 No special actions if energy rises.

 Cycle   1  Pass 1  IDiag  1:
 E= -359.420343979215    
 DIIS: error= 1.79D-02 at cycle   1 NSaved=   1.
 NSaved= 1 IEnMin= 1 EnMin= -359.420343979215     IErMin= 1 ErrMin= 1.79D-02
 ErrMax= 1.79D-02  0.00D+00 EMaxC= 1.00D-01 BMatC= 2.62D-01 BMatP= 2.62D-01
 IDIUse=3 WtCom= 8.21D-01 WtEn= 1.79D-01
 Coeff-Com:  0.100D+01
 Coeff-En:   0.100D+01
 Coeff:      0.100D+01
 Gap=     0.331 Goal=   None    Shift=    0.000
 GapD=    0.331 DampG=1.000 DampE=0.500 DampFc=0.5000 IDamp=-1.
 Damping current iteration by 5.00D-01
 RMSDP=2.86D-03 MaxDP=8.77D-02              OVMax= 1.98D-01

 Cycle   2  Pass 1  IDiag  1:
 E= -359.483422623925     Delta-E=       -0.063078644709 Rises=F Damp=T
 DIIS: error= 6.21D-03 at cycle   2 NSaved=   2.
 NSaved= 2 IEnMin= 2 EnMin= -359.483422623925     IErMin= 2 ErrMin= 6.21D-03
 ErrMax= 6.21D-03  0.00D+00 EMaxC= 1.00D-01 BMatC= 2.68D-02 BMatP= 2.62D-01
 IDIUse=3 WtCom= 9.38D-01 WtEn= 6.21D-02
 Coeff-Com:  0.370D-01 0.963D+00
 Coeff-En:   0.148D+00 0.852D+00
 Coeff:      0.440D-01 0.956D+00
 Gap=     0.381 Goal=   None    Shift=    0.000
 RMSDP=8.92D-04 MaxDP=4.55D-02 DE=-6.31D-02 OVMax= 1.21D-01

 Cycle   3  Pass 1  IDiag  1:
 E= -359.560357318073     Delta-E=       -0.076934694148 Rises=F Damp=F
 DIIS: error= 7.72D-03 at cycle   3 NSaved=   3.
 NSaved= 3 IEnMin= 3 EnMin= -359.560357318073     IErMin= 2 ErrMin= 6.21D-03
 ErrMax= 7.72D-03  0.00D+00 EMaxC= 1.00D-01 BMatC= 1.65D-02 BMatP= 2.68D-02
 IDIUse=3 WtCom= 9.23D-01 WtEn= 7.72D-02
 Coeff-Com: -0.747D-01 0.448D+00 0.627D+00
 Coeff-En:   0.000D+00 0.000D+00 0.100D+01
 Coeff:     -0.690D-01 0.413D+00 0.656D+00
 Gap=     0.338 Goal=   None    Shift=    0.000
 RMSDP=4.83D-04 MaxDP=1.75D-02 DE=-7.69D-02 OVMax= 5.33D-02

 Cycle   4  Pass 1  IDiag  1:
 E= -359.569547383317     Delta-E=       -0.009190065244 Rises=F Damp=F
 DIIS: error= 3.15D-03 at cycle   4 NSaved=   4.
 NSaved= 4 IEnMin= 4 EnMin= -359.569547383317     IErMin= 4 ErrMin= 3.15D-03
 ErrMax= 3.15D-03  0.00D+00 EMaxC= 1.00D-01 BMatC= 4.26D-03 BMatP= 1.65D-02
 IDIUse=3 WtCom= 9.69D-01 WtEn= 3.15D-02
 Coeff-Com: -0.398D-01 0.106D+00 0.381D+00 0.553D+00
 Coeff-En:   0.000D+00 0.000D+00 0.211D+00 0.789D+00
 Coeff:     -0.386D-01 0.103D+00 0.375D+00 0.561D+00
 Gap=     0.332 Goal=   None    Shift=    0.000
 RMSDP=1.67D-04 MaxDP=6.50D-03 DE=-9.19D-03 OVMax= 1.30D-02

 Cycle   5  Pass 1  IDiag  1:
 E= -359.572554043210     Delta-E=       -0.003006659893 Rises=F Damp=F
 DIIS: error= 4.58D-04 at cycle   5 NSaved=   5.
 NSaved= 5 IEnMin= 5 EnMin= -359.572554043210     IErMin= 5 ErrMin= 4.58D-04
 ErrMax= 4.58D-04  0.00D+00 EMaxC= 1.00D-01 BMatC= 1.11D-04 BMatP= 4.26D-03
 IDIUse=3 WtCom= 9.95D-01 WtEn= 4.58D-03
 Coeff-Com: -0.122D-01 0.230D-01 0.134D+00 0.249D+00 0.606D+00
 Coeff-En:   0.000D+00 0.000D+00 0.000D+00 0.000D+00 0.100D+01
 Coeff:     -0.122D-01 0.229D-01 0.134D+00 0.248D+00 0.608D+00
 Gap=     0.332 Goal=   None    Shift=    0.000
 RMSDP=3.00D-05 MaxDP=1.31D-03 DE=-3.01D-03 OVMax= 2.68D-03

 Cycle   6  Pass 1  IDiag  1:
 E= -359.572636312699     Delta-E=       -0.000082269489 Rises=F Damp=F
 DIIS: error= 1.28D-04 at cycle   6 NSaved=   6.
 NSaved= 6 IEnMin= 6 EnMin= -359.572636312699     IErMin= 6 ErrMin= 1.28D-04
 ErrMax= 1.28D-04  0.00D+00 EMaxC= 1.00D-01 BMatC= 8.16D-06 BMatP= 1.11D-04
 IDIUse=3 WtCom= 9.99D-01 WtEn= 1.28D-03
 Coeff-Com: -0.718D-03-0.172D-02 0.156D-01 0.388D-01 0.240D+00 0.708D+00
 Coeff-En:   0.000D+00 0.000D+00 0.000D+00 0.000D+00 0.000D+00 0.100D+01
 Coeff:     -0.717D-03-0.172D-02 0.156D-01 0.387D-01 0.239D+00 0.709D+00
 Gap=     0.332 Goal=   None    Shift=    0.000
 RMSDP=1.21D-05 MaxDP=4.20D-04 DE=-8.23D-05 OVMax= 8.27D-04

 Cycle   7  Pass 1  IDiag  1:
 E= -359.572643998614     Delta-E=       -0.000007685916 Rises=F Damp=F
 DIIS: error= 3.45D-05 at cycle   7 NSaved=   7.
 NSaved= 7 IEnMin= 7 EnMin= -359.572643998614     IErMin= 7 ErrMin= 3.45D-05
 ErrMax= 3.45D-05  0.00D+00 EMaxC= 1.00D-01 BMatC= 5.13D-07 BMatP= 8.16D-06
 IDIUse=1 WtCom= 1.00D+00 WtEn= 0.00D+00
 Coeff-Com:  0.165D-02-0.347D-02-0.128D-01-0.270D-01-0.357D-01 0.528D-01
 Coeff-Com:  0.102D+01
 Coeff:      0.165D-02-0.347D-02-0.128D-01-0.270D-01-0.357D-01 0.528D-01
 Coeff:      0.102D+01
 Gap=     0.332 Goal=   None    Shift=    0.000
 RMSDP=5.87D-06 MaxDP=1.61D-04 DE=-7.69D-06 OVMax= 4.77D-04

 Cycle   8  Pass 1  IDiag  1:
 E= -359.572644869491     Delta-E=       -0.000000870877 Rises=F Damp=F
 DIIS: error= 1.15D-05 at cycle   8 NSaved=   8.
 NSaved= 8 IEnMin= 8 EnMin= -359.572644869491     IErMin= 8 ErrMin= 1.15D-05
 ErrMax= 1.15D-05  0.00D+00 EMaxC= 1.00D-01 BMatC= 9.45D-08 BMatP= 5.13D-07
 IDIUse=1 WtCom= 1.00D+00 WtEn= 0.00D+00
 Coeff-Com:  0.686D-03-0.122D-02-0.534D-02-0.129D-01-0.300D-01-0.371D-01
 Coeff-Com:  0.375D+00 0.710D+00
 Coeff:      0.686D-03-0.122D-02-0.534D-02-0.129D-01-0.300D-01-0.371D-01
 Coeff:      0.375D+00 0.710D+00
 Gap=     0.332 Goal=   None    Shift=    0.000
 RMSDP=1.50D-06 MaxDP=3.68D-05 DE=-8.71D-07 OVMax= 1.06D-04

 Cycle   9  Pass 1  IDiag  1:
 E= -359.572644966610     Delta-E=       -0.000000097119 Rises=F Damp=F
 DIIS: error= 4.74D-06 at cycle   9 NSaved=   9.
 NSaved= 9 IEnMin= 9 EnMin= -359.572644966610     IErMin= 9 ErrMin= 4.74D-06
 ErrMax= 4.74D-06  0.00D+00 EMaxC= 1.00D-01 BMatC= 1.19D-08 BMatP= 9.45D-08
 IDIUse=1 WtCom= 1.00D+00 WtEn= 0.00D+00
 Coeff-Com: -0.467D-04 0.151D-03 0.696D-03 0.461D-03-0.283D-02-0.196D-01
 Coeff-Com: -0.521D-01 0.222D+00 0.851D+00
 Coeff:     -0.467D-04 0.151D-03 0.696D-03 0.461D-03-0.283D-02-0.196D-01
 Coeff:     -0.521D-01 0.222D+00 0.851D+00
 Gap=     0.332 Goal=   None    Shift=    0.000
 RMSDP=6.73D-07 MaxDP=2.16D-05 DE=-9.71D-08 OVMax= 5.05D-05

 Cycle  10  Pass 1  IDiag  1:
 E= -359.572644980508     Delta-E=       -0.000000013898 Rises=F Damp=F
 DIIS: error= 1.00D-06 at cycle  10 NSaved=  10.
 NSaved=10 IEnMin=10 EnMin= -359.572644980508     IErMin=10 ErrMin= 1.00D-06
 ErrMax= 1.00D-06  0.00D+00 EMaxC= 1.00D-01 BMatC= 9.44D-10 BMatP= 1.19D-08
 IDIUse=1 WtCom= 1.00D+00 WtEn= 0.00D+00
 Coeff-Com: -0.686D-04 0.140D-03 0.674D-03 0.117D-02 0.175D-02-0.243D-02
 Coeff-Com: -0.494D-01-0.775D-02 0.247D+00 0.809D+00
 Coeff:     -0.686D-04 0.140D-03 0.674D-03 0.117D-02 0.175D-02-0.243D-02
 Coeff:     -0.494D-01-0.775D-02 0.247D+00 0.809D+00
 Gap=     0.332 Goal=   None    Shift=    0.000
 RMSDP=1.89D-07 MaxDP=6.22D-06 DE=-1.39D-08 OVMax= 1.32D-05

 Cycle  11  Pass 1  IDiag  1:
 E= -359.572644981533     Delta-E=       -0.000000001024 Rises=F Damp=F
 DIIS: error= 6.17D-07 at cycle  11 NSaved=  11.
 NSaved=11 IEnMin=11 EnMin= -359.572644981533     IErMin=11 ErrMin= 6.17D-07
 ErrMax= 6.17D-07  0.00D+00 EMaxC= 1.00D-01 BMatC= 1.41D-10 BMatP= 9.44D-10
 IDIUse=1 WtCom= 1.00D+00 WtEn= 0.00D+00
 Coeff-Com: -0.254D-04 0.486D-04 0.253D-03 0.471D-03 0.101D-02 0.412D-03
 Coeff-Com: -0.172D-01-0.217D-01 0.387D-01 0.338D+00 0.660D+00
 Coeff:     -0.254D-04 0.486D-04 0.253D-03 0.471D-03 0.101D-02 0.412D-03
 Coeff:     -0.172D-01-0.217D-01 0.387D-01 0.338D+00 0.660D+00
 Gap=     0.332 Goal=   None    Shift=    0.000
 RMSDP=4.66D-08 MaxDP=1.94D-06 DE=-1.02D-09 OVMax= 2.50D-06

 Cycle  12  Pass 1  IDiag  1:
 E= -359.572644981640     Delta-E=       -0.000000000108 Rises=F Damp=F
 DIIS: error= 1.79D-07 at cycle  12 NSaved=  12.
 NSaved=12 IEnMin=12 EnMin= -359.572644981640     IErMin=12 ErrMin= 1.79D-07
 ErrMax= 1.79D-07  0.00D+00 EMaxC= 1.00D-01 BMatC= 1.48D-11 BMatP= 1.41D-10
 IDIUse=1 WtCom= 1.00D+00 WtEn= 0.00D+00
 Coeff-Com: -0.422D-06-0.178D-06 0.155D-04 0.273D-04 0.173D-03 0.406D-03
 Coeff-Com: -0.245D-03-0.769D-02-0.170D-01 0.225D-01 0.259D+00 0.743D+00
 Coeff:     -0.422D-06-0.178D-06 0.155D-04 0.273D-04 0.173D-03 0.406D-03
 Coeff:     -0.245D-03-0.769D-02-0.170D-01 0.225D-01 0.259D+00 0.743D+00
 Gap=     0.332 Goal=   None    Shift=    0.000
 RMSDP=1.64D-08 MaxDP=4.80D-07 DE=-1.08D-10 OVMax= 9.15D-07

 Cycle  13  Pass 1  IDiag  1:
 E= -359.572644981654     Delta-E=       -0.000000000014 Rises=F Damp=F
 DIIS: error= 3.38D-08 at cycle  13 NSaved=  13.
 NSaved=13 IEnMin=13 EnMin= -359.572644981654     IErMin=13 ErrMin= 3.38D-08
 ErrMax= 3.38D-08  0.00D+00 EMaxC= 1.00D-01 BMatC= 8.11D-13 BMatP= 1.48D-11
 IDIUse=1 WtCom= 1.00D+00 WtEn= 0.00D+00
 Coeff-Com:  0.196D-05-0.392D-05-0.144D-04-0.298D-04-0.284D-04 0.596D-04
 Coeff-Com:  0.135D-02-0.193D-03-0.789D-02-0.241D-01 0.142D-01 0.217D+00
 Coeff-Com:  0.799D+00
 Coeff:      0.196D-05-0.392D-05-0.144D-04-0.298D-04-0.284D-04 0.596D-04
 Coeff:      0.135D-02-0.193D-03-0.789D-02-0.241D-01 0.142D-01 0.217D+00
 Coeff:      0.799D+00
 Gap=     0.332 Goal=   None    Shift=    0.000
 RMSDP=4.76D-09 MaxDP=1.26D-07 DE=-1.41D-11 OVMax= 3.58D-07

 SCF Done:  E(RM062X) =  -359.572644982     A.U. after   13 cycles
            NFock= 13  Conv=0.48D-08     -V/T= 2.0043
 KE= 3.580285092555D+02 PE=-1.338848275665D+03 EE= 3.744532624604D+02
 Leave Link  502 at Tue Apr  9 00:04:09 2019, MaxMem=   671088640 cpu:             320.9 elap:              25.9
 (Enter /shared/centos7/gaussian/g16/l801.exe)
 DoSCS=F DFT=T ScalE2(SS,OS)=  1.000000  1.000000
 Range of M.O.s used for correlation:     1   249
 NBasis=   249 NAE=    24 NBE=    24 NFC=     0 NFV=     0
 NROrb=    249 NOA=    24 NOB=    24 NVA=   225 NVB=   225

 **** Warning!!: The largest alpha MO coefficient is  0.34106143D+02

 Leave Link  801 at Tue Apr  9 00:04:09 2019, MaxMem=   671088640 cpu:               0.5 elap:               0.0
 (Enter /shared/centos7/gaussian/g16/l1101.exe)
 Using compressed storage, NAtomX=    11.
 Will process     12 centers per pass.
 Leave Link 1101 at Tue Apr  9 00:04:10 2019, MaxMem=   671088640 cpu:               6.1 elap:               0.3
 (Enter /shared/centos7/gaussian/g16/l1102.exe)
 Symmetrizing basis deriv contribution to polar:
 IMax=3 JMax=2 DiffMx= 0.00D+00
 Leave Link 1102 at Tue Apr  9 00:04:10 2019, MaxMem=   671088640 cpu:               0.4 elap:               0.0
 (Enter /shared/centos7/gaussian/g16/l1110.exe)
 Forming Gx(P) for the SCF density, NAtomX=    11.
 Integral derivatives from FoFJK, PRISM(SPDF).
 Do as many integral derivatives as possible in FoFJK.
 G2DrvN: MDV=     671087712.
 G2DrvN: will do    12 centers at a time, making    1 passes.
 Calling FoFCou, ICntrl=  3107 FMM=F I1Cent=   0 AccDes= 0.00D+00.
 FoFJK:  IHMeth= 1 ICntrl=    3107 DoSepK=F KAlg= 0 I1Cent=           0 FoldK=F
 IRaf=         0 NMat=       1 IRICut=       1 DoRegI=T DoRafI=F ISym2E= 0 IDoP0=0 IntGTp=1.
 FoFCou: FMM=F IPFlag=           0 FMFlag=      100000 FMFlg1=           0
         NFxFlg=           0 DoJE=F BraDBF=F KetDBF=F FulRan=T
         wScrn=  0.000000 ICntrl=      3107 IOpCl=  0 I1Cent=           0 NGrid=           0
         NMat0=    1 NMatS0=      1 NMatT0=    0 NMatD0=    1 NMtDS0=    0 NMtDT0=    0
 Symmetry not used in FoFCou.
 End of G2Drv F.D. properties file   721 does not exist.
 End of G2Drv F.D. properties file   722 does not exist.
 End of G2Drv F.D. properties file   788 does not exist.
 Leave Link 1110 at Tue Apr  9 00:04:43 2019, MaxMem=   671088640 cpu:             676.5 elap:              33.8
 (Enter /shared/centos7/gaussian/g16/l1002.exe)
 Minotr:  Closed shell wavefunction.
          IDoAtm=11111111111
          Direct CPHF calculation.
          Differentiating once with respect to nuclear coordinates.
          Requested convergence is 1.0D-08 RMS, and 1.0D-07 maximum.
          Secondary convergence is 1.0D-12 RMS, and 1.0D-12 maximum.
          NewPWx=T KeepS1=F KeepF1=F KeepIn=T MapXYZ=F SortEE=F KeepMc=T.
         3342 words used for storage of precomputed grid.
 Keep R1 ints in memory in canonical form, NReq=506509625.
 FoFCou: FMM=F IPFlag=           0 FMFlag=           0 FMFlg1=           0
         NFxFlg=           0 DoJE=F BraDBF=F KetDBF=F FulRan=T
         wScrn=  0.000000 ICntrl=       600 IOpCl=  0 I1Cent=           0 NGrid=           0
         NMat0=    1 NMatS0=  31125 NMatT0=    0 NMatD0=    1 NMtDS0=    0 NMtDT0=    0
 Symmetry not used in FoFCou.
 Two-electron integral symmetry not used.
          MDV=     671088640 using IRadAn=       1.
          Solving linear equations simultaneously, MaxMat=       0.
          There are    36 degrees of freedom in the 1st order CPHF.  IDoFFX=6 NUNeed=     0.
     30 vectors produced by pass  0 Test12= 1.50D-14 2.78D-09 XBig12= 6.00D-02 4.88D-02.
 AX will form    30 AO Fock derivatives at one time.
     30 vectors produced by pass  1 Test12= 1.50D-14 2.78D-09 XBig12= 1.18D-02 2.29D-02.
     30 vectors produced by pass  2 Test12= 1.50D-14 2.78D-09 XBig12= 4.48D-04 2.80D-03.
     30 vectors produced by pass  3 Test12= 1.50D-14 2.78D-09 XBig12= 6.42D-06 3.44D-04.
     30 vectors produced by pass  4 Test12= 1.50D-14 2.78D-09 XBig12= 5.05D-08 2.64D-05.
     30 vectors produced by pass  5 Test12= 1.50D-14 2.78D-09 XBig12= 2.70D-10 2.53D-06.
     25 vectors produced by pass  6 Test12= 1.50D-14 2.78D-09 XBig12= 1.75D-12 1.45D-07.
      7 vectors produced by pass  7 Test12= 1.50D-14 2.78D-09 XBig12= 7.36D-15 8.81D-09.
 InvSVY:  IOpt=1 It=  1 EMax= 1.78D-15
 Solved reduced A of dimension   212 with    30 vectors.
 End of Minotr F.D. properties file   721 does not exist.
 End of Minotr F.D. properties file   722 does not exist.
 End of Minotr F.D. properties file   788 does not exist.
 Leave Link 1002 at Tue Apr  9 00:05:22 2019, MaxMem=   671088640 cpu:             779.0 elap:              39.0
 (Enter /shared/centos7/gaussian/g16/l601.exe)
 Copying SCF densities to generalized density rwf, IOpCl= 0 IROHF=0.

 **********************************************************************

            Population analysis using the SCF density.

 **********************************************************************

 Orbital symmetries:
       Occupied  (A) (A) (A) (A) (A) (A) (A) (A) (A) (A) (A) (A)
                 (A) (A) (A) (A) (A) (A) (A) (A) (A) (A) (A) (A)
       Virtual   (A) (A) (A) (A) (A) (A) (A) (A) (A) (A) (A) (A)
                 (A) (A) (A) (A) (A) (A) (A) (A) (A) (A) (A) (A)
                 (A) (A) (A) (A) (A) (A) (A) (A) (A) (A) (A) (A)
                 (A) (A) (A) (A) (A) (A) (A) (A) (A) (A) (A) (A)
                 (A) (A) (A) (A) (A) (A) (A) (A) (A) (A) (A) (A)
                 (A) (A) (A) (A) (A) (A) (A) (A) (A) (A) (A) (A)
                 (A) (A) (A) (A) (A) (A) (A) (A) (A) (A) (A) (A)
                 (A) (A) (A) (A) (A) (A) (A) (A) (A) (A) (A) (A)
                 (A) (A) (A) (A) (A) (A) (A) (A) (A) (A) (A) (A)
                 (A) (A) (A) (A) (A) (A) (A) (A) (A) (A) (A) (A)
                 (A) (A) (A) (A) (A) (A) (A) (A) (A) (A) (A) (A)
                 (A) (A) (A) (A) (A) (A) (A) (A) (A) (A) (A) (A)
                 (A) (A) (A) (A) (A) (A) (A) (A) (A) (A) (A) (A)
                 (A) (A) (A) (A) (A) (A) (A) (A) (A) (A) (A) (A)
                 (A) (A) (A) (A) (A) (A) (A) (A) (A) (A) (A) (A)
                 (A) (A) (A) (A) (A) (A) (A) (A) (A) (A) (A) (A)
                 (A) (A) (A) (A) (A) (A) (A) (A) (A) (A) (A) (A)
                 (A) (A) (A) (A) (A) (A) (A) (A) (A) (A) (A) (A)
                 (A) (A) (A) (A) (A) (A) (A) (A) (A)
 The electronic state is 1-A.
 Alpha  occ. eigenvalues --  -19.68206 -19.66467 -19.62408 -14.80878 -10.69623
 Alpha  occ. eigenvalues --  -10.59840  -1.23140  -1.21353  -1.11748  -0.96442
 Alpha  occ. eigenvalues --   -0.81814  -0.69019  -0.62755  -0.59989  -0.57438
 Alpha  occ. eigenvalues --   -0.56253  -0.54098  -0.51307  -0.47853  -0.46990
 Alpha  occ. eigenvalues --   -0.39754  -0.38689  -0.36206  -0.33014
 Alpha virt. eigenvalues --    0.00161   0.01483   0.02415   0.03958   0.05059
 Alpha virt. eigenvalues --    0.05710   0.07464   0.07874   0.09596   0.12194
 Alpha virt. eigenvalues --    0.12936   0.13391   0.16539   0.17818   0.19095
 Alpha virt. eigenvalues --    0.19535   0.21092   0.21442   0.22781   0.23509
 Alpha virt. eigenvalues --    0.24118   0.24900   0.26792   0.27509   0.29774
 Alpha virt. eigenvalues --    0.29965   0.31089   0.31743   0.32524   0.33599
 Alpha virt. eigenvalues --    0.34498   0.36508   0.38640   0.41911   0.43962
 Alpha virt. eigenvalues --    0.50325   0.51762   0.51956   0.54005   0.55667
 Alpha virt. eigenvalues --    0.58042   0.59219   0.62033   0.62085   0.63409
 Alpha virt. eigenvalues --    0.66312   0.67334   0.70006   0.71275   0.74442
 Alpha virt. eigenvalues --    0.76808   0.79871   0.80915   0.83042   0.85994
 Alpha virt. eigenvalues --    0.87990   0.91898   0.94632   0.98238   0.99860
 Alpha virt. eigenvalues --    1.02856   1.04427   1.06000   1.09168   1.12239
 Alpha virt. eigenvalues --    1.13236   1.13631   1.15370   1.17710   1.20123
 Alpha virt. eigenvalues --    1.21478   1.24500   1.25443   1.26956   1.28978
 Alpha virt. eigenvalues --    1.30397   1.32116   1.37894   1.38384   1.41005
 Alpha virt. eigenvalues --    1.42706   1.44380   1.44827   1.49290   1.50484
 Alpha virt. eigenvalues --    1.54169   1.57182   1.59625   1.62579   1.63070
 Alpha virt. eigenvalues --    1.66887   1.71086   1.74703   1.79500   1.83471
 Alpha virt. eigenvalues --    1.84135   1.90683   1.97437   2.05620   2.09599
 Alpha virt. eigenvalues --    2.13636   2.18404   2.25037   2.27712   2.30460
 Alpha virt. eigenvalues --    2.32381   2.39735   2.47333   2.51554   2.59446
 Alpha virt. eigenvalues --    2.62676   2.65562   2.69313   2.76777   2.81076
 Alpha virt. eigenvalues --    2.83264   2.90684   2.97509   3.00088   3.08574
 Alpha virt. eigenvalues --    3.10543   3.14777   3.18451   3.19724   3.22026
 Alpha virt. eigenvalues --    3.26290   3.30457   3.35362   3.40844   3.41988
 Alpha virt. eigenvalues --    3.43876   3.47411   3.48214   3.51382   3.54322
 Alpha virt. eigenvalues --    3.58629   3.62369   3.66942   3.68458   3.70677
 Alpha virt. eigenvalues --    3.74347   3.75075   3.80195   3.82809   3.85999
 Alpha virt. eigenvalues --    3.88488   3.96262   3.99033   4.00951   4.02959
 Alpha virt. eigenvalues --    4.08567   4.09599   4.12703   4.16308   4.18160
 Alpha virt. eigenvalues --    4.26885   4.32672   4.36571   4.37957   4.43687
 Alpha virt. eigenvalues --    4.52039   4.58832   4.66821   4.73979   4.82739
 Alpha virt. eigenvalues --    4.95695   5.04576   5.07273   5.08652   5.09068
 Alpha virt. eigenvalues --    5.11996   5.14172   5.15878   5.17731   5.18758
 Alpha virt. eigenvalues --    5.22081   5.23155   5.25832   5.29427   5.34544
 Alpha virt. eigenvalues --    5.36363   5.39629   5.41573   5.43157   5.44333
 Alpha virt. eigenvalues --    5.51515   5.54233   5.56250   5.58754   5.64059
 Alpha virt. eigenvalues --    5.68121   5.74721   5.81164   5.82537   5.95841
 Alpha virt. eigenvalues --    6.13128   6.15278   6.22045   6.44174   6.72642
 Alpha virt. eigenvalues --    6.79772   6.80930   6.84877   6.88600   6.91638
 Alpha virt. eigenvalues --    6.94782   6.98899   7.10618   7.13704   7.15516
 Alpha virt. eigenvalues --    7.20264   7.21728   7.25218   7.48513   7.52478
 Alpha virt. eigenvalues --    7.52655   7.63352   7.69946   7.72512  24.36817
 Alpha virt. eigenvalues --   24.64648  35.76620  50.07171  50.10641  50.19357
          Condensed to atoms (all electrons):
               1          2          3          4          5          6
     1  O    8.060511   0.008658  -0.004279   0.082898  -0.051505  -0.009713
     2  O    0.008658   7.962754  -0.084883   0.014901  -0.116732   0.296803
     3  O   -0.004279  -0.084883   8.149848   0.006060  -0.058088   0.407727
     4  N    0.082898   0.014901   0.006060   6.876045   0.258277  -0.097927
     5  C   -0.051505  -0.116732  -0.058088   0.258277   5.439816  -0.083248
     6  C   -0.009713   0.296803   0.407727  -0.097927  -0.083248   5.245791
     7  H   -0.001227   0.007343  -0.006709  -0.024804   0.467826  -0.074502
     8  H    0.013675   0.001367  -0.001751  -0.079515   0.413531  -0.010343
     9  H   -0.087019  -0.000785  -0.000439   0.293346  -0.077282   0.046467
    10  H    0.227418   0.001808  -0.000024  -0.050754  -0.036467   0.035904
    11  H   -0.000573   0.247352   0.011655  -0.001516  -0.013249  -0.000053
               7          8          9         10         11
     1  O   -0.001227   0.013675  -0.087019   0.227418  -0.000573
     2  O    0.007343   0.001367  -0.000785   0.001808   0.247352
     3  O   -0.006709  -0.001751  -0.000439  -0.000024   0.011655
     4  N   -0.024804  -0.079515   0.293346  -0.050754  -0.001516
     5  C    0.467826   0.413531  -0.077282  -0.036467  -0.013249
     6  C   -0.074502  -0.010343   0.046467   0.035904  -0.000053
     7  H    0.483677  -0.025315  -0.017502  -0.000670  -0.000122
     8  H   -0.025315   0.525947   0.005957   0.000278   0.000033
     9  H   -0.017502   0.005957   0.596800   0.015031  -0.000091
    10  H   -0.000670   0.000278   0.015031   0.513307   0.000061
    11  H   -0.000122   0.000033  -0.000091   0.000061   0.450918
 Mulliken charges:
               1
     1  O   -0.238845
     2  O   -0.338586
     3  O   -0.419118
     4  N   -0.277011
     5  C   -0.142879
     6  C    0.243093
     7  H    0.192003
     8  H    0.156135
     9  H    0.225516
    10  H    0.294107
    11  H    0.305585
 Sum of Mulliken charges =  -0.00000
 Mulliken charges with hydrogens summed into heavy atoms:
               1
     1  O    0.055262
     2  O   -0.033000
     3  O   -0.419118
     4  N   -0.051495
     5  C    0.205259
     6  C    0.243093
 APT charges:
               1
     1  O   -0.683108
     2  O   -0.684585
     3  O   -0.281319
     4  N   -0.551506
     5  C   -0.767246
     6  C    0.176701
     7  H    0.427834
     8  H    0.432591
     9  H    0.584695
    10  H    0.637697
    11  H    0.708247
 Sum of APT charges =  -0.00000
 APT charges with hydrogens summed into heavy atoms:
               1
     1  O   -0.045412
     2  O    0.023662
     3  O   -0.281319
     4  N    0.033189
     5  C    0.093179
     6  C    0.176701
 Electronic spatial extent (au):  <R**2>=            572.4313
 Charge=             -0.0000 electrons
 Dipole moment (field-independent basis, Debye):
    X=              1.8941    Y=              0.4892    Z=             -1.3652  Tot=              2.3855
 Quadrupole moment (field-independent basis, Debye-Ang):
   XX=            -35.3658   YY=            -29.4401   ZZ=            -38.3580
   XY=             -4.9770   XZ=              1.9901   YZ=              3.9812
 Traceless Quadrupole moment (field-independent basis, Debye-Ang):
   XX=             -0.9779   YY=              4.9479   ZZ=             -3.9701
   XY=             -4.9770   XZ=              1.9901   YZ=              3.9812
 Octapole moment (field-independent basis, Debye-Ang**2):
  XXX=             15.5170  YYY=             10.8571  ZZZ=              0.5542  XYY=              4.3355
  XXY=             15.9532  XXZ=             -6.3978  XZZ=             -1.4177  YZZ=             -0.9985
  YYZ=              1.8251  XYZ=              1.5803
 Hexadecapole moment (field-independent basis, Debye-Ang**3):
 XXXX=           -422.0370 YYYY=           -141.7263 ZZZZ=            -99.0844 XXXY=            -24.0944
 XXXZ=             10.3840 YYYX=             -7.9082 YYYZ=              4.4775 ZZZX=              3.8135
 ZZZY=              5.0635 XXYY=            -68.8730 XXZZ=            -97.6454 YYZZ=            -40.7696
 XXYZ=              9.4936 YYXZ=              5.7424 ZZXY=             -0.6800
 N-N= 2.467938589670D+02 E-N=-1.338848282550D+03  KE= 3.580285092555D+02
  Exact polarizability:   0.000   0.000   0.000   0.000   0.000   0.000
 Approx polarizability:  56.066   3.044  56.837  -5.965  -1.401  49.439
 No NMR shielding tensors so no spin-rotation constants.
 Leave Link  601 at Tue Apr  9 00:05:23 2019, MaxMem=   671088640 cpu:               4.1 elap:               0.2
 (Enter /shared/centos7/gaussian/g16/l701.exe)
 SCFChk:  SCF convergence  4.76D-09 required  1.00D-08
 ... and contract with generalized density number  0.
 Compute integral second derivatives.
 Entering OneElI...
 Calculate overlap and kinetic energy integrals
    NBasis = 279  MinDer = 2  MaxDer = 2
 Requested accuracy = 0.1000D-12
 PrmmSu-InSpLW:  IPartL=    0 NPrtUS=   20 NPrtUL=    1 DoSpLW=F IThBeg=    0 IThEnd=   19 NThAct=   20.
 PrsmSu:  NPrtUS=  20 ThrOK=T IAlg=1 NPAlg=1 LenDen=           0 ISkipM=0 DoSpLW=F IThBeg=    0 IThEnd=   19.
 Prism:   IPart=     0 DynPar=F LinDyn=F Incr=           1.
 PRISM was handed    33471872 working-precision words and  2695 shell-pairs
 PRISM was handed    33471872 working-precision words and  2695 shell-pairs
 PRISM was handed    33471872 working-precision words and  2695 shell-pairs
 PRISM was handed    33471872 working-precision words and  2695 shell-pairs
 PRISM was handed    33471872 working-precision words and  2695 shell-pairs
 PRISM was handed    33471872 working-precision words and  2695 shell-pairs
 PRISM was handed    33471872 working-precision words and  2695 shell-pairs
 PRISM was handed    33471872 working-precision words and  2695 shell-pairs
 PRISM was handed    33471872 working-precision words and  2695 shell-pairs
 PRISM was handed    33471872 working-precision words and  2695 shell-pairs
 PRISM was handed    33471872 working-precision words and  2695 shell-pairs
 PRISM was handed    33471872 working-precision words and  2695 shell-pairs
 PRISM was handed    33471872 working-precision words and  2695 shell-pairs
 PRISM was handed    33471872 working-precision words and  2695 shell-pairs
 PRISM was handed    33471872 working-precision words and  2695 shell-pairs
 PRISM was handed    33471872 working-precision words and  2695 shell-pairs
 PRISM was handed    33471872 working-precision words and  2695 shell-pairs
 PRISM was handed    33471872 working-precision words and  2695 shell-pairs
 PRISM was handed    33471872 working-precision words and  2695 shell-pairs
 PRISM was handed    33471872 working-precision words and  2695 shell-pairs
 IPart= 17 NShTot=         118 NBatch=          30 AvBLen=         3.9
 IPart= 18 NShTot=         115 NBatch=          30 AvBLen=         3.8
 IPart= 19 NShTot=         114 NBatch=          30 AvBLen=         3.8
 IPart=  0 NShTot=         167 NBatch=          57 AvBLen=         2.9
 IPart=  4 NShTot=         151 NBatch=          45 AvBLen=         3.4
 IPart=  3 NShTot=         155 NBatch=          48 AvBLen=         3.2
 IPart=  2 NShTot=         158 NBatch=          51 AvBLen=         3.1
 IPart=  1 NShTot=         164 NBatch=          55 AvBLen=         3.0
 IPart=  6 NShTot=         138 NBatch=          34 AvBLen=         4.1
 IPart= 10 NShTot=         128 NBatch=          31 AvBLen=         4.1
 IPart=  8 NShTot=         134 NBatch=          32 AvBLen=         4.2
 IPart=  5 NShTot=         145 NBatch=          40 AvBLen=         3.6
 IPart=  7 NShTot=         137 NBatch=          33 AvBLen=         4.2
 IPart=  9 NShTot=         129 NBatch=          31 AvBLen=         4.2
 IPart= 15 NShTot=         122 NBatch=          31 AvBLen=         3.9
 IPart= 14 NShTot=         123 NBatch=          31 AvBLen=         4.0
 IPart= 11 NShTot=         128 NBatch=          31 AvBLen=         4.1
 IPart= 13 NShTot=         124 NBatch=          31 AvBLen=         4.0
 IPart= 12 NShTot=         126 NBatch=          31 AvBLen=         4.1
 IPart= 16 NShTot=         119 NBatch=          30 AvBLen=         4.0
 PrSmSu:  NxtVal=             21.
 Entering OneElI...
 Calculate potential energy integrals
    NBasis = 279  MinDer = 2  MaxDer = 2
 Requested accuracy = 0.1000D-12
 PrmmSu-InSpLW:  IPartL=    0 NPrtUS=   20 NPrtUL=    1 DoSpLW=F IThBeg=    0 IThEnd=   19 NThAct=   20.
 PrsmSu:  NPrtUS=  20 ThrOK=T IAlg=1 NPAlg=1 LenDen=           0 ISkipM=0 DoSpLW=F IThBeg=    0 IThEnd=   19.
 Prism:   IPart=     0 DynPar=F LinDyn=F Incr=          14.
 PRISM was handed    33483612 working-precision words and  2559 shell-pairs
 PRISM was handed    33483612 working-precision words and  2559 shell-pairs
 PRISM was handed    33483612 working-precision words and  2559 shell-pairs
 PRISM was handed    33483612 working-precision words and  2559 shell-pairs
 PRISM was handed    33483612 working-precision words and  2559 shell-pairs
 PRISM was handed    33483612 working-precision words and  2559 shell-pairs
 PRISM was handed    33483612 working-precision words and  2559 shell-pairs
 PRISM was handed    33483612 working-precision words and  2559 shell-pairs
 PRISM was handed    33483612 working-precision words and  2559 shell-pairs
 PRISM was handed    33483612 working-precision words and  2559 shell-pairs
 PRISM was handed    33483612 working-precision words and  2559 shell-pairs
 PRISM was handed    33483612 working-precision words and  2559 shell-pairs
 PRISM was handed    33483612 working-precision words and  2559 shell-pairs
 PRISM was handed    33483612 working-precision words and  2559 shell-pairs
 PRISM was handed    33483612 working-precision words and  2559 shell-pairs
 PRISM was handed    33483612 working-precision words and  2559 shell-pairs
 PRISM was handed    33483612 working-precision words and  2559 shell-pairs
 PRISM was handed    33483612 working-precision words and  2559 shell-pairs
 PRISM was handed    33483612 working-precision words and  2559 shell-pairs
 PRISM was handed    33483612 working-precision words and  2559 shell-pairs
 IPart= 19 NShTot=        1232 NBatch=         112 AvBLen=        11.0
 IPart= 18 NShTot=        1232 NBatch=         112 AvBLen=        11.0
 IPart= 17 NShTot=        1243 NBatch=         113 AvBLen=        11.0
 IPart=  4 NShTot=        1562 NBatch=         142 AvBLen=        11.0
 IPart=  5 NShTot=        1496 NBatch=         136 AvBLen=        11.0
 IPart=  8 NShTot=        1386 NBatch=         126 AvBLen=        11.0
 IPart= 14 NShTot=        1287 NBatch=         117 AvBLen=        11.0
 IPart=  2 NShTot=        1628 NBatch=         148 AvBLen=        11.0
 IPart=  6 NShTot=        1452 NBatch=         132 AvBLen=        11.0
 IPart= 13 NShTot=        1298 NBatch=         118 AvBLen=        11.0
 IPart=  3 NShTot=        1595 NBatch=         145 AvBLen=        11.0
 IPart=  0 NShTot=        1760 NBatch=         160 AvBLen=        11.0
 IPart= 10 NShTot=        1342 NBatch=         122 AvBLen=        11.0
 IPart=  7 NShTot=        1430 NBatch=         130 AvBLen=        11.0
 IPart= 12 NShTot=        1309 NBatch=         119 AvBLen=        11.0
 IPart= 15 NShTot=        1276 NBatch=         116 AvBLen=        11.0
 IPart= 16 NShTot=        1254 NBatch=         114 AvBLen=        11.0
 IPart= 11 NShTot=        1309 NBatch=         119 AvBLen=        11.0
 IPart=  1 NShTot=        1705 NBatch=         155 AvBLen=        11.0
 IPart=  9 NShTot=        1353 NBatch=         123 AvBLen=        11.0
 PrSmSu:  NxtVal=            281.
 Polarizability after L701:
                1             2             3 
      1  0.000000D+00
      2  0.000000D+00  0.000000D+00
      3  0.000000D+00  0.000000D+00  0.000000D+00
 Dipole Derivatives after L701:
                 1             2             3             4             5 
      1  -0.486030D+00 -0.119204D+01 -0.371547D+00 -0.976431D+00  0.276006D+00
      2  -0.173785D+00 -0.959155D+00  0.905604D-01  0.509899D+00 -0.666892D+00
      3  -0.607572D-01 -0.250483D+00 -0.604140D+00 -0.450706D-01 -0.484503D-01
                 6             7             8             9            10 
      1   0.131160D+00  0.605544D-01  0.245972D+00 -0.347250D+00 -0.118003D+01
      2  -0.172450D+00  0.133114D+00 -0.412570D+00 -0.117158D+00  0.402518D+00
      3  -0.410432D+00 -0.137517D+00 -0.947919D-01 -0.491942D+00  0.179947D+00
                11            12            13            14            15 
      1   0.946412D+00  0.433020D+00 -0.224843D+00  0.230398D+00 -0.154385D+00
      2  -0.341685D+00  0.395881D-01 -0.127362D+00 -0.116499D+01  0.109985D-01
      3  -0.499009D-01 -0.132804D+00 -0.345305D+00 -0.162350D+00 -0.911910D+00
                16            17            18            19            20 
      1  -0.195191D+00 -0.127318D+00  0.472268D+00  0.234902D+00 -0.135154D+00
      2  -0.984526D-01  0.208536D+00  0.787014D-01 -0.133497D+00  0.782044D+00
      3   0.279169D+00  0.135160D+00  0.516757D+00  0.248569D-01 -0.110320D+00
                21            22            23            24            25 
      1   0.999802D-01  0.144505D+00 -0.177752D-01 -0.506905D-01  0.949645D+00
      2  -0.492409D+00  0.126753D+00  0.441582D+00  0.529461D+00 -0.227069D+00
      3   0.266557D+00  0.107423D+00  0.280823D+00  0.711686D+00 -0.136238D+00
                26            27            28            29            30 
      1  -0.557056D+00  0.611900D-01  0.600581D+00  0.756692D+00 -0.838938D-01
      2   0.484508D+00 -0.141641D-01  0.201851D+00  0.912485D+00 -0.103505D+00
      3   0.149459D+00  0.319934D+00  0.904242D-01  0.188526D+00  0.400024D+00
                31            32            33 
      1   0.107234D+01 -0.426138D+00 -0.189852D+00
      2  -0.613970D+00  0.716133D+00  0.150378D+00
      3   0.430683D-01 -0.376718D-01  0.336270D+00
 Hessian after L701:
                1             2             3             4             5 
      1  0.102947D+02
      2 -0.223473D+01  0.744486D+01
      3 -0.241162D+01 -0.248993D+01  0.677138D+01
      4  0.508857D+00 -0.342474D+00  0.453035D+00  0.989304D+01
      5 -0.270663D+00 -0.316280D+00 -0.116844D+00  0.303926D+01  0.305272D+01
      6  0.462400D+00 -0.164047D+00 -0.201207D+00  0.702849D+00  0.319735D+01
      7  0.315825D+00  0.672138D-01 -0.180911D-01 -0.229768D+00  0.223855D+00
      8  0.132198D+00 -0.160702D+00 -0.232486D-02  0.302640D+00  0.622875D+00
      9 -0.531290D-02  0.639552D-02 -0.177873D+00  0.425817D-01 -0.298536D+00
     10 -0.731479D+01  0.975344D+00  0.169647D+01  0.477416D+00 -0.429871D+00
     11  0.903286D+00 -0.579182D+01  0.274101D+01 -0.397247D+00 -0.255385D+00
     12  0.162933D+01  0.273788D+01 -0.712117D+00 -0.294723D-01  0.547300D-03
     13  0.700794D+00  0.208971D+00  0.390893D+00  0.202254D+00 -0.239913D+00
     14  0.181856D+00 -0.588841D-01  0.565032D-01 -0.135271D+00  0.163509D+00
     15  0.406720D+00  0.119891D+00 -0.339941D-01  0.325575D-01 -0.403573D-01
     16  0.785984D-01  0.183563D+00  0.542096D-01 -0.919862D+01 -0.462449D+00
     17  0.223113D+00 -0.213025D+00  0.816907D-01 -0.432658D+00  0.458640D+00
     18  0.949534D-01  0.624836D-01 -0.266385D+00 -0.250824D+00 -0.320978D+01
     19 -0.929604D-02  0.238043D-01  0.269813D-02 -0.263938D-01 -0.737192D-01
     20  0.806709D-01  0.341420D-01  0.162962D-01 -0.863392D-01  0.150972D+00
     21 -0.162803D-01 -0.177812D-01 -0.411243D-01  0.362727D-01 -0.830510D-01
     22 -0.151756D-01  0.755149D-01  0.943968D-01 -0.366015D-01 -0.229029D-01
     23  0.983129D-01  0.348646D-01  0.140470D+00 -0.446746D-01  0.797215D-01
     24  0.119693D+00  0.131697D+00  0.939700D-01 -0.353968D-01  0.983604D-01
     25  0.525988D+00 -0.305345D+00 -0.213428D+00  0.342247D-01 -0.396048D-01
     26 -0.364063D+00  0.268016D+00 -0.192597D+00 -0.414459D-01  0.166928D-01
     27 -0.243821D+00 -0.228057D+00 -0.189896D+00 -0.207429D-02  0.927355D-03
     28 -0.512134D+01  0.138024D+01 -0.548369D-01  0.663716D-01 -0.380703D-05
     29  0.127493D+01 -0.124509D+01 -0.230726D+00  0.499366D-01 -0.309183D-01
     30 -0.384647D-01 -0.158825D+00 -0.523212D+01  0.140490D-01 -0.188923D-02
     31  0.358474D-01 -0.321089D-01  0.627724D-02 -0.169078D+01 -0.172399D+01
     32 -0.249138D-01  0.392588D-02 -0.355408D-02 -0.191173D+01 -0.394255D+01
     33  0.240629D-02  0.283671D-03 -0.106353D-01 -0.963577D+00  0.453274D+00
                6             7             8             9            10 
      6  0.140342D+02
      7  0.814456D-01  0.289949D+01
      8 -0.324883D+00 -0.430225D+01  0.119092D+02
      9  0.104003D+00  0.742824D+01  0.345430D+01  0.116626D+02
     10 -0.418751D-01  0.404244D+00  0.131597D+00 -0.172884D+00  0.113460D+02
     11  0.243018D-01  0.150522D+00 -0.180241D+00 -0.460607D-01 -0.148237D+01
     12 -0.457027D+00 -0.161248D+00 -0.367767D-01 -0.154183D+00 -0.697549D+00
     13  0.193820D-01  0.594644D+00 -0.385989D+00 -0.277849D+00 -0.233635D+01
     14  0.120720D-01 -0.273575D+00 -0.104349D+00  0.882308D-01  0.286804D+01
     15  0.159476D-01 -0.231394D+00  0.143607D+00 -0.954123D-01 -0.128186D+00
     16 -0.236136D+00 -0.395762D+01  0.423141D+01 -0.699237D+01  0.323947D+00
     17 -0.329360D+01  0.421611D+01 -0.122364D+02 -0.316269D+01 -0.212446D+00
     18 -0.867729D+01 -0.704226D+01 -0.319038D+01 -0.112952D+02  0.562915D-01
     19  0.294021D-01  0.673737D-01 -0.384223D-01  0.337817D-02 -0.506165D-01
     20 -0.721723D-01 -0.111931D+00  0.146949D-02  0.848112D-02 -0.515826D-02
     21 -0.248332D-01  0.572719D-01 -0.230330D-01 -0.450030D-01 -0.102975D-01
     22 -0.158707D-01 -0.375158D-01 -0.155826D-01 -0.419545D-01  0.512897D-02
     23  0.556395D-01 -0.478914D-01 -0.163406D-01  0.633326D-01 -0.147329D+00
     24 -0.632076D-02 -0.896062D-01  0.389136D-01  0.919778D-01 -0.796227D-01
     25  0.594685D-02  0.385391D-01 -0.132863D-02 -0.157847D-01 -0.304585D+01
     26 -0.458659D-02 -0.282696D-01 -0.899486D-02  0.906706D-02 -0.166397D+01
     27 -0.157649D-01 -0.947180D-02 -0.355541D-03 -0.619118D-02 -0.510732D+00
     28  0.326415D-01  0.297496D-01  0.203930D-01 -0.269304D-02  0.147171D+00
     29  0.199506D-01  0.401739D-01  0.101918D-01 -0.467182D-02 -0.366413D-02
     30 -0.275612D-01 -0.129905D-02 -0.172332D-02 -0.846737D-02 -0.995827D-01
     31 -0.104018D+01 -0.124962D+00 -0.746642D-01  0.346473D-01  0.436810D-01
     32  0.549970D+00  0.660417D-01  0.163265D+00 -0.117847D+00 -0.301780D-01
     33 -0.474416D+01 -0.135854D-01 -0.573430D-01 -0.761723D-01 -0.120296D-01
               11            12            13            14            15 
     11  0.143905D+02
     12 -0.300913D+01  0.128613D+02
     13  0.300087D+01 -0.170290D+00  0.120637D+02
     14 -0.535611D+01  0.734612D-01 -0.131622D+00  0.157042D+02
     15  0.732425D-01 -0.687891D+01  0.135435D+00 -0.744676D+00  0.182283D+02
     16 -0.186619D+00  0.150207D+00 -0.256416D+01 -0.256532D+01 -0.103533D+01
     17 -0.525901D-01  0.558478D-01 -0.255820D+01 -0.492125D+01  0.793890D+00
     18  0.353845D-01 -0.105443D+00 -0.984139D+00  0.785095D+00 -0.618083D+01
     19 -0.379445D-01  0.313397D-01 -0.441628D+01 -0.282459D+00  0.188971D+00
     20  0.214175D+00 -0.104382D+00 -0.274709D+00 -0.225334D+01 -0.166524D+01
     21 -0.136679D+00  0.110187D+00  0.157329D+00 -0.151866D+01 -0.322204D+01
     22 -0.110144D+00 -0.709162D-01 -0.397565D+01  0.264345D+00  0.520689D+00
     23  0.196903D-01 -0.619239D-01  0.341470D+00 -0.345704D+01  0.127626D+01
     24 -0.302866D-01  0.158039D+00  0.606812D+00  0.122096D+01 -0.199993D+01
     25 -0.176828D+01 -0.539041D+00 -0.289844D+00  0.875907D-01  0.102464D+00
     26 -0.306870D+01  0.657712D+00  0.668018D-01  0.179606D+00  0.850954D-02
     27  0.678567D+00 -0.464075D+01  0.125417D+00  0.791216D-02  0.147637D+00
     28 -0.516153D-01 -0.129463D+00 -0.118992D-01  0.786349D-02  0.578486D-02
     29  0.800770D-01 -0.320431D+00  0.111461D-01  0.809067D-01  0.323217D-01
     30 -0.335741D+00 -0.171692D+00 -0.125582D-02  0.185094D-01  0.218235D-01
     31 -0.204625D-01 -0.128941D-01  0.328388D-01 -0.214519D-01  0.228547D-02
     32  0.448077D-03  0.718865D-02 -0.388274D-01  0.227133D-01  0.254990D-02
     33  0.538808D-02 -0.938358D-02 -0.173490D-02  0.591922D-03 -0.261283D-02
               16            17            18            19            20 
     16  0.147608D+02
     17 -0.129369D+01  0.171773D+02
     18  0.819104D+01  0.534109D+01  0.265571D+02
     19  0.118683D+00  0.106026D+00 -0.870223D-01  0.430915D+01
     20  0.116884D+00 -0.506425D-01  0.118468D+00  0.343591D+00  0.179488D+01
     21 -0.583631D-01  0.717917D-01  0.127821D+00 -0.189251D+00  0.162522D+01
     22  0.913193D-02 -0.122173D-01  0.190686D-01  0.748893D-01  0.541835D-02
     23 -0.445956D-01 -0.760369D-02  0.570107D-02  0.115673D-01  0.768909D-01
     24 -0.377134D-01  0.380332D-01  0.973725D-02 -0.390532D-01  0.411324D-01
     25  0.262710D+00 -0.814352D-01 -0.445464D-01 -0.688975D-01 -0.616925D-01
     26 -0.115474D+00 -0.866638D-01  0.993563D-02 -0.488445D-01  0.203143D-01
     27 -0.594608D-01  0.896732D-02 -0.958666D-01  0.600522D-01  0.317909D-01
     28  0.106175D+00  0.112193D+00  0.515050D-01 -0.128346D-02  0.260140D-02
     29  0.141179D+00  0.157903D-01  0.380068D-01 -0.279364D-02  0.590647D-02
     30  0.507142D-01  0.264316D-01 -0.590441D-01 -0.107091D-04 -0.992948D-03
     31  0.603213D-01 -0.667928D-01 -0.406415D-02  0.266923D-02 -0.933628D-02
     32 -0.489019D-02 -0.835685D-01  0.400159D-02 -0.805459D-03  0.523701D-02
     33 -0.268007D-01  0.385465D-01 -0.145260D-01 -0.503695D-03  0.140510D-02
               21            22            23            24            25 
     21  0.320659D+01
     22 -0.352761D-01  0.393482D+01
     23  0.648135D-01 -0.194362D+00  0.327687D+01
     24 -0.134365D+00 -0.487868D+00 -0.155609D+01  0.179607D+01
     25  0.565017D-01  0.414875D-01  0.308502D-01  0.461682D-01  0.254694D+01
     26  0.292631D-01  0.669600D-02 -0.227889D-01 -0.303767D-02  0.219277D+01
     27  0.237156D-01  0.190777D-01  0.686050D-02 -0.111569D-01  0.621242D+00
     28 -0.317662D-02 -0.208056D-03  0.515766D-02  0.582102D-02 -0.507304D-01
     29 -0.711400D-02  0.561403D-02  0.885285D-02  0.121543D-01 -0.497104D-01
     30  0.380947D-03  0.120445D-03  0.147604D-02  0.818429D-03 -0.184971D-01
     31  0.526932D-02 -0.302650D-03 -0.850550D-02 -0.923385D-02  0.543141D-02
     32 -0.476771D-02 -0.238035D-02  0.688283D-02  0.816163D-02 -0.380962D-02
     33 -0.132006D-02 -0.146703D-02  0.345403D-02  0.116138D-02 -0.102534D-02
               26            27            28            29            30 
     26  0.258402D+01
     27 -0.583059D+00  0.480172D+01
     28  0.572354D-03  0.110703D-03  0.482764D+01
     29  0.115682D+00  0.765501D-01 -0.147415D+01  0.963121D+00
     30  0.680078D-01 -0.131032D-01  0.941572D-01  0.384480D+00  0.548978D+01
     31 -0.477341D-02 -0.339301D-03  0.835500D-02  0.734393D-02  0.692380D-04
     32  0.280900D-02 -0.103613D-03 -0.325048D-02 -0.451576D-02  0.266090D-03
     33  0.785354D-03 -0.344657D-03  0.149794D-03 -0.520895D-03 -0.820824D-03
               31            32            33 
     31  0.162690D+01
     32  0.195474D+01  0.382535D+01
     33  0.101817D+01 -0.445865D+00  0.485881D+01
 Leave Link  701 at Tue Apr  9 00:05:23 2019, MaxMem=   671088640 cpu:               7.2 elap:               0.4
 (Enter /shared/centos7/gaussian/g16/l702.exe)
 L702 exits ... SP integral derivatives will be done elsewhere.
 Leave Link  702 at Tue Apr  9 00:05:23 2019, MaxMem=   671088640 cpu:               0.3 elap:               0.0
 (Enter /shared/centos7/gaussian/g16/l703.exe)
 Integral derivatives from FoFJK, PRISM(SPDF).
 Compute integral second derivatives, UseDBF=F ICtDFT=           0.
 ICntrl=    100147.
 Calling FoFJK, ICntrl=    100147 FMM=F ISym2X=0 I1Cent= 0 IOpClX= 0 NMat=1 NMatS=1 NMatT=0.
 FoFJK:  IHMeth= 1 ICntrl=  100147 DoSepK=F KAlg= 0 I1Cent=           0 FoldK=F
 IRaf=         0 NMat=       1 IRICut=       1 DoRegI=T DoRafI=F ISym2E= 0 IDoP0=0 IntGTp=1.
 FoFCou: FMM=F IPFlag=           0 FMFlag=      100000 FMFlg1=         800
         NFxFlg=           0 DoJE=F BraDBF=F KetDBF=F FulRan=T
         wScrn=  0.000000 ICntrl=    100147 IOpCl=  0 I1Cent=           0 NGrid=           0
         NMat0=    1 NMatS0=      1 NMatT0=    0 NMatD0=    1 NMtDS0=    0 NMtDT0=    0
 Symmetry not used in FoFCou.
 FoFCou:  KetSym=F NOpSet=  1 NOpAb=1 NOp=  1.
 FoFCou:  CnvScl= 1.00D+00 Thresh= 1.00D-08 IAcrcy=      12.
 PrismS was handed   670795032 working-precision words and  2626 shell-pairs
 FoFCou: LinMIO=F DoNuc=F BraDBF=F KetDBF=F HaveP=T PDBF=F HaveZ=T HaveW=F
         NIJTC =      15 NIJTAt=       0 NIJTCD=       0 NIJTT =      15
         IJTBeg=       1 IJTEnd=      15 KLTBeg=       1 KLTEnd=      15
         IPTBeg=       1 IPTEnd=      15 IPTBCv=       1 IPTECv=      15
         IZTBeg=       1 IZTEnd=      15 IZTBCv=       1 IZTECv=      15
         IWTBeg=      16 IWTEnd=      15 IWTBCv=      16 IWTECv=      15
         INTBeg=       1 INTEnd=       0 IFTBCv=       1 IFTECv=      15
 NCel replicated for PrismC:     1
 CoulSu-InSpLW:  IPartL=    0 NPrtUS=   20 NPrtUL=    1 DoSpLW=F IThBeg=    0 IThEnd=   19 NThAct=   20.
 CoulSu:  IncDef=  1024 NBBP=        3449251 NTPThr=   100 NPartT=   20 Incr=        1024 LDynOK=F GPUOK=T.
 CoulSu:  NPrtUS=  20 ThrOK=T IAlg=1 NPAlg=1 LenDen=           0 LWGrdD=           0 DoCopy=F ISkipM=0
          DoSpLW=F IThBeg=    0 IThEnd=   19.
 Enter PrismC:  IPart=  0 JobTyp=22 DoJE=F Cont=F.
 PrismC:  IPart=     0 DynPar=T LinDyn=F Incr=        1024 UseFst=F UseS4=T ISplat=2.
 PrismC was handed    33487314 working-precision words and  2626 shell-pairs
 Enter PrismC:  IPart= 16 JobTyp=22 DoJE=F Cont=F.
 Enter PrismC:  IPart= 13 JobTyp=22 DoJE=F Cont=F.
 PrismC:  IPart=    16 DynPar=T LinDyn=F Incr=        1024 UseFst=F UseS4=T ISplat=2.
 Enter PrismC:  IPart=  8 JobTyp=22 DoJE=F Cont=F.
 PrismC was handed    33487314 working-precision words and  2626 shell-pairs
 PrismC:  IPart=    13 DynPar=T LinDyn=F Incr=        1024 UseFst=F UseS4=T ISplat=2.
 Enter PrismC:  IPart= 15 JobTyp=22 DoJE=F Cont=F.
 PrismC was handed    33487314 working-precision words and  2626 shell-pairs
 Enter PrismC:  IPart= 14 JobTyp=22 DoJE=F Cont=F.
 Enter PrismC:  IPart= 12 JobTyp=22 DoJE=F Cont=F.
 PrismC:  IPart=    15 DynPar=T LinDyn=F Incr=        1024 UseFst=F UseS4=T ISplat=2.
 PrismC was handed    33487314 working-precision words and  2626 shell-pairs
 PrismC:  IPart=     8 DynPar=T LinDyn=F Incr=        1024 UseFst=F UseS4=T ISplat=2.
 PrismC was handed    33487314 working-precision words and  2626 shell-pairs
 PrismC:  IPart=    12 DynPar=T LinDyn=F Incr=        1024 UseFst=F UseS4=T ISplat=2.
 PrismC:  IPart=    14 DynPar=T LinDyn=F Incr=        1024 UseFst=F UseS4=T ISplat=2.
 Enter PrismC:  IPart=  5 JobTyp=22 DoJE=F Cont=F.
 PrismC was handed    33487314 working-precision words and  2626 shell-pairs
 PrismC was handed    33487314 working-precision words and  2626 shell-pairs
 Enter PrismC:  IPart= 11 JobTyp=22 DoJE=F Cont=F.
 PrismC:  IPart=     5 DynPar=T LinDyn=F Incr=        1024 UseFst=F UseS4=T ISplat=2.
 PrismC was handed    33487314 working-precision words and  2626 shell-pairs
 PrismC:  IPart=    11 DynPar=T LinDyn=F Incr=        1024 UseFst=F UseS4=T ISplat=2.
 PrismC was handed    33487314 working-precision words and  2626 shell-pairs
 Enter PrismC:  IPart=  2 JobTyp=22 DoJE=F Cont=F.
 Enter PrismC:  IPart=  9 JobTyp=22 DoJE=F Cont=F.
 PrismC:  IPart=     2 DynPar=T LinDyn=F Incr=        1024 UseFst=F UseS4=T ISplat=2.
 PrismC was handed    33487314 working-precision words and  2626 shell-pairs
 Enter PrismC:  IPart= 10 JobTyp=22 DoJE=F Cont=F.
 PrismC:  IPart=     9 DynPar=T LinDyn=F Incr=        1024 UseFst=F UseS4=T ISplat=2.
 PrismC was handed    33487314 working-precision words and  2626 shell-pairs
 PrismC:  IPart=    10 DynPar=T LinDyn=F Incr=        1024 UseFst=F UseS4=T ISplat=2.
 PrismC was handed    33487314 working-precision words and  2626 shell-pairs
 Enter PrismC:  IPart=  6 JobTyp=22 DoJE=F Cont=F.
 Enter PrismC:  IPart=  1 JobTyp=22 DoJE=F Cont=F.
 PrismC:  IPart=     6 DynPar=T LinDyn=F Incr=        1024 UseFst=F UseS4=T ISplat=2.
 PrismC was handed    33487314 working-precision words and  2626 shell-pairs
 PrismC:  IPart=     1 DynPar=T LinDyn=F Incr=        1024 UseFst=F UseS4=T ISplat=2.
 PrismC was handed    33487314 working-precision words and  2626 shell-pairs
 Enter PrismC:  IPart= 17 JobTyp=22 DoJE=F Cont=F.
 Enter PrismC:  IPart= 18 JobTyp=22 DoJE=F Cont=F.
 PrismC:  IPart=    17 DynPar=T LinDyn=F Incr=        1024 UseFst=F UseS4=T ISplat=2.
 Enter PrismC:  IPart= 19 JobTyp=22 DoJE=F Cont=F.
 PrismC was handed    33487314 working-precision words and  2626 shell-pairs
 Enter PrismC:  IPart=  3 JobTyp=22 DoJE=F Cont=F.
 PrismC:  IPart=    18 DynPar=T LinDyn=F Incr=        1024 UseFst=F UseS4=T ISplat=2.
 PrismC:  IPart=    19 DynPar=T LinDyn=F Incr=        1024 UseFst=F UseS4=T ISplat=2.
 PrismC:  IPart=     3 DynPar=T LinDyn=F Incr=        1024 UseFst=F UseS4=T ISplat=2.
 PrismC was handed    33487314 working-precision words and  2626 shell-pairs
 PrismC was handed    33487314 working-precision words and  2626 shell-pairs
 PrismC was handed    33487314 working-precision words and  2626 shell-pairs
 Enter PrismC:  IPart=  7 JobTyp=22 DoJE=F Cont=F.
 Enter PrismC:  IPart=  4 JobTyp=22 DoJE=F Cont=F.
 PrismC:  IPart=     7 DynPar=T LinDyn=F Incr=        1024 UseFst=F UseS4=T ISplat=2.
 PrismC was handed    33487314 working-precision words and  2626 shell-pairs
 PrismC:  IPart=     4 DynPar=T LinDyn=F Incr=        1024 UseFst=F UseS4=T ISplat=2.
 PrismC was handed    33487314 working-precision words and  2626 shell-pairs
 IPart= 15 NShTot=      122156 NShNF=      122156 NShFF=           0 MinMC=       7
           NShCPU=      122156 NBCPU=        5445 AvBCPU=        22.4
           NShGPU=           0 NBGPU=           0 AvBGPU=         0.0
 IPart= 13 NShTot=      113041 NShNF=      113041 NShFF=           0 MinMC=       7
           NShCPU=      113041 NBCPU=        4925 AvBCPU=        23.0
           NShGPU=           0 NBGPU=           0 AvBGPU=         0.0
 IPart=  7 NShTot=      127472 NShNF=      127472 NShFF=           0 MinMC=       7
           NShCPU=      127472 NBCPU=        5078 AvBCPU=        25.1
           NShGPU=           0 NBGPU=           0 AvBGPU=         0.0
 IPart=  9 NShTot=      130346 NShNF=      130346 NShFF=           0 MinMC=       7
           NShCPU=      130346 NBCPU=        5183 AvBCPU=        25.1
           NShGPU=           0 NBGPU=           0 AvBGPU=         0.0
 IPart= 19 NShTot=      128422 NShNF=      128422 NShFF=           0 MinMC=       7
           NShCPU=      128422 NBCPU=        5382 AvBCPU=        23.9
           NShGPU=           0 NBGPU=           0 AvBGPU=         0.0
 IPart=  1 NShTot=      118888 NShNF=      118888 NShFF=           0 MinMC=       7
           NShCPU=      118888 NBCPU=        5406 AvBCPU=        22.0
           NShGPU=           0 NBGPU=           0 AvBGPU=         0.0
 IPart=  2 NShTot=      119596 NShNF=      119596 NShFF=           0 MinMC=       7
           NShCPU=      119596 NBCPU=        5452 AvBCPU=        21.9
           NShGPU=           0 NBGPU=           0 AvBGPU=         0.0
 IPart=  6 NShTot=      114307 NShNF=      114307 NShFF=           0 MinMC=       7
           NShCPU=      114307 NBCPU=        4646 AvBCPU=        24.6
           NShGPU=           0 NBGPU=           0 AvBGPU=         0.0
 IPart=  8 NShTot=      125798 NShNF=      125798 NShFF=           0 MinMC=       7
           NShCPU=      125798 NBCPU=        5349 AvBCPU=        23.5
           NShGPU=           0 NBGPU=           0 AvBGPU=         0.0
 IPart= 10 NShTot=      112082 NShNF=      112082 NShFF=           0 MinMC=       7
           NShCPU=      112082 NBCPU=        5225 AvBCPU=        21.5
           NShGPU=           0 NBGPU=           0 AvBGPU=         0.0
 IPart=  4 NShTot=      118105 NShNF=      118105 NShFF=           0 MinMC=       7
           NShCPU=      118105 NBCPU=        5058 AvBCPU=        23.4
           NShGPU=           0 NBGPU=           0 AvBGPU=         0.0
 IPart=  0 NShTot=      114493 NShNF=      114493 NShFF=           0 MinMC=       7
           NShCPU=      114493 NBCPU=        5108 AvBCPU=        22.4
           NShGPU=           0 NBGPU=           0 AvBGPU=         0.0
 IPart= 16 NShTot=      117696 NShNF=      117696 NShFF=           0 MinMC=       7
           NShCPU=      117696 NBCPU=        5126 AvBCPU=        23.0
           NShGPU=           0 NBGPU=           0 AvBGPU=         0.0
 IPart= 11 NShTot=      108601 NShNF=      108601 NShFF=           0 MinMC=       7
           NShCPU=      108601 NBCPU=        4318 AvBCPU=        25.2
           NShGPU=           0 NBGPU=           0 AvBGPU=         0.0
 IPart= 17 NShTot=      107361 NShNF=      107361 NShFF=           0 MinMC=       7
           NShCPU=      107361 NBCPU=        4508 AvBCPU=        23.8
           NShGPU=           0 NBGPU=           0 AvBGPU=         0.0
 IPart= 12 NShTot=      115435 NShNF=      115435 NShFF=           0 MinMC=       7
           NShCPU=      115435 NBCPU=        5204 AvBCPU=        22.2
           NShGPU=           0 NBGPU=           0 AvBGPU=         0.0
 IPart=  5 NShTot=      114475 NShNF=      114475 NShFF=           0 MinMC=       7
           NShCPU=      114475 NBCPU=        4985 AvBCPU=        23.0
           NShGPU=           0 NBGPU=           0 AvBGPU=         0.0
 IPart=  3 NShTot=      111291 NShNF=      111291 NShFF=           0 MinMC=       7
           NShCPU=      111291 NBCPU=        5187 AvBCPU=        21.5
           NShGPU=           0 NBGPU=           0 AvBGPU=         0.0
 IPart= 14 NShTot=      111827 NShNF=      111827 NShFF=           0 MinMC=       7
           NShCPU=      111827 NBCPU=        4798 AvBCPU=        23.3
           NShGPU=           0 NBGPU=           0 AvBGPU=         0.0
 IPart= 18 NShTot=      126533 NShNF=      126533 NShFF=           0 MinMC=       7
           NShCPU=      126533 NBCPU=        5518 AvBCPU=        22.9
           NShGPU=           0 NBGPU=           0 AvBGPU=         0.0
 CoulSu:  NxtVal=        3619841 LenVP=       33487315 MinMC=       7.
 ReadGW:  IGet=0 IStart=           1 Next=           1 LGW=           0.
 Remaining memory in FofDFT      639.92 Mw
 CkSvGd:  ISavGI=        -1 IRadAn=       5 IRASav=       5 ISavGd=        -1.
 CalDSu-InSpLW:  IPartL=    0 NPrtUS=   20 NPrtUL=    1 DoSpLW=F IThBeg=    0 IThEnd=   19 NThAct=   20.
 CalDSu:  NPrtUS=  20 ThrOK=T IAlg=1 NPAlg=2 DoDPD=T LenP=       39060 LenD1P=             0 GPUOK=F
          ISkipM=0 DoSpLW=F IThBeg=    0 IThEnd=   19.
 IPart=  0 IRanGd=          0 ScrnBf=T ScrnGd=T RCrit=4.00D+00 DoMicB=T.
 IPart=  8        11319 of        12884 points in      14 batches and       69 microbatches, Max-NSigAt=      11 Max-NSgAt2=      11
 IPart=  0        11337 of        12766 points in      13 batches and       68 microbatches, Max-NSigAt=      11 Max-NSgAt2=      11
 IPart=  1        11071 of        12132 points in      13 batches and       77 microbatches, Max-NSigAt=      11 Max-NSgAt2=      11
 IPart= 19        10260 of        10732 points in      11 batches and       57 microbatches, Max-NSigAt=      11 Max-NSgAt2=      11
 IPart=  4        14071 of        17208 points in      20 batches and       84 microbatches, Max-NSigAt=      11 Max-NSgAt2=      11
 IPart= 10        11237 of        11962 points in      12 batches and       62 microbatches, Max-NSigAt=      11 Max-NSgAt2=      11
 IPart= 18        10659 of        11448 points in      12 batches and       69 microbatches, Max-NSigAt=      11 Max-NSgAt2=      11
 IPart=  6        11917 of        13466 points in      14 batches and       67 microbatches, Max-NSigAt=      11 Max-NSgAt2=      11
 IPart= 15         9891 of        10676 points in      11 batches and       71 microbatches, Max-NSigAt=      11 Max-NSgAt2=      11
 IPart= 13        10955 of        11622 points in      12 batches and       51 microbatches, Max-NSigAt=      11 Max-NSgAt2=      11
 IPart= 17        10102 of        10952 points in      11 batches and       73 microbatches, Max-NSigAt=      11 Max-NSgAt2=      11
 IPart=  9        11948 of        12570 points in      12 batches and       47 microbatches, Max-NSigAt=      11 Max-NSgAt2=      11
 IPart= 14        10957 of        11648 points in      11 batches and       63 microbatches, Max-NSigAt=      11 Max-NSgAt2=      11
 IPart=  2        10765 of        12238 points in      14 batches and       93 microbatches, Max-NSigAt=      11 Max-NSgAt2=      11
 IPart=  7        10613 of        11306 points in      12 batches and       68 microbatches, Max-NSigAt=      11 Max-NSgAt2=      11
 IPart= 12        11988 of        14002 points in      15 batches and       73 microbatches, Max-NSigAt=      11 Max-NSgAt2=      11
 IPart=  3        11803 of        14228 points in      17 batches and       92 microbatches, Max-NSigAt=      11 Max-NSgAt2=      11
 IPart=  5        13232 of        14486 points in      15 batches and       56 microbatches, Max-NSigAt=      11 Max-NSgAt2=      11
 IPart= 11        10960 of        11428 points in      11 batches and       49 microbatches, Max-NSigAt=      11 Max-NSgAt2=      11
 IPart= 16        12942 of        14334 points in      14 batches and       52 microbatches, Max-NSigAt=      11 Max-NSgAt2=      11
 Polarizability after L703:
                1             2             3 
      1  0.000000D+00
      2  0.000000D+00  0.000000D+00
      3  0.000000D+00  0.000000D+00  0.000000D+00
 Dipole Derivatives after L703:
                 1             2             3             4             5 
      1  -0.486030D+00 -0.119204D+01 -0.371547D+00 -0.976431D+00  0.276006D+00
      2  -0.173785D+00 -0.959155D+00  0.905604D-01  0.509899D+00 -0.666892D+00
      3  -0.607572D-01 -0.250483D+00 -0.604140D+00 -0.450706D-01 -0.484503D-01
                 6             7             8             9            10 
      1   0.131160D+00  0.605544D-01  0.245972D+00 -0.347250D+00 -0.118003D+01
      2  -0.172450D+00  0.133114D+00 -0.412570D+00 -0.117158D+00  0.402518D+00
      3  -0.410432D+00 -0.137517D+00 -0.947919D-01 -0.491942D+00  0.179947D+00
                11            12            13            14            15 
      1   0.946412D+00  0.433020D+00 -0.224843D+00  0.230398D+00 -0.154385D+00
      2  -0.341685D+00  0.395881D-01 -0.127362D+00 -0.116499D+01  0.109985D-01
      3  -0.499009D-01 -0.132804D+00 -0.345305D+00 -0.162350D+00 -0.911910D+00
                16            17            18            19            20 
      1  -0.195191D+00 -0.127318D+00  0.472268D+00  0.234902D+00 -0.135154D+00
      2  -0.984526D-01  0.208536D+00  0.787014D-01 -0.133497D+00  0.782044D+00
      3   0.279169D+00  0.135160D+00  0.516757D+00  0.248569D-01 -0.110320D+00
                21            22            23            24            25 
      1   0.999802D-01  0.144505D+00 -0.177752D-01 -0.506905D-01  0.949645D+00
      2  -0.492409D+00  0.126753D+00  0.441582D+00  0.529461D+00 -0.227069D+00
      3   0.266557D+00  0.107423D+00  0.280823D+00  0.711686D+00 -0.136238D+00
                26            27            28            29            30 
      1  -0.557056D+00  0.611900D-01  0.600581D+00  0.756692D+00 -0.838938D-01
      2   0.484508D+00 -0.141641D-01  0.201851D+00  0.912485D+00 -0.103505D+00
      3   0.149459D+00  0.319934D+00  0.904242D-01  0.188526D+00  0.400024D+00
                31            32            33 
      1   0.107234D+01 -0.426138D+00 -0.189852D+00
      2  -0.613970D+00  0.716133D+00  0.150378D+00
      3   0.430683D-01 -0.376718D-01  0.336270D+00
 Hessian after L703:
                1             2             3             4             5 
      1  0.101994D+00
      2  0.156513D+00  0.551737D+00
      3  0.316057D-01  0.729592D-01  0.416353D+00
      4 -0.254325D-02  0.726736D-03 -0.309894D-03  0.389142D+00
      5 -0.499167D-03  0.272668D-02  0.181575D-02 -0.871487D-01  0.364570D+00
      6 -0.185585D-02  0.670127D-03  0.230364D-03 -0.127092D+00 -0.577551D-01
      7  0.163559D-03 -0.529838D-03 -0.164175D-02  0.878290D-02 -0.458563D-01
      8 -0.105159D-02  0.110701D-02  0.128938D-02 -0.491930D-01 -0.456974D-01
      9 -0.333114D-03 -0.176917D-03  0.122012D-02  0.253415D-01  0.465056D-01
     10 -0.620664D-01 -0.289572D-01 -0.316611D-01 -0.149398D-03  0.205891D-02
     11 -0.254458D-01 -0.117358D+00 -0.118361D+00  0.146015D-02 -0.956830D-03
     12 -0.418771D-01 -0.109052D+00 -0.306984D+00 -0.741235D-03 -0.268900D-02
     13 -0.423730D-02 -0.113555D-01 -0.679742D-02  0.312927D-02  0.116096D-02
     14 -0.190598D-01 -0.175209D-01 -0.350861D-02  0.283766D-01 -0.263666D-01
     15 -0.457991D-01 -0.396051D-01 -0.136695D-01 -0.801262D-02  0.103257D-01
     16  0.370960D-02  0.263920D-02  0.159803D-02 -0.120522D+00  0.148058D-01
     17  0.384943D-02 -0.368178D-02 -0.447410D-02  0.263127D-01 -0.195635D+00
     18 -0.384497D-03  0.115121D-02 -0.159960D-02  0.171250D-01  0.355221D-01
     19  0.233022D-02  0.409382D-02  0.801920D-03 -0.430465D-02  0.320524D-02
     20  0.204988D-02  0.143926D-02  0.703895D-04  0.333342D-02 -0.795176D-03
     21  0.928011D-03  0.440126D-03  0.323062D-02  0.167636D-02 -0.190595D-02
     22 -0.584162D-02 -0.570496D-02 -0.127280D-02 -0.899508D-03  0.929361D-03
     23 -0.490650D-02 -0.264935D-02 -0.602718D-03  0.113918D-02 -0.179331D-03
[...]
    R1        2.67766   0.00000   0.00000  -0.00000  -0.00000   2.67766
    R2        1.81626   0.00000   0.00000   0.00000   0.00000   1.81626
    R3        2.53637   0.00000   0.00000   0.00000   0.00000   2.53637
    R4        1.82590   0.00000   0.00000   0.00000   0.00000   1.82590
    R5        2.26262  -0.00000   0.00000  -0.00000  -0.00000   2.26262
    R6        2.73249  -0.00000   0.00000   0.00000   0.00000   2.73249
    R7        1.91467  -0.00000   0.00000  -0.00000  -0.00000   1.91467
    R8        2.85896   0.00000   0.00000   0.00000   0.00000   2.85896
    R9        2.06846   0.00000   0.00000   0.00000   0.00000   2.06846
   R10        2.06177  -0.00000   0.00000  -0.00000  -0.00000   2.06177
    A1        1.80301   0.00000   0.00000   0.00000   0.00000   1.80301
    A2        1.86568   0.00000   0.00000   0.00000   0.00000   1.86568
    A3        1.88668   0.00000   0.00000   0.00000   0.00000   1.88668
    A4        1.81785  -0.00000   0.00000  -0.00000  -0.00000   1.81785
    A5        1.90408   0.00000   0.00000   0.00000   0.00000   1.90408
    A6        1.97839   0.00000   0.00000   0.00000   0.00000   1.97839
    A7        1.97844   0.00000   0.00000  -0.00000  -0.00000   1.97844
    A8        1.89448  -0.00000   0.00000   0.00000   0.00000   1.89449
    A9        1.85718  -0.00000   0.00000   0.00000   0.00000   1.85718
   A10        1.86427   0.00000   0.00000  -0.00000  -0.00000   1.86427
   A11        1.88582   0.00000   0.00000  -0.00000  -0.00000   1.88582
   A12        2.14646   0.00000   0.00000  -0.00000  -0.00000   2.14646
   A13        1.98844  -0.00000   0.00000  -0.00000  -0.00000   1.98844
   A14        2.14828   0.00000   0.00000   0.00000   0.00000   2.14828
    D1       -1.90548   0.00000   0.00000   0.00002   0.00002  -1.90547
    D2        2.35422   0.00000   0.00000   0.00002   0.00002   2.35423
    D3       -0.00021   0.00000   0.00000  -0.00000  -0.00000  -0.00021
    D4       -3.14008  -0.00000   0.00000   0.00000   0.00000  -3.14008
    D5        1.29482   0.00000   0.00000   0.00001   0.00001   1.29483
    D6       -0.82471   0.00000   0.00000   0.00001   0.00001  -0.82470
    D7       -2.92010   0.00000   0.00000   0.00001   0.00001  -2.92009
    D8       -3.02192  -0.00000   0.00000   0.00001   0.00001  -3.02191
    D9        1.14173  -0.00000   0.00000   0.00001   0.00001   1.14175
   D10       -0.95365  -0.00000   0.00000   0.00001   0.00001  -0.95364
   D11        0.02278  -0.00000   0.00000  -0.00004  -0.00004   0.02274
   D12       -3.11709  -0.00000   0.00000  -0.00004  -0.00004  -3.11713
   D13        2.20901  -0.00000   0.00000  -0.00004  -0.00004   2.20896
   D14       -0.93087  -0.00000   0.00000  -0.00004  -0.00004  -0.93091
   D15       -2.06286  -0.00000   0.00000  -0.00004  -0.00004  -2.06290
   D16        1.08045  -0.00000   0.00000  -0.00004  -0.00004   1.08041
         Item               Value     Threshold  Converged?
 Maximum Force            0.000000     0.000002     YES
 RMS     Force            0.000000     0.000001     YES
 Maximum Displacement     0.000075     0.000006     NO 
 RMS     Displacement     0.000019     0.000004     NO 
 Predicted change in Energy=-4.759385D-12
                           ----------------------------
                           ! Non-Optimized Parameters !
                           ! (Angstroms and Degrees)  !
 --------------------------                            --------------------------
 ! Name  Definition              Value          Derivative Info.                !
 --------------------------------------------------------------------------------
 ! R1    R(1,4)                  1.417          -DE/DX =    0.0                 !
 ! R2    R(1,10)                 0.9611         -DE/DX =    0.0                 !
 ! R3    R(2,6)                  1.3422         -DE/DX =    0.0                 !
 ! R4    R(2,11)                 0.9662         -DE/DX =    0.0                 !
 ! R5    R(3,6)                  1.1973         -DE/DX =    0.0                 !
 ! R6    R(4,5)                  1.446          -DE/DX =    0.0                 !
 ! R7    R(4,9)                  1.0132         -DE/DX =    0.0                 !
 ! R8    R(5,6)                  1.5129         -DE/DX =    0.0                 !
 ! R9    R(5,7)                  1.0946         -DE/DX =    0.0                 !
 ! R10   R(5,8)                  1.091          -DE/DX =    0.0                 !
 ! A1    A(4,1,10)             103.3047         -DE/DX =    0.0                 !
 ! A2    A(6,2,11)             106.8955         -DE/DX =    0.0                 !
 ! A3    A(1,4,5)              108.0991         -DE/DX =    0.0                 !
 ! A4    A(1,4,9)              104.1551         -DE/DX =    0.0                 !
 ! A5    A(5,4,9)              109.0959         -DE/DX =    0.0                 !
 ! A6    A(4,5,6)              113.3537         -DE/DX =    0.0                 !
 ! A7    A(4,5,7)              113.3562         -DE/DX =    0.0                 !
 ! A8    A(4,5,8)              108.546          -DE/DX =    0.0                 !
 ! A9    A(6,5,7)              106.4084         -DE/DX =    0.0                 !
 ! A10   A(6,5,8)              106.8146         -DE/DX =    0.0                 !
 ! A11   A(7,5,8)              108.0496         -DE/DX =    0.0                 !
 ! A12   A(2,6,3)              122.9833         -DE/DX =    0.0                 !
 ! A13   A(2,6,5)              113.9291         -DE/DX =    0.0                 !
 ! A14   A(3,6,5)              123.0875         -DE/DX =    0.0                 !
 ! D1    D(10,1,4,5)          -109.1751         -DE/DX =    0.0                 !
 ! D2    D(10,1,4,9)           134.8877         -DE/DX =    0.0                 !
 ! D3    D(11,2,6,3)            -0.0118         -DE/DX =    0.0                 !
 ! D4    D(11,2,6,5)          -179.9133         -DE/DX =    0.0                 !
 ! D5    D(1,4,5,6)             74.1884         -DE/DX =    0.0                 !
 ! D6    D(1,4,5,7)            -47.2519         -DE/DX =    0.0                 !
 ! D7    D(1,4,5,8)           -167.3086         -DE/DX =    0.0                 !
 ! D8    D(9,4,5,6)           -173.1425         -DE/DX =    0.0                 !
 ! D9    D(9,4,5,7)             65.4173         -DE/DX =    0.0                 !
 ! D10   D(9,4,5,8)            -54.6395         -DE/DX =    0.0                 !
 ! D11   D(4,5,6,2)              1.303          -DE/DX =    0.0                 !
 ! D12   D(4,5,6,3)           -178.5983         -DE/DX =    0.0                 !
 ! D13   D(7,5,6,2)            126.5643         -DE/DX =    0.0                 !
 ! D14   D(7,5,6,3)            -53.3371         -DE/DX =    0.0                 !
 ! D15   D(8,5,6,2)           -118.1957         -DE/DX =    0.0                 !
 ! D16   D(8,5,6,3)             61.903          -DE/DX =    0.0                 !
 --------------------------------------------------------------------------------
 GradGradGradGradGradGradGradGradGradGradGradGradGradGradGradGradGradGrad

 Leave Link  103 at Tue Apr  9 00:13:35 2019, MaxMem=   671088640 cpu:               0.4 elap:               0.0
 (Enter /shared/centos7/gaussian/g16/l9999.exe)

 ----------------------------------------------------------------------

 Electric dipole moment (input orientation):
 (Debye = 10**-18 statcoulomb cm , SI units = C m)
                  (au)            (Debye)         (10**-30 SI)
   Tot        0.563865D+00      0.143320D+01      0.478064D+01
   x          0.191863D+00      0.487668D+00      0.162669D+01
   y         -0.320626D+00     -0.814949D+00     -0.271838D+01
   z          0.422293D+00      0.107336D+01      0.358035D+01

 Dipole polarizability, Alpha (input orientation).
 (esu units = cm**3 , SI units = C**2 m**2 J**-1)
 Alpha(0;0):
               (au)            (10**-24 esu)      (10**-40 SI)
   iso        0.449124D+02      0.665532D+01      0.740505D+01
   aniso      0.135411D+02      0.200658D+01      0.223262D+01
   xx         0.392456D+02      0.581560D+01      0.647073D+01
   yx        -0.818624D+00     -0.121307D+00     -0.134973D+00
   yy         0.495835D+02      0.734751D+01      0.817521D+01
   zx        -0.483006D+01     -0.715741D+00     -0.796369D+00
   zy        -0.310795D+01     -0.460551D+00     -0.512432D+00
   zz         0.459080D+02      0.680286D+01      0.756920D+01

 ----------------------------------------------------------------------

 Dipole orientation:
     8        -17.78614232        -14.28666904          4.02451668
     8        -16.17977989         -9.43297726          2.18506868
     8        -14.00825181        -10.27091690         -1.33392346
     7        -15.17607955        -13.79258490          4.36117551
     6        -14.05763710        -13.42072554          1.89595948
     6        -14.71928126        -10.90031062          0.71978987
     1        -14.60203626        -14.86770426          0.52176372
     1        -12.00582509        -13.46665608          2.09304281
     1        -14.48819789        -15.40849551          5.12380583
     1        -18.58104351        -12.77697662          4.64720881
     1        -16.48343319         -7.89052060          1.25634001

 Electric dipole moment (dipole orientation):
 (Debye = 10**-18 statcoulomb cm , SI units = C m)
                  (au)            (Debye)         (10**-30 SI)
   Tot        0.563865D+00      0.143320D+01      0.478064D+01
   x          0.000000D+00      0.000000D+00      0.000000D+00
   y          0.000000D+00      0.000000D+00      0.000000D+00
   z          0.563865D+00      0.143320D+01      0.478064D+01

 Dipole polarizability, Alpha (dipole orientation).
 (esu units = cm**3 , SI units = C**2 m**2 J**-1)
 Alpha(0;0):
               (au)            (10**-24 esu)      (10**-40 SI)
   iso        0.449124D+02      0.665532D+01      0.740505D+01
   aniso      0.135411D+02      0.200658D+01      0.223262D+01
   xx         0.432778D+02      0.641310D+01      0.713554D+01
   yx        -0.270626D+01     -0.401027D+00     -0.446202D+00
   yy         0.446322D+02      0.661381D+01      0.735885D+01
   zx        -0.562173D+01     -0.833054D+00     -0.926898D+00
   zy        -0.435708D+01     -0.645652D+00     -0.718385D+00
   zz         0.468271D+02      0.693907D+01      0.772075D+01

 ----------------------------------------------------------------------

 Test job not archived.
 1\1\GINC-C0316\Freq\RM062X\6-311+G(2df,2p)\C2H5N1O3\UNDERKOFFLER.C\09-
 Apr-2019\0\\#P Geom=AllCheck Guess=TCheck SCRF=Check Test GenChk RM062
 X/6-311+G(2df,2p) Freq\\Gaussian input prepared by ASE\\0,1\O,-8.90065
 72412,-8.4147271409,0.4986731549\O,-8.1539460241,-5.6735725171,0.94091
 48687\O,-7.7635821026,-4.8490178493,-1.0968555933\N,-7.5213632868,-8.1
 501076935,0.3107974097\C,-7.3908086838,-7.1824438653,-0.7556970329\C,-
 7.7819875513,-5.7800953956,-0.344297007\H,-7.9919688751,-7.4249653906,
 -1.6376838121\H,-6.3441174748,-7.1414405391,-1.0608609171\H,-7.1387295
 195,-9.0363310303,0.0029483137\H,-9.0929506547,-7.9974315131,1.3428540
 428\H,-8.380923089,-4.7465603563,1.0916500717\\Version=EM64L-G16RevA.0
 3\State=1-A\HF=-359.5918086\RMSD=8.869e-09\RMSF=1.168e-06\ZeroPoint=0.
 0855219\Thermal=0.0918658\Dipole=0.1918634,-0.3206257,0.4222926\Dipole
 Deriv=-0.5832651,-0.0977681,0.202046,-0.0671773,-0.4602242,0.1672047,0
 .0588026,0.1310813,-0.3119849,-0.4221629,0.0143642,0.2976285,0.0579938
 ,-0.4703717,-0.2263227,0.2442912,-0.0366335,-1.259001,-0.4038891,0.078
 588,0.0464438,-0.0236741,-1.0820316,0.4603913,0.0937876,0.2304332,-0.8
 69046,0.0872085,0.1126646,-0.2127138,0.0773567,-0.1991097,0.0349698,-0
 .214971,0.0581198,-0.3092248,0.1430195,0.1064027,0.0495864,0.0601401,0
 .2015812,-0.1827214,0.1042419,-0.1971807,0.2464257,0.3982148,-0.152676
 7,-0.3491282,-0.0944381,1.3696092,-0.2520393,-0.3238905,-0.2190452,1.6
 870094,0.0480925,0.0042859,-0.1024568,-0.0217383,-0.0243622,0.0095119,
 -0.0346103,0.0482344,-0.0539396,-0.0189751,-0.0026352,0.0409922,-0.005
 8186,0.0146267,0.0231367,0.015497,0.0516541,0.0743752,0.1482763,-0.057
 6572,0.0761163,0.0162164,0.0849102,-0.0163129,0.102911,-0.0724353,0.19
 56354,0.2654004,-0.0046149,-0.0426745,-0.0012556,0.3195917,-0.0781989,
 -0.0388143,-0.0713219,0.2716855,0.3380801,-0.0009534,-0.0058399,0.0023
 95,0.2457804,0.0603807,-0.007245,0.077094,0.3280651\Polar=39.2456334,-
 0.8186235,49.5834876,-4.8300591,-3.1079494,45.9079535\Quadrupole=0.736
 904,-0.6966786,-0.0402254,-3.1352813,-2.4789549,5.0583294\PG=C01 [X(C2
 H5N1O3)]\NImag=0\\0.35764050,0.01179636,0.17651061,-0.13986543,0.20900
 396,0.49630684,0.00195616,-0.00269482,-0.00041911,0.09732828,-0.000345
 92,-0.00495703,0.00029930,-0.12650092,0.60591477,-0.00296289,0.0001638
 8,0.00188921,-0.11548134,0.05618484,0.42238690,0.00135760,0.00002435,-
 0.00015989,0.02608458,-0.01343530,0.02392186,0.04049688,-0.00201180,-0
 .00042491,0.00029831,-0.01104906,0.02140837,0.04922217,-0.00005375,0.5
 7602528,-0.00143257,0.00137882,0.00063331,0.02312240,0.05473963,-0.093
 16870,-0.02763078,-0.39858594,0.42927781,-0.25229078,-0.02092065,0.025
 55205,-0.00195341,0.00068306,0.00308853,0.00023928,0.00737540,0.001698
 54,0.43910980,-0.03166096,-0.07202881,-0.00328998,0.00106138,-0.002376
 58,-0.00086722,0.00272311,-0.01055416,-0.00044070,-0.10983647,0.620144
 58,0.03707793,-0.00372532,-0.06656538,0.00063494,-0.00291835,0.0015652
 3,0.00010619,-0.00409318,0.00099665,-0.11331341,-0.01053430,0.32738355
 ,-0.02691303,-0.03326619,0.04483543,0.00770824,0.01291700,0.00903454,0
 .01873939,0.00284124,0.00045315,-0.08149037,0.02361147,-0.01197593,0.5
 9785177,-0.00711982,-0.00294755,0.00776984,0.00429144,-0.00375154,-0.0
 0296498,0.00811193,-0.03493671,0.00623947,0.00127305,-0.15606604,0.058
 54388,0.00625824,0.50963073,0.00424664,0.00103057,-0.00612073,0.016246
 11,-0.03328987,-0.01887654,-0.00274209,0.02964827,0.01011692,0.0205297
 4,0.10376294,-0.16725952,0.00198144,-0.00986140,0.54666102,-0.00343294
 ,0.00107868,-0.00125458,-0.08482762,0.02482541,0.05718236,-0.08413113,
 0.00679328,0.00818690,0.00227404,-0.00343287,0.00096908,-0.09878259,0.
 03155319,0.00181532,0.27132801,0.00313317,0.00247922,-0.00287416,0.018
 52100,-0.13545024,-0.01866181,0.00443432,-0.54577318,0.32954472,0.0041
 8855,-0.02752552,0.00555743,0.02257401,-0.17571526,-0.03286487,-0.0738
 3132,0.89173277,0.00589058,-0.00395179,-0.00113511,0.05938033,-0.03674
 052,-0.26116127,0.01121239,0.31240394,-0.35463875,-0.01624864,0.030612
 39,0.00622382,0.01121601,-0.05054541,-0.08957858,-0.09064418,-0.217709
 69,0.73639152,0.00390488,0.00137856,0.00099044,-0.00156725,0.00128855,
 0.00115497,-0.00041264,-0.00059383,0.00018447,0.00239992,0.00155682,0.
 00255169,-0.12663036,-0.03657821,-0.11407925,0.00619666,0.00446704,0.0
 0776433,0.13296862,0.00199903,0.00128458,-0.00386695,0.00240971,-0.003
 65956,-0.00142286,0.00332296,0.00019366,0.00219005,0.01403778,0.001318
 91,0.03023530,-0.03850932,-0.06692643,-0.05253348,-0.02081236,-0.00745
 270,-0.02513840,0.03589996,0.07384483,-0.00019313,-0.00189709,0.003686
 72,0.00079849,-0.00157717,0.00043523,0.00132421,0.00167801,0.00155566,
 -0.01287814,0.00703166,-0.02913736,-0.11305177,-0.05230643,-0.20452947
 ,-0.00724883,-0.00601125,-0.01191542,0.12573503,0.05130696,0.23054200,
 0.00190238,-0.00059002,0.00135834,-0.00007486,0.00085051,-0.00053364,0
 .00196402,0.00002419,0.00000051,-0.00324946,-0.00042233,-0.00010725,-0
 .29537541,-0.00764842,0.07167161,-0.00874432,-0.00020750,0.00214746,-0
 .01554560,0.00032872,0.00471843,0.31904156,-0.00316704,-0.00266038,0.0
 0615539,-0.00031865,-0.00366287,-0.00208600,-0.00372334,-0.00087083,-0
 .00017813,-0.02335110,0.00095687,0.00477024,-0.00027008,-0.04938397,0.
 00396171,0.03255188,0.00297733,-0.00685426,-0.00830216,-0.00002852,0.0
 0225604,0.00849553,0.05407726,0.00194253,0.00354016,-0.00405998,-0.000
 49087,-0.00182526,-0.00050917,-0.00160638,0.00195290,-0.00024302,0.024
 03912,-0.00163274,-0.00706988,0.06665648,0.00624525,-0.06437332,0.0128
 9665,-0.00225606,-0.00482712,-0.02410047,0.00004485,0.00855247,-0.0797
 6258,-0.00626822,0.07139893,-0.03539680,0.03104188,0.02310747,0.000333
 07,-0.00089108,-0.00055535,0.00002912,-0.00158288,0.00037952,-0.080441
 81,0.09663700,0.04274127,0.00342277,-0.00048837,-0.00458325,0.00092493
 ,-0.00062226,0.00099562,-0.00029062,0.00011639,0.00073185,0.00005955,-
 0.00031348,0.00013574,0.11844806,-0.01347575,0.01273028,0.00338673,0.0
 0015895,0.00030116,-0.00021199,0.00058831,-0.00234783,0.00009989,0.134
 01011,-0.35562438,-0.08935978,0.00661106,-0.02306127,-0.01270412,-0.00
 179321,0.00034152,0.00454054,0.00068586,0.00160575,-0.00041746,-0.0005
 3626,0.00013155,0.00001599,-0.12443910,0.36522300,0.00079218,-0.002038
 97,-0.00588217,0.00003066,-0.00083809,0.00034497,-0.00030428,0.0021192
 4,0.00061704,0.07075528,-0.12611480,-0.06790507,-0.01333174,0.03468985
 ,0.00112810,0.00090423,0.00084200,-0.00568214,-0.00055919,0.00017187,0
 .00077354,0.00026790,-0.00113065,0.00145672,-0.06163306,0.09336850,0.0
 7383601,-0.04854393,0.01299544,0.04589846,-0.00078571,0.00029028,-0.00
 026241,-0.00007856,0.00052206,-0.00062961,-0.02430216,0.01983412,0.041
 19981,-0.00380213,-0.00022103,0.00200454,0.00038084,-0.00048267,0.0012
 4638,-0.00043116,0.00013756,-0.00029148,0.00007219,-0.00083001,0.00055
 476,-0.00704797,-0.00175748,0.00302795,0.08408407,0.04105284,-0.110182
 24,-0.21679107,0.00190071,-0.00016776,-0.00317374,0.00059767,0.0003928
 3,-0.00245318,-0.00734562,0.00099620,0.01152837,-0.00330515,0.00125002
 ,0.00237628,-0.00266632,0.00082093,0.00669060,0.00012465,-0.00024320,0
 .00004151,-0.00035763,-0.00114303,0.00050767,0.00045179,0.00058475,-0.
 00116489,-0.03064780,0.10804595,0.09484005,-0.20395116,-0.41883080,-0.
 00054434,-0.00099376,-0.00123219,0.00013346,-0.00063940,-0.00004459,-0
 .00268825,-0.00025830,0.00135378,0.00155354,0.00031793,-0.00209707,0.0
 0068705,0.00158191,-0.00006944,0.00012280,-0.00037233,0.00042364,0.000
 03344,0.00026674,0.00020714,-0.00154059,0.00105078,0.00102034,-0.09231
 067,0.20306530,0.41896966,-0.00018404,-0.00084359,-0.00004318,-0.04420
 149,0.10031839,0.02541338,-0.00428852,-0.00226485,-0.00433253,-0.00029
 506,-0.00007129,0.00011567,0.00527171,0.00056801,0.00290920,-0.0011858
 8,0.01782567,0.00703972,-0.00059245,0.00106957,0.00035533,-0.00005004,
 -0.00077156,-0.00026498,-0.00004031,-0.00005249,0.00005007,0.00045453,
 0.00019488,-0.00028650,0.04511156,-0.00020011,0.00019622,-0.00009138,0
 .11222025,-0.47359873,-0.07618228,-0.00259025,-0.00311254,0.00746537,-
 0.00011411,0.00075894,-0.00000429,0.00053772,0.00190801,0.00047397,0.0
 0573366,-0.00643486,-0.01330741,0.00007277,0.00006268,-0.00010479,0.00
 006320,-0.00039341,-0.00032455,0.00009011,0.00011547,0.00009596,0.0001
 5952,-0.00035445,-0.00006772,-0.11597275,0.48085266,-0.00033590,0.0004
 4695,0.00007809,0.01672273,-0.03304076,-0.05167367,-0.00425470,0.00599
 567,0.00489766,-0.00053482,0.00173105,0.00041419,0.00262885,0.00187200
 ,-0.00507081,0.01650600,-0.05714823,-0.01360752,0.00023519,-0.00061500
 ,-0.00038702,0.00020577,-0.00089286,-0.00053277,0.00022079,0.00023093,
 0.00029268,-0.00043773,-0.00062686,0.00029954,-0.03095618,0.08204711,0
 .06528965\\-0.00000053,-0.00000006,-0.00000115,-0.00000187,0.00000030,
 -0.00000114,0.00000093,-0.00000021,-0.00000063,-0.00000038,0.00000015,
 0.00000100,0.00000117,0.00000005,0.00000071,0.00000006,-0.00000029,0.0
 0000023,0.00000263,-0.00000054,-0.00000004,0.00000166,0.00000015,0.000
 00243,0.00000061,0.00000023,0.00000178,-0.00000181,0.00000004,-0.00000
 165,-0.00000247,0.00000019,-0.00000154\\\@


 NOTHING WILL BE ATTEMPTED IF ALL POSSIBLE OBJECTIONS
 MUST FIRST BE OVERCOME.

                               -- THE GOLDEN PRINCIPLE,
                    PAUL DICKSON'S "THE OFFICIAL RULES"
 Job cpu time:       0 days  0 hours 51 minutes 17.2 seconds.
 Elapsed time:       0 days  0 hours  2 minutes 35.1 seconds.
 File lengths (MBytes):  RWF=   1328 Int=      0 D2E=      0 Chk=     32 Scr=     32
 Normal termination of Gaussian 16 at Tue Apr  9 00:13:35 2019.
