 Entering Gaussian System, Link 0=g16
 Input=NPWGWQRXHVJJRD-UHFFFAOYSA-N_GeoFreq_c3_a1.com
 Output=NPWGWQRXHVJJRD-UHFFFAOYSA-N_GeoFreq_c3_a1.log
 Initial command:
 /shared/centos7/gaussian/g16/l1.exe "/scratch/underkoffler.c/gaussian_scratch/Gau-10837.inp" -scrdir="/scratch/underkoffler.c/gaussian_scratch/"
 Entering Link 1 = /shared/centos7/gaussian/g16/l1.exe PID=     10838.
  
 Copyright (c) 1988,1990,1992,1993,1995,1998,2003,2009,2016,
            Gaussian, Inc.  All Rights Reserved.
  
 This is part of the Gaussian(R) 16 program.  It is based on
 the Gaussian(R) 09 system (copyright 2009, Gaussian, Inc.),
 the Gaussian(R) 03 system (copyright 2003, Gaussian, Inc.),
 the Gaussian(R) 98 system (copyright 1998, Gaussian, Inc.),
 the Gaussian(R) 94 system (copyright 1995, Gaussian, Inc.),
 the Gaussian 92(TM) system (copyright 1992, Gaussian, Inc.),
 the Gaussian 90(TM) system (copyright 1990, Gaussian, Inc.),
 the Gaussian 88(TM) system (copyright 1988, Gaussian, Inc.),
 the Gaussian 86(TM) system (copyright 1986, Carnegie Mellon
 University), and the Gaussian 82(TM) system (copyright 1983,
 Carnegie Mellon University). Gaussian is a federally registered
 trademark of Gaussian, Inc.
  
 This software contains proprietary and confidential information,
 including trade secrets, belonging to Gaussian, Inc.
  
 This software is provided under written license and may be
 used, copied, transmitted, or stored only in accord with that
 written license.
  
 The following legend is applicable only to US Government
 contracts under FAR:
  
                    RESTRICTED RIGHTS LEGEND
  
 Use, reproduction and disclosure by the US Government is
 subject to restrictions as set forth in subparagraphs (a)
 and (c) of the Commercial Computer Software - Restricted
 Rights clause in FAR 52.227-19.
  
 Gaussian, Inc.
 340 Quinnipiac St., Bldg. 40, Wallingford CT 06492
  
  
 ---------------------------------------------------------------
 Warning -- This program may not be used in any manner that
 competes with the business of Gaussian, Inc. or will provide
 assistance to any competitor of Gaussian, Inc.  The licensee
 of this program is prohibited from giving any competitor of
 Gaussian, Inc. access to this program.  By using this program,
 the user acknowledges that Gaussian, Inc. is engaged in the
 business of creating and licensing software in the field of
 computational chemistry and represents and warrants to the
 licensee that it is not a competitor of Gaussian, Inc. and that
 it will not use this program in any manner prohibited above.
 ---------------------------------------------------------------
  

 Cite this work as:
 Gaussian 16, Revision A.03,
 M. J. Frisch, G. W. Trucks, H. B. Schlegel, G. E. Scuseria, 
 M. A. Robb, J. R. Cheeseman, G. Scalmani, V. Barone, 
 G. A. Petersson, H. Nakatsuji, X. Li, M. Caricato, A. V. Marenich, 
 J. Bloino, B. G. Janesko, R. Gomperts, B. Mennucci, H. P. Hratchian, 
 J. V. Ortiz, A. F. Izmaylov, J. L. Sonnenberg, D. Williams-Young, 
 F. Ding, F. Lipparini, F. Egidi, J. Goings, B. Peng, A. Petrone, 
 T. Henderson, D. Ranasinghe, V. G. Zakrzewski, J. Gao, N. Rega, 
 G. Zheng, W. Liang, M. Hada, M. Ehara, K. Toyota, R. Fukuda, 
 J. Hasegawa, M. Ishida, T. Nakajima, Y. Honda, O. Kitao, H. Nakai, 
 T. Vreven, K. Throssell, J. A. Montgomery, Jr., J. E. Peralta, 
 F. Ogliaro, M. J. Bearpark, J. J. Heyd, E. N. Brothers, K. N. Kudin, 
 V. N. Staroverov, T. A. Keith, R. Kobayashi, J. Normand, 
 K. Raghavachari, A. P. Rendell, J. C. Burant, S. S. Iyengar, 
 J. Tomasi, M. Cossi, J. M. Millam, M. Klene, C. Adamo, R. Cammi, 
 J. W. Ochterski, R. L. Martin, K. Morokuma, O. Farkas, 
 J. B. Foresman, and D. J. Fox, Gaussian, Inc., Wallingford CT, 2016.
 
 ******************************************
 Gaussian 16:  EM64L-G16RevA.03 25-Dec-2016
                 9-Apr-2019 
 ******************************************
 %nprocshared=20
 Will use up to   20 processors via shared memory.
 %mem=5GB
 ----------------------------------------------------------------------
 #p m062x/6-311+g(2df,2p) opt=(calcfc,verytight,gdiis,maxcycles=900) fr
 eq iop(7/33=1,2/16=3)
 ----------------------------------------------------------------------

 Warning!  Use of Opt=GDIIS is deprecated since it is seldom a good choice.

 1/6=900,7=1,10=4,18=20,19=11,26=3,38=1/1,3;
 2/9=110,12=2,16=3,17=6,18=5,40=1/2;
 3/5=4,6=6,7=214,11=2,25=1,30=1,71=2,74=-55,140=1/1,2,3;
 4//1;
 5/5=2,38=5/2;
 8/6=4,10=90,11=11/1;
 11/6=1,8=1,9=11,15=111,16=1/1,2,10;
 10/6=1,13=1/2;
 6/7=2,8=2,9=2,10=2,28=1/1;
 7/10=1,18=20,25=1,33=1/1,2,3,16;
 1/6=900,7=1,10=4,18=20,19=11,26=3/3(2);
 2/9=110,16=3/2;
 99//99;
 2/9=110,16=3/2;
 3/5=4,6=6,7=214,11=2,25=1,30=1,71=1,74=-55/1,2,3;
 4/5=5,16=3,69=1/1;
 5/5=2,38=5/2;
 7/33=1/1,2,3,16;
 1/6=900,7=1,18=20,19=11,26=3/3(-5);
 2/9=110,16=3/2;
 6/7=2,8=2,9=2,10=2,19=2,28=1/1;
 99/9=1/99;
 Leave Link    1 at Tue Apr  9 00:11:47 2019, MaxMem=   671088640 cpu:              25.9 elap:               1.4
 (Enter /shared/centos7/gaussian/g16/l101.exe)
 ------------------------------
 Gaussian input prepared by ASE
 ------------------------------
 Symbolic Z-matrix:
 Charge =  0 Multiplicity = 1
 O                    -6.2646   -6.6933    5.40052 
 O                    -9.52156  -9.23843   4.99031 
 O                    -7.38829  -10.05965   4.76184 
 N                    -6.40367  -7.43888   4.26756 
 C                    -7.81863  -7.75475   4.1105 
 C                    -8.19272  -9.08796   4.64137 
 H                    -8.07475  -7.72546   3.03276 
 H                    -8.43487  -6.95384   4.59173 
 H                    -5.98775  -8.36607   4.53269 
 H                    -5.78757  -5.8829    5.11049 
 H                    -9.62326  -10.2014   5.3156 
 
 ITRead=  0  0  0  0  0  0  0  0  0  0  0
 MicOpt= -1 -1 -1 -1 -1 -1 -1 -1 -1 -1 -1
 NAtoms=     11 NQM=       11 NQMF=       0 NMMI=      0 NMMIF=      0
                NMic=       0 NMicF=      0.
                    Isotopes and Nuclear Properties:
 (Nuclear quadrupole moments (NQMom) in fm**2, nuclear magnetic moments (NMagM)
  in nuclear magnetons)

  Atom         1           2           3           4           5           6           7           8           9          10
 IAtWgt=          16          16          16          14          12          12           1           1           1           1
 AtmWgt=  15.9949146  15.9949146  15.9949146  14.0030740  12.0000000  12.0000000   1.0078250   1.0078250   1.0078250   1.0078250
 NucSpn=           0           0           0           2           0           0           1           1           1           1
 AtZEff=  -0.0000000  -0.0000000  -0.0000000  -0.0000000  -0.0000000  -0.0000000  -0.0000000  -0.0000000  -0.0000000  -0.0000000
 NQMom=    0.0000000   0.0000000   0.0000000   2.0440000   0.0000000   0.0000000   0.0000000   0.0000000   0.0000000   0.0000000
 NMagM=    0.0000000   0.0000000   0.0000000   0.4037610   0.0000000   0.0000000   2.7928460   2.7928460   2.7928460   2.7928460
 AtZNuc=   8.0000000   8.0000000   8.0000000   7.0000000   6.0000000   6.0000000   1.0000000   1.0000000   1.0000000   1.0000000

  Atom        11
 IAtWgt=           1
 AtmWgt=   1.0078250
 NucSpn=           1
 AtZEff=  -0.0000000
 NQMom=    0.0000000
 NMagM=    2.7928460
 AtZNuc=   1.0000000
 Leave Link  101 at Tue Apr  9 00:11:47 2019, MaxMem=   671088640 cpu:               7.0 elap:               0.4
 (Enter /shared/centos7/gaussian/g16/l103.exe)

 GradGradGradGradGradGradGradGradGradGradGradGradGradGradGradGradGradGrad
 Berny optimization.
 Initialization pass.
                           ----------------------------
                           !    Initial Parameters    !
                           ! (Angstroms and Degrees)  !
 --------------------------                            --------------------------
 ! Name  Definition              Value          Derivative Info.                !
 --------------------------------------------------------------------------------
 ! R1    R(1,4)                  1.3634         calculate D2E/DX2 analytically  !
 ! R2    R(1,10)                 0.9841         calculate D2E/DX2 analytically  !
 ! R3    R(2,6)                  1.3821         calculate D2E/DX2 analytically  !
 ! R4    R(2,11)                 1.0215         calculate D2E/DX2 analytically  !
 ! R5    R(3,6)                  1.2672         calculate D2E/DX2 analytically  !
 ! R6    R(4,5)                  1.4583         calculate D2E/DX2 analytically  !
 ! R7    R(4,9)                  1.0502         calculate D2E/DX2 analytically  !
 ! R8    R(5,6)                  1.483          calculate D2E/DX2 analytically  !
 ! R9    R(5,7)                  1.1081         calculate D2E/DX2 analytically  !
 ! R10   R(5,8)                  1.1193         calculate D2E/DX2 analytically  !
 ! A1    A(4,1,10)             104.7657         calculate D2E/DX2 analytically  !
 ! A2    A(6,2,11)             106.1854         calculate D2E/DX2 analytically  !
 ! A3    A(1,4,5)              107.8741         calculate D2E/DX2 analytically  !
 ! A4    A(1,4,9)              103.451          calculate D2E/DX2 analytically  !
 ! A5    A(5,4,9)              102.7222         calculate D2E/DX2 analytically  !
 ! A6    A(4,5,6)              113.6371         calculate D2E/DX2 analytically  !
 ! A7    A(4,5,7)              108.8615         calculate D2E/DX2 analytically  !
 ! A8    A(4,5,8)              109.4456         calculate D2E/DX2 analytically  !
 ! A9    A(6,5,7)              108.2771         calculate D2E/DX2 analytically  !
 ! A10   A(6,5,8)              110.5181         calculate D2E/DX2 analytically  !
 ! A11   A(7,5,8)              105.7825         calculate D2E/DX2 analytically  !
 ! A12   A(2,6,3)              120.1896         calculate D2E/DX2 analytically  !
 ! A13   A(2,6,5)              115.5174         calculate D2E/DX2 analytically  !
 ! A14   A(3,6,5)              124.2814         calculate D2E/DX2 analytically  !
 ! D1    D(10,1,4,5)          -125.8319         calculate D2E/DX2 analytically  !
 ! D2    D(10,1,4,9)           125.8042         calculate D2E/DX2 analytically  !
 ! D3    D(11,2,6,3)             0.0884         calculate D2E/DX2 analytically  !
 ! D4    D(11,2,6,5)           178.901          calculate D2E/DX2 analytically  !
 ! D5    D(1,4,5,6)            -96.3762         calculate D2E/DX2 analytically  !
 ! D6    D(1,4,5,7)            142.8749         calculate D2E/DX2 analytically  !
 ! D7    D(1,4,5,8)             27.6978         calculate D2E/DX2 analytically  !
 ! D8    D(9,4,5,6)             12.4906         calculate D2E/DX2 analytically  !
 ! D9    D(9,4,5,7)           -108.2583         calculate D2E/DX2 analytically  !
 ! D10   D(9,4,5,8)            136.5646         calculate D2E/DX2 analytically  !
 ! D11   D(4,5,6,2)            156.224          calculate D2E/DX2 analytically  !
 ! D12   D(4,5,6,3)            -25.0181         calculate D2E/DX2 analytically  !
 ! D13   D(7,5,6,2)            -82.6992         calculate D2E/DX2 analytically  !
 ! D14   D(7,5,6,3)             96.0586         calculate D2E/DX2 analytically  !
 ! D15   D(8,5,6,2)             32.733          calculate D2E/DX2 analytically  !
 ! D16   D(8,5,6,3)           -148.5092         calculate D2E/DX2 analytically  !
 --------------------------------------------------------------------------------
 Trust Radius=3.00D-01 FncErr=1.00D-07 GrdErr=1.00D-06 EigMax=2.50D+02 EigMin=1.00D-04
 Number of steps in this run=    100 maximum allowed number of steps=    100.
 GradGradGradGradGradGradGradGradGradGradGradGradGradGradGradGradGradGrad

 Leave Link  103 at Tue Apr  9 00:11:47 2019, MaxMem=   671088640 cpu:               0.3 elap:               0.0
 (Enter /shared/centos7/gaussian/g16/l202.exe)
                          Input orientation:                          
 ---------------------------------------------------------------------
 Center     Atomic      Atomic             Coordinates (Angstroms)
 Number     Number       Type             X           Y           Z
 ---------------------------------------------------------------------
      1          8           0       -6.264596   -6.693302    5.400525
      2          8           0       -9.521563   -9.238428    4.990305
      3          8           0       -7.388294  -10.059645    4.761843
      4          7           0       -6.403666   -7.438878    4.267561
      5          6           0       -7.818632   -7.754751    4.110501
      6          6           0       -8.192724   -9.087963    4.641365
      7          1           0       -8.074751   -7.725459    3.032763
      8          1           0       -8.434869   -6.953841    4.591732
      9          1           0       -5.987747   -8.366071    4.532690
     10          1           0       -5.787566   -5.882898    5.110485
     11          1           0       -9.623259  -10.201396    5.315601
 ---------------------------------------------------------------------
                    Distance matrix (angstroms):
                    1          2          3          4          5
     1  O    0.000000
     2  O    4.153767   0.000000
     3  O    3.605950   2.297266   0.000000
     4  N    1.363389   3.671787   2.842926   0.000000
     5  C    2.281636   2.423907   2.433510   1.458277   0.000000
     6  C    3.166765   1.382105   1.267197   2.461694   1.482974
     7  H    3.154093   2.866062   2.984856   2.097470   1.108140
     8  H    2.330689   2.561075   3.281810   2.113322   1.119280
     9  H    1.904715   3.668553   2.209579   1.050223   1.975879
    10  H    0.984091   5.021629   4.486546   1.873813   2.937522
    11  H    4.857422   1.021502   2.306905   4.369859   3.270323
                    6          7          8          9         10
     6  C    0.000000
     7  H    2.111382   0.000000
     8  H    2.148389   1.776362   0.000000
     9  H    2.322684   2.648726   2.826002   0.000000
    10  H    4.034513   3.597662   2.902453   2.557356   0.000000
    11  H    1.934104   3.706682   3.533111   4.147086   5.779623
                   11
    11  H    0.000000
 Stoichiometry    C2H5NO3
 Framework group  C1[X(C2H5NO3)]
 Deg. of freedom    27
 Full point group                 C1      NOp   1
 Largest Abelian subgroup         C1      NOp   1
 Largest concise Abelian subgroup C1      NOp   1
                         Standard orientation:                         
 ---------------------------------------------------------------------
 Center     Atomic      Atomic             Coordinates (Angstroms)
 Number     Number       Type             X           Y           Z
 ---------------------------------------------------------------------
      1          8           0        2.110069   -0.136241   -0.674781
      2          8           0       -1.971709   -0.808219   -0.298869
      3          8           0       -1.130710    1.314560   -0.045970
      4          7           0        1.459833    0.257124    0.457159
      5          6           0        0.267272   -0.570126    0.598681
      6          6           0       -0.962653    0.063446    0.064748
      7          1           0        0.107655   -0.787662    1.673472
      8          1           0        0.441580   -1.561872    0.109965
      9          1           0        1.062097    1.193775    0.197430
     10          1           0        3.027158   -0.337589   -0.380090
     11          1           0       -2.746240   -0.227246   -0.624506
 ---------------------------------------------------------------------
 Rotational constants (GHZ):           7.5053927           2.1671334           1.9306582
 Leave Link  202 at Tue Apr  9 00:11:47 2019, MaxMem=   671088640 cpu:               0.3 elap:               0.0
 (Enter /shared/centos7/gaussian/g16/l301.exe)
 Standard basis: 6-311+G(2df,2p) (5D, 7F)
 Ernie: Thresh=  0.10000D-02 Tol=  0.10000D-05 Strict=F.
 There are   279 symmetry adapted cartesian basis functions of A   symmetry.
 There are   249 symmetry adapted basis functions of A   symmetry.
   249 basis functions,   367 primitive gaussians,   279 cartesian basis functions
    24 alpha electrons       24 beta electrons
       nuclear repulsion energy       243.0967240877 Hartrees.
 IExCor= 4336 DFT=T Ex+Corr=M062X ExCW=0 ScaHFX=  0.540000
 ScaDFX=  1.000000  1.000000  1.000000  1.000000 ScalE2=  1.000000  1.000000
 IRadAn=      5 IRanWt=     -1 IRanGd=            0 ICorTp=0 IEmpDi=  4
 NAtoms=   11 NActive=   11 NUniq=   11 SFac= 1.00D+00 NAtFMM=   60 NAOKFM=F Big=F
 Integral buffers will be    131072 words long.
 Raffenetti 2 integral format.
 Two-electron integral symmetry is turned on.
 Leave Link  301 at Tue Apr  9 00:11:47 2019, MaxMem=   671088640 cpu:               1.3 elap:               0.1
 (Enter /shared/centos7/gaussian/g16/l302.exe)
 NPDir=0 NMtPBC=     1 NCelOv=     1 NCel=       1 NClECP=     1 NCelD=      1
         NCelK=      1 NCelE2=     1 NClLst=     1 CellRange=     0.0.
 One-electron integrals computed using PRISM.
 One-electron integral symmetry used in STVInt
 NBasis=   249 RedAO= T EigKep=  4.67D-05  NBF=   249
 NBsUse=   249 1.00D-06 EigRej= -1.00D+00 NBFU=   249
 Precomputing XC quadrature grid using
 IXCGrd= 4 IRadAn=           5 IRanWt=          -1 IRanGd=           0 AccXCQ= 0.00D+00.
 Generated NRdTot=       0 NPtTot=           0 NUsed=           0 NTot=          32
 NSgBfM=   279   279   279   279   279 MxSgAt=    11 MxSgA2=    11.
 Leave Link  302 at Tue Apr  9 00:11:48 2019, MaxMem=   671088640 cpu:               7.1 elap:               0.4
 (Enter /shared/centos7/gaussian/g16/l303.exe)
 DipDrv:  MaxL=1.
 Leave Link  303 at Tue Apr  9 00:11:48 2019, MaxMem=   671088640 cpu:               0.7 elap:               0.1
 (Enter /shared/centos7/gaussian/g16/l401.exe)
 ExpMin= 4.38D-02 ExpMax= 8.59D+03 ExpMxC= 1.30D+03 IAcc=3 IRadAn=         5 AccDes= 0.00D+00
 Harris functional with IExCor= 1009 and IRadAn=       5 diagonalized for initial guess.
 HarFok:  IExCor= 1009 AccDes= 0.00D+00 IRadAn=         5 IDoV= 1 UseB2=F ITyADJ=14
 ICtDFT=  3500011 ScaDFX=  1.000000  1.000000  1.000000  1.000000
 FoFCou: FMM=F IPFlag=           0 FMFlag=      100000 FMFlg1=           0
         NFxFlg=           0 DoJE=T BraDBF=F KetDBF=T FulRan=T
         wScrn=  0.000000 ICntrl=       500 IOpCl=  0 I1Cent=   200000004 NGrid=           0
         NMat0=    1 NMatS0=      1 NMatT0=    0 NMatD0=    1 NMtDS0=    0 NMtDT0=    0
 Petite list used in FoFCou.
 Harris En= -359.392598659243    
 JPrj=0 DoOrth=F DoCkMO=F.
 Leave Link  401 at Tue Apr  9 00:11:49 2019, MaxMem=   671088640 cpu:              23.0 elap:               1.2
 (Enter /shared/centos7/gaussian/g16/l502.exe)
 Keep R1 ints in memory in canonical form, NReq=506568544.
 FoFCou: FMM=F IPFlag=           0 FMFlag=           0 FMFlg1=           0
         NFxFlg=           0 DoJE=F BraDBF=F KetDBF=F FulRan=T
         wScrn=  0.000000 ICntrl=       600 IOpCl=  0 I1Cent=           0 NGrid=           0
         NMat0=    1 NMatS0=  31125 NMatT0=    0 NMatD0=    1 NMtDS0=    0 NMtDT0=    0
 Symmetry not used in FoFCou.
 Two-electron integral symmetry not used.
 Closed shell SCF:
 Using DIIS extrapolation, IDIIS=  1040.
 NGot=   671088640 LenX=   186526494 LenY=   186448212
 Requested convergence on RMS density matrix=1.00D-08 within 128 cycles.
 Requested convergence on MAX density matrix=1.00D-06.
 Requested convergence on             energy=1.00D-06.
 No special actions if energy rises.

 Cycle   1  Pass 1  IDiag  1:
 E= -359.426157522927    
 DIIS: error= 2.01D-02 at cycle   1 NSaved=   1.
 NSaved= 1 IEnMin= 1 EnMin= -359.426157522927     IErMin= 1 ErrMin= 2.01D-02
 ErrMax= 2.01D-02  0.00D+00 EMaxC= 1.00D-01 BMatC= 2.57D-01 BMatP= 2.57D-01
 IDIUse=3 WtCom= 7.99D-01 WtEn= 2.01D-01
 Coeff-Com:  0.100D+01
 Coeff-En:   0.100D+01
 Coeff:      0.100D+01
 Gap=     0.308 Goal=   None    Shift=    0.000
 GapD=    0.308 DampG=1.000 DampE=0.500 DampFc=0.5000 IDamp=-1.
 Damping current iteration by 5.00D-01
 RMSDP=2.79D-03 MaxDP=8.55D-02              OVMax= 1.94D-01

 Cycle   2  Pass 1  IDiag  1:
 E= -359.488124578002     Delta-E=       -0.061967055074 Rises=F Damp=T
 DIIS: error= 6.99D-03 at cycle   2 NSaved=   2.
 NSaved= 2 IEnMin= 2 EnMin= -359.488124578002     IErMin= 2 ErrMin= 6.99D-03
 ErrMax= 6.99D-03  0.00D+00 EMaxC= 1.00D-01 BMatC= 2.60D-02 BMatP= 2.57D-01
 IDIUse=3 WtCom= 9.30D-01 WtEn= 6.99D-02
 Coeff-Com:  0.271D-01 0.973D+00
 Coeff-En:   0.136D+00 0.864D+00
 Coeff:      0.347D-01 0.965D+00
 Gap=     0.395 Goal=   None    Shift=    0.000
 RMSDP=8.33D-04 MaxDP=4.04D-02 DE=-6.20D-02 OVMax= 1.27D-01

 Cycle   3  Pass 1  IDiag  1:
 E= -359.562045035209     Delta-E=       -0.073920457208 Rises=F Damp=F
 DIIS: error= 6.09D-03 at cycle   3 NSaved=   3.
 NSaved= 3 IEnMin= 3 EnMin= -359.562045035209     IErMin= 3 ErrMin= 6.09D-03
 ErrMax= 6.09D-03  0.00D+00 EMaxC= 1.00D-01 BMatC= 1.58D-02 BMatP= 2.60D-02
 IDIUse=3 WtCom= 9.39D-01 WtEn= 6.09D-02
 Coeff-Com: -0.807D-01 0.448D+00 0.633D+00
 Coeff-En:   0.000D+00 0.000D+00 0.100D+01
 Coeff:     -0.758D-01 0.421D+00 0.655D+00
 Gap=     0.336 Goal=   None    Shift=    0.000
 RMSDP=4.19D-04 MaxDP=1.49D-02 DE=-7.39D-02 OVMax= 5.41D-02

 Cycle   4  Pass 1  IDiag  1:
 E= -359.571136971540     Delta-E=       -0.009091936331 Rises=F Damp=F
 DIIS: error= 2.53D-03 at cycle   4 NSaved=   4.
 NSaved= 4 IEnMin= 4 EnMin= -359.571136971540     IErMin= 4 ErrMin= 2.53D-03
 ErrMax= 2.53D-03  0.00D+00 EMaxC= 1.00D-01 BMatC= 3.64D-03 BMatP= 1.58D-02
 IDIUse=3 WtCom= 9.75D-01 WtEn= 2.53D-02
 Coeff-Com: -0.424D-01 0.111D+00 0.372D+00 0.559D+00
 Coeff-En:   0.000D+00 0.000D+00 0.184D+00 0.816D+00
 Coeff:     -0.414D-01 0.108D+00 0.368D+00 0.566D+00
 Gap=     0.331 Goal=   None    Shift=    0.000
 RMSDP=1.54D-04 MaxDP=6.24D-03 DE=-9.09D-03 OVMax= 1.60D-02

 Cycle   5  Pass 1  IDiag  1:
 E= -359.573683783112     Delta-E=       -0.002546811571 Rises=F Damp=F
 DIIS: error= 4.14D-04 at cycle   5 NSaved=   5.
 NSaved= 5 IEnMin= 5 EnMin= -359.573683783112     IErMin= 5 ErrMin= 4.14D-04
 ErrMax= 4.14D-04  0.00D+00 EMaxC= 1.00D-01 BMatC= 1.11D-04 BMatP= 3.64D-03
 IDIUse=3 WtCom= 9.96D-01 WtEn= 4.14D-03
 Coeff-Com: -0.139D-01 0.269D-01 0.136D+00 0.259D+00 0.592D+00
 Coeff-En:   0.000D+00 0.000D+00 0.000D+00 0.000D+00 0.100D+01
 Coeff:     -0.138D-01 0.268D-01 0.136D+00 0.257D+00 0.594D+00
 Gap=     0.330 Goal=   None    Shift=    0.000
 RMSDP=2.99D-05 MaxDP=1.27D-03 DE=-2.55D-03 OVMax= 3.17D-03

 Cycle   6  Pass 1  IDiag  1:
 E= -359.573765561254     Delta-E=       -0.000081778142 Rises=F Damp=F
 DIIS: error= 1.08D-04 at cycle   6 NSaved=   6.
 NSaved= 6 IEnMin= 6 EnMin= -359.573765561254     IErMin= 6 ErrMin= 1.08D-04
 ErrMax= 1.08D-04  0.00D+00 EMaxC= 1.00D-01 BMatC= 7.57D-06 BMatP= 1.11D-04
 IDIUse=3 WtCom= 9.99D-01 WtEn= 1.08D-03
 Coeff-Com: -0.855D-03-0.114D-02 0.144D-01 0.372D-01 0.230D+00 0.720D+00
 Coeff-En:   0.000D+00 0.000D+00 0.000D+00 0.000D+00 0.000D+00 0.100D+01
 Coeff:     -0.854D-03-0.114D-02 0.144D-01 0.371D-01 0.230D+00 0.721D+00
 Gap=     0.331 Goal=   None    Shift=    0.000
 RMSDP=1.12D-05 MaxDP=3.80D-04 DE=-8.18D-05 OVMax= 7.32D-04

 Cycle   7  Pass 1  IDiag  1:
 E= -359.573772865737     Delta-E=       -0.000007304483 Rises=F Damp=F
 DIIS: error= 2.34D-05 at cycle   7 NSaved=   7.
 NSaved= 7 IEnMin= 7 EnMin= -359.573772865737     IErMin= 7 ErrMin= 2.34D-05
 ErrMax= 2.34D-05  0.00D+00 EMaxC= 1.00D-01 BMatC= 4.40D-07 BMatP= 7.57D-06
 IDIUse=1 WtCom= 1.00D+00 WtEn= 0.00D+00
 Coeff-Com:  0.171D-02-0.361D-02-0.126D-01-0.266D-01-0.327D-01 0.611D-01
 Coeff-Com:  0.101D+01
 Coeff:      0.171D-02-0.361D-02-0.126D-01-0.266D-01-0.327D-01 0.611D-01
 Coeff:      0.101D+01
 Gap=     0.331 Goal=   None    Shift=    0.000
 RMSDP=5.15D-06 MaxDP=1.27D-04 DE=-7.30D-06 OVMax= 5.00D-04

 Cycle   8  Pass 1  IDiag  1:
 E= -359.573773630622     Delta-E=       -0.000000764885 Rises=F Damp=F
 DIIS: error= 1.37D-05 at cycle   8 NSaved=   8.
 NSaved= 8 IEnMin= 8 EnMin= -359.573773630622     IErMin= 8 ErrMin= 1.37D-05
 ErrMax= 1.37D-05  0.00D+00 EMaxC= 1.00D-01 BMatC= 9.03D-08 BMatP= 4.40D-07
 IDIUse=1 WtCom= 1.00D+00 WtEn= 0.00D+00
 Coeff-Com:  0.700D-03-0.126D-02-0.510D-02-0.126D-01-0.286D-01-0.401D-01
 Coeff-Com:  0.370D+00 0.717D+00
 Coeff:      0.700D-03-0.126D-02-0.510D-02-0.126D-01-0.286D-01-0.401D-01
 Coeff:      0.370D+00 0.717D+00
 Gap=     0.331 Goal=   None    Shift=    0.000
 RMSDP=1.33D-06 MaxDP=4.14D-05 DE=-7.65D-07 OVMax= 1.20D-04

 Cycle   9  Pass 1  IDiag  1:
 E= -359.573773728627     Delta-E=       -0.000000098004 Rises=F Damp=F
 DIIS: error= 3.77D-06 at cycle   9 NSaved=   9.
 NSaved= 9 IEnMin= 9 EnMin= -359.573773728627     IErMin= 9 ErrMin= 3.77D-06
 ErrMax= 3.77D-06  0.00D+00 EMaxC= 1.00D-01 BMatC= 9.57D-09 BMatP= 9.03D-08
 IDIUse=1 WtCom= 1.00D+00 WtEn= 0.00D+00
 Coeff-Com: -0.306D-04 0.111D-03 0.518D-03 0.401D-04-0.301D-02-0.206D-01
 Coeff-Com: -0.428D-01 0.191D+00 0.875D+00
 Coeff:     -0.306D-04 0.111D-03 0.518D-03 0.401D-04-0.301D-02-0.206D-01
 Coeff:     -0.428D-01 0.191D+00 0.875D+00
 Gap=     0.331 Goal=   None    Shift=    0.000
 RMSDP=6.09D-07 MaxDP=1.91D-05 DE=-9.80D-08 OVMax= 5.51D-05

 Cycle  10  Pass 1  IDiag  1:
 E= -359.573773740949     Delta-E=       -0.000000012323 Rises=F Damp=F
 DIIS: error= 1.51D-06 at cycle  10 NSaved=  10.
 NSaved=10 IEnMin=10 EnMin= -359.573773740949     IErMin=10 ErrMin= 1.51D-06
 ErrMax= 1.51D-06  0.00D+00 EMaxC= 1.00D-01 BMatC= 1.02D-09 BMatP= 9.57D-09
 IDIUse=1 WtCom= 1.00D+00 WtEn= 0.00D+00
 Coeff-Com: -0.754D-04 0.154D-03 0.704D-03 0.122D-02 0.195D-02-0.228D-02
 Coeff-Com: -0.508D-01-0.192D-01 0.286D+00 0.782D+00
 Coeff:     -0.754D-04 0.154D-03 0.704D-03 0.122D-02 0.195D-02-0.228D-02
 Coeff:     -0.508D-01-0.192D-01 0.286D+00 0.782D+00
 Gap=     0.331 Goal=   None    Shift=    0.000
 RMSDP=1.56D-07 MaxDP=4.56D-06 DE=-1.23D-08 OVMax= 1.54D-05

 Cycle  11  Pass 1  IDiag  1:
 E= -359.573773742074     Delta-E=       -0.000000001125 Rises=F Damp=F
 DIIS: error= 3.57D-07 at cycle  11 NSaved=  11.
 NSaved=11 IEnMin=11 EnMin= -359.573773742074     IErMin=11 ErrMin= 3.57D-07
 ErrMax= 3.57D-07  0.00D+00 EMaxC= 1.00D-01 BMatC= 8.36D-11 BMatP= 1.02D-09
 IDIUse=1 WtCom= 1.00D+00 WtEn= 0.00D+00
 Coeff-Com: -0.218D-04 0.410D-04 0.210D-03 0.411D-03 0.883D-03 0.728D-03
 Coeff-Com: -0.144D-01-0.224D-01 0.328D-01 0.257D+00 0.745D+00
 Coeff:     -0.218D-04 0.410D-04 0.210D-03 0.411D-03 0.883D-03 0.728D-03
 Coeff:     -0.144D-01-0.224D-01 0.328D-01 0.257D+00 0.745D+00
 Gap=     0.331 Goal=   None    Shift=    0.000
 RMSDP=4.25D-08 MaxDP=1.62D-06 DE=-1.12D-09 OVMax= 3.19D-06

 Cycle  12  Pass 1  IDiag  1:
 E= -359.573773742155     Delta-E=       -0.000000000080 Rises=F Damp=F
 DIIS: error= 1.45D-07 at cycle  12 NSaved=  12.
 NSaved=12 IEnMin=12 EnMin= -359.573773742155     IErMin=12 ErrMin= 1.45D-07
 ErrMax= 1.45D-07  0.00D+00 EMaxC= 1.00D-01 BMatC= 1.26D-11 BMatP= 8.36D-11
 IDIUse=1 WtCom= 1.00D+00 WtEn= 0.00D+00
 Coeff-Com:  0.764D-06-0.239D-05 0.398D-05 0.166D-04 0.120D-03 0.496D-03
 Coeff-Com:  0.661D-03-0.615D-02-0.227D-01-0.818D-03 0.285D+00 0.743D+00
 Coeff:      0.764D-06-0.239D-05 0.398D-05 0.166D-04 0.120D-03 0.496D-03
 Coeff:      0.661D-03-0.615D-02-0.227D-01-0.818D-03 0.285D+00 0.743D+00
 Gap=     0.331 Goal=   None    Shift=    0.000
 RMSDP=1.52D-08 MaxDP=5.04D-07 DE=-8.05D-11 OVMax= 1.50D-06

 Cycle  13  Pass 1  IDiag  1:
 E= -359.573773742171     Delta-E=       -0.000000000017 Rises=F Damp=F
 DIIS: error= 4.82D-08 at cycle  13 NSaved=  13.
 NSaved=13 IEnMin=13 EnMin= -359.573773742171     IErMin=13 ErrMin= 4.82D-08
 ErrMax= 4.82D-08  0.00D+00 EMaxC= 1.00D-01 BMatC= 1.61D-12 BMatP= 1.26D-11
 IDIUse=1 WtCom= 1.00D+00 WtEn= 0.00D+00
 Coeff-Com:  0.298D-05-0.590D-05-0.227D-04-0.443D-04-0.616D-04 0.436D-04
 Coeff-Com:  0.198D-02 0.744D-03-0.118D-01-0.329D-01 0.181D-01 0.291D+00
 Coeff-Com:  0.733D+00
 Coeff:      0.298D-05-0.590D-05-0.227D-04-0.443D-04-0.616D-04 0.436D-04
 Coeff:      0.198D-02 0.744D-03-0.118D-01-0.329D-01 0.181D-01 0.291D+00
 Coeff:      0.733D+00
 Gap=     0.331 Goal=   None    Shift=    0.000
 RMSDP=5.91D-09 MaxDP=1.63D-07 DE=-1.68D-11 OVMax= 6.72D-07

 SCF Done:  E(RM062X) =  -359.573773742     A.U. after   13 cycles
            NFock= 13  Conv=0.59D-08     -V/T= 2.0042
 KE= 3.580571854502D+02 PE=-1.331381753484D+03 EE= 3.706540702044D+02
 Leave Link  502 at Tue Apr  9 00:12:25 2019, MaxMem=   671088640 cpu:             503.2 elap:              36.0
 (Enter /shared/centos7/gaussian/g16/l801.exe)
 DoSCS=F DFT=T ScalE2(SS,OS)=  1.000000  1.000000
 Range of M.O.s used for correlation:     1   249
 NBasis=   249 NAE=    24 NBE=    24 NFC=     0 NFV=     0
 NROrb=    249 NOA=    24 NOB=    24 NVA=   225 NVB=   225

 **** Warning!!: The largest alpha MO coefficient is  0.44778889D+02

 Leave Link  801 at Tue Apr  9 00:12:25 2019, MaxMem=   671088640 cpu:               0.5 elap:               0.0
 (Enter /shared/centos7/gaussian/g16/l1101.exe)
 Using compressed storage, NAtomX=    11.
 Will process     12 centers per pass.
 Leave Link 1101 at Tue Apr  9 00:12:25 2019, MaxMem=   671088640 cpu:               8.3 elap:               0.5
 (Enter /shared/centos7/gaussian/g16/l1102.exe)
 Symmetrizing basis deriv contribution to polar:
 IMax=3 JMax=2 DiffMx= 0.00D+00
 Leave Link 1102 at Tue Apr  9 00:12:25 2019, MaxMem=   671088640 cpu:               0.7 elap:               0.1
 (Enter /shared/centos7/gaussian/g16/l1110.exe)
 Forming Gx(P) for the SCF density, NAtomX=    11.
 Integral derivatives from FoFJK, PRISM(SPDF).
 Do as many integral derivatives as possible in FoFJK.
 G2DrvN: MDV=     671087712.
 G2DrvN: will do    12 centers at a time, making    1 passes.
 Calling FoFCou, ICntrl=  3107 FMM=F I1Cent=   0 AccDes= 0.00D+00.
 FoFJK:  IHMeth= 1 ICntrl=    3107 DoSepK=F KAlg= 0 I1Cent=           0 FoldK=F
 IRaf=         0 NMat=       1 IRICut=       1 DoRegI=T DoRafI=F ISym2E= 0 IDoP0=0 IntGTp=1.
 FoFCou: FMM=F IPFlag=           0 FMFlag=      100000 FMFlg1=           0
         NFxFlg=           0 DoJE=F BraDBF=F KetDBF=F FulRan=T
         wScrn=  0.000000 ICntrl=      3107 IOpCl=  0 I1Cent=           0 NGrid=           0
         NMat0=    1 NMatS0=      1 NMatT0=    0 NMatD0=    1 NMtDS0=    0 NMtDT0=    0
 Symmetry not used in FoFCou.
 End of G2Drv F.D. properties file   721 does not exist.
 End of G2Drv F.D. properties file   722 does not exist.
 End of G2Drv F.D. properties file   788 does not exist.
 Leave Link 1110 at Tue Apr  9 00:13:21 2019, MaxMem=   671088640 cpu:            1116.5 elap:              55.9
 (Enter /shared/centos7/gaussian/g16/l1002.exe)
 Minotr:  Closed shell wavefunction.
          IDoAtm=11111111111
          Direct CPHF calculation.
          Differentiating once with respect to nuclear coordinates.
          Requested convergence is 1.0D-08 RMS, and 1.0D-07 maximum.
          Secondary convergence is 1.0D-12 RMS, and 1.0D-12 maximum.
          NewPWx=T KeepS1=F KeepF1=F KeepIn=T MapXYZ=F SortEE=F KeepMc=T.
         3342 words used for storage of precomputed grid.
 Keep R1 ints in memory in canonical form, NReq=506509625.
 FoFCou: FMM=F IPFlag=           0 FMFlag=           0 FMFlg1=           0
         NFxFlg=           0 DoJE=F BraDBF=F KetDBF=F FulRan=T
         wScrn=  0.000000 ICntrl=       600 IOpCl=  0 I1Cent=           0 NGrid=           0
         NMat0=    1 NMatS0=  31125 NMatT0=    0 NMatD0=    1 NMtDS0=    0 NMtDT0=    0
 Symmetry not used in FoFCou.
 Two-electron integral symmetry not used.
          MDV=     671088640 using IRadAn=       1.
          Solving linear equations simultaneously, MaxMat=       0.
          There are    36 degrees of freedom in the 1st order CPHF.  IDoFFX=6 NUNeed=     0.
     30 vectors produced by pass  0 Test12= 1.50D-14 2.78D-09 XBig12= 6.22D-02 5.73D-02.
 AX will form    30 AO Fock derivatives at one time.
     30 vectors produced by pass  1 Test12= 1.50D-14 2.78D-09 XBig12= 1.35D-02 4.36D-02.
     30 vectors produced by pass  2 Test12= 1.50D-14 2.78D-09 XBig12= 5.81D-04 3.72D-03.
     30 vectors produced by pass  3 Test12= 1.50D-14 2.78D-09 XBig12= 8.01D-06 4.02D-04.
     30 vectors produced by pass  4 Test12= 1.50D-14 2.78D-09 XBig12= 7.73D-08 3.22D-05.
     30 vectors produced by pass  5 Test12= 1.50D-14 2.78D-09 XBig12= 5.11D-10 2.41D-06.
     27 vectors produced by pass  6 Test12= 1.50D-14 2.78D-09 XBig12= 2.93D-12 2.00D-07.
      9 vectors produced by pass  7 Test12= 1.50D-14 2.78D-09 XBig12= 1.28D-14 1.23D-08.
 InvSVY:  IOpt=1 It=  1 EMax= 8.88D-16
 Solved reduced A of dimension   216 with    30 vectors.
 End of Minotr F.D. properties file   721 does not exist.
 End of Minotr F.D. properties file   722 does not exist.
 End of Minotr F.D. properties file   788 does not exist.
 Leave Link 1002 at Tue Apr  9 00:14:29 2019, MaxMem=   671088640 cpu:            1359.0 elap:              68.1
 (Enter /shared/centos7/gaussian/g16/l601.exe)
 Copying SCF densities to generalized density rwf, IOpCl= 0 IROHF=0.

 **********************************************************************

            Population analysis using the SCF density.

 **********************************************************************

 Orbital symmetries:
       Occupied  (A) (A) (A) (A) (A) (A) (A) (A) (A) (A) (A) (A)
                 (A) (A) (A) (A) (A) (A) (A) (A) (A) (A) (A) (A)
       Virtual   (A) (A) (A) (A) (A) (A) (A) (A) (A) (A) (A) (A)
                 (A) (A) (A) (A) (A) (A) (A) (A) (A) (A) (A) (A)
                 (A) (A) (A) (A) (A) (A) (A) (A) (A) (A) (A) (A)
                 (A) (A) (A) (A) (A) (A) (A) (A) (A) (A) (A) (A)
                 (A) (A) (A) (A) (A) (A) (A) (A) (A) (A) (A) (A)
                 (A) (A) (A) (A) (A) (A) (A) (A) (A) (A) (A) (A)
                 (A) (A) (A) (A) (A) (A) (A) (A) (A) (A) (A) (A)
                 (A) (A) (A) (A) (A) (A) (A) (A) (A) (A) (A) (A)
                 (A) (A) (A) (A) (A) (A) (A) (A) (A) (A) (A) (A)
                 (A) (A) (A) (A) (A) (A) (A) (A) (A) (A) (A) (A)
                 (A) (A) (A) (A) (A) (A) (A) (A) (A) (A) (A) (A)
                 (A) (A) (A) (A) (A) (A) (A) (A) (A) (A) (A) (A)
                 (A) (A) (A) (A) (A) (A) (A) (A) (A) (A) (A) (A)
                 (A) (A) (A) (A) (A) (A) (A) (A) (A) (A) (A) (A)
                 (A) (A) (A) (A) (A) (A) (A) (A) (A) (A) (A) (A)
                 (A) (A) (A) (A) (A) (A) (A) (A) (A) (A) (A) (A)
                 (A) (A) (A) (A) (A) (A) (A) (A) (A) (A) (A) (A)
                 (A) (A) (A) (A) (A) (A) (A) (A) (A) (A) (A) (A)
                 (A) (A) (A) (A) (A) (A) (A) (A) (A)
 The electronic state is 1-A.
 Alpha  occ. eigenvalues --  -19.69215 -19.65962 -19.63549 -14.79796 -10.70312
 Alpha  occ. eigenvalues --  -10.59480  -1.22910  -1.21963  -1.13020  -0.95899
 Alpha  occ. eigenvalues --   -0.81722  -0.69337  -0.62461  -0.60183  -0.58878
 Alpha  occ. eigenvalues --   -0.55710  -0.53508  -0.52592  -0.48323  -0.46614
 Alpha  occ. eigenvalues --   -0.40334  -0.38617  -0.37130  -0.32715
 Alpha virt. eigenvalues --    0.00358   0.01081   0.02550   0.04031   0.04817
 Alpha virt. eigenvalues --    0.06639   0.07680   0.07716   0.08797   0.11479
 Alpha virt. eigenvalues --    0.11718   0.14473   0.15785   0.17486   0.18374
 Alpha virt. eigenvalues --    0.19914   0.21452   0.22366   0.23216   0.23913
 Alpha virt. eigenvalues --    0.24449   0.24773   0.25724   0.27682   0.28538
 Alpha virt. eigenvalues --    0.29387   0.29828   0.30188   0.32875   0.34202
 Alpha virt. eigenvalues --    0.34874   0.36356   0.38155   0.41776   0.46011
 Alpha virt. eigenvalues --    0.48940   0.51607   0.53406   0.53653   0.56352
 Alpha virt. eigenvalues --    0.58091   0.60021   0.61097   0.62092   0.63395
 Alpha virt. eigenvalues --    0.66011   0.67984   0.68857   0.71827   0.72295
 Alpha virt. eigenvalues --    0.75201   0.79519   0.80186   0.80705   0.87347
 Alpha virt. eigenvalues --    0.90287   0.91974   0.93740   0.97913   0.98643
 Alpha virt. eigenvalues --    1.00206   1.02598   1.05108   1.08834   1.09832
 Alpha virt. eigenvalues --    1.11998   1.12836   1.14304   1.17670   1.19231
 Alpha virt. eigenvalues --    1.19901   1.22961   1.25693   1.28171   1.29439
 Alpha virt. eigenvalues --    1.32730   1.33934   1.36218   1.37785   1.39675
 Alpha virt. eigenvalues --    1.42087   1.44075   1.46688   1.49108   1.52017
 Alpha virt. eigenvalues --    1.53411   1.57497   1.61011   1.63131   1.65174
 Alpha virt. eigenvalues --    1.68952   1.72381   1.73823   1.77965   1.79840
 Alpha virt. eigenvalues --    1.85263   1.92625   1.96959   2.04598   2.06152
 Alpha virt. eigenvalues --    2.14715   2.15824   2.20270   2.28233   2.29414
 Alpha virt. eigenvalues --    2.35379   2.39024   2.45895   2.49603   2.58240
 Alpha virt. eigenvalues --    2.62358   2.66649   2.67136   2.74486   2.78438
 Alpha virt. eigenvalues --    2.81614   2.90666   2.99248   3.04014   3.07402
 Alpha virt. eigenvalues --    3.09721   3.14437   3.14648   3.19035   3.20095
 Alpha virt. eigenvalues --    3.26513   3.30782   3.34647   3.36874   3.40761
 Alpha virt. eigenvalues --    3.45334   3.48230   3.51182   3.53540   3.54422
 Alpha virt. eigenvalues --    3.57252   3.59810   3.66203   3.68349   3.70580
 Alpha virt. eigenvalues --    3.73654   3.77543   3.82391   3.84013   3.85181
 Alpha virt. eigenvalues --    3.88269   3.92124   3.98870   4.00655   4.02310
 Alpha virt. eigenvalues --    4.06892   4.11443   4.15314   4.17037   4.20837
 Alpha virt. eigenvalues --    4.25577   4.34301   4.36718   4.37885   4.42963
 Alpha virt. eigenvalues --    4.48338   4.60980   4.65591   4.69605   4.85816
 Alpha virt. eigenvalues --    4.95653   5.04972   5.06527   5.07897   5.08559
 Alpha virt. eigenvalues --    5.11692   5.13922   5.16392   5.17181   5.20569
 Alpha virt. eigenvalues --    5.22259   5.22675   5.24747   5.30598   5.34462
 Alpha virt. eigenvalues --    5.36305   5.37574   5.41989   5.42575   5.45072
 Alpha virt. eigenvalues --    5.48912   5.53791   5.57429   5.58718   5.62772
 Alpha virt. eigenvalues --    5.67252   5.74868   5.77528   5.82876   5.95370
 Alpha virt. eigenvalues --    6.11364   6.15476   6.24776   6.43328   6.72572
 Alpha virt. eigenvalues --    6.79227   6.80174   6.86070   6.88520   6.90237
 Alpha virt. eigenvalues --    6.94414   6.98148   7.10560   7.13981   7.14285
 Alpha virt. eigenvalues --    7.18326   7.19401   7.24523   7.47487   7.50979
 Alpha virt. eigenvalues --    7.53483   7.61940   7.70275   7.73321  24.37090
 Alpha virt. eigenvalues --   24.64541  35.78306  50.05665  50.10760  50.18363
          Condensed to atoms (all electrons):
               1          2          3          4          5          6
     1  O    8.005438  -0.004002  -0.007895   0.109666  -0.023129   0.009743
     2  O   -0.004002   7.941249  -0.082921   0.013842  -0.118347   0.306540
     3  O   -0.007895  -0.082921   8.162908   0.020860  -0.071079   0.397547
     4  N    0.109666   0.013842   0.020860   6.934789   0.120825  -0.060076
     5  C   -0.023129  -0.118347  -0.071079   0.120825   5.446442  -0.012785
     6  C    0.009743   0.306540   0.397547  -0.060076  -0.012785   5.190672
     7  H    0.005076   0.005471  -0.002524  -0.060060   0.428787  -0.047595
     8  H   -0.022112  -0.003456   0.003074  -0.009138   0.415510  -0.032204
     9  H   -0.067270  -0.000363   0.001300   0.309389  -0.018126  -0.019517
    10  H    0.232715   0.000342   0.000519  -0.073907   0.014200  -0.011291
    11  H    0.000318   0.261572   0.015640  -0.001627  -0.019617   0.004554
               7          8          9         10         11
     1  O    0.005076  -0.022112  -0.067270   0.232715   0.000318
     2  O    0.005471  -0.003456  -0.000363   0.000342   0.261572
     3  O   -0.002524   0.003074   0.001300   0.000519   0.015640
     4  N   -0.060060  -0.009138   0.309389  -0.073907  -0.001627
     5  C    0.428787   0.415510  -0.018126   0.014200  -0.019617
     6  C   -0.047595  -0.032204  -0.019517  -0.011291   0.004554
     7  H    0.530580  -0.026943   0.005146   0.001133  -0.000397
     8  H   -0.026943   0.495473   0.002108   0.001254   0.000446
     9  H    0.005146   0.002108   0.531329   0.010554   0.000063
    10  H    0.001133   0.001254   0.010554   0.520125  -0.000013
    11  H   -0.000397   0.000446   0.000063  -0.000013   0.437390
 Mulliken charges:
               1
     1  O   -0.238549
     2  O   -0.319926
     3  O   -0.437428
     4  N   -0.304563
     5  C   -0.162681
     6  C    0.274411
     7  H    0.161324
     8  H    0.175988
     9  H    0.245387
    10  H    0.304367
    11  H    0.301670
 Sum of Mulliken charges =  -0.00000
 Mulliken charges with hydrogens summed into heavy atoms:
               1
     1  O    0.065818
     2  O   -0.018256
     3  O   -0.437428
     4  N   -0.059175
     5  C    0.174631
     6  C    0.274411
 APT charges:
               1
     1  O   -0.916685
     2  O   -0.621975
     3  O   -0.406423
     4  N   -0.287460
     5  C   -0.700627
     6  C    0.268850
     7  H    0.434979
     8  H    0.386932
     9  H    0.374492
    10  H    0.760760
    11  H    0.707154
 Sum of APT charges =  -0.00000
 APT charges with hydrogens summed into heavy atoms:
               1
     1  O   -0.155924
     2  O    0.085179
     3  O   -0.406423
     4  N    0.087032
     5  C    0.121284
     6  C    0.268850
 Electronic spatial extent (au):  <R**2>=            624.4273
 Charge=             -0.0000 electrons
 Dipole moment (field-independent basis, Debye):
    X=              0.0160    Y=             -1.7302    Z=              0.4995  Tot=              1.8009
 Quadrupole moment (field-independent basis, Debye-Ang):
   XX=            -27.0127   YY=            -38.7835   ZZ=            -36.4019
   XY=             -0.4826   XZ=              1.3939   YZ=             -1.0319
 Traceless Quadrupole moment (field-independent basis, Debye-Ang):
   XX=              7.0533   YY=             -4.7175   ZZ=             -2.3359
   XY=             -0.4826   XZ=              1.3939   YZ=             -1.0319
 Octapole moment (field-independent basis, Debye-Ang**2):
  XXX=              2.2077  YYY=             -2.6700  ZZZ=             -1.2506  XYY=              9.8590
  XXY=             -3.9831  XXZ=            -10.3321  XZZ=             -7.0346  YZZ=             -1.0774
  YYZ=             -0.0711  XYZ=             -0.4442
 Hexadecapole moment (field-independent basis, Debye-Ang**3):
 XXXX=           -333.3379 YYYY=           -149.6534 ZZZZ=            -82.4030 XXXY=            -19.1192
 XXXZ=              9.9568 YYYX=              4.2747 YYYZ=              0.6756 ZZZX=             -1.3541
 ZZZY=             -1.9629 XXYY=           -121.1591 XXZZ=           -104.5054 YYZZ=            -39.3993
 XXYZ=              1.0080 YYXZ=             -1.6367 ZZXY=             -1.4190
 N-N= 2.430967240877D+02 E-N=-1.331381761964D+03  KE= 3.580571854501D+02
  Exact polarizability:   0.000   0.000   0.000   0.000   0.000   0.000
 Approx polarizability:  55.848  -0.878  61.062   1.062  -0.395  45.258
 No NMR shielding tensors so no spin-rotation constants.
 Leave Link  601 at Tue Apr  9 00:14:30 2019, MaxMem=   671088640 cpu:               7.2 elap:               0.4
 (Enter /shared/centos7/gaussian/g16/l701.exe)
 SCFChk:  SCF convergence  5.91D-09 required  1.00D-08
 ... and contract with generalized density number  0.
 Compute integral second derivatives.
 Entering OneElI...
 Calculate overlap and kinetic energy integrals
    NBasis = 279  MinDer = 2  MaxDer = 2
 Requested accuracy = 0.1000D-12
 PrmmSu-InSpLW:  IPartL=    0 NPrtUS=   20 NPrtUL=    1 DoSpLW=F IThBeg=    0 IThEnd=   19 NThAct=   20.
 PrsmSu:  NPrtUS=  20 ThrOK=T IAlg=1 NPAlg=1 LenDen=           0 ISkipM=0 DoSpLW=F IThBeg=    0 IThEnd=   19.
 Prism:   IPart=     0 DynPar=F LinDyn=F Incr=           1.
 PRISM was handed    33472585 working-precision words and  2677 shell-pairs
 PRISM was handed    33472585 working-precision words and  2677 shell-pairs
 PRISM was handed    33472585 working-precision words and  2677 shell-pairs
 PRISM was handed    33472585 working-precision words and  2677 shell-pairs
 PRISM was handed    33472585 working-precision words and  2677 shell-pairs
 PRISM was handed    33472585 working-precision words and  2677 shell-pairs
 PRISM was handed    33472585 working-precision words and  2677 shell-pairs
 PRISM was handed    33472585 working-precision words and  2677 shell-pairs
 PRISM was handed    33472585 working-precision words and  2677 shell-pairs
 PRISM was handed    33472585 working-precision words and  2677 shell-pairs
 PRISM was handed    33472585 working-precision words and  2677 shell-pairs
 PRISM was handed    33472585 working-precision words and  2677 shell-pairs
 PRISM was handed    33472585 working-precision words and  2677 shell-pairs
 PRISM was handed    33472585 working-precision words and  2677 shell-pairs
 PRISM was handed    33472585 working-precision words and  2677 shell-pairs
 PRISM was handed    33472585 working-precision words and  2677 shell-pairs
 PRISM was handed    33472585 working-precision words and  2677 shell-pairs
 PRISM was handed    33472585 working-precision words and  2677 shell-pairs
 PRISM was handed    33472585 working-precision words and  2677 shell-pairs
 PRISM was handed    33472585 working-precision words and  2677 shell-pairs
 IPart=  1 NShTot=         165 NBatch=          56 AvBLen=         2.9
 IPart=  2 NShTot=         157 NBatch=          49 AvBLen=         3.2
 IPart=  4 NShTot=         150 NBatch=          43 AvBLen=         3.5
 IPart=  5 NShTot=         144 NBatch=          40 AvBLen=         3.6
 IPart=  3 NShTot=         153 NBatch=          46 AvBLen=         3.3
 IPart= 18 NShTot=         114 NBatch=          30 AvBLen=         3.8
 IPart=  0 NShTot=         174 NBatch=          63 AvBLen=         2.8
 IPart= 15 NShTot=         117 NBatch=          30 AvBLen=         3.9
 IPart=  8 NShTot=         131 NBatch=          32 AvBLen=         4.1
 IPart= 13 NShTot=         124 NBatch=          31 AvBLen=         4.0
 IPart= 11 NShTot=         127 NBatch=          31 AvBLen=         4.1
 IPart=  6 NShTot=         137 NBatch=          34 AvBLen=         4.0
 IPart=  9 NShTot=         130 NBatch=          31 AvBLen=         4.2
 IPart= 12 NShTot=         126 NBatch=          31 AvBLen=         4.1
 IPart= 10 NShTot=         129 NBatch=          31 AvBLen=         4.2
 IPart=  7 NShTot=         135 NBatch=          33 AvBLen=         4.1
 IPart= 14 NShTot=         120 NBatch=          31 AvBLen=         3.9
 IPart= 16 NShTot=         116 NBatch=          30 AvBLen=         3.9
 IPart= 19 NShTot=         113 NBatch=          30 AvBLen=         3.8
 IPart= 17 NShTot=         115 NBatch=          30 AvBLen=         3.8
 PrSmSu:  NxtVal=             21.
 Entering OneElI...
 Calculate potential energy integrals
    NBasis = 279  MinDer = 2  MaxDer = 2
 Requested accuracy = 0.1000D-12
 PrmmSu-InSpLW:  IPartL=    0 NPrtUS=   20 NPrtUL=    1 DoSpLW=F IThBeg=    0 IThEnd=   19 NThAct=   20.
 PrsmSu:  NPrtUS=  20 ThrOK=T IAlg=1 NPAlg=1 LenDen=           0 ISkipM=0 DoSpLW=F IThBeg=    0 IThEnd=   19.
 Prism:   IPart=     0 DynPar=F LinDyn=F Incr=          13.
 PRISM was handed    33483987 working-precision words and  2539 shell-pairs
 PRISM was handed    33483987 working-precision words and  2539 shell-pairs
 PRISM was handed    33483987 working-precision words and  2539 shell-pairs
 PRISM was handed    33483987 working-precision words and  2539 shell-pairs
 PRISM was handed    33483987 working-precision words and  2539 shell-pairs
 PRISM was handed    33483987 working-precision words and  2539 shell-pairs
 PRISM was handed    33483987 working-precision words and  2539 shell-pairs
 PRISM was handed    33483987 working-precision words and  2539 shell-pairs
 PRISM was handed    33483987 working-precision words and  2539 shell-pairs
 PRISM was handed    33483987 working-precision words and  2539 shell-pairs
 PRISM was handed    33483987 working-precision words and  2539 shell-pairs
 PRISM was handed    33483987 working-precision words and  2539 shell-pairs
 PRISM was handed    33483987 working-precision words and  2539 shell-pairs
 PRISM was handed    33483987 working-precision words and  2539 shell-pairs
 PRISM was handed    33483987 working-precision words and  2539 shell-pairs
 PRISM was handed    33483987 working-precision words and  2539 shell-pairs
 PRISM was handed    33483987 working-precision words and  2539 shell-pairs
 PRISM was handed    33483987 working-precision words and  2539 shell-pairs
 PRISM was handed    33483987 working-precision words and  2539 shell-pairs
 PRISM was handed    33483987 working-precision words and  2539 shell-pairs
 IPart= 18 NShTot=        1221 NBatch=         111 AvBLen=        11.0
 IPart=  3 NShTot=        1595 NBatch=         145 AvBLen=        11.0
 IPart=  4 NShTot=        1551 NBatch=         141 AvBLen=        11.0
 IPart=  5 NShTot=        1485 NBatch=         135 AvBLen=        11.0
 IPart=  2 NShTot=        1639 NBatch=         149 AvBLen=        11.0
 IPart= 13 NShTot=        1287 NBatch=         117 AvBLen=        11.0
 IPart=  1 NShTot=        1716 NBatch=         156 AvBLen=        11.0
 IPart= 16 NShTot=        1232 NBatch=         112 AvBLen=        11.0
 IPart=  7 NShTot=        1419 NBatch=         129 AvBLen=        11.0
 IPart=  6 NShTot=        1452 NBatch=         132 AvBLen=        11.0
 IPart= 15 NShTot=        1232 NBatch=         112 AvBLen=        11.0
 IPart= 11 NShTot=        1298 NBatch=         118 AvBLen=        11.0
 IPart=  9 NShTot=        1342 NBatch=         122 AvBLen=        11.0
 IPart= 10 NShTot=        1309 NBatch=         119 AvBLen=        11.0
 IPart= 14 NShTot=        1265 NBatch=         115 AvBLen=        11.0
 IPart=  8 NShTot=        1375 NBatch=         125 AvBLen=        11.0
 IPart= 12 NShTot=        1287 NBatch=         117 AvBLen=        11.0
 IPart= 17 NShTot=        1221 NBatch=         111 AvBLen=        11.0
 IPart=  0 NShTot=        1782 NBatch=         162 AvBLen=        11.0
 IPart= 19 NShTot=        1221 NBatch=         111 AvBLen=        11.0
 PrSmSu:  NxtVal=            261.
 Polarizability after L701:
                1             2             3 
      1  0.000000D+00
      2  0.000000D+00  0.000000D+00
      3  0.000000D+00  0.000000D+00  0.000000D+00
 Dipole Derivatives after L701:
                 1             2             3             4             5 
      1  -0.192763D+01  0.746534D+00  0.128725D+00 -0.108597D+01  0.618332D+00
      2   0.156297D+00 -0.331577D+00 -0.484758D-02 -0.162199D-01 -0.255803D+00
      3   0.117973D+00 -0.127642D+00 -0.490851D+00 -0.182539D+00  0.142710D+00
                 6             7             8             9            10 
      1  -0.279803D+00 -0.444746D+00 -0.462620D+00  0.841172D-01  0.163374D+00
      2  -0.505773D-02 -0.207426D-01 -0.195029D+00 -0.337254D-01  0.197623D+00
      3  -0.524151D+00  0.303951D-01  0.426783D-02 -0.579493D+00 -0.525110D-01
                11            12            13            14            15 
      1  -0.902485D+00 -0.302170D+00 -0.184492D+00  0.319521D+00  0.149678D+00
      2  -0.791355D+00  0.134706D+00  0.463880D-01 -0.897210D+00  0.105166D+00
      3  -0.593774D-01 -0.234399D+00  0.315851D+00  0.304396D+00 -0.102018D+01
                16            17            18            19            20 
      1   0.704983D-01  0.430948D+00 -0.348012D+00  0.186074D+00 -0.220856D-02
      2  -0.800352D-01  0.848076D-01 -0.616774D-02  0.399234D-01  0.229663D+00
      3  -0.224147D+00 -0.420392D-01  0.651245D+00 -0.501512D-01 -0.149655D+00
                21            22            23            24            25 
      1   0.593550D-01  0.192130D+00 -0.203191D+00 -0.113137D+00  0.146040D+00
      2  -0.322541D+00 -0.110198D+00  0.804760D+00  0.297523D+00 -0.154459D+00
      3   0.889200D+00 -0.264224D-01 -0.434230D-01  0.163906D+00 -0.648281D-01
                26            27            28            29            30 
      1   0.407160D+00 -0.165675D+00  0.150087D+01 -0.314158D+00  0.358370D+00
      2   0.679640D+00 -0.172457D+00 -0.125779D+00  0.368238D+00 -0.173152D-01
      3   0.621966D-01  0.297798D+00 -0.110277D+00  0.600314D-01  0.413171D+00
                31            32            33 
      1   0.138385D+01 -0.637832D+00  0.428552D+00
      2   0.672036D-01  0.303865D+00  0.247178D-01
      3   0.246656D+00 -0.151466D+00  0.433750D+00
 Hessian after L701:
                1             2             3             4             5 
      1  0.480322D+01
      2  0.196651D+01  0.122065D+02
      3  0.299927D+01 -0.110305D+01  0.715012D+01
      4  0.180555D+00  0.782370D-01 -0.253170D-02  0.395101D+01
      5  0.628680D-01 -0.111673D+00  0.335292D-02 -0.366007D+01  0.870681D+01
      6 -0.300135D-01 -0.481570D-02 -0.130101D+00 -0.397222D+01 -0.112608D+01
      7  0.226952D+00 -0.163971D+00 -0.590280D-01  0.975542D-01  0.598358D+00
      8 -0.212964D+00 -0.118223D+00  0.245057D-01  0.511597D+00  0.390174D+00
      9 -0.916016D-01  0.353768D-01 -0.182391D+00  0.123609D-01  0.203107D+00
     10 -0.492748D+01 -0.121073D+01 -0.326914D+01  0.409874D+00  0.249807D+00
     11 -0.111870D+01 -0.725092D+01  0.157181D+01  0.156087D+00 -0.167722D+00
     12 -0.325700D+01  0.166586D+01 -0.167111D+01  0.737022D-01  0.360284D-01
     13  0.487065D+00  0.498250D+00 -0.454308D+00  0.248522D+00 -0.695080D-01
     14  0.294758D+00 -0.965480D-01 -0.168894D+00  0.678071D-01 -0.224164D-01
     15 -0.423754D+00 -0.308392D+00  0.149264D-01  0.125447D+00 -0.186929D-01
     16  0.392990D+00 -0.615246D-01 -0.117380D+00 -0.294728D+01  0.476948D+01
     17 -0.354584D-01 -0.242702D+00  0.149317D-01  0.461359D+01 -0.509413D+01
     18 -0.133053D+00  0.241145D-01 -0.229471D+00  0.243125D+01  0.169446D+01
     19  0.197838D-01  0.228678D-01 -0.784669D-01  0.252518D-01 -0.238826D-02
     20  0.351143D-01 -0.413635D-01 -0.340117D-01 -0.217891D-01 -0.666321D-01
     21 -0.113937D+00 -0.414995D-01  0.865857D-01  0.153142D+00  0.792731D-02
     22 -0.202943D-01 -0.816337D-02  0.285440D-01  0.711133D-01 -0.402491D-01
     23  0.393335D-01  0.592438D-01  0.105920D-03 -0.113149D+00 -0.190356D-01
     24  0.487542D-01  0.441260D-01 -0.319577D-01 -0.138357D-01  0.276616D-02
     25 -0.162424D-01 -0.223967D-01  0.267428D+00  0.600380D-02  0.176456D-01
     26  0.349603D-01  0.595600D+00 -0.154895D+00  0.524465D-01  0.194490D-01
     27  0.335506D+00 -0.177490D+00 -0.101384D+00  0.292814D-02  0.183644D-03
     28 -0.117954D+01 -0.110339D+01  0.682690D+00  0.330632D-01  0.667741D-02
     29 -0.105861D+01 -0.499044D+01 -0.152232D+00 -0.267244D-02 -0.809958D-02
     30  0.660717D+00 -0.135579D+00 -0.489800D+01  0.278592D-02  0.842352D-03
     31  0.329850D-01  0.430675D-02  0.292335D-02 -0.207567D+01 -0.193263D+01
     32 -0.781255D-02 -0.948574D-02 -0.162050D-02 -0.168209D+01 -0.362673D+01
     33  0.511417D-02  0.134727D-02 -0.721501D-02  0.118697D+01 -0.803892D+00
                6             7             8             9            10 
      6  0.135000D+02
      7  0.149286D-01  0.126156D+02
      8  0.184753D+00  0.253628D+01 -0.170018D+01
      9 -0.876988D-02 -0.117853D+01  0.149101D+01  0.162234D+02
     10  0.624878D-01  0.470168D+00 -0.410475D+00  0.176196D+00  0.104746D+02
     11  0.213773D-01 -0.480854D+00 -0.188269D+00 -0.829415D-01  0.316683D+00
     12 -0.207741D+00  0.156264D+00 -0.716114D-01 -0.393460D+00  0.299329D+01
     13  0.202484D+00  0.415657D+00 -0.495795D+00  0.175767D+00 -0.236674D+01
     14  0.504262D-01 -0.349023D+00  0.993298D-01 -0.129806D+00  0.262153D+01
     15  0.366443D-01  0.136590D+00 -0.113628D+00 -0.405088D-01 -0.833761D+00
     16  0.239076D+01 -0.140022D+02 -0.204730D+01  0.821518D+00  0.576829D+00
     17  0.161027D+01 -0.218570D+01  0.150551D+01 -0.150816D+01 -0.529356D-01
     18 -0.878318D+01  0.835695D+00 -0.152875D+01 -0.154207D+02  0.327223D+00
     19  0.101224D+00 -0.338339D-01  0.477173D-03  0.240560D-01 -0.189173D+00
     20 -0.188859D-01 -0.138615D-01  0.450286D-02 -0.594252D-01 -0.145063D+00
     21  0.998781D-01  0.494454D-01 -0.996935D-01  0.726766D-01  0.584841D-01
     22  0.136620D-01 -0.127466D-01 -0.708960D-01 -0.127874D-01  0.297428D-01
     23 -0.163443D-01 -0.897436D-01  0.147518D+00  0.114819D-01  0.105733D+00
     24 -0.484470D-01 -0.167143D-01  0.301757D-01 -0.454777D-01  0.165351D-01
     25  0.101585D-01  0.135448D+00 -0.798364D-02  0.195535D-01 -0.459732D+01
     26  0.117637D-01  0.933747D-01 -0.126005D+00  0.116169D-01 -0.155306D+01
     27 -0.152440D-01 -0.969237D-03  0.156675D-02 -0.107342D+00  0.919470D-01
     28 -0.163712D-03  0.407106D-01 -0.258705D-01 -0.113828D-02  0.104452D+00
     29  0.235627D-03 -0.177331D-01 -0.122441D-02  0.150047D-02  0.902624D-01
     30 -0.544294D-02  0.305546D-02 -0.145925D-02 -0.722105D-02  0.366963D+00
     31  0.120670D+01  0.466596D-01  0.222922D+00  0.546067D-01  0.150126D-01
     32 -0.712694D+00  0.728681D-01 -0.131307D-01  0.262356D-01 -0.117534D-01
     33 -0.443762D+01  0.592651D-01  0.831240D-01 -0.901922D-01  0.977096D-02
               11            12            13            14            15 
     11  0.144777D+02
     12 -0.509124D+00  0.137108D+02
     13  0.258594D+01 -0.835591D+00  0.113632D+02
     14 -0.495441D+01 -0.453984D+00 -0.545945D+00  0.168597D+02
     15 -0.428823D+00 -0.645126D+01  0.275282D-01  0.109418D+01  0.176085D+02
     16 -0.228145D+00  0.319457D+00 -0.209755D+01 -0.170086D+01  0.168323D+01
     17 -0.208722D+00  0.983237D-02 -0.168509D+01 -0.600547D+01 -0.694564D+00
     18 -0.147093D-01 -0.331699D-01  0.164212D+01 -0.691574D+00 -0.589072D+01
     19 -0.135929D+00  0.582494D-01 -0.417608D+01  0.111233D+00 -0.486930D+00
     20  0.410358D-01 -0.308106D-01  0.148486D+00 -0.399473D+01 -0.793775D+00
     21 -0.177939D-01  0.292447D+00 -0.568141D+00 -0.769429D+00 -0.150747D+01
     22  0.192960D-01 -0.181235D-01 -0.427109D+01 -0.386919D+00 -0.155109D+00
     23  0.503267D-01  0.102357D-01 -0.391474D+00 -0.158550D+01  0.116383D+01
     24  0.421725D-01 -0.205161D-01 -0.141828D+00  0.101902D+01 -0.383128D+01
     25 -0.123853D+01  0.982325D-01  0.139959D+00 -0.111627D+00  0.161406D-01
     26 -0.193672D+01 -0.503127D+00 -0.201664D-01 -0.237094D+00  0.102635D+00
     27 -0.421888D+00 -0.514262D+01 -0.539481D-02  0.651070D-01  0.865554D-01
     28  0.134747D+00  0.404689D+00  0.194437D+00  0.620658D-02 -0.970076D-01
     29  0.137840D+00 -0.151353D+00 -0.429397D-02 -0.622117D-01  0.170857D-02
     30 -0.157372D+00 -0.811860D-01 -0.592550D-01 -0.109955D-01 -0.317183D-01
     31 -0.105938D-01  0.682741D-02  0.625839D-01 -0.716100D-02  0.762626D-02
     32 -0.109498D-03 -0.194998D-02 -0.204002D-01 -0.681701D-03 -0.447980D-02
     33 -0.270650D-02 -0.217830D-02  0.166229D-01 -0.405475D-02  0.638429D-02
               16            17            18            19            20 
     16  0.179564D+02
     17 -0.653987D+00  0.100818D+02
     18 -0.508361D+01  0.525869D+00  0.303342D+02
     19  0.105329D+00  0.268603D-01 -0.982647D-01  0.416469D+01
     20  0.163654D-01  0.468129D-01  0.925849D-01 -0.709066D-01  0.392493D+01
     21 -0.505009D-01  0.835531D-01 -0.706137D-01  0.462481D+00  0.100641D+01
     22  0.390734D-01  0.901507D-01  0.578491D-01  0.829425D-01  0.224394D-01
     23  0.506930D-01 -0.596671D-01 -0.429837D-01  0.182766D-01  0.483009D-01
     24  0.224235D-01 -0.599781D-02  0.786395D-01  0.440465D-01 -0.116926D+00
     25 -0.302292D-01 -0.661273D-01 -0.123843D-01 -0.114734D-01  0.258539D-01
     26 -0.138578D-01 -0.537745D-02 -0.824277D-02  0.297986D-01  0.409180D-01
     27 -0.228301D-01 -0.175474D-01  0.144767D-01 -0.193267D-01 -0.427881D-01
     28 -0.483996D-01  0.291191D-02  0.947065D-02  0.137390D-01  0.573394D-02
     29 -0.935314D-03  0.841783D-02  0.495819D-03  0.565710D-03 -0.475917D-02
     30  0.105529D-01  0.219833D-02  0.107976D-01 -0.724827D-02 -0.102810D-02
     31  0.550130D-01 -0.542163D-01  0.237070D-01 -0.118067D-02 -0.237267D-02
     32 -0.129939D+00 -0.264645D-01 -0.512679D-01 -0.854576D-03  0.993011D-03
     33  0.263844D-01 -0.203827D-01 -0.102909D-01  0.179453D-03 -0.134044D-02
               21            22            23            24            25 
     21  0.111262D+01
     22  0.455430D-01  0.406434D+01
     23 -0.950799D-01  0.364899D+00  0.128636D+01
     24 -0.110882D+00  0.385520D-01 -0.102452D+01  0.403218D+01
     25 -0.219336D-01 -0.157585D-01  0.645722D-02  0.234226D-03  0.432138D+01
     26 -0.703814D-01  0.970992D-02  0.712231D-01  0.989970D-02  0.146506D+01
     27  0.187091D-01  0.924607D-03 -0.117313D-02 -0.141782D-01 -0.358758D+00
     28 -0.233291D-01  0.183160D-01  0.266129D-01  0.182345D-02  0.663190D-01
     29  0.112479D-02  0.681717D-02 -0.349849D-02 -0.138848D-02 -0.688927D-01
     30  0.222675D-02 -0.380917D-02 -0.729612D-03 -0.458213D-02 -0.194512D-01
     31  0.874484D-02  0.143646D-01 -0.176386D-01  0.873350D-05  0.191663D-02
     32 -0.513449D-02 -0.708495D-02  0.472733D-02  0.666602D-03  0.539344D-03
     33  0.382821D-02  0.475405D-02 -0.482583D-02 -0.349147D-02  0.779087D-03
               26            27            28            29            30 
     26  0.154967D+01
     27  0.578604D+00  0.529472D+01
     28 -0.107951D+00 -0.232344D-01  0.751349D+00
     29  0.316042D-01  0.146860D-01  0.105690D+01  0.489206D+01
     30  0.189271D-01 -0.322563D-01 -0.955574D+00  0.285699D+00  0.504714D+01
     31  0.968264D-02 -0.792769D-03  0.555212D-02 -0.141162D-02  0.126399D-02
     32 -0.326874D-02  0.738559D-03 -0.258254D-02  0.315718D-03 -0.503657D-03
     33  0.319883D-02 -0.143692D-02  0.177384D-02 -0.477634D-03  0.244214D-03
               31            32            33 
     31  0.184276D+01
     32  0.178911D+01  0.367384D+01
     33 -0.131161D+01  0.750010D+00  0.454197D+01
 Leave Link  701 at Tue Apr  9 00:14:30 2019, MaxMem=   671088640 cpu:               8.2 elap:               0.4
 (Enter /shared/centos7/gaussian/g16/l702.exe)
 L702 exits ... SP integral derivatives will be done elsewhere.
 Leave Link  702 at Tue Apr  9 00:14:30 2019, MaxMem=   671088640 cpu:               0.4 elap:               0.0
 (Enter /shared/centos7/gaussian/g16/l703.exe)
 Integral derivatives from FoFJK, PRISM(SPDF).
 Compute integral second derivatives, UseDBF=F ICtDFT=           0.
 ICntrl=    100147.
 Calling FoFJK, ICntrl=    100147 FMM=F ISym2X=0 I1Cent= 0 IOpClX= 0 NMat=1 NMatS=1 NMatT=0.
 FoFJK:  IHMeth= 1 ICntrl=  100147 DoSepK=F KAlg= 0 I1Cent=           0 FoldK=F
 IRaf=         0 NMat=       1 IRICut=       1 DoRegI=T DoRafI=F ISym2E= 0 IDoP0=0 IntGTp=1.
 FoFCou: FMM=F IPFlag=           0 FMFlag=      100000 FMFlg1=         800
         NFxFlg=           0 DoJE=F BraDBF=F KetDBF=F FulRan=T
         wScrn=  0.000000 ICntrl=    100147 IOpCl=  0 I1Cent=           0 NGrid=           0
         NMat0=    1 NMatS0=      1 NMatT0=    0 NMatD0=    1 NMtDS0=    0 NMtDT0=    0
 Symmetry not used in FoFCou.
 FoFCou:  KetSym=F NOpSet=  1 NOpAb=1 NOp=  1.
 FoFCou:  CnvScl= 1.00D+00 Thresh= 1.00D-08 IAcrcy=      12.
 PrismS was handed   670795861 working-precision words and  2595 shell-pairs
 FoFCou: LinMIO=F DoNuc=F BraDBF=F KetDBF=F HaveP=T PDBF=F HaveZ=T HaveW=F
         NIJTC =      15 NIJTAt=       0 NIJTCD=       0 NIJTT =      15
         IJTBeg=       1 IJTEnd=      15 KLTBeg=       1 KLTEnd=      15
         IPTBeg=       1 IPTEnd=      15 IPTBCv=       1 IPTECv=      15
         IZTBeg=       1 IZTEnd=      15 IZTBCv=       1 IZTECv=      15
         IWTBeg=      16 IWTEnd=      15 IWTBCv=      16 IWTECv=      15
         INTBeg=       1 INTEnd=       0 IFTBCv=       1 IFTECv=      15
 NCel replicated for PrismC:     1
 CoulSu-InSpLW:  IPartL=    0 NPrtUS=   20 NPrtUL=    1 DoSpLW=F IThBeg=    0 IThEnd=   19 NThAct=   20.
 CoulSu:  IncDef=  1024 NBBP=        3368310 NTPThr=   100 NPartT=   20 Incr=        1024 LDynOK=F GPUOK=T.
 CoulSu:  NPrtUS=  20 ThrOK=T IAlg=1 NPAlg=1 LenDen=           0 LWGrdD=           0 DoCopy=F ISkipM=0
          DoSpLW=F IThBeg=    0 IThEnd=   19.
 Enter PrismC:  IPart=  0 JobTyp=22 DoJE=F Cont=F.
 PrismC:  IPart=     0 DynPar=T LinDyn=F Incr=        1024 UseFst=F UseS4=T ISplat=2.
 PrismC was handed    33487602 working-precision words and  2595 shell-pairs
 Enter PrismC:  IPart=  4 JobTyp=22 DoJE=F Cont=F.
 Enter PrismC:  IPart=  5 JobTyp=22 DoJE=F Cont=F.
 Enter PrismC:  IPart=  2 JobTyp=22 DoJE=F Cont=F.
 Enter PrismC:  IPart=  8 JobTyp=22 DoJE=F Cont=F.
 PrismC:  IPart=     4 DynPar=T LinDyn=F Incr=        1024 UseFst=F UseS4=T ISplat=2.
 PrismC:  IPart=     2 DynPar=T LinDyn=F Incr=        1024 UseFst=F UseS4=T ISplat=2.
 PrismC was handed    33487602 working-precision words and  2595 shell-pairs
 PrismC:  IPart=     8 DynPar=T LinDyn=F Incr=        1024 UseFst=F UseS4=T ISplat=2.
 PrismC was handed    33487602 working-precision words and  2595 shell-pairs
 PrismC:  IPart=     5 DynPar=T LinDyn=F Incr=        1024 UseFst=F UseS4=T ISplat=2.
 PrismC was handed    33487602 working-precision words and  2595 shell-pairs
 PrismC was handed    33487602 working-precision words and  2595 shell-pairs
 Enter PrismC:  IPart=  7 JobTyp=22 DoJE=F Cont=F.
 PrismC:  IPart=     7 DynPar=T LinDyn=F Incr=        1024 UseFst=F UseS4=T ISplat=2.
 PrismC was handed    33487602 working-precision words and  2595 shell-pairs
 Enter PrismC:  IPart= 11 JobTyp=22 DoJE=F Cont=F.
 Enter PrismC:  IPart= 12 JobTyp=22 DoJE=F Cont=F.
 Enter PrismC:  IPart=  6 JobTyp=22 DoJE=F Cont=F.
 Enter PrismC:  IPart= 13 JobTyp=22 DoJE=F Cont=F.
 PrismC:  IPart=    11 DynPar=T LinDyn=F Incr=        1024 UseFst=F UseS4=T ISplat=2.
 PrismC was handed    33487602 working-precision words and  2595 shell-pairs
 Enter PrismC:  IPart= 16 JobTyp=22 DoJE=F Cont=F.
 PrismC:  IPart=     6 DynPar=T LinDyn=F Incr=        1024 UseFst=F UseS4=T ISplat=2.
 PrismC was handed    33487602 working-precision words and  2595 shell-pairs
 Enter PrismC:  IPart=  1 JobTyp=22 DoJE=F Cont=F.
 PrismC:  IPart=    13 DynPar=T LinDyn=F Incr=        1024 UseFst=F UseS4=T ISplat=2.
 Enter PrismC:  IPart=  3 JobTyp=22 DoJE=F Cont=F.
 PrismC was handed    33487602 working-precision words and  2595 shell-pairs
 Enter PrismC:  IPart= 15 JobTyp=22 DoJE=F Cont=F.
 PrismC:  IPart=     1 DynPar=T LinDyn=F Incr=        1024 UseFst=F UseS4=T ISplat=2.
 PrismC:  IPart=     3 DynPar=T LinDyn=F Incr=        1024 UseFst=F UseS4=T ISplat=2.
 PrismC was handed    33487602 working-precision words and  2595 shell-pairs
 PrismC:  IPart=    16 DynPar=T LinDyn=F Incr=        1024 UseFst=F UseS4=T ISplat=2.
 PrismC was handed    33487602 working-precision words and  2595 shell-pairs
 PrismC:  IPart=    12 DynPar=T LinDyn=F Incr=        1024 UseFst=F UseS4=T ISplat=2.
 PrismC was handed    33487602 working-precision words and  2595 shell-pairs
 PrismC was handed    33487602 working-precision words and  2595 shell-pairs
 PrismC:  IPart=    15 DynPar=T LinDyn=F Incr=        1024 UseFst=F UseS4=T ISplat=2.
 PrismC was handed    33487602 working-precision words and  2595 shell-pairs
 Enter PrismC:  IPart= 19 JobTyp=22 DoJE=F Cont=F.
 PrismC:  IPart=    19 DynPar=T LinDyn=F Incr=        1024 UseFst=F UseS4=T ISplat=2.
 PrismC was handed    33487602 working-precision words and  2595 shell-pairs
 Enter PrismC:  IPart= 18 JobTyp=22 DoJE=F Cont=F.
 Enter PrismC:  IPart=  9 JobTyp=22 DoJE=F Cont=F.
 PrismC:  IPart=    18 DynPar=T LinDyn=F Incr=        1024 UseFst=F UseS4=T ISplat=2.
 PrismC was handed    33487602 working-precision words and  2595 shell-pairs
 PrismC:  IPart=     9 DynPar=T LinDyn=F Incr=        1024 UseFst=F UseS4=T ISplat=2.
 PrismC was handed    33487602 working-precision words and  2595 shell-pairs
 Enter PrismC:  IPart= 14 JobTyp=22 DoJE=F Cont=F.
 Enter PrismC:  IPart= 10 JobTyp=22 DoJE=F Cont=F.
 PrismC:  IPart=    14 DynPar=T LinDyn=F Incr=        1024 UseFst=F UseS4=T ISplat=2.
 PrismC was handed    33487602 working-precision words and  2595 shell-pairs
 PrismC:  IPart=    10 DynPar=T LinDyn=F Incr=        1024 UseFst=F UseS4=T ISplat=2.
 PrismC was handed    33487602 working-precision words and  2595 shell-pairs
 Enter PrismC:  IPart= 17 JobTyp=22 DoJE=F Cont=F.
 PrismC:  IPart=    17 DynPar=T LinDyn=F Incr=        1024 UseFst=F UseS4=T ISplat=2.
 PrismC was handed    33487602 working-precision words and  2595 shell-pairs
 IPart= 17 NShTot=      122604 NShNF=      122604 NShFF=           0 MinMC=       7
           NShCPU=      122604 NBCPU=        4944 AvBCPU=        24.8
           NShGPU=           0 NBGPU=           0 AvBGPU=         0.0
 IPart=  4 NShTot=      109587 NShNF=      109587 NShFF=           0 MinMC=       7
           NShCPU=      109587 NBCPU=        4738 AvBCPU=        23.1
           NShGPU=           0 NBGPU=           0 AvBGPU=         0.0
 IPart= 13 NShTot=      116073 NShNF=      116073 NShFF=           0 MinMC=       7
           NShCPU=      116073 NBCPU=        5209 AvBCPU=        22.3
           NShGPU=           0 NBGPU=           0 AvBGPU=         0.0
 IPart=  5 NShTot=      112610 NShNF=      112610 NShFF=           0 MinMC=       7
           NShCPU=      112610 NBCPU=        4701 AvBCPU=        24.0
           NShGPU=           0 NBGPU=           0 AvBGPU=         0.0
 IPart= 11 NShTot=      112773 NShNF=      112773 NShFF=           0 MinMC=       7
           NShCPU=      112773 NBCPU=        4820 AvBCPU=        23.4
           NShGPU=           0 NBGPU=           0 AvBGPU=         0.0
 IPart=  7 NShTot=      124809 NShNF=      124809 NShFF=           0 MinMC=       7
           NShCPU=      124809 NBCPU=        5769 AvBCPU=        21.6
           NShGPU=           0 NBGPU=           0 AvBGPU=         0.0
 IPart=  6 NShTot=      114656 NShNF=      114656 NShFF=           0 MinMC=       7
           NShCPU=      114656 NBCPU=        4792 AvBCPU=        23.9
           NShGPU=           0 NBGPU=           0 AvBGPU=         0.0
 IPart= 16 NShTot=      122723 NShNF=      122723 NShFF=           0 MinMC=       7
           NShCPU=      122723 NBCPU=        5118 AvBCPU=        24.0
           NShGPU=           0 NBGPU=           0 AvBGPU=         0.0
 IPart=  9 NShTot=      108326 NShNF=      108326 NShFF=           0 MinMC=       7
           NShCPU=      108326 NBCPU=        4535 AvBCPU=        23.9
           NShGPU=           0 NBGPU=           0 AvBGPU=         0.0
 IPart=  0 NShTot=      116930 NShNF=      116930 NShFF=           0 MinMC=       7
           NShCPU=      116930 NBCPU=        5433 AvBCPU=        21.5
           NShGPU=           0 NBGPU=           0 AvBGPU=         0.0
 IPart=  1 NShTot=      110758 NShNF=      110758 NShFF=           0 MinMC=       7
           NShCPU=      110758 NBCPU=        4753 AvBCPU=        23.3
           NShGPU=           0 NBGPU=           0 AvBGPU=         0.0
 IPart= 12 NShTot=      129946 NShNF=      129946 NShFF=           0 MinMC=       7
           NShCPU=      129946 NBCPU=        5686 AvBCPU=        22.9
           NShGPU=           0 NBGPU=           0 AvBGPU=         0.0
 IPart=  8 NShTot=      119719 NShNF=      119719 NShFF=           0 MinMC=       7
           NShCPU=      119719 NBCPU=        5014 AvBCPU=        23.9
           NShGPU=           0 NBGPU=           0 AvBGPU=         0.0
 IPart=  3 NShTot=      108052 NShNF=      108052 NShFF=           0 MinMC=       7
           NShCPU=      108052 NBCPU=        4892 AvBCPU=        22.1
           NShGPU=           0 NBGPU=           0 AvBGPU=         0.0
 IPart= 18 NShTot=      120654 NShNF=      120654 NShFF=           0 MinMC=       7
           NShCPU=      120654 NBCPU=        5421 AvBCPU=        22.3
           NShGPU=           0 NBGPU=           0 AvBGPU=         0.0
 IPart= 15 NShTot=      120134 NShNF=      120134 NShFF=           0 MinMC=       7
           NShCPU=      120134 NBCPU=        5007 AvBCPU=        24.0
           NShGPU=           0 NBGPU=           0 AvBGPU=         0.0
 IPart=  2 NShTot=      108896 NShNF=      108896 NShFF=           0 MinMC=       7
           NShCPU=      108896 NBCPU=        4768 AvBCPU=        22.8
           NShGPU=           0 NBGPU=           0 AvBGPU=         0.0
 IPart= 19 NShTot=      115678 NShNF=      115678 NShFF=           0 MinMC=       7
           NShCPU=      115678 NBCPU=        5091 AvBCPU=        22.7
           NShGPU=           0 NBGPU=           0 AvBGPU=         0.0
 IPart= 14 NShTot=      107506 NShNF=      107506 NShFF=           0 MinMC=       7
           NShCPU=      107506 NBCPU=        4725 AvBCPU=        22.8
           NShGPU=           0 NBGPU=           0 AvBGPU=         0.0
 IPart= 10 NShTot=      117396 NShNF=      117396 NShFF=           0 MinMC=       7
           NShCPU=      117396 NBCPU=        5223 AvBCPU=        22.5
           NShGPU=           0 NBGPU=           0 AvBGPU=         0.0
 CoulSu:  NxtVal=        3534849 LenVP=       33487603 MinMC=       7.
 ReadGW:  IGet=0 IStart=           1 Next=           1 LGW=           0.
 Remaining memory in FofDFT      639.92 Mw
 CkSvGd:  ISavGI=        -1 IRadAn=       5 IRASav=       5 ISavGd=        -1.
 CalDSu-InSpLW:  IPartL=    0 NPrtUS=   20 NPrtUL=    1 DoSpLW=F IThBeg=    0 IThEnd=   19 NThAct=   20.
 CalDSu:  NPrtUS=  20 ThrOK=T IAlg=1 NPAlg=2 DoDPD=T LenP=       39060 LenD1P=             0 GPUOK=F
          ISkipM=0 DoSpLW=F IThBeg=    0 IThEnd=   19.
 IPart=  0 IRanGd=          0 ScrnBf=T ScrnGd=T RCrit=4.00D+00 DoMicB=T.
 IPart=  0        12052 of        13360 points in      14 batches and       58 microbatches, Max-NSigAt=      11 Max-NSgAt2=      11
 IPart= 18        11960 of        13456 points in      14 batches and       48 microbatches, Max-NSigAt=      11 Max-NSgAt2=      11
 IPart= 14        12268 of        14018 points in      15 batches and       69 microbatches, Max-NSigAt=      11 Max-NSgAt2=      11
 IPart=  5        11300 of        12238 points in      12 batches and       57 microbatches, Max-NSigAt=      11 Max-NSgAt2=      11
 IPart=  6        11312 of        11848 points in      11 batches and       49 microbatches, Max-NSigAt=      11 Max-NSgAt2=      11
 IPart=  3        11669 of        12770 points in      13 batches and       62 microbatches, Max-NSigAt=      11 Max-NSgAt2=      11
 IPart=  7        10694 of        11760 points in      13 batches and       69 microbatches, Max-NSigAt=      11 Max-NSgAt2=      11
 IPart= 15        11800 of        13730 points in      15 batches and       91 microbatches, Max-NSigAt=      11 Max-NSgAt2=      11
 IPart=  2        11582 of        12560 points in      13 batches and       61 microbatches, Max-NSigAt=      11 Max-NSgAt2=      11
 IPart=  4        10790 of        11610 points in      12 batches and       66 microbatches, Max-NSigAt=      11 Max-NSgAt2=      11
 IPart=  1        10577 of        11486 points in      12 batches and       85 microbatches, Max-NSigAt=      11 Max-NSgAt2=      11
 IPart= 16        10119 of        10900 points in      11 batches and       70 microbatches, Max-NSigAt=      11 Max-NSgAt2=      11
 IPart= 13        11704 of        12082 points in      11 batches and       47 microbatches, Max-NSigAt=      11 Max-NSgAt2=      11
 IPart= 10        12836 of        15166 points in      17 batches and       71 microbatches, Max-NSigAt=      11 Max-NSgAt2=      11
 IPart= 11        11528 of        12212 points in      12 batches and       51 microbatches, Max-NSigAt=      11 Max-NSgAt2=      11
 IPart=  8        11114 of        13758 points in      17 batches and      112 microbatches, Max-NSigAt=      11 Max-NSgAt2=      11
 IPart=  9        11807 of        13086 points in      14 batches and       54 microbatches, Max-NSigAt=      11 Max-NSgAt2=      11
 IPart= 17        11883 of        12880 points in      14 batches and       77 microbatches, Max-NSigAt=      11 Max-NSgAt2=      11
 IPart= 19         9868 of        10676 points in      11 batches and       66 microbatches, Max-NSigAt=      11 Max-NSgAt2=      11
 IPart= 12        11370 of        12492 points in      13 batches and       70 microbatches, Max-NSigAt=      11 Max-NSgAt2=      11
 Polarizability after L703:
                1             2             3 
      1  0.000000D+00
      2  0.000000D+00  0.000000D+00
      3  0.000000D+00  0.000000D+00  0.000000D+00
 Dipole Derivatives after L703:
                 1             2             3             4             5 
      1  -0.192763D+01  0.746534D+00  0.128725D+00 -0.108597D+01  0.618332D+00
      2   0.156297D+00 -0.331577D+00 -0.484758D-02 -0.162199D-01 -0.255803D+00
      3   0.117973D+00 -0.127642D+00 -0.490851D+00 -0.182539D+00  0.142710D+00
                 6             7             8             9            10 
      1  -0.279803D+00 -0.444746D+00 -0.462620D+00  0.841172D-01  0.163374D+00
      2  -0.505773D-02 -0.207426D-01 -0.195029D+00 -0.337254D-01  0.197623D+00
      3  -0.524151D+00  0.303951D-01  0.426783D-02 -0.579493D+00 -0.525110D-01
                11            12            13            14            15 
      1  -0.902485D+00 -0.302170D+00 -0.184492D+00  0.319521D+00  0.149678D+00
      2  -0.791355D+00  0.134706D+00  0.463880D-01 -0.897210D+00  0.105166D+00
      3  -0.593774D-01 -0.234399D+00  0.315851D+00  0.304396D+00 -0.102018D+01
                16            17            18            19            20 
      1   0.704983D-01  0.430948D+00 -0.348012D+00  0.186074D+00 -0.220856D-02
      2  -0.800352D-01  0.848076D-01 -0.616774D-02  0.399234D-01  0.229663D+00
      3  -0.224147D+00 -0.420392D-01  0.651245D+00 -0.501512D-01 -0.149655D+00
                21            22            23            24            25 
      1   0.593550D-01  0.192130D+00 -0.203191D+00 -0.113137D+00  0.146040D+00
      2  -0.322541D+00 -0.110198D+00  0.804760D+00  0.297523D+00 -0.154459D+00
      3   0.889200D+00 -0.264224D-01 -0.434230D-01  0.163906D+00 -0.648281D-01
                26            27            28            29            30 
      1   0.407160D+00 -0.165675D+00  0.150087D+01 -0.314158D+00  0.358370D+00
      2   0.679640D+00 -0.172457D+00 -0.125779D+00  0.368238D+00 -0.173152D-01
      3   0.621966D-01  0.297798D+00 -0.110277D+00  0.600314D-01  0.413171D+00
                31            32            33 
      1   0.138385D+01 -0.637832D+00  0.428552D+00
      2   0.672036D-01  0.303865D+00  0.247178D-01
      3   0.246656D+00 -0.151466D+00  0.433750D+00
 Hessian after L703:
                1             2             3             4             5 
      1  0.573497D+00
      2 -0.142817D+00  0.107474D+00
      3 -0.374273D-01  0.739981D-01  0.386579D+00
      4 -0.165742D-02  0.623633D-03  0.180081D-02  0.400335D+00
      5 -0.446834D-03  0.456976D-03  0.846703D-03 -0.402188D-01  0.379847D+00
      6 -0.118332D-02  0.185497D-03  0.109429D-02  0.131357D+00 -0.267454D-01
      7 -0.184836D-02  0.651251D-03  0.155640D-02  0.154644D-01 -0.498704D-01
      8  0.117121D-02  0.179542D-02 -0.999605D-03 -0.438294D-01 -0.785940D-01
      9 -0.126013D-02  0.434715D-04  0.789945D-03 -0.258175D-02 -0.152375D-01
     10 -0.137493D+00  0.519360D-01  0.125053D+00 -0.516416D-02  0.302897D-02
     11  0.479411D-01 -0.826517D-01 -0.898155D-01  0.135975D-02  0.133330D-02
     12  0.122951D+00 -0.801350D-01 -0.257715D+00 -0.502835D-02  0.780480D-03
     13 -0.329911D-01 -0.936543D-02  0.136468D-01 -0.224821D-01  0.583750D-02
     14  0.107499D-01  0.990286D-02  0.367820D-03 -0.202241D-01  0.110221D-01
     15  0.470093D-01  0.181161D-01 -0.190732D-01 -0.126053D-01 -0.380096D-03
     16  0.244670D-02  0.602366D-03 -0.462769D-02 -0.178517D+00 -0.243567D-01
     17 -0.180563D-02 -0.202329D-02  0.543068D-03 -0.390457D-01 -0.146761D+00
     18  0.287751D-02  0.192192D-02 -0.293327D-02 -0.401697D-01 -0.554990D-02
     19 -0.569337D-02 -0.320907D-02  0.476039D-02 -0.252969D-02 -0.631541D-03
     20 -0.756974D-03 -0.966086D-03  0.212382D-02 -0.122621D-04 -0.263177D-03
     21  0.389979D-03  0.111374D-02  0.630443D-03 -0.855497D-03  0.561199D-03
     22  0.223150D-02  0.142986D-03 -0.723093D-03 -0.436706D-03 -0.128709D-02
     23  0.309221D-02  0.300817D-02 -0.903648D-03 -0.155135D-02  0.116522D-02
[...]
                                 (Linear)    (Quad)   (Total)
    R1        2.68754  -0.00000   0.00000  -0.00000  -0.00000   2.68754
    R2        1.81360  -0.00000   0.00000   0.00000   0.00000   1.81360
    R3        2.53481   0.00000   0.00000   0.00000   0.00000   2.53482
    R4        1.82594   0.00000   0.00000   0.00000   0.00000   1.82594
    R5        2.26130  -0.00000   0.00000  -0.00000  -0.00000   2.26130
    R6        2.72941  -0.00000   0.00000  -0.00000  -0.00000   2.72941
    R7        1.92242  -0.00000   0.00000  -0.00000  -0.00000   1.92242
    R8        2.86620   0.00000   0.00000   0.00000   0.00000   2.86620
    R9        2.06489   0.00000   0.00000   0.00000   0.00000   2.06489
   R10        2.05480   0.00000   0.00000   0.00000   0.00000   2.05480
    A1        1.80930  -0.00000   0.00000  -0.00000  -0.00000   1.80930
    A2        1.88058   0.00000   0.00000   0.00000   0.00000   1.88058
    A3        1.86590   0.00000   0.00000   0.00000   0.00000   1.86590
    A4        1.80873   0.00000   0.00000   0.00000   0.00000   1.80873
    A5        1.88194  -0.00000   0.00000  -0.00000  -0.00000   1.88194
    A6        1.97214  -0.00000   0.00000   0.00000   0.00000   1.97214
    A7        1.89374   0.00000   0.00000   0.00000   0.00000   1.89374
    A8        1.91614   0.00000   0.00000   0.00000   0.00000   1.91614
    A9        1.87384   0.00000   0.00000   0.00000   0.00000   1.87384
   A10        1.92232   0.00000   0.00000  -0.00000  -0.00000   1.92232
   A11        1.88290  -0.00000   0.00000  -0.00000  -0.00000   1.88290
   A12        2.15609   0.00000   0.00000   0.00000   0.00000   2.15609
   A13        1.95628  -0.00000   0.00000  -0.00000  -0.00000   1.95628
   A14        2.17008   0.00000   0.00000   0.00000   0.00000   2.17008
    D1       -2.18024  -0.00000   0.00000  -0.00000  -0.00000  -2.18024
    D2        2.11739   0.00000   0.00000  -0.00000  -0.00000   2.11739
    D3       -0.00693  -0.00000   0.00000   0.00000   0.00000  -0.00693
    D4        3.09481   0.00000   0.00000   0.00000   0.00000   3.09481
    D5       -1.13953   0.00000   0.00000  -0.00000  -0.00000  -1.13953
    D6        3.06776   0.00000   0.00000  -0.00000  -0.00000   3.06776
    D7        1.01388  -0.00000   0.00000  -0.00000  -0.00000   1.01387
    D8        0.79581   0.00000   0.00000  -0.00000  -0.00000   0.79581
    D9       -1.28008   0.00000   0.00000  -0.00000  -0.00000  -1.28008
   D10        2.94921   0.00000   0.00000  -0.00000  -0.00000   2.94921
   D11        2.75820   0.00000   0.00000   0.00001   0.00001   2.75821
   D12       -0.42362   0.00000   0.00000   0.00001   0.00001  -0.42361
   D13       -1.43760   0.00000   0.00000   0.00001   0.00001  -1.43759
   D14        1.66376   0.00000   0.00000   0.00001   0.00001   1.66378
   D15        0.60822   0.00000   0.00000   0.00001   0.00001   0.60823
   D16       -2.57360   0.00000   0.00000   0.00001   0.00001  -2.57359
         Item               Value     Threshold  Converged?
 Maximum Force            0.000001     0.000002     YES
 RMS     Force            0.000000     0.000001     YES
 Maximum Displacement     0.000019     0.000006     NO 
 RMS     Displacement     0.000005     0.000004     NO 
 Predicted change in Energy=-1.748146D-12
                           ----------------------------
                           ! Non-Optimized Parameters !
                           ! (Angstroms and Degrees)  !
 --------------------------                            --------------------------
 ! Name  Definition              Value          Derivative Info.                !
 --------------------------------------------------------------------------------
 ! R1    R(1,4)                  1.4222         -DE/DX =    0.0                 !
 ! R2    R(1,10)                 0.9597         -DE/DX =    0.0                 !
 ! R3    R(2,6)                  1.3414         -DE/DX =    0.0                 !
 ! R4    R(2,11)                 0.9662         -DE/DX =    0.0                 !
 ! R5    R(3,6)                  1.1966         -DE/DX =    0.0                 !
 ! R6    R(4,5)                  1.4443         -DE/DX =    0.0                 !
 ! R7    R(4,9)                  1.0173         -DE/DX =    0.0                 !
 ! R8    R(5,6)                  1.5167         -DE/DX =    0.0                 !
 ! R9    R(5,7)                  1.0927         -DE/DX =    0.0                 !
 ! R10   R(5,8)                  1.0874         -DE/DX =    0.0                 !
 ! A1    A(4,1,10)             103.6654         -DE/DX =    0.0                 !
 ! A2    A(6,2,11)             107.749          -DE/DX =    0.0                 !
 ! A3    A(1,4,5)              106.9082         -DE/DX =    0.0                 !
 ! A4    A(1,4,9)              103.6324         -DE/DX =    0.0                 !
 ! A5    A(5,4,9)              107.8272         -DE/DX =    0.0                 !
 ! A6    A(4,5,6)              112.9956         -DE/DX =    0.0                 !
 ! A7    A(4,5,7)              108.5035         -DE/DX =    0.0                 !
 ! A8    A(4,5,8)              109.7869         -DE/DX =    0.0                 !
 ! A9    A(6,5,7)              107.3634         -DE/DX =    0.0                 !
 ! A10   A(6,5,8)              110.141          -DE/DX =    0.0                 !
 ! A11   A(7,5,8)              107.8823         -DE/DX =    0.0                 !
 ! A12   A(2,6,3)              123.5347         -DE/DX =    0.0                 !
 ! A13   A(2,6,5)              112.0864         -DE/DX =    0.0                 !
 ! A14   A(3,6,5)              124.3364         -DE/DX =    0.0                 !
 ! D1    D(10,1,4,5)          -124.9183         -DE/DX =    0.0                 !
 ! D2    D(10,1,4,9)           121.3173         -DE/DX =    0.0                 !
 ! D3    D(11,2,6,3)            -0.3972         -DE/DX =    0.0                 !
 ! D4    D(11,2,6,5)           177.3196         -DE/DX =    0.0                 !
 ! D5    D(1,4,5,6)            -65.2903         -DE/DX =    0.0                 !
 ! D6    D(1,4,5,7)            175.7698         -DE/DX =    0.0                 !
 ! D7    D(1,4,5,8)             58.0907         -DE/DX =    0.0                 !
 ! D8    D(9,4,5,6)             45.5964         -DE/DX =    0.0                 !
 ! D9    D(9,4,5,7)            -73.3434         -DE/DX =    0.0                 !
 ! D10   D(9,4,5,8)            168.9775         -DE/DX =    0.0                 !
 ! D11   D(4,5,6,2)            158.0339         -DE/DX =    0.0                 !
 ! D12   D(4,5,6,3)            -24.271          -DE/DX =    0.0                 !
 ! D13   D(7,5,6,2)            -82.3679         -DE/DX =    0.0                 !
 ! D14   D(7,5,6,3)             95.3273         -DE/DX =    0.0                 !
 ! D15   D(8,5,6,2)             34.8488         -DE/DX =    0.0                 !
 ! D16   D(8,5,6,3)           -147.456          -DE/DX =    0.0                 !
 --------------------------------------------------------------------------------
 GradGradGradGradGradGradGradGradGradGradGradGradGradGradGradGradGradGrad

 Leave Link  103 at Tue Apr  9 00:29:47 2019, MaxMem=   671088640 cpu:               0.5 elap:               0.1
 (Enter /shared/centos7/gaussian/g16/l9999.exe)

 ----------------------------------------------------------------------

 Electric dipole moment (input orientation):
 (Debye = 10**-18 statcoulomb cm , SI units = C m)
                  (au)            (Debye)         (10**-30 SI)
   Tot        0.692711D+00      0.176070D+01      0.587305D+01
   x         -0.501059D+00     -0.127357D+01     -0.424816D+01
   y          0.341081D+00      0.866942D+00      0.289181D+01
   z         -0.335339D+00     -0.852346D+00     -0.284312D+01

 Dipole polarizability, Alpha (input orientation).
 (esu units = cm**3 , SI units = C**2 m**2 J**-1)
 Alpha(0;0):
               (au)            (10**-24 esu)      (10**-40 SI)
   iso        0.449702D+02      0.666390D+01      0.741459D+01
   aniso      0.996953D+01      0.147733D+01      0.164375D+01
   xx         0.485403D+02      0.719293D+01      0.800322D+01
   yx         0.325011D+01      0.481616D+00      0.535870D+00
   yy         0.463203D+02      0.686396D+01      0.763719D+01
   zx         0.578436D+00      0.857154D-01      0.953712D-01
   zy        -0.168654D+01     -0.249919D+00     -0.278073D+00
   zz         0.400500D+02      0.593480D+01      0.660336D+01

 ----------------------------------------------------------------------

 Dipole orientation:
     8        -18.42636558          8.81058106         -3.03453847
     8        -22.58282459         14.14041160         -0.19120568
     8        -20.30640396         14.27414021         -3.75097524
     7        -16.92779060         10.65742433         -1.78300478
     6        -18.60433869         12.07289752         -0.15963995
     6        -20.55973314         13.58268635         -1.61293774
     1        -17.47891537         13.41422563          0.93490640
     1        -19.53119105         10.80109891          1.16159619
     1        -16.36301820         11.82184726         -3.20457125
     1        -17.59414895          7.24721566         -2.64410895
     1        -23.70773847         15.16440025         -1.20119976

 Electric dipole moment (dipole orientation):
 (Debye = 10**-18 statcoulomb cm , SI units = C m)
                  (au)            (Debye)         (10**-30 SI)
   Tot        0.692711D+00      0.176070D+01      0.587305D+01
   x          0.000000D+00      0.000000D+00      0.000000D+00
   y          0.000000D+00      0.000000D+00      0.000000D+00
   z          0.692711D+00      0.176070D+01      0.587305D+01

 Dipole polarizability, Alpha (dipole orientation).
 (esu units = cm**3 , SI units = C**2 m**2 J**-1)
 Alpha(0;0):
               (au)            (10**-24 esu)      (10**-40 SI)
   iso        0.449702D+02      0.666390D+01      0.741459D+01
   aniso      0.996953D+01      0.147733D+01      0.164375D+01
   xx         0.450240D+02      0.667187D+01      0.742346D+01
   yx        -0.543122D+01     -0.804824D+00     -0.895487D+00
   yy         0.449802D+02      0.666538D+01      0.741624D+01
   zx        -0.184539D+01     -0.273459D+00     -0.304264D+00
   zy         0.472608D+00      0.700334D-01      0.779226D-01
   zz         0.449064D+02      0.665444D+01      0.740406D+01

 ----------------------------------------------------------------------

 Test job not archived.
 1\1\GINC-C0263\Freq\RM062X\6-311+G(2df,2p)\C2H5N1O3\UNDERKOFFLER.C\09-
 Apr-2019\0\\#P Geom=AllCheck Guess=TCheck SCRF=Check Test GenChk RM062
 X/6-311+G(2df,2p) Freq\\Gaussian input prepared by ASE\\0,1\O,-6.27059
 23298,-7.03141684,5.534745543\O,-9.4598738365,-9.178079232,5.008591818
 1\O,-7.3343368492,-9.8757258803,5.0143171149\N,-6.470737867,-7.3326614
 903,4.159314836\C,-7.8462876629,-7.7492617213,4.0163707578\C,-8.151698
 9189,-9.0446836769,4.7437423265\H,-8.0499950822,-7.9149920157,2.955703
 9436\H,-8.5080648906,-6.959641919,4.364056874\H,-5.880976898,-8.146866
 6939,4.0039017115\H,-5.9363658948,-6.1318517073,5.5235303342\H,-9.5887
 359788,-10.0374501636,5.4310979186\\Version=EM64L-G16RevA.03\State=1-A
 \HF=-359.5939234\RMSD=8.403e-09\RMSF=2.365e-06\ZeroPoint=0.0855435\The
 rmal=0.0919494\Dipole=-0.5010593,0.3410814,-0.3353387\DipoleDeriv=-0.4
 945096,-0.0228865,-0.0814367,-0.0107177,-0.2837981,-0.0925767,-0.19131
 56,-0.2553194,-0.5642254,-1.3692797,-0.1167897,0.17045,-0.2984841,-0.4
 492382,0.0519117,0.2917842,0.0607766,-0.4212189,-0.9349298,0.1443027,0
 .0095618,0.360912,-0.9050084,0.1717909,-0.0667198,0.2303781,-0.4322761
 ,-0.2533656,-0.0948545,0.1587274,-0.0671701,-0.2253483,0.2008415,0.196
 3466,0.2400169,0.0505162,0.331467,0.1623722,0.0030709,0.0292747,0.1247
 117,0.0346235,0.0550495,0.1127713,0.1009609,1.8229899,-0.0985567,-0.18
 82134,-0.1422868,1.0639637,-0.3214585,-0.1778306,-0.3708887,0.4702273,
 0.0438941,-0.0506039,-0.0098285,-0.0465421,0.0356811,-0.0291655,-0.038
 5181,-0.022666,-0.0217435,0.0076267,-0.0003271,0.0118246,0.0371255,-0.
 0096147,-0.0063097,0.0532153,-0.0293814,0.0794809,0.2026872,0.02328,-0
 .0541742,0.0923185,0.1410287,-0.079862,-0.1165759,-0.0491241,0.1551966
 ,0.3260487,-0.0117093,0.0100613,-0.0071799,0.2531798,0.0390995,0.01308
 38,0.053061,0.2541634,0.3173711,0.0657726,-0.0300432,0.0527499,0.25444
 27,0.0311054,-0.0185195,0.0303757,0.3289186\Polar=48.5403075,3.2501068
 ,46.3203076,0.5784362,-1.6865387,40.0500238\Quadrupole=-0.0189276,0.96
 74162,-0.9484887,3.7438303,-0.9360252,0.8800993\PG=C01 [X(C2H5N1O3)]\N
 Imag=0\\0.13015113,0.20077226,0.56691906,0.03616491,0.05303684,0.32761
 556,0.00043914,-0.00055488,-0.00136073,0.44229746,0.00018168,0.0004526
 9,-0.00136750,0.04888444,0.51832304,-0.00036107,0.00035330,0.00094597,
 -0.08528340,-0.23269041,0.16205429,0.00056871,-0.00050767,0.00049427,-
 0.10074650,0.04875790,-0.00345255,0.49295087,-0.00183573,-0.00010371,-
 0.00233848,0.04149521,0.02444084,-0.00413898,-0.38538143,0.47113464,0.
 00017495,-0.00061686,0.00119439,0.00176474,-0.00520840,0.03114317,0.11
 530266,-0.15184872,0.08817517,-0.06470940,-0.00921282,-0.01921754,-0.0
 0082929,-0.00505016,0.00175088,0.00239834,0.00363694,-0.00075924,0.530
 47874,-0.00742418,-0.07984995,-0.05018102,-0.00430202,-0.00639565,0.00
 403440,-0.00383548,0.00174202,0.00033920,-0.11224676,0.46858948,-0.020
 93710,-0.04309119,-0.23875989,0.00313392,0.00558004,-0.00323956,0.0010
 5783,0.00076039,-0.00273749,0.01167014,0.11946630,0.36943781,-0.005790
 62,-0.00776202,-0.00560886,-0.01567450,-0.03218954,0.02165910,0.000038
 99,0.03246854,-0.01590920,-0.23243092,-0.01092165,-0.02222099,0.568352
 26,-0.00918558,-0.00619647,-0.00392325,-0.00440169,-0.00162310,0.00837
 497,0.00972936,-0.02825926,0.02763537,-0.05294551,-0.09251689,-0.02044
 016,-0.06300019,0.52964765,-0.05038397,-0.02313412,-0.02594613,0.00738
 474,0.01079787,0.00562366,-0.00408421,0.02100775,0.01447994,0.02442106
 ,-0.00642857,-0.07342184,-0.00471010,0.05698255,0.56425008,0.00190125,
 0.00303569,0.00164984,-0.27434032,-0.03928719,0.05147571,-0.40462027,0
 .30621548,-0.09757342,-0.02706419,-0.03365758,0.01843850,-0.07951574,-
 0.02037380,0.00895849,0.79109092,0.00299209,0.00027010,0.00410635,-0.0
 2014534,-0.12643358,0.03201600,0.32530163,-0.45570713,0.13100034,-0.01
 683922,-0.01178310,0.00346339,-0.01806030,-0.16057925,0.03280718,-0.22
 631988,0.77179163,0.00003058,-0.00138337,0.00064139,0.04177604,0.03516
 724,-0.08800818,-0.10422936,0.13366776,-0.12628531,0.00435124,-0.00160
 849,0.00596852,0.00962668,0.03470021,-0.11571942,0.02083295,-0.2268938
 8,0.33898332,-0.00669391,-0.00314242,-0.00388740,-0.00139592,-0.001149
 23,-0.00041104,0.00043509,-0.00072301,-0.00000707,-0.00450482,-0.00865
 317,-0.03211949,-0.05451887,-0.00698630,-0.03592742,0.00199505,0.00515
 775,0.00424666,0.06077297,-0.00434217,-0.00001231,-0.00199805,-0.00126
 431,-0.00132824,-0.00165842,-0.00013923,-0.00499940,-0.00323021,0.0000
 6072,-0.00315772,-0.01008524,-0.00755433,-0.05053082,-0.03166560,0.006
 49102,0.00696110,0.03193166,0.01202357,0.05524368,-0.00102875,-0.00020
 722,0.00222550,0.00057540,0.00120001,0.00068687,0.00103483,0.00143495,
 0.00164616,-0.00159067,-0.00127313,-0.00289171,-0.04518680,-0.03913034
 ,-0.29839939,-0.00305599,-0.00220065,-0.01809014,0.05094366,0.04034274
 ,0.32339145,0.00386944,-0.00006549,0.00067519,-0.00080178,-0.00119742,
 0.00110271,0.00112666,-0.00166015,0.00249015,-0.02929553,0.02365902,0.
 01272227,-0.14201716,0.11654904,0.05157043,0.00386216,-0.00192922,-0.0
 0525626,0.00442581,-0.00521481,-0.00143021,0.16436359,-0.00001141,0.00
 076361,0.00095224,-0.00148697,0.00158475,0.00095657,-0.00115479,-0.004
 53017,0.00526785,-0.00858346,0.01065521,0.00432375,0.12080779,-0.20089
 316,-0.06679210,0.01995759,-0.01869725,-0.01347949,0.00126190,-0.00225
 839,-0.00074492,-0.12776263,0.21329630,-0.00031394,0.00154697,0.000703
 90,-0.00008199,-0.00070076,-0.00068148,-0.00037390,0.00404997,-0.00342
 448,-0.00326942,0.00130402,-0.00014633,0.05825214,-0.06753600,-0.07414
 415,-0.01069561,0.01355705,0.00693137,0.01849578,-0.02270685,-0.008411
 49,-0.05959169,0.06996120,0.07842698,0.00539475,-0.00892186,-0.0070690
 0,0.00186390,0.00023014,-0.00052315,0.00292135,-0.00021727,-0.00081718
 ,-0.16936855,0.16127952,0.02503876,-0.03144151,0.03125716,0.00556937,-
 0.00318887,0.00304206,0.00084159,0.00014515,0.00007011,-0.00032265,-0.
 00530911,-0.00293812,-0.00174487,0.19784131,-0.00452632,-0.00607249,-0
 .00124377,0.00195289,-0.00037099,-0.00013420,0.00078250,-0.00113309,-0
 .00033599,0.19986918,-0.28617298,-0.06362884,-0.01264571,0.00762911,0.
 00602190,-0.00460269,0.00178639,0.00053563,0.00175237,0.00021411,-0.00
 020638,-0.00277925,-0.00017701,0.00094029,-0.18191439,0.28516669,0.017
 11196,-0.04290484,-0.02892491,-0.00135356,-0.00000963,0.00060344,-0.00
 132134,-0.00056621,-0.00060299,0.00000736,-0.01979895,-0.03947492,0.00
 222321,0.00619103,0.00338181,0.00206486,-0.00174886,-0.00005707,0.0003
 2251,0.00006409,-0.00038598,-0.00170316,-0.00090190,0.00037256,-0.0191
 6035,0.06072767,0.07025350,-0.06541754,-0.17392902,-0.00172995,0.00008
 234,0.00019102,0.00002589,-0.00004662,0.00044641,-0.00025502,-0.003534
 69,-0.00238053,0.00220016,-0.00167929,-0.00285100,-0.00301869,0.000228
 20,0.00004051,0.00010500,-0.00067512,0.00003769,-0.00026740,-0.0004105
 2,-0.00021982,-0.00039964,0.00117425,0.00234218,0.00166816,0.07029649,
 -0.17684733,-0.47629123,0.00316323,0.00042791,0.00048954,-0.00028741,-
 0.00003832,0.00035055,-0.00035861,0.00133462,-0.00148299,0.00313401,-0
 .00065349,0.00053976,-0.00006686,0.00039722,-0.00088241,0.00030868,0.0
 0043643,0.00025895,0.00028399,0.00023586,-0.00018047,-0.00012437,-0.00
 168747,-0.00071135,-0.00119300,0.17636502,0.47789502,0.01973725,0.0564
 1357,-0.03937938,0.00041499,0.00009354,-0.00005270,0.00052793,0.000240
 76,0.00046826,-0.01772618,-0.04653594,-0.01436983,-0.00074725,-0.00278
 090,-0.00548046,-0.00084676,0.00024074,-0.00092466,-0.00117815,-0.0002
 6465,-0.00004361,-0.00002055,0.00022824,0.00039753,-0.00178210,-0.0027
 6677,-0.00516718,0.00166017,-0.00487307,0.06448368,0.00028706,0.000288
 22,-0.00011073,-0.05089453,-0.01937164,0.01401692,0.00497338,0.0055550
 2,-0.00441136,-0.00113968,-0.00151716,0.00101599,-0.00532265,0.0022085
 1,0.00022031,-0.01034820,-0.05324009,0.02767488,0.00001458,-0.00016827
 ,0.00032859,0.00018644,0.00012992,-0.00027685,-0.00003267,-0.00023077,
 0.00014036,-0.00001750,0.00002955,-0.00003936,0.06229376,0.00022669,0.
 00012070,-0.00020657,-0.06060523,-0.40913930,0.19317419,0.00648553,-0.
 00293530,-0.00264398,-0.00002353,0.00037257,0.00051756,-0.00048910,0.0
 0278243,0.00047000,-0.01185586,-0.00672650,0.00705406,0.00002211,-0.00
 039097,0.00050097,0.00016504,0.00043658,-0.00029151,-0.00019989,-0.000
 15837,0.00014060,-0.00004246,0.00001463,0.00000450,0.06631671,0.415623
 52,-0.00019481,-0.00001308,-0.00031640,0.03302986,0.18713801,-0.109075
 48,-0.00495617,-0.00226919,-0.00405682,0.00036237,0.00068219,-0.000364
 76,0.00262207,-0.00007348,0.00537590,0.00875144,0.01365232,-0.00343982
 ,-0.00047804,-0.00072946,0.00027234,-0.00055888,0.00022858,-0.00002440
 ,-0.00003042,0.00009049,0.00000174,0.00001132,0.00001342,0.00006835,-0
 .03855873,-0.19871981,0.11155936\\-0.00000156,0.00000386,-0.00000227,0
 .00000117,-0.00000056,0.00000177,0.00000150,0.00000113,0.00000524,-0.0
 0000043,-0.00000033,-0.00000163,0.00000008,-0.00000203,-0.00000128,-0.
 00000021,0.00000028,0.00000225,0.00000096,-0.00000519,-0.00000081,-0.0
 0000079,-0.00000159,-0.00000401,0.00000047,-0.00000027,0.00000122,-0.0
 0000235,0.00000408,-0.00000463,0.00000117,0.00000063,0.00000417\\\@


 NEVER LOSE YOUR IGNORANCE, IT CAN'T BE REPLACED.
   -- ANDY CAPP
 Job cpu time:       0 days  1 hours 23 minutes 45.5 seconds.
 Elapsed time:       0 days  0 hours  4 minutes 12.9 seconds.
 File lengths (MBytes):  RWF=   1328 Int=      0 D2E=      0 Chk=     32 Scr=     32
 Normal termination of Gaussian 16 at Tue Apr  9 00:29:47 2019.
