 Entering Gaussian System, Link 0=g16
 Input=NPWGWQRXHVJJRD-UHFFFAOYSA-N_GeoFreq_a1.com
 Output=NPWGWQRXHVJJRD-UHFFFAOYSA-N_GeoFreq_a1.log
 Initial command:
 /shared/centos7/gaussian/g16/l1.exe "/scratch/underkoffler.c/gaussian_scratch/Gau-47347.inp" -scrdir="/scratch/underkoffler.c/gaussian_scratch/"
 Entering Link 1 = /shared/centos7/gaussian/g16/l1.exe PID=     47348.
  
 Copyright (c) 1988,1990,1992,1993,1995,1998,2003,2009,2016,
            Gaussian, Inc.  All Rights Reserved.
  
 This is part of the Gaussian(R) 16 program.  It is based on
 the Gaussian(R) 09 system (copyright 2009, Gaussian, Inc.),
 the Gaussian(R) 03 system (copyright 2003, Gaussian, Inc.),
 the Gaussian(R) 98 system (copyright 1998, Gaussian, Inc.),
 the Gaussian(R) 94 system (copyright 1995, Gaussian, Inc.),
 the Gaussian 92(TM) system (copyright 1992, Gaussian, Inc.),
 the Gaussian 90(TM) system (copyright 1990, Gaussian, Inc.),
 the Gaussian 88(TM) system (copyright 1988, Gaussian, Inc.),
 the Gaussian 86(TM) system (copyright 1986, Carnegie Mellon
 University), and the Gaussian 82(TM) system (copyright 1983,
 Carnegie Mellon University). Gaussian is a federally registered
 trademark of Gaussian, Inc.
  
 This software contains proprietary and confidential information,
 including trade secrets, belonging to Gaussian, Inc.
  
 This software is provided under written license and may be
 used, copied, transmitted, or stored only in accord with that
 written license.
  
 The following legend is applicable only to US Government
 contracts under FAR:
  
                    RESTRICTED RIGHTS LEGEND
  
 Use, reproduction and disclosure by the US Government is
 subject to restrictions as set forth in subparagraphs (a)
 and (c) of the Commercial Computer Software - Restricted
 Rights clause in FAR 52.227-19.
  
 Gaussian, Inc.
 340 Quinnipiac St., Bldg. 40, Wallingford CT 06492
  
  
 ---------------------------------------------------------------
 Warning -- This program may not be used in any manner that
 competes with the business of Gaussian, Inc. or will provide
 assistance to any competitor of Gaussian, Inc.  The licensee
 of this program is prohibited from giving any competitor of
 Gaussian, Inc. access to this program.  By using this program,
 the user acknowledges that Gaussian, Inc. is engaged in the
 business of creating and licensing software in the field of
 computational chemistry and represents and warrants to the
 licensee that it is not a competitor of Gaussian, Inc. and that
 it will not use this program in any manner prohibited above.
 ---------------------------------------------------------------
  

 Cite this work as:
 Gaussian 16, Revision A.03,
 M. J. Frisch, G. W. Trucks, H. B. Schlegel, G. E. Scuseria, 
 M. A. Robb, J. R. Cheeseman, G. Scalmani, V. Barone, 
 G. A. Petersson, H. Nakatsuji, X. Li, M. Caricato, A. V. Marenich, 
 J. Bloino, B. G. Janesko, R. Gomperts, B. Mennucci, H. P. Hratchian, 
 J. V. Ortiz, A. F. Izmaylov, J. L. Sonnenberg, D. Williams-Young, 
 F. Ding, F. Lipparini, F. Egidi, J. Goings, B. Peng, A. Petrone, 
 T. Henderson, D. Ranasinghe, V. G. Zakrzewski, J. Gao, N. Rega, 
 G. Zheng, W. Liang, M. Hada, M. Ehara, K. Toyota, R. Fukuda, 
 J. Hasegawa, M. Ishida, T. Nakajima, Y. Honda, O. Kitao, H. Nakai, 
 T. Vreven, K. Throssell, J. A. Montgomery, Jr., J. E. Peralta, 
 F. Ogliaro, M. J. Bearpark, J. J. Heyd, E. N. Brothers, K. N. Kudin, 
 V. N. Staroverov, T. A. Keith, R. Kobayashi, J. Normand, 
 K. Raghavachari, A. P. Rendell, J. C. Burant, S. S. Iyengar, 
 J. Tomasi, M. Cossi, J. M. Millam, M. Klene, C. Adamo, R. Cammi, 
 J. W. Ochterski, R. L. Martin, K. Morokuma, O. Farkas, 
 J. B. Foresman, and D. J. Fox, Gaussian, Inc., Wallingford CT, 2016.
 
 ******************************************
 Gaussian 16:  EM64L-G16RevA.03 25-Dec-2016
                11-Mar-2019 
 ******************************************
 %nprocshared=20
 Will use up to   20 processors via shared memory.
 %mem=5GB
 ----------------------------------------------------------------------
 #p m062x/6-311+g(2df,2p) opt=(calcfc,verytight,gdiis,maxcycles=900) fr
 eq iop(7/33=1,2/16=3)
 ----------------------------------------------------------------------

 Warning!  Use of Opt=GDIIS is deprecated since it is seldom a good choice.

 1/6=900,7=1,10=4,18=20,19=11,26=3,38=1/1,3;
 2/9=110,12=2,16=3,17=6,18=5,40=1/2;
 3/5=4,6=6,7=214,11=2,25=1,30=1,71=2,74=-55,140=1/1,2,3;
 4//1;
 5/5=2,38=5/2;
 8/6=4,10=90,11=11/1;
 11/6=1,8=1,9=11,15=111,16=1/1,2,10;
 10/6=1,13=1/2;
 6/7=2,8=2,9=2,10=2,28=1/1;
 7/10=1,18=20,25=1,33=1/1,2,3,16;
 1/6=900,7=1,10=4,18=20,19=11,26=3/3(2);
 2/9=110,16=3/2;
 99//99;
 2/9=110,16=3/2;
 3/5=4,6=6,7=214,11=2,25=1,30=1,71=1,74=-55/1,2,3;
 4/5=5,16=3,69=1/1;
 5/5=2,38=5/2;
 7/33=1/1,2,3,16;
 1/6=900,7=1,18=20,19=11,26=3/3(-5);
 2/9=110,16=3/2;
 6/7=2,8=2,9=2,10=2,19=2,28=1/1;
 99/9=1/99;
 Leave Link    1 at Mon Mar 11 17:01:42 2019, MaxMem=   671088640 cpu:              27.3 elap:               1.4
 (Enter /shared/centos7/gaussian/g16/l101.exe)
 ------------------------------
 Gaussian input prepared by ASE
 ------------------------------
 Symbolic Z-matrix:
 Charge =  0 Multiplicity = 1
 O                    -2.79765  -2.6683    0.23059 
 O                    -4.41579  -0.57685  -2.90064 
 O                    -3.37642  -0.01203  -0.92315 
 N                    -4.27655  -2.35565   0.38525 
 C                    -4.73045  -2.03858  -0.96406 
 C                    -4.08606  -0.79887  -1.51029 
 H                    -4.56249  -2.89765  -1.6762 
 H                    -5.84376  -1.882    -0.9227 
 H                    -4.63229  -3.32606   0.54102 
 H                    -2.39223  -1.86174   0.61812 
 H                    -3.94645   0.25157  -3.13977 
 
 ITRead=  0  0  0  0  0  0  0  0  0  0  0
 MicOpt= -1 -1 -1 -1 -1 -1 -1 -1 -1 -1 -1
 NAtoms=     11 NQM=       11 NQMF=       0 NMMI=      0 NMMIF=      0
                NMic=       0 NMicF=      0.
                    Isotopes and Nuclear Properties:
 (Nuclear quadrupole moments (NQMom) in fm**2, nuclear magnetic moments (NMagM)
  in nuclear magnetons)

  Atom         1           2           3           4           5           6           7           8           9          10
 IAtWgt=          16          16          16          14          12          12           1           1           1           1
 AtmWgt=  15.9949146  15.9949146  15.9949146  14.0030740  12.0000000  12.0000000   1.0078250   1.0078250   1.0078250   1.0078250
 NucSpn=           0           0           0           2           0           0           1           1           1           1
 AtZEff=  -0.0000000  -0.0000000  -0.0000000  -0.0000000  -0.0000000  -0.0000000  -0.0000000  -0.0000000  -0.0000000  -0.0000000
 NQMom=    0.0000000   0.0000000   0.0000000   2.0440000   0.0000000   0.0000000   0.0000000   0.0000000   0.0000000   0.0000000
 NMagM=    0.0000000   0.0000000   0.0000000   0.4037610   0.0000000   0.0000000   2.7928460   2.7928460   2.7928460   2.7928460
 AtZNuc=   8.0000000   8.0000000   8.0000000   7.0000000   6.0000000   6.0000000   1.0000000   1.0000000   1.0000000   1.0000000

  Atom        11
 IAtWgt=           1
 AtmWgt=   1.0078250
 NucSpn=           1
 AtZEff=  -0.0000000
 NQMom=    0.0000000
 NMagM=    2.7928460
 AtZNuc=   1.0000000
 Leave Link  101 at Mon Mar 11 17:01:42 2019, MaxMem=   671088640 cpu:              11.2 elap:               0.6
 (Enter /shared/centos7/gaussian/g16/l103.exe)

 GradGradGradGradGradGradGradGradGradGradGradGradGradGradGradGradGradGrad
 Berny optimization.
 Initialization pass.
                           ----------------------------
                           !    Initial Parameters    !
                           ! (Angstroms and Degrees)  !
 --------------------------                            --------------------------
 ! Name  Definition              Value          Derivative Info.                !
 --------------------------------------------------------------------------------
 ! R1    R(1,4)                  1.5195         calculate D2E/DX2 analytically  !
 ! R2    R(1,10)                 0.9824         calculate D2E/DX2 analytically  !
 ! R3    R(2,6)                  1.4461         calculate D2E/DX2 analytically  !
 ! R4    R(2,11)                 0.9817         calculate D2E/DX2 analytically  !
 ! R5    R(3,6)                  1.2114         calculate D2E/DX2 analytically  !
 ! R6    R(4,5)                  1.4585         calculate D2E/DX2 analytically  !
 ! R7    R(4,9)                  1.0452         calculate D2E/DX2 analytically  !
 ! R8    R(5,6)                  1.5002         calculate D2E/DX2 analytically  !
 ! R9    R(5,7)                  1.1284         calculate D2E/DX2 analytically  !
 ! R10   R(5,8)                  1.125          calculate D2E/DX2 analytically  !
 ! A1    A(4,1,10)             101.1037         calculate D2E/DX2 analytically  !
 ! A2    A(6,2,11)             104.7583         calculate D2E/DX2 analytically  !
 ! A3    A(1,4,5)              104.6824         calculate D2E/DX2 analytically  !
 ! A4    A(1,4,9)               98.9391         calculate D2E/DX2 analytically  !
 ! A5    A(5,4,9)              103.5205         calculate D2E/DX2 analytically  !
 ! A6    A(4,5,6)              112.5093         calculate D2E/DX2 analytically  !
 ! A7    A(4,5,7)              111.8401         calculate D2E/DX2 analytically  !
 ! A8    A(4,5,8)              107.7103         calculate D2E/DX2 analytically  !
 ! A9    A(6,5,7)              109.5973         calculate D2E/DX2 analytically  !
 ! A10   A(6,5,8)              108.8717         calculate D2E/DX2 analytically  !
 ! A11   A(7,5,8)              106.0483         calculate D2E/DX2 analytically  !
 ! A12   A(2,6,3)              119.9914         calculate D2E/DX2 analytically  !
 ! A13   A(2,6,5)              112.2728         calculate D2E/DX2 analytically  !
 ! A14   A(3,6,5)              127.7284         calculate D2E/DX2 analytically  !
 ! D1    D(10,1,4,5)           106.2784         calculate D2E/DX2 analytically  !
 ! D2    D(10,1,4,9)          -147.1106         calculate D2E/DX2 analytically  !
 ! D3    D(11,2,6,3)             0.6908         calculate D2E/DX2 analytically  !
 ! D4    D(11,2,6,5)           179.7777         calculate D2E/DX2 analytically  !
 ! D5    D(1,4,5,6)            -64.6843         calculate D2E/DX2 analytically  !
 ! D6    D(1,4,5,7)             59.1799         calculate D2E/DX2 analytically  !
 ! D7    D(1,4,5,8)            175.3238         calculate D2E/DX2 analytically  !
 ! D8    D(9,4,5,6)           -167.8762         calculate D2E/DX2 analytically  !
 ! D9    D(9,4,5,7)            -44.012          calculate D2E/DX2 analytically  !
 ! D10   D(9,4,5,8)             72.1319         calculate D2E/DX2 analytically  !
 ! D11   D(4,5,6,2)            173.1227         calculate D2E/DX2 analytically  !
 ! D12   D(4,5,6,3)             -7.8773         calculate D2E/DX2 analytically  !
 ! D13   D(7,5,6,2)             48.0232         calculate D2E/DX2 analytically  !
 ! D14   D(7,5,6,3)           -132.9767         calculate D2E/DX2 analytically  !
 ! D15   D(8,5,6,2)            -67.5597         calculate D2E/DX2 analytically  !
 ! D16   D(8,5,6,3)            111.4403         calculate D2E/DX2 analytically  !
 --------------------------------------------------------------------------------
 Trust Radius=3.00D-01 FncErr=1.00D-07 GrdErr=1.00D-06 EigMax=2.50D+02 EigMin=1.00D-04
 Number of steps in this run=    100 maximum allowed number of steps=    100.
 GradGradGradGradGradGradGradGradGradGradGradGradGradGradGradGradGradGrad

 Leave Link  103 at Mon Mar 11 17:01:42 2019, MaxMem=   671088640 cpu:               0.2 elap:               0.0
 (Enter /shared/centos7/gaussian/g16/l202.exe)
                          Input orientation:                          
 ---------------------------------------------------------------------
 Center     Atomic      Atomic             Coordinates (Angstroms)
 Number     Number       Type             X           Y           Z
 ---------------------------------------------------------------------
      1          8           0       -2.797655   -2.668303    0.230589
      2          8           0       -4.415790   -0.576850   -2.900642
      3          8           0       -3.376425   -0.012034   -0.923149
      4          7           0       -4.276555   -2.355652    0.385252
      5          6           0       -4.730448   -2.038577   -0.964062
      6          6           0       -4.086060   -0.798865   -1.510289
      7          1           0       -4.562489   -2.897655   -1.676201
      8          1           0       -5.843763   -1.882004   -0.922696
      9          1           0       -4.632287   -3.326063    0.541021
     10          1           0       -2.392227   -1.861738    0.618116
     11          1           0       -3.946446    0.251575   -3.139767
 ---------------------------------------------------------------------
                    Distance matrix (angstroms):
                    1          2          3          4          5
     1  O    0.000000
     2  O    4.098432   0.000000
     3  O    2.953278   2.304295   0.000000
     4  N    1.519479   3.739067   2.831023   0.000000
     5  C    2.357845   2.446630   2.437607   1.458494   0.000000
     6  C    2.861021   1.446062   1.211371   2.460274   1.500162
     7  H    2.608273   2.628100   3.209462   2.150608   1.128436
     8  H    3.350687   2.766731   3.095891   2.095522   1.125032
     9  H    1.973548   4.410226   3.834550   1.045231   1.983061
    10  H    0.982393   4.257629   2.601068   1.961853   2.828752
    11  H    4.604857   0.981709   2.303869   4.396858   3.254711
                    6          7          8          9         10
     6  C    0.000000
     7  H    2.158571   0.000000
     8  H    2.146619   1.800272   0.000000
     9  H    3.300449   2.259310   2.386514   0.000000
    10  H    2.920425   3.323711   3.779896   2.677323   0.000000
    11  H    1.943737   3.526922   3.614882   5.178617   4.582945
                   11
    11  H    0.000000
 Stoichiometry    C2H5NO3
 Framework group  C1[X(C2H5NO3)]
 Deg. of freedom    27
 Full point group                 C1      NOp   1
 Largest Abelian subgroup         C1      NOp   1
 Largest concise Abelian subgroup C1      NOp   1
                         Standard orientation:                         
 ---------------------------------------------------------------------
 Center     Atomic      Atomic             Coordinates (Angstroms)
 Number     Number       Type             X           Y           Z
 ---------------------------------------------------------------------
      1          8           0       -1.865914    0.531845    0.647510
      2          8           0        2.110835   -0.427413    0.397633
      3          8           0        0.776894    1.243276   -0.462122
      4          7           0       -1.520529   -0.410682   -0.493178
      5          6           0       -0.216572   -0.958940   -0.137771
      6          6           0        0.857680    0.087750   -0.107644
      7          1           0       -0.244611   -1.501098    0.851494
      8          1           0        0.051039   -1.732939   -0.909137
      9          1           0       -2.182088   -1.187853   -0.267676
     10          1           0       -1.728023    1.405308    0.219557
     11          1           0        2.726212    0.336840    0.366337
 ---------------------------------------------------------------------
 Rotational constants (GHZ):           6.9582398           2.3845034           2.0365276
 Leave Link  202 at Mon Mar 11 17:01:42 2019, MaxMem=   671088640 cpu:               0.2 elap:               0.0
 (Enter /shared/centos7/gaussian/g16/l301.exe)
 Standard basis: 6-311+G(2df,2p) (5D, 7F)
 Ernie: Thresh=  0.10000D-02 Tol=  0.10000D-05 Strict=F.
 There are   279 symmetry adapted cartesian basis functions of A   symmetry.
 There are   249 symmetry adapted basis functions of A   symmetry.
   249 basis functions,   367 primitive gaussians,   279 cartesian basis functions
    24 alpha electrons       24 beta electrons
       nuclear repulsion energy       242.6987468403 Hartrees.
 IExCor= 4336 DFT=T Ex+Corr=M062X ExCW=0 ScaHFX=  0.540000
 ScaDFX=  1.000000  1.000000  1.000000  1.000000 ScalE2=  1.000000  1.000000
 IRadAn=      5 IRanWt=     -1 IRanGd=            0 ICorTp=0 IEmpDi=  4
 NAtoms=   11 NActive=   11 NUniq=   11 SFac= 1.00D+00 NAtFMM=   60 NAOKFM=F Big=F
 Integral buffers will be    131072 words long.
 Raffenetti 2 integral format.
 Two-electron integral symmetry is turned on.
 Leave Link  301 at Mon Mar 11 17:01:42 2019, MaxMem=   671088640 cpu:               1.0 elap:               0.1
 (Enter /shared/centos7/gaussian/g16/l302.exe)
 NPDir=0 NMtPBC=     1 NCelOv=     1 NCel=       1 NClECP=     1 NCelD=      1
         NCelK=      1 NCelE2=     1 NClLst=     1 CellRange=     0.0.
 One-electron integrals computed using PRISM.
 One-electron integral symmetry used in STVInt
 NBasis=   249 RedAO= T EigKep=  4.96D-05  NBF=   249
 NBsUse=   249 1.00D-06 EigRej= -1.00D+00 NBFU=   249
 Precomputing XC quadrature grid using
 IXCGrd= 4 IRadAn=           5 IRanWt=          -1 IRanGd=           0 AccXCQ= 0.00D+00.
 Generated NRdTot=       0 NPtTot=           0 NUsed=           0 NTot=          32
 NSgBfM=   279   279   279   279   279 MxSgAt=    11 MxSgA2=    11.
 Leave Link  302 at Mon Mar 11 17:01:43 2019, MaxMem=   671088640 cpu:               5.9 elap:               0.3
 (Enter /shared/centos7/gaussian/g16/l303.exe)
 DipDrv:  MaxL=1.
 Leave Link  303 at Mon Mar 11 17:01:43 2019, MaxMem=   671088640 cpu:               0.5 elap:               0.0
 (Enter /shared/centos7/gaussian/g16/l401.exe)
 ExpMin= 4.38D-02 ExpMax= 8.59D+03 ExpMxC= 1.30D+03 IAcc=3 IRadAn=         5 AccDes= 0.00D+00
 Harris functional with IExCor= 1009 and IRadAn=       5 diagonalized for initial guess.
 HarFok:  IExCor= 1009 AccDes= 0.00D+00 IRadAn=         5 IDoV= 1 UseB2=F ITyADJ=14
 ICtDFT=  3500011 ScaDFX=  1.000000  1.000000  1.000000  1.000000
 FoFCou: FMM=F IPFlag=           0 FMFlag=      100000 FMFlg1=           0
         NFxFlg=           0 DoJE=T BraDBF=F KetDBF=T FulRan=T
         wScrn=  0.000000 ICntrl=       500 IOpCl=  0 I1Cent=   200000004 NGrid=           0
         NMat0=    1 NMatS0=      1 NMatT0=    0 NMatD0=    1 NMtDS0=    0 NMtDT0=    0
 Petite list used in FoFCou.
 Harris En= -359.395378284026    
 JPrj=0 DoOrth=F DoCkMO=F.
 Leave Link  401 at Mon Mar 11 17:01:44 2019, MaxMem=   671088640 cpu:              17.7 elap:               0.9
 (Enter /shared/centos7/gaussian/g16/l502.exe)
 Keep R1 ints in memory in canonical form, NReq=506568544.
 FoFCou: FMM=F IPFlag=           0 FMFlag=           0 FMFlg1=           0
         NFxFlg=           0 DoJE=F BraDBF=F KetDBF=F FulRan=T
         wScrn=  0.000000 ICntrl=       600 IOpCl=  0 I1Cent=           0 NGrid=           0
         NMat0=    1 NMatS0=  31125 NMatT0=    0 NMatD0=    1 NMtDS0=    0 NMtDT0=    0
 Symmetry not used in FoFCou.
 Two-electron integral symmetry not used.
 Closed shell SCF:
 Using DIIS extrapolation, IDIIS=  1040.
 NGot=   671088640 LenX=   186526494 LenY=   186448212
 Requested convergence on RMS density matrix=1.00D-08 within 128 cycles.
 Requested convergence on MAX density matrix=1.00D-06.
 Requested convergence on             energy=1.00D-06.
 No special actions if energy rises.

 Cycle   1  Pass 1  IDiag  1:
 E= -359.432342653985    
 DIIS: error= 2.00D-02 at cycle   1 NSaved=   1.
 NSaved= 1 IEnMin= 1 EnMin= -359.432342653985     IErMin= 1 ErrMin= 2.00D-02
 ErrMax= 2.00D-02  0.00D+00 EMaxC= 1.00D-01 BMatC= 2.56D-01 BMatP= 2.56D-01
 IDIUse=3 WtCom= 8.00D-01 WtEn= 2.00D-01
 Coeff-Com:  0.100D+01
 Coeff-En:   0.100D+01
 Coeff:      0.100D+01
 Gap=     0.350 Goal=   None    Shift=    0.000
 GapD=    0.350 DampG=1.000 DampE=0.500 DampFc=0.5000 IDamp=-1.
 Damping current iteration by 5.00D-01
 RMSDP=2.57D-03 MaxDP=8.37D-02              OVMax= 1.47D-01

 Cycle   2  Pass 1  IDiag  1:
 E= -359.494432053865     Delta-E=       -0.062089399880 Rises=F Damp=T
 DIIS: error= 6.80D-03 at cycle   2 NSaved=   2.
 NSaved= 2 IEnMin= 2 EnMin= -359.494432053865     IErMin= 2 ErrMin= 6.80D-03
 ErrMax= 6.80D-03  0.00D+00 EMaxC= 1.00D-01 BMatC= 2.41D-02 BMatP= 2.56D-01
 IDIUse=3 WtCom= 9.32D-01 WtEn= 6.80D-02
 Coeff-Com:  0.229D-01 0.977D+00
 Coeff-En:   0.122D+00 0.878D+00
 Coeff:      0.297D-01 0.970D+00
 Gap=     0.391 Goal=   None    Shift=    0.000
 RMSDP=7.96D-04 MaxDP=3.42D-02 DE=-6.21D-02 OVMax= 8.68D-02

 Cycle   3  Pass 1  IDiag  1:
 E= -359.568618950794     Delta-E=       -0.074186896929 Rises=F Damp=F
 DIIS: error= 5.23D-03 at cycle   3 NSaved=   3.
 NSaved= 3 IEnMin= 3 EnMin= -359.568618950794     IErMin= 3 ErrMin= 5.23D-03
 ErrMax= 5.23D-03  0.00D+00 EMaxC= 1.00D-01 BMatC= 1.10D-02 BMatP= 2.41D-02
 IDIUse=3 WtCom= 9.48D-01 WtEn= 5.23D-02
 Coeff-Com: -0.795D-01 0.396D+00 0.683D+00
 Coeff-En:   0.000D+00 0.000D+00 0.100D+01
 Coeff:     -0.754D-01 0.376D+00 0.700D+00
 Gap=     0.357 Goal=   None    Shift=    0.000
 RMSDP=3.62D-04 MaxDP=1.28D-02 DE=-7.42D-02 OVMax= 3.71D-02

 Cycle   4  Pass 1  IDiag  1:
 E= -359.574887205568     Delta-E=       -0.006268254774 Rises=F Damp=F
 DIIS: error= 2.08D-03 at cycle   4 NSaved=   4.
 NSaved= 4 IEnMin= 4 EnMin= -359.574887205568     IErMin= 4 ErrMin= 2.08D-03
 ErrMax= 2.08D-03  0.00D+00 EMaxC= 1.00D-01 BMatC= 2.70D-03 BMatP= 1.10D-02
 IDIUse=3 WtCom= 9.79D-01 WtEn= 2.08D-02
 Coeff-Com: -0.389D-01 0.986D-01 0.387D+00 0.553D+00
 Coeff-En:   0.000D+00 0.000D+00 0.189D+00 0.811D+00
 Coeff:     -0.381D-01 0.966D-01 0.383D+00 0.558D+00
 Gap=     0.352 Goal=   None    Shift=    0.000
 RMSDP=1.34D-04 MaxDP=5.35D-03 DE=-6.27D-03 OVMax= 1.20D-02

 Cycle   5  Pass 1  IDiag  1:
 E= -359.576829247146     Delta-E=       -0.001942041578 Rises=F Damp=F
 DIIS: error= 3.84D-04 at cycle   5 NSaved=   5.
 NSaved= 5 IEnMin= 5 EnMin= -359.576829247146     IErMin= 5 ErrMin= 3.84D-04
 ErrMax= 3.84D-04  0.00D+00 EMaxC= 1.00D-01 BMatC= 1.04D-04 BMatP= 2.70D-03
 IDIUse=3 WtCom= 9.96D-01 WtEn= 3.84D-03
 Coeff-Com: -0.132D-01 0.252D-01 0.151D+00 0.268D+00 0.568D+00
 Coeff-En:   0.000D+00 0.000D+00 0.000D+00 0.000D+00 0.100D+01
 Coeff:     -0.132D-01 0.251D-01 0.151D+00 0.267D+00 0.570D+00
 Gap=     0.350 Goal=   None    Shift=    0.000
 RMSDP=2.88D-05 MaxDP=1.33D-03 DE=-1.94D-03 OVMax= 3.37D-03

 Cycle   6  Pass 1  IDiag  1:
 E= -359.576902776341     Delta-E=       -0.000073529195 Rises=F Damp=F
 DIIS: error= 1.12D-04 at cycle   6 NSaved=   6.
 NSaved= 6 IEnMin= 6 EnMin= -359.576902776341     IErMin= 6 ErrMin= 1.12D-04
 ErrMax= 1.12D-04  0.00D+00 EMaxC= 1.00D-01 BMatC= 8.01D-06 BMatP= 1.04D-04
 IDIUse=3 WtCom= 9.99D-01 WtEn= 1.12D-03
 Coeff-Com: -0.114D-02-0.527D-03 0.221D-01 0.483D-01 0.241D+00 0.690D+00
 Coeff-En:   0.000D+00 0.000D+00 0.000D+00 0.000D+00 0.000D+00 0.100D+01
 Coeff:     -0.114D-02-0.526D-03 0.221D-01 0.482D-01 0.241D+00 0.690D+00
 Gap=     0.351 Goal=   None    Shift=    0.000
 RMSDP=1.09D-05 MaxDP=3.11D-04 DE=-7.35D-05 OVMax= 8.47D-04

 Cycle   7  Pass 1  IDiag  1:
 E= -359.576909876640     Delta-E=       -0.000007100299 Rises=F Damp=F
 DIIS: error= 3.64D-05 at cycle   7 NSaved=   7.
 NSaved= 7 IEnMin= 7 EnMin= -359.576909876640     IErMin= 7 ErrMin= 3.64D-05
 ErrMax= 3.64D-05  0.00D+00 EMaxC= 1.00D-01 BMatC= 7.05D-07 BMatP= 8.01D-06
 IDIUse=1 WtCom= 1.00D+00 WtEn= 0.00D+00
 Coeff-Com:  0.155D-02-0.379D-02-0.119D-01-0.212D-01 0.348D-02 0.185D+00
 Coeff-Com:  0.847D+00
 Coeff:      0.155D-02-0.379D-02-0.119D-01-0.212D-01 0.348D-02 0.185D+00
 Coeff:      0.847D+00
 Gap=     0.351 Goal=   None    Shift=    0.000
 RMSDP=4.45D-06 MaxDP=1.76D-04 DE=-7.10D-06 OVMax= 4.46D-04

 Cycle   8  Pass 1  IDiag  1:
 E= -359.576910624652     Delta-E=       -0.000000748012 Rises=F Damp=F
 DIIS: error= 2.17D-05 at cycle   8 NSaved=   8.
 NSaved= 8 IEnMin= 8 EnMin= -359.576910624652     IErMin= 8 ErrMin= 2.17D-05
 ErrMax= 2.17D-05  0.00D+00 EMaxC= 1.00D-01 BMatC= 3.18D-07 BMatP= 7.05D-07
 IDIUse=1 WtCom= 1.00D+00 WtEn= 0.00D+00
 Coeff-Com:  0.104D-02-0.198D-02-0.936D-02-0.194D-01-0.357D-01-0.176D-01
 Coeff-Com:  0.480D+00 0.603D+00
 Coeff:      0.104D-02-0.198D-02-0.936D-02-0.194D-01-0.357D-01-0.176D-01
 Coeff:      0.480D+00 0.603D+00
 Gap=     0.351 Goal=   None    Shift=    0.000
 RMSDP=1.94D-06 MaxDP=6.89D-05 DE=-7.48D-07 OVMax= 1.41D-04

 Cycle   9  Pass 1  IDiag  1:
 E= -359.576910899140     Delta-E=       -0.000000274488 Rises=F Damp=F
 DIIS: error= 4.60D-06 at cycle   9 NSaved=   9.
 NSaved= 9 IEnMin= 9 EnMin= -359.576910899140     IErMin= 9 ErrMin= 4.60D-06
 ErrMax= 4.60D-06  0.00D+00 EMaxC= 1.00D-01 BMatC= 1.29D-08 BMatP= 3.18D-07
 IDIUse=1 WtCom= 1.00D+00 WtEn= 0.00D+00
 Coeff-Com:  0.114D-03-0.160D-03-0.920D-03-0.301D-02-0.853D-02-0.254D-01
 Coeff-Com:  0.334D-01 0.145D+00 0.860D+00
 Coeff:      0.114D-03-0.160D-03-0.920D-03-0.301D-02-0.853D-02-0.254D-01
 Coeff:      0.334D-01 0.145D+00 0.860D+00
 Gap=     0.351 Goal=   None    Shift=    0.000
 RMSDP=6.24D-07 MaxDP=1.54D-05 DE=-2.74D-07 OVMax= 5.74D-05

 Cycle  10  Pass 1  IDiag  1:
 E= -359.576910914868     Delta-E=       -0.000000015729 Rises=F Damp=F
 DIIS: error= 1.56D-06 at cycle  10 NSaved=  10.
 NSaved=10 IEnMin=10 EnMin= -359.576910914868     IErMin=10 ErrMin= 1.56D-06
 ErrMax= 1.56D-06  0.00D+00 EMaxC= 1.00D-01 BMatC= 1.94D-09 BMatP= 1.29D-08
 IDIUse=1 WtCom= 1.00D+00 WtEn= 0.00D+00
 Coeff-Com: -0.832D-04 0.179D-03 0.841D-03 0.120D-02 0.137D-02-0.686D-02
 Coeff-Com: -0.472D-01-0.310D-01 0.300D+00 0.782D+00
 Coeff:     -0.832D-04 0.179D-03 0.841D-03 0.120D-02 0.137D-02-0.686D-02
 Coeff:     -0.472D-01-0.310D-01 0.300D+00 0.782D+00
 Gap=     0.351 Goal=   None    Shift=    0.000
 RMSDP=2.46D-07 MaxDP=7.59D-06 DE=-1.57D-08 OVMax= 1.83D-05

 Cycle  11  Pass 1  IDiag  1:
 E= -359.576910916966     Delta-E=       -0.000000002097 Rises=F Damp=F
 DIIS: error= 3.99D-07 at cycle  11 NSaved=  11.
 NSaved=11 IEnMin=11 EnMin= -359.576910916966     IErMin=11 ErrMin= 3.99D-07
 ErrMax= 3.99D-07  0.00D+00 EMaxC= 1.00D-01 BMatC= 1.57D-10 BMatP= 1.94D-09
 IDIUse=1 WtCom= 1.00D+00 WtEn= 0.00D+00
 Coeff-Com: -0.350D-04 0.694D-04 0.357D-03 0.630D-03 0.119D-02 0.856D-04
 Coeff-Com: -0.180D-01-0.249D-01 0.268D-01 0.264D+00 0.750D+00
 Coeff:     -0.350D-04 0.694D-04 0.357D-03 0.630D-03 0.119D-02 0.856D-04
 Coeff:     -0.180D-01-0.249D-01 0.268D-01 0.264D+00 0.750D+00
 Gap=     0.351 Goal=   None    Shift=    0.000
 RMSDP=5.96D-08 MaxDP=1.96D-06 DE=-2.10D-09 OVMax= 4.25D-06

 Cycle  12  Pass 1  IDiag  1:
 E= -359.576910917119     Delta-E=       -0.000000000153 Rises=F Damp=F
 DIIS: error= 1.28D-07 at cycle  12 NSaved=  12.
 NSaved=12 IEnMin=12 EnMin= -359.576910917119     IErMin=12 ErrMin= 1.28D-07
 ErrMax= 1.28D-07  0.00D+00 EMaxC= 1.00D-01 BMatC= 1.04D-11 BMatP= 1.57D-10
 IDIUse=1 WtCom= 1.00D+00 WtEn= 0.00D+00
 Coeff-Com: -0.191D-05 0.295D-05 0.290D-04 0.691D-04 0.220D-03 0.608D-03
 Coeff-Com: -0.945D-03-0.435D-02-0.193D-01 0.155D-02 0.196D+00 0.826D+00
 Coeff:     -0.191D-05 0.295D-05 0.290D-04 0.691D-04 0.220D-03 0.608D-03
 Coeff:     -0.945D-03-0.435D-02-0.193D-01 0.155D-02 0.196D+00 0.826D+00
 Gap=     0.351 Goal=   None    Shift=    0.000
 RMSDP=1.67D-08 MaxDP=6.91D-07 DE=-1.53D-10 OVMax= 1.16D-06

 Cycle  13  Pass 1  IDiag  1:
 E= -359.576910917126     Delta-E=       -0.000000000007 Rises=F Damp=F
 DIIS: error= 4.00D-08 at cycle  13 NSaved=  13.
 NSaved=13 IEnMin=13 EnMin= -359.576910917126     IErMin=13 ErrMin= 4.00D-08
 ErrMax= 4.00D-08  0.00D+00 EMaxC= 1.00D-01 BMatC= 1.16D-12 BMatP= 1.04D-11
 IDIUse=1 WtCom= 1.00D+00 WtEn= 0.00D+00
 Coeff-Com:  0.264D-05-0.532D-05-0.231D-04-0.382D-04-0.395D-04 0.128D-03
 Coeff-Com:  0.131D-02 0.111D-02-0.720D-02-0.238D-01-0.153D-01 0.253D+00
 Coeff-Com:  0.791D+00
 Coeff:      0.264D-05-0.532D-05-0.231D-04-0.382D-04-0.395D-04 0.128D-03
 Coeff:      0.131D-02 0.111D-02-0.720D-02-0.238D-01-0.153D-01 0.253D+00
 Coeff:      0.791D+00
 Gap=     0.351 Goal=   None    Shift=    0.000
 RMSDP=5.03D-09 MaxDP=1.67D-07 DE=-7.16D-12 OVMax= 4.24D-07

 SCF Done:  E(RM062X) =  -359.576910917     A.U. after   13 cycles
            NFock= 13  Conv=0.50D-08     -V/T= 2.0047
 KE= 3.578813970771D+02 PE=-1.330510447692D+03 EE= 3.703533928571D+02
 Leave Link  502 at Mon Mar 11 17:02:12 2019, MaxMem=   671088640 cpu:             342.0 elap:              28.0
 (Enter /shared/centos7/gaussian/g16/l801.exe)
 DoSCS=F DFT=T ScalE2(SS,OS)=  1.000000  1.000000
 Range of M.O.s used for correlation:     1   249
 NBasis=   249 NAE=    24 NBE=    24 NFC=     0 NFV=     0
 NROrb=    249 NOA=    24 NOB=    24 NVA=   225 NVB=   225

 **** Warning!!: The largest alpha MO coefficient is  0.49116479D+02

 Leave Link  801 at Mon Mar 11 17:02:12 2019, MaxMem=   671088640 cpu:               0.4 elap:               0.0
 (Enter /shared/centos7/gaussian/g16/l1101.exe)
 Using compressed storage, NAtomX=    11.
 Will process     12 centers per pass.
 Leave Link 1101 at Mon Mar 11 17:02:12 2019, MaxMem=   671088640 cpu:               6.7 elap:               0.4
 (Enter /shared/centos7/gaussian/g16/l1102.exe)
 Symmetrizing basis deriv contribution to polar:
 IMax=3 JMax=2 DiffMx= 0.00D+00
 Leave Link 1102 at Mon Mar 11 17:02:12 2019, MaxMem=   671088640 cpu:               0.5 elap:               0.1
 (Enter /shared/centos7/gaussian/g16/l1110.exe)
 Forming Gx(P) for the SCF density, NAtomX=    11.
 Integral derivatives from FoFJK, PRISM(SPDF).
 Do as many integral derivatives as possible in FoFJK.
 G2DrvN: MDV=     671087712.
 G2DrvN: will do    12 centers at a time, making    1 passes.
 Calling FoFCou, ICntrl=  3107 FMM=F I1Cent=   0 AccDes= 0.00D+00.
 FoFJK:  IHMeth= 1 ICntrl=    3107 DoSepK=F KAlg= 0 I1Cent=           0 FoldK=F
 IRaf=         0 NMat=       1 IRICut=       1 DoRegI=T DoRafI=F ISym2E= 0 IDoP0=0 IntGTp=1.
 FoFCou: FMM=F IPFlag=           0 FMFlag=      100000 FMFlg1=           0
         NFxFlg=           0 DoJE=F BraDBF=F KetDBF=F FulRan=T
         wScrn=  0.000000 ICntrl=      3107 IOpCl=  0 I1Cent=           0 NGrid=           0
         NMat0=    1 NMatS0=      1 NMatT0=    0 NMatD0=    1 NMtDS0=    0 NMtDT0=    0
 Symmetry not used in FoFCou.
 End of G2Drv F.D. properties file   721 does not exist.
 End of G2Drv F.D. properties file   722 does not exist.
 End of G2Drv F.D. properties file   788 does not exist.
 Leave Link 1110 at Mon Mar 11 17:02:52 2019, MaxMem=   671088640 cpu:             792.7 elap:              39.7
 (Enter /shared/centos7/gaussian/g16/l1002.exe)
 Minotr:  Closed shell wavefunction.
          IDoAtm=11111111111
          Direct CPHF calculation.
          Differentiating once with respect to nuclear coordinates.
          Requested convergence is 1.0D-08 RMS, and 1.0D-07 maximum.
          Secondary convergence is 1.0D-12 RMS, and 1.0D-12 maximum.
          NewPWx=T KeepS1=F KeepF1=F KeepIn=T MapXYZ=F SortEE=F KeepMc=T.
         3342 words used for storage of precomputed grid.
 Keep R1 ints in memory in canonical form, NReq=506509625.
 FoFCou: FMM=F IPFlag=           0 FMFlag=           0 FMFlg1=           0
         NFxFlg=           0 DoJE=F BraDBF=F KetDBF=F FulRan=T
         wScrn=  0.000000 ICntrl=       600 IOpCl=  0 I1Cent=           0 NGrid=           0
         NMat0=    1 NMatS0=  31125 NMatT0=    0 NMatD0=    1 NMtDS0=    0 NMtDT0=    0
 Symmetry not used in FoFCou.
 Two-electron integral symmetry not used.
          MDV=     671088640 using IRadAn=       1.
          Solving linear equations simultaneously, MaxMat=       0.
          There are    36 degrees of freedom in the 1st order CPHF.  IDoFFX=6 NUNeed=     0.
     30 vectors produced by pass  0 Test12= 1.50D-14 2.78D-09 XBig12= 6.94D-02 6.74D-02.
 AX will form    30 AO Fock derivatives at one time.
     30 vectors produced by pass  1 Test12= 1.50D-14 2.78D-09 XBig12= 1.14D-02 3.84D-02.
     30 vectors produced by pass  2 Test12= 1.50D-14 2.78D-09 XBig12= 4.50D-04 2.90D-03.
     30 vectors produced by pass  3 Test12= 1.50D-14 2.78D-09 XBig12= 5.60D-06 2.79D-04.
     30 vectors produced by pass  4 Test12= 1.50D-14 2.78D-09 XBig12= 5.57D-08 3.42D-05.
     30 vectors produced by pass  5 Test12= 1.50D-14 2.78D-09 XBig12= 3.75D-10 2.21D-06.
     26 vectors produced by pass  6 Test12= 1.50D-14 2.78D-09 XBig12= 1.88D-12 1.93D-07.
      5 vectors produced by pass  7 Test12= 1.50D-14 2.78D-09 XBig12= 8.08D-15 9.81D-09.
 InvSVY:  IOpt=1 It=  1 EMax= 1.33D-15
 Solved reduced A of dimension   211 with    30 vectors.
 End of Minotr F.D. properties file   721 does not exist.
 End of Minotr F.D. properties file   722 does not exist.
 End of Minotr F.D. properties file   788 does not exist.
 Leave Link 1002 at Mon Mar 11 17:03:40 2019, MaxMem=   671088640 cpu:             966.0 elap:              48.4
 (Enter /shared/centos7/gaussian/g16/l601.exe)
 Copying SCF densities to generalized density rwf, IOpCl= 0 IROHF=0.

 **********************************************************************

            Population analysis using the SCF density.

 **********************************************************************

 Orbital symmetries:
       Occupied  (A) (A) (A) (A) (A) (A) (A) (A) (A) (A) (A) (A)
                 (A) (A) (A) (A) (A) (A) (A) (A) (A) (A) (A) (A)
       Virtual   (A) (A) (A) (A) (A) (A) (A) (A) (A) (A) (A) (A)
                 (A) (A) (A) (A) (A) (A) (A) (A) (A) (A) (A) (A)
                 (A) (A) (A) (A) (A) (A) (A) (A) (A) (A) (A) (A)
                 (A) (A) (A) (A) (A) (A) (A) (A) (A) (A) (A) (A)
                 (A) (A) (A) (A) (A) (A) (A) (A) (A) (A) (A) (A)
                 (A) (A) (A) (A) (A) (A) (A) (A) (A) (A) (A) (A)
                 (A) (A) (A) (A) (A) (A) (A) (A) (A) (A) (A) (A)
                 (A) (A) (A) (A) (A) (A) (A) (A) (A) (A) (A) (A)
                 (A) (A) (A) (A) (A) (A) (A) (A) (A) (A) (A) (A)
                 (A) (A) (A) (A) (A) (A) (A) (A) (A) (A) (A) (A)
                 (A) (A) (A) (A) (A) (A) (A) (A) (A) (A) (A) (A)
                 (A) (A) (A) (A) (A) (A) (A) (A) (A) (A) (A) (A)
                 (A) (A) (A) (A) (A) (A) (A) (A) (A) (A) (A) (A)
                 (A) (A) (A) (A) (A) (A) (A) (A) (A) (A) (A) (A)
                 (A) (A) (A) (A) (A) (A) (A) (A) (A) (A) (A) (A)
                 (A) (A) (A) (A) (A) (A) (A) (A) (A) (A) (A) (A)
                 (A) (A) (A) (A) (A) (A) (A) (A) (A) (A) (A) (A)
                 (A) (A) (A) (A) (A) (A) (A) (A) (A) (A) (A) (A)
                 (A) (A) (A) (A) (A) (A) (A) (A) (A)
 The electronic state is 1-A.
 Alpha  occ. eigenvalues --  -19.67309 -19.65956 -19.64321 -14.81846 -10.70232
 Alpha  occ. eigenvalues --  -10.60841  -1.22528  -1.16707  -1.14076  -0.97411
 Alpha  occ. eigenvalues --   -0.82244  -0.67359  -0.61384  -0.58782  -0.57986
 Alpha  occ. eigenvalues --   -0.55276  -0.53358  -0.50736  -0.48482  -0.47356
 Alpha  occ. eigenvalues --   -0.41177  -0.39409  -0.37441  -0.34658
 Alpha virt. eigenvalues --    0.00423   0.01418   0.01926   0.03986   0.04822
 Alpha virt. eigenvalues --    0.05413   0.07537   0.07863   0.08351   0.11966
 Alpha virt. eigenvalues --    0.12846   0.13586   0.15256   0.17698   0.17865
 Alpha virt. eigenvalues --    0.19300   0.19418   0.20918   0.21593   0.22917
 Alpha virt. eigenvalues --    0.23477   0.24953   0.25435   0.26741   0.27860
 Alpha virt. eigenvalues --    0.28895   0.29550   0.30773   0.33238   0.33838
 Alpha virt. eigenvalues --    0.34484   0.35430   0.37401   0.39118   0.49020
 Alpha virt. eigenvalues --    0.49711   0.50556   0.52839   0.54257   0.55770
 Alpha virt. eigenvalues --    0.56987   0.59656   0.60616   0.63032   0.64125
 Alpha virt. eigenvalues --    0.65076   0.67028   0.68870   0.70987   0.75575
 Alpha virt. eigenvalues --    0.76519   0.77134   0.80948   0.83868   0.86558
 Alpha virt. eigenvalues --    0.87855   0.90372   0.95810   0.98822   0.99757
 Alpha virt. eigenvalues --    1.01407   1.03353   1.04340   1.07893   1.09033
 Alpha virt. eigenvalues --    1.11800   1.12078   1.15644   1.17272   1.18072
 Alpha virt. eigenvalues --    1.18677   1.21973   1.22691   1.25885   1.27506
 Alpha virt. eigenvalues --    1.28299   1.31135   1.34967   1.38638   1.40331
 Alpha virt. eigenvalues --    1.43135   1.44126   1.48662   1.49319   1.53595
 Alpha virt. eigenvalues --    1.54318   1.57224   1.60139   1.61189   1.62053
 Alpha virt. eigenvalues --    1.70316   1.72500   1.75871   1.77290   1.81770
 Alpha virt. eigenvalues --    1.84143   1.89944   1.93951   1.97959   2.00332
 Alpha virt. eigenvalues --    2.07365   2.14148   2.17986   2.27046   2.28272
 Alpha virt. eigenvalues --    2.33400   2.38292   2.50508   2.55005   2.59740
 Alpha virt. eigenvalues --    2.62287   2.67664   2.71037   2.75712   2.77827
 Alpha virt. eigenvalues --    2.80197   2.86510   2.95640   3.00388   3.04588
 Alpha virt. eigenvalues --    3.06536   3.11844   3.14879   3.19015   3.21237
 Alpha virt. eigenvalues --    3.25804   3.30569   3.36189   3.37159   3.39713
 Alpha virt. eigenvalues --    3.41457   3.43963   3.47975   3.49501   3.52620
 Alpha virt. eigenvalues --    3.55884   3.60588   3.67004   3.67430   3.69850
 Alpha virt. eigenvalues --    3.72311   3.76633   3.78910   3.81952   3.84624
 Alpha virt. eigenvalues --    3.85456   3.92256   3.97695   3.99771   4.03356
 Alpha virt. eigenvalues --    4.04855   4.10305   4.10722   4.15411   4.18065
 Alpha virt. eigenvalues --    4.20830   4.28299   4.30786   4.38477   4.39258
 Alpha virt. eigenvalues --    4.44891   4.54089   4.69493   4.73136   4.87436
 Alpha virt. eigenvalues --    4.98526   5.04170   5.04913   5.05551   5.06114
 Alpha virt. eigenvalues --    5.08635   5.08667   5.12642   5.15301   5.16557
 Alpha virt. eigenvalues --    5.18693   5.23319   5.25405   5.26011   5.29728
 Alpha virt. eigenvalues --    5.37568   5.38322   5.40925   5.41346   5.45100
 Alpha virt. eigenvalues --    5.45568   5.48242   5.52340   5.53850   5.61602
 Alpha virt. eigenvalues --    5.65877   5.67454   5.72707   5.74377   5.82974
 Alpha virt. eigenvalues --    5.91066   6.13127   6.28703   6.35199   6.53360
 Alpha virt. eigenvalues --    6.79799   6.80514   6.86910   6.90701   6.93453
 Alpha virt. eigenvalues --    6.98103   7.04087   7.08186   7.10437   7.12478
 Alpha virt. eigenvalues --    7.14988   7.17991   7.23942   7.40571   7.49794
 Alpha virt. eigenvalues --    7.52247   7.62880   7.65793   7.69751  24.31903
 Alpha virt. eigenvalues --   24.63691  35.67440  50.05789  50.07605  50.24420
          Condensed to atoms (all electrons):
               1          2          3          4          5          6
     1  O    7.973675  -0.003671   0.001844   0.171296  -0.047914  -0.009538
     2  O   -0.003671   7.965677  -0.082825   0.009582  -0.121968   0.319625
     3  O    0.001844  -0.082825   8.121481   0.014504  -0.052783   0.387045
     4  N    0.171296   0.009582   0.014504   6.746274   0.225802  -0.110684
     5  C   -0.047914  -0.121968  -0.052783   0.225802   5.574244  -0.191131
     6  C   -0.009538   0.319625   0.387045  -0.110684  -0.191131   5.323922
     7  H   -0.010423  -0.001288   0.003671  -0.008784   0.464273  -0.082668
     8  H    0.012377   0.000225   0.000837  -0.061125   0.400927  -0.002394
     9  H   -0.063402  -0.000573  -0.001088   0.323462  -0.059612   0.040837
    10  H    0.256666  -0.000488   0.004070  -0.054831  -0.035682   0.043057
    11  H    0.000254   0.261992   0.015377  -0.001485  -0.020101   0.006489
               7          8          9         10         11
     1  O   -0.010423   0.012377  -0.063402   0.256666   0.000254
     2  O   -0.001288   0.000225  -0.000573  -0.000488   0.261992
     3  O    0.003671   0.000837  -0.001088   0.004070   0.015377
     4  N   -0.008784  -0.061125   0.323462  -0.054831  -0.001485
     5  C    0.464273   0.400927  -0.059612  -0.035682  -0.020101
     6  C   -0.082668  -0.002394   0.040837   0.043057   0.006489
     7  H    0.498360  -0.029200  -0.015206  -0.000058   0.000276
     8  H   -0.029200   0.513371   0.002616   0.000160   0.000155
     9  H   -0.015206   0.002616   0.525362   0.011892   0.000048
    10  H   -0.000058   0.000160   0.011892   0.479697   0.000125
    11  H    0.000276   0.000155   0.000048   0.000125   0.456818
 Mulliken charges:
               1
     1  O   -0.281164
     2  O   -0.346288
     3  O   -0.412133
     4  N   -0.254010
     5  C   -0.136055
     6  C    0.275440
     7  H    0.181047
     8  H    0.162051
     9  H    0.235665
    10  H    0.295394
    11  H    0.280053
 Sum of Mulliken charges =  -0.00000
 Mulliken charges with hydrogens summed into heavy atoms:
               1
     1  O    0.014230
     2  O   -0.066235
     3  O   -0.412133
     4  N   -0.018344
     5  C    0.207043
     6  C    0.275440
 APT charges:
               1
     1  O   -0.519308
     2  O   -0.639925
     3  O   -0.405961
     4  N   -0.628894
     5  C   -0.740821
     6  C    0.336025
     7  H    0.402178
     8  H    0.441494
     9  H    0.609850
    10  H    0.485567
    11  H    0.659794
 Sum of APT charges =  -0.00000
 APT charges with hydrogens summed into heavy atoms:
               1
     1  O   -0.033741
     2  O    0.019870
     3  O   -0.405961
     4  N   -0.019044
     5  C    0.102851
     6  C    0.336025
 Electronic spatial extent (au):  <R**2>=            598.9962
 Charge=             -0.0000 electrons
 Dipole moment (field-independent basis, Debye):
    X=              0.4008    Y=             -1.7631    Z=             -0.0128  Tot=              1.8081
 Quadrupole moment (field-independent basis, Debye-Ang):
   XX=            -33.3351   YY=            -32.5001   ZZ=            -38.2926
   XY=              3.4021   XZ=              0.8368   YZ=              2.0762
 Traceless Quadrupole moment (field-independent basis, Debye-Ang):
   XX=              1.3742   YY=              2.2092   ZZ=             -3.5834
   XY=              3.4021   XZ=              0.8368   YZ=              2.0762
 Octapole moment (field-independent basis, Debye-Ang**2):
  XXX=             17.7745  YYY=              0.5972  ZZZ=              2.1018  XYY=            -12.4835
  XXY=              6.9744  XXZ=             -0.6307  XZZ=              4.6563  YZZ=             -0.7415
  YYZ=              1.3136  XYZ=              3.3135
 Hexadecapole moment (field-independent basis, Debye-Ang**3):
 XXXX=           -417.8019 YYYY=           -158.1128 ZZZZ=            -81.6692 XXXY=             37.4973
 XXXZ=             11.8553 YYYX=             -8.0600 YYYZ=              5.5055 ZZZX=             -4.2067
 ZZZY=              0.1780 XXYY=            -93.2781 XXZZ=           -101.8775 YYZZ=            -38.6797
 XXYZ=              4.0943 YYXZ=              0.0145 ZZXY=              0.8794
 N-N= 2.426987468403D+02 E-N=-1.330510456828D+03  KE= 3.578813970771D+02
  Exact polarizability:   0.000   0.000   0.000   0.000   0.000   0.000
 Approx polarizability:  54.046  -2.815  64.206   1.084  -1.004  48.862
 No NMR shielding tensors so no spin-rotation constants.
 Leave Link  601 at Mon Mar 11 17:03:41 2019, MaxMem=   671088640 cpu:               4.7 elap:               0.3
 (Enter /shared/centos7/gaussian/g16/l701.exe)
 SCFChk:  SCF convergence  5.03D-09 required  1.00D-08
 ... and contract with generalized density number  0.
 Compute integral second derivatives.
 Entering OneElI...
 Calculate overlap and kinetic energy integrals
    NBasis = 279  MinDer = 2  MaxDer = 2
 Requested accuracy = 0.1000D-12
 PrmmSu-InSpLW:  IPartL=    0 NPrtUS=   20 NPrtUL=    1 DoSpLW=F IThBeg=    0 IThEnd=   19 NThAct=   20.
 PrsmSu:  NPrtUS=  20 ThrOK=T IAlg=1 NPAlg=1 LenDen=           0 ISkipM=0 DoSpLW=F IThBeg=    0 IThEnd=   19.
 Prism:   IPart=     0 DynPar=F LinDyn=F Incr=           1.
 PRISM was handed    33472136 working-precision words and  2690 shell-pairs
 PRISM was handed    33472136 working-precision words and  2690 shell-pairs
 PRISM was handed    33472136 working-precision words and  2690 shell-pairs
 PRISM was handed    33472136 working-precision words and  2690 shell-pairs
 PRISM was handed    33472136 working-precision words and  2690 shell-pairs
 PRISM was handed    33472136 working-precision words and  2690 shell-pairs
 PRISM was handed    33472136 working-precision words and  2690 shell-pairs
 PRISM was handed    33472136 working-precision words and  2690 shell-pairs
 PRISM was handed    33472136 working-precision words and  2690 shell-pairs
 PRISM was handed    33472136 working-precision words and  2690 shell-pairs
 PRISM was handed    33472136 working-precision words and  2690 shell-pairs
 PRISM was handed    33472136 working-precision words and  2690 shell-pairs
 PRISM was handed    33472136 working-precision words and  2690 shell-pairs
 PRISM was handed    33472136 working-precision words and  2690 shell-pairs
 PRISM was handed    33472136 working-precision words and  2690 shell-pairs
 PRISM was handed    33472136 working-precision words and  2690 shell-pairs
 PRISM was handed    33472136 working-precision words and  2690 shell-pairs
 PRISM was handed    33472136 working-precision words and  2690 shell-pairs
 PRISM was handed    33472136 working-precision words and  2690 shell-pairs
 PRISM was handed    33472136 working-precision words and  2690 shell-pairs
 IPart= 18 NShTot=         114 NBatch=          30 AvBLen=         3.8
 IPart= 17 NShTot=         115 NBatch=          30 AvBLen=         3.8
 IPart= 15 NShTot=         122 NBatch=          31 AvBLen=         3.9
 IPart= 16 NShTot=         117 NBatch=          30 AvBLen=         3.9
 IPart=  0 NShTot=         167 NBatch=          56 AvBLen=         3.0
 IPart= 19 NShTot=         114 NBatch=          30 AvBLen=         3.8
 IPart=  2 NShTot=         160 NBatch=          51 AvBLen=         3.1
 IPart=  7 NShTot=         136 NBatch=          33 AvBLen=         4.1
 IPart=  1 NShTot=         161 NBatch=          51 AvBLen=         3.2
 IPart=  8 NShTot=         131 NBatch=          32 AvBLen=         4.1
 IPart=  4 NShTot=         151 NBatch=          44 AvBLen=         3.4
 IPart=  3 NShTot=         156 NBatch=          48 AvBLen=         3.3
 IPart=  6 NShTot=         140 NBatch=          36 AvBLen=         3.9
 IPart=  5 NShTot=         146 NBatch=          40 AvBLen=         3.7
 IPart= 12 NShTot=         125 NBatch=          31 AvBLen=         4.0
 IPart= 11 NShTot=         128 NBatch=          31 AvBLen=         4.1
 IPart=  9 NShTot=         130 NBatch=          31 AvBLen=         4.2
 IPart= 10 NShTot=         130 NBatch=          31 AvBLen=         4.2
 IPart= 13 NShTot=         124 NBatch=          31 AvBLen=         4.0
 IPart= 14 NShTot=         123 NBatch=          31 AvBLen=         4.0
 PrSmSu:  NxtVal=             21.
 Entering OneElI...
 Calculate potential energy integrals
    NBasis = 279  MinDer = 2  MaxDer = 2
 Requested accuracy = 0.1000D-12
 PrmmSu-InSpLW:  IPartL=    0 NPrtUS=   20 NPrtUL=    1 DoSpLW=F IThBeg=    0 IThEnd=   19 NThAct=   20.
 PrsmSu:  NPrtUS=  20 ThrOK=T IAlg=1 NPAlg=1 LenDen=           0 ISkipM=0 DoSpLW=F IThBeg=    0 IThEnd=   19.
 Prism:   IPart=     0 DynPar=F LinDyn=F Incr=          14.
 PRISM was handed    33483794 working-precision words and  2552 shell-pairs
 PRISM was handed    33483794 working-precision words and  2552 shell-pairs
 PRISM was handed    33483794 working-precision words and  2552 shell-pairs
 PRISM was handed    33483794 working-precision words and  2552 shell-pairs
 PRISM was handed    33483794 working-precision words and  2552 shell-pairs
 PRISM was handed    33483794 working-precision words and  2552 shell-pairs
 PRISM was handed    33483794 working-precision words and  2552 shell-pairs
 PRISM was handed    33483794 working-precision words and  2552 shell-pairs
 PRISM was handed    33483794 working-precision words and  2552 shell-pairs
 PRISM was handed    33483794 working-precision words and  2552 shell-pairs
 PRISM was handed    33483794 working-precision words and  2552 shell-pairs
 PRISM was handed    33483794 working-precision words and  2552 shell-pairs
 PRISM was handed    33483794 working-precision words and  2552 shell-pairs
 PRISM was handed    33483794 working-precision words and  2552 shell-pairs
 PRISM was handed    33483794 working-precision words and  2552 shell-pairs
 PRISM was handed    33483794 working-precision words and  2552 shell-pairs
 PRISM was handed    33483794 working-precision words and  2552 shell-pairs
 PRISM was handed    33483794 working-precision words and  2552 shell-pairs
 PRISM was handed    33483794 working-precision words and  2552 shell-pairs
 PRISM was handed    33483794 working-precision words and  2552 shell-pairs
 IPart= 18 NShTot=        1221 NBatch=         111 AvBLen=        11.0
 IPart= 19 NShTot=        1221 NBatch=         111 AvBLen=        11.0
 IPart= 16 NShTot=        1232 NBatch=         112 AvBLen=        11.0
 IPart= 17 NShTot=        1221 NBatch=         111 AvBLen=        11.0
 IPart= 15 NShTot=        1243 NBatch=         113 AvBLen=        11.0
 IPart=  0 NShTot=        1804 NBatch=         164 AvBLen=        11.0
 IPart=  9 NShTot=        1331 NBatch=         121 AvBLen=        11.0
 IPart=  7 NShTot=        1419 NBatch=         129 AvBLen=        11.0
 IPart=  6 NShTot=        1474 NBatch=         134 AvBLen=        11.0
 IPart=  2 NShTot=        1650 NBatch=         150 AvBLen=        11.0
 IPart=  8 NShTot=        1386 NBatch=         126 AvBLen=        11.0
 IPart= 11 NShTot=        1298 NBatch=         118 AvBLen=        11.0
 IPart=  3 NShTot=        1595 NBatch=         145 AvBLen=        11.0
 IPart=  4 NShTot=        1551 NBatch=         141 AvBLen=        11.0
 IPart=  1 NShTot=        1738 NBatch=         158 AvBLen=        11.0
 IPart= 10 NShTot=        1309 NBatch=         119 AvBLen=        11.0
 IPart=  5 NShTot=        1507 NBatch=         137 AvBLen=        11.0
 IPart= 12 NShTot=        1298 NBatch=         118 AvBLen=        11.0
 IPart= 14 NShTot=        1276 NBatch=         116 AvBLen=        11.0
 IPart= 13 NShTot=        1298 NBatch=         118 AvBLen=        11.0
 PrSmSu:  NxtVal=            281.
 Polarizability after L701:
                1             2             3 
      1  0.000000D+00
      2  0.000000D+00  0.000000D+00
      3  0.000000D+00  0.000000D+00  0.000000D+00
 Dipole Derivatives after L701:
                 1             2             3             4             5 
      1  -0.714958D-01  0.851277D+00 -0.155462D+00 -0.957574D+00 -0.794702D+00
      2  -0.144092D+00 -0.961374D+00  0.228964D+00 -0.131647D+00 -0.511165D+00
      3  -0.848215D-02 -0.133664D+00 -0.525054D+00 -0.620250D-01 -0.144314D+00
                 6             7             8             9            10 
      1   0.682315D-01 -0.518617D+00  0.358045D+00 -0.921574D-01 -0.120034D+01
      2  -0.316929D-01 -0.421399D-01 -0.189574D+00 -0.113217D+00 -0.469263D+00
      3  -0.451035D+00  0.225322D-01 -0.169905D+00 -0.509693D+00 -0.873253D-01
                11            12            13            14            15 
      1  -0.806294D+00  0.910902D-01 -0.604222D-01 -0.185306D+00  0.202046D+00
      2  -0.522614D+00  0.133005D+00  0.252354D+00 -0.124985D+01  0.129433D+00
      3   0.159881D-02 -0.163730D+00  0.237643D+00 -0.948164D-01 -0.912193D+00
                16            17            18            19            20 
      1   0.169336D+00 -0.418384D+00 -0.763556D-02  0.206691D+00  0.684739D-01
      2   0.109654D+00  0.175803D+00  0.868556D-01  0.490485D-01  0.512036D+00
      3  -0.178383D+00  0.154465D+00  0.662936D+00 -0.405575D-01 -0.186829D+00
                21            22            23            24            25 
      1  -0.107317D+00  0.149771D+00 -0.156443D-01 -0.526693D-02  0.921629D+00
      2  -0.556852D+00 -0.187241D+00  0.719047D+00  0.512627D+00  0.323731D+00
      3   0.487807D+00 -0.874884D-01  0.302428D+00  0.455664D+00  0.782049D-01
                26            27            28            29            30 
      1   0.638479D+00 -0.257914D+00  0.173953D+00 -0.609622D+00  0.275255D+00
      2   0.634859D+00 -0.123173D+00  0.102477D+00  0.912946D+00 -0.262312D+00
      3   0.102658D+00  0.273061D+00  0.113378D-01  0.517006D-01  0.369802D+00
                31            32            33 
      1   0.118706D+01  0.913677D+00 -0.108695D-01
      2   0.137118D+00  0.479882D+00 -0.363637D-02
      3   0.114543D+00  0.116676D+00  0.312436D+00
 Hessian after L701:
                1             2             3             4             5 
      1  0.880555D+01
      2  0.897884D+00  0.480329D+01
      3  0.247310D+01 -0.177747D+01  0.721725D+01
      4  0.211077D+00 -0.474433D-01 -0.227279D-01  0.220764D+01
      5 -0.103104D+00 -0.131902D+00  0.103524D-01  0.901356D+00  0.999921D+01
      6 -0.221857D-01  0.603617D-02 -0.139570D+00 -0.348721D+01  0.135961D+01
      7  0.548248D+00  0.328924D+00 -0.437571D+00  0.421586D+00 -0.594844D+00
      8  0.310206D+00 -0.316398D+00 -0.127899D+00 -0.523927D+00 -0.192162D-01
      9 -0.420150D+00 -0.143072D+00 -0.228088D+00  0.256820D+00 -0.150961D+00
     10 -0.520868D+01 -0.137361D+01 -0.128155D+01  0.385940D+00 -0.527946D-01
     11 -0.138942D+01 -0.266285D+01  0.324796D+01 -0.451016D-01 -0.197576D+00
     12 -0.127776D+01  0.323718D+01 -0.173743D+01  0.152770D+00 -0.102825D-01
     13  0.600855D+00 -0.353819D+00 -0.295763D+00  0.247358D+00  0.145363D+00
     14 -0.299198D+00  0.272396D-01  0.648710D-01 -0.751765D-02  0.166137D-01
     15 -0.343061D+00  0.140861D+00 -0.103117D+00  0.330339D-01  0.294165D-01
     16  0.212058D+00 -0.854642D-01 -0.118653D+00 -0.264095D+00 -0.270971D+01
     17 -0.221233D+00 -0.286297D+00  0.678482D-01 -0.253554D+01 -0.684878D+01
     18 -0.648720D-01  0.264354D-01 -0.257673D+00  0.302999D+01 -0.119981D+01
     19 -0.412628D-02 -0.146379D-03 -0.238866D-02  0.636776D-01  0.632163D-01
     20 -0.388334D-01  0.793353D-02  0.848956D-02  0.107838D+00 -0.497262D-02
     21  0.385988D-01 -0.290774D-01 -0.158942D-01 -0.950067D-01 -0.393577D-01
     22  0.166739D-01 -0.104346D+00 -0.782060D-01  0.769634D-02  0.500876D-01
     23 -0.140478D+00  0.905800D-01  0.123108D+00  0.102685D+00  0.134752D-01
     24 -0.954550D-01  0.108193D+00  0.180943D-01  0.863907D-01  0.577496D-01
     25  0.232203D+00  0.213963D+00  0.934324D-01  0.247565D-01  0.169768D-02
     26  0.211185D+00  0.806207D-01 -0.125946D+00  0.231198D-01 -0.689965D-02
     27  0.733363D-01 -0.207929D+00 -0.107124D-01 -0.266382D-02 -0.694989D-03
     28 -0.545607D+01  0.516531D+00 -0.324146D+00  0.102101D-01 -0.111512D-01
     29  0.754803D+00 -0.160826D+01 -0.148906D+01 -0.317080D-01  0.100884D-01
     30 -0.359280D+00 -0.136113D+01 -0.473306D+01  0.110028D-01 -0.731615D-02
     31  0.422144D-01  0.752706D-02 -0.553339D-02 -0.331585D+01  0.230988D+01
     32  0.181881D-01 -0.396354D-02 -0.225894D-02  0.205624D+01 -0.283004D+01
     33 -0.227478D-02 -0.300938D-04 -0.980038D-02  0.376049D-01 -0.487019D-01
                6             7             8             9            10 
      6  0.128342D+02
      7  0.281047D+00  0.144474D+02
      8 -0.134918D+00  0.143133D+00  0.425299D+00
      9  0.788512D-01 -0.657323D+00  0.554977D+01  0.170963D+02
     10  0.139333D+00  0.366394D+00  0.581905D+00  0.282153D-01  0.896564D+01
     11 -0.529701D-02  0.512881D+00 -0.599138D-01  0.161965D-01  0.780654D+00
     12 -0.154421D+00  0.687954D-01  0.369958D-01 -0.445203D+00  0.211506D+00
     13  0.131018D-01  0.263295D+00  0.626435D+00 -0.679732D-01 -0.146432D+01
     14 -0.140000D-01  0.453621D+00  0.353705D+00  0.350172D-01 -0.187934D+01
     15  0.111029D-02 -0.362146D-01  0.341651D-01 -0.150386D+00  0.121249D+01
     16  0.308297D+01 -0.162224D+02 -0.105417D+01  0.822507D+00  0.272394D+00
     17 -0.114582D+01 -0.850529D+00 -0.454606D+00 -0.527506D+01  0.180596D+00
     18 -0.719888D+01  0.753603D+00 -0.526950D+01 -0.162069D+02 -0.889714D-01
     19 -0.355544D-01 -0.368320D-01  0.298894D-01 -0.293755D-01 -0.800778D-01
     20 -0.242261D-01  0.420563D-01  0.897607D-01 -0.905372D-01 -0.393085D-01
     21 -0.324936D-01 -0.402292D-01 -0.122045D+00  0.243241D-01  0.364214D-01
     22  0.465682D-01 -0.472671D-01 -0.431847D-02  0.943953D-02 -0.268916D-01
     23  0.717004D-01  0.198391D-01  0.136687D+00  0.450954D-01  0.863013D-01
     24  0.122214D-01  0.159097D-01  0.862889D-01 -0.246802D-01 -0.134395D-01
     25  0.784239D-02  0.271471D-01  0.458106D-01 -0.770218D-02 -0.334730D+01
     26  0.421444D-02  0.380826D-01  0.288133D-01 -0.758741D-02  0.169437D+01
     27 -0.883401D-02 -0.629340D-02 -0.889012D-02 -0.116098D-01 -0.261003D+00
     28  0.265002D-02  0.103737D+00  0.218043D-02 -0.536389D-01  0.132204D+00
     29 -0.288561D-02 -0.794833D-01 -0.759052D-01  0.274204D-01  0.105122D-01
     30 -0.816416D-02 -0.182246D-01  0.351499D-02 -0.601091D-01  0.160113D-01
     31 -0.285565D-01  0.128767D+00 -0.157144D+00  0.119180D+00  0.469527D-02
     32 -0.114417D+00 -0.136810D-01 -0.108226D+00 -0.628244D-02  0.107206D-01
     33 -0.538401D+01  0.765003D-01 -0.474809D-01 -0.724662D-01  0.982108D-03
               11            12            13            14            15 
     11  0.116192D+02
     12 -0.241260D+01  0.134124D+02
     13 -0.200510D+01  0.132383D+01  0.111702D+02
     14 -0.596412D+01 -0.273260D+00 -0.582185D+00  0.150654D+02
     15 -0.300883D+00 -0.645461D+01 -0.605546D+00 -0.752810D-01  0.175576D+02
     16  0.214120D+00 -0.195134D+00 -0.254731D+01  0.293292D+01  0.312911D+00
     17 -0.717410D-02  0.705957D-02  0.285949D+01 -0.391239D+01  0.331625D+00
     18  0.652092D-02 -0.121136D+00  0.279515D+00  0.354747D+00 -0.619268D+01
     19 -0.189560D-01 -0.167983D-01 -0.428801D+01  0.348111D-01 -0.149029D-01
     20  0.106637D+00 -0.136136D+00  0.225722D-01 -0.328530D+01 -0.157200D+01
     21 -0.153512D+00  0.165335D+00  0.738303D-02 -0.143144D+01 -0.190323D+01
     22  0.733551D-01  0.657755D-02 -0.381017D+01 -0.549215D+00 -0.526033D+00
     23  0.482944D-01  0.175123D-01 -0.651127D+00 -0.251977D+01  0.139995D+01
     24  0.493744D-01  0.122892D+00 -0.585885D+00  0.135528D+01 -0.284683D+01
     25  0.176841D+01 -0.331416D+00 -0.192307D+00 -0.109130D+00 -0.379588D-01
     26 -0.270443D+01 -0.258674D+00 -0.819071D-01  0.107119D+00 -0.581942D-02
     27 -0.176795D+00 -0.484410D+01 -0.782875D-01 -0.143537D-01  0.840174D-01
     28  0.112235D+00  0.509469D-01 -0.228997D-01 -0.468211D-02  0.237712D-02
     29 -0.174205D+00 -0.212066D+00 -0.426987D-02  0.104710D+00  0.134340D-01
     30 -0.270345D+00  0.601612D-01  0.811566D-02 -0.441609D-02  0.294130D-02
     31 -0.307668D-02  0.668742D-02  0.433413D-01  0.992207D-02  0.290168D-02
     32 -0.387494D-02  0.427477D-02  0.245543D-01  0.678483D-02  0.453333D-02
     33 -0.617295D-03 -0.391240D-02  0.151230D-02  0.283555D-02  0.514649D-02
               16            17            18            19            20 
     16  0.181384D+02
     17  0.588812D+00  0.115411D+02
     18 -0.399809D+01  0.583823D+01  0.301741D+02
     19  0.137458D+00 -0.758433D-01  0.120569D+00  0.418015D+01
     20 -0.770451D-01 -0.436793D-02  0.191204D+00 -0.516589D-01  0.293383D+01
     21  0.874406D-01  0.148395D+00  0.359464D-01 -0.295881D-02  0.165071D+01
     22  0.128011D-01  0.201117D-01 -0.142224D-01  0.873276D-01  0.512106D-02
     23  0.863085D-01 -0.395230D-01  0.813932D-02  0.272618D-02  0.992705D-01
     24  0.366799D-01  0.230797D-01 -0.155252D-01  0.469455D-01 -0.355063D-01
     25  0.224358D+00  0.107512D+00  0.131421D-01 -0.672154D-01  0.193733D-01
     26  0.153660D+00 -0.534344D-01  0.746456D-02  0.119763D-01  0.381049D-01
     27  0.783742D-02  0.440606D-02 -0.908243D-01 -0.650625D-01  0.141751D-01
     28  0.593759D-01 -0.125398D+00 -0.152454D-01 -0.122162D-02 -0.290418D-02
     29 -0.179377D+00  0.399624D-01  0.154746D-01 -0.367173D-02  0.128486D-01
     30 -0.268841D-02  0.711451D-03 -0.874036D-01  0.549042D-03 -0.474689D-02
     31 -0.230059D-01  0.520219D-01 -0.154176D-01  0.886756D-02  0.127893D-01
     32  0.129945D+00  0.255013D-01  0.211020D-01  0.765697D-02  0.625146D-02
     33 -0.357779D-01 -0.477605D-03 -0.389702D-01 -0.102181D-02 -0.142661D-02
               21            22            23            24            25 
     21  0.187821D+01
     22  0.376918D-01  0.373124D+01
     23 -0.188044D-01  0.511147D+00  0.216824D+01
     24 -0.157226D+00  0.525144D+00 -0.165494D+01  0.289915D+01
     25 -0.609396D-01  0.280897D-01 -0.275001D-01 -0.241678D-01  0.309837D+01
     26  0.146936D-01 -0.146867D-03 -0.180316D-01 -0.529273D-02 -0.207970D+01
     27  0.491862D-02 -0.106739D-01  0.698998D-02 -0.514478D-02  0.340786D+00
     28  0.902864D-03 -0.236210D-02 -0.197749D-02 -0.543704D-03 -0.348351D-01
     29 -0.120713D-01 -0.568534D-02  0.125007D-01  0.828093D-02  0.542954D-01
     30  0.186930D-02  0.153719D-02 -0.201519D-02 -0.266068D-02  0.675562D-02
     31 -0.930416D-02  0.286880D-02  0.120750D-01  0.842112D-02  0.673353D-02
     32 -0.748618D-02  0.388966D-02  0.828476D-02  0.748789D-02  0.526790D-02
     33 -0.176124D-02  0.217731D-02  0.326588D-02 -0.285352D-03  0.226425D-03
               26            27            28            29            30 
     26  0.237707D+01
     27  0.355916D+00  0.492163D+01
     28  0.237909D-01  0.306170D-02  0.520777D+01
     29  0.147937D+00  0.280586D-01 -0.508399D+00  0.153450D+01
     30  0.207108D-01 -0.386444D-01  0.333513D+00  0.162348D+01  0.486593D+01
     31  0.557435D-02 -0.103676D-02  0.409338D-02 -0.701624D-02  0.270856D-02
     32  0.313097D-02 -0.884140D-03 -0.225002D-03 -0.417570D-02  0.155111D-02
     33  0.319785D-03 -0.693057D-03  0.121900D-03 -0.667946D-04 -0.867416D-03
               31            32            33 
     31  0.309727D+01
     32 -0.224255D+01  0.290033D+01
     33 -0.800508D-01  0.923800D-01  0.550762D+01
 Leave Link  701 at Mon Mar 11 17:03:41 2019, MaxMem=   671088640 cpu:               7.1 elap:               0.4
 (Enter /shared/centos7/gaussian/g16/l702.exe)
 L702 exits ... SP integral derivatives will be done elsewhere.
 Leave Link  702 at Mon Mar 11 17:03:41 2019, MaxMem=   671088640 cpu:               0.4 elap:               0.0
 (Enter /shared/centos7/gaussian/g16/l703.exe)
 Integral derivatives from FoFJK, PRISM(SPDF).
 Compute integral second derivatives, UseDBF=F ICtDFT=           0.
 ICntrl=    100147.
 Calling FoFJK, ICntrl=    100147 FMM=F ISym2X=0 I1Cent= 0 IOpClX= 0 NMat=1 NMatS=1 NMatT=0.
 FoFJK:  IHMeth= 1 ICntrl=  100147 DoSepK=F KAlg= 0 I1Cent=           0 FoldK=F
 IRaf=         0 NMat=       1 IRICut=       1 DoRegI=T DoRafI=F ISym2E= 0 IDoP0=0 IntGTp=1.
 FoFCou: FMM=F IPFlag=           0 FMFlag=      100000 FMFlg1=         800
         NFxFlg=           0 DoJE=F BraDBF=F KetDBF=F FulRan=T
         wScrn=  0.000000 ICntrl=    100147 IOpCl=  0 I1Cent=           0 NGrid=           0
         NMat0=    1 NMatS0=      1 NMatT0=    0 NMatD0=    1 NMtDS0=    0 NMtDT0=    0
 Symmetry not used in FoFCou.
 FoFCou:  KetSym=F NOpSet=  1 NOpAb=1 NOp=  1.
 FoFCou:  CnvScl= 1.00D+00 Thresh= 1.00D-08 IAcrcy=      12.
 PrismS was handed   670795238 working-precision words and  2611 shell-pairs
 FoFCou: LinMIO=F DoNuc=F BraDBF=F KetDBF=F HaveP=T PDBF=F HaveZ=T HaveW=F
         NIJTC =      15 NIJTAt=       0 NIJTCD=       0 NIJTT =      15
         IJTBeg=       1 IJTEnd=      15 KLTBeg=       1 KLTEnd=      15
         IPTBeg=       1 IPTEnd=      15 IPTBCv=       1 IPTECv=      15
         IZTBeg=       1 IZTEnd=      15 IZTBCv=       1 IZTECv=      15
         IWTBeg=      16 IWTEnd=      15 IWTBCv=      16 IWTECv=      15
         INTBeg=       1 INTEnd=       0 IFTBCv=       1 IFTECv=      15
 NCel replicated for PrismC:     1
 CoulSu-InSpLW:  IPartL=    0 NPrtUS=   20 NPrtUL=    1 DoSpLW=F IThBeg=    0 IThEnd=   19 NThAct=   20.
 CoulSu:  IncDef=  1024 NBBP=        3409966 NTPThr=   100 NPartT=   20 Incr=        1024 LDynOK=F GPUOK=T.
 CoulSu:  NPrtUS=  20 ThrOK=T IAlg=1 NPAlg=1 LenDen=           0 LWGrdD=           0 DoCopy=F ISkipM=0
          DoSpLW=F IThBeg=    0 IThEnd=   19.
 Enter PrismC:  IPart=  0 JobTyp=22 DoJE=F Cont=F.
 PrismC:  IPart=     0 DynPar=T LinDyn=F Incr=        1024 UseFst=F UseS4=T ISplat=2.
 PrismC was handed    33487341 working-precision words and  2611 shell-pairs
 Enter PrismC:  IPart=  5 JobTyp=22 DoJE=F Cont=F.
 PrismC:  IPart=     5 DynPar=T LinDyn=F Incr=        1024 UseFst=F UseS4=T ISplat=2.
 PrismC was handed    33487341 working-precision words and  2611 shell-pairs
 Enter PrismC:  IPart= 12 JobTyp=22 DoJE=F Cont=F.
 PrismC:  IPart=    12 DynPar=T LinDyn=F Incr=        1024 UseFst=F UseS4=T ISplat=2.
 PrismC was handed    33487341 working-precision words and  2611 shell-pairs
 Enter PrismC:  IPart=  1 JobTyp=22 DoJE=F Cont=F.
 PrismC:  IPart=     1 DynPar=T LinDyn=F Incr=        1024 UseFst=F UseS4=T ISplat=2.
 PrismC was handed    33487341 working-precision words and  2611 shell-pairs
 Enter PrismC:  IPart=  4 JobTyp=22 DoJE=F Cont=F.
 Enter PrismC:  IPart=  9 JobTyp=22 DoJE=F Cont=F.
 PrismC:  IPart=     4 DynPar=T LinDyn=F Incr=        1024 UseFst=F UseS4=T ISplat=2.
 PrismC was handed    33487341 working-precision words and  2611 shell-pairs
 PrismC:  IPart=     9 DynPar=T LinDyn=F Incr=        1024 UseFst=F UseS4=T ISplat=2.
 PrismC was handed    33487341 working-precision words and  2611 shell-pairs
 Enter PrismC:  IPart= 15 JobTyp=22 DoJE=F Cont=F.
 Enter PrismC:  IPart= 13 JobTyp=22 DoJE=F Cont=F.
 PrismC:  IPart=    15 DynPar=T LinDyn=F Incr=        1024 UseFst=F UseS4=T ISplat=2.
 PrismC:  IPart=    13 DynPar=T LinDyn=F Incr=        1024 UseFst=F UseS4=T ISplat=2.
 PrismC was handed    33487341 working-precision words and  2611 shell-pairs
 PrismC was handed    33487341 working-precision words and  2611 shell-pairs
 Enter PrismC:  IPart= 18 JobTyp=22 DoJE=F Cont=F.
 PrismC:  IPart=    18 DynPar=T LinDyn=F Incr=        1024 UseFst=F UseS4=T ISplat=2.
 PrismC was handed    33487341 working-precision words and  2611 shell-pairs
 Enter PrismC:  IPart= 17 JobTyp=22 DoJE=F Cont=F.
 Enter PrismC:  IPart=  3 JobTyp=22 DoJE=F Cont=F.
 PrismC:  IPart=    17 DynPar=T LinDyn=F Incr=        1024 UseFst=F UseS4=T ISplat=2.
 PrismC:  IPart=     3 DynPar=T LinDyn=F Incr=        1024 UseFst=F UseS4=T ISplat=2.
 PrismC was handed    33487341 working-precision words and  2611 shell-pairs
 PrismC was handed    33487341 working-precision words and  2611 shell-pairs
 Enter PrismC:  IPart= 11 JobTyp=22 DoJE=F Cont=F.
 PrismC:  IPart=    11 DynPar=T LinDyn=F Incr=        1024 UseFst=F UseS4=T ISplat=2.
 PrismC was handed    33487341 working-precision words and  2611 shell-pairs
 Enter PrismC:  IPart= 14 JobTyp=22 DoJE=F Cont=F.
 PrismC:  IPart=    14 DynPar=T LinDyn=F Incr=        1024 UseFst=F UseS4=T ISplat=2.
 PrismC was handed    33487341 working-precision words and  2611 shell-pairs
 Enter PrismC:  IPart=  2 JobTyp=22 DoJE=F Cont=F.
 PrismC:  IPart=     2 DynPar=T LinDyn=F Incr=        1024 UseFst=F UseS4=T ISplat=2.
 PrismC was handed    33487341 working-precision words and  2611 shell-pairs
 Enter PrismC:  IPart= 16 JobTyp=22 DoJE=F Cont=F.
 PrismC:  IPart=    16 DynPar=T LinDyn=F Incr=        1024 UseFst=F UseS4=T ISplat=2.
 PrismC was handed    33487341 working-precision words and  2611 shell-pairs
 Enter PrismC:  IPart=  8 JobTyp=22 DoJE=F Cont=F.
 PrismC:  IPart=     8 DynPar=T LinDyn=F Incr=        1024 UseFst=F UseS4=T ISplat=2.
 PrismC was handed    33487341 working-precision words and  2611 shell-pairs
 Enter PrismC:  IPart= 10 JobTyp=22 DoJE=F Cont=F.
 PrismC:  IPart=    10 DynPar=T LinDyn=F Incr=        1024 UseFst=F UseS4=T ISplat=2.
 PrismC was handed    33487341 working-precision words and  2611 shell-pairs
 Enter PrismC:  IPart= 19 JobTyp=22 DoJE=F Cont=F.
 Enter PrismC:  IPart=  6 JobTyp=22 DoJE=F Cont=F.
 PrismC:  IPart=    19 DynPar=T LinDyn=F Incr=        1024 UseFst=F UseS4=T ISplat=2.
 Enter PrismC:  IPart=  7 JobTyp=22 DoJE=F Cont=F.
 PrismC was handed    33487341 working-precision words and  2611 shell-pairs
 PrismC:  IPart=     6 DynPar=T LinDyn=F Incr=        1024 UseFst=F UseS4=T ISplat=2.
 PrismC was handed    33487341 working-precision words and  2611 shell-pairs
 PrismC:  IPart=     7 DynPar=T LinDyn=F Incr=        1024 UseFst=F UseS4=T ISplat=2.
 PrismC was handed    33487341 working-precision words and  2611 shell-pairs
 IPart= 14 NShTot=      114705 NShNF=      114705 NShFF=           0 MinMC=       7
           NShCPU=      114705 NBCPU=        4832 AvBCPU=        23.7
           NShGPU=           0 NBGPU=           0 AvBGPU=         0.0
 IPart=  4 NShTot=      115348 NShNF=      115348 NShFF=           0 MinMC=       7
           NShCPU=      115348 NBCPU=        5247 AvBCPU=        22.0
           NShGPU=           0 NBGPU=           0 AvBGPU=         0.0
 IPart= 15 NShTot=      120158 NShNF=      120158 NShFF=           0 MinMC=       7
           NShCPU=      120158 NBCPU=        5266 AvBCPU=        22.8
           NShGPU=           0 NBGPU=           0 AvBGPU=         0.0
 IPart=  7 NShTot=      109268 NShNF=      109268 NShFF=           0 MinMC=       7
           NShCPU=      109268 NBCPU=        4767 AvBCPU=        22.9
           NShGPU=           0 NBGPU=           0 AvBGPU=         0.0
 IPart=  3 NShTot=      107204 NShNF=      107204 NShFF=           0 MinMC=       7
           NShCPU=      107204 NBCPU=        4414 AvBCPU=        24.3
           NShGPU=           0 NBGPU=           0 AvBGPU=         0.0
 IPart= 17 NShTot=      119437 NShNF=      119437 NShFF=           0 MinMC=       7
           NShCPU=      119437 NBCPU=        5308 AvBCPU=        22.5
           NShGPU=           0 NBGPU=           0 AvBGPU=         0.0
 IPart=  6 NShTot=      121617 NShNF=      121617 NShFF=           0 MinMC=       7
           NShCPU=      121617 NBCPU=        5264 AvBCPU=        23.1
           NShGPU=           0 NBGPU=           0 AvBGPU=         0.0
 IPart=  1 NShTot=      120404 NShNF=      120404 NShFF=           0 MinMC=       7
           NShCPU=      120404 NBCPU=        4836 AvBCPU=        24.9
           NShGPU=           0 NBGPU=           0 AvBGPU=         0.0
 IPart=  5 NShTot=      119674 NShNF=      119674 NShFF=           0 MinMC=       7
           NShCPU=      119674 NBCPU=        4962 AvBCPU=        24.1
           NShGPU=           0 NBGPU=           0 AvBGPU=         0.0
 IPart=  0 NShTot=      122821 NShNF=      122821 NShFF=           0 MinMC=       7
           NShCPU=      122821 NBCPU=        5257 AvBCPU=        23.4
           NShGPU=           0 NBGPU=           0 AvBGPU=         0.0
 IPart= 12 NShTot=      119788 NShNF=      119788 NShFF=           0 MinMC=       7
           NShCPU=      119788 NBCPU=        5191 AvBCPU=        23.1
           NShGPU=           0 NBGPU=           0 AvBGPU=         0.0
 IPart=  9 NShTot=      121637 NShNF=      121637 NShFF=           0 MinMC=       7
           NShCPU=      121637 NBCPU=        5203 AvBCPU=        23.4
           NShGPU=           0 NBGPU=           0 AvBGPU=         0.0
 IPart= 19 NShTot=      111426 NShNF=      111426 NShFF=           0 MinMC=       7
           NShCPU=      111426 NBCPU=        4998 AvBCPU=        22.3
           NShGPU=           0 NBGPU=           0 AvBGPU=         0.0
 IPart=  8 NShTot=      121351 NShNF=      121351 NShFF=           0 MinMC=       7
           NShCPU=      121351 NBCPU=        4988 AvBCPU=        24.3
           NShGPU=           0 NBGPU=           0 AvBGPU=         0.0
 IPart= 18 NShTot=      122003 NShNF=      122003 NShFF=           0 MinMC=       7
           NShCPU=      122003 NBCPU=        5658 AvBCPU=        21.6
           NShGPU=           0 NBGPU=           0 AvBGPU=         0.0
 IPart= 11 NShTot=      113785 NShNF=      113785 NShFF=           0 MinMC=       7
           NShCPU=      113785 NBCPU=        4506 AvBCPU=        25.3
           NShGPU=           0 NBGPU=           0 AvBGPU=         0.0
 IPart= 13 NShTot=      117311 NShNF=      117311 NShFF=           0 MinMC=       7
           NShCPU=      117311 NBCPU=        5388 AvBCPU=        21.8
           NShGPU=           0 NBGPU=           0 AvBGPU=         0.0
 IPart= 16 NShTot=      112009 NShNF=      112009 NShFF=           0 MinMC=       7
           NShCPU=      112009 NBCPU=        5011 AvBCPU=        22.4
           NShGPU=           0 NBGPU=           0 AvBGPU=         0.0
 IPart=  2 NShTot=      118148 NShNF=      118148 NShFF=           0 MinMC=       7
           NShCPU=      118148 NBCPU=        5279 AvBCPU=        22.4
           NShGPU=           0 NBGPU=           0 AvBGPU=         0.0
 IPart= 10 NShTot=      103445 NShNF=      103445 NShFF=           0 MinMC=       7
           NShCPU=      103445 NBCPU=        4576 AvBCPU=        22.6
           NShGPU=           0 NBGPU=           0 AvBGPU=         0.0
 CoulSu:  NxtVal=        3579905 LenVP=       33487342 MinMC=       7.
 ReadGW:  IGet=0 IStart=           1 Next=           1 LGW=           0.
 Remaining memory in FofDFT      639.92 Mw
 CkSvGd:  ISavGI=        -1 IRadAn=       5 IRASav=       5 ISavGd=        -1.
 CalDSu-InSpLW:  IPartL=    0 NPrtUS=   20 NPrtUL=    1 DoSpLW=F IThBeg=    0 IThEnd=   19 NThAct=   20.
 CalDSu:  NPrtUS=  20 ThrOK=T IAlg=1 NPAlg=2 DoDPD=T LenP=       39060 LenD1P=             0 GPUOK=F
          ISkipM=0 DoSpLW=F IThBeg=    0 IThEnd=   19.
 IPart=  0 IRanGd=          0 ScrnBf=T ScrnGd=T RCrit=4.00D+00 DoMicB=T.
 IPart=  3        11268 of        12724 points in      14 batches and       78 microbatches, Max-NSigAt=      11 Max-NSgAt2=      11
 IPart=  7        12934 of        15002 points in      17 batches and       80 microbatches, Max-NSigAt=      11 Max-NSgAt2=      11
 IPart= 12        11383 of        12154 points in      12 batches and       54 microbatches, Max-NSigAt=      11 Max-NSgAt2=      11
 IPart=  2         9602 of        10402 points in      11 batches and       70 microbatches, Max-NSigAt=      11 Max-NSgAt2=      11
 IPart=  6        10047 of        10732 points in      11 batches and       68 microbatches, Max-NSigAt=      11 Max-NSgAt2=      11
 IPart= 11        11526 of        12630 points in      12 batches and       65 microbatches, Max-NSigAt=      11 Max-NSgAt2=      11
 IPart= 17        10032 of        11006 points in      12 batches and       87 microbatches, Max-NSigAt=      11 Max-NSgAt2=      11
 IPart= 13        10518 of        11276 points in      11 batches and       69 microbatches, Max-NSigAt=      11 Max-NSgAt2=      11
 IPart= 14        10191 of        10688 points in      11 batches and       57 microbatches, Max-NSigAt=      11 Max-NSgAt2=      11
 IPart=  9        13236 of        14868 points in      16 batches and       58 microbatches, Max-NSigAt=      11 Max-NSgAt2=      11
 IPart=  8        11762 of        13220 points in      14 batches and       61 microbatches, Max-NSigAt=      11 Max-NSgAt2=      11
 IPart=  4         9836 of        10454 points in      11 batches and       66 microbatches, Max-NSigAt=      11 Max-NSgAt2=      11
 IPart= 10        13664 of        16100 points in      17 batches and       74 microbatches, Max-NSigAt=      11 Max-NSgAt2=      11
 IPart= 19        10941 of        13116 points in      15 batches and       73 microbatches, Max-NSigAt=      11 Max-NSgAt2=      11
 IPart= 15        13402 of        15164 points in      16 batches and       51 microbatches, Max-NSigAt=      11 Max-NSgAt2=      11
 IPart=  5        10788 of        12196 points in      14 batches and       84 microbatches, Max-NSigAt=      11 Max-NSgAt2=      11
 IPart= 16        12034 of        12616 points in      12 batches and       46 microbatches, Max-NSigAt=      11 Max-NSgAt2=      11
 IPart=  0        11189 of        11890 points in      12 batches and       67 microbatches, Max-NSigAt=      11 Max-NSgAt2=      11
 IPart=  1        11217 of        12238 points in      13 batches and       72 microbatches, Max-NSigAt=      11 Max-NSgAt2=      11
 IPart= 18        12514 of        13612 points in      13 batches and       64 microbatches, Max-NSigAt=      11 Max-NSgAt2=      11
 Polarizability after L703:
                1             2             3 
      1  0.000000D+00
      2  0.000000D+00  0.000000D+00
      3  0.000000D+00  0.000000D+00  0.000000D+00
 Dipole Derivatives after L703:
                 1             2             3             4             5 
      1  -0.714958D-01  0.851277D+00 -0.155462D+00 -0.957574D+00 -0.794702D+00
      2  -0.144092D+00 -0.961374D+00  0.228964D+00 -0.131647D+00 -0.511165D+00
      3  -0.848215D-02 -0.133664D+00 -0.525054D+00 -0.620250D-01 -0.144314D+00
                 6             7             8             9            10 
      1   0.682315D-01 -0.518617D+00  0.358045D+00 -0.921574D-01 -0.120034D+01
      2  -0.316929D-01 -0.421399D-01 -0.189574D+00 -0.113217D+00 -0.469263D+00
      3  -0.451035D+00  0.225322D-01 -0.169905D+00 -0.509693D+00 -0.873253D-01
                11            12            13            14            15 
      1  -0.806294D+00  0.910902D-01 -0.604222D-01 -0.185306D+00  0.202046D+00
      2  -0.522614D+00  0.133005D+00  0.252354D+00 -0.124985D+01  0.129433D+00
      3   0.159881D-02 -0.163730D+00  0.237643D+00 -0.948164D-01 -0.912193D+00
                16            17            18            19            20 
      1   0.169336D+00 -0.418384D+00 -0.763556D-02  0.206691D+00  0.684739D-01
      2   0.109654D+00  0.175803D+00  0.868556D-01  0.490485D-01  0.512036D+00
      3  -0.178383D+00  0.154465D+00  0.662936D+00 -0.405575D-01 -0.186829D+00
                21            22            23            24            25 
      1  -0.107317D+00  0.149771D+00 -0.156443D-01 -0.526693D-02  0.921629D+00
      2  -0.556852D+00 -0.187241D+00  0.719047D+00  0.512627D+00  0.323731D+00
      3   0.487807D+00 -0.874884D-01  0.302428D+00  0.455664D+00  0.782049D-01
                26            27            28            29            30 
      1   0.638479D+00 -0.257914D+00  0.173953D+00 -0.609622D+00  0.275255D+00
      2   0.634859D+00 -0.123173D+00  0.102477D+00  0.912946D+00 -0.262312D+00
      3   0.102658D+00  0.273061D+00  0.113378D-01  0.517006D-01  0.369802D+00
                31            32            33 
      1   0.118706D+01  0.913677D+00 -0.108695D-01
      2   0.137118D+00  0.479882D+00 -0.363637D-02
      3   0.114543D+00  0.116676D+00  0.312436D+00
 Hessian after L703:
                1             2             3             4             5 
      1  0.915764D-01
      2  0.357890D-01  0.507655D+00
      3 -0.645817D-01 -0.118645D+00  0.241984D+00
      4 -0.993020D-03  0.403977D-03  0.113929D-02  0.355542D+00
      5  0.110248D-02  0.154067D-02  0.638280D-03  0.174656D+00  0.447516D+00
      6 -0.801681D-03 -0.269372D-03  0.616711D-03  0.395593D-01 -0.575288D-01
      7 -0.552149D-02 -0.165894D-02  0.101390D-02 -0.101566D-01  0.598262D-01
      8  0.212213D-02  0.509689D-02  0.194818D-02  0.580425D-01 -0.375746D-01
      9  0.264833D-02 -0.588678D-05 -0.640137D-04 -0.270860D-01  0.345996D-01
     10 -0.599289D-01  0.454692D-02  0.179464D-01 -0.289982D-02 -0.380807D-02
     11 -0.601441D-02 -0.986271D-01 -0.310295D-01 -0.668345D-02 -0.460454D-02
     12  0.459774D-02 -0.229264D-01 -0.101263D+00 -0.749812D-03 -0.129813D-02
     13 -0.874822D-02  0.103827D-01  0.479609D-02 -0.250707D-01 -0.183039D-01
     14  0.253247D-01 -0.208729D-01 -0.175048D-02  0.871292D-02  0.116273D-01
     15  0.321498D-01 -0.253494D-01 -0.348554D-02 -0.131510D-01 -0.498754D-02
     16  0.351534D-02 -0.288447D-02 -0.136979D-02 -0.116765D+00 -0.331594D-01
     17 -0.391243D-02 -0.645195D-02 -0.460982D-02 -0.166494D-01 -0.111440D+00
     18  0.214029D-02  0.194386D-02 -0.796509D-03 -0.689900D-02  0.127278D-02
     19  0.240491D-02 -0.296080D-02  0.437005D-03 -0.159985D-02  0.997174D-04
     20 -0.171695D-02  0.979724D-03  0.762868D-03  0.299569D-03  0.835396D-03
     21  0.355590D-03  0.260559D-03  0.319085D-02 -0.234819D-03 -0.643691D-03
     22 -0.548707D-02  0.516780D-02 -0.966492D-05 -0.249488D-02  0.107187D-02
     23  0.256303D-02 -0.298779D-03  0.100342D-02 -0.260965D-03  0.108071D-02
[...]
    R3        2.53777  -0.00000   0.00000  -0.00000  -0.00000   2.53777
    R4        1.82514  -0.00000   0.00000   0.00000   0.00000   1.82514
    R5        2.26168   0.00000   0.00000   0.00000   0.00000   2.26168
    R6        2.73120  -0.00000   0.00000  -0.00000  -0.00000   2.73120
    R7        1.91371  -0.00000   0.00000  -0.00000  -0.00000   1.91371
    R8        2.85330  -0.00000   0.00000  -0.00000  -0.00000   2.85330
    R9        2.07154  -0.00000   0.00000   0.00000   0.00000   2.07154
   R10        2.06162  -0.00000   0.00000  -0.00000  -0.00000   2.06162
    A1        1.79489   0.00000   0.00000   0.00000   0.00000   1.79489
    A2        1.87916  -0.00000   0.00000   0.00000   0.00000   1.87916
    A3        1.88763   0.00000   0.00000   0.00000   0.00000   1.88763
    A4        1.81410  -0.00000   0.00000  -0.00000  -0.00000   1.81410
    A5        1.91020   0.00000   0.00000  -0.00000  -0.00000   1.91020
    A6        1.91618   0.00000   0.00000   0.00000   0.00000   1.91618
    A7        1.98185   0.00000   0.00000  -0.00000  -0.00000   1.98185
    A8        1.90529  -0.00000   0.00000  -0.00000  -0.00000   1.90529
    A9        1.87573  -0.00000   0.00000  -0.00000  -0.00000   1.87573
   A10        1.89409   0.00000   0.00000   0.00000   0.00000   1.89409
   A11        1.88867   0.00000   0.00000   0.00000   0.00000   1.88867
   A12        2.15071  -0.00000   0.00000  -0.00000  -0.00000   2.15071
   A13        1.93889   0.00000   0.00000   0.00000   0.00000   1.93889
   A14        2.19346  -0.00000   0.00000  -0.00000  -0.00000   2.19346
    D1        1.72826  -0.00000   0.00000  -0.00001  -0.00001   1.72826
    D2       -2.52587  -0.00000   0.00000  -0.00001  -0.00001  -2.52588
    D3        0.00889   0.00000   0.00000   0.00000   0.00000   0.00889
    D4       -3.11660  -0.00000   0.00000   0.00000   0.00000  -3.11660
    D5       -1.25931  -0.00000   0.00000  -0.00000  -0.00000  -1.25931
    D6        0.84076   0.00000   0.00000  -0.00000  -0.00000   0.84076
    D7        2.94959  -0.00000   0.00000  -0.00000  -0.00000   2.94959
    D8        3.05827   0.00000   0.00000  -0.00000  -0.00000   3.05827
    D9       -1.12484   0.00000   0.00000  -0.00000  -0.00000  -1.12484
   D10        0.98399   0.00000   0.00000  -0.00000  -0.00000   0.98399
   D11       -3.06046   0.00000   0.00000   0.00001   0.00001  -3.06045
   D12        0.09772   0.00000   0.00000   0.00001   0.00001   0.09773
   D13        1.05942   0.00000   0.00000   0.00001   0.00001   1.05943
   D14       -2.06559   0.00000   0.00000   0.00001   0.00001  -2.06557
   D15       -0.97929   0.00000   0.00000   0.00001   0.00001  -0.97927
   D16        2.17889   0.00000   0.00000   0.00001   0.00001   2.17890
         Item               Value     Threshold  Converged?
 Maximum Force            0.000000     0.000002     YES
 RMS     Force            0.000000     0.000001     YES
 Maximum Displacement     0.000016     0.000006     NO 
 RMS     Displacement     0.000006     0.000004     NO 
 Predicted change in Energy=-1.566799D-12
                           ----------------------------
                           ! Non-Optimized Parameters !
                           ! (Angstroms and Degrees)  !
 --------------------------                            --------------------------
 ! Name  Definition              Value          Derivative Info.                !
 --------------------------------------------------------------------------------
 ! R1    R(1,4)                  1.4167         -DE/DX =    0.0                 !
 ! R2    R(1,10)                 0.9624         -DE/DX =    0.0                 !
 ! R3    R(2,6)                  1.3429         -DE/DX =    0.0                 !
 ! R4    R(2,11)                 0.9658         -DE/DX =    0.0                 !
 ! R5    R(3,6)                  1.1968         -DE/DX =    0.0                 !
 ! R6    R(4,5)                  1.4453         -DE/DX =    0.0                 !
 ! R7    R(4,9)                  1.0127         -DE/DX =    0.0                 !
 ! R8    R(5,6)                  1.5099         -DE/DX =    0.0                 !
 ! R9    R(5,7)                  1.0962         -DE/DX =    0.0                 !
 ! R10   R(5,8)                  1.091          -DE/DX =    0.0                 !
 ! A1    A(4,1,10)             102.8396         -DE/DX =    0.0                 !
 ! A2    A(6,2,11)             107.6677         -DE/DX =    0.0                 !
 ! A3    A(1,4,5)              108.1532         -DE/DX =    0.0                 !
 ! A4    A(1,4,9)              103.9401         -DE/DX =    0.0                 !
 ! A5    A(5,4,9)              109.4465         -DE/DX =    0.0                 !
 ! A6    A(4,5,6)              109.7891         -DE/DX =    0.0                 !
 ! A7    A(4,5,7)              113.5517         -DE/DX =    0.0                 !
 ! A8    A(4,5,8)              109.1649         -DE/DX =    0.0                 !
 ! A9    A(6,5,7)              107.4715         -DE/DX =    0.0                 !
 ! A10   A(6,5,8)              108.5231         -DE/DX =    0.0                 !
 ! A11   A(7,5,8)              108.213          -DE/DX =    0.0                 !
 ! A12   A(2,6,3)              123.2265         -DE/DX =    0.0                 !
 ! A13   A(2,6,5)              111.0903         -DE/DX =    0.0                 !
 ! A14   A(3,6,5)              125.676          -DE/DX =    0.0                 !
 ! D1    D(10,1,4,5)            99.0219         -DE/DX =    0.0                 !
 ! D2    D(10,1,4,9)          -144.7221         -DE/DX =    0.0                 !
 ! D3    D(11,2,6,3)             0.5093         -DE/DX =    0.0                 !
 ! D4    D(11,2,6,5)          -178.568          -DE/DX =    0.0                 !
 ! D5    D(1,4,5,6)            -72.1532         -DE/DX =    0.0                 !
 ! D6    D(1,4,5,7)             48.1717         -DE/DX =    0.0                 !
 ! D7    D(1,4,5,8)            168.9988         -DE/DX =    0.0                 !
 ! D8    D(9,4,5,6)            175.2262         -DE/DX =    0.0                 !
 ! D9    D(9,4,5,7)            -64.4489         -DE/DX =    0.0                 !
 ! D10   D(9,4,5,8)             56.3782         -DE/DX =    0.0                 !
 ! D11   D(4,5,6,2)           -175.3506         -DE/DX =    0.0                 !
 ! D12   D(4,5,6,3)              5.5996         -DE/DX =    0.0                 !
 ! D13   D(7,5,6,2)             60.7011         -DE/DX =    0.0                 !
 ! D14   D(7,5,6,3)           -118.3487         -DE/DX =    0.0                 !
 ! D15   D(8,5,6,2)            -56.1083         -DE/DX =    0.0                 !
 ! D16   D(8,5,6,3)            124.8419         -DE/DX =    0.0                 !
 --------------------------------------------------------------------------------
 GradGradGradGradGradGradGradGradGradGradGradGradGradGradGradGradGradGrad

 Leave Link  103 at Mon Mar 11 17:12:00 2019, MaxMem=   671088640 cpu:               0.5 elap:               0.1
 (Enter /shared/centos7/gaussian/g16/l9999.exe)

 ----------------------------------------------------------------------

 Electric dipole moment (input orientation):
 (Debye = 10**-18 statcoulomb cm , SI units = C m)
                  (au)            (Debye)         (10**-30 SI)
   Tot        0.840081D+00      0.213527D+01      0.712250D+01
   x         -0.626076D+00     -0.159133D+01     -0.530809D+01
   y         -0.118643D+00     -0.301561D+00     -0.100590D+01
   z         -0.547438D+00     -0.139145D+01     -0.464137D+01

 Dipole polarizability, Alpha (input orientation).
 (esu units = cm**3 , SI units = C**2 m**2 J**-1)
 Alpha(0;0):
               (au)            (10**-24 esu)      (10**-40 SI)
   iso        0.448842D+02      0.665116D+01      0.740041D+01
   aniso      0.135522D+02      0.200823D+01      0.223446D+01
   xx         0.440923D+02      0.653381D+01      0.726984D+01
   yx         0.359766D+01      0.533118D+00      0.593173D+00
   yy         0.437457D+02      0.648245D+01      0.721270D+01
   zx         0.495339D+01      0.734016D+00      0.816703D+00
   zy        -0.457352D+01     -0.677725D+00     -0.754071D+00
   zz         0.468146D+02      0.693721D+01      0.771869D+01

 ----------------------------------------------------------------------

 Dipole orientation:
     8         -3.72869754          4.79313659          4.41568264
     8         -1.70916753         -0.33188571          9.91184375
     8         -2.70338765         -0.38668349          5.80647309
     7         -5.52293438          3.90981992          6.19555067
     6         -4.17386393          3.05409635          8.41076747
     6         -2.82360580          0.60748554          7.83436917
     1         -2.75501777          4.40285867          9.08824602
     1         -5.52056209          2.71568025          9.93462990
     1         -6.54354356          5.46826982          6.63359539
     1         -3.55418561          3.38106315          3.28290781
     1         -0.84240603         -1.86430052          9.43062279

 Electric dipole moment (dipole orientation):
 (Debye = 10**-18 statcoulomb cm , SI units = C m)
                  (au)            (Debye)         (10**-30 SI)
   Tot        0.840081D+00      0.213527D+01      0.712250D+01
   x          0.000000D+00      0.000000D+00      0.000000D+00
   y          0.000000D+00      0.000000D+00      0.000000D+00
   z          0.840081D+00      0.213527D+01      0.712250D+01

 Dipole polarizability, Alpha (dipole orientation).
 (esu units = cm**3 , SI units = C**2 m**2 J**-1)
 Alpha(0;0):
               (au)            (10**-24 esu)      (10**-40 SI)
   iso        0.448842D+02      0.665116D+01      0.740041D+01
   aniso      0.135522D+02      0.200823D+01      0.223446D+01
   xx         0.399638D+02      0.592203D+01      0.658914D+01
   yx        -0.577903D+01     -0.856364D+00     -0.952833D+00
   yy         0.447207D+02      0.662693D+01      0.737345D+01
   zx         0.109002D+01      0.161524D+00      0.179720D+00
   zy        -0.126263D+01     -0.187103D+00     -0.208180D+00
   zz         0.499681D+02      0.740451D+01      0.823863D+01

 ----------------------------------------------------------------------

 Test job not archived.
 1\1\GINC-C0189\Freq\RM062X\6-311+G(2df,2p)\C2H5N1O3\UNDERKOFFLER.C\11-
 Mar-2019\0\\#P Geom=AllCheck Guess=TCheck SCRF=Check Test GenChk RM062
 X/6-311+G(2df,2p) Freq\\Gaussian input prepared by ASE\\0,1\O,-2.88941
 66526,-2.7100551977,0.3060183424\O,-4.5204646061,-0.5096176217,-2.7687
 310466\O,-3.2524625007,-0.1406292002,-0.9650460163\N,-4.2513222655,-2.
 320781941,0.3338371214\C,-4.6799694625,-2.0844677792,-1.0260426397\C,-
 4.0609090753,-0.807868052,-1.5426312397\H,-4.403327465,-2.8880602607,-
 1.7184181925\H,-5.7653501356,-1.9760206694,-1.0457176995\H,-4.72998816
 2,-3.1338393826,0.7017540544\H,-2.4290048809,-1.8930689934,0.522288005
 4\H,-4.0779288352,0.2982438103,-3.0591400606\\Version=EM64L-G16RevA.03
 \State=1-A\HF=-359.5939469\RMSD=8.166e-09\RMSF=8.110e-07\ZeroPoint=0.0
 855766\Thermal=0.091819\Dipole=-0.6260761,-0.1186431,-0.5474375\Dipole
 Deriv=-0.6181375,0.0608503,-0.1595546,0.1160031,-0.2859476,0.1465011,-
 0.0238471,0.0832262,-0.4520302,-0.4659268,0.0403451,-0.2206016,0.13237
 49,-0.5065945,0.3730867,-0.3374249,0.2537629,-1.2679674,-0.7305377,-0.
 2740156,-0.36581,-0.356241,-0.765869,-0.1510202,-0.2265192,0.0377211,-
 0.7645424,0.1530517,-0.0470806,0.1114744,-0.0093796,-0.1848011,-0.0959
 331,0.0849078,-0.0593562,-0.3752324,0.0833718,-0.1483782,0.0502393,-0.
 1576269,0.0592975,-0.0094791,-0.0114757,-0.009392,0.3775744,0.8465665,
 0.3733077,0.588202,0.3539575,1.0136471,-0.2197324,0.545993,-0.2927341,
 1.5905304,0.0729296,0.0353885,0.0454665,0.0040448,-0.0228788,-0.062595
 1,-0.0100702,0.0000759,-0.090328,-0.034542,0.0107932,-0.0205779,0.0269
 219,0.0672412,0.0204706,0.0056384,0.0539501,0.0381179,0.1094956,-0.000
 8009,-0.0553172,-0.0590542,0.102965,0.0885945,-0.0505318,0.0190028,0.2
 379277,0.3048981,0.0129111,0.0484031,0.0046468,0.2311768,-0.0534277,0.
 0529143,-0.0395762,0.3587578,0.2788307,-0.0633206,-0.021924,-0.0556473
 ,0.2917635,-0.0364653,-0.0295846,-0.0466806,0.3471924\Polar=44.0923268
 ,3.5976569,43.745723,4.9533858,-4.5735182,46.8146087\Quadrupole=0.1203
 185,0.0093062,-0.1296247,2.012232,-1.1110993,-2.7129032\PG=C01 [X(C2H5
 N1O3)]\NImag=0\\0.46012807,0.14410483,0.48993374,0.06255100,0.10043533
 ,0.08174014,0.00140325,0.00066265,-0.00052147,0.24183749,0.00164701,0.
 00030098,-0.00037804,0.21921064,0.46903720,-0.00021647,0.00185332,-0.0
 0088817,0.07247784,-0.18296558,0.41400023,0.00432138,0.00377179,-0.003
 00774,-0.01605902,-0.01159162,-0.06666024,0.42988454,0.00285028,-0.003
 12803,0.00324115,-0.00795115,0.03410431,-0.02083353,0.32334086,0.32831
 178,0.00255903,0.00360753,-0.00174736,-0.07044494,-0.02623870,-0.06329
 351,0.29018106,0.19978273,0.29351537,-0.25269472,0.03733778,0.02211401
 ,-0.00134681,-0.00610097,0.00274788,-0.00322425,-0.00020686,-0.0005023
 3,0.50281259,0.04384995,-0.08657647,0.00030115,-0.00242810,-0.00614466
 ,0.00396051,0.00302524,0.00319508,0.00229858,0.11793465,0.46079266,-0.
 00101269,0.00817051,-0.05377253,0.00211806,0.00372083,-0.00144494,-0.0
 0019287,-0.00235767,0.00206186,-0.02033385,-0.18571712,0.43025574,-0.0
 3920906,0.00819672,-0.04532240,0.01206643,0.00617744,-0.00782157,-0.00
 533983,-0.03924777,-0.00603350,-0.09174340,0.00003638,-0.01380497,0.59
 758942,0.01257073,-0.00244309,0.01264187,-0.00590593,-0.00728220,0.012
 92797,-0.02954747,-0.01450813,0.00118478,-0.01031074,-0.07731856,0.004
 07359,-0.01923157,0.51096947,-0.00195259,-0.00283084,0.00423622,0.0080
 6818,0.03667362,-0.01934781,-0.02001808,-0.01649165,0.01007705,-0.0422
 1962,0.05320724,-0.23350857,-0.00247560,0.01114714,0.54337725,-0.00563
 297,-0.00082763,0.00339177,-0.10616718,-0.00624962,-0.06342456,-0.4011
 3475,-0.27492523,-0.22078175,0.00793156,0.00565819,-0.00677334,-0.1039
 8584,-0.03160125,0.02922580,0.60701526,-0.00701017,-0.00176118,0.00029
 101,-0.01657432,-0.12889056,0.05468882,-0.28064309,-0.33467377,-0.1738
 7776,0.00493256,-0.00823252,0.01281174,-0.03164876,-0.16679297,0.03461
 389,0.32813784,0.66609164,-0.00111302,-0.00312916,0.00369193,-0.050752
 35,0.06918115,-0.25144986,-0.20896664,-0.15922353,-0.24907705,0.016718
 73,0.03466586,-0.02782555,0.02129653,0.03408986,-0.09160376,0.24080002
 ,0.02846388,0.63732088,0.00348208,-0.00212790,0.00026672,-0.00035916,0
 .00078524,0.00015290,-0.00372731,-0.00109966,0.00113064,0.00213354,-0.
 00613695,-0.00905448,-0.06358314,0.04966942,0.04079475,0.00508949,-0.0
 1300889,-0.00905062,0.06442230,-0.00264325,0.00037039,-0.00020725,-0.0
 0112389,0.00124878,0.00241358,-0.00440571,-0.00147700,0.00304405,-0.00
 146029,0.01009992,0.00500777,0.05174784,-0.19434435,-0.11298433,0.0106
 3529,-0.02347684,-0.02154196,-0.05254468,0.20688878,0.00189800,0.00140
 143,0.00565219,0.00079340,0.00080217,-0.00165747,0.00356212,0.00122522
 ,-0.00007750,0.00432788,-0.02156566,-0.03820333,0.03960380,-0.11023358
 ,-0.13627657,-0.00648327,0.00414410,0.00781920,-0.04412242,0.12459054,
 0.16065957,0.00052524,-0.00026666,-0.00295829,0.00152348,0.00045908,-0
 .00047590,0.00083355,-0.00174945,0.00126896,-0.00929467,0.00104727,0.0
 0076276,-0.31225052,0.02626530,-0.00238925,-0.01541431,0.00147320,-0.0
 0116939,-0.00662620,0.00037960,0.00047374,0.34025083,0.00205839,0.0008
 6953,0.00258548,0.00210932,-0.00059235,-0.00010863,0.00020711,-0.00719
 858,-0.00017135,0.00649471,-0.00152843,-0.00150263,0.02354645,-0.04689
 166,0.00413889,-0.03166495,0.00662469,-0.00147293,0.02440989,-0.000919
 77,0.00013202,-0.02795687,0.05030027,-0.00561715,0.00098556,-0.0063624
 1,-0.00088276,0.00173978,-0.00133480,0.00006087,0.00256247,0.00049695,
 -0.03216741,0.00075470,0.00254180,0.00545430,0.00323693,-0.05153350,0.
 00996602,-0.00681908,0.00090227,0.01856462,-0.00038985,0.00072518,0.00
 489180,-0.00358868,0.05327507,-0.03891229,-0.03280292,0.00810874,0.000
 31360,0.00130544,-0.00092832,0.00049375,0.00054830,0.00007995,-0.12050
 123,-0.12808548,0.05555563,0.00852608,0.00964616,-0.00438409,-0.000375
 79,-0.00042731,-0.00310126,-0.00019228,-0.00026173,-0.00029571,0.00003
 227,0.00009395,0.00036504,0.15800424,0.01800476,0.01076775,-0.00936164
 ,-0.00025080,-0.00046584,0.00058361,0.00032933,0.00034359,0.00078123,-
 0.16575860,-0.30598562,0.15142172,-0.00209340,-0.00545433,-0.00956425,
 0.00038920,-0.00020619,0.00052035,-0.00005900,0.00134408,-0.00058592,0
 .00047321,-0.00015512,0.00091818,0.14685090,0.29915862,-0.00036330,-0.
 00212602,0.00043994,0.00083126,0.00188821,-0.00069325,0.00009580,-0.00
 057593,0.00121093,0.04624329,0.10513295,-0.07937236,0.01638485,0.03327
 798,-0.02092372,-0.00403301,-0.00220047,-0.00552344,0.00108222,-0.0002
 2067,0.00110090,-0.00018116,-0.00011360,0.00157990,-0.05844639,-0.1349
 7288,0.10201436,-0.13339988,-0.15795090,-0.04476946,0.00031406,-0.0002
 8171,0.00119178,-0.00000084,-0.00099387,0.00188378,-0.03489536,-0.0353
 5566,-0.00670671,-0.00359347,-0.00084785,-0.00155940,-0.00083078,0.000
 35000,-0.00255198,-0.00030477,0.00022136,0.00048320,0.00002113,0.00034
 410,-0.00055673,-0.00726949,0.00206531,-0.00143951,0.17990818,-0.21558
 924,-0.40851538,-0.10923393,-0.00148444,-0.00076866,-0.00191355,-0.003
 17458,-0.00315926,-0.00281742,0.01809234,0.01210510,0.00468940,0.00172
 960,0.00075700,-0.00068897,0.00485113,0.00466867,0.00325784,-0.0001259
 5,-0.00017745,0.00049112,0.00032335,-0.00051045,0.00096174,0.00299276,
 0.00049470,-0.00036038,0.19236468,0.39528656,-0.05655024,-0.10802129,-
 0.03332289,0.00083456,0.00013494,0.00205095,0.00352131,-0.00048875,0.0
 0126527,0.00216824,0.00543352,-0.00009807,-0.00275728,-0.00180187,-0.0
 0048717,-0.00467740,-0.00148599,-0.00388365,0.00017605,-0.00007486,-0.
 00010626,-0.00010105,0.00064217,-0.00040381,0.00326916,0.00017889,0.00
 060125,0.05417814,0.10524708,0.03467971,-0.00001109,-0.00009775,0.0001
 4711,-0.13352613,-0.20536092,0.06295666,-0.00604723,-0.00056543,0.0006
 5910,0.00082276,0.00045452,-0.00055752,0.00152333,-0.00070679,-0.00309
 010,0.01350533,0.01441893,-0.00211001,-0.00033455,-0.00054451,-0.00024
 074,0.00039920,0.00035789,-0.00007859,-0.00011886,0.00004909,-0.000174
 05,0.00005123,0.00002034,-0.00006150,0.12373602,0.00015672,0.00018177,
 -0.00031514,-0.18626398,-0.36054701,0.12939346,-0.00131186,-0.00180999
 ,-0.00759367,-0.00095460,-0.00040649,-0.00031815,0.00078707,0.00330881
 ,0.00277925,-0.00440296,-0.01335097,0.01518863,0.00023851,0.00044346,-
 0.00040145,-0.00044803,0.00000187,-0.00036174,0.00013994,0.00015836,0.
 00027081,0.00008455,-0.00018083,0.00023616,0.19197463,0.37220102,-0.00
 018255,-0.00034637,0.00033294,0.03747822,0.09544161,-0.07594138,0.0014
 2440,-0.00684051,0.00556798,0.00090317,0.00152828,-0.00063406,-0.00452
 415,-0.00054466,-0.00400943,0.02278972,0.04936985,-0.02037097,0.000059
 63,0.00036297,0.00036408,-0.00012223,-0.00054074,0.00011334,-0.0002227
 3,0.00008069,-0.00043451,-0.00015311,0.00036706,-0.00029532,-0.0574503
 6,-0.13887818,0.09530734\\0.00000125,0.00000102,-0.00000026,-0.0000013
 3,-0.00000024,-0.00000014,-0.00000149,0.00000078,0.00000001,0.00000087
 ,-0.00000023,0.00000001,0.00000036,-0.00000056,-0.00000002,-0.00000064
 ,0.00000017,0.00000040,0.00000108,-0.00000024,-0.00000008,0.00000019,-
 0.00000154,0.00000013,0.00000143,-0.00000075,-0.00000002,0.00000028,0.
 00000141,-0.00000018,-0.00000202,0.00000020,0.00000015\\\@


 ASKING FOR EFFICIENCY AND ADAPTABILITY IN THE SAME PROGRAM IS LIKE
 ASKING FOR A BEAUTIFUL AND MODEST WIFE ...
 WE'LL PROBABLY HAVE TO SETTLE FOR ONE OR THE OTHER.

             -- THE PSYCHOLOGY OF COMPUTER PROGRAMMING
                GERALD M. WEINBERG
 Job cpu time:       0 days  1 hours  1 minutes  6.2 seconds.
 Elapsed time:       0 days  0 hours  3 minutes  5.1 seconds.
 File lengths (MBytes):  RWF=   1328 Int=      0 D2E=      0 Chk=     32 Scr=     32
 Normal termination of Gaussian 16 at Mon Mar 11 17:12:00 2019.
