 Entering Gaussian System, Link 0=g16
 Input=DUEVIJNWLJUFDM-UHFFFAOYSA-N_36by10.0_tor03_a1.com
 Output=DUEVIJNWLJUFDM-UHFFFAOYSA-N_36by10.0_tor03_a1.log
 Initial command:
 /shared/centos7/gaussian/g16/l1.exe "/scratch/underkoffler.c/gaussian_scratch/Gau-5845.inp" -scrdir="/scratch/underkoffler.c/gaussian_scratch/"
 Entering Link 1 = /shared/centos7/gaussian/g16/l1.exe PID=      5846.
  
 Copyright (c) 1988,1990,1992,1993,1995,1998,2003,2009,2016,
            Gaussian, Inc.  All Rights Reserved.
  
 This is part of the Gaussian(R) 16 program.  It is based on
 the Gaussian(R) 09 system (copyright 2009, Gaussian, Inc.),
 the Gaussian(R) 03 system (copyright 2003, Gaussian, Inc.),
 the Gaussian(R) 98 system (copyright 1998, Gaussian, Inc.),
 the Gaussian(R) 94 system (copyright 1995, Gaussian, Inc.),
 the Gaussian 92(TM) system (copyright 1992, Gaussian, Inc.),
 the Gaussian 90(TM) system (copyright 1990, Gaussian, Inc.),
 the Gaussian 88(TM) system (copyright 1988, Gaussian, Inc.),
 the Gaussian 86(TM) system (copyright 1986, Carnegie Mellon
 University), and the Gaussian 82(TM) system (copyright 1983,
 Carnegie Mellon University). Gaussian is a federally registered
 trademark of Gaussian, Inc.
  
 This software contains proprietary and confidential information,
 including trade secrets, belonging to Gaussian, Inc.
  
 This software is provided under written license and may be
 used, copied, transmitted, or stored only in accord with that
 written license.
  
 The following legend is applicable only to US Government
 contracts under FAR:
  
                    RESTRICTED RIGHTS LEGEND
  
 Use, reproduction and disclosure by the US Government is
 subject to restrictions as set forth in subparagraphs (a)
 and (c) of the Commercial Computer Software - Restricted
 Rights clause in FAR 52.227-19.
  
 Gaussian, Inc.
 340 Quinnipiac St., Bldg. 40, Wallingford CT 06492
  
  
 ---------------------------------------------------------------
 Warning -- This program may not be used in any manner that
 competes with the business of Gaussian, Inc. or will provide
 assistance to any competitor of Gaussian, Inc.  The licensee
 of this program is prohibited from giving any competitor of
 Gaussian, Inc. access to this program.  By using this program,
 the user acknowledges that Gaussian, Inc. is engaged in the
 business of creating and licensing software in the field of
 computational chemistry and represents and warrants to the
 licensee that it is not a competitor of Gaussian, Inc. and that
 it will not use this program in any manner prohibited above.
 ---------------------------------------------------------------
  

 Cite this work as:
 Gaussian 16, Revision A.03,
 M. J. Frisch, G. W. Trucks, H. B. Schlegel, G. E. Scuseria, 
 M. A. Robb, J. R. Cheeseman, G. Scalmani, V. Barone, 
 G. A. Petersson, H. Nakatsuji, X. Li, M. Caricato, A. V. Marenich, 
 J. Bloino, B. G. Janesko, R. Gomperts, B. Mennucci, H. P. Hratchian, 
 J. V. Ortiz, A. F. Izmaylov, J. L. Sonnenberg, D. Williams-Young, 
 F. Ding, F. Lipparini, F. Egidi, J. Goings, B. Peng, A. Petrone, 
 T. Henderson, D. Ranasinghe, V. G. Zakrzewski, J. Gao, N. Rega, 
 G. Zheng, W. Liang, M. Hada, M. Ehara, K. Toyota, R. Fukuda, 
 J. Hasegawa, M. Ishida, T. Nakajima, Y. Honda, O. Kitao, H. Nakai, 
 T. Vreven, K. Throssell, J. A. Montgomery, Jr., J. E. Peralta, 
 F. Ogliaro, M. J. Bearpark, J. J. Heyd, E. N. Brothers, K. N. Kudin, 
 V. N. Staroverov, T. A. Keith, R. Kobayashi, J. Normand, 
 K. Raghavachari, A. P. Rendell, J. C. Burant, S. S. Iyengar, 
 J. Tomasi, M. Cossi, J. M. Millam, M. Klene, C. Adamo, R. Cammi, 
 J. W. Ochterski, R. L. Martin, K. Morokuma, O. Farkas, 
 J. B. Foresman, and D. J. Fox, Gaussian, Inc., Wallingford CT, 2016.
 
 ******************************************
 Gaussian 16:  EM64L-G16RevA.03 25-Dec-2016
                11-Mar-2019 
 ******************************************
 %nprocshared=20
 Will use up to   20 processors via shared memory.
 %mem=5GB
 ----------------------------------------------
 #p m062x/6-311+g(2df,2p) Opt=(CalcFC,ModRedun)
 ----------------------------------------------
 1/10=4,18=120,19=15,26=3,38=1/1,3;
 2/9=110,12=2,17=6,18=5,40=1/2;
 3/5=4,6=6,7=214,11=2,25=1,30=1,71=2,74=-55,140=1/1,2,3;
 4//1;
 5/5=2,38=5/2;
 8/6=4,10=90,11=11/1;
 11/6=1,8=1,9=11,15=111,16=1/1,2,10;
 10/6=1,13=1/2;
 6/7=2,8=2,9=2,10=2,28=1/1;
 7/10=1,18=20,25=1/1,2,3,16;
 1/10=4,18=20,19=15,26=3/3(2);
 2/9=110/2;
 99//99;
 2/9=110/2;
 3/5=4,6=6,7=214,11=2,25=1,30=1,71=1,74=-55/1,2,3;
 4/5=5,16=3,69=1/1;
 5/5=2,38=5/2;
 7//1,2,3,16;
 1/18=20,19=15,26=3/3(-5);
 2/9=110/2;
 6/7=2,8=2,9=2,10=2,19=2,28=1/1;
 99/9=1/99;
 Leave Link    1 at Mon Mar 11 00:05:19 2019, MaxMem=   671088640 cpu:              30.8 elap:               1.6
 (Enter /shared/centos7/gaussian/g16/l101.exe)
 ----------------------------------------
 Gaussian Input Prepared from Scan Object
 ----------------------------------------
 Symbolic Z-matrix:
 Charge =  0 Multiplicity = 2
 O                    -1.15062   0.2021   -0.85989 
 O                    -1.06029  -1.50147   0.60676 
 C                     1.59765  -2.22743  -0.35504 
 C                    -2.44314   0.51011  -0.35197 
 C                     0.76065  -1.11212  -0.84403 
 C                    -0.54727  -0.85624  -0.28024 
 H                     2.55465  -1.85949   0.02426 
 H                     1.08629  -2.76794   0.43741 
 H                     1.83394  -2.92199  -1.16551 
 H                    -2.78759   1.37231  -0.9133 
 H                    -2.3896    0.74187   0.71038 
 H                    -3.11824  -0.33231  -0.49245 
 H                     1.1029   -0.45982  -1.63388 
 
 The following ModRedundant input section has been read:
 B       1       6 B                                                           
 B       2       6 B                                                           
 B       3       9 B                                                           
 B       4      12 B                                                           
 B       3       7 B                                                           
 B       3       5 B                                                           
 B       3       8 B                                                           
 B       5      13 B                                                           
 B       1       4 B                                                           
 B       4      10 B                                                           
 B       4      11 B                                                           
 B       5       6 B                                                           
 D       6       1       4      12 S  36 10.000                                
 
 ITRead=  0  0  0  0  0  0  0  0  0  0  0  0  0
 MicOpt= -1 -1 -1 -1 -1 -1 -1 -1 -1 -1 -1 -1 -1
 NAtoms=     13 NQM=       13 NQMF=       0 NMMI=      0 NMMIF=      0
                NMic=       0 NMicF=      0.
                    Isotopes and Nuclear Properties:
 (Nuclear quadrupole moments (NQMom) in fm**2, nuclear magnetic moments (NMagM)
  in nuclear magnetons)

  Atom         1           2           3           4           5           6           7           8           9          10
 IAtWgt=          16          16          12          12          12          12           1           1           1           1
 AtmWgt=  15.9949146  15.9949146  12.0000000  12.0000000  12.0000000  12.0000000   1.0078250   1.0078250   1.0078250   1.0078250
 NucSpn=           0           0           0           0           0           0           1           1           1           1
 AtZEff=  -0.0000000  -0.0000000  -0.0000000  -0.0000000  -0.0000000  -0.0000000  -0.0000000  -0.0000000  -0.0000000  -0.0000000
 NQMom=    0.0000000   0.0000000   0.0000000   0.0000000   0.0000000   0.0000000   0.0000000   0.0000000   0.0000000   0.0000000
 NMagM=    0.0000000   0.0000000   0.0000000   0.0000000   0.0000000   0.0000000   2.7928460   2.7928460   2.7928460   2.7928460
 AtZNuc=   8.0000000   8.0000000   6.0000000   6.0000000   6.0000000   6.0000000   1.0000000   1.0000000   1.0000000   1.0000000

  Atom        11          12          13
 IAtWgt=           1           1           1
 AtmWgt=   1.0078250   1.0078250   1.0078250
 NucSpn=           1           1           1
 AtZEff=  -0.0000000  -0.0000000  -0.0000000
 NQMom=    0.0000000   0.0000000   0.0000000
 NMagM=    2.7928460   2.7928460   2.7928460
 AtZNuc=   1.0000000   1.0000000   1.0000000
 Leave Link  101 at Mon Mar 11 00:05:19 2019, MaxMem=   671088640 cpu:               4.8 elap:               0.3
 (Enter /shared/centos7/gaussian/g16/l103.exe)

 GradGradGradGradGradGradGradGradGradGradGradGradGradGradGradGradGradGrad
 Berny optimization.
 Initialization pass.
                           ----------------------------
                           !    Initial Parameters    !
                           ! (Angstroms and Degrees)  !
 --------------------------                            --------------------------
 ! Name  Definition              Value          Derivative Info.                !
 --------------------------------------------------------------------------------
 ! R1    R(1,4)                  1.4225         calculate D2E/DX2 analytically  !
 ! R2    R(1,6)                  1.3491         calculate D2E/DX2 analytically  !
 ! R3    R(2,6)                  1.2109         calculate D2E/DX2 analytically  !
 ! R4    R(3,5)                  1.4777         calculate D2E/DX2 analytically  !
 ! R5    R(3,7)                  1.0932         calculate D2E/DX2 analytically  !
 ! R6    R(3,8)                  1.087          calculate D2E/DX2 analytically  !
 ! R7    R(3,9)                  1.0932         calculate D2E/DX2 analytically  !
 ! R8    R(4,10)                 1.085          calculate D2E/DX2 analytically  !
 ! R9    R(4,11)                 1.0887         calculate D2E/DX2 analytically  !
 ! R10   R(4,12)                 1.0887         calculate D2E/DX2 analytically  !
 ! R11   R(5,6)                  1.4471         calculate D2E/DX2 analytically  !
 ! R12   R(5,13)                 1.08           calculate D2E/DX2 analytically  !
 ! A1    A(4,1,6)              115.0115         calculate D2E/DX2 analytically  !
 ! A2    A(5,3,7)              110.8936         calculate D2E/DX2 analytically  !
 ! A3    A(5,3,8)              110.4915         calculate D2E/DX2 analytically  !
 ! A4    A(5,3,9)              110.8937         calculate D2E/DX2 analytically  !
 ! A5    A(7,3,8)              109.0397         calculate D2E/DX2 analytically  !
 ! A6    A(7,3,9)              106.3713         calculate D2E/DX2 analytically  !
 ! A7    A(8,3,9)              109.0398         calculate D2E/DX2 analytically  !
 ! A8    A(1,4,10)             106.0097         calculate D2E/DX2 analytically  !
 ! A9    A(1,4,11)             110.4777         calculate D2E/DX2 analytically  !
 ! A10   A(1,4,12)             110.4777         calculate D2E/DX2 analytically  !
 ! A11   A(10,4,11)            110.5672         calculate D2E/DX2 analytically  !
 ! A12   A(10,4,12)            110.5672         calculate D2E/DX2 analytically  !
 ! A13   A(11,4,12)            108.7334         calculate D2E/DX2 analytically  !
 ! A14   A(3,5,6)              121.0974         calculate D2E/DX2 analytically  !
 ! A15   A(3,5,13)             121.2213         calculate D2E/DX2 analytically  !
 ! A16   A(6,5,13)             117.6812         calculate D2E/DX2 analytically  !
 ! A17   A(1,6,2)              122.906          calculate D2E/DX2 analytically  !
 ! A18   A(1,6,5)              112.0572         calculate D2E/DX2 analytically  !
 ! A19   A(2,6,5)              125.0368         calculate D2E/DX2 analytically  !
 ! D1    D(6,1,4,10)          -180.0            calculate D2E/DX2 analytically  !
 ! D2    D(6,1,4,11)            60.1794         calculate D2E/DX2 analytically  !
 ! D3    D(6,1,4,12)           -60.1794         Scan                            !
 ! D4    D(4,1,6,2)              0.0            calculate D2E/DX2 analytically  !
 ! D5    D(4,1,6,5)           -180.0            calculate D2E/DX2 analytically  !
 ! D6    D(7,3,5,6)           -121.0258         calculate D2E/DX2 analytically  !
 ! D7    D(7,3,5,13)            58.9741         calculate D2E/DX2 analytically  !
 ! D8    D(8,3,5,6)              0.0005         calculate D2E/DX2 analytically  !
 ! D9    D(8,3,5,13)          -179.9996         calculate D2E/DX2 analytically  !
 ! D10   D(9,3,5,6)            121.027          calculate D2E/DX2 analytically  !
 ! D11   D(9,3,5,13)           -58.9731         calculate D2E/DX2 analytically  !
 ! D12   D(3,5,6,1)           -180.0            calculate D2E/DX2 analytically  !
 ! D13   D(3,5,6,2)              0.0            calculate D2E/DX2 analytically  !
 ! D14   D(13,5,6,1)             0.0001         calculate D2E/DX2 analytically  !
 ! D15   D(13,5,6,2)          -179.9999         calculate D2E/DX2 analytically  !
 --------------------------------------------------------------------------------
 Trust Radius=3.00D-01 FncErr=1.00D-07 GrdErr=1.00D-06 EigMax=2.50D+02 EigMin=1.00D-04
 Number of optimizations in scan=  37
 Number of steps in this run=     56 maximum allowed number of steps=    100.
 GradGradGradGradGradGradGradGradGradGradGradGradGradGradGradGradGradGrad

 Leave Link  103 at Mon Mar 11 00:05:19 2019, MaxMem=   671088640 cpu:               0.2 elap:               0.0
 (Enter /shared/centos7/gaussian/g16/l202.exe)
                          Input orientation:                          
 ---------------------------------------------------------------------
 Center     Atomic      Atomic             Coordinates (Angstroms)
 Number     Number       Type             X           Y           Z
 ---------------------------------------------------------------------
      1          8           0       -1.150617    0.202104   -0.859889
      2          8           0       -1.060287   -1.501472    0.606759
      3          6           0        1.597654   -2.227427   -0.355045
      4          6           0       -2.443143    0.510106   -0.351968
      5          6           0        0.760650   -1.112117   -0.844028
      6          6           0       -0.547268   -0.856238   -0.280236
      7          1           0        2.554648   -1.859486    0.024263
      8          1           0        1.086286   -2.767936    0.437414
      9          1           0        1.833937   -2.921987   -1.165506
     10          1           0       -2.787588    1.372308   -0.913297
     11          1           0       -2.389599    0.741871    0.710379
     12          1           0       -3.118245   -0.332311   -0.492452
     13          1           0        1.102903   -0.459820   -1.633883
 ---------------------------------------------------------------------
                    Distance matrix (angstroms):
                    1          2          3          4          5
     1  O    0.000000
     2  O    2.249752   0.000000
     3  C    3.702766   2.918344   0.000000
     4  C    1.422489   2.622573   4.880793   0.000000
     5  C    2.319562   2.360549   1.477700   3.624641   0.000000
     6  C    1.349117   1.210899   2.546850   2.338030   1.447060
     7  H    4.331381   3.679026   1.093203   5.543864   2.128596
     8  H    3.938003   2.498076   1.087032   4.881142   2.118931
     9  H    4.331386   3.679038   1.093202   5.543872   2.128596
    10  H    2.012935   3.681406   5.700885   1.084955   4.332108
    11  H    2.071755   2.609673   5.084294   1.088652   3.972093
    12  H    2.071755   2.609673   5.084294   1.088652   3.972093
    13  H    2.472966   3.284039   2.237105   3.893393   1.080046
                    6          7          8          9         10
     6  C    0.000000
     7  H    3.274310   0.000000
     8  H    2.614978   1.775405   0.000000
     9  H    3.274318   1.750396   1.775406   0.000000
    10  H    3.222766   6.313715   5.828632   6.313721   0.000000
    11  H    2.632386   5.628800   4.947225   5.897547   1.786665
    12  H    2.632386   5.897539   4.947221   5.628812   1.786665
    13  H    2.170846   2.610762   3.101282   2.610757   4.360259
                   11         12         13
    11  H    0.000000
    12  H    1.769631   0.000000
    13  H    4.374609   4.374610   0.000000
 Stoichiometry    C4H7O2(2)
 Framework group  C1[X(C4H7O2)]
 Deg. of freedom    33
 Full point group                 C1      NOp   1
 Largest Abelian subgroup         C1      NOp   1
 Largest concise Abelian subgroup C1      NOp   1
                         Standard orientation:                         
 ---------------------------------------------------------------------
 Center     Atomic      Atomic             Coordinates (Angstroms)
 Number     Number       Type             X           Y           Z
 ---------------------------------------------------------------------
      1          8           0        1.110121   -0.722104   -0.000000
      2          8           0        0.106429    1.291348    0.000000
      3          6           0       -2.518381    0.015767   -0.000000
      4          6           0        2.362013   -0.046647    0.000000
      5          6           0       -1.208828   -0.668828    0.000000
      6          6           0        0.027581    0.083019   -0.000000
      7          1           0       -3.107769   -0.270122    0.875203
      8          1           0       -2.383876    1.094445   -0.000010
      9          1           0       -3.107777   -0.270138   -0.875192
     10          1           0        3.120558   -0.822364   -0.000000
     11          1           0        2.456374    0.580537    0.884816
     12          1           0        2.456374    0.580539   -0.884815
     13          1           0       -1.140596   -1.746717    0.000002
 ---------------------------------------------------------------------
 Rotational constants (GHZ):          10.2330967           2.1776562           1.8362895
 Leave Link  202 at Mon Mar 11 00:05:19 2019, MaxMem=   671088640 cpu:               0.2 elap:               0.0
 (Enter /shared/centos7/gaussian/g16/l301.exe)
 Standard basis: 6-311+G(2df,2p) (5D, 7F)
 Ernie: Thresh=  0.10000D-02 Tol=  0.10000D-05 Strict=F.
 There are   297 symmetry adapted cartesian basis functions of A   symmetry.
 There are   267 symmetry adapted basis functions of A   symmetry.
   267 basis functions,   389 primitive gaussians,   297 cartesian basis functions
    24 alpha electrons       23 beta electrons
       nuclear repulsion energy       235.7903111195 Hartrees.
 IExCor= 4336 DFT=T Ex+Corr=M062X ExCW=0 ScaHFX=  0.540000
 ScaDFX=  1.000000  1.000000  1.000000  1.000000 ScalE2=  1.000000  1.000000
 IRadAn=      5 IRanWt=     -1 IRanGd=            0 ICorTp=0 IEmpDi=  4
 NAtoms=   13 NActive=   13 NUniq=   13 SFac= 1.00D+00 NAtFMM=   60 NAOKFM=F Big=F
 Integral buffers will be    131072 words long.
 Raffenetti 2 integral format.
 Two-electron integral symmetry is turned on.
 Leave Link  301 at Mon Mar 11 00:05:19 2019, MaxMem=   671088640 cpu:               1.0 elap:               0.1
 (Enter /shared/centos7/gaussian/g16/l302.exe)
 NPDir=0 NMtPBC=     1 NCelOv=     1 NCel=       1 NClECP=     1 NCelD=      1
         NCelK=      1 NCelE2=     1 NClLst=     1 CellRange=     0.0.
 One-electron integrals computed using PRISM.
 One-electron integral symmetry used in STVInt
 NBasis=   267 RedAO= T EigKep=  3.04D-05  NBF=   267
 NBsUse=   267 1.00D-06 EigRej= -1.00D+00 NBFU=   267
 Precomputing XC quadrature grid using
 IXCGrd= 4 IRadAn=           5 IRanWt=          -1 IRanGd=           0 AccXCQ= 0.00D+00.
 Generated NRdTot=       0 NPtTot=           0 NUsed=           0 NTot=          32
 NSgBfM=   297   297   297   297   297 MxSgAt=    13 MxSgA2=    13.
 Leave Link  302 at Mon Mar 11 00:05:19 2019, MaxMem=   671088640 cpu:               5.9 elap:               0.3
 (Enter /shared/centos7/gaussian/g16/l303.exe)
 DipDrv:  MaxL=1.
 Leave Link  303 at Mon Mar 11 00:05:19 2019, MaxMem=   671088640 cpu:               0.6 elap:               0.1
 (Enter /shared/centos7/gaussian/g16/l401.exe)
 ExpMin= 4.38D-02 ExpMax= 8.59D+03 ExpMxC= 1.30D+03 IAcc=3 IRadAn=         5 AccDes= 0.00D+00
 Harris functional with IExCor= 1009 and IRadAn=       5 diagonalized for initial guess.
 HarFok:  IExCor= 1009 AccDes= 0.00D+00 IRadAn=         5 IDoV= 1 UseB2=F ITyADJ=14
 ICtDFT=  3500011 ScaDFX=  1.000000  1.000000  1.000000  1.000000
 FoFCou: FMM=F IPFlag=           0 FMFlag=      100000 FMFlg1=           0
         NFxFlg=           0 DoJE=T BraDBF=F KetDBF=T FulRan=T
         wScrn=  0.000000 ICntrl=       500 IOpCl=  0 I1Cent=   200000004 NGrid=           0
         NMat0=    1 NMatS0=      1 NMatT0=    0 NMatD0=    1 NMtDS0=    0 NMtDT0=    0
 Petite list used in FoFCou.
 Harris En= -306.888641108230    
 JPrj=0 DoOrth=F DoCkMO=F.
 Initial guess <Sx>= 0.0000 <Sy>= 0.0000 <Sz>= 0.5000 <S**2>= 0.7500 S= 0.5000
 Leave Link  401 at Mon Mar 11 00:05:20 2019, MaxMem=   671088640 cpu:              19.8 elap:               1.0
 (Enter /shared/centos7/gaussian/g16/l502.exe)
 Integral symmetry usage will be decided dynamically.
 UHF open shell SCF:
 Using DIIS extrapolation, IDIIS=  1040.
 NGot=   671088640 LenX=   670903575 LenY=   670814925
 Requested convergence on RMS density matrix=1.00D-08 within 128 cycles.
 Requested convergence on MAX density matrix=1.00D-06.
 Requested convergence on             energy=1.00D-06.
 No special actions if energy rises.
 Fock matrices will be formed incrementally for  20 cycles.

 Cycle   1  Pass 1  IDiag  1:
 FoFJK:  IHMeth= 1 ICntrl=       0 DoSepK=F KAlg= 0 I1Cent=           0 FoldK=F
 IRaf= 950000000 NMat=       1 IRICut=       1 DoRegI=T DoRafI=F ISym2E= 0 IDoP0=0 IntGTp=1.
 FoFCou: FMM=F IPFlag=           0 FMFlag=      100000 FMFlg1=           0
         NFxFlg=           0 DoJE=F BraDBF=F KetDBF=F FulRan=T
         wScrn=  0.000000 ICntrl=         0 IOpCl=  1 I1Cent=           0 NGrid=           0
         NMat0=    1 NMatS0=      1 NMatT0=    0 NMatD0=    1 NMtDS0=    0 NMtDT0=    0
 Symmetry not used in FoFCou.
 E= -306.834038034323    
 DIIS: error= 3.61D-02 at cycle   1 NSaved=   1.
 NSaved= 1 IEnMin= 1 EnMin= -306.834038034323     IErMin= 1 ErrMin= 3.61D-02
 ErrMax= 3.61D-02  0.00D+00 EMaxC= 1.00D-01 BMatC= 1.03D+00 BMatP= 1.03D+00
 IDIUse=3 WtCom= 6.39D-01 WtEn= 3.61D-01
 Coeff-Com:  0.100D+01
 Coeff-En:   0.100D+01
 Coeff:      0.100D+01
 Gap=     0.361 Goal=   None    Shift=    0.000
 Gap=     0.210 Goal=   None    Shift=    0.000
 GapD=    0.210 DampG=1.000 DampE=0.500 DampFc=0.5000 IDamp=-1.
 Damping current iteration by 5.00D-01
 RMSDP=4.00D-03 MaxDP=3.20D-01              OVMax= 2.35D-01

 Cycle   2  Pass 1  IDiag  1:
 RMSU=  1.99D-03    CP:  1.02D+00
 E= -306.920071942396     Delta-E=       -0.086033908073 Rises=F Damp=T
 DIIS: error= 6.75D-03 at cycle   2 NSaved=   2.
 NSaved= 2 IEnMin= 2 EnMin= -306.920071942396     IErMin= 2 ErrMin= 6.75D-03
 ErrMax= 6.75D-03  0.00D+00 EMaxC= 1.00D-01 BMatC= 9.62D-02 BMatP= 1.03D+00
 IDIUse=3 WtCom= 9.32D-01 WtEn= 6.75D-02
 Coeff-Com: -0.135D-01 0.101D+01
 Coeff-En:   0.000D+00 0.100D+01
 Coeff:     -0.126D-01 0.101D+01
 Gap=     0.307 Goal=   None    Shift=    0.000
 Gap=     0.312 Goal=   None    Shift=    0.000
 RMSDP=1.91D-03 MaxDP=2.35D-01 DE=-8.60D-02 OVMax= 1.17D-01

 Cycle   3  Pass 1  IDiag  1:
 RMSU=  1.37D-03    CP:  9.59D-01  4.12D-01
 E= -307.006381533795     Delta-E=       -0.086309591399 Rises=F Damp=F
 DIIS: error= 1.16D-02 at cycle   3 NSaved=   3.
 NSaved= 3 IEnMin= 3 EnMin= -307.006381533795     IErMin= 2 ErrMin= 6.75D-03
 ErrMax= 1.16D-02  0.00D+00 EMaxC= 1.00D-01 BMatC= 7.27D-02 BMatP= 9.62D-02
 IDIUse=3 WtCom= 8.84D-01 WtEn= 1.16D-01
 Coeff-Com: -0.915D-01 0.503D+00 0.588D+00
 Coeff-En:   0.000D+00 0.000D+00 0.100D+01
 Coeff:     -0.809D-01 0.445D+00 0.636D+00
 Gap=     0.305 Goal=   None    Shift=    0.000
 Gap=     0.294 Goal=   None    Shift=    0.000
 RMSDP=4.60D-04 MaxDP=1.87D-02 DE=-8.63D-02 OVMax= 6.77D-02

 Cycle   4  Pass 1  IDiag  1:
 RMSU=  4.20D-04    CP:  9.60D-01  5.05D-01  9.95D-01
 E= -307.017455546665     Delta-E=       -0.011074012870 Rises=F Damp=F
 DIIS: error= 3.90D-03 at cycle   4 NSaved=   4.
 NSaved= 4 IEnMin= 4 EnMin= -307.017455546665     IErMin= 4 ErrMin= 3.90D-03
 ErrMax= 3.90D-03  0.00D+00 EMaxC= 1.00D-01 BMatC= 1.37D-02 BMatP= 7.27D-02
 IDIUse=3 WtCom= 9.61D-01 WtEn= 3.90D-02
 Coeff-Com: -0.283D-01 0.709D-01 0.333D+00 0.624D+00
 Coeff-En:   0.000D+00 0.000D+00 0.146D+00 0.854D+00
 Coeff:     -0.272D-01 0.682D-01 0.326D+00 0.633D+00
 Gap=     0.300 Goal=   None    Shift=    0.000
 Gap=     0.285 Goal=   None    Shift=    0.000
 RMSDP=2.12D-04 MaxDP=1.82D-02 DE=-1.11D-02 OVMax= 1.40D-02

 Cycle   5  Pass 1  IDiag  1:
 RMSU=  8.14D-05    CP:  9.54D-01  4.36D-01  1.06D+00  7.89D-01
 E= -307.020020970916     Delta-E=       -0.002565424251 Rises=F Damp=F
 DIIS: error= 6.60D-04 at cycle   5 NSaved=   5.
 NSaved= 5 IEnMin= 5 EnMin= -307.020020970916     IErMin= 5 ErrMin= 6.60D-04
 ErrMax= 6.60D-04  0.00D+00 EMaxC= 1.00D-01 BMatC= 3.72D-04 BMatP= 1.37D-02
 IDIUse=3 WtCom= 9.93D-01 WtEn= 6.60D-03
 Coeff-Com: -0.495D-02 0.257D-02 0.928D-01 0.233D+00 0.677D+00
 Coeff-En:   0.000D+00 0.000D+00 0.000D+00 0.000D+00 0.100D+01
 Coeff:     -0.491D-02 0.255D-02 0.922D-01 0.231D+00 0.679D+00
 Gap=     0.299 Goal=   None    Shift=    0.000
 Gap=     0.286 Goal=   None    Shift=    0.000
 RMSDP=3.75D-05 MaxDP=2.17D-03 DE=-2.57D-03 OVMax= 6.85D-03

 Cycle   6  Pass 1  IDiag  1:
 RMSU=  2.90D-05    CP:  9.53D-01  4.29D-01  1.07D+00  8.12D-01  1.05D+00
 E= -307.020124733133     Delta-E=       -0.000103762217 Rises=F Damp=F
 DIIS: error= 3.68D-04 at cycle   6 NSaved=   6.
 NSaved= 6 IEnMin= 6 EnMin= -307.020124733133     IErMin= 6 ErrMin= 3.68D-04
 ErrMax= 3.68D-04  0.00D+00 EMaxC= 1.00D-01 BMatC= 9.20D-05 BMatP= 3.72D-04
 IDIUse=3 WtCom= 9.96D-01 WtEn= 3.68D-03
 Coeff-Com:  0.445D-02-0.151D-01-0.367D-01-0.608D-01 0.257D+00 0.851D+00
 Coeff-En:   0.000D+00 0.000D+00 0.000D+00 0.000D+00 0.000D+00 0.100D+01
 Coeff:      0.444D-02-0.150D-01-0.366D-01-0.606D-01 0.256D+00 0.852D+00
 Gap=     0.300 Goal=   None    Shift=    0.000
 Gap=     0.287 Goal=   None    Shift=    0.000
 RMSDP=3.10D-05 MaxDP=2.03D-03 DE=-1.04D-04 OVMax= 4.09D-03

 Cycle   7  Pass 1  IDiag  1:
 RMSU=  1.61D-05    CP:  9.53D-01  4.21D-01  1.08D+00  8.26D-01  1.23D+00
                    CP:  1.20D+00
 E= -307.020165757881     Delta-E=       -0.000041024748 Rises=F Damp=F
 DIIS: error= 1.07D-04 at cycle   7 NSaved=   7.
 NSaved= 7 IEnMin= 7 EnMin= -307.020165757881     IErMin= 7 ErrMin= 1.07D-04
 ErrMax= 1.07D-04  0.00D+00 EMaxC= 1.00D-01 BMatC= 1.36D-05 BMatP= 9.20D-05
 IDIUse=3 WtCom= 9.99D-01 WtEn= 1.07D-03
 Coeff-Com:  0.246D-02-0.414D-02-0.291D-01-0.766D-01-0.104D+00 0.183D+00
 Coeff-Com:  0.103D+01
 Coeff-En:   0.000D+00 0.000D+00 0.000D+00 0.000D+00 0.000D+00 0.000D+00
 Coeff-En:   0.100D+01
 Coeff:      0.246D-02-0.414D-02-0.290D-01-0.766D-01-0.104D+00 0.182D+00
 Coeff:      0.103D+01
 Gap=     0.301 Goal=   None    Shift=    0.000
 Gap=     0.288 Goal=   None    Shift=    0.000
 RMSDP=1.71D-05 MaxDP=1.07D-03 DE=-4.10D-05 OVMax= 3.34D-03

 Cycle   8  Pass 1  IDiag  1:
 RMSU=  7.56D-06    CP:  9.52D-01  4.17D-01  1.08D+00  8.26D-01  1.33D+00
                    CP:  1.46D+00  1.31D+00
 E= -307.020175995084     Delta-E=       -0.000010237203 Rises=F Damp=F
 DIIS: error= 7.52D-05 at cycle   8 NSaved=   8.
 NSaved= 8 IEnMin= 8 EnMin= -307.020175995084     IErMin= 8 ErrMin= 7.52D-05
 ErrMax= 7.52D-05  0.00D+00 EMaxC= 1.00D-01 BMatC= 2.11D-06 BMatP= 1.36D-05
 IDIUse=1 WtCom= 1.00D+00 WtEn= 0.00D+00
 Coeff-Com:  0.168D-03 0.440D-03-0.185D-02-0.128D-01-0.540D-01-0.399D-01
 Coeff-Com:  0.272D+00 0.836D+00
 Coeff:      0.168D-03 0.440D-03-0.185D-02-0.128D-01-0.540D-01-0.399D-01
 Coeff:      0.272D+00 0.836D+00
 Gap=     0.301 Goal=   None    Shift=    0.000
 Gap=     0.288 Goal=   None    Shift=    0.000
 RMSDP=4.31D-06 MaxDP=1.94D-04 DE=-1.02D-05 OVMax= 9.43D-04

 Cycle   9  Pass 1  IDiag  1:
 RMSU=  2.76D-06    CP:  9.52D-01  4.17D-01  1.08D+00  8.24D-01  1.33D+00
                    CP:  1.51D+00  1.43D+00  1.19D+00
 E= -307.020177341611     Delta-E=       -0.000001346527 Rises=F Damp=F
 DIIS: error= 4.22D-05 at cycle   9 NSaved=   9.
 NSaved= 9 IEnMin= 9 EnMin= -307.020177341611     IErMin= 9 ErrMin= 4.22D-05
 ErrMax= 4.22D-05  0.00D+00 EMaxC= 1.00D-01 BMatC= 4.48D-07 BMatP= 2.11D-06
 IDIUse=1 WtCom= 1.00D+00 WtEn= 0.00D+00
 Coeff-Com: -0.570D-03 0.113D-02 0.748D-02 0.167D-01 0.134D-01-0.534D-01
 Coeff-Com: -0.216D+00 0.122D+00 0.111D+01
 Coeff:     -0.570D-03 0.113D-02 0.748D-02 0.167D-01 0.134D-01-0.534D-01
 Coeff:     -0.216D+00 0.122D+00 0.111D+01
 Gap=     0.301 Goal=   None    Shift=    0.000
 Gap=     0.288 Goal=   None    Shift=    0.000
 RMSDP=3.21D-06 MaxDP=1.69D-04 DE=-1.35D-06 OVMax= 7.59D-04

 Cycle  10  Pass 1  IDiag  1:
 RMSU=  1.45D-06    CP:  9.52D-01  4.17D-01  1.08D+00  8.22D-01  1.33D+00
                    CP:  1.54D+00  1.51D+00  1.46D+00  1.39D+00
 E= -307.020177877689     Delta-E=       -0.000000536078 Rises=F Damp=F
 DIIS: error= 1.73D-05 at cycle  10 NSaved=  10.
 NSaved=10 IEnMin=10 EnMin= -307.020177877689     IErMin=10 ErrMin= 1.73D-05
 ErrMax= 1.73D-05  0.00D+00 EMaxC= 1.00D-01 BMatC= 6.72D-08 BMatP= 4.48D-07
 IDIUse=1 WtCom= 1.00D+00 WtEn= 0.00D+00
 Coeff-Com:  0.144D-03-0.397D-03-0.132D-02-0.159D-02 0.677D-02 0.177D-01
 Coeff-Com:  0.502D-02-0.190D+00-0.222D+00 0.139D+01
 Coeff:      0.144D-03-0.397D-03-0.132D-02-0.159D-02 0.677D-02 0.177D-01
 Coeff:      0.502D-02-0.190D+00-0.222D+00 0.139D+01
 Gap=     0.301 Goal=   None    Shift=    0.000
 Gap=     0.288 Goal=   None    Shift=    0.000
 RMSDP=1.56D-06 MaxDP=9.63D-05 DE=-5.36D-07 OVMax= 3.96D-04

 Cycle  11  Pass 1  IDiag  1:
 RMSU=  5.69D-07    CP:  9.52D-01  4.17D-01  1.08D+00  8.22D-01  1.33D+00
                    CP:  1.54D+00  1.52D+00  1.54D+00  1.73D+00  1.61D+00
 E= -307.020177990073     Delta-E=       -0.000000112384 Rises=F Damp=F
 DIIS: error= 6.65D-06 at cycle  11 NSaved=  11.
 NSaved=11 IEnMin=11 EnMin= -307.020177990073     IErMin=11 ErrMin= 6.65D-06
 ErrMax= 6.65D-06  0.00D+00 EMaxC= 1.00D-01 BMatC= 9.45D-09 BMatP= 6.72D-08
 IDIUse=1 WtCom= 1.00D+00 WtEn= 0.00D+00
 Coeff-Com:  0.976D-04-0.201D-03-0.109D-02-0.253D-02-0.805D-03 0.688D-02
 Coeff-Com:  0.318D-01-0.372D-01-0.172D+00 0.103D+00 0.107D+01
 Coeff:      0.976D-04-0.201D-03-0.109D-02-0.253D-02-0.805D-03 0.688D-02
 Coeff:      0.318D-01-0.372D-01-0.172D+00 0.103D+00 0.107D+01
 Gap=     0.301 Goal=   None    Shift=    0.000
 Gap=     0.288 Goal=   None    Shift=    0.000
 RMSDP=5.62D-07 MaxDP=3.19D-05 DE=-1.12D-07 OVMax= 1.17D-04

 Cycle  12  Pass 1  IDiag  1:
 RMSU=  1.74D-07    CP:  9.52D-01  4.17D-01  1.08D+00  8.22D-01  1.33D+00
                    CP:  1.54D+00  1.53D+00  1.55D+00  1.81D+00  1.86D+00
                    CP:  1.32D+00
 E= -307.020178000875     Delta-E=       -0.000000010803 Rises=F Damp=F
 DIIS: error= 1.23D-06 at cycle  12 NSaved=  12.
 NSaved=12 IEnMin=12 EnMin= -307.020178000875     IErMin=12 ErrMin= 1.23D-06
 ErrMax= 1.23D-06  0.00D+00 EMaxC= 1.00D-01 BMatC= 1.79D-09 BMatP= 9.45D-09
 IDIUse=1 WtCom= 1.00D+00 WtEn= 0.00D+00
 Coeff-Com:  0.917D-05-0.716D-05-0.162D-03-0.596D-03-0.111D-02-0.432D-03
 Coeff-Com:  0.101D-01 0.142D-01-0.207D-01-0.173D+00 0.358D+00 0.814D+00
 Coeff:      0.917D-05-0.716D-05-0.162D-03-0.596D-03-0.111D-02-0.432D-03
 Coeff:      0.101D-01 0.142D-01-0.207D-01-0.173D+00 0.358D+00 0.814D+00
 Gap=     0.301 Goal=   None    Shift=    0.000
 Gap=     0.288 Goal=   None    Shift=    0.000
 RMSDP=1.38D-07 MaxDP=8.44D-06 DE=-1.08D-08 OVMax= 2.72D-05

 Cycle  13  Pass 1  IDiag  1:
 RMSU=  7.21D-08    CP:  9.52D-01  4.17D-01  1.08D+00  8.22D-01  1.33D+00
                    CP:  1.54D+00  1.53D+00  1.55D+00  1.83D+00  1.91D+00
                    CP:  1.46D+00  1.14D+00
 E= -307.020178001789     Delta-E=       -0.000000000914 Rises=F Damp=F
 DIIS: error= 3.86D-07 at cycle  13 NSaved=  13.
 NSaved=13 IEnMin=13 EnMin= -307.020178001789     IErMin=13 ErrMin= 3.86D-07
 ErrMax= 3.86D-07  0.00D+00 EMaxC= 1.00D-01 BMatC= 1.07D-10 BMatP= 1.79D-09
 IDIUse=1 WtCom= 1.00D+00 WtEn= 0.00D+00
 Coeff-Com: -0.121D-04 0.264D-04 0.118D-03 0.247D-03-0.955D-04-0.979D-03
 Coeff-Com: -0.279D-02 0.668D-02 0.224D-01-0.416D-01-0.914D-01 0.103D+00
 Coeff-Com:  0.100D+01
 Coeff:     -0.121D-04 0.264D-04 0.118D-03 0.247D-03-0.955D-04-0.979D-03
 Coeff:     -0.279D-02 0.668D-02 0.224D-01-0.416D-01-0.914D-01 0.103D+00
 Coeff:      0.100D+01
 Gap=     0.301 Goal=   None    Shift=    0.000
 Gap=     0.288 Goal=   None    Shift=    0.000
 RMSDP=4.93D-08 MaxDP=3.11D-06 DE=-9.14D-10 OVMax= 7.10D-06

 Cycle  14  Pass 1  IDiag  1:
 RMSU=  1.73D-08    CP:  9.52D-01  4.17D-01  1.08D+00  8.22D-01  1.33D+00
                    CP:  1.54D+00  1.53D+00  1.55D+00  1.83D+00  1.91D+00
                    CP:  1.50D+00  1.28D+00  1.16D+00
 E= -307.020178001862     Delta-E=       -0.000000000073 Rises=F Damp=F
 DIIS: error= 8.64D-08 at cycle  14 NSaved=  14.
 NSaved=14 IEnMin=14 EnMin= -307.020178001862     IErMin=14 ErrMin= 8.64D-08
 ErrMax= 8.64D-08  0.00D+00 EMaxC= 1.00D-01 BMatC= 7.07D-12 BMatP= 1.07D-10
 IDIUse=1 WtCom= 1.00D+00 WtEn= 0.00D+00
 Coeff-Com:  0.410D-06-0.143D-05 0.730D-05 0.228D-04 0.664D-04 0.456D-04
 Coeff-Com: -0.467D-03-0.120D-02 0.232D-03 0.124D-01-0.176D-01-0.554D-01
 Coeff-Com: -0.612D-01 0.112D+01
 Coeff:      0.410D-06-0.143D-05 0.730D-05 0.228D-04 0.664D-04 0.456D-04
 Coeff:     -0.467D-03-0.120D-02 0.232D-03 0.124D-01-0.176D-01-0.554D-01
 Coeff:     -0.612D-01 0.112D+01
 Gap=     0.301 Goal=   None    Shift=    0.000
 Gap=     0.288 Goal=   None    Shift=    0.000
 RMSDP=1.16D-08 MaxDP=5.80D-07 DE=-7.32D-11 OVMax= 1.28D-06

 Cycle  15  Pass 1  IDiag  1:
 RMSU=  5.65D-09    CP:  9.52D-01  4.17D-01  1.08D+00  8.22D-01  1.33D+00
                    CP:  1.54D+00  1.53D+00  1.55D+00  1.83D+00  1.91D+00
                    CP:  1.50D+00  1.30D+00  1.23D+00  1.27D+00
 E= -307.020178001865     Delta-E=       -0.000000000003 Rises=F Damp=F
 DIIS: error= 2.71D-08 at cycle  15 NSaved=  15.
 NSaved=15 IEnMin=15 EnMin= -307.020178001865     IErMin=15 ErrMin= 2.71D-08
 ErrMax= 2.71D-08  0.00D+00 EMaxC= 1.00D-01 BMatC= 6.43D-13 BMatP= 7.07D-12
 IDIUse=1 WtCom= 1.00D+00 WtEn= 0.00D+00
 Coeff-Com:  0.107D-05-0.232D-05-0.859D-05-0.192D-04 0.183D-05 0.812D-04
 Coeff-Com:  0.214D-03-0.501D-03-0.182D-02 0.354D-02 0.657D-02-0.907D-02
 Coeff-Com: -0.787D-01-0.541D-02 0.109D+01
 Coeff:      0.107D-05-0.232D-05-0.859D-05-0.192D-04 0.183D-05 0.812D-04
 Coeff:      0.214D-03-0.501D-03-0.182D-02 0.354D-02 0.657D-02-0.907D-02
 Coeff:     -0.787D-01-0.541D-02 0.109D+01
 Gap=     0.301 Goal=   None    Shift=    0.000
 Gap=     0.288 Goal=   None    Shift=    0.000
 RMSDP=2.92D-09 MaxDP=1.14D-07 DE=-2.50D-12 OVMax= 4.47D-07

 SCF Done:  E(UM062X) =  -307.020178002     A.U. after   15 cycles
            NFock= 15  Conv=0.29D-08     -V/T= 2.0035
 <Sx>= 0.0000 <Sy>= 0.0000 <Sz>= 0.5000 <S**2>= 0.7584 S= 0.5042
 <L.S>= 0.000000000000E+00
 KE= 3.059455164642D+02 PE=-1.190077404665D+03 EE= 3.413213990797D+02
 Annihilation of the first spin contaminant:
 S**2 before annihilation     0.7584,   after     0.7501
 Leave Link  502 at Mon Mar 11 00:06:16 2019, MaxMem=   671088640 cpu:            1107.7 elap:              55.5
 (Enter /shared/centos7/gaussian/g16/l801.exe)
 DoSCS=F DFT=T ScalE2(SS,OS)=  1.000000  1.000000
 Range of M.O.s used for correlation:     1   267
 NBasis=   267 NAE=    24 NBE=    23 NFC=     0 NFV=     0
 NROrb=    267 NOA=    24 NOB=    23 NVA=   243 NVB=   244

 **** Warning!!: The largest alpha MO coefficient is  0.60434200D+02


 **** Warning!!: The largest beta MO coefficient is  0.61516781D+02

 Leave Link  801 at Mon Mar 11 00:06:16 2019, MaxMem=   671088640 cpu:               0.4 elap:               0.0
 (Enter /shared/centos7/gaussian/g16/l1101.exe)
 Using compressed storage, NAtomX=    13.
 Will process     14 centers per pass.
 Leave Link 1101 at Mon Mar 11 00:06:16 2019, MaxMem=   671088640 cpu:               7.2 elap:               0.4
 (Enter /shared/centos7/gaussian/g16/l1102.exe)
 Symmetrizing basis deriv contribution to polar:
 IMax=3 JMax=2 DiffMx= 0.00D+00
 Leave Link 1102 at Mon Mar 11 00:06:16 2019, MaxMem=   671088640 cpu:               0.5 elap:               0.0
 (Enter /shared/centos7/gaussian/g16/l1110.exe)
 Forming Gx(P) for the SCF density, NAtomX=    13.
 Integral derivatives from FoFJK, PRISM(SPDF).
 Do as many integral derivatives as possible in FoFJK.
 G2DrvN: MDV=     671087568.
 G2DrvN: will do    14 centers at a time, making    1 passes.
 Calling FoFCou, ICntrl=  3107 FMM=F I1Cent=   0 AccDes= 0.00D+00.
 FoFJK:  IHMeth= 1 ICntrl=    3107 DoSepK=F KAlg= 0 I1Cent=           0 FoldK=F
 IRaf=         0 NMat=       1 IRICut=       1 DoRegI=T DoRafI=F ISym2E= 0 IDoP0=0 IntGTp=1.
 FoFCou: FMM=F IPFlag=           0 FMFlag=      100000 FMFlg1=           0
         NFxFlg=           0 DoJE=F BraDBF=F KetDBF=F FulRan=T
         wScrn=  0.000000 ICntrl=      3107 IOpCl=  1 I1Cent=           0 NGrid=           0
         NMat0=    1 NMatS0=      1 NMatT0=    0 NMatD0=    1 NMtDS0=    0 NMtDT0=    0
 Symmetry not used in FoFCou.
 End of G2Drv F.D. properties file   721 does not exist.
 End of G2Drv F.D. properties file   722 does not exist.
 End of G2Drv F.D. properties file   788 does not exist.
 Leave Link 1110 at Mon Mar 11 00:07:50 2019, MaxMem=   671088640 cpu:            1864.7 elap:              93.3
 (Enter /shared/centos7/gaussian/g16/l1002.exe)
 Minotr:  UHF open shell wavefunction.
          IDoAtm=1111111111111
          Direct CPHF calculation.
          Differentiating once with respect to nuclear coordinates.
          Requested convergence is 1.0D-08 RMS, and 1.0D-07 maximum.
          Secondary convergence is 1.0D-12 RMS, and 1.0D-12 maximum.
          NewPWx=T KeepS1=F KeepF1=F KeepIn=T MapXYZ=F SortEE=F KeepMc=T.
         3966 words used for storage of precomputed grid.
 Two-electron integrals replicated using symmetry.
          MDV=     671088640 using IRadAn=       1.
          Solving linear equations simultaneously, MaxMat=     380.
 FoF2E skips out because all densities are zero.
 CalDSu exits because no D1Ps are significant.
 FoFJK:  IHMeth= 1 ICntrl=       0 DoSepK=F KAlg= 0 I1Cent=           0 FoldK=F
 IRaf= 940000000 NMat=      39 IRICut=      97 DoRegI=T DoRafI=T ISym2E= 2 IDoP0=3 IntGTp=3.
 FoFCou: FMM=F IPFlag=           0 FMFlag=      100000 FMFlg1=           0
         NFxFlg=           0 DoJE=F BraDBF=F KetDBF=F FulRan=T
         wScrn=  0.000000 ICntrl=         0 IOpCl=  1 I1Cent=           0 NGrid=           0
         NMat0=   39 NMatS0=     39 NMatT0=    0 NMatD0=   39 NMtDS0=    0 NMtDT0=    0
 Integrals replicated using symmetry in FoFCou.
 Raff kept on since  91.74% of shell-pairs survive, threshold=   0.20 IRatSp=92.
          There are    42 degrees of freedom in the 1st order CPHF.  IDoFFX=6 NUNeed=     0.
     36 vectors produced by pass  0 Test12= 2.72D-14 2.38D-09 XBig12= 1.57D-01 1.35D-01.
 AX will form    36 AO Fock derivatives at one time.
     36 vectors produced by pass  1 Test12= 2.72D-14 2.38D-09 XBig12= 1.84D-02 4.07D-02.
     36 vectors produced by pass  2 Test12= 2.72D-14 2.38D-09 XBig12= 7.85D-04 9.37D-03.
     36 vectors produced by pass  3 Test12= 2.72D-14 2.38D-09 XBig12= 1.21D-05 9.43D-04.
     36 vectors produced by pass  4 Test12= 2.72D-14 2.38D-09 XBig12= 1.24D-07 4.00D-05.
     36 vectors produced by pass  5 Test12= 2.72D-14 2.38D-09 XBig12= 1.42D-09 5.15D-06.
     36 vectors produced by pass  6 Test12= 2.72D-14 2.38D-09 XBig12= 1.49D-11 6.48D-07.
     18 vectors produced by pass  7 Test12= 2.72D-14 2.38D-09 XBig12= 1.37D-13 3.56D-08.
      4 vectors produced by pass  8 Test12= 2.72D-14 2.38D-09 XBig12= 1.26D-15 4.16D-09.
 InvSVY:  IOpt=1 It=  1 EMax= 1.55D-15
 Solved reduced A of dimension   274 with    36 vectors.
 End of Minotr F.D. properties file   721 does not exist.
 End of Minotr F.D. properties file   722 does not exist.
 End of Minotr F.D. properties file   788 does not exist.
 Leave Link 1002 at Mon Mar 11 00:10:12 2019, MaxMem=   671088640 cpu:            2852.9 elap:             142.7
 (Enter /shared/centos7/gaussian/g16/l601.exe)
 Copying SCF densities to generalized density rwf, IOpCl= 1 IROHF=0.

 **********************************************************************

            Population analysis using the SCF density.

 **********************************************************************

 Orbital symmetries:
 Alpha Orbitals:
       Occupied  (A) (A) (A) (A) (A) (A) (A) (A) (A) (A) (A) (A)
                 (A) (A) (A) (A) (A) (A) (A) (A) (A) (A) (A) (A)
       Virtual   (A) (A) (A) (A) (A) (A) (A) (A) (A) (A) (A) (A)
                 (A) (A) (A) (A) (A) (A) (A) (A) (A) (A) (A) (A)
                 (A) (A) (A) (A) (A) (A) (A) (A) (A) (A) (A) (A)
                 (A) (A) (A) (A) (A) (A) (A) (A) (A) (A) (A) (A)
                 (A) (A) (A) (A) (A) (A) (A) (A) (A) (A) (A) (A)
                 (A) (A) (A) (A) (A) (A) (A) (A) (A) (A) (A) (A)
                 (A) (A) (A) (A) (A) (A) (A) (A) (A) (A) (A) (A)
                 (A) (A) (A) (A) (A) (A) (A) (A) (A) (A) (A) (A)
                 (A) (A) (A) (A) (A) (A) (A) (A) (A) (A) (A) (A)
                 (A) (A) (A) (A) (A) (A) (A) (A) (A) (A) (A) (A)
                 (A) (A) (A) (A) (A) (A) (A) (A) (A) (A) (A) (A)
                 (A) (A) (A) (A) (A) (A) (A) (A) (A) (A) (A) (A)
                 (A) (A) (A) (A) (A) (A) (A) (A) (A) (A) (A) (A)
                 (A) (A) (A) (A) (A) (A) (A) (A) (A) (A) (A) (A)
                 (A) (A) (A) (A) (A) (A) (A) (A) (A) (A) (A) (A)
                 (A) (A) (A) (A) (A) (A) (A) (A) (A) (A) (A) (A)
                 (A) (A) (A) (A) (A) (A) (A) (A) (A) (A) (A) (A)
                 (A) (A) (A) (A) (A) (A) (A) (A) (A) (A) (A) (A)
                 (A) (A) (A) (A) (A) (A) (A) (A) (A) (A) (A) (A)
                 (A) (A) (A) (A) (A) (A) (A) (A) (A) (A) (A) (A)
                 (A) (A) (A)
 Beta  Orbitals:
       Occupied  (A) (A) (A) (A) (A) (A) (A) (A) (A) (A) (A) (A)
                 (A) (A) (A) (A) (A) (A) (A) (A) (A) (A) (A)
       Virtual   (A) (A) (A) (A) (A) (A) (A) (A) (A) (A) (A) (A)
                 (A) (A) (A) (A) (A) (A) (A) (A) (A) (A) (A) (A)
                 (A) (A) (A) (A) (A) (A) (A) (A) (A) (A) (A) (A)
                 (A) (A) (A) (A) (A) (A) (A) (A) (A) (A) (A) (A)
                 (A) (A) (A) (A) (A) (A) (A) (A) (A) (A) (A) (A)
                 (A) (A) (A) (A) (A) (A) (A) (A) (A) (A) (A) (A)
                 (A) (A) (A) (A) (A) (A) (A) (A) (A) (A) (A) (A)
                 (A) (A) (A) (A) (A) (A) (A) (A) (A) (A) (A) (A)
                 (A) (A) (A) (A) (A) (A) (A) (A) (A) (A) (A) (A)
                 (A) (A) (A) (A) (A) (A) (A) (A) (A) (A) (A) (A)
                 (A) (A) (A) (A) (A) (A) (A) (A) (A) (A) (A) (A)
                 (A) (A) (A) (A) (A) (A) (A) (A) (A) (A) (A) (A)
                 (A) (A) (A) (A) (A) (A) (A) (A) (A) (A) (A) (A)
                 (A) (A) (A) (A) (A) (A) (A) (A) (A) (A) (A) (A)
                 (A) (A) (A) (A) (A) (A) (A) (A) (A) (A) (A) (A)
                 (A) (A) (A) (A) (A) (A) (A) (A) (A) (A) (A) (A)
                 (A) (A) (A) (A) (A) (A) (A) (A) (A) (A) (A) (A)
                 (A) (A) (A) (A) (A) (A) (A) (A) (A) (A) (A) (A)
                 (A) (A) (A) (A) (A) (A) (A) (A) (A) (A) (A) (A)
                 (A) (A) (A) (A) (A) (A) (A) (A) (A) (A) (A) (A)
                 (A) (A) (A) (A)
 The electronic state is 2-A.
 Alpha  occ. eigenvalues --  -19.66487 -19.60905 -10.66401 -10.58610 -10.57731
 Alpha  occ. eigenvalues --  -10.54218  -1.23333  -1.13963  -0.90351  -0.82759
 Alpha  occ. eigenvalues --   -0.74009  -0.64122  -0.60020  -0.57210  -0.56148
 Alpha  occ. eigenvalues --   -0.51486  -0.50645  -0.47114  -0.46819  -0.44867
 Alpha  occ. eigenvalues --   -0.43142  -0.38327  -0.36232  -0.28844
 Alpha virt. eigenvalues --    0.01207   0.02485   0.03643   0.04684   0.05134
 Alpha virt. eigenvalues --    0.05745   0.06603   0.08026   0.08103   0.09184
 Alpha virt. eigenvalues --    0.10358   0.10394   0.11556   0.12048   0.14755
 Alpha virt. eigenvalues --    0.16274   0.18569   0.19475   0.20398   0.20928
 Alpha virt. eigenvalues --    0.20930   0.22538   0.23120   0.23688   0.26170
 Alpha virt. eigenvalues --    0.27291   0.27586   0.29169   0.29580   0.30631
 Alpha virt. eigenvalues --    0.32449   0.34079   0.34473   0.37352   0.40396
 Alpha virt. eigenvalues --    0.42740   0.43570   0.44607   0.45609   0.48903
 Alpha virt. eigenvalues --    0.50162   0.51803   0.53648   0.54564   0.54968
 Alpha virt. eigenvalues --    0.55229   0.56738   0.58495   0.59266   0.61920
 Alpha virt. eigenvalues --    0.63130   0.63637   0.65017   0.66094   0.66672
 Alpha virt. eigenvalues --    0.68430   0.70589   0.74181   0.77241   0.77811
 Alpha virt. eigenvalues --    0.80354   0.82812   0.85021   0.85385   0.88988
 Alpha virt. eigenvalues --    0.91373   0.91376   0.93011   0.98431   0.98888
 Alpha virt. eigenvalues --    1.02173   1.03852   1.07226   1.09199   1.11116
 Alpha virt. eigenvalues --    1.11569   1.13019   1.13534   1.14657   1.17410
 Alpha virt. eigenvalues --    1.18078   1.18689   1.19677   1.22854   1.24317
 Alpha virt. eigenvalues --    1.26998   1.27913   1.28808   1.31556   1.33641
 Alpha virt. eigenvalues --    1.35246   1.36025   1.39143   1.42166   1.42512
 Alpha virt. eigenvalues --    1.44747   1.45653   1.47153   1.48523   1.49087
 Alpha virt. eigenvalues --    1.52556   1.56746   1.58418   1.60913   1.66018
 Alpha virt. eigenvalues --    1.66304   1.72821   1.74630   1.78712   1.84329
 Alpha virt. eigenvalues --    1.89110   1.93337   2.03516   2.16719   2.17673
 Alpha virt. eigenvalues --    2.29985   2.36678   2.39148   2.40530   2.46161
 Alpha virt. eigenvalues --    2.51524   2.54543   2.58097   2.60445   2.66495
 Alpha virt. eigenvalues --    2.68002   2.74755   2.77065   2.79468   2.79797
 Alpha virt. eigenvalues --    2.83855   2.85692   2.93277   2.95477   2.96449
 Alpha virt. eigenvalues --    2.98877   2.99388   3.06170   3.07177   3.10083
 Alpha virt. eigenvalues --    3.12992   3.13624   3.14379   3.17640   3.18669
 Alpha virt. eigenvalues --    3.18832   3.19635   3.21251   3.24143   3.26971
 Alpha virt. eigenvalues --    3.30438   3.30848   3.37111   3.40352   3.40513
 Alpha virt. eigenvalues --    3.42154   3.45803   3.49490   3.50124   3.51350
 Alpha virt. eigenvalues --    3.52863   3.53053   3.55903   3.57433   3.60891
 Alpha virt. eigenvalues --    3.67251   3.68899   3.72513   3.75781   3.78455
 Alpha virt. eigenvalues --    3.84556   3.87567   3.88514   3.90008   3.90331
 Alpha virt. eigenvalues --    3.92681   3.98997   4.01327   4.07949   4.09390
 Alpha virt. eigenvalues --    4.12804   4.15165   4.15825   4.17861   4.21601
 Alpha virt. eigenvalues --    4.25047   4.29366   4.31197   4.31791   4.33966
 Alpha virt. eigenvalues --    4.36513   4.39039   4.40571   4.43094   4.47813
 Alpha virt. eigenvalues --    4.50144   4.52803   4.64383   4.83778   4.93338
 Alpha virt. eigenvalues --    5.04063   5.08519   5.11623   5.14298   5.20275
 Alpha virt. eigenvalues --    5.23814   5.26645   5.32011   5.39279   5.43542
 Alpha virt. eigenvalues --    5.45514   5.54055   5.55400   5.56705   5.58404
 Alpha virt. eigenvalues --    5.58821   5.63786   5.73034   5.74890   5.80634
 Alpha virt. eigenvalues --    5.97989   6.11241   6.33976   6.47661   6.70730
 Alpha virt. eigenvalues --    6.82216   6.95226   7.09978   7.11305   7.17352
 Alpha virt. eigenvalues --    7.18994   7.25007   7.30429   7.55524   7.67044
 Alpha virt. eigenvalues --    7.78891   7.82597  24.25968  24.44411  24.48782
 Alpha virt. eigenvalues --   24.91061  50.17744  50.32203
  Beta  occ. eigenvalues --  -19.66409 -19.60603 -10.66479 -10.58613 -10.57175
  Beta  occ. eigenvalues --  -10.54269  -1.22988  -1.13270  -0.88207  -0.82565
  Beta  occ. eigenvalues --   -0.72728  -0.63674  -0.59023  -0.56293  -0.55652
  Beta  occ. eigenvalues --   -0.51004  -0.48601  -0.46395  -0.45558  -0.44647
  Beta  occ. eigenvalues --   -0.42936  -0.36599  -0.35536
  Beta virt. eigenvalues --   -0.06728   0.00968   0.02521   0.03688   0.04366
  Beta virt. eigenvalues --    0.05050   0.05753   0.06513   0.08199   0.08498
  Beta virt. eigenvalues --    0.08546   0.09798   0.10621   0.12134   0.13146
  Beta virt. eigenvalues --    0.14448   0.15812   0.18785   0.19468   0.20609
  Beta virt. eigenvalues --    0.20875   0.21518   0.22649   0.23230   0.24033
  Beta virt. eigenvalues --    0.26452   0.27155   0.27471   0.29105   0.30238
  Beta virt. eigenvalues --    0.31040   0.32730   0.34100   0.34813   0.37695
  Beta virt. eigenvalues --    0.40455   0.42868   0.43520   0.44620   0.46266
  Beta virt. eigenvalues --    0.49480   0.50467   0.52198   0.54169   0.55081
  Beta virt. eigenvalues --    0.55355   0.56519   0.56895   0.58762   0.59486
  Beta virt. eigenvalues --    0.61927   0.63730   0.64095   0.65576   0.66201
  Beta virt. eigenvalues --    0.67142   0.68732   0.70733   0.73589   0.77146
  Beta virt. eigenvalues --    0.77863   0.80148   0.82645   0.84722   0.85483
  Beta virt. eigenvalues --    0.89208   0.90986   0.91551   0.92917   0.97462
  Beta virt. eigenvalues --    0.98731   1.02236   1.03966   1.07359   1.09254
  Beta virt. eigenvalues --    1.10966   1.11553   1.13010   1.14041   1.14573
  Beta virt. eigenvalues --    1.17367   1.18478   1.18713   1.19904   1.22904
  Beta virt. eigenvalues --    1.24349   1.27237   1.28606   1.29433   1.31495
  Beta virt. eigenvalues --    1.33840   1.35405   1.36346   1.39537   1.42204
  Beta virt. eigenvalues --    1.42639   1.44873   1.45589   1.47226   1.48959
  Beta virt. eigenvalues --    1.49134   1.53652   1.56808   1.59076   1.61014
  Beta virt. eigenvalues --    1.66435   1.66602   1.73538   1.74936   1.78818
  Beta virt. eigenvalues --    1.84561   1.89601   1.93577   2.03924   2.17580
  Beta virt. eigenvalues --    2.18131   2.30318   2.37020   2.39246   2.41411
  Beta virt. eigenvalues --    2.46617   2.52070   2.55050   2.58202   2.61682
  Beta virt. eigenvalues --    2.68849   2.71203   2.75154   2.80520   2.81696
  Beta virt. eigenvalues --    2.83925   2.85347   2.87879   2.95081   2.96517
  Beta virt. eigenvalues --    2.97004   3.00459   3.00623   3.06323   3.08540
  Beta virt. eigenvalues --    3.10165   3.13521   3.14682   3.15099   3.18173
  Beta virt. eigenvalues --    3.19500   3.20232   3.20756   3.22654   3.27215
  Beta virt. eigenvalues --    3.28420   3.32426   3.33008   3.38538   3.41002
  Beta virt. eigenvalues --    3.41667   3.43199   3.46552   3.50491   3.51464
  Beta virt. eigenvalues --    3.52351   3.54449   3.54993   3.57838   3.58757
  Beta virt. eigenvalues --    3.61387   3.69503   3.69915   3.73909   3.76379
  Beta virt. eigenvalues --    3.79510   3.85589   3.87559   3.88944   3.90491
  Beta virt. eigenvalues --    3.91361   3.92829   3.99726   4.01668   4.09969
  Beta virt. eigenvalues --    4.10266   4.13130   4.16805   4.17838   4.19766
  Beta virt. eigenvalues --    4.22214   4.26808   4.29942   4.31479   4.32861
  Beta virt. eigenvalues --    4.35717   4.39166   4.39949   4.42080   4.43320
  Beta virt. eigenvalues --    4.49503   4.51914   4.54530   4.68722   4.88328
  Beta virt. eigenvalues --    4.93594   5.06773   5.09186   5.12579   5.14687
  Beta virt. eigenvalues --    5.21252   5.24168   5.27372   5.34302   5.39624
  Beta virt. eigenvalues --    5.46186   5.46732   5.54441   5.55681   5.56590
  Beta virt. eigenvalues --    5.58019   5.59984   5.65218   5.74000   5.75004
  Beta virt. eigenvalues --    5.82698   5.98354   6.11569   6.34795   6.47771
  Beta virt. eigenvalues --    6.71147   6.84457   6.97157   7.10872   7.11828
  Beta virt. eigenvalues --    7.17817   7.20078   7.25529   7.31470   7.55974
  Beta virt. eigenvalues --    7.67822   7.78989   7.82738  24.26955  24.44395
  Beta virt. eigenvalues --   24.49309  24.91349  50.17655  50.31823
          Condensed to atoms (all electrons):
               1          2          3          4          5          6
     1  O    8.225865  -0.084512   0.012412   0.137641  -0.203692   0.212894
     2  O   -0.084512   8.224376  -0.006503  -0.042237  -0.030852   0.364402
     3  C    0.012412  -0.006503   5.053315  -0.013264   0.273837  -0.081615
     4  C    0.137641  -0.042237  -0.013264   4.988051  -0.117029  -0.057398
     5  C   -0.203692  -0.030852   0.273837  -0.117029   6.016978  -0.134282
     6  C    0.212894   0.364402  -0.081615  -0.057398  -0.134282   5.417323
     7  H   -0.000321   0.000853   0.411687   0.000123  -0.032523  -0.009435
     8  H    0.000228   0.000434   0.429018  -0.000885  -0.063255   0.015004
     9  H   -0.000321   0.000853   0.411687   0.000123  -0.032524  -0.009434
    10  H   -0.059365   0.003525   0.000397   0.419786   0.006136   0.014123
    11  H   -0.036125  -0.004274  -0.000762   0.431481  -0.002934   0.003423
    12  H   -0.036125  -0.004274  -0.000762   0.431481  -0.002934   0.003423
    13  H    0.003163   0.003615  -0.017238   0.004287   0.347122   0.019142
               7          8          9         10         11         12
     1  O   -0.000321   0.000228  -0.000321  -0.059365  -0.036125  -0.036125
     2  O    0.000853   0.000434   0.000853   0.003525  -0.004274  -0.004274
     3  C    0.411687   0.429018   0.411687   0.000397  -0.000762  -0.000762
     4  C    0.000123  -0.000885   0.000123   0.419786   0.431481   0.431481
     5  C   -0.032523  -0.063255  -0.032524   0.006136  -0.002934  -0.002934
     6  C   -0.009435   0.015004  -0.009434   0.014123   0.003423   0.003423
     7  H    0.565044  -0.023843  -0.042241  -0.000001  -0.000006   0.000004
     8  H   -0.023843   0.496842  -0.023843   0.000004  -0.000006  -0.000006
     9  H   -0.042241  -0.023843   0.565044  -0.000001   0.000004  -0.000006
    10  H   -0.000001   0.000004  -0.000001   0.534425  -0.025073  -0.025073
    11  H   -0.000006  -0.000006   0.000004  -0.025073   0.534433  -0.038141
    12  H    0.000004  -0.000006  -0.000006  -0.025073  -0.038141   0.534433
    13  H   -0.002365   0.003142  -0.002365  -0.000049  -0.000007  -0.000007
              13
     1  O    0.003163
     2  O    0.003615
     3  C   -0.017238
     4  C    0.004287
     5  C    0.347122
     6  C    0.019142
     7  H   -0.002365
     8  H    0.003142
     9  H   -0.002365
    10  H   -0.000049
    11  H   -0.000007
    12  H   -0.000007
    13  H    0.448786
          Atomic-Atomic Spin Densities.
               1          2          3          4          5          6
     1  O    0.035586   0.009130   0.002966  -0.002440  -0.030151   0.011333
     2  O    0.009130   0.197047   0.005953  -0.002052  -0.030364  -0.020603
     3  C    0.002966   0.005953  -0.013534   0.000861  -0.066500  -0.006420
     4  C   -0.002440  -0.002052   0.000861  -0.002647  -0.005843   0.007222
     5  C   -0.030151  -0.030364  -0.066500  -0.005843   1.036978   0.039472
     6  C    0.011333  -0.020603  -0.006420   0.007222   0.039472  -0.101647
     7  H    0.000090   0.000548   0.023245  -0.000069  -0.031163   0.000442
     8  H   -0.000053   0.000136  -0.004390   0.000060   0.002063   0.000806
     9  H    0.000090   0.000548   0.023244  -0.000069  -0.031163   0.000443
    10  H    0.000234  -0.000048  -0.000048   0.000131  -0.000019  -0.000357
    11  H   -0.000587  -0.000810  -0.000011   0.000490   0.000400   0.000172
    12  H   -0.000587  -0.000810  -0.000011   0.000490   0.000400   0.000172
    13  H   -0.000290   0.000209   0.002517   0.000341  -0.012884   0.011278
               7          8          9         10         11         12
     1  O    0.000090  -0.000053   0.000090   0.000234  -0.000587  -0.000587
     2  O    0.000548   0.000136   0.000548  -0.000048  -0.000810  -0.000810
     3  C    0.023245  -0.004390   0.023244  -0.000048  -0.000011  -0.000011
     4  C   -0.000069   0.000060  -0.000069   0.000131   0.000490   0.000490
     5  C   -0.031163   0.002063  -0.031163  -0.000019   0.000400   0.000400
     6  C    0.000442   0.000806   0.000443  -0.000357   0.000172   0.000172
     7  H    0.057068  -0.000044  -0.015824   0.000000  -0.000006   0.000003
     8  H   -0.000044   0.004524  -0.000044  -0.000000   0.000000   0.000000
     9  H   -0.015824  -0.000044   0.057068   0.000000   0.000003  -0.000006
    10  H    0.000000  -0.000000   0.000000   0.000072   0.000037   0.000037
    11  H   -0.000006   0.000000   0.000003   0.000037   0.002847  -0.000635
    12  H    0.000003   0.000000  -0.000006   0.000037  -0.000635   0.002847
    13  H    0.000248  -0.000203   0.000248  -0.000005   0.000007   0.000007
              13
     1  O   -0.000290
     2  O    0.000209
     3  C    0.002517
     4  C    0.000341
     5  C   -0.012884
     6  C    0.011278
     7  H    0.000248
     8  H   -0.000203
     9  H    0.000248
    10  H   -0.000005
    11  H    0.000007
    12  H    0.000007
    13  H   -0.039342
 Mulliken charges and spin densities:
               1          2
     1  O   -0.171741   0.025320
     2  O   -0.425404   0.158882
     3  C   -0.472208  -0.032128
     4  C   -0.182158  -0.003524
     5  C   -0.024049   0.871226
     6  C    0.242430  -0.057688
     7  H    0.133025   0.034538
     8  H    0.167165   0.002856
     9  H    0.133024   0.034537
    10  H    0.131165   0.000036
    11  H    0.137988   0.001907
    12  H    0.137988   0.001907
    13  H    0.192774  -0.037869
 Sum of Mulliken charges =  -0.00000   1.00000
 Mulliken charges and spin densities with hydrogens summed into heavy atoms:
               1          2
     1  O   -0.171741   0.025320
     2  O   -0.425404   0.158882
     3  C   -0.038994   0.039803
     4  C    0.224984   0.000327
     5  C    0.168725   0.833357
     6  C    0.242430  -0.057688
 APT charges:
               1
     1  O   -0.052738
     2  O   -0.428795
     3  C   -1.341371
     4  C   -1.229385
     5  C   -0.277605
     6  C    0.333440
     7  H    0.497062
     8  H    0.281113
     9  H    0.497066
    10  H    0.573110
    11  H    0.355533
    12  H    0.355533
    13  H    0.437037
 Sum of APT charges =  -0.00000
 APT charges with hydrogens summed into heavy atoms:
               1
     1  O   -0.052738
     2  O   -0.428795
     3  C   -0.066129
     4  C    0.054791
     5  C    0.159432
     6  C    0.333440
 Electronic spatial extent (au):  <R**2>=            675.7493
 Charge=             -0.0000 electrons
 Dipole moment (field-independent basis, Debye):
    X=             -0.3514    Y=             -1.7429    Z=              0.0000  Tot=              1.7779
 Quadrupole moment (field-independent basis, Debye-Ang):
   XX=            -28.0433   YY=            -40.3362   ZZ=            -36.2279
   XY=              1.3617   XZ=             -0.0000   YZ=             -0.0000
 Traceless Quadrupole moment (field-independent basis, Debye-Ang):
   XX=              6.8259   YY=             -5.4671   ZZ=             -1.3588
   XY=              1.3617   XZ=             -0.0000   YZ=             -0.0000
 Octapole moment (field-independent basis, Debye-Ang**2):
  XXX=             11.5442  YYY=             -5.0251  ZZZ=              0.0000  XYY=             -0.5162
  XXY=             -0.4497  XXZ=              0.0000  XZZ=              1.9050  YZZ=              1.3518
  YYZ=             -0.0000  XYZ=             -0.0000
 Hexadecapole moment (field-independent basis, Debye-Ang**3):
 XXXX=           -642.7377 YYYY=           -152.5604 ZZZZ=            -49.3328 XXXY=             -5.1038
 XXXZ=              0.0000 YYYX=             -2.0078 YYYZ=             -0.0000 ZZZX=             -0.0001
 ZZZY=              0.0000 XXYY=           -138.0459 XXZZ=           -119.9713 YYZZ=            -34.3007
 XXYZ=              0.0001 YYXZ=              0.0000 ZZXY=              1.9517
 N-N= 2.357903111195D+02 E-N=-1.190077405175D+03  KE= 3.059455164642D+02
  Exact polarizability:   0.000   0.000   0.000   0.000   0.000   0.000
 Approx polarizability:  67.686   0.989  68.118  -0.000   0.000  51.380
                          Isotropic Fermi Contact Couplings
        Atom                 a.u.       MegaHertz       Gauss      10(-4) cm-1
     1  O(17)              0.00137      -0.83264      -0.29711      -0.27774
     2  O(17)              0.03581     -21.70533      -7.74500      -7.24012
     3  C(13)             -0.02844     -31.96818     -11.40704     -10.66344
     4  C(13)             -0.00164      -1.83851      -0.65603      -0.61326
     5  C(13)              0.14019     157.60562      56.23761      52.57158
     6  C(13)             -0.04400     -49.46774     -17.65132     -16.50066
     7  H(1)               0.02091      93.44344      33.34294      31.16938
     8  H(1)               0.00020       0.89508       0.31939       0.29857
     9  H(1)               0.02090      93.44131      33.34218      31.16866
    10  H(1)              -0.00002      -0.09002      -0.03212      -0.03003
    11  H(1)               0.00130       5.81754       2.07584       1.94052
    12  H(1)               0.00130       5.81754       2.07584       1.94052
    13  H(1)              -0.01430     -63.93135     -22.81230     -21.32520
 --------------------------------------------------------
       Center         ----  Spin Dipole Couplings  ----
                      3XX-RR        3YY-RR        3ZZ-RR
 --------------------------------------------------------
     1   Atom       -0.068386     -0.086072      0.154458
     2   Atom       -0.329259     -0.332651      0.661910
     3   Atom       -0.003116     -0.014808      0.017924
     4   Atom        0.003950     -0.003248     -0.000702
     5   Atom       -0.482975     -0.476251      0.959225
     6   Atom        0.017909      0.019881     -0.037790
     7   Atom        0.012462     -0.007222     -0.005240
     8   Atom        0.001729      0.005737     -0.007466
     9   Atom        0.012463     -0.007222     -0.005241
    10   Atom        0.003802     -0.001837     -0.001964
    11   Atom        0.004127     -0.001796     -0.002331
    12   Atom        0.004127     -0.001796     -0.002331
    13   Atom       -0.062190      0.068722     -0.006533
 --------------------------------------------------------
                        XY            XZ            YZ
 --------------------------------------------------------
     1   Atom        0.003156     -0.000000      0.000000
     2   Atom       -0.005023     -0.000002     -0.000001
     3   Atom       -0.005046     -0.000000      0.000000
     4   Atom        0.000043      0.000000     -0.000000
     5   Atom        0.003556     -0.000000      0.000002
     6   Atom        0.015855     -0.000000     -0.000000
     7   Atom       -0.003031     -0.009194      0.000029
     8   Atom       -0.010620      0.000000     -0.000000
     9   Atom       -0.003031      0.009194     -0.000029
    10   Atom       -0.000740      0.000000      0.000000
    11   Atom        0.001086      0.002087      0.000546
    12   Atom        0.001086     -0.002087     -0.000546
    13   Atom       -0.003616      0.000000     -0.000000
 --------------------------------------------------------


 ---------------------------------------------------------------------------------
              Anisotropic Spin Dipole Couplings in Principal Axis System
 ---------------------------------------------------------------------------------

       Atom             a.u.   MegaHertz   Gauss  10(-4) cm-1        Axes

              Baa    -0.0866     6.268     2.236     2.091 -0.1706  0.9853 -0.0000
     1 O(17)  Bbb    -0.0678     4.909     1.752     1.637  0.9853  0.1706 -0.0000
              Bcc     0.1545   -11.176    -3.988    -3.728 -0.0000  0.0000  1.0000
 
              Baa    -0.3363    24.331     8.682     8.116  0.5831  0.8124  0.0000
     2 O(17)  Bbb    -0.3257    23.564     8.408     7.860  0.8124 -0.5831  0.0000
              Bcc     0.6619   -47.895   -17.090   -15.976 -0.0000 -0.0000  1.0000
 
              Baa    -0.0167    -2.239    -0.799    -0.747  0.3485  0.9373 -0.0000
     3 C(13)  Bbb    -0.0012    -0.166    -0.059    -0.055  0.9373 -0.3485  0.0000
              Bcc     0.0179     2.405     0.858     0.802 -0.0000  0.0000  1.0000
 
              Baa    -0.0032    -0.436    -0.156    -0.145 -0.0059  1.0000  0.0000
     4 C(13)  Bbb    -0.0007    -0.094    -0.034    -0.031 -0.0000 -0.0000  1.0000
              Bcc     0.0040     0.530     0.189     0.177  1.0000  0.0059  0.0000
 
              Baa    -0.4845   -65.016   -23.199   -21.687  0.9184 -0.3956  0.0000
     5 C(13)  Bbb    -0.4747   -63.703   -22.731   -21.249  0.3956  0.9184 -0.0000
              Bcc     0.9592   128.719    45.930    42.936 -0.0000  0.0000  1.0000
 
              Baa    -0.0378    -5.071    -1.809    -1.692  0.0000  0.0000  1.0000
     6 C(13)  Bbb     0.0030     0.404     0.144     0.135  0.7287 -0.6848 -0.0000
              Bcc     0.0348     4.667     1.665     1.557  0.6848  0.7287 -0.0000
 
              Baa    -0.0098    -5.204    -1.857    -1.736  0.3923  0.4606  0.7962
     7 H(1)   Bbb    -0.0069    -3.707    -1.323    -1.237 -0.0841  0.8799 -0.4676
              Bcc     0.0167     8.911     3.180     2.972  0.9160 -0.1165 -0.3839
 
              Baa    -0.0075    -3.983    -1.421    -1.329 -0.0001 -0.0001  1.0000
     8 H(1)   Bbb    -0.0071    -3.774    -1.347    -1.259  0.7699  0.6382  0.0001
              Bcc     0.0145     7.758     2.768     2.588 -0.6382  0.7699 -0.0000
 
              Baa    -0.0098    -5.204    -1.857    -1.736 -0.3923 -0.4606  0.7962
     9 H(1)   Bbb    -0.0069    -3.707    -1.323    -1.237 -0.0841  0.8799  0.4676
              Bcc     0.0167     8.911     3.180     2.972  0.9160 -0.1165  0.3839
 
              Baa    -0.0020    -1.048    -0.374    -0.350 -0.0000 -0.0000  1.0000
    10 H(1)   Bbb    -0.0019    -1.031    -0.368    -0.344  0.1280  0.9918  0.0000
              Bcc     0.0039     2.079     0.742     0.694  0.9918 -0.1280  0.0000
 
              Baa    -0.0030    -1.597    -0.570    -0.533 -0.2454 -0.2094  0.9465
    11 H(1)   Bbb    -0.0020    -1.047    -0.373    -0.349 -0.2246  0.9621  0.1546
              Bcc     0.0050     2.644     0.943     0.882  0.9430  0.1746  0.2832
 
              Baa    -0.0030    -1.597    -0.570    -0.533  0.2454  0.2094  0.9465
    12 H(1)   Bbb    -0.0020    -1.047    -0.373    -0.349 -0.2246  0.9621 -0.1546
              Bcc     0.0050     2.644     0.943     0.882  0.9430  0.1746 -0.2832
 
              Baa    -0.0623   -33.235   -11.859   -11.086  0.9996  0.0276  0.0000
    13 H(1)   Bbb    -0.0065    -3.485    -1.244    -1.163 -0.0000  0.0000  1.0000
              Bcc     0.0688    36.720    13.103    12.249 -0.0276  0.9996 -0.0000
 

 ---------------------------------------------------------------------------------

 No NMR shielding tensors so no spin-rotation constants.
 Leave Link  601 at Mon Mar 11 00:10:13 2019, MaxMem=   671088640 cpu:              10.1 elap:               0.6
 (Enter /shared/centos7/gaussian/g16/l701.exe)
 ... and contract with generalized density number  0.
 Compute integral second derivatives.
 Leave Link  701 at Mon Mar 11 00:10:13 2019, MaxMem=   671088640 cpu:               7.7 elap:               0.4
 (Enter /shared/centos7/gaussian/g16/l702.exe)
 L702 exits ... SP integral derivatives will be done elsewhere.
 Leave Link  702 at Mon Mar 11 00:10:14 2019, MaxMem=   671088640 cpu:               0.5 elap:               0.0
 (Enter /shared/centos7/gaussian/g16/l703.exe)
 Integral derivatives from FoFJK, PRISM(SPDF).
 Compute integral second derivatives, UseDBF=F ICtDFT=           0.
 Calling FoFJK, ICntrl=    100147 FMM=F ISym2X=0 I1Cent= 0 IOpClX= 1 NMat=1 NMatS=1 NMatT=0.
 FoFJK:  IHMeth= 1 ICntrl=  100147 DoSepK=F KAlg= 0 I1Cent=           0 FoldK=F
 IRaf=         0 NMat=       1 IRICut=       1 DoRegI=T DoRafI=F ISym2E= 0 IDoP0=0 IntGTp=1.
 FoFCou: FMM=F IPFlag=           0 FMFlag=      100000 FMFlg1=         800
         NFxFlg=           0 DoJE=F BraDBF=F KetDBF=F FulRan=T
         wScrn=  0.000000 ICntrl=    100147 IOpCl=  1 I1Cent=           0 NGrid=           0
         NMat0=    1 NMatS0=      1 NMatT0=    0 NMatD0=    1 NMtDS0=    0 NMtDT0=    0
 Symmetry not used in FoFCou.
 Leave Link  703 at Mon Mar 11 00:11:51 2019, MaxMem=   671088640 cpu:            1958.5 elap:              98.0
 (Enter /shared/centos7/gaussian/g16/l716.exe)
 Dipole        =-1.38256957D-01-6.85695871D-01 1.08702721D-06
 Polarizability= 0.00000000D+00 0.00000000D+00 0.00000000D+00
                 0.00000000D+00 0.00000000D+00 0.00000000D+00
 ***** Axes restored to original set *****
 -------------------------------------------------------------------
 Center     Atomic                   Forces (Hartrees/Bohr)
 Number     Number              X              Y              Z
 -------------------------------------------------------------------
      1        8          -0.000000288   -0.000000003    0.000000206
      2        8           0.000000318   -0.000000245    0.000000006
      3        6           0.000000304    0.000000390   -0.000000461
      4        6          -0.000000277   -0.000000411    0.000000526
      5        6           0.000000026    0.000000311   -0.000000298
      6        6          -0.000000004   -0.000000180    0.000000166
      7        1           0.000000230    0.000000492   -0.000000580
      8        1           0.000000515    0.000000133   -0.000000454
      9        1           0.000000203    0.000000482   -0.000000573
     10        1          -0.000000502   -0.000000389    0.000000650
     11        1          -0.000000111   -0.000000508    0.000000514
     12        1          -0.000000110   -0.000000501    0.000000520
     13        1          -0.000000303    0.000000429   -0.000000222
 -------------------------------------------------------------------
 Cartesian Forces:  Max     0.000000650 RMS     0.000000374
 Force constants in Cartesian coordinates: 
                1             2             3             4             5 
      1  0.431822D+00
      2 -0.160009D+00  0.327292D+00
      3 -0.711877D-01 -0.125326D+00  0.233464D+00
      4  0.287302D-01  0.589540D-02 -0.617207D-02  0.225322D+00
      5  0.180421D-02 -0.491557D-01  0.671251D-01  0.137436D+00  0.287393D+00
      6 -0.251847D-02  0.646468D-01 -0.289742D-01 -0.239191D+00 -0.310366D+00
      7 -0.446964D-02  0.270496D-02  0.176064D-02 -0.104038D-03  0.905142D-03
      8 -0.829573D-03  0.198343D-02  0.896432D-03 -0.149667D-02 -0.184800D-02
      9  0.491712D-02 -0.124466D-02  0.557388D-03  0.102178D-02  0.544931D-03
     10 -0.198098D+00  0.329982D-01  0.503213D-01 -0.254703D-02 -0.121737D-01
     11  0.131607D-01 -0.828978D-01  0.677654D-02  0.136137D-02 -0.664748D-03
     12  0.680370D-01 -0.524051D-02 -0.102917D+00 -0.341816D-02  0.244675D-02
     13 -0.363406D-01  0.289241D-01  0.227489D-02 -0.271046D-01 -0.198339D-01
     14  0.443989D-01 -0.147222D-01 -0.476837D-02 -0.226337D-01  0.998946D-02
     15 -0.115447D-01  0.460577D-02  0.129355D-01  0.479292D-01  0.197481D-01
     16 -0.145487D+00  0.559450D-01 -0.811970D-03 -0.219581D+00 -0.112450D+00
     17  0.790660D-01 -0.183592D+00  0.585901D-01 -0.123766D+00 -0.250231D+00
     18 -0.214601D-01  0.725962D-01 -0.116184D+00  0.198234D+00  0.224788D+00
     19 -0.110692D-02  0.876045D-03  0.288396D-03 -0.213018D-03  0.227448D-03
     20  0.117785D-02 -0.111264D-02 -0.520714D-03  0.400433D-03  0.108071D-02
     21 -0.616130D-03  0.601563D-03  0.122292D-03 -0.240271D-03 -0.119705D-02
     22  0.757683D-03 -0.111010D-02  0.609780D-03 -0.145287D-02 -0.397663D-03
     23 -0.169089D-03  0.694263D-03 -0.403479D-03 -0.197602D-03  0.151844D-02
     24 -0.230579D-03  0.166566D-03  0.118692D-03  0.504308D-03 -0.192926D-02
     25 -0.125793D-02  0.382099D-03 -0.837740D-04 -0.362267D-03  0.504993D-04
     26  0.173375D-02 -0.693155D-03  0.215723D-03  0.271882D-03  0.954694D-03
     27 -0.655863D-03  0.950635D-04 -0.146168D-03  0.361476D-04 -0.718523D-03
     28 -0.241170D-01  0.342652D-01 -0.159449D-01  0.230716D-02 -0.603890D-04
     29  0.596004D-02 -0.612209D-02  0.192465D-02  0.817551D-03  0.261442D-03
     30  0.933289D-02 -0.152219D-01  0.801612D-02 -0.168740D-02  0.452241D-03
     31 -0.119630D-01  0.146652D-01  0.394468D-01  0.312421D-03  0.162478D-02
     32  0.511855D-02 -0.318714D-02 -0.735888D-02 -0.149456D-02 -0.594500D-03
     33  0.124794D-01 -0.528316D-02 -0.899002D-02 -0.938292D-03 -0.123219D-03
     34 -0.381218D-01 -0.162312D-01  0.658064D-03  0.160861D-02  0.163141D-02
     35  0.790902D-02  0.122302D-01  0.372484D-02  0.608211D-03 -0.301823D-03
     36  0.145927D-01  0.104895D-01  0.175153D-02  0.990644D-03 -0.423013D-03
     37 -0.347615D-03  0.693830D-03 -0.115945D-02 -0.691538D-02  0.123611D-02
     38  0.678330D-03 -0.717642D-03 -0.876309D-03  0.279699D-02  0.159793D-02
     39 -0.114563D-02 -0.885677D-03  0.246162D-03  0.293128D-02 -0.347852D-03
                6             7             8             9            10 
      6  0.455148D+00
      7 -0.112313D-02  0.535422D+00
      8  0.199998D-02  0.216748D-01  0.512421D+00
      9 -0.172934D-02 -0.364980D-01 -0.178573D-01  0.545183D+00
     10  0.866923D-02  0.736976D-03 -0.274861D-03  0.850766D-04  0.496771D+00
     11 -0.575245D-02  0.627772D-03  0.454943D-03 -0.364885D-03  0.122248D-01
     12 -0.629711D-02 -0.721022D-03  0.181914D-03  0.746521D-03  0.455346D-01
     13  0.454288D-01 -0.130112D+00  0.790429D-01 -0.210346D-01  0.526484D-02
     14  0.214441D-01  0.720743D-01 -0.168221D+00  0.634258D-01  0.556384D-03
     15 -0.280213D-01 -0.148114D-01  0.592046D-01 -0.922087D-01 -0.133014D-02
     16  0.188129D+00 -0.100018D-01  0.995640D-02  0.968326D-03 -0.398257D-01
     17  0.231643D+00  0.198658D-01  0.120315D-04 -0.644188D-02  0.360768D-01
     18 -0.395629D+00 -0.788149D-02 -0.439024D-03  0.114405D-01 -0.634782D-02
     19  0.252074D-03 -0.240953D+00 -0.852919D-01 -0.787048D-01  0.243899D-03
     20 -0.890338D-03 -0.786751D-01 -0.727025D-01 -0.256671D-01 -0.153897D-03
     21  0.818988D-03 -0.802925D-01 -0.283842D-01 -0.752778D-01  0.179117D-03
     22  0.682954D-03 -0.110940D+00 -0.667378D-01  0.974385D-01 -0.209174D-03
     23 -0.205049D-02 -0.634187D-01 -0.115474D+00  0.982496D-01  0.636768D-04
     24  0.505735D-03  0.944745D-01  0.100260D+00 -0.195238D+00  0.103978D-03
     25 -0.103985D-03 -0.491387D-01  0.339607D-01  0.456155D-01  0.985504D-04
     26 -0.126415D-02  0.332474D-01 -0.148781D+00 -0.124446D+00 -0.215038D-03
     27  0.109425D-02  0.419315D-01 -0.118153D+00 -0.191014D+00  0.166647D-04
     28 -0.903359D-03 -0.362647D-03 -0.883943D-04  0.261110D-03 -0.694190D-01
     29 -0.795912D-04  0.105066D-03 -0.901831D-05 -0.110893D-03  0.664202D-01
     30  0.134520D-02  0.883422D-04  0.630010D-05 -0.121066D-03 -0.495021D-01
     31 -0.144770D-02 -0.792007D-04 -0.142708D-04 -0.118912D-05 -0.517205D-01
     32  0.137731D-02  0.174354D-04  0.207294D-05 -0.137350D-04 -0.477855D-02
     33  0.137287D-02  0.393060D-04  0.241467D-04 -0.762912D-05 -0.221062D-01
     34 -0.219941D-02 -0.487028D-04  0.266686D-04  0.670685D-04 -0.141341D+00
     35  0.585906D-03  0.120493D-04 -0.117945D-04  0.378256D-05 -0.130356D+00
     36 -0.215998D-03  0.113178D-04 -0.237504D-04 -0.242592D-04 -0.258064D-01
     37  0.432523D-02  0.100505D-01  0.100719D-01 -0.141359D-01  0.454517D-04
     38 -0.129339D-02 -0.914097D-02 -0.782562D-02  0.139219D-01 -0.388417D-03
     39  0.581869D-03  0.302207D-02  0.228340D-02 -0.230656D-02  0.182653D-03
               11            12            13            14            15 
     11  0.614882D+00
     12 -0.296616D-01  0.588866D+00
     13  0.863496D-03 -0.160440D-02  0.503442D+00
     14 -0.177801D-02  0.472414D-02 -0.112878D+00  0.436914D+00
     15  0.453809D-02  0.642356D-03 -0.145824D+00 -0.235794D+00  0.395221D+00
     16  0.427200D-01 -0.122804D-01 -0.213712D+00  0.376098D-01  0.579929D-01
     17 -0.172554D-01 -0.387209D-02  0.490550D-01 -0.872739D-01 -0.762156D-02
     18 -0.789633D-02  0.137777D-01  0.477720D-01 -0.688398D-03 -0.908571D-01
     19  0.116695D-03 -0.107962D-03 -0.192960D-01  0.625911D-03 -0.501105D-02
     20 -0.109306D-03  0.129550D-03  0.257441D-01  0.694770D-02  0.633091D-02
     21 -0.299901D-05 -0.655129D-05 -0.906865D-02 -0.207257D-02 -0.233777D-02
     22  0.107555D-04  0.151240D-03  0.115447D-01  0.955400D-02 -0.163704D-01
     23  0.799730D-04 -0.596756D-04 -0.121680D-01 -0.154891D-01  0.199573D-01
     24 -0.276163D-04  0.180194D-04  0.302797D-02  0.679909D-02 -0.930109D-02
     25  0.754834D-04 -0.197356D-03 -0.973752D-02  0.140350D-01  0.126748D-01
     26  0.556827D-04  0.250561D-03  0.107711D-01 -0.161320D-01 -0.155767D-01
     27  0.432061D-04 -0.261979D-04 -0.278439D-02  0.606548D-02  0.111835D-01
     28  0.571211D-01 -0.411976D-01 -0.581620D-03  0.139457D-02 -0.792696D-03
     29 -0.228220D+00  0.116049D+00  0.178176D-03 -0.193805D-03  0.213123D-03
     30  0.121682D+00 -0.131899D+00  0.293592D-03 -0.523734D-03  0.455573D-03
     31 -0.694160D-02 -0.301992D-01 -0.915145D-03 -0.349574D-03 -0.419489D-03
     32 -0.628021D-01 -0.525576D-01  0.214645D-03  0.421233D-04  0.253046D-03
     33 -0.563292D-01 -0.305808D+00  0.508056D-03 -0.507702D-03 -0.271751D-03
     34 -0.121402D+00 -0.237777D-01 -0.533811D-03  0.714212D-03  0.512192D-03
     35 -0.221896D+00 -0.322897D-01 -0.519877D-03 -0.301236D-03 -0.514005D-03
     36 -0.326317D-01 -0.570937D-01  0.182870D-03 -0.159047D-03 -0.309729D-03
     37  0.614718D-04 -0.219120D-03 -0.819183D-01 -0.451021D-01  0.769952D-01
     38  0.150643D-03 -0.100749D-03 -0.493942D-01 -0.149781D+00  0.144655D+00
     39 -0.373283D-03 -0.293897D-05  0.808281D-01  0.142055D+00 -0.197131D+00
               16            17            18            19            20 
     16  0.628483D+00
     17 -0.303074D-01  0.533499D+00
     18 -0.238440D+00 -0.288229D+00  0.592033D+00
     19  0.283572D-03  0.528138D-03 -0.263531D-02  0.266795D+00
     20 -0.155340D-02 -0.227336D-02  0.252385D-02  0.848576D-01  0.813982D-01
     21  0.217597D-02 -0.805610D-04 -0.264262D-02  0.886900D-01  0.332316D-01
     22  0.537875D-04  0.154826D-02 -0.158178D-02 -0.115977D-01 -0.119760D-01
     23 -0.231678D-02 -0.140692D-02  0.241437D-02 -0.420787D-02 -0.589431D-02
     24  0.186978D-02  0.729880D-04 -0.147282D-02 -0.561315D-02 -0.708142D-02
     25 -0.798789D-04  0.178742D-02 -0.123652D-02  0.537212D-02 -0.189151D-01
     26 -0.348237D-02 -0.247098D-02  0.228595D-02  0.150049D-02 -0.766091D-02
     27  0.517093D-03  0.437167D-03 -0.208165D-02  0.243119D-02 -0.781731D-02
     28 -0.454541D-02 -0.295339D-02  0.558611D-02 -0.734628D-04  0.911776D-04
     29 -0.289400D-03  0.128091D-02 -0.680960D-03  0.317882D-04 -0.240493D-04
     30  0.320706D-02  0.932819D-03 -0.245371D-02  0.178140D-04 -0.164586D-04
     31  0.214477D-02 -0.431437D-02  0.419771D-02 -0.521540D-04  0.479962D-04
     32  0.381753D-03  0.305045D-02 -0.384302D-02  0.757747D-05 -0.119206D-04
     33 -0.214833D-02  0.390249D-02 -0.162584D-02  0.389241D-04 -0.294300D-04
     34  0.174744D-02 -0.756575D-02  0.447999D-02 -0.154453D-04  0.416653D-04
     35  0.164944D-02  0.989569D-03 -0.367287D-03 -0.282100D-05 -0.120441D-04
     36 -0.159739D-02  0.314334D-03  0.832371D-03  0.128214D-04 -0.766212D-05
     37  0.519745D-03 -0.190208D-01  0.193138D-01  0.612778D-03 -0.108728D-02
     38  0.213746D-02  0.567121D-02 -0.246406D-02  0.730972D-03  0.374441D-03
     39  0.418714D-03  0.103530D-01 -0.513738D-02  0.341037D-03 -0.185535D-03
               21            22            23            24            25 
     21  0.779780D-01
     22  0.205602D-01  0.117420D+00
     23  0.727165D-02  0.681755D-01  0.125659D+00
     24  0.104927D-01 -0.103509D+00 -0.111498D+00  0.209323D+00
     25 -0.217616D-01 -0.338135D-02  0.105513D-01  0.101445D-01  0.582194D-01
     26 -0.978057D-02 -0.242234D-02  0.120912D-01  0.119243D-01 -0.416156D-01
[...]
  Beta virt. eigenvalues --    1.33841   1.35406   1.36346   1.39537   1.42205
  Beta virt. eigenvalues --    1.42639   1.44874   1.45590   1.47225   1.48959
  Beta virt. eigenvalues --    1.49134   1.53652   1.56809   1.59075   1.61014
  Beta virt. eigenvalues --    1.66437   1.66603   1.73542   1.74938   1.78816
  Beta virt. eigenvalues --    1.84563   1.89601   1.93576   2.03924   2.17579
  Beta virt. eigenvalues --    2.18132   2.30318   2.37020   2.39249   2.41411
  Beta virt. eigenvalues --    2.46617   2.52070   2.55049   2.58204   2.61681
  Beta virt. eigenvalues --    2.68849   2.71203   2.75161   2.80519   2.81696
  Beta virt. eigenvalues --    2.83925   2.85347   2.87878   2.95081   2.96518
  Beta virt. eigenvalues --    2.97004   3.00459   3.00622   3.06323   3.08541
  Beta virt. eigenvalues --    3.10167   3.13521   3.14682   3.15100   3.18174
  Beta virt. eigenvalues --    3.19502   3.20232   3.20757   3.22654   3.27214
  Beta virt. eigenvalues --    3.28421   3.32429   3.33008   3.38538   3.41003
  Beta virt. eigenvalues --    3.41666   3.43199   3.46552   3.50492   3.51465
  Beta virt. eigenvalues --    3.52352   3.54449   3.54992   3.57838   3.58758
  Beta virt. eigenvalues --    3.61386   3.69503   3.69914   3.73909   3.76378
  Beta virt. eigenvalues --    3.79514   3.85589   3.87559   3.88945   3.90494
  Beta virt. eigenvalues --    3.91360   3.92829   3.99728   4.01671   4.09969
  Beta virt. eigenvalues --    4.10266   4.13130   4.16805   4.17838   4.19766
  Beta virt. eigenvalues --    4.22213   4.26808   4.29943   4.31478   4.32862
  Beta virt. eigenvalues --    4.35717   4.39166   4.39951   4.42080   4.43323
  Beta virt. eigenvalues --    4.49502   4.51913   4.54530   4.68723   4.88331
  Beta virt. eigenvalues --    4.93593   5.06773   5.09186   5.12580   5.14687
  Beta virt. eigenvalues --    5.21252   5.24169   5.27374   5.34301   5.39624
  Beta virt. eigenvalues --    5.46187   5.46731   5.54442   5.55683   5.56590
  Beta virt. eigenvalues --    5.58018   5.59984   5.65219   5.74000   5.75008
  Beta virt. eigenvalues --    5.82703   5.98350   6.11569   6.34793   6.47775
  Beta virt. eigenvalues --    6.71148   6.84458   6.97161   7.10872   7.11831
  Beta virt. eigenvalues --    7.17815   7.20078   7.25527   7.31469   7.55974
  Beta virt. eigenvalues --    7.67821   7.78989   7.82738  24.26956  24.44401
  Beta virt. eigenvalues --   24.49309  24.91347  50.17656  50.31823
          Condensed to atoms (all electrons):
               1          2          3          4          5          6
     1  O    8.225862  -0.084515   0.012414   0.137643  -0.203686   0.212894
     2  O   -0.084515   8.224406  -0.006496  -0.042261  -0.030838   0.364377
     3  C    0.012414  -0.006496   5.053307  -0.013264   0.273839  -0.081620
     4  C    0.137643  -0.042261  -0.013264   4.988085  -0.117046  -0.057407
     5  C   -0.203686  -0.030838   0.273839  -0.117046   6.017043  -0.134339
     6  C    0.212894   0.364377  -0.081620  -0.057407  -0.134339   5.417418
     7  H   -0.000321   0.000853   0.411706   0.000121  -0.032487  -0.009488
     8  H    0.000228   0.000434   0.429018  -0.000885  -0.063252   0.015002
     9  H   -0.000320   0.000852   0.411666   0.000125  -0.032558  -0.009380
    10  H   -0.059366   0.003527   0.000397   0.419787   0.006135   0.014127
    11  H   -0.036131  -0.004286  -0.000763   0.431504  -0.002954   0.003422
    12  H   -0.036123  -0.004269  -0.000760   0.431462  -0.002912   0.003420
    13  H    0.003165   0.003614  -0.017235   0.004287   0.347113   0.019148
               7          8          9         10         11         12
     1  O   -0.000321   0.000228  -0.000320  -0.059366  -0.036131  -0.036123
     2  O    0.000853   0.000434   0.000852   0.003527  -0.004286  -0.004269
     3  C    0.411706   0.429018   0.411666   0.000397  -0.000763  -0.000760
     4  C    0.000121  -0.000885   0.000125   0.419787   0.431504   0.431462
     5  C   -0.032487  -0.063252  -0.032558   0.006135  -0.002954  -0.002912
     6  C   -0.009488   0.015002  -0.009380   0.014127   0.003422   0.003420
     7  H    0.565033  -0.023843  -0.042241  -0.000001  -0.000006   0.000004
     8  H   -0.023843   0.496842  -0.023842   0.000004  -0.000006  -0.000006
     9  H   -0.042241  -0.023842   0.565053  -0.000001   0.000004  -0.000006
    10  H   -0.000001   0.000004  -0.000001   0.534417  -0.025073  -0.025072
    11  H   -0.000006  -0.000006   0.000004  -0.025073   0.534454  -0.038143
    12  H    0.000004  -0.000006  -0.000006  -0.025072  -0.038143   0.534428
    13  H   -0.002363   0.003142  -0.002367  -0.000049  -0.000007  -0.000007
              13
     1  O    0.003165
     2  O    0.003614
     3  C   -0.017235
     4  C    0.004287
     5  C    0.347113
     6  C    0.019148
     7  H   -0.002363
     8  H    0.003142
     9  H   -0.002367
    10  H   -0.000049
    11  H   -0.000007
    12  H   -0.000007
    13  H    0.448783
          Atomic-Atomic Spin Densities.
               1          2          3          4          5          6
     1  O    0.035587   0.009130   0.002965  -0.002441  -0.030150   0.011333
     2  O    0.009130   0.197050   0.005953  -0.002052  -0.030363  -0.020604
     3  C    0.002965   0.005953  -0.013534   0.000861  -0.066501  -0.006419
     4  C   -0.002441  -0.002052   0.000861  -0.002646  -0.005844   0.007223
     5  C   -0.030150  -0.030363  -0.066501  -0.005844   1.036981   0.039465
     6  C    0.011333  -0.020604  -0.006419   0.007223   0.039465  -0.101645
     7  H    0.000089   0.000548   0.023261  -0.000070  -0.031150   0.000418
     8  H   -0.000053   0.000136  -0.004390   0.000060   0.002063   0.000806
     9  H    0.000090   0.000547   0.023228  -0.000068  -0.031175   0.000466
    10  H    0.000235  -0.000048  -0.000048   0.000131  -0.000019  -0.000357
    11  H   -0.000595  -0.000809  -0.000012   0.000504   0.000393   0.000171
    12  H   -0.000580  -0.000813  -0.000011   0.000477   0.000408   0.000174
    13  H   -0.000290   0.000209   0.002517   0.000341  -0.012884   0.011278
               7          8          9         10         11         12
     1  O    0.000089  -0.000053   0.000090   0.000235  -0.000595  -0.000580
     2  O    0.000548   0.000136   0.000547  -0.000048  -0.000809  -0.000813
     3  C    0.023261  -0.004390   0.023228  -0.000048  -0.000012  -0.000011
     4  C   -0.000070   0.000060  -0.000068   0.000131   0.000504   0.000477
     5  C   -0.031150   0.002063  -0.031175  -0.000019   0.000393   0.000408
     6  C    0.000418   0.000806   0.000466  -0.000357   0.000171   0.000174
     7  H    0.057073  -0.000047  -0.015824   0.000000  -0.000006   0.000003
     8  H   -0.000047   0.004524  -0.000041  -0.000000   0.000000   0.000000
     9  H   -0.015824  -0.000041   0.057062   0.000000   0.000003  -0.000006
    10  H    0.000000  -0.000000   0.000000   0.000072   0.000038   0.000036
    11  H   -0.000006   0.000000   0.000003   0.000038   0.002843  -0.000635
    12  H    0.000003   0.000000  -0.000006   0.000036  -0.000635   0.002850
    13  H    0.000249  -0.000203   0.000248  -0.000005   0.000007   0.000007
              13
     1  O   -0.000290
     2  O    0.000209
     3  C    0.002517
     4  C    0.000341
     5  C   -0.012884
     6  C    0.011278
     7  H    0.000249
     8  H   -0.000203
     9  H    0.000248
    10  H   -0.000005
    11  H    0.000007
    12  H    0.000007
    13  H   -0.039341
 Mulliken charges and spin densities:
               1          2
     1  O   -0.171743   0.025321
     2  O   -0.425398   0.158885
     3  C   -0.472207  -0.032129
     4  C   -0.182150  -0.003523
     5  C   -0.024059   0.871224
     6  C    0.242427  -0.057692
     7  H    0.133034   0.034544
     8  H    0.167165   0.002856
     9  H    0.133017   0.034531
    10  H    0.131169   0.000036
    11  H    0.137986   0.001904
    12  H    0.137985   0.001911
    13  H    0.192775  -0.037868
 Sum of Mulliken charges =  -0.00000   1.00000
 Mulliken charges and spin densities with hydrogens summed into heavy atoms:
               1          2
     1  O   -0.171743   0.025321
     2  O   -0.425398   0.158885
     3  C   -0.038991   0.039803
     4  C    0.224989   0.000327
     5  C    0.168717   0.833356
     6  C    0.242427  -0.057692
 Electronic spatial extent (au):  <R**2>=            675.7389
 Charge=             -0.0000 electrons
 Dipole moment (field-independent basis, Debye):
    X=             -0.3518    Y=             -1.7427    Z=             -0.0012  Tot=              1.7779
 Quadrupole moment (field-independent basis, Debye-Ang):
   XX=            -28.0439   YY=            -40.3361   ZZ=            -36.2279
   XY=              1.3617   XZ=             -0.0017   YZ=              0.0002
 Traceless Quadrupole moment (field-independent basis, Debye-Ang):
   XX=              6.8254   YY=             -5.4668   ZZ=             -1.3586
   XY=              1.3617   XZ=             -0.0017   YZ=              0.0002
 Octapole moment (field-independent basis, Debye-Ang**2):
  XXX=             11.5414  YYY=             -5.0244  ZZZ=              0.0001  XYY=             -0.5168
  XXY=             -0.4497  XXZ=             -0.0024  XZZ=              1.9047  YZZ=              1.3517
  YYZ=              0.0002  XYZ=              0.0005
 Hexadecapole moment (field-independent basis, Debye-Ang**3):
 XXXX=           -642.7293 YYYY=           -152.5572 ZZZZ=            -49.3329 XXXY=             -5.1047
 XXXZ=             -0.0038 YYYX=             -2.0064 YYYZ=             -0.0004 ZZZX=             -0.0030
 ZZZY=             -0.0007 XXYY=           -138.0443 XXZZ=           -119.9700 YYZZ=            -34.3003
 XXYZ=              0.0007 YYXZ=              0.0028 ZZXY=              1.9514
 N-N= 2.357917347711D+02 E-N=-1.190080269515D+03  KE= 3.059455629831D+02
                          Isotropic Fermi Contact Couplings
        Atom                 a.u.       MegaHertz       Gauss      10(-4) cm-1
     1  O(17)              0.00137      -0.83346      -0.29740      -0.27801
     2  O(17)              0.03581     -21.70559      -7.74509      -7.24020
     3  C(13)             -0.02844     -31.96801     -11.40698     -10.66338
     4  C(13)             -0.00164      -1.83858      -0.65605      -0.61328
     5  C(13)              0.14019     157.60567      56.23762      52.57159
     6  C(13)             -0.04400     -49.46895     -17.65175     -16.50106
     7  H(1)               0.02091      93.46336      33.35005      31.17602
     8  H(1)               0.00020       0.89506       0.31938       0.29856
     9  H(1)               0.02090      93.42094      33.33492      31.16187
    10  H(1)              -0.00002      -0.09000      -0.03212      -0.03002
    11  H(1)               0.00130       5.81232       2.07398       1.93878
    12  H(1)               0.00130       5.82481       2.07844       1.94295
    13  H(1)              -0.01430     -63.93123     -22.81225     -21.32516
 --------------------------------------------------------
       Center         ----  Spin Dipole Couplings  ----
                      3XX-RR        3YY-RR        3ZZ-RR
 --------------------------------------------------------
     1   Atom       -0.068389     -0.086071      0.154460
     2   Atom       -0.329265     -0.332655      0.661920
     3   Atom       -0.003117     -0.014808      0.017925
     4   Atom        0.003950     -0.003248     -0.000701
     5   Atom       -0.482973     -0.476250      0.959223
     6   Atom        0.017911      0.019881     -0.037792
     7   Atom        0.012463     -0.007222     -0.005241
     8   Atom        0.001728      0.005738     -0.007466
     9   Atom        0.012462     -0.007222     -0.005240
    10   Atom        0.003802     -0.001837     -0.001964
    11   Atom        0.004128     -0.001795     -0.002333
    12   Atom        0.004126     -0.001797     -0.002329
    13   Atom       -0.062190      0.068722     -0.006533
 --------------------------------------------------------
                        XY            XZ            YZ
 --------------------------------------------------------
     1   Atom        0.003155      0.000054      0.000087
     2   Atom       -0.005023     -0.000163      0.000029
     3   Atom       -0.005046     -0.000006      0.000001
     4   Atom        0.000042     -0.000007     -0.000001
     5   Atom        0.003556     -0.000230      0.000027
     6   Atom        0.015856      0.000015      0.000004
     7   Atom       -0.003034     -0.009192      0.000029
     8   Atom       -0.010619      0.000002     -0.000002
     9   Atom       -0.003030      0.009195     -0.000029
    10   Atom       -0.000740     -0.000000     -0.000000
    11   Atom        0.001087      0.002086      0.000546
    12   Atom        0.001085     -0.002088     -0.000547
    13   Atom       -0.003611     -0.000008     -0.000005
 --------------------------------------------------------


 ---------------------------------------------------------------------------------
              Anisotropic Spin Dipole Couplings in Principal Axis System
 ---------------------------------------------------------------------------------

       Atom             a.u.   MegaHertz   Gauss  10(-4) cm-1        Axes

              Baa    -0.0866     6.268     2.236     2.091 -0.1706  0.9853 -0.0003
     1 O(17)  Bbb    -0.0678     4.909     1.752     1.637  0.9853  0.1706 -0.0003
              Bcc     0.1545   -11.177    -3.988    -3.728  0.0002  0.0004  1.0000
 
              Baa    -0.3363    24.332     8.682     8.116  0.5832  0.8123  0.0001
     2 O(17)  Bbb    -0.3257    23.564     8.408     7.860  0.8123 -0.5832  0.0002
              Bcc     0.6619   -47.896   -17.091   -15.976 -0.0002  0.0000  1.0000
 
              Baa    -0.0167    -2.239    -0.799    -0.747  0.3486  0.9373  0.0000
     3 C(13)  Bbb    -0.0012    -0.166    -0.059    -0.056  0.9373 -0.3486  0.0003
              Bcc     0.0179     2.405     0.858     0.802 -0.0003  0.0001  1.0000
 
              Baa    -0.0032    -0.436    -0.156    -0.145 -0.0059  1.0000  0.0003
     4 C(13)  Bbb    -0.0007    -0.094    -0.034    -0.031  0.0015 -0.0003  1.0000
              Bcc     0.0040     0.530     0.189     0.177  1.0000  0.0059 -0.0015
 
              Baa    -0.4845   -65.016   -23.199   -21.687  0.9184 -0.3956  0.0002
     5 C(13)  Bbb    -0.4747   -63.703   -22.731   -21.249  0.3956  0.9184  0.0000
              Bcc     0.9592   128.719    45.930    42.936 -0.0002  0.0000  1.0000
 
              Baa    -0.0378    -5.071    -1.810    -1.692 -0.0003  0.0000  1.0000
     6 C(13)  Bbb     0.0030     0.404     0.144     0.135  0.7287 -0.6848  0.0002
              Bcc     0.0348     4.667     1.665     1.557  0.6848  0.7287  0.0002
 
              Baa    -0.0098    -5.204    -1.857    -1.736  0.3923  0.4608  0.7961
     7 H(1)   Bbb    -0.0069    -3.707    -1.323    -1.236 -0.0841  0.8798 -0.4679
              Bcc     0.0167     8.911     3.180     2.972  0.9160 -0.1166 -0.3839
 
              Baa    -0.0075    -3.983    -1.421    -1.329 -0.0012 -0.0008  1.0000
     8 H(1)   Bbb    -0.0071    -3.774    -1.347    -1.259  0.7699  0.6382  0.0015
              Bcc     0.0145     7.758     2.768     2.588 -0.6382  0.7699 -0.0001
 
              Baa    -0.0098    -5.204    -1.857    -1.736 -0.3924 -0.4603  0.7963
     9 H(1)   Bbb    -0.0069    -3.707    -1.323    -1.237 -0.0840  0.8801  0.4673
              Bcc     0.0167     8.911     3.180     2.972  0.9160 -0.1165  0.3840
 
              Baa    -0.0020    -1.048    -0.374    -0.350  0.0003  0.0018  1.0000
    10 H(1)   Bbb    -0.0019    -1.031    -0.368    -0.344  0.1280  0.9918 -0.0019
              Bcc     0.0039     2.079     0.742     0.694  0.9918 -0.1280 -0.0001
 
              Baa    -0.0030    -1.597    -0.570    -0.533 -0.2453 -0.2090  0.9466
    11 H(1)   Bbb    -0.0020    -1.047    -0.373    -0.349 -0.2246  0.9622  0.1543
              Bcc     0.0050     2.644     0.943     0.882  0.9431  0.1748  0.2830
 
              Baa    -0.0030    -1.597    -0.570    -0.533  0.2456  0.2099  0.9464
    12 H(1)   Bbb    -0.0020    -1.047    -0.374    -0.349 -0.2246  0.9620 -0.1551
              Bcc     0.0050     2.643     0.943     0.882  0.9430  0.1745 -0.2834
 
              Baa    -0.0623   -33.235   -11.859   -11.086  0.9996  0.0276  0.0001
    13 H(1)   Bbb    -0.0065    -3.485    -1.244    -1.163 -0.0001  0.0001  1.0000
              Bcc     0.0688    36.720    13.103    12.248 -0.0276  0.9996 -0.0001
 

 ---------------------------------------------------------------------------------

 No NMR shielding tensors so no spin-rotation constants.
 Leave Link  601 at Mon Mar 11 01:46:05 2019, MaxMem=   671088640 cpu:               7.9 elap:               0.5
 (Enter /shared/centos7/gaussian/g16/l9999.exe)
 1\1\GINC-C0165\Scan\UM062X\6-311+G(2df,2p)\C4H7O2(2)\UNDERKOFFLER.C\11
 -Mar-2019\0\\#p m062x/6-311+g(2df,2p) Opt=(CalcFC,ModRedun)\\Gaussian 
 Input Prepared from Scan Object\\0,2\O,-1.0658226883,0.1740866023,0.24
 26477477\O,-1.2088905003,-1.4559620429,-1.3012960129\C,1.5643449248,-2
 .2143680879,-0.8005077663\C,-2.4204693993,0.5003594758,-0.0435205554\C
 ,0.8164054427,-1.128223454,-0.1338177381\C,-0.5625659611,-0.8518747462
 ,-0.4744817778\H,1.9217226165,-2.9462692796,-0.0713321163\H,0.93468812
 75,-2.7183041169,-1.5293553888\H,2.4518297114,-1.823766014,-1.30537284
 08\H,-2.6714727937,1.3324697934,0.6058589724\H,-3.0680406772,-0.351199
 9603,0.1583273493\H,-2.531335035,0.7839048557,-1.0887022685\H,1.278936
 141,-0.5132576843,0.6240629713\\Version=EM64L-G16RevA.03\State=2-A\HF=
 -307.020178,-307.0200134,-307.0195839,-307.0190412,-307.0185475,-307.0
 182167,-307.0180993,-307.0182087,-307.0185324,-307.0190219,-307.019565
 4,-307.0200018,-307.0201778,-307.0200257,-307.0196091,-307.019074,-307
 .0185776,-307.0182344,-307.0181002,-307.018193,-307.0185048,-307.01899
 39,-307.0195483,-307.0199986,-307.0201779,-307.0200106,-307.0195674,-3
 07.0190135,-307.0185197,-307.0182003,-307.0180996,-307.0182258,-307.01
 85622,-307.0190547,-307.019591,-307.0200146,-307.020178\S2=0.758368,0.
 758345,0.758287,0.758209,0.758134,0.758082,0.758064,0.758081,0.758132,
 0.758206,0.758284,0.758344,0.758368,0.758353,0.758297,0.758221,0.75814
 2,0.758086,0.758064,0.75808,0.758132,0.75821,0.75829,0.758348,0.758368
 ,0.75835,0.758291,0.758213,0.758135,0.758083,0.758064,0.758084,0.75814
 ,0.758216,0.758295,0.75835,0.758368\S2-1=0.,0.,0.,0.,0.,0.,0.,0.,0.,0.
 ,0.,0.,0.,0.,0.,0.,0.,0.,0.,0.,0.,0.,0.,0.,0.,0.,0.,0.,0.,0.,0.,0.,0.,
 0.,0.,0.,0.\S2A=0.75005,0.75005,0.75005,0.750049,0.750048,0.750048,0.7
 50048,0.750048,0.750048,0.750049,0.75005,0.75005,0.75005,0.75005,0.750
 05,0.750049,0.750048,0.750048,0.750048,0.750048,0.750048,0.750049,0.75
 005,0.75005,0.75005,0.75005,0.75005,0.750049,0.750048,0.750048,0.75004
 8,0.750048,0.750048,0.750049,0.75005,0.75005,0.75005\RMSD=2.922e-09,4.
 661e-09,8.637e-09,5.147e-09,7.024e-09,5.611e-09,6.183e-09,4.684e-09,8.
 100e-09,8.378e-09,6.676e-09,9.958e-09,9.279e-09,7.783e-09,4.264e-09,4.
 772e-09,5.498e-09,4.793e-09,8.290e-09,9.828e-09,5.226e-09,4.154e-09,5.
 034e-09,6.509e-09,6.654e-09,7.764e-09,5.107e-09,6.327e-09,5.152e-09,4.
 010e-09,7.944e-09,4.124e-09,5.615e-09,7.474e-09,8.740e-09,6.635e-09,4.
 808e-09\PG=C01 [X(C4H7O2)]\\@


 The juvenile sea squirt wanders through the sea searching
 for a suitable rock or hunk of coral to cling to and make
 its home for life.  For this task it has a rudimentary
 nervous system.  When it finds its spot and takes root, it
 doesn't need its brain any more so it eats it.
 It's rather like getting tenure.

                               -- source unknown
 Job cpu time:       1 days  9 hours 17 minutes 55.9 seconds.
 Elapsed time:       0 days  1 hours 40 minutes 37.3 seconds.
 File lengths (MBytes):  RWF=   1392 Int=      0 D2E=      0 Chk=     32 Scr=     32
 Normal termination of Gaussian 16 at Mon Mar 11 01:46:05 2019.
