 Entering Gaussian System, Link 0=g16
 Input=DUEVIJNWLJUFDM-UHFFFAOYSA-N_GeoFreq_a1.com
 Output=DUEVIJNWLJUFDM-UHFFFAOYSA-N_GeoFreq_a1.log
 Initial command:
 /shared/centos7/gaussian/g16/l1.exe "/scratch/underkoffler.c/gaussian_scratch/Gau-48492.inp" -scrdir="/scratch/underkoffler.c/gaussian_scratch/"
 Entering Link 1 = /shared/centos7/gaussian/g16/l1.exe PID=     48493.
  
 Copyright (c) 1988,1990,1992,1993,1995,1998,2003,2009,2016,
            Gaussian, Inc.  All Rights Reserved.
  
 This is part of the Gaussian(R) 16 program.  It is based on
 the Gaussian(R) 09 system (copyright 2009, Gaussian, Inc.),
 the Gaussian(R) 03 system (copyright 2003, Gaussian, Inc.),
 the Gaussian(R) 98 system (copyright 1998, Gaussian, Inc.),
 the Gaussian(R) 94 system (copyright 1995, Gaussian, Inc.),
 the Gaussian 92(TM) system (copyright 1992, Gaussian, Inc.),
 the Gaussian 90(TM) system (copyright 1990, Gaussian, Inc.),
 the Gaussian 88(TM) system (copyright 1988, Gaussian, Inc.),
 the Gaussian 86(TM) system (copyright 1986, Carnegie Mellon
 University), and the Gaussian 82(TM) system (copyright 1983,
 Carnegie Mellon University). Gaussian is a federally registered
 trademark of Gaussian, Inc.
  
 This software contains proprietary and confidential information,
 including trade secrets, belonging to Gaussian, Inc.
  
 This software is provided under written license and may be
 used, copied, transmitted, or stored only in accord with that
 written license.
  
 The following legend is applicable only to US Government
 contracts under FAR:
  
                    RESTRICTED RIGHTS LEGEND
  
 Use, reproduction and disclosure by the US Government is
 subject to restrictions as set forth in subparagraphs (a)
 and (c) of the Commercial Computer Software - Restricted
 Rights clause in FAR 52.227-19.
  
 Gaussian, Inc.
 340 Quinnipiac St., Bldg. 40, Wallingford CT 06492
  
  
 ---------------------------------------------------------------
 Warning -- This program may not be used in any manner that
 competes with the business of Gaussian, Inc. or will provide
 assistance to any competitor of Gaussian, Inc.  The licensee
 of this program is prohibited from giving any competitor of
 Gaussian, Inc. access to this program.  By using this program,
 the user acknowledges that Gaussian, Inc. is engaged in the
 business of creating and licensing software in the field of
 computational chemistry and represents and warrants to the
 licensee that it is not a competitor of Gaussian, Inc. and that
 it will not use this program in any manner prohibited above.
 ---------------------------------------------------------------
  

 Cite this work as:
 Gaussian 16, Revision A.03,
 M. J. Frisch, G. W. Trucks, H. B. Schlegel, G. E. Scuseria, 
 M. A. Robb, J. R. Cheeseman, G. Scalmani, V. Barone, 
 G. A. Petersson, H. Nakatsuji, X. Li, M. Caricato, A. V. Marenich, 
 J. Bloino, B. G. Janesko, R. Gomperts, B. Mennucci, H. P. Hratchian, 
 J. V. Ortiz, A. F. Izmaylov, J. L. Sonnenberg, D. Williams-Young, 
 F. Ding, F. Lipparini, F. Egidi, J. Goings, B. Peng, A. Petrone, 
 T. Henderson, D. Ranasinghe, V. G. Zakrzewski, J. Gao, N. Rega, 
 G. Zheng, W. Liang, M. Hada, M. Ehara, K. Toyota, R. Fukuda, 
 J. Hasegawa, M. Ishida, T. Nakajima, Y. Honda, O. Kitao, H. Nakai, 
 T. Vreven, K. Throssell, J. A. Montgomery, Jr., J. E. Peralta, 
 F. Ogliaro, M. J. Bearpark, J. J. Heyd, E. N. Brothers, K. N. Kudin, 
 V. N. Staroverov, T. A. Keith, R. Kobayashi, J. Normand, 
 K. Raghavachari, A. P. Rendell, J. C. Burant, S. S. Iyengar, 
 J. Tomasi, M. Cossi, J. M. Millam, M. Klene, C. Adamo, R. Cammi, 
 J. W. Ochterski, R. L. Martin, K. Morokuma, O. Farkas, 
 J. B. Foresman, and D. J. Fox, Gaussian, Inc., Wallingford CT, 2016.
 
 ******************************************
 Gaussian 16:  EM64L-G16RevA.03 25-Dec-2016
                10-Mar-2019 
 ******************************************
 %nprocshared=20
 Will use up to   20 processors via shared memory.
 %mem=5GB
 ----------------------------------------------------------------------
 #p m062x/6-311+g(2df,2p) opt=(calcfc,verytight,gdiis,maxcycles=900) fr
 eq iop(7/33=1,2/16=3)
 ----------------------------------------------------------------------

 Warning!  Use of Opt=GDIIS is deprecated since it is seldom a good choice.

 1/6=900,7=1,10=4,18=20,19=11,26=3,38=1/1,3;
 2/9=110,12=2,16=3,17=6,18=5,40=1/2;
 3/5=4,6=6,7=214,11=2,25=1,30=1,71=2,74=-55,140=1/1,2,3;
 4//1;
 5/5=2,38=5/2;
 8/6=4,10=90,11=11/1;
 11/6=1,8=1,9=11,15=111,16=1/1,2,10;
 10/6=1,13=1/2;
 6/7=2,8=2,9=2,10=2,28=1/1;
 7/10=1,18=20,25=1,33=1/1,2,3,16;
 1/6=900,7=1,10=4,18=20,19=11,26=3/3(2);
 2/9=110,16=3/2;
 99//99;
 2/9=110,16=3/2;
 3/5=4,6=6,7=214,11=2,25=1,30=1,71=1,74=-55/1,2,3;
 4/5=5,16=3,69=1/1;
 5/5=2,38=5/2;
 7/33=1/1,2,3,16;
 1/6=900,7=1,18=20,19=11,26=3/3(-5);
 2/9=110,16=3/2;
 6/7=2,8=2,9=2,10=2,19=2,28=1/1;
 99/9=1/99;
 Leave Link    1 at Sun Mar 10 20:34:43 2019, MaxMem=   671088640 cpu:              19.3 elap:               1.0
 (Enter /shared/centos7/gaussian/g16/l101.exe)
 ------------------------------
 Gaussian input prepared by ASE
 ------------------------------
 Symbolic Z-matrix:
 Charge =  0 Multiplicity = 2
 O                    -1.20832   0.21508  -1.02198 
 O                    -0.99063  -1.28465   0.76067 
 C                     1.59735  -2.25342  -0.37512 
 C                    -2.4465    0.54944  -0.32103 
 C                     0.7123   -1.21629  -0.91492 
 C                    -0.50588  -0.82079  -0.30342 
 H                     2.1316   -1.89056   0.5511 
 H                     1.02087  -3.16419  -0.05713 
 H                     2.37469  -2.55982  -1.11985 
 H                    -2.9586    1.33956  -0.92469 
 H                    -2.21066   0.9416    0.70444 
 H                    -3.10107  -0.35957  -0.2414 
 H                     1.02419  -0.70877  -1.85414 
 
 ITRead=  0  0  0  0  0  0  0  0  0  0  0  0  0
 MicOpt= -1 -1 -1 -1 -1 -1 -1 -1 -1 -1 -1 -1 -1
 NAtoms=     13 NQM=       13 NQMF=       0 NMMI=      0 NMMIF=      0
                NMic=       0 NMicF=      0.
                    Isotopes and Nuclear Properties:
 (Nuclear quadrupole moments (NQMom) in fm**2, nuclear magnetic moments (NMagM)
  in nuclear magnetons)

  Atom         1           2           3           4           5           6           7           8           9          10
 IAtWgt=          16          16          12          12          12          12           1           1           1           1
 AtmWgt=  15.9949146  15.9949146  12.0000000  12.0000000  12.0000000  12.0000000   1.0078250   1.0078250   1.0078250   1.0078250
 NucSpn=           0           0           0           0           0           0           1           1           1           1
 AtZEff=  -0.0000000  -0.0000000  -0.0000000  -0.0000000  -0.0000000  -0.0000000  -0.0000000  -0.0000000  -0.0000000  -0.0000000
 NQMom=    0.0000000   0.0000000   0.0000000   0.0000000   0.0000000   0.0000000   0.0000000   0.0000000   0.0000000   0.0000000
 NMagM=    0.0000000   0.0000000   0.0000000   0.0000000   0.0000000   0.0000000   2.7928460   2.7928460   2.7928460   2.7928460
 AtZNuc=   8.0000000   8.0000000   6.0000000   6.0000000   6.0000000   6.0000000   1.0000000   1.0000000   1.0000000   1.0000000

  Atom        11          12          13
 IAtWgt=           1           1           1
 AtmWgt=   1.0078250   1.0078250   1.0078250
 NucSpn=           1           1           1
 AtZEff=  -0.0000000  -0.0000000  -0.0000000
 NQMom=    0.0000000   0.0000000   0.0000000
 NMagM=    2.7928460   2.7928460   2.7928460
 AtZNuc=   1.0000000   1.0000000   1.0000000
 Leave Link  101 at Sun Mar 10 20:34:43 2019, MaxMem=   671088640 cpu:               5.2 elap:               0.3
 (Enter /shared/centos7/gaussian/g16/l103.exe)

 GradGradGradGradGradGradGradGradGradGradGradGradGradGradGradGradGradGrad
 Berny optimization.
 Initialization pass.
                           ----------------------------
                           !    Initial Parameters    !
                           ! (Angstroms and Degrees)  !
 --------------------------                            --------------------------
 ! Name  Definition              Value          Derivative Info.                !
 --------------------------------------------------------------------------------
 ! R1    R(1,4)                  1.4616         calculate D2E/DX2 analytically  !
 ! R2    R(1,6)                  1.4432         calculate D2E/DX2 analytically  !
 ! R3    R(2,6)                  1.2579         calculate D2E/DX2 analytically  !
 ! R4    R(3,5)                  1.4664         calculate D2E/DX2 analytically  !
 ! R5    R(3,7)                  1.1292         calculate D2E/DX2 analytically  !
 ! R6    R(3,8)                  1.1238         calculate D2E/DX2 analytically  !
 ! R7    R(3,9)                  1.1193         calculate D2E/DX2 analytically  !
 ! R8    R(4,10)                 1.1185         calculate D2E/DX2 analytically  !
 ! R9    R(4,11)                 1.1229         calculate D2E/DX2 analytically  !
 ! R10   R(4,12)                 1.123          calculate D2E/DX2 analytically  !
 ! R11   R(5,6)                  1.4193         calculate D2E/DX2 analytically  !
 ! R12   R(5,13)                 1.1122         calculate D2E/DX2 analytically  !
 ! A1    A(4,1,6)              109.7394         calculate D2E/DX2 analytically  !
 ! A2    A(5,3,7)              111.1148         calculate D2E/DX2 analytically  !
 ! A3    A(5,3,8)              111.5766         calculate D2E/DX2 analytically  !
 ! A4    A(5,3,9)              111.583          calculate D2E/DX2 analytically  !
 ! A5    A(7,3,8)              105.7261         calculate D2E/DX2 analytically  !
 ! A6    A(7,3,9)              107.768          calculate D2E/DX2 analytically  !
 ! A7    A(8,3,9)              108.8253         calculate D2E/DX2 analytically  !
 ! A8    A(1,4,10)             106.896          calculate D2E/DX2 analytically  !
 ! A9    A(1,4,11)             109.8728         calculate D2E/DX2 analytically  !
 ! A10   A(1,4,12)             110.0368         calculate D2E/DX2 analytically  !
 ! A11   A(10,4,11)            110.019          calculate D2E/DX2 analytically  !
 ! A12   A(10,4,12)            110.0732         calculate D2E/DX2 analytically  !
 ! A13   A(11,4,12)            109.8981         calculate D2E/DX2 analytically  !
 ! A14   A(3,5,6)              123.8156         calculate D2E/DX2 analytically  !
 ! A15   A(3,5,13)             117.6677         calculate D2E/DX2 analytically  !
 ! A16   A(6,5,13)             118.5148         calculate D2E/DX2 analytically  !
 ! A17   A(1,6,2)              119.8866         calculate D2E/DX2 analytically  !
 ! A18   A(1,6,5)              113.7819         calculate D2E/DX2 analytically  !
 ! A19   A(2,6,5)              126.3314         calculate D2E/DX2 analytically  !
 ! D1    D(6,1,4,10)          -179.0472         calculate D2E/DX2 analytically  !
 ! D2    D(6,1,4,11)            61.5976         calculate D2E/DX2 analytically  !
 ! D3    D(6,1,4,12)           -59.5362         calculate D2E/DX2 analytically  !
 ! D4    D(4,1,6,2)             -0.1415         calculate D2E/DX2 analytically  !
 ! D5    D(4,1,6,5)            179.7757         calculate D2E/DX2 analytically  !
 ! D6    D(7,3,5,6)            -72.1676         calculate D2E/DX2 analytically  !
 ! D7    D(7,3,5,13)           107.3302         calculate D2E/DX2 analytically  !
 ! D8    D(8,3,5,6)             45.5523         calculate D2E/DX2 analytically  !
 ! D9    D(8,3,5,13)          -134.9498         calculate D2E/DX2 analytically  !
 ! D10   D(9,3,5,6)            167.5307         calculate D2E/DX2 analytically  !
 ! D11   D(9,3,5,13)           -12.9714         calculate D2E/DX2 analytically  !
 ! D12   D(3,5,6,1)           -179.7491         calculate D2E/DX2 analytically  !
 ! D13   D(3,5,6,2)              0.1617         calculate D2E/DX2 analytically  !
 ! D14   D(13,5,6,1)             0.757          calculate D2E/DX2 analytically  !
 ! D15   D(13,5,6,2)          -179.3322         calculate D2E/DX2 analytically  !
 --------------------------------------------------------------------------------
 Trust Radius=3.00D-01 FncErr=1.00D-07 GrdErr=1.00D-06 EigMax=2.50D+02 EigMin=1.00D-04
 Number of steps in this run=    100 maximum allowed number of steps=    100.
 GradGradGradGradGradGradGradGradGradGradGradGradGradGradGradGradGradGrad

 Leave Link  103 at Sun Mar 10 20:34:43 2019, MaxMem=   671088640 cpu:               0.2 elap:               0.0
 (Enter /shared/centos7/gaussian/g16/l202.exe)
                          Input orientation:                          
 ---------------------------------------------------------------------
 Center     Atomic      Atomic             Coordinates (Angstroms)
 Number     Number       Type             X           Y           Z
 ---------------------------------------------------------------------
      1          8           0       -1.208322    0.215077   -1.021985
      2          8           0       -0.990629   -1.284652    0.760672
      3          6           0        1.597350   -2.253424   -0.375125
      4          6           0       -2.446502    0.549435   -0.321027
      5          6           0        0.712301   -1.216289   -0.914923
      6          6           0       -0.505884   -0.820793   -0.303420
      7          1           0        2.131602   -1.890565    0.551099
      8          1           0        1.020873   -3.164189   -0.057134
      9          1           0        2.374686   -2.559816   -1.119853
     10          1           0       -2.958601    1.339555   -0.924693
     11          1           0       -2.210664    0.941599    0.704437
     12          1           0       -3.101075   -0.359572   -0.241396
     13          1           0        1.024195   -0.708770   -1.854141
 ---------------------------------------------------------------------
                    Distance matrix (angstroms):
                    1          2          3          4          5
     1  O    0.000000
     2  O    2.339753   0.000000
     3  C    3.792588   2.987672   0.000000
     4  C    1.461584   2.579441   4.920538   0.000000
     5  C    2.397721   2.390034   1.466405   3.667224   0.000000
     6  C    1.443185   1.257948   2.545814   2.375676   1.419270
     7  H    4.250108   3.187377   1.129151   5.260536   2.149020
     8  H    4.161693   2.871864   1.123804   5.087567   2.150659
     9  H    4.532942   4.060512   1.119262   5.792187   2.147228
    10  H    2.082641   3.687796   5.828226   1.118458   4.473025
    11  H    2.124396   2.539261   5.086709   1.122938   3.977755
    12  H    2.126512   2.512746   5.067520   1.122988   3.966035
    13  H    2.555408   3.350880   2.214035   3.997406   1.112197
                    6          7          8          9         10
     6  C    0.000000
     7  H    2.971691   0.000000
     8  H    2.807694   1.796047   0.000000
     9  H    3.462434   1.816334   1.824129   0.000000
    10  H    3.326997   6.206594   6.072280   6.609625   0.000000
    11  H    2.651053   5.186515   5.280182   6.050900   1.836259
    12  H    2.636586   5.509346   4.989016   5.966298   1.836907
    13  H    2.181382   2.899684   3.042749   2.406112   4.574076
                   11         12         13
    11  H    0.000000
    12  H    1.838608   0.000000
    13  H    4.442337   4.443054   0.000000
 Stoichiometry    C4H7O2(2)
 Framework group  C1[X(C4H7O2)]
 Deg. of freedom    33
 Full point group                 C1      NOp   1
 Largest Abelian subgroup         C1      NOp   1
 Largest concise Abelian subgroup C1      NOp   1
                         Standard orientation:                         
 ---------------------------------------------------------------------
 Center     Atomic      Atomic             Coordinates (Angstroms)
 Number     Number       Type             X           Y           Z
 ---------------------------------------------------------------------
      1          8           0        1.151196   -0.811238    0.001086
      2          8           0        0.151264    1.304081    0.001892
      3          6           0       -2.548273    0.023991   -0.005413
      4          6           0        2.372161   -0.007833   -0.002375
      5          6           0       -1.240332   -0.639039   -0.000192
      6          6           0       -0.002665    0.055586    0.001588
      7          1           0       -2.768018    0.498016    0.995584
      8          1           0       -2.583925    0.861796   -0.753575
      9          1           0       -3.374369   -0.696811   -0.230710
     10          1           0        3.231858   -0.723055   -0.020428
     11          1           0        2.416511    0.623207    0.925424
     12          1           0        2.398001    0.648946   -0.912911
     13          1           0       -1.225086   -1.751074    0.011142
 ---------------------------------------------------------------------
 Rotational constants (GHZ):           9.7365073           2.1196751           1.7815708
 Leave Link  202 at Sun Mar 10 20:34:43 2019, MaxMem=   671088640 cpu:               0.2 elap:               0.0
 (Enter /shared/centos7/gaussian/g16/l301.exe)
 Standard basis: 6-311+G(2df,2p) (5D, 7F)
 Ernie: Thresh=  0.10000D-02 Tol=  0.10000D-05 Strict=F.
 There are   297 symmetry adapted cartesian basis functions of A   symmetry.
 There are   267 symmetry adapted basis functions of A   symmetry.
   267 basis functions,   389 primitive gaussians,   297 cartesian basis functions
    24 alpha electrons       23 beta electrons
       nuclear repulsion energy       230.9184973150 Hartrees.
 IExCor= 4336 DFT=T Ex+Corr=M062X ExCW=0 ScaHFX=  0.540000
 ScaDFX=  1.000000  1.000000  1.000000  1.000000 ScalE2=  1.000000  1.000000
 IRadAn=      5 IRanWt=     -1 IRanGd=            0 ICorTp=0 IEmpDi=  4
 NAtoms=   13 NActive=   13 NUniq=   13 SFac= 1.00D+00 NAtFMM=   60 NAOKFM=F Big=F
 Integral buffers will be    131072 words long.
 Raffenetti 2 integral format.
 Two-electron integral symmetry is turned on.
 Leave Link  301 at Sun Mar 10 20:34:43 2019, MaxMem=   671088640 cpu:               1.3 elap:               0.1
 (Enter /shared/centos7/gaussian/g16/l302.exe)
 NPDir=0 NMtPBC=     1 NCelOv=     1 NCel=       1 NClECP=     1 NCelD=      1
         NCelK=      1 NCelE2=     1 NClLst=     1 CellRange=     0.0.
 One-electron integrals computed using PRISM.
 One-electron integral symmetry used in STVInt
 NBasis=   267 RedAO= T EigKep=  2.82D-05  NBF=   267
 NBsUse=   267 1.00D-06 EigRej= -1.00D+00 NBFU=   267
 Precomputing XC quadrature grid using
 IXCGrd= 4 IRadAn=           5 IRanWt=          -1 IRanGd=           0 AccXCQ= 0.00D+00.
 Generated NRdTot=       0 NPtTot=           0 NUsed=           0 NTot=          32
 NSgBfM=   297   297   297   297   297 MxSgAt=    13 MxSgA2=    13.
 Leave Link  302 at Sun Mar 10 20:34:44 2019, MaxMem=   671088640 cpu:               8.4 elap:               0.4
 (Enter /shared/centos7/gaussian/g16/l303.exe)
 DipDrv:  MaxL=1.
 Leave Link  303 at Sun Mar 10 20:34:44 2019, MaxMem=   671088640 cpu:               0.8 elap:               0.1
 (Enter /shared/centos7/gaussian/g16/l401.exe)
 ExpMin= 4.38D-02 ExpMax= 8.59D+03 ExpMxC= 1.30D+03 IAcc=3 IRadAn=         5 AccDes= 0.00D+00
 Harris functional with IExCor= 1009 and IRadAn=       5 diagonalized for initial guess.
 HarFok:  IExCor= 1009 AccDes= 0.00D+00 IRadAn=         5 IDoV= 1 UseB2=F ITyADJ=14
 ICtDFT=  3500011 ScaDFX=  1.000000  1.000000  1.000000  1.000000
 FoFCou: FMM=F IPFlag=           0 FMFlag=      100000 FMFlg1=           0
         NFxFlg=           0 DoJE=T BraDBF=F KetDBF=T FulRan=T
         wScrn=  0.000000 ICntrl=       500 IOpCl=  0 I1Cent=   200000004 NGrid=           0
         NMat0=    1 NMatS0=      1 NMatT0=    0 NMatD0=    1 NMtDS0=    0 NMtDT0=    0
 Petite list used in FoFCou.
 Harris En= -306.862153050439    
 JPrj=0 DoOrth=F DoCkMO=F.
 Initial guess <Sx>= 0.0000 <Sy>= 0.0000 <Sz>= 0.5000 <S**2>= 0.7500 S= 0.5000
 Leave Link  401 at Sun Mar 10 20:34:45 2019, MaxMem=   671088640 cpu:              25.0 elap:               1.3
 (Enter /shared/centos7/gaussian/g16/l502.exe)
 Integral symmetry usage will be decided dynamically.
 UHF open shell SCF:
 Using DIIS extrapolation, IDIIS=  1040.
 NGot=   671088640 LenX=   670903575 LenY=   670814925
 Requested convergence on RMS density matrix=1.00D-08 within 128 cycles.
 Requested convergence on MAX density matrix=1.00D-06.
 Requested convergence on             energy=1.00D-06.
 No special actions if energy rises.
 Fock matrices will be formed incrementally for  20 cycles.

 Cycle   1  Pass 1  IDiag  1:
 FoFJK:  IHMeth= 1 ICntrl=       0 DoSepK=F KAlg= 0 I1Cent=           0 FoldK=F
 IRaf= 950000000 NMat=       1 IRICut=       1 DoRegI=T DoRafI=F ISym2E= 0 IDoP0=0 IntGTp=1.
 FoFCou: FMM=F IPFlag=           0 FMFlag=      100000 FMFlg1=           0
         NFxFlg=           0 DoJE=F BraDBF=F KetDBF=F FulRan=T
         wScrn=  0.000000 ICntrl=         0 IOpCl=  1 I1Cent=           0 NGrid=           0
         NMat0=    1 NMatS0=      1 NMatT0=    0 NMatD0=    1 NMtDS0=    0 NMtDT0=    0
 Symmetry not used in FoFCou.
 E= -306.831932534617    
 DIIS: error= 3.27D-02 at cycle   1 NSaved=   1.
 NSaved= 1 IEnMin= 1 EnMin= -306.831932534617     IErMin= 1 ErrMin= 3.27D-02
 ErrMax= 3.27D-02  0.00D+00 EMaxC= 1.00D-01 BMatC= 9.47D-01 BMatP= 9.47D-01
 IDIUse=3 WtCom= 6.73D-01 WtEn= 3.27D-01
 Coeff-Com:  0.100D+01
 Coeff-En:   0.100D+01
 Coeff:      0.100D+01
 Gap=     0.340 Goal=   None    Shift=    0.000
 Gap=     0.266 Goal=   None    Shift=    0.000
 GapD=    0.266 DampG=1.000 DampE=0.500 DampFc=0.5000 IDamp=-1.
 Damping current iteration by 5.00D-01
 RMSDP=4.43D-03 MaxDP=4.10D-01              OVMax= 2.50D-01

 Cycle   2  Pass 1  IDiag  1:
 RMSU=  2.16D-03    CP:  1.05D+00
 E= -306.906166507368     Delta-E=       -0.074233972751 Rises=F Damp=T
 DIIS: error= 7.95D-03 at cycle   2 NSaved=   2.
 NSaved= 2 IEnMin= 2 EnMin= -306.906166507368     IErMin= 2 ErrMin= 7.95D-03
 ErrMax= 7.95D-03  0.00D+00 EMaxC= 1.00D-01 BMatC= 1.01D-01 BMatP= 9.47D-01
 IDIUse=3 WtCom= 9.20D-01 WtEn= 7.95D-02
 Coeff-Com:  0.274D-01 0.973D+00
 Coeff-En:   0.732D-01 0.927D+00
 Coeff:      0.311D-01 0.969D+00
 Gap=     0.324 Goal=   None    Shift=    0.000
 Gap=     0.292 Goal=   None    Shift=    0.000
 RMSDP=2.56D-03 MaxDP=3.13D-01 DE=-7.42D-02 OVMax= 1.42D-01

 Cycle   3  Pass 1  IDiag  1:
 RMSU=  1.61D-03    CP:  9.40D-01  2.49D-01
 E= -306.986645312159     Delta-E=       -0.080478804791 Rises=F Damp=F
 DIIS: error= 1.07D-02 at cycle   3 NSaved=   3.
 NSaved= 3 IEnMin= 3 EnMin= -306.986645312159     IErMin= 2 ErrMin= 7.95D-03
 ErrMax= 1.07D-02  0.00D+00 EMaxC= 1.00D-01 BMatC= 8.42D-02 BMatP= 1.01D-01
 IDIUse=3 WtCom= 8.93D-01 WtEn= 1.07D-01
 Coeff-Com: -0.813D-01 0.506D+00 0.575D+00
 Coeff-En:   0.000D+00 0.000D+00 0.100D+01
 Coeff:     -0.726D-01 0.452D+00 0.621D+00
 Gap=     0.313 Goal=   None    Shift=    0.000
 Gap=     0.269 Goal=   None    Shift=    0.000
 RMSDP=5.15D-04 MaxDP=2.08D-02 DE=-8.05D-02 OVMax= 7.78D-02

 Cycle   4  Pass 1  IDiag  1:
 RMSU=  4.73D-04    CP:  9.39D-01  3.35D-01  1.05D+00
 E= -306.999994177668     Delta-E=       -0.013348865509 Rises=F Damp=F
 DIIS: error= 4.02D-03 at cycle   4 NSaved=   4.
 NSaved= 4 IEnMin= 4 EnMin= -306.999994177668     IErMin= 4 ErrMin= 4.02D-03
 ErrMax= 4.02D-03  0.00D+00 EMaxC= 1.00D-01 BMatC= 1.60D-02 BMatP= 8.42D-02
 IDIUse=3 WtCom= 9.60D-01 WtEn= 4.02D-02
 Coeff-Com: -0.300D-01 0.774D-01 0.334D+00 0.618D+00
 Coeff-En:   0.000D+00 0.000D+00 0.149D+00 0.851D+00
 Coeff:     -0.288D-01 0.743D-01 0.327D+00 0.627D+00
 Gap=     0.307 Goal=   None    Shift=    0.000
 Gap=     0.268 Goal=   None    Shift=    0.000
 RMSDP=2.47D-04 MaxDP=2.17D-02 DE=-1.33D-02 OVMax= 1.51D-02

 Cycle   5  Pass 1  IDiag  1:
 RMSU=  9.51D-05    CP:  9.31D-01  2.58D-01  1.10D+00  7.86D-01
 E= -307.003057059194     Delta-E=       -0.003062881527 Rises=F Damp=F
 DIIS: error= 8.88D-04 at cycle   5 NSaved=   5.
 NSaved= 5 IEnMin= 5 EnMin= -307.003057059194     IErMin= 5 ErrMin= 8.88D-04
 ErrMax= 8.88D-04  0.00D+00 EMaxC= 1.00D-01 BMatC= 5.64D-04 BMatP= 1.60D-02
 IDIUse=3 WtCom= 9.91D-01 WtEn= 8.88D-03
 Coeff-Com: -0.636D-02 0.474D-02 0.105D+00 0.255D+00 0.641D+00
 Coeff-En:   0.000D+00 0.000D+00 0.000D+00 0.000D+00 0.100D+01
 Coeff:     -0.630D-02 0.469D-02 0.104D+00 0.253D+00 0.645D+00
 Gap=     0.306 Goal=   None    Shift=    0.000
 Gap=     0.270 Goal=   None    Shift=    0.000
 RMSDP=4.54D-05 MaxDP=3.39D-03 DE=-3.06D-03 OVMax= 9.79D-03

 Cycle   6  Pass 1  IDiag  1:
 RMSU=  3.71D-05    CP:  9.30D-01  2.51D-01  1.11D+00  8.05D-01  1.03D+00
 E= -307.003223734562     Delta-E=       -0.000166675367 Rises=F Damp=F
 DIIS: error= 4.13D-04 at cycle   6 NSaved=   6.
 NSaved= 6 IEnMin= 6 EnMin= -307.003223734562     IErMin= 6 ErrMin= 4.13D-04
 ErrMax= 4.13D-04  0.00D+00 EMaxC= 1.00D-01 BMatC= 1.51D-04 BMatP= 5.64D-04
 IDIUse=3 WtCom= 9.96D-01 WtEn= 4.13D-03
 Coeff-Com:  0.516D-02-0.180D-01-0.389D-01-0.682D-01 0.264D+00 0.856D+00
 Coeff-En:   0.000D+00 0.000D+00 0.000D+00 0.000D+00 0.000D+00 0.100D+01
 Coeff:      0.514D-02-0.179D-01-0.388D-01-0.680D-01 0.263D+00 0.857D+00
 Gap=     0.307 Goal=   None    Shift=    0.000
 Gap=     0.271 Goal=   None    Shift=    0.000
 RMSDP=4.42D-05 MaxDP=3.92D-03 DE=-1.67D-04 OVMax= 6.84D-03

 Cycle   7  Pass 1  IDiag  1:
 RMSU=  2.13D-05    CP:  9.29D-01  2.41D-01  1.12D+00  8.18D-01  1.25D+00
                    CP:  1.25D+00
 E= -307.003300977665     Delta-E=       -0.000077243104 Rises=F Damp=F
 DIIS: error= 1.80D-04 at cycle   7 NSaved=   7.
 NSaved= 7 IEnMin= 7 EnMin= -307.003300977665     IErMin= 7 ErrMin= 1.80D-04
 ErrMax= 1.80D-04  0.00D+00 EMaxC= 1.00D-01 BMatC= 2.61D-05 BMatP= 1.51D-04
 IDIUse=3 WtCom= 9.98D-01 WtEn= 1.80D-03
 Coeff-Com:  0.343D-02-0.590D-02-0.346D-01-0.933D-01-0.106D+00 0.179D+00
 Coeff-Com:  0.106D+01
 Coeff-En:   0.000D+00 0.000D+00 0.000D+00 0.000D+00 0.000D+00 0.000D+00
 Coeff-En:   0.100D+01
 Coeff:      0.343D-02-0.589D-02-0.346D-01-0.932D-01-0.106D+00 0.179D+00
 Coeff:      0.106D+01
 Gap=     0.308 Goal=   None    Shift=    0.000
 Gap=     0.272 Goal=   None    Shift=    0.000
 RMSDP=2.59D-05 MaxDP=1.83D-03 DE=-7.72D-05 OVMax= 5.98D-03

 Cycle   8  Pass 1  IDiag  1:
 RMSU=  1.10D-05    CP:  9.28D-01  2.36D-01  1.12D+00  8.16D-01  1.39D+00
                    CP:  1.59D+00  1.42D+00
 E= -307.003325281218     Delta-E=       -0.000024303553 Rises=F Damp=F
 DIIS: error= 1.18D-04 at cycle   8 NSaved=   8.
 NSaved= 8 IEnMin= 8 EnMin= -307.003325281218     IErMin= 8 ErrMin= 1.18D-04
 ErrMax= 1.18D-04  0.00D+00 EMaxC= 1.00D-01 BMatC= 5.65D-06 BMatP= 2.61D-05
 IDIUse=3 WtCom= 9.99D-01 WtEn= 1.18D-03
 Coeff-Com:  0.342D-03 0.671D-03-0.162D-02-0.168D-01-0.706D-01-0.699D-01
 Coeff-Com:  0.324D+00 0.833D+00
 Coeff-En:   0.000D+00 0.000D+00 0.000D+00 0.000D+00 0.000D+00 0.000D+00
 Coeff-En:   0.000D+00 0.100D+01
 Coeff:      0.341D-03 0.670D-03-0.162D-02-0.168D-01-0.705D-01-0.698D-01
 Coeff:      0.324D+00 0.834D+00
 Gap=     0.308 Goal=   None    Shift=    0.000
 Gap=     0.272 Goal=   None    Shift=    0.000
 RMSDP=8.01D-06 MaxDP=4.09D-04 DE=-2.43D-05 OVMax= 1.98D-03

 Cycle   9  Pass 1  IDiag  1:
 RMSU=  4.32D-06    CP:  9.28D-01  2.36D-01  1.12D+00  8.12D-01  1.40D+00
                    CP:  1.68D+00  1.61D+00  1.23D+00
 E= -307.003329575440     Delta-E=       -0.000004294222 Rises=F Damp=F
 DIIS: error= 7.11D-05 at cycle   9 NSaved=   9.
 NSaved= 9 IEnMin= 9 EnMin= -307.003329575440     IErMin= 9 ErrMin= 7.11D-05
 ErrMax= 7.11D-05  0.00D+00 EMaxC= 1.00D-01 BMatC= 1.21D-06 BMatP= 5.65D-06
 IDIUse=1 WtCom= 1.00D+00 WtEn= 0.00D+00
 Coeff-Com: -0.886D-03 0.165D-02 0.113D-01 0.258D-01 0.213D-01-0.592D-01
 Coeff-Com: -0.285D+00 0.178D-01 0.127D+01
 Coeff:     -0.886D-03 0.165D-02 0.113D-01 0.258D-01 0.213D-01-0.592D-01
 Coeff:     -0.285D+00 0.178D-01 0.127D+01
 Gap=     0.308 Goal=   None    Shift=    0.000
 Gap=     0.272 Goal=   None    Shift=    0.000
 RMSDP=6.76D-06 MaxDP=3.52D-04 DE=-4.29D-06 OVMax= 1.66D-03

 Cycle  10  Pass 1  IDiag  1:
 RMSU=  2.60D-06    CP:  9.28D-01  2.37D-01  1.12D+00  8.08D-01  1.41D+00
                    CP:  1.73D+00  1.75D+00  1.58D+00  1.60D+00
 E= -307.003331471641     Delta-E=       -0.000001896201 Rises=F Damp=F
 DIIS: error= 2.87D-05 at cycle  10 NSaved=  10.
 NSaved=10 IEnMin=10 EnMin= -307.003331471641     IErMin=10 ErrMin= 2.87D-05
 ErrMax= 2.87D-05  0.00D+00 EMaxC= 1.00D-01 BMatC= 1.83D-07 BMatP= 1.21D-06
 IDIUse=1 WtCom= 1.00D+00 WtEn= 0.00D+00
 Coeff-Com:  0.216D-03-0.609D-03-0.194D-02-0.260D-02 0.821D-02 0.217D-01
 Coeff-Com:  0.106D-01-0.178D+00-0.241D+00 0.138D+01
 Coeff:      0.216D-03-0.609D-03-0.194D-02-0.260D-02 0.821D-02 0.217D-01
 Coeff:      0.106D-01-0.178D+00-0.241D+00 0.138D+01
 Gap=     0.308 Goal=   None    Shift=    0.000
 Gap=     0.272 Goal=   None    Shift=    0.000
 RMSDP=2.97D-06 MaxDP=1.79D-04 DE=-1.90D-06 OVMax= 7.27D-04

 Cycle  11  Pass 1  IDiag  1:
 RMSU=  1.01D-06    CP:  9.28D-01  2.36D-01  1.12D+00  8.08D-01  1.41D+00
                    CP:  1.75D+00  1.78D+00  1.68D+00  1.99D+00  1.62D+00
 E= -307.003331809728     Delta-E=       -0.000000338087 Rises=F Damp=F
 DIIS: error= 1.10D-05 at cycle  11 NSaved=  11.
 NSaved=11 IEnMin=11 EnMin= -307.003331809728     IErMin=11 ErrMin= 1.10D-05
 ErrMax= 1.10D-05  0.00D+00 EMaxC= 1.00D-01 BMatC= 2.67D-08 BMatP= 1.83D-07
 IDIUse=1 WtCom= 1.00D+00 WtEn= 0.00D+00
 Coeff-Com:  0.167D-03-0.351D-03-0.173D-02-0.391D-02-0.119D-02 0.967D-02
 Coeff-Com:  0.425D-01-0.371D-01-0.214D+00 0.219D+00 0.987D+00
 Coeff:      0.167D-03-0.351D-03-0.173D-02-0.391D-02-0.119D-02 0.967D-02
 Coeff:      0.425D-01-0.371D-01-0.214D+00 0.219D+00 0.987D+00
 Gap=     0.308 Goal=   None    Shift=    0.000
 Gap=     0.272 Goal=   None    Shift=    0.000
 RMSDP=9.86D-07 MaxDP=5.27D-05 DE=-3.38D-07 OVMax= 1.90D-04

 Cycle  12  Pass 1  IDiag  1:
 RMSU=  3.20D-07    CP:  9.28D-01  2.36D-01  1.12D+00  8.08D-01  1.41D+00
                    CP:  1.75D+00  1.79D+00  1.69D+00  2.09D+00  1.86D+00
                    CP:  1.26D+00
 E= -307.003331839725     Delta-E=       -0.000000029997 Rises=F Damp=F
 DIIS: error= 2.23D-06 at cycle  12 NSaved=  12.
 NSaved=12 IEnMin=12 EnMin= -307.003331839725     IErMin=12 ErrMin= 2.23D-06
 ErrMax= 2.23D-06  0.00D+00 EMaxC= 1.00D-01 BMatC= 5.42D-09 BMatP= 2.67D-08
 IDIUse=1 WtCom= 1.00D+00 WtEn= 0.00D+00
 Coeff-Com:  0.135D-04-0.387D-05-0.208D-03-0.806D-03-0.180D-02-0.904D-03
 Coeff-Com:  0.125D-01 0.171D-01-0.212D-01-0.179D+00 0.326D+00 0.848D+00
 Coeff:      0.135D-04-0.387D-05-0.208D-03-0.806D-03-0.180D-02-0.904D-03
 Coeff:      0.125D-01 0.171D-01-0.212D-01-0.179D+00 0.326D+00 0.848D+00
 Gap=     0.308 Goal=   None    Shift=    0.000
 Gap=     0.272 Goal=   None    Shift=    0.000
 RMSDP=2.79D-07 MaxDP=1.58D-05 DE=-3.00D-08 OVMax= 4.68D-05

 Cycle  13  Pass 1  IDiag  1:
 RMSU=  1.29D-07    CP:  9.28D-01  2.36D-01  1.12D+00  8.08D-01  1.41D+00
                    CP:  1.75D+00  1.79D+00  1.70D+00  2.11D+00  1.91D+00
                    CP:  1.43D+00  1.18D+00
 E= -307.003331842782     Delta-E=       -0.000000003057 Rises=F Damp=F
 DIIS: error= 6.71D-07 at cycle  13 NSaved=  13.
 NSaved=13 IEnMin=13 EnMin= -307.003331842782     IErMin=13 ErrMin= 6.71D-07
 ErrMax= 6.71D-07  0.00D+00 EMaxC= 1.00D-01 BMatC= 3.03D-10 BMatP= 5.42D-09
 IDIUse=1 WtCom= 1.00D+00 WtEn= 0.00D+00
 Coeff-Com: -0.207D-04 0.446D-04 0.192D-03 0.425D-03-0.122D-03-0.123D-02
 Coeff-Com: -0.415D-02 0.532D-02 0.285D-01-0.473D-01-0.915D-01 0.527D-01
 Coeff-Com:  0.106D+01
 Coeff:     -0.207D-04 0.446D-04 0.192D-03 0.425D-03-0.122D-03-0.123D-02
 Coeff:     -0.415D-02 0.532D-02 0.285D-01-0.473D-01-0.915D-01 0.527D-01
 Coeff:      0.106D+01
 Gap=     0.308 Goal=   None    Shift=    0.000
 Gap=     0.272 Goal=   None    Shift=    0.000
 RMSDP=1.20D-07 MaxDP=1.23D-05 DE=-3.06D-09 OVMax= 1.27D-05

 Cycle  14  Pass 1  IDiag  1:
 RMSU=  3.34D-08    CP:  9.28D-01  2.36D-01  1.12D+00  8.08D-01  1.41D+00
                    CP:  1.75D+00  1.79D+00  1.70D+00  2.11D+00  1.91D+00
                    CP:  1.47D+00  1.32D+00  1.22D+00
 E= -307.003331843018     Delta-E=       -0.000000000237 Rises=F Damp=F
 DIIS: error= 1.88D-07 at cycle  14 NSaved=  14.
 NSaved=14 IEnMin=14 EnMin= -307.003331843018     IErMin=14 ErrMin= 1.88D-07
 ErrMax= 1.88D-07  0.00D+00 EMaxC= 1.00D-01 BMatC= 2.62D-11 BMatP= 3.03D-10
 IDIUse=1 WtCom= 1.00D+00 WtEn= 0.00D+00
 Coeff-Com:  0.524D-06-0.197D-05 0.107D-04 0.318D-04 0.998D-04 0.568D-04
 Coeff-Com: -0.649D-03-0.121D-02 0.669D-03 0.121D-01-0.187D-01-0.576D-01
 Coeff-Com: -0.268D-01 0.109D+01
 Coeff:      0.524D-06-0.197D-05 0.107D-04 0.318D-04 0.998D-04 0.568D-04
 Coeff:     -0.649D-03-0.121D-02 0.669D-03 0.121D-01-0.187D-01-0.576D-01
 Coeff:     -0.268D-01 0.109D+01
 Gap=     0.308 Goal=   None    Shift=    0.000
 Gap=     0.272 Goal=   None    Shift=    0.000
 RMSDP=2.21D-08 MaxDP=1.40D-06 DE=-2.37D-10 OVMax= 3.09D-06

 Cycle  15  Pass 1  IDiag  1:
 RMSU=  1.26D-08    CP:  9.28D-01  2.36D-01  1.12D+00  8.08D-01  1.41D+00
                    CP:  1.75D+00  1.79D+00  1.70D+00  2.11D+00  1.91D+00
                    CP:  1.48D+00  1.34D+00  1.28D+00  1.23D+00
 E= -307.003331843036     Delta-E=       -0.000000000018 Rises=F Damp=F
 DIIS: error= 7.42D-08 at cycle  15 NSaved=  15.
 NSaved=15 IEnMin=15 EnMin= -307.003331843036     IErMin=15 ErrMin= 7.42D-08
 ErrMax= 7.42D-08  0.00D+00 EMaxC= 1.00D-01 BMatC= 6.68D-12 BMatP= 2.62D-11
 IDIUse=1 WtCom= 1.00D+00 WtEn= 0.00D+00
 Coeff-Com:  0.249D-05-0.586D-05-0.149D-04-0.315D-04 0.424D-04 0.156D-03
 Coeff-Com:  0.199D-03-0.953D-03-0.288D-02 0.955D-02 0.260D-02-0.261D-01
 Coeff-Com: -0.122D+00 0.364D+00 0.775D+00
 Coeff:      0.249D-05-0.586D-05-0.149D-04-0.315D-04 0.424D-04 0.156D-03
 Coeff:      0.199D-03-0.953D-03-0.288D-02 0.955D-02 0.260D-02-0.261D-01
 Coeff:     -0.122D+00 0.364D+00 0.775D+00
 Gap=     0.308 Goal=   None    Shift=    0.000
 Gap=     0.272 Goal=   None    Shift=    0.000
 RMSDP=7.20D-09 MaxDP=3.24D-07 DE=-1.80D-11 OVMax= 7.77D-07

 SCF Done:  E(UM062X) =  -307.003331843     A.U. after   15 cycles
            NFock= 15  Conv=0.72D-08     -V/T= 2.0056
 <Sx>= 0.0000 <Sy>= 0.0000 <Sz>= 0.5000 <S**2>= 0.7618 S= 0.5059
 <L.S>= 0.000000000000E+00
 KE= 3.052877702498D+02 PE=-1.179903115201D+03 EE= 3.366935157931D+02
 Annihilation of the first spin contaminant:
 S**2 before annihilation     0.7618,   after     0.7501
 Leave Link  502 at Sun Mar 10 20:36:04 2019, MaxMem=   671088640 cpu:            1567.6 elap:              78.4
 (Enter /shared/centos7/gaussian/g16/l801.exe)
 DoSCS=F DFT=T ScalE2(SS,OS)=  1.000000  1.000000
 Range of M.O.s used for correlation:     1   267
 NBasis=   267 NAE=    24 NBE=    23 NFC=     0 NFV=     0
 NROrb=    267 NOA=    24 NOB=    23 NVA=   243 NVB=   244

 **** Warning!!: The largest alpha MO coefficient is  0.57899530D+02


 **** Warning!!: The largest beta MO coefficient is  0.61451513D+02

 Leave Link  801 at Sun Mar 10 20:36:04 2019, MaxMem=   671088640 cpu:               0.8 elap:               0.1
 (Enter /shared/centos7/gaussian/g16/l1101.exe)
 Using compressed storage, NAtomX=    13.
 Will process     14 centers per pass.
 Leave Link 1101 at Sun Mar 10 20:36:04 2019, MaxMem=   671088640 cpu:               9.5 elap:               0.5
 (Enter /shared/centos7/gaussian/g16/l1102.exe)
 Symmetrizing basis deriv contribution to polar:
 IMax=3 JMax=2 DiffMx= 0.00D+00
 Leave Link 1102 at Sun Mar 10 20:36:04 2019, MaxMem=   671088640 cpu:               1.0 elap:               0.1
 (Enter /shared/centos7/gaussian/g16/l1110.exe)
 Forming Gx(P) for the SCF density, NAtomX=    13.
 Integral derivatives from FoFJK, PRISM(SPDF).
 Do as many integral derivatives as possible in FoFJK.
 G2DrvN: MDV=     671087568.
 G2DrvN: will do    14 centers at a time, making    1 passes.
 Calling FoFCou, ICntrl=  3107 FMM=F I1Cent=   0 AccDes= 0.00D+00.
 FoFJK:  IHMeth= 1 ICntrl=    3107 DoSepK=F KAlg= 0 I1Cent=           0 FoldK=F
 IRaf=         0 NMat=       1 IRICut=       1 DoRegI=T DoRafI=F ISym2E= 0 IDoP0=0 IntGTp=1.
 FoFCou: FMM=F IPFlag=           0 FMFlag=      100000 FMFlg1=           0
         NFxFlg=           0 DoJE=F BraDBF=F KetDBF=F FulRan=T
         wScrn=  0.000000 ICntrl=      3107 IOpCl=  1 I1Cent=           0 NGrid=           0
         NMat0=    1 NMatS0=      1 NMatT0=    0 NMatD0=    1 NMtDS0=    0 NMtDT0=    0
 Symmetry not used in FoFCou.
 End of G2Drv F.D. properties file   721 does not exist.
 End of G2Drv F.D. properties file   722 does not exist.
 End of G2Drv F.D. properties file   788 does not exist.
 Leave Link 1110 at Sun Mar 10 20:38:17 2019, MaxMem=   671088640 cpu:            2655.2 elap:             132.8
 (Enter /shared/centos7/gaussian/g16/l1002.exe)
 Minotr:  UHF open shell wavefunction.
          IDoAtm=1111111111111
          Direct CPHF calculation.
          Differentiating once with respect to nuclear coordinates.
          Requested convergence is 1.0D-08 RMS, and 1.0D-07 maximum.
          Secondary convergence is 1.0D-12 RMS, and 1.0D-12 maximum.
          NewPWx=T KeepS1=F KeepF1=F KeepIn=T MapXYZ=F SortEE=F KeepMc=T.
         3980 words used for storage of precomputed grid.
 Two-electron integrals replicated using symmetry.
          MDV=     671088640 using IRadAn=       1.
          Solving linear equations simultaneously, MaxMat=     380.
 FoF2E skips out because all densities are zero.
 CalDSu exits because no D1Ps are significant.
 FoFJK:  IHMeth= 1 ICntrl=       0 DoSepK=F KAlg= 0 I1Cent=           0 FoldK=F
 IRaf= 940000000 NMat=      39 IRICut=      97 DoRegI=T DoRafI=T ISym2E= 2 IDoP0=3 IntGTp=3.
 FoFCou: FMM=F IPFlag=           0 FMFlag=      100000 FMFlg1=           0
         NFxFlg=           0 DoJE=F BraDBF=F KetDBF=F FulRan=T
         wScrn=  0.000000 ICntrl=         0 IOpCl=  1 I1Cent=           0 NGrid=           0
         NMat0=   39 NMatS0=     39 NMatT0=    0 NMatD0=   39 NMtDS0=    0 NMtDT0=    0
 Integrals replicated using symmetry in FoFCou.
 Raff kept on since  91.48% of shell-pairs survive, threshold=   0.20 IRatSp=91.
          There are    42 degrees of freedom in the 1st order CPHF.  IDoFFX=6 NUNeed=     0.
     36 vectors produced by pass  0 Test12= 2.72D-14 2.38D-09 XBig12= 1.45D-01 9.51D-02.
 AX will form    36 AO Fock derivatives at one time.
     36 vectors produced by pass  1 Test12= 2.72D-14 2.38D-09 XBig12= 1.56D-02 3.75D-02.
     36 vectors produced by pass  2 Test12= 2.72D-14 2.38D-09 XBig12= 7.71D-04 1.02D-02.
     36 vectors produced by pass  3 Test12= 2.72D-14 2.38D-09 XBig12= 9.46D-06 9.66D-04.
     36 vectors produced by pass  4 Test12= 2.72D-14 2.38D-09 XBig12= 1.17D-07 5.07D-05.
     36 vectors produced by pass  5 Test12= 2.72D-14 2.38D-09 XBig12= 1.36D-09 5.20D-06.
     36 vectors produced by pass  6 Test12= 2.72D-14 2.38D-09 XBig12= 1.33D-11 4.22D-07.
     18 vectors produced by pass  7 Test12= 2.72D-14 2.38D-09 XBig12= 1.17D-13 3.98D-08.
      3 vectors produced by pass  8 Test12= 2.72D-14 2.38D-09 XBig12= 9.82D-16 3.36D-09.
 InvSVY:  IOpt=1 It=  1 EMax= 1.55D-15
 Solved reduced A of dimension   273 with    36 vectors.
 End of Minotr F.D. properties file   721 does not exist.
 End of Minotr F.D. properties file   722 does not exist.
 End of Minotr F.D. properties file   788 does not exist.
 Leave Link 1002 at Sun Mar 10 20:41:44 2019, MaxMem=   671088640 cpu:            4140.5 elap:             207.1
 (Enter /shared/centos7/gaussian/g16/l601.exe)
 Copying SCF densities to generalized density rwf, IOpCl= 1 IROHF=0.

 **********************************************************************

            Population analysis using the SCF density.

 **********************************************************************

 Orbital symmetries:
 Alpha Orbitals:
       Occupied  (A) (A) (A) (A) (A) (A) (A) (A) (A) (A) (A) (A)
                 (A) (A) (A) (A) (A) (A) (A) (A) (A) (A) (A) (A)
       Virtual   (A) (A) (A) (A) (A) (A) (A) (A) (A) (A) (A) (A)
                 (A) (A) (A) (A) (A) (A) (A) (A) (A) (A) (A) (A)
                 (A) (A) (A) (A) (A) (A) (A) (A) (A) (A) (A) (A)
                 (A) (A) (A) (A) (A) (A) (A) (A) (A) (A) (A) (A)
                 (A) (A) (A) (A) (A) (A) (A) (A) (A) (A) (A) (A)
                 (A) (A) (A) (A) (A) (A) (A) (A) (A) (A) (A) (A)
                 (A) (A) (A) (A) (A) (A) (A) (A) (A) (A) (A) (A)
                 (A) (A) (A) (A) (A) (A) (A) (A) (A) (A) (A) (A)
                 (A) (A) (A) (A) (A) (A) (A) (A) (A) (A) (A) (A)
                 (A) (A) (A) (A) (A) (A) (A) (A) (A) (A) (A) (A)
                 (A) (A) (A) (A) (A) (A) (A) (A) (A) (A) (A) (A)
                 (A) (A) (A) (A) (A) (A) (A) (A) (A) (A) (A) (A)
                 (A) (A) (A) (A) (A) (A) (A) (A) (A) (A) (A) (A)
                 (A) (A) (A) (A) (A) (A) (A) (A) (A) (A) (A) (A)
                 (A) (A) (A) (A) (A) (A) (A) (A) (A) (A) (A) (A)
                 (A) (A) (A) (A) (A) (A) (A) (A) (A) (A) (A) (A)
                 (A) (A) (A) (A) (A) (A) (A) (A) (A) (A) (A) (A)
                 (A) (A) (A) (A) (A) (A) (A) (A) (A) (A) (A) (A)
                 (A) (A) (A) (A) (A) (A) (A) (A) (A) (A) (A) (A)
                 (A) (A) (A) (A) (A) (A) (A) (A) (A) (A) (A) (A)
                 (A) (A) (A)
 Beta  Orbitals:
       Occupied  (A) (A) (A) (A) (A) (A) (A) (A) (A) (A) (A) (A)
                 (A) (A) (A) (A) (A) (A) (A) (A) (A) (A) (A)
       Virtual   (A) (A) (A) (A) (A) (A) (A) (A) (A) (A) (A) (A)
                 (A) (A) (A) (A) (A) (A) (A) (A) (A) (A) (A) (A)
                 (A) (A) (A) (A) (A) (A) (A) (A) (A) (A) (A) (A)
                 (A) (A) (A) (A) (A) (A) (A) (A) (A) (A) (A) (A)
                 (A) (A) (A) (A) (A) (A) (A) (A) (A) (A) (A) (A)
                 (A) (A) (A) (A) (A) (A) (A) (A) (A) (A) (A) (A)
                 (A) (A) (A) (A) (A) (A) (A) (A) (A) (A) (A) (A)
                 (A) (A) (A) (A) (A) (A) (A) (A) (A) (A) (A) (A)
                 (A) (A) (A) (A) (A) (A) (A) (A) (A) (A) (A) (A)
                 (A) (A) (A) (A) (A) (A) (A) (A) (A) (A) (A) (A)
                 (A) (A) (A) (A) (A) (A) (A) (A) (A) (A) (A) (A)
                 (A) (A) (A) (A) (A) (A) (A) (A) (A) (A) (A) (A)
                 (A) (A) (A) (A) (A) (A) (A) (A) (A) (A) (A) (A)
                 (A) (A) (A) (A) (A) (A) (A) (A) (A) (A) (A) (A)
                 (A) (A) (A) (A) (A) (A) (A) (A) (A) (A) (A) (A)
                 (A) (A) (A) (A) (A) (A) (A) (A) (A) (A) (A) (A)
                 (A) (A) (A) (A) (A) (A) (A) (A) (A) (A) (A) (A)
                 (A) (A) (A) (A) (A) (A) (A) (A) (A) (A) (A) (A)
                 (A) (A) (A) (A) (A) (A) (A) (A) (A) (A) (A) (A)
                 (A) (A) (A) (A) (A) (A) (A) (A) (A) (A) (A) (A)
                 (A) (A) (A) (A)
 The electronic state is 2-A.
 Alpha  occ. eigenvalues --  -19.66151 -19.62132 -10.67505 -10.59242 -10.59082
 Alpha  occ. eigenvalues --  -10.56066  -1.19593  -1.11746  -0.91072  -0.80654
 Alpha  occ. eigenvalues --   -0.73943  -0.62722  -0.59701  -0.55097  -0.54895
 Alpha  occ. eigenvalues --   -0.50767  -0.50458  -0.47338  -0.45687  -0.44936
 Alpha  occ. eigenvalues --   -0.42409  -0.37815  -0.36412  -0.29797
 Alpha virt. eigenvalues --    0.00984   0.02459   0.03334   0.04635   0.04866
 Alpha virt. eigenvalues --    0.05740   0.05793   0.06320   0.07910   0.08681
 Alpha virt. eigenvalues --    0.10418   0.10873   0.11451   0.12369   0.14460
 Alpha virt. eigenvalues --    0.15818   0.17071   0.18288   0.19062   0.20570
 Alpha virt. eigenvalues --    0.21173   0.22101   0.22414   0.23730   0.24164
 Alpha virt. eigenvalues --    0.25505   0.26384   0.28213   0.29064   0.30752
 Alpha virt. eigenvalues --    0.31814   0.33121   0.34128   0.35215   0.38098
 Alpha virt. eigenvalues --    0.40259   0.43706   0.44744   0.45085   0.46021
 Alpha virt. eigenvalues --    0.49737   0.50676   0.53424   0.54441   0.54671
 Alpha virt. eigenvalues --    0.55338   0.56077   0.56771   0.59447   0.59603
 Alpha virt. eigenvalues --    0.62320   0.63755   0.64269   0.64861   0.65353
 Alpha virt. eigenvalues --    0.65948   0.68361   0.73801   0.74683   0.78477
 Alpha virt. eigenvalues --    0.81024   0.82828   0.86508   0.87544   0.89037
 Alpha virt. eigenvalues --    0.89175   0.90301   0.93317   0.95205   0.98722
 Alpha virt. eigenvalues --    1.01242   1.04718   1.05238   1.05947   1.07529
 Alpha virt. eigenvalues --    1.10326   1.11360   1.13877   1.15045   1.16117
 Alpha virt. eigenvalues --    1.18157   1.20125   1.20997   1.22329   1.22717
 Alpha virt. eigenvalues --    1.23834   1.26183   1.29106   1.30651   1.32659
 Alpha virt. eigenvalues --    1.33931   1.35675   1.37283   1.39203   1.40573
 Alpha virt. eigenvalues --    1.41250   1.43994   1.44551   1.47241   1.47985
 Alpha virt. eigenvalues --    1.51415   1.54456   1.56018   1.58139   1.65655
 Alpha virt. eigenvalues --    1.66129   1.70386   1.75109   1.76857   1.82073
 Alpha virt. eigenvalues --    1.85979   1.91110   1.99064   2.16040   2.17116
 Alpha virt. eigenvalues --    2.26800   2.36363   2.40270   2.42266   2.44392
 Alpha virt. eigenvalues --    2.47264   2.54379   2.56465   2.61106   2.64553
 Alpha virt. eigenvalues --    2.69300   2.75956   2.77040   2.77599   2.80560
 Alpha virt. eigenvalues --    2.82401   2.83430   2.89676   2.94642   2.96067
 Alpha virt. eigenvalues --    2.97002   2.98204   3.05850   3.06858   3.08387
 Alpha virt. eigenvalues --    3.09052   3.10690   3.13681   3.14444   3.16368
 Alpha virt. eigenvalues --    3.17975   3.20396   3.21820   3.23704   3.26971
 Alpha virt. eigenvalues --    3.28844   3.30067   3.31447   3.33381   3.37386
 Alpha virt. eigenvalues --    3.37462   3.43969   3.45268   3.47084   3.50263
 Alpha virt. eigenvalues --    3.52050   3.53992   3.55649   3.58116   3.59557
 Alpha virt. eigenvalues --    3.63402   3.65710   3.67524   3.68644   3.71875
 Alpha virt. eigenvalues --    3.78616   3.81143   3.82418   3.83693   3.86484
 Alpha virt. eigenvalues --    3.88113   3.99143   4.00049   4.01937   4.07310
 Alpha virt. eigenvalues --    4.08263   4.10944   4.11738   4.13427   4.16147
 Alpha virt. eigenvalues --    4.18943   4.23111   4.25564   4.26455   4.27876
 Alpha virt. eigenvalues --    4.29967   4.33858   4.36510   4.37788   4.46249
 Alpha virt. eigenvalues --    4.49868   4.54203   4.61127   4.86851   4.90222
 Alpha virt. eigenvalues --    4.96002   5.08269   5.10834   5.13835   5.18716
 Alpha virt. eigenvalues --    5.19963   5.22954   5.27417   5.35634   5.36631
 Alpha virt. eigenvalues --    5.38139   5.42909   5.44422   5.44970   5.46231
 Alpha virt. eigenvalues --    5.50618   5.57222   5.65639   5.66472   5.72904
 Alpha virt. eigenvalues --    5.74485   5.92303   6.15324   6.33878   6.49599
 Alpha virt. eigenvalues --    6.80187   6.81657   6.92535   7.00281   7.09866
 Alpha virt. eigenvalues --    7.15368   7.22413   7.25167   7.50336   7.59937
 Alpha virt. eigenvalues --    7.71324   7.78314  24.16982  24.23980  24.39748
 Alpha virt. eigenvalues --   24.73836  50.13162  50.24786
  Beta  occ. eigenvalues --  -19.66070 -19.61728 -10.67587 -10.59084 -10.58726
  Beta  occ. eigenvalues --  -10.56118  -1.19073  -1.10909  -0.88856  -0.80364
  Beta  occ. eigenvalues --   -0.72977  -0.61923  -0.58938  -0.54242  -0.53875
  Beta  occ. eigenvalues --   -0.50359  -0.48489  -0.46806  -0.44582  -0.43841
  Beta  occ. eigenvalues --   -0.42259  -0.35839  -0.35588
  Beta virt. eigenvalues --   -0.08368   0.00799   0.02497   0.03435   0.04245
  Beta virt. eigenvalues --    0.04753   0.05792   0.06327   0.07532   0.07959
  Beta virt. eigenvalues --    0.08290   0.09800   0.10644   0.12388   0.13004
  Beta virt. eigenvalues --    0.14246   0.15532   0.17249   0.18523   0.19216
  Beta virt. eigenvalues --    0.20618   0.21244   0.22086   0.22391   0.24070
  Beta virt. eigenvalues --    0.24248   0.25645   0.26429   0.28375   0.29504
  Beta virt. eigenvalues --    0.31117   0.32121   0.33340   0.34441   0.35323
  Beta virt. eigenvalues --    0.38131   0.40630   0.43724   0.44793   0.45053
  Beta virt. eigenvalues --    0.46525   0.50500   0.51195   0.54155   0.54580
  Beta virt. eigenvalues --    0.55355   0.55470   0.56610   0.57195   0.59571
  Beta virt. eigenvalues --    0.59881   0.63133   0.64031   0.64523   0.65391
  Beta virt. eigenvalues --    0.65675   0.66208   0.68357   0.73867   0.74530
  Beta virt. eigenvalues --    0.78710   0.80838   0.82698   0.86372   0.87569
  Beta virt. eigenvalues --    0.88945   0.89178   0.90148   0.93084   0.94829
  Beta virt. eigenvalues --    0.98271   1.01257   1.04758   1.05281   1.05867
  Beta virt. eigenvalues --    1.07590   1.10051   1.11128   1.14037   1.15510
  Beta virt. eigenvalues --    1.16330   1.18295   1.20152   1.21038   1.22803
  Beta virt. eigenvalues --    1.23186   1.24169   1.26307   1.29580   1.31022
  Beta virt. eigenvalues --    1.32787   1.34267   1.35791   1.37288   1.39798
  Beta virt. eigenvalues --    1.40791   1.41501   1.43999   1.44736   1.47022
  Beta virt. eigenvalues --    1.47808   1.52177   1.54547   1.56033   1.58700
  Beta virt. eigenvalues --    1.66015   1.66624   1.71361   1.75284   1.77319
  Beta virt. eigenvalues --    1.82341   1.86606   1.91341   1.99548   2.16737
  Beta virt. eigenvalues --    2.17448   2.27059   2.37367   2.40390   2.42763
  Beta virt. eigenvalues --    2.45258   2.47841   2.55118   2.56997   2.61547
  Beta virt. eigenvalues --    2.64933   2.73136   2.77409   2.79806   2.80995
  Beta virt. eigenvalues --    2.82564   2.84485   2.85305   2.91795   2.96145
  Beta virt. eigenvalues --    2.96802   2.98337   2.99509   3.06610   3.07375
  Beta virt. eigenvalues --    3.08663   3.09829   3.11769   3.14269   3.15093
  Beta virt. eigenvalues --    3.17386   3.19025   3.21728   3.22452   3.25104
  Beta virt. eigenvalues --    3.29203   3.30620   3.31636   3.32373   3.34306
  Beta virt. eigenvalues --    3.37845   3.38915   3.44731   3.46286   3.48219
  Beta virt. eigenvalues --    3.51483   3.53512   3.54774   3.56829   3.59880
  Beta virt. eigenvalues --    3.60384   3.64687   3.67285   3.68767   3.69716
  Beta virt. eigenvalues --    3.72472   3.79011   3.81244   3.83417   3.83943
  Beta virt. eigenvalues --    3.87186   3.88992   3.99334   4.00659   4.02764
  Beta virt. eigenvalues --    4.08232   4.08793   4.12556   4.13103   4.14459
  Beta virt. eigenvalues --    4.16327   4.20508   4.23902   4.25671   4.27231
  Beta virt. eigenvalues --    4.29762   4.30620   4.37028   4.37856   4.38460
  Beta virt. eigenvalues --    4.47871   4.51759   4.56900   4.66153   4.89917
  Beta virt. eigenvalues --    4.91657   4.98825   5.09108   5.12150   5.14365
  Beta virt. eigenvalues --    5.19173   5.21106   5.25316   5.28456   5.36115
  Beta virt. eigenvalues --    5.37354   5.40333   5.43277   5.44135   5.45092
  Beta virt. eigenvalues --    5.46266   5.51237   5.59190   5.66426   5.66625
  Beta virt. eigenvalues --    5.74877   5.75101   5.92493   6.16297   6.33986
  Beta virt. eigenvalues --    6.49779   6.81201   6.84738   6.95135   7.01045
  Beta virt. eigenvalues --    7.10370   7.16327   7.22891   7.27046   7.50920
  Beta virt. eigenvalues --    7.60733   7.71855   7.78367  24.17651  24.23974
  Beta virt. eigenvalues --   24.40323  24.74433  50.13056  50.24329
          Condensed to atoms (all electrons):
               1          2          3          4          5          6
     1  O    8.165541  -0.068810   0.014883   0.148680  -0.210141   0.269325
     2  O   -0.068810   8.191818   0.013612  -0.055026  -0.021702   0.336574
     3  C    0.014883   0.013612   5.114952  -0.010743   0.178979  -0.020255
     4  C    0.148680  -0.055026  -0.010743   4.995685  -0.128448  -0.054737
     5  C   -0.210141  -0.021702   0.178979  -0.128448   6.231642  -0.398807
     6  C    0.269325   0.336574  -0.020255  -0.054737  -0.398807   5.734780
     7  H   -0.000116  -0.001066   0.398680  -0.000478  -0.017658  -0.022675
     8  H    0.000010  -0.000363   0.401401  -0.000676  -0.036010  -0.002272
     9  H   -0.000237   0.000406   0.415579   0.000723  -0.078317   0.041679
    10  H   -0.050582   0.003994   0.000369   0.410644   0.005592   0.015923
    11  H   -0.032496  -0.007646  -0.001008   0.425875  -0.002788   0.003586
    12  H   -0.031397  -0.008018  -0.000954   0.424665  -0.001814   0.002954
    13  H    0.004009   0.003158  -0.028968   0.003513   0.352518   0.017097
               7          8          9         10         11         12
     1  O   -0.000116   0.000010  -0.000237  -0.050582  -0.032496  -0.031397
     2  O   -0.001066  -0.000363   0.000406   0.003994  -0.007646  -0.008018
     3  C    0.398680   0.401401   0.415579   0.000369  -0.001008  -0.000954
     4  C   -0.000478  -0.000676   0.000723   0.410644   0.425875   0.424665
     5  C   -0.017658  -0.036010  -0.078317   0.005592  -0.002788  -0.001814
     6  C   -0.022675  -0.002272   0.041679   0.015923   0.003586   0.002954
     7  H    0.542692  -0.029470  -0.024614  -0.000001  -0.000007   0.000010
     8  H   -0.029470   0.530847  -0.022183  -0.000000   0.000012  -0.000011
     9  H   -0.024614  -0.022183   0.540934  -0.000000   0.000001  -0.000001
    10  H   -0.000001  -0.000000  -0.000000   0.535663  -0.025497  -0.025581
    11  H   -0.000007   0.000012   0.000001  -0.025497   0.540571  -0.035260
    12  H    0.000010  -0.000011  -0.000001  -0.025581  -0.035260   0.541327
    13  H    0.002875   0.003717  -0.009004  -0.000056   0.000010   0.000007
              13
     1  O    0.004009
     2  O    0.003158
     3  C   -0.028968
     4  C    0.003513
     5  C    0.352518
     6  C    0.017097
     7  H    0.002875
     8  H    0.003717
     9  H   -0.009004
    10  H   -0.000056
    11  H    0.000010
    12  H    0.000007
    13  H    0.463220
          Atomic-Atomic Spin Densities.
               1          2          3          4          5          6
     1  O    0.035001   0.009128   0.003279  -0.003149  -0.025091   0.009050
     2  O    0.009128   0.256437   0.004148  -0.001981  -0.026863  -0.025982
     3  C    0.003279   0.004148  -0.029138   0.000532  -0.062287  -0.005472
     4  C   -0.003149  -0.001981   0.000532  -0.000981  -0.004571   0.006431
     5  C   -0.025091  -0.026863  -0.062287  -0.004571   0.994316   0.016812
     6  C    0.009050  -0.025982  -0.005472   0.006431   0.016812  -0.083167
     7  H    0.000113   0.001954   0.034269  -0.000160  -0.035280  -0.003527
     8  H    0.000086   0.001648   0.013772  -0.000012  -0.022661   0.003541
     9  H   -0.000007  -0.000128  -0.003656   0.000044  -0.001369   0.002882
    10  H    0.000240  -0.000050  -0.000024   0.000007  -0.000094  -0.000149
    11  H   -0.000727  -0.000985  -0.000067   0.001069  -0.000433   0.000707
    12  H   -0.000500  -0.001240   0.000021   0.000335   0.001302  -0.000328
    13  H   -0.000186   0.000122   0.007303   0.000191  -0.017704   0.010833
               7          8          9         10         11         12
     1  O    0.000113   0.000086  -0.000007   0.000240  -0.000727  -0.000500
     2  O    0.001954   0.001648  -0.000128  -0.000050  -0.000985  -0.001240
     3  C    0.034269   0.013772  -0.003656  -0.000024  -0.000067   0.000021
     4  C   -0.000160  -0.000012   0.000044   0.000007   0.001069   0.000335
     5  C   -0.035280  -0.022661  -0.001369  -0.000094  -0.000433   0.001302
     6  C   -0.003527   0.003541   0.002882  -0.000149   0.000707  -0.000328
     7  H    0.068020  -0.012967  -0.004665  -0.000000  -0.000015   0.000008
     8  H   -0.012967   0.043385   0.002901   0.000000   0.000010  -0.000019
     9  H   -0.004665   0.002901   0.009720  -0.000000   0.000001  -0.000001
    10  H   -0.000000   0.000000  -0.000000  -0.000046   0.000100   0.000056
    11  H   -0.000015   0.000010   0.000001   0.000100   0.002651  -0.000569
    12  H    0.000008  -0.000019  -0.000001   0.000056  -0.000569   0.002501
    13  H    0.000033  -0.000202  -0.000101  -0.000001   0.000006   0.000005
              13
     1  O   -0.000186
     2  O    0.000122
     3  C    0.007303
     4  C    0.000191
     5  C   -0.017704
     6  C    0.010833
     7  H    0.000033
     8  H   -0.000202
     9  H   -0.000101
    10  H   -0.000001
    11  H    0.000006
    12  H    0.000005
    13  H   -0.038131
 Mulliken charges and spin densities:
               1          2
     1  O   -0.208667   0.027235
     2  O   -0.386930   0.216208
     3  C   -0.476526  -0.037321
     4  C   -0.159675  -0.002245
     5  C    0.126954   0.816077
     6  C    0.076828  -0.068369
     7  H    0.151827   0.047782
     8  H    0.154999   0.029484
     9  H    0.135034   0.005621
    10  H    0.129532   0.000040
    11  H    0.134646   0.001748
    12  H    0.134073   0.001571
    13  H    0.187905  -0.037832
 Sum of Mulliken charges =  -0.00000   1.00000
 Mulliken charges and spin densities with hydrogens summed into heavy atoms:
               1          2
     1  O   -0.208667   0.027235
     2  O   -0.386930   0.216208
     3  C   -0.034666   0.045567
     4  C    0.238576   0.001114
     5  C    0.314859   0.778245
     6  C    0.076828  -0.068369
 APT charges:
               1
     1  O   -0.134781
     2  O   -0.375793
     3  C   -1.326046
     4  C   -1.208462
     5  C   -0.142490
     6  C    0.134164
     7  H    0.377680
     8  H    0.330023
     9  H    0.593606
    10  H    0.611344
    11  H    0.344384
    12  H    0.339383
    13  H    0.456988
 Sum of APT charges =  -0.00000
 APT charges with hydrogens summed into heavy atoms:
               1
     1  O   -0.134781
     2  O   -0.375793
     3  C   -0.024737
     4  C    0.086649
     5  C    0.314498
     6  C    0.134164
 Electronic spatial extent (au):  <R**2>=            694.2863
 Charge=             -0.0000 electrons
 Dipole moment (field-independent basis, Debye):
    X=             -1.1481    Y=             -1.4874    Z=              0.0243  Tot=              1.8791
 Quadrupole moment (field-independent basis, Debye-Ang):
   XX=            -27.9237   YY=            -40.7633   ZZ=            -36.4955
   XY=              1.8173   XZ=             -0.0853   YZ=             -0.0199
 Traceless Quadrupole moment (field-independent basis, Debye-Ang):
   XX=              7.1372   YY=             -5.7025   ZZ=             -1.4346
   XY=              1.8173   XZ=             -0.0853   YZ=             -0.0199
 Octapole moment (field-independent basis, Debye-Ang**2):
  XXX=              8.0794  YYY=             -5.6017  ZZZ=              0.5650  XYY=             -2.4337
  XXY=             -0.2013  XXZ=              0.0390  XZZ=              1.8556  YZZ=              2.6468
  YYZ=             -0.4186  XYZ=             -0.1687
 Hexadecapole moment (field-independent basis, Debye-Ang**3):
 XXXX=           -657.8370 YYYY=           -159.7675 ZZZZ=            -50.8870 XXXY=             -3.8552
 XXXZ=              0.2866 YYYX=              2.6267 YYYZ=             -0.4824 ZZZX=             -1.4450
 ZZZY=              0.1520 XXYY=           -140.4450 XXZZ=           -127.2102 YYZZ=            -34.8721
 XXYZ=              1.2555 YYXZ=              0.9904 ZZXY=             -1.1543
 N-N= 2.309184973150D+02 E-N=-1.179903114238D+03  KE= 3.052877702498D+02
  Exact polarizability:   0.000   0.000   0.000   0.000   0.000   0.000
 Approx polarizability:  72.097   1.002  74.435  -0.405   0.120  53.700
                          Isotropic Fermi Contact Couplings
        Atom                 a.u.       MegaHertz       Gauss      10(-4) cm-1
     1  O(17)              0.00341      -2.06937      -0.73840      -0.69027
     2  O(17)              0.04682     -28.38176     -10.12732      -9.46713
     3  C(13)             -0.02974     -33.43488     -11.93040     -11.15267
     4  C(13)             -0.00145      -1.62998      -0.58162      -0.54370
     5  C(13)              0.13173     148.09412      52.84366      49.39888
     6  C(13)             -0.04609     -51.81428     -18.48862     -17.28338
     7  H(1)               0.02693     120.38491      42.95633      40.15608
     8  H(1)               0.01546      69.10255      24.65751      23.05013
     9  H(1)               0.00161       7.18991       2.56554       2.39830
    10  H(1)              -0.00004      -0.19290      -0.06883      -0.06434
    11  H(1)               0.00133       5.93416       2.11745       1.97942
    12  H(1)               0.00132       5.89226       2.10251       1.96545
    13  H(1)              -0.01429     -63.88765     -22.79670     -21.31063
 --------------------------------------------------------
       Center         ----  Spin Dipole Couplings  ----
                      3XX-RR        3YY-RR        3ZZ-RR
 --------------------------------------------------------
     1   Atom       -0.071535     -0.086865      0.158400
     2   Atom       -0.423995     -0.442971      0.866966
     3   Atom       -0.000463     -0.013222      0.013684
     4   Atom        0.003676     -0.003507     -0.000169
     5   Atom       -0.460040     -0.446418      0.906458
     6   Atom        0.023853      0.023936     -0.047789
     7   Atom        0.005173     -0.002392     -0.002782
     8   Atom        0.003381      0.003490     -0.006871
     9   Atom        0.013446     -0.007081     -0.006365
    10   Atom        0.003481     -0.001597     -0.001885
    11   Atom        0.004397     -0.002011     -0.002386
    12   Atom        0.004476     -0.002016     -0.002460
    13   Atom       -0.055945      0.064108     -0.008163
 --------------------------------------------------------
                        XY            XZ            YZ
 --------------------------------------------------------
     1   Atom        0.003873     -0.000693      0.004534
     2   Atom       -0.007305     -0.036321      0.000736
     3   Atom       -0.005203      0.000155      0.000097
     4   Atom       -0.000634      0.000034     -0.000108
     5   Atom        0.002692     -0.004862      0.015471
     6   Atom        0.019077     -0.000583     -0.001099
     7   Atom       -0.008217     -0.006872      0.006298
     8   Atom       -0.008466      0.004705     -0.005156
     9   Atom        0.001093      0.001516     -0.000471
    10   Atom       -0.000795     -0.000021     -0.000001
    11   Atom        0.000463      0.002464      0.000469
    12   Atom        0.000461     -0.002491     -0.000493
    13   Atom        0.002974     -0.000367     -0.001275
 --------------------------------------------------------


 ---------------------------------------------------------------------------------
              Anisotropic Spin Dipole Couplings in Principal Axis System
 ---------------------------------------------------------------------------------

       Atom             a.u.   MegaHertz   Gauss  10(-4) cm-1        Axes

              Baa    -0.0879     6.358     2.269     2.121 -0.2314  0.9727 -0.0186
     1 O(17)  Bbb    -0.0706     5.109     1.823     1.704  0.9729  0.2314 -0.0016
              Bcc     0.1585   -11.468    -4.092    -3.825 -0.0027  0.0184  0.9998
 
              Baa    -0.4456    32.240    11.504    10.754  0.3341  0.9425  0.0087
     2 O(17)  Bbb    -0.4224    30.567    10.907    10.196  0.9421 -0.3342  0.0267
              Bcc     0.8680   -62.807   -22.411   -20.950 -0.0281  0.0007  0.9996
 
              Baa    -0.0151    -2.023    -0.722    -0.675  0.3355  0.9420 -0.0050
     3 C(13)  Bbb     0.0014     0.186     0.067     0.062  0.9420 -0.3355 -0.0093
              Bcc     0.0137     1.837     0.655     0.613  0.0104  0.0016  0.9999
 
              Baa    -0.0036    -0.478    -0.171    -0.160  0.0870  0.9957  0.0307
     4 C(13)  Bbb    -0.0002    -0.022    -0.008    -0.007 -0.0138 -0.0296  0.9995
              Bcc     0.0037     0.501     0.179     0.167  0.9961 -0.0874  0.0111
 
              Baa    -0.4606   -61.808   -22.054   -20.617  0.9813 -0.1925  0.0057
     5 C(13)  Bbb    -0.4461   -59.856   -21.358   -19.966  0.1925  0.9812 -0.0105
              Bcc     0.9067   121.664    43.413    40.583 -0.0035  0.0114  0.9999
 
              Baa    -0.0478    -6.415    -2.289    -2.140  0.0044  0.0142  0.9999
     6 C(13)  Bbb     0.0048     0.647     0.231     0.216  0.7080 -0.7062  0.0069
              Bcc     0.0430     5.768     2.058     1.924  0.7062  0.7079 -0.0131
 
              Baa    -0.0090    -4.805    -1.715    -1.603  0.1480  0.7722 -0.6179
     7 H(1)   Bbb    -0.0062    -3.286    -1.173    -1.096  0.6661  0.3840  0.6394
              Bcc     0.0152     8.091     2.887     2.699  0.7310 -0.5062 -0.4576
 
              Baa    -0.0092    -4.907    -1.751    -1.637 -0.1729  0.2696  0.9473
     8 H(1)   Bbb    -0.0050    -2.674    -0.954    -0.892  0.7259  0.6850 -0.0624
              Bcc     0.0142     7.582     2.705     2.529 -0.6657  0.6769 -0.3141
 
              Baa    -0.0074    -3.974    -1.418    -1.326 -0.0810  0.8677  0.4904
     9 H(1)   Bbb    -0.0062    -3.290    -1.174    -1.097 -0.0395 -0.4944  0.8683
              Bcc     0.0136     7.265     2.592     2.423  0.9959  0.0509  0.0743
 
              Baa    -0.0019    -1.006    -0.359    -0.335  0.0070  0.0215  0.9997
    10 H(1)   Bbb    -0.0017    -0.917    -0.327    -0.306  0.1510  0.9883 -0.0223
              Bcc     0.0036     1.922     0.686     0.641  0.9885 -0.1511 -0.0037
 
              Baa    -0.0033    -1.741    -0.621    -0.581 -0.2838 -0.2422  0.9278
    11 H(1)   Bbb    -0.0020    -1.058    -0.377    -0.353 -0.1500  0.9669  0.2065
              Bcc     0.0052     2.798     0.999     0.933  0.9471  0.0805  0.3108
 
              Baa    -0.0033    -1.785    -0.637    -0.595  0.2808  0.2469  0.9275
    12 H(1)   Bbb    -0.0020    -1.056    -0.377    -0.352 -0.1506  0.9657 -0.2115
              Bcc     0.0053     2.841     1.014     0.948  0.9479  0.0802 -0.3083
 
              Baa    -0.0560   -29.890   -10.666    -9.970  0.9997 -0.0247  0.0070
    13 H(1)   Bbb    -0.0082    -4.366    -1.558    -1.456 -0.0066  0.0179  0.9998
              Bcc     0.0642    34.256    12.224    11.427  0.0248  0.9995 -0.0177
 

 ---------------------------------------------------------------------------------

 No NMR shielding tensors so no spin-rotation constants.
 Leave Link  601 at Sun Mar 10 20:41:45 2019, MaxMem=   671088640 cpu:              13.7 elap:               0.7
 (Enter /shared/centos7/gaussian/g16/l701.exe)
 SCFChk:  SCF convergence  7.20D-09 required  1.00D-08
 ... and contract with generalized density number  0.
 Compute integral second derivatives.
 Entering OneElI...
 Calculate overlap and kinetic energy integrals
    NBasis = 297  MinDer = 2  MaxDer = 2
 Requested accuracy = 0.1000D-12
 PrmmSu-InSpLW:  IPartL=    0 NPrtUS=   20 NPrtUL=    1 DoSpLW=F IThBeg=    0 IThEnd=   19 NThAct=   20.
 PrsmSu:  NPrtUS=  20 ThrOK=T IAlg=1 NPAlg=1 LenDen=           0 ISkipM=0 DoSpLW=F IThBeg=    0 IThEnd=   19.
 Prism:   IPart=     0 DynPar=F LinDyn=F Incr=           1.
 PRISM was handed    33456329 working-precision words and  3446 shell-pairs
 PRISM was handed    33456329 working-precision words and  3446 shell-pairs
 PRISM was handed    33456329 working-precision words and  3446 shell-pairs
 PRISM was handed    33456329 working-precision words and  3446 shell-pairs
 PRISM was handed    33456329 working-precision words and  3446 shell-pairs
 PRISM was handed    33456329 working-precision words and  3446 shell-pairs
 PRISM was handed    33456329 working-precision words and  3446 shell-pairs
 PRISM was handed    33456329 working-precision words and  3446 shell-pairs
 PRISM was handed    33456329 working-precision words and  3446 shell-pairs
 PRISM was handed    33456329 working-precision words and  3446 shell-pairs
 PRISM was handed    33456329 working-precision words and  3446 shell-pairs
 PRISM was handed    33456329 working-precision words and  3446 shell-pairs
 PRISM was handed    33456329 working-precision words and  3446 shell-pairs
 PRISM was handed    33456329 working-precision words and  3446 shell-pairs
 PRISM was handed    33456329 working-precision words and  3446 shell-pairs
 PRISM was handed    33456329 working-precision words and  3446 shell-pairs
 PRISM was handed    33456329 working-precision words and  3446 shell-pairs
 PRISM was handed    33456329 working-precision words and  3446 shell-pairs
 PRISM was handed    33456329 working-precision words and  3446 shell-pairs
 PRISM was handed    33456329 working-precision words and  3446 shell-pairs
 IPart= 12 NShTot=         164 NBatch=          32 AvBLen=         5.1
 IPart= 16 NShTot=         154 NBatch=          30 AvBLen=         5.1
 IPart=  4 NShTot=         186 NBatch=          43 AvBLen=         4.3
 IPart= 10 NShTot=         168 NBatch=          32 AvBLen=         5.3
 IPart= 11 NShTot=         167 NBatch=          32 AvBLen=         5.2
 IPart= 14 NShTot=         161 NBatch=          32 AvBLen=         5.0
 IPart= 15 NShTot=         157 NBatch=          30 AvBLen=         5.2
 IPart= 13 NShTot=         162 NBatch=          32 AvBLen=         5.1
 IPart=  8 NShTot=         175 NBatch=          35 AvBLen=         5.0
 IPart= 17 NShTot=         153 NBatch=          30 AvBLen=         5.1
 IPart=  0 NShTot=         207 NBatch=          61 AvBLen=         3.4
 IPart=  3 NShTot=         189 NBatch=          45 AvBLen=         4.2
 IPart=  1 NShTot=         199 NBatch=          54 AvBLen=         3.7
 IPart= 18 NShTot=         151 NBatch=          30 AvBLen=         5.0
 IPart=  7 NShTot=         177 NBatch=          36 AvBLen=         4.9
 IPart=  5 NShTot=         186 NBatch=          43 AvBLen=         4.3
 IPart=  9 NShTot=         169 NBatch=          32 AvBLen=         5.3
 IPart=  6 NShTot=         180 NBatch=          38 AvBLen=         4.7
 IPart=  2 NShTot=         192 NBatch=          48 AvBLen=         4.0
 IPart= 19 NShTot=         149 NBatch=          30 AvBLen=         5.0
 PrSmSu:  NxtVal=             21.
 Entering OneElI...
 Calculate potential energy integrals
    NBasis = 297  MinDer = 2  MaxDer = 2
 Requested accuracy = 0.1000D-12
 PrmmSu-InSpLW:  IPartL=    0 NPrtUS=   20 NPrtUL=    1 DoSpLW=F IThBeg=    0 IThEnd=   19 NThAct=   20.
 PrsmSu:  NPrtUS=  20 ThrOK=T IAlg=1 NPAlg=1 LenDen=           0 ISkipM=0 DoSpLW=F IThBeg=    0 IThEnd=   19.
 Prism:   IPart=     0 DynPar=F LinDyn=F Incr=          20.
 PRISM was handed    33471534 working-precision words and  3156 shell-pairs
 PRISM was handed    33471534 working-precision words and  3156 shell-pairs
 PRISM was handed    33471534 working-precision words and  3156 shell-pairs
 PRISM was handed    33471534 working-precision words and  3156 shell-pairs
 PRISM was handed    33471534 working-precision words and  3156 shell-pairs
 PRISM was handed    33471534 working-precision words and  3156 shell-pairs
 PRISM was handed    33471534 working-precision words and  3156 shell-pairs
 PRISM was handed    33471534 working-precision words and  3156 shell-pairs
 PRISM was handed    33471534 working-precision words and  3156 shell-pairs
 PRISM was handed    33471534 working-precision words and  3156 shell-pairs
 PRISM was handed    33471534 working-precision words and  3156 shell-pairs
 PRISM was handed    33471534 working-precision words and  3156 shell-pairs
 PRISM was handed    33471534 working-precision words and  3156 shell-pairs
 PRISM was handed    33471534 working-precision words and  3156 shell-pairs
 PRISM was handed    33471534 working-precision words and  3156 shell-pairs
 PRISM was handed    33471534 working-precision words and  3156 shell-pairs
 PRISM was handed    33471534 working-precision words and  3156 shell-pairs
 PRISM was handed    33471534 working-precision words and  3156 shell-pairs
 PRISM was handed    33471534 working-precision words and  3156 shell-pairs
 PRISM was handed    33471534 working-precision words and  3156 shell-pairs
 IPart= 12 NShTot=        1911 NBatch=         147 AvBLen=        13.0
 IPart= 10 NShTot=        1963 NBatch=         151 AvBLen=        13.0
 IPart= 11 NShTot=        1924 NBatch=         148 AvBLen=        13.0
 IPart= 16 NShTot=        1820 NBatch=         140 AvBLen=        13.0
 IPart= 14 NShTot=        1859 NBatch=         143 AvBLen=        13.0
 IPart= 13 NShTot=        1898 NBatch=         146 AvBLen=        13.0
 IPart=  6 NShTot=        2132 NBatch=         164 AvBLen=        13.0
 IPart=  5 NShTot=        2210 NBatch=         170 AvBLen=        13.0
 IPart=  2 NShTot=        2353 NBatch=         181 AvBLen=        13.0
 IPart=  3 NShTot=        2301 NBatch=         177 AvBLen=        13.0
 IPart=  0 NShTot=        2535 NBatch=         195 AvBLen=        13.0
 IPart=  7 NShTot=        2093 NBatch=         161 AvBLen=        13.0
 IPart=  4 NShTot=        2249 NBatch=         173 AvBLen=        13.0
 IPart= 17 NShTot=        1820 NBatch=         140 AvBLen=        13.0
 IPart= 15 NShTot=        1846 NBatch=         142 AvBLen=        13.0
 IPart=  8 NShTot=        2054 NBatch=         158 AvBLen=        13.0
 IPart= 19 NShTot=        1794 NBatch=         138 AvBLen=        13.0
 IPart=  1 NShTot=        2444 NBatch=         188 AvBLen=        13.0
 IPart= 18 NShTot=        1820 NBatch=         140 AvBLen=        13.0
 IPart=  9 NShTot=        2002 NBatch=         154 AvBLen=        13.0
 PrSmSu:  NxtVal=            401.
 Polarizability after L701:
                1             2             3 
      1  0.000000D+00
      2  0.000000D+00  0.000000D+00
      3  0.000000D+00  0.000000D+00  0.000000D+00
 Dipole Derivatives after L701:
                 1             2             3             4             5 
      1   0.149903D+00  0.225446D+00  0.301476D-02 -0.308536D+00 -0.931094D-02
      2  -0.252205D-01 -0.241299D+00  0.972327D-04  0.782013D-01 -0.274372D+00
      3   0.423511D-03  0.361228D-02 -0.312946D+00  0.193872D-02  0.135095D-02
                 6             7             8             9            10 
      1   0.106404D-02 -0.194419D+01  0.561808D+00  0.542618D-02 -0.204283D+01
      2  -0.642252D-02 -0.920081D-01 -0.101173D+01 -0.969067D-02  0.191156D+00
      3  -0.544470D+00 -0.309904D-01 -0.240390D-01 -0.102222D+01 -0.270556D-02
                11            12            13            14            15 
      1  -0.594163D+00 -0.372295D-02  0.312662D+00 -0.765275D+00  0.753993D-01
      2  -0.684494D+00  0.149593D-02 -0.113342D+00 -0.701707D+00 -0.430821D-02
      3   0.246111D-02 -0.898065D+00  0.706200D-01  0.946187D-02 -0.384252D-01
                16            17            18            19            20 
      1  -0.987628D-01 -0.754421D-01 -0.749306D-01  0.375361D+00 -0.550789D+00
      2  -0.293513D-01 -0.508258D-01  0.193194D-01 -0.405100D-01  0.215952D+00
      3  -0.545279D-01  0.125683D-01  0.552082D+00 -0.701299D-01  0.194257D+00
                21            22            23            24            25 
      1  -0.102275D+01  0.196692D+00 -0.861870D+00  0.713169D+00  0.129234D+01
      2   0.185229D+00 -0.130047D-01  0.420293D+00 -0.260309D+00  0.242685D+00
      3   0.541727D+00 -0.444216D-03 -0.266795D+00  0.373084D+00  0.830330D-01
                26            27            28            29            30 
      1   0.972455D+00  0.295585D+00  0.135884D+01 -0.889030D+00 -0.250568D-01
      2   0.357019D+00  0.739688D-01 -0.273382D+00  0.363484D+00  0.656285D-02
      3   0.790407D-01  0.131455D+00 -0.716721D-02  0.647849D-02  0.111710D+00
                31            32            33            34            35 
      1   0.251493D+00  0.665737D+00  0.871432D+00  0.234805D+00  0.686937D+00
      2   0.205654D-01  0.286939D+00  0.216966D+00  0.152796D-01  0.300713D+00
      3   0.514354D-02  0.238417D+00  0.494719D+00  0.170957D-02 -0.246519D+00
                36            37            38            39 
      1  -0.845005D+00  0.222216D+00  0.633498D+00  0.637143D-02
      2  -0.222134D+00  0.389324D-01  0.102003D+01 -0.775196D-03
      3   0.482633D+00  0.309683D-02 -0.102943D-01  0.128716D+00
 Hessian after L701:
                1             2             3             4             5 
      1  0.116190D+01
      2  0.215685D+01  0.876068D+01
      3  0.218971D-01  0.169883D-01  0.142530D+02
      4  0.219916D+00 -0.660435D+00  0.100637D-02  0.126067D+02
      5 -0.789614D+00  0.399504D+00 -0.322190D-02 -0.160726D+01 -0.177926D+01
      6  0.121816D-02 -0.367185D-02 -0.570689D-01  0.208193D-02  0.103719D-01
      7  0.396136D+00 -0.179622D+00 -0.225452D-02  0.373700D+00  0.423444D+00
      8 -0.160251D+00 -0.139565D+00  0.580207D-03  0.442650D+00 -0.645892D-01
      9  0.183744D-02 -0.108291D-02 -0.186064D+00  0.695262D-02  0.873797D-02
     10 -0.103314D+01  0.310995D+01 -0.190532D-01  0.338078D+00 -0.387322D+00
     11  0.307118D+01 -0.425779D+01 -0.847608D-02 -0.503720D+00  0.157146D-01
     12 -0.188574D-01 -0.876603D-02 -0.622604D+01  0.244185D-02 -0.261666D-02
     13  0.418108D+00  0.126359D+00 -0.494755D-02  0.691421D+00  0.653509D+00
     14  0.230013D-01  0.802481D-01  0.147034D-02  0.503842D+00 -0.136790D+00
     15 -0.487445D-02  0.246877D-02  0.180952D+00 -0.302580D-02  0.378519D-02
     16 -0.129607D+01 -0.439299D+01  0.583489D-02 -0.146214D+02  0.174599D+01
     17 -0.428228D+01 -0.496382D+01 -0.814542D-03  0.179675D+01  0.155415D+01
     18  0.455720D-03  0.661238D-04 -0.836744D+01 -0.188224D-01 -0.157871D-01
     19  0.261987D-01 -0.120657D-01 -0.683814D-02  0.539483D-01  0.264584D-01
     20 -0.247370D-01 -0.670319D-02  0.510929D-02 -0.147062D-02 -0.346684D-01
     21 -0.333220D-01  0.981669D-02 -0.616394D-02 -0.656569D-01 -0.262054D-01
     22  0.245914D-01 -0.168525D-01  0.591501D-02  0.861879D-01  0.293039D-01
     23 -0.400279D-01  0.111036D-02 -0.719840D-02 -0.269043D-01 -0.591165D-01
     24  0.269632D-01 -0.112979D-01 -0.993565D-02  0.684564D-01  0.182917D-01
     25  0.414851D-01 -0.981525D-03  0.220237D-02  0.463765D-01  0.479156D-01
     26  0.192256D-01 -0.946413D-02  0.104869D-02  0.397946D-01  0.150876D-01
     27  0.677072D-02  0.382998D-03 -0.109833D-01  0.756981D-02  0.612389D-02
     28  0.469294D-02 -0.832003D-01 -0.477077D-02  0.841396D-01 -0.989112D-01
     29 -0.147935D+00  0.750009D-01  0.224430D-02 -0.690517D-01  0.318673D-01
     30 -0.454944D-02  0.112280D-02  0.411448D-01 -0.108086D-02  0.100002D-02
     31 -0.312951D-01 -0.632192D-01  0.730885D-01  0.780501D-01 -0.480647D-01
     32 -0.545341D-02  0.293196D-01  0.147621D+00  0.611960D-02 -0.603606D-01
     33  0.100566D+00  0.159238D+00  0.235577D+00  0.886213D-01 -0.417158D-01
     34 -0.324858D-01 -0.603329D-01 -0.717328D-01  0.776029D-01 -0.467648D-01
     35 -0.116173D-02  0.372387D-01 -0.154640D+00  0.989972D-02 -0.632736D-01
     36 -0.978900D-01 -0.164767D+00  0.228774D+00 -0.889488D-01  0.407364D-01
     37  0.999675D-01  0.765320D-01 -0.347279D-03 -0.347535D-01  0.513178D-01
     38  0.181209D+00 -0.575672D-02 -0.711921D-03  0.697881D-01  0.181731D+00
     39 -0.215384D-03 -0.497886D-03 -0.757418D-01  0.404531D-03  0.499855D-03
                6             7             8             9            10 
      6  0.163840D+02
      7  0.174048D-01  0.940014D+01
      8  0.824556D-02  0.802163D+00  0.125420D+02
      9 -0.346384D+00 -0.395785D-01  0.844314D-02  0.135744D+02
     10  0.233765D-02 -0.611124D-02  0.451374D-02  0.942337D-03  0.927035D+01
     11 -0.158200D-02 -0.756080D-02 -0.401619D-01  0.259645D-04 -0.177477D+01
     12 -0.330941D+00 -0.109962D-02 -0.843558D-05 -0.395640D-01  0.121501D-01
     13 -0.381140D-02 -0.158487D+01 -0.195435D+01 -0.226310D-01  0.146730D+00
     14  0.357829D-02 -0.202667D+01 -0.488909D+01 -0.882072D-02  0.340537D-01
     15  0.274500D-01 -0.341077D-01 -0.127861D-01 -0.587526D+01 -0.588498D-02
     16 -0.212187D-01  0.928287D-01  0.910195D-01  0.669883D-01  0.658896D+00
     17 -0.116429D-01  0.612443D-01 -0.143466D+00 -0.393102D-02 -0.849099D-01
     18 -0.154888D+02  0.910666D-01 -0.646783D-03 -0.829817D-01  0.898390D-03
     19 -0.223065D-01 -0.329384D+01 -0.327477D+00 -0.598244D+00  0.464846D-02
     20  0.103691D-02 -0.238639D+00 -0.287580D+01  0.995122D+00 -0.265565D-02
[...]
 ! R2    R(1,6)                  1.3491         -DE/DX =    0.0                 !
 ! R3    R(2,6)                  1.2109         -DE/DX =    0.0                 !
 ! R4    R(3,5)                  1.4777         -DE/DX =    0.0                 !
 ! R5    R(3,7)                  1.0932         -DE/DX =    0.0                 !
 ! R6    R(3,8)                  1.087          -DE/DX =    0.0                 !
 ! R7    R(3,9)                  1.0932         -DE/DX =    0.0                 !
 ! R8    R(4,10)                 1.085          -DE/DX =    0.0                 !
 ! R9    R(4,11)                 1.0887         -DE/DX =    0.0                 !
 ! R10   R(4,12)                 1.0887         -DE/DX =    0.0                 !
 ! R11   R(5,6)                  1.4471         -DE/DX =    0.0                 !
 ! R12   R(5,13)                 1.08           -DE/DX =    0.0                 !
 ! A1    A(4,1,6)              115.0115         -DE/DX =    0.0                 !
 ! A2    A(5,3,7)              110.8937         -DE/DX =    0.0                 !
 ! A3    A(5,3,8)              110.4915         -DE/DX =    0.0                 !
 ! A4    A(5,3,9)              110.8936         -DE/DX =    0.0                 !
 ! A5    A(7,3,8)              109.0398         -DE/DX =    0.0                 !
 ! A6    A(7,3,9)              106.3714         -DE/DX =    0.0                 !
 ! A7    A(8,3,9)              109.0397         -DE/DX =    0.0                 !
 ! A8    A(1,4,10)             106.0097         -DE/DX =    0.0                 !
 ! A9    A(1,4,11)             110.4777         -DE/DX =    0.0                 !
 ! A10   A(1,4,12)             110.4777         -DE/DX =    0.0                 !
 ! A11   A(10,4,11)            110.5672         -DE/DX =    0.0                 !
 ! A12   A(10,4,12)            110.5672         -DE/DX =    0.0                 !
 ! A13   A(11,4,12)            108.7334         -DE/DX =    0.0                 !
 ! A14   A(3,5,6)              121.0974         -DE/DX =    0.0                 !
 ! A15   A(3,5,13)             121.2214         -DE/DX =    0.0                 !
 ! A16   A(6,5,13)             117.6812         -DE/DX =    0.0                 !
 ! A17   A(1,6,2)              122.906          -DE/DX =    0.0                 !
 ! A18   A(1,6,5)              112.0571         -DE/DX =    0.0                 !
 ! A19   A(2,6,5)              125.0368         -DE/DX =    0.0                 !
 ! D1    D(6,1,4,10)          -179.9999         -DE/DX =    0.0                 !
 ! D2    D(6,1,4,11)            60.1795         -DE/DX =    0.0                 !
 ! D3    D(6,1,4,12)           -60.1793         -DE/DX =    0.0                 !
 ! D4    D(4,1,6,2)              0.0            -DE/DX =    0.0                 !
 ! D5    D(4,1,6,5)            180.0            -DE/DX =    0.0                 !
 ! D6    D(7,3,5,6)           -121.0269         -DE/DX =    0.0                 !
 ! D7    D(7,3,5,13)            58.9732         -DE/DX =    0.0                 !
 ! D8    D(8,3,5,6)             -0.0004         -DE/DX =    0.0                 !
 ! D9    D(8,3,5,13)           179.9996         -DE/DX =    0.0                 !
 ! D10   D(9,3,5,6)            121.0259         -DE/DX =    0.0                 !
 ! D11   D(9,3,5,13)           -58.974          -DE/DX =    0.0                 !
 ! D12   D(3,5,6,1)           -179.9999         -DE/DX =    0.0                 !
 ! D13   D(3,5,6,2)              0.0001         -DE/DX =    0.0                 !
 ! D14   D(13,5,6,1)             0.0            -DE/DX =    0.0                 !
 ! D15   D(13,5,6,2)           180.0            -DE/DX =    0.0                 !
 --------------------------------------------------------------------------------
 GradGradGradGradGradGradGradGradGradGradGradGradGradGradGradGradGradGrad

 Leave Link  103 at Sun Mar 10 21:16:34 2019, MaxMem=   671088640 cpu:               0.4 elap:               0.0
 (Enter /shared/centos7/gaussian/g16/l9999.exe)

 ----------------------------------------------------------------------

 Electric dipole moment (input orientation):
 (Debye = 10**-18 statcoulomb cm , SI units = C m)
                  (au)            (Debye)         (10**-30 SI)
   Tot        0.699490D+00      0.177793D+01      0.593053D+01
   x          0.368992D+00      0.937885D+00      0.312845D+01
   y          0.314379D+00      0.799072D+00      0.266542D+01
   z         -0.504279D+00     -0.128175D+01     -0.427545D+01

 Dipole polarizability, Alpha (input orientation).
 (esu units = cm**3 , SI units = C**2 m**2 J**-1)
 Alpha(0;0):
               (au)            (10**-24 esu)      (10**-40 SI)
   iso        0.558307D+02      0.827325D+01      0.920524D+01
   aniso      0.270841D+02      0.401345D+01      0.446556D+01
   xx         0.653992D+02      0.969116D+01      0.107829D+02
   yx        -0.114292D+02     -0.169364D+01     -0.188442D+01
   yy         0.541332D+02      0.802172D+01      0.892536D+01
   zx        -0.419784D+01     -0.622055D+00     -0.692130D+00
   zy        -0.425106D+01     -0.629942D+00     -0.700905D+00
   zz         0.479596D+02      0.710689D+01      0.790748D+01

 ----------------------------------------------------------------------

 Dipole orientation:
     8         -2.73256420          0.09367377          0.19611373
     8         -0.68391068          1.71295806         -3.15880410
     6          2.75689990          4.43264367          0.18453611
     6         -4.35398932         -1.18793436         -1.52272878
     6          0.65314166          2.76979640          0.96357887
     6         -0.92340006          1.52366643         -0.89099068
     1          4.55525561          3.74594234          0.93427548
     1          2.87749964          4.52798749         -1.86389565
     1          2.50411492          6.34096677          0.93430431
     1         -5.68367935         -2.23894191         -0.36908104
     1         -3.27049330         -2.46283125         -2.71979568
     1         -5.34418247          0.16070411         -2.71980299
     1          0.23812926          2.44176211          2.93482371

 Electric dipole moment (dipole orientation):
 (Debye = 10**-18 statcoulomb cm , SI units = C m)
                  (au)            (Debye)         (10**-30 SI)
   Tot        0.699490D+00      0.177793D+01      0.593053D+01
   x          0.000000D+00      0.000000D+00      0.000000D+00
   y          0.000000D+00      0.000000D+00      0.000000D+00
   z          0.699490D+00      0.177793D+01      0.593053D+01

 Dipole polarizability, Alpha (dipole orientation).
 (esu units = cm**3 , SI units = C**2 m**2 J**-1)
 Alpha(0;0):
               (au)            (10**-24 esu)      (10**-40 SI)
   iso        0.558307D+02      0.827325D+01      0.920524D+01
   aniso      0.270841D+02      0.401345D+01      0.446556D+01
   xx         0.598775D+02      0.887293D+01      0.987247D+01
   yx         0.144308D+02      0.213843D+01      0.237932D+01
   yy         0.530267D+02      0.785774D+01      0.874292D+01
   zx         0.379301D+01      0.562067D+00      0.625384D+00
   zy         0.299809D+01      0.444272D+00      0.494319D+00
   zz         0.545879D+02      0.808909D+01      0.900032D+01

 ----------------------------------------------------------------------

 Test job not archived.
 1\1\GINC-C0044\Freq\UM062X\6-311+G(2df,2p)\C4H7O2(2)\UNDERKOFFLER.C\10
 -Mar-2019\0\\#P Geom=AllCheck Guess=TCheck SCRF=Check Test GenChk UM06
 2X/6-311+G(2df,2p) Freq\\Gaussian input prepared by ASE\\0,2\O,-1.1506
 167636,0.2021038382,-0.8598891234\O,-1.0602871411,-1.501471552,0.60675
 91513\C,1.5976541279,-2.227426615,-0.3550445484\C,-2.4431434544,0.5101
 056027,-0.3519677653\C,0.7606496081,-1.1121169391,-0.844028218\C,-0.54
 72680361,-0.856238358,-0.2802362453\H,2.5546479663,-1.8594860276,0.024
 263435\H,1.0862856329,-2.7679363789,0.4374135731\H,1.8339368385,-2.921
 9866828,-1.1655064035\H,-2.7875881895,1.3723084765,-0.9132971458\H,-2.
 389599301,0.7418708015,0.7103792545\H,-3.1182446911,-0.332311011,-0.49
 24520527\H,1.102903312,-0.4598198134,-1.6338833357\\Version=EM64L-G16R
 evA.03\State=2-A\HF=-307.020178\S2=0.758368\S2-1=0.\S2A=0.75005\RMSD=8
 .233e-09\RMSF=4.003e-07\ZeroPoint=0.1058567\Thermal=0.1131039\Dipole=0
 .3689923,0.3143792,-0.5042787\DipoleDeriv=-1.1765708,0.6397491,-0.0318
 387,0.6996531,-1.0376294,0.2474066,-0.0853358,0.283695,-0.4876575,-0.7
 614531,-0.0420333,0.2830431,0.0189953,-0.6724633,0.2709505,0.228542,0.
 3079202,-0.7696082,-0.1277297,0.115205,0.0169644,0.0541131,-0.0314201,
 0.057894,0.0715176,0.0208883,0.008136,0.7357737,-0.2602261,-0.0478856,
 -0.1524752,0.3593239,0.0153595,-0.144112,0.0806323,0.2883864,-0.207947
 6,0.0002458,0.033857,-0.0818176,0.0789912,-0.1564503,0.1071456,-0.2061
 628,-0.0324893,1.4637825,-0.533484,-0.2358365,-0.6371696,1.2367956,-0.
 4613394,-0.1432409,-0.5241495,0.8428559,-0.0506832,-0.023618,-0.045226
 3,-0.0186855,0.0282834,-0.0238547,-0.0896791,0.0150626,0.077946,0.0711
 646,-0.0464859,0.0469682,0.0054044,0.0433839,0.0295775,0.0006294,0.061
 0104,0.0253054,0.0707722,0.0277686,0.0122503,0.0858588,-0.0058046,-0.0
 621221,0.0004224,-0.0628629,-0.0094215,0.0185089,0.0456865,-0.0003745,
 0.0825158,-0.0376902,0.0597985,-0.0332646,0.0821087,0.0320667,-0.01721
 43,0.0277725,-0.0541711,0.0144289,0.0493137,-0.0174663,0.0417267,-0.07
 84576,-0.0713566,-0.0537319,0.0202456,-0.0065869,-0.092012,-0.0393351,
 -0.0341578,0.0096828,-0.0492527,0.0538099,0.0353287,0.0291742,0.028836
 7,0.0211906,0.0282512,0.074404,0.0359658,0.0695681,0.0420267\Polar=65.
 3992039,-11.4292175,54.1332204,-4.1978372,-4.2510591,47.9596404\Quadru
 pole=3.4146757,-0.7769566,-2.6377191,-3.1769017,0.1566231,1.7161649\PG
 =C01 [X(C4H7O2)]\NImag=0\\0.43182104,-0.16000837,0.32729184,-0.0711875
 5,-0.12532535,0.23346374,0.02873023,0.00589538,-0.00617206,0.22532142,
 0.00180419,-0.04915548,0.06712493,0.13743664,0.28739227,-0.00251847,0.
 06464661,-0.02897409,-0.23919099,-0.31036625,0.45514795,-0.00446961,0.
 00270492,0.00176065,-0.00010402,0.00090516,-0.00112314,0.53542223,-0.0
 0082959,0.00198344,0.00089641,-0.00149667,-0.00184799,0.00199999,0.021
 67494,0.51242066,0.00491711,-0.00124467,0.00055738,0.00102178,0.000544
 93,-0.00172933,-0.03649803,-0.01785728,0.54518331,-0.19809795,0.032998
 06,0.05032125,-0.00254704,-0.01217369,0.00866925,0.00073716,-0.0002749
 7,0.00008506,0.49677025,0.01316070,-0.08289780,0.00677652,0.00136138,-
 0.00066472,-0.00575247,0.00062764,0.00045501,-0.00036486,0.01222520,0.
 61488194,0.06803690,-0.00524047,-0.10291753,-0.00341816,0.00244674,-0.
 00629710,-0.00072102,0.00018192,0.00074652,0.04553474,-0.02966163,0.58
 886588,-0.03634046,0.02892400,0.00227494,-0.02710462,-0.01983391,0.045
 42883,-0.13011183,0.07904288,-0.02103457,0.00526508,0.00086331,-0.0016
 0443,0.50344123,0.04439874,-0.01472210,-0.00476836,-0.02263367,0.00998
 952,0.02144404,0.07207430,-0.16822121,0.06342574,0.00055623,-0.0017779
 6,0.00472412,-0.11287727,0.43691355,-0.01154466,0.00460579,0.01293553,
 0.04792914,0.01974806,-0.02802130,-0.01481144,0.05920459,-0.09220864,-
 0.00133019,0.00453809,0.00064232,-0.14582404,-0.23579395,0.39522103,-0
 .14548677,0.05594501,-0.00081209,-0.21958066,-0.11245046,0.18812862,-0
 .01000194,0.00995642,0.00096836,-0.03982567,0.04271998,-0.01228045,-0.
 21371168,0.03760972,0.05799269,0.62848259,0.07906591,-0.18359164,0.058
 59001,-0.12376584,-0.25023052,0.23164277,0.01986576,0.00001202,-0.0064
 4187,0.03607692,-0.01725549,-0.00387208,0.04905502,-0.08727411,-0.0076
 2154,-0.03030733,0.53349881,-0.02146006,0.07259607,-0.11618364,0.19823
 377,0.22478820,-0.39562895,-0.00788142,-0.00043903,0.01144048,-0.00634
 789,-0.00789628,0.01377772,0.04777172,-0.00068833,-0.09085715,-0.23844
 002,-0.28822950,0.59203311,-0.00110693,0.00087605,0.00028840,-0.000213
 00,0.00022745,0.00025207,-0.24095288,-0.08529194,-0.07870480,0.0002439
 4,0.00011668,-0.00010796,-0.01929604,0.00062591,-0.00501104,0.00028360
 ,0.00052814,-0.00263530,0.26679520,0.00117785,-0.00111263,-0.00052071,
 0.00040043,0.00108071,-0.00089034,-0.07867510,-0.07270247,-0.02566707,
 -0.00015391,-0.00010930,0.00012955,0.02574412,0.00694770,0.00633091,-0
 .00155341,-0.00227336,0.00252384,0.08485761,0.08139814,-0.00061613,0.0
 0060156,0.00012229,-0.00024027,-0.00119705,0.00081898,-0.08029254,-0.0
 2838418,-0.07527783,0.00017913,-0.00000300,-0.00000655,-0.00906863,-0.
 00207257,-0.00233778,0.00217595,-0.00008056,-0.00264260,0.08868999,0.0
 3323165,0.07797802,0.00075766,-0.00111006,0.00060977,-0.00145282,-0.00
 039769,0.00068295,-0.11094019,-0.06673775,0.09743844,-0.00020912,0.000
 01070,0.00015125,0.01154471,0.00955399,-0.01637043,0.00005379,0.001548
 26,-0.00158178,-0.01159775,-0.01197603,0.02056017,0.11741941,-0.000169
 05,0.00069422,-0.00040346,-0.00019764,0.00151846,-0.00205048,-0.063418
 70,-0.11547420,0.09824961,0.00006362,0.00008002,-0.00005969,-0.0121679
 6,-0.01548905,0.01995729,-0.00231678,-0.00140692,0.00241436,-0.0042078
 8,-0.00589431,0.00727165,0.06817561,0.12565904,-0.00023059,0.00016659,
 0.00011869,0.00050431,-0.00192926,0.00050573,0.09447447,0.10026015,-0.
 19523807,0.00010399,-0.00002763,0.00001802,0.00302796,0.00679908,-0.00
 930108,0.00186978,0.00007298,-0.00147282,-0.00561315,-0.00708142,0.010
 49267,-0.10350946,-0.11149780,0.20932328,-0.00125793,0.00038210,-0.000
 08377,-0.00036226,0.00005049,-0.00010399,-0.04913873,0.03396073,0.0456
 1552,0.00009857,0.00007546,-0.00019736,-0.00973752,0.01403497,0.012674
 78,-0.00007985,0.00178740,-0.00123654,0.00537212,-0.01891511,-0.021761
 57,-0.00338135,0.01055128,0.01014448,0.05821938,0.00173375,-0.00069316
 ,0.00021572,0.00027187,0.00095470,-0.00126415,0.03324742,-0.14878087,-
 0.12444560,-0.00021506,0.00005571,0.00025057,0.01077105,-0.01613198,-0
 .01557666,-0.00348237,-0.00247096,0.00228595,0.00150048,-0.00766091,-0
 .00978057,-0.00242234,0.01209124,0.01192426,-0.04161557,0.16181004,-0.
 00065586,0.00009506,-0.00014617,0.00003615,-0.00071852,0.00109426,0.04
 193145,-0.11815267,-0.19101431,0.00001666,0.00004321,-0.00002620,-0.00
 278439,0.00606549,0.01118352,0.00051708,0.00043716,-0.00208165,0.00243
 118,-0.00781731,-0.00970764,0.00249425,-0.01499329,-0.01570917,-0.0446
 5325,0.13548087,0.20614245,-0.02411697,0.03426513,-0.01594484,0.002307
 16,-0.00006040,-0.00090335,-0.00036265,-0.00008839,0.00026111,-0.06941
 900,0.05712119,-0.04119758,-0.00058167,0.00139460,-0.00079270,-0.00454
 541,-0.00295337,0.00558611,-0.00007346,0.00009118,-0.00002960,0.000036
 83,-0.00001898,-0.00000530,-0.00007240,0.00008446,-0.00002798,0.087772
 45,0.00596002,-0.00612206,0.00192463,0.00081755,0.00026145,-0.00007960
 ,0.00010507,-0.00000902,-0.00011089,0.06642025,-0.22822028,0.11604910,
 0.00017822,-0.00019383,0.00021312,-0.00028940,0.00128091,-0.00068095,0
 .00003179,-0.00002405,0.00001450,-0.00002608,0.00002504,-0.00000648,0.
 00003252,-0.00003517,0.00001553,-0.07716688,0.24188049,0.00933288,-0.0
 1522191,0.00801611,-0.00168740,0.00045224,0.00134520,0.00008834,0.0000
 0630,-0.00012107,-0.04950205,0.12168224,-0.13189851,0.00029359,-0.0005
 2373,0.00045558,0.00320706,0.00093282,-0.00245371,0.00001781,-0.000016
 46,0.00000802,0.00000103,-0.00001078,0.00000909,0.00002403,-0.00002096
 ,0.00001808,0.04436204,-0.12707368,0.13385254,-0.01196300,0.01466515,0
 .03944674,0.00031243,0.00162476,-0.00144771,-0.00007923,-0.00001424,-0
 .00000118,-0.05172049,-0.00694160,-0.03019914,-0.00091511,-0.00034959,
 -0.00041950,0.00214477,-0.00431438,0.00419770,-0.00005216,0.00004800,-
 0.00003751,-0.00000191,0.00002261,-0.00002389,-0.00001846,0.00003418,-
 0.00002378,0.00022560,-0.00372386,-0.00839374,0.06135749,0.00511855,-0
 .00318714,-0.00735887,-0.00149458,-0.00059447,0.00137731,0.00001746,0.
 00000205,-0.00001374,-0.00477855,-0.06280206,-0.05255764,0.00021463,0.
 00004213,0.00025306,0.00038174,0.00305046,-0.00384301,0.00000758,-0.00
 001192,0.00001805,0.00003162,-0.00003203,0.00000758,-0.00000087,-0.000
 01365,0.00001759,0.00136727,0.00794883,0.02523686,0.00201476,0.0604640
 5,0.01247942,-0.00528315,-0.00898998,-0.00093829,-0.00012321,0.0013728
 7,0.00003932,0.00002414,-0.00000763,-0.02210621,-0.05632921,-0.3058079
 6,0.00050804,-0.00050769,-0.00027174,-0.00214834,0.00390248,-0.0016258
 4,0.00003892,-0.00002943,0.00002052,-0.00001442,-0.00001462,0.00001282
 ,0.00001106,-0.00001527,0.00000536,-0.00232370,-0.00382575,-0.01267746
 ,0.01615462,0.06213359,0.33130426,-0.03812179,-0.01623115,0.00065807,0
 .00160864,0.00163140,-0.00219940,-0.00004875,0.00002669,0.00006706,-0.
 14134113,-0.12140213,-0.02377772,-0.00053377,0.00071421,0.00051219,0.0
 0174745,-0.00756575,0.00447998,-0.00001545,0.00004167,-0.00002337,-0.0
 0001053,0.00003687,-0.00002929,-0.00004140,0.00008164,-0.00001452,0.00
 884699,0.00761951,0.00227266,0.00057204,-0.00275937,-0.00163662,0.1671
 9641,0.00790903,0.01223016,0.00372483,0.00060820,-0.00030182,0.0005859
 1,0.00001207,-0.00001180,0.00000379,-0.13035570,-0.22189570,-0.0322897
 4,-0.00051988,-0.00030123,-0.00051400,0.00164943,0.00098956,-0.0003673
 0,-0.00000282,-0.00001204,0.00000765,0.00001594,-0.00001537,-0.0000052
 7,-0.00000493,-0.00000414,0.00000511,-0.01404371,-0.01678472,-0.005459
 72,-0.00309336,-0.00486506,0.00008721,0.13784435,0.23092720,0.01459267
 ,0.01048954,0.00175153,0.00099066,-0.00042302,-0.00021600,0.00001131,-
 0.00002375,-0.00002426,-0.02580642,-0.03263170,-0.05709367,0.00018286,
 -0.00015904,-0.00030973,-0.00159737,0.00031434,0.00083237,0.00001282,-
 0.00000766,0.00000073,-0.00002812,0.00000971,0.00000478,0.00002246,-0.
 00002434,0.00000198,0.01100224,0.01356393,0.00343470,-0.01923714,-0.02
 530844,-0.00338678,0.01982439,0.03419791,0.05500219,-0.00034752,0.0006
 9378,-0.00115949,-0.00691547,0.00123606,0.00432533,0.01005045,0.010071
 90,-0.01413586,0.00004541,0.00006149,-0.00021910,-0.08191831,-0.045102
 15,0.07699518,0.00051978,-0.01902073,0.01931374,0.00061279,-0.00108729
 ,0.00046437,-0.00221873,0.00364700,-0.00071331,0.00039984,0.00001049,0
 .00073300,-0.00001748,0.00004130,-0.00001626,0.00013802,-0.00012024,-0
 .00006380,0.00014129,-0.00001860,0.00002963,0.07950992,0.00067828,-0.0
 0071765,-0.00087630,0.00279695,0.00159790,-0.00129334,-0.00914095,-0.0
 0782562,0.01392192,-0.00038840,0.00015064,-0.00010075,-0.04939420,-0.1
 4978143,0.14465524,0.00213746,0.00567124,-0.00246404,0.00073096,0.0003
 7445,0.00037287,0.00333385,-0.00175614,0.00131723,-0.00033848,0.000879
 15,-0.00047826,0.00000791,-0.00000759,0.00001678,0.00002758,-0.0000011
 8,-0.00001910,-0.00003794,0.00004497,0.00000253,0.04958698,0.15137125,
 -0.00114566,-0.00088567,0.00024615,0.00293137,-0.00034780,0.00058177,0
 .00302205,0.00228341,-0.00230656,0.00018267,-0.00037329,-0.00000294,0.
 08082810,0.14205521,-0.19713056,0.00041872,0.01035299,-0.00513733,0.00
 034105,-0.00018555,0.00053117,-0.00043367,0.00112749,0.00123606,-0.000
 45585,0.00097017,0.00023948,0.00001356,-0.00000345,0.00001143,-0.00001
 547,0.00003768,0.00005156,-0.00013344,0.00002359,0.00000215,-0.0855534
 3,-0.15505478,0.20167762\\0.00000036,-0.00000023,-0.00000005,-0.000000
 37,0.00000015,0.00000012,-0.00000030,-0.00000035,0.00000043,0.00000035
 ,0.00000040,-0.00000055,-0.00000005,-0.00000036,0.00000034,0.,0.000000
 62,-0.00000056,-0.00000023,-0.00000050,0.00000059,-0.00000052,-0.00000
 015,0.00000047,-0.00000020,-0.00000048,0.00000058,0.00000049,0.0000003
 7,-0.00000062,0.00000009,0.00000051,-0.00000050,0.00000009,0.00000050,
 -0.00000051,0.00000028,-0.00000048,0.00000028\\\@


 ... A MOLECULAR SYSTEM ... (PASSES) ... FROM ONE STATE OF EQUILIBRIUM 
 TO ANOTHER ... BY MEANS OF ALL POSSIBLE INTERMEDIATE PATHS, 
 BUT THE PATH MOST ECONOMICAL OF ENERGY WILL BE THE MORE OFTEN TRAVELED.

                      -- HENRY EYRING, 1945
 Job cpu time:       0 days  3 hours  1 minutes 56.0 seconds.
 Elapsed time:       0 days  0 hours  9 minutes  6.5 seconds.
 File lengths (MBytes):  RWF=   1392 Int=      0 D2E=      0 Chk=     32 Scr=     32
 Normal termination of Gaussian 16 at Sun Mar 10 21:16:34 2019.
