 Entering Gaussian System, Link 0=g16
 Input=DUEVIJNWLJUFDM-UHFFFAOYSA-N_72by10.0_tor03_a1.com
 Output=DUEVIJNWLJUFDM-UHFFFAOYSA-N_72by10.0_tor03_a1.log
 Initial command:
 /shared/centos7/gaussian/g16/l1.exe "/scratch/underkoffler.c/gaussian_scratch/Gau-10925.inp" -scrdir="/scratch/underkoffler.c/gaussian_scratch/"
 Entering Link 1 = /shared/centos7/gaussian/g16/l1.exe PID=     10926.
  
 Copyright (c) 1988,1990,1992,1993,1995,1998,2003,2009,2016,
            Gaussian, Inc.  All Rights Reserved.
  
 This is part of the Gaussian(R) 16 program.  It is based on
 the Gaussian(R) 09 system (copyright 2009, Gaussian, Inc.),
 the Gaussian(R) 03 system (copyright 2003, Gaussian, Inc.),
 the Gaussian(R) 98 system (copyright 1998, Gaussian, Inc.),
 the Gaussian(R) 94 system (copyright 1995, Gaussian, Inc.),
 the Gaussian 92(TM) system (copyright 1992, Gaussian, Inc.),
 the Gaussian 90(TM) system (copyright 1990, Gaussian, Inc.),
 the Gaussian 88(TM) system (copyright 1988, Gaussian, Inc.),
 the Gaussian 86(TM) system (copyright 1986, Carnegie Mellon
 University), and the Gaussian 82(TM) system (copyright 1983,
 Carnegie Mellon University). Gaussian is a federally registered
 trademark of Gaussian, Inc.
  
 This software contains proprietary and confidential information,
 including trade secrets, belonging to Gaussian, Inc.
  
 This software is provided under written license and may be
 used, copied, transmitted, or stored only in accord with that
 written license.
  
 The following legend is applicable only to US Government
 contracts under FAR:
  
                    RESTRICTED RIGHTS LEGEND
  
 Use, reproduction and disclosure by the US Government is
 subject to restrictions as set forth in subparagraphs (a)
 and (c) of the Commercial Computer Software - Restricted
 Rights clause in FAR 52.227-19.
  
 Gaussian, Inc.
 340 Quinnipiac St., Bldg. 40, Wallingford CT 06492
  
  
 ---------------------------------------------------------------
 Warning -- This program may not be used in any manner that
 competes with the business of Gaussian, Inc. or will provide
 assistance to any competitor of Gaussian, Inc.  The licensee
 of this program is prohibited from giving any competitor of
 Gaussian, Inc. access to this program.  By using this program,
 the user acknowledges that Gaussian, Inc. is engaged in the
 business of creating and licensing software in the field of
 computational chemistry and represents and warrants to the
 licensee that it is not a competitor of Gaussian, Inc. and that
 it will not use this program in any manner prohibited above.
 ---------------------------------------------------------------
  

 Cite this work as:
 Gaussian 16, Revision A.03,
 M. J. Frisch, G. W. Trucks, H. B. Schlegel, G. E. Scuseria, 
 M. A. Robb, J. R. Cheeseman, G. Scalmani, V. Barone, 
 G. A. Petersson, H. Nakatsuji, X. Li, M. Caricato, A. V. Marenich, 
 J. Bloino, B. G. Janesko, R. Gomperts, B. Mennucci, H. P. Hratchian, 
 J. V. Ortiz, A. F. Izmaylov, J. L. Sonnenberg, D. Williams-Young, 
 F. Ding, F. Lipparini, F. Egidi, J. Goings, B. Peng, A. Petrone, 
 T. Henderson, D. Ranasinghe, V. G. Zakrzewski, J. Gao, N. Rega, 
 G. Zheng, W. Liang, M. Hada, M. Ehara, K. Toyota, R. Fukuda, 
 J. Hasegawa, M. Ishida, T. Nakajima, Y. Honda, O. Kitao, H. Nakai, 
 T. Vreven, K. Throssell, J. A. Montgomery, Jr., J. E. Peralta, 
 F. Ogliaro, M. J. Bearpark, J. J. Heyd, E. N. Brothers, K. N. Kudin, 
 V. N. Staroverov, T. A. Keith, R. Kobayashi, J. Normand, 
 K. Raghavachari, A. P. Rendell, J. C. Burant, S. S. Iyengar, 
 J. Tomasi, M. Cossi, J. M. Millam, M. Klene, C. Adamo, R. Cammi, 
 J. W. Ochterski, R. L. Martin, K. Morokuma, O. Farkas, 
 J. B. Foresman, and D. J. Fox, Gaussian, Inc., Wallingford CT, 2016.
 
 ******************************************
 Gaussian 16:  EM64L-G16RevA.03 25-Dec-2016
                11-Mar-2019 
 ******************************************
 %nprocshared=20
 Will use up to   20 processors via shared memory.
 %mem=5GB
 ----------------------------------------------
 #p m062x/6-311+g(2df,2p) Opt=(CalcFC,ModRedun)
 ----------------------------------------------
 1/10=4,18=120,19=15,26=3,38=1/1,3;
 2/9=110,12=2,17=6,18=5,40=1/2;
 3/5=4,6=6,7=214,11=2,25=1,30=1,71=2,74=-55,140=1/1,2,3;
 4//1;
 5/5=2,38=5/2;
 8/6=4,10=90,11=11/1;
 11/6=1,8=1,9=11,15=111,16=1/1,2,10;
 10/6=1,13=1/2;
 6/7=2,8=2,9=2,10=2,28=1/1;
 7/10=1,18=20,25=1/1,2,3,16;
 1/10=4,18=20,19=15,26=3/3(2);
 2/9=110/2;
 99//99;
 2/9=110/2;
 3/5=4,6=6,7=214,11=2,25=1,30=1,71=1,74=-55/1,2,3;
 4/5=5,16=3,69=1/1;
 5/5=2,38=5/2;
 7//1,2,3,16;
 1/18=20,19=15,26=3/3(-5);
 2/9=110/2;
 6/7=2,8=2,9=2,10=2,19=2,28=1/1;
 99/9=1/99;
 Leave Link    1 at Mon Mar 11 00:00:44 2019, MaxMem=   671088640 cpu:              29.4 elap:               1.5
 (Enter /shared/centos7/gaussian/g16/l101.exe)
 ----------------------------------------
 Gaussian Input Prepared from Scan Object
 ----------------------------------------
 Symbolic Z-matrix:
 Charge =  0 Multiplicity = 2
 O                     1.36528  -0.04843   0.65762 
 O                     0.80012  -0.54883  -1.46171 
 C                    -1.76863  -1.59991  -0.55976 
 C                     2.60162   0.45024   0.16136 
 C                    -0.70733  -1.0235    0.29171 
 C                     0.52785  -0.53434  -0.28191 
 H                    -1.98823  -2.62963  -0.26559 
 H                    -1.46801  -1.58595  -1.60431 
 H                    -2.70246  -1.04225  -0.44993 
 H                     3.15313   0.79905   1.02813 
 H                     2.42986   1.26754  -0.53697 
 H                     3.15195  -0.33728  -0.35061 
 H                    -0.82583  -0.95243   1.36288 
 
 The following ModRedundant input section has been read:
 B       1       6 B                                                           
 B       2       6 B                                                           
 B       3       9 B                                                           
 B       4      12 B                                                           
 B       3       7 B                                                           
 B       3       5 B                                                           
 B       3       8 B                                                           
 B       5      13 B                                                           
 B       1       4 B                                                           
 B       4      10 B                                                           
 B       4      11 B                                                           
 B       5       6 B                                                           
 D      13       1       4      10 S  72 10.000                                
 
 ITRead=  0  0  0  0  0  0  0  0  0  0  0  0  0
 MicOpt= -1 -1 -1 -1 -1 -1 -1 -1 -1 -1 -1 -1 -1
 NAtoms=     13 NQM=       13 NQMF=       0 NMMI=      0 NMMIF=      0
                NMic=       0 NMicF=      0.
                    Isotopes and Nuclear Properties:
 (Nuclear quadrupole moments (NQMom) in fm**2, nuclear magnetic moments (NMagM)
  in nuclear magnetons)

  Atom         1           2           3           4           5           6           7           8           9          10
 IAtWgt=          16          16          12          12          12          12           1           1           1           1
 AtmWgt=  15.9949146  15.9949146  12.0000000  12.0000000  12.0000000  12.0000000   1.0078250   1.0078250   1.0078250   1.0078250
 NucSpn=           0           0           0           0           0           0           1           1           1           1
 AtZEff=  -0.0000000  -0.0000000  -0.0000000  -0.0000000  -0.0000000  -0.0000000  -0.0000000  -0.0000000  -0.0000000  -0.0000000
 NQMom=    0.0000000   0.0000000   0.0000000   0.0000000   0.0000000   0.0000000   0.0000000   0.0000000   0.0000000   0.0000000
 NMagM=    0.0000000   0.0000000   0.0000000   0.0000000   0.0000000   0.0000000   2.7928460   2.7928460   2.7928460   2.7928460
 AtZNuc=   8.0000000   8.0000000   6.0000000   6.0000000   6.0000000   6.0000000   1.0000000   1.0000000   1.0000000   1.0000000

  Atom        11          12          13
 IAtWgt=           1           1           1
 AtmWgt=   1.0078250   1.0078250   1.0078250
 NucSpn=           1           1           1
 AtZEff=  -0.0000000  -0.0000000  -0.0000000
 NQMom=    0.0000000   0.0000000   0.0000000
 NMagM=    2.7928460   2.7928460   2.7928460
 AtZNuc=   1.0000000   1.0000000   1.0000000
 Leave Link  101 at Mon Mar 11 00:00:44 2019, MaxMem=   671088640 cpu:               5.5 elap:               0.3
 (Enter /shared/centos7/gaussian/g16/l103.exe)

 GradGradGradGradGradGradGradGradGradGradGradGradGradGradGradGradGradGrad
 Berny optimization.
 Initialization pass.
                           ----------------------------
                           !    Initial Parameters    !
                           ! (Angstroms and Degrees)  !
 --------------------------                            --------------------------
 ! Name  Definition              Value          Derivative Info.                !
 --------------------------------------------------------------------------------
 ! R1    R(1,4)                  1.4225         calculate D2E/DX2 analytically  !
 ! R2    R(1,6)                  1.3491         calculate D2E/DX2 analytically  !
 ! R3    R(2,6)                  1.2109         calculate D2E/DX2 analytically  !
 ! R4    R(3,5)                  1.4777         calculate D2E/DX2 analytically  !
 ! R5    R(3,7)                  1.0932         calculate D2E/DX2 analytically  !
 ! R6    R(3,8)                  1.087          calculate D2E/DX2 analytically  !
 ! R7    R(3,9)                  1.0932         calculate D2E/DX2 analytically  !
 ! R8    R(4,10)                 1.085          calculate D2E/DX2 analytically  !
 ! R9    R(4,11)                 1.0887         calculate D2E/DX2 analytically  !
 ! R10   R(4,12)                 1.0887         calculate D2E/DX2 analytically  !
 ! R11   R(5,6)                  1.4471         calculate D2E/DX2 analytically  !
 ! R12   R(5,13)                 1.08           calculate D2E/DX2 analytically  !
 ! A1    A(4,1,6)              115.0115         calculate D2E/DX2 analytically  !
 ! A2    A(5,3,7)              110.8937         calculate D2E/DX2 analytically  !
 ! A3    A(5,3,8)              110.4915         calculate D2E/DX2 analytically  !
 ! A4    A(5,3,9)              110.8936         calculate D2E/DX2 analytically  !
 ! A5    A(7,3,8)              109.0398         calculate D2E/DX2 analytically  !
 ! A6    A(7,3,9)              106.3714         calculate D2E/DX2 analytically  !
 ! A7    A(8,3,9)              109.0397         calculate D2E/DX2 analytically  !
 ! A8    A(1,4,10)             106.0097         calculate D2E/DX2 analytically  !
 ! A9    A(1,4,11)             110.4777         calculate D2E/DX2 analytically  !
 ! A10   A(1,4,12)             110.4777         calculate D2E/DX2 analytically  !
 ! A11   A(10,4,11)            110.5672         calculate D2E/DX2 analytically  !
 ! A12   A(10,4,12)            110.5672         calculate D2E/DX2 analytically  !
 ! A13   A(11,4,12)            108.7334         calculate D2E/DX2 analytically  !
 ! A14   A(3,5,6)              121.0974         calculate D2E/DX2 analytically  !
 ! A15   A(3,5,13)             121.2214         calculate D2E/DX2 analytically  !
 ! A16   A(6,5,13)             117.6812         calculate D2E/DX2 analytically  !
 ! A17   A(1,6,2)              122.906          calculate D2E/DX2 analytically  !
 ! A18   A(1,6,5)              112.0572         calculate D2E/DX2 analytically  !
 ! A19   A(2,6,5)              125.0368         calculate D2E/DX2 analytically  !
 ! D1    D(6,1,4,10)           180.0            calculate D2E/DX2 analytically  !
 ! D2    D(6,1,4,11)            60.1794         calculate D2E/DX2 analytically  !
 ! D3    D(6,1,4,12)           -60.1795         calculate D2E/DX2 analytically  !
 ! D4    D(13,1,4,10)         -179.9994         Scan                            !
 ! D5    D(4,1,6,2)              0.0            calculate D2E/DX2 analytically  !
 ! D6    D(4,1,6,5)            180.0            calculate D2E/DX2 analytically  !
 ! D7    D(7,3,5,6)            121.0269         calculate D2E/DX2 analytically  !
 ! D8    D(7,3,5,13)           -58.9731         calculate D2E/DX2 analytically  !
 ! D9    D(8,3,5,6)              0.0005         calculate D2E/DX2 analytically  !
 ! D10   D(8,3,5,13)          -179.9996         calculate D2E/DX2 analytically  !
 ! D11   D(9,3,5,6)           -121.0259         calculate D2E/DX2 analytically  !
 ! D12   D(9,3,5,13)            58.9741         calculate D2E/DX2 analytically  !
 ! D13   D(3,5,6,1)            179.9999         calculate D2E/DX2 analytically  !
 ! D14   D(3,5,6,2)             -0.0001         calculate D2E/DX2 analytically  !
 ! D15   D(13,5,6,1)             0.0            calculate D2E/DX2 analytically  !
 ! D16   D(13,5,6,2)           180.0            calculate D2E/DX2 analytically  !
 --------------------------------------------------------------------------------
 Trust Radius=3.00D-01 FncErr=1.00D-07 GrdErr=1.00D-06 EigMax=2.50D+02 EigMin=1.00D-04
 Number of optimizations in scan=  73
 Number of steps in this run=     57 maximum allowed number of steps=    100.
 GradGradGradGradGradGradGradGradGradGradGradGradGradGradGradGradGradGrad

 Leave Link  103 at Mon Mar 11 00:00:44 2019, MaxMem=   671088640 cpu:               0.1 elap:               0.0
 (Enter /shared/centos7/gaussian/g16/l202.exe)
                          Input orientation:                          
 ---------------------------------------------------------------------
 Center     Atomic      Atomic             Coordinates (Angstroms)
 Number     Number       Type             X           Y           Z
 ---------------------------------------------------------------------
      1          8           0        1.365278   -0.048428    0.657625
      2          8           0        0.800120   -0.548831   -1.461710
      3          6           0       -1.768627   -1.599906   -0.559763
      4          6           0        2.601616    0.450237    0.161363
      5          6           0       -0.707331   -1.023498    0.291708
      6          6           0        0.527848   -0.534336   -0.281908
      7          1           0       -1.988227   -2.629628   -0.265585
      8          1           0       -1.468014   -1.585951   -1.604309
      9          1           0       -2.702462   -1.042250   -0.449929
     10          1           0        3.153130    0.799047    1.028134
     11          1           0        2.429856    1.267542   -0.536973
     12          1           0        3.151949   -0.337277   -0.350612
     13          1           0       -0.825832   -0.952429    1.362879
 ---------------------------------------------------------------------
                    Distance matrix (angstroms):
                    1          2          3          4          5
     1  O    0.000000
     2  O    2.249753   0.000000
     3  C    3.702766   2.918343   0.000000
     4  C    1.422489   2.622574   4.880793   0.000000
     5  C    2.319562   2.360549   1.477700   3.624641   0.000000
     6  C    1.349117   1.210898   2.546850   2.338030   1.447060
     7  H    4.331386   3.679036   1.093202   5.543872   2.128596
     8  H    3.938003   2.498076   1.087032   4.881142   2.118931
     9  H    4.331381   3.679027   1.093203   5.543865   2.128596
    10  H    2.012935   3.681406   5.700885   1.084955   4.332108
    11  H    2.071755   2.609672   5.084293   1.088652   3.972093
    12  H    2.071755   2.609674   5.084294   1.088652   3.972093
    13  H    2.472966   3.284039   2.237106   3.893393   1.080046
                    6          7          8          9         10
     6  C    0.000000
     7  H    3.274317   0.000000
     8  H    2.614977   1.775406   0.000000
     9  H    3.274311   1.750396   1.775405   0.000000
    10  H    3.222766   6.313721   5.828631   6.313715   0.000000
    11  H    2.632386   5.897546   4.947223   5.628801   1.786665
    12  H    2.632387   5.628811   4.947222   5.897540   1.786665
    13  H    2.170846   2.610758   3.101282   2.610763   4.360259
                   11         12         13
    11  H    0.000000
    12  H    1.769631   0.000000
    13  H    4.374610   4.374609   0.000000
 Stoichiometry    C4H7O2(2)
 Framework group  C1[X(C4H7O2)]
 Deg. of freedom    33
 Full point group                 C1      NOp   1
 Largest Abelian subgroup         C1      NOp   1
 Largest concise Abelian subgroup C1      NOp   1
                         Standard orientation:                         
 ---------------------------------------------------------------------
 Center     Atomic      Atomic             Coordinates (Angstroms)
 Number     Number       Type             X           Y           Z
 ---------------------------------------------------------------------
      1          8           0        1.110121   -0.722103    0.000000
      2          8           0        0.106428    1.291348   -0.000000
      3          6           0       -2.518380    0.015767    0.000000
      4          6           0        2.362013   -0.046647    0.000000
      5          6           0       -1.208828   -0.668829   -0.000001
      6          6           0        0.027581    0.083019   -0.000000
      7          1           0       -3.107777   -0.270136   -0.875193
      8          1           0       -2.383876    1.094445   -0.000007
      9          1           0       -3.107769   -0.270124    0.875203
     10          1           0        3.120558   -0.822364    0.000001
     11          1           0        2.456373    0.580539    0.884815
     12          1           0        2.456374    0.580537   -0.884816
     13          1           0       -1.140596   -1.746718   -0.000001
 ---------------------------------------------------------------------
 Rotational constants (GHZ):          10.2330951           2.1776563           1.8362895
 Leave Link  202 at Mon Mar 11 00:00:44 2019, MaxMem=   671088640 cpu:               0.2 elap:               0.0
 (Enter /shared/centos7/gaussian/g16/l301.exe)
 Standard basis: 6-311+G(2df,2p) (5D, 7F)
 Ernie: Thresh=  0.10000D-02 Tol=  0.10000D-05 Strict=F.
 There are   297 symmetry adapted cartesian basis functions of A   symmetry.
 There are   267 symmetry adapted basis functions of A   symmetry.
   267 basis functions,   389 primitive gaussians,   297 cartesian basis functions
    24 alpha electrons       23 beta electrons
       nuclear repulsion energy       235.7903064436 Hartrees.
 IExCor= 4336 DFT=T Ex+Corr=M062X ExCW=0 ScaHFX=  0.540000
 ScaDFX=  1.000000  1.000000  1.000000  1.000000 ScalE2=  1.000000  1.000000
 IRadAn=      5 IRanWt=     -1 IRanGd=            0 ICorTp=0 IEmpDi=  4
 NAtoms=   13 NActive=   13 NUniq=   13 SFac= 1.00D+00 NAtFMM=   60 NAOKFM=F Big=F
 Integral buffers will be    131072 words long.
 Raffenetti 2 integral format.
 Two-electron integral symmetry is turned on.
 Leave Link  301 at Mon Mar 11 00:00:44 2019, MaxMem=   671088640 cpu:               0.8 elap:               0.1
 (Enter /shared/centos7/gaussian/g16/l302.exe)
 NPDir=0 NMtPBC=     1 NCelOv=     1 NCel=       1 NClECP=     1 NCelD=      1
         NCelK=      1 NCelE2=     1 NClLst=     1 CellRange=     0.0.
 One-electron integrals computed using PRISM.
 One-electron integral symmetry used in STVInt
 NBasis=   267 RedAO= T EigKep=  3.04D-05  NBF=   267
 NBsUse=   267 1.00D-06 EigRej= -1.00D+00 NBFU=   267
 Precomputing XC quadrature grid using
 IXCGrd= 4 IRadAn=           5 IRanWt=          -1 IRanGd=           0 AccXCQ= 0.00D+00.
 Generated NRdTot=       0 NPtTot=           0 NUsed=           0 NTot=          32
 NSgBfM=   297   297   297   297   297 MxSgAt=    13 MxSgA2=    13.
 Leave Link  302 at Mon Mar 11 00:00:44 2019, MaxMem=   671088640 cpu:               5.4 elap:               0.3
 (Enter /shared/centos7/gaussian/g16/l303.exe)
 DipDrv:  MaxL=1.
 Leave Link  303 at Mon Mar 11 00:00:45 2019, MaxMem=   671088640 cpu:               0.9 elap:               0.1
 (Enter /shared/centos7/gaussian/g16/l401.exe)
 ExpMin= 4.38D-02 ExpMax= 8.59D+03 ExpMxC= 1.30D+03 IAcc=3 IRadAn=         5 AccDes= 0.00D+00
 Harris functional with IExCor= 1009 and IRadAn=       5 diagonalized for initial guess.
 HarFok:  IExCor= 1009 AccDes= 0.00D+00 IRadAn=         5 IDoV= 1 UseB2=F ITyADJ=14
 ICtDFT=  3500011 ScaDFX=  1.000000  1.000000  1.000000  1.000000
 FoFCou: FMM=F IPFlag=           0 FMFlag=      100000 FMFlg1=           0
         NFxFlg=           0 DoJE=T BraDBF=F KetDBF=T FulRan=T
         wScrn=  0.000000 ICntrl=       500 IOpCl=  0 I1Cent=   200000004 NGrid=           0
         NMat0=    1 NMatS0=      1 NMatT0=    0 NMatD0=    1 NMtDS0=    0 NMtDT0=    0
 Petite list used in FoFCou.
 Harris En= -306.888641100118    
 JPrj=0 DoOrth=F DoCkMO=F.
 Initial guess <Sx>= 0.0000 <Sy>= 0.0000 <Sz>= 0.5000 <S**2>= 0.7500 S= 0.5000
 Leave Link  401 at Mon Mar 11 00:00:45 2019, MaxMem=   671088640 cpu:              15.2 elap:               0.8
 (Enter /shared/centos7/gaussian/g16/l502.exe)
 Integral symmetry usage will be decided dynamically.
 UHF open shell SCF:
 Using DIIS extrapolation, IDIIS=  1040.
 NGot=   671088640 LenX=   670903575 LenY=   670814925
 Requested convergence on RMS density matrix=1.00D-08 within 128 cycles.
 Requested convergence on MAX density matrix=1.00D-06.
 Requested convergence on             energy=1.00D-06.
 No special actions if energy rises.
 Fock matrices will be formed incrementally for  20 cycles.

 Cycle   1  Pass 1  IDiag  1:
 FoFJK:  IHMeth= 1 ICntrl=       0 DoSepK=F KAlg= 0 I1Cent=           0 FoldK=F
 IRaf= 950000000 NMat=       1 IRICut=       1 DoRegI=T DoRafI=F ISym2E= 0 IDoP0=0 IntGTp=1.
 FoFCou: FMM=F IPFlag=           0 FMFlag=      100000 FMFlg1=           0
         NFxFlg=           0 DoJE=F BraDBF=F KetDBF=F FulRan=T
         wScrn=  0.000000 ICntrl=         0 IOpCl=  1 I1Cent=           0 NGrid=           0
         NMat0=    1 NMatS0=      1 NMatT0=    0 NMatD0=    1 NMtDS0=    0 NMtDT0=    0
 Symmetry not used in FoFCou.
 E= -306.834038049686    
 DIIS: error= 3.61D-02 at cycle   1 NSaved=   1.
 NSaved= 1 IEnMin= 1 EnMin= -306.834038049686     IErMin= 1 ErrMin= 3.61D-02
 ErrMax= 3.61D-02  0.00D+00 EMaxC= 1.00D-01 BMatC= 1.03D+00 BMatP= 1.03D+00
 IDIUse=3 WtCom= 6.39D-01 WtEn= 3.61D-01
 Coeff-Com:  0.100D+01
 Coeff-En:   0.100D+01
 Coeff:      0.100D+01
 Gap=     0.361 Goal=   None    Shift=    0.000
 Gap=     0.210 Goal=   None    Shift=    0.000
 GapD=    0.210 DampG=1.000 DampE=0.500 DampFc=0.5000 IDamp=-1.
 Damping current iteration by 5.00D-01
 RMSDP=4.00D-03 MaxDP=3.20D-01              OVMax= 2.35D-01

 Cycle   2  Pass 1  IDiag  1:
 RMSU=  1.99D-03    CP:  1.02D+00
 E= -306.920071956544     Delta-E=       -0.086033906858 Rises=F Damp=T
 DIIS: error= 6.75D-03 at cycle   2 NSaved=   2.
 NSaved= 2 IEnMin= 2 EnMin= -306.920071956544     IErMin= 2 ErrMin= 6.75D-03
 ErrMax= 6.75D-03  0.00D+00 EMaxC= 1.00D-01 BMatC= 9.62D-02 BMatP= 1.03D+00
 IDIUse=3 WtCom= 9.32D-01 WtEn= 6.75D-02
 Coeff-Com: -0.135D-01 0.101D+01
 Coeff-En:   0.000D+00 0.100D+01
 Coeff:     -0.126D-01 0.101D+01
 Gap=     0.307 Goal=   None    Shift=    0.000
 Gap=     0.312 Goal=   None    Shift=    0.000
 RMSDP=1.91D-03 MaxDP=2.35D-01 DE=-8.60D-02 OVMax= 1.17D-01

 Cycle   3  Pass 1  IDiag  1:
 RMSU=  1.37D-03    CP:  9.59D-01  4.12D-01
 E= -307.006381539272     Delta-E=       -0.086309582728 Rises=F Damp=F
 DIIS: error= 1.16D-02 at cycle   3 NSaved=   3.
 NSaved= 3 IEnMin= 3 EnMin= -307.006381539272     IErMin= 2 ErrMin= 6.75D-03
 ErrMax= 1.16D-02  0.00D+00 EMaxC= 1.00D-01 BMatC= 7.27D-02 BMatP= 9.62D-02
 IDIUse=3 WtCom= 8.84D-01 WtEn= 1.16D-01
 Coeff-Com: -0.915D-01 0.503D+00 0.588D+00
 Coeff-En:   0.000D+00 0.000D+00 0.100D+01
 Coeff:     -0.809D-01 0.445D+00 0.636D+00
 Gap=     0.305 Goal=   None    Shift=    0.000
 Gap=     0.294 Goal=   None    Shift=    0.000
 RMSDP=4.60D-04 MaxDP=1.87D-02 DE=-8.63D-02 OVMax= 6.77D-02

 Cycle   4  Pass 1  IDiag  1:
 RMSU=  4.20D-04    CP:  9.60D-01  5.05D-01  9.95D-01
 E= -307.017455546757     Delta-E=       -0.011074007484 Rises=F Damp=F
 DIIS: error= 3.90D-03 at cycle   4 NSaved=   4.
 NSaved= 4 IEnMin= 4 EnMin= -307.017455546757     IErMin= 4 ErrMin= 3.90D-03
 ErrMax= 3.90D-03  0.00D+00 EMaxC= 1.00D-01 BMatC= 1.37D-02 BMatP= 7.27D-02
 IDIUse=3 WtCom= 9.61D-01 WtEn= 3.90D-02
 Coeff-Com: -0.283D-01 0.709D-01 0.333D+00 0.624D+00
 Coeff-En:   0.000D+00 0.000D+00 0.146D+00 0.854D+00
 Coeff:     -0.272D-01 0.682D-01 0.326D+00 0.633D+00
 Gap=     0.300 Goal=   None    Shift=    0.000
 Gap=     0.285 Goal=   None    Shift=    0.000
 RMSDP=2.12D-04 MaxDP=1.82D-02 DE=-1.11D-02 OVMax= 1.40D-02

 Cycle   5  Pass 1  IDiag  1:
 RMSU=  8.14D-05    CP:  9.54D-01  4.36D-01  1.06D+00  7.89D-01
 E= -307.020020970902     Delta-E=       -0.002565424146 Rises=F Damp=F
 DIIS: error= 6.60D-04 at cycle   5 NSaved=   5.
 NSaved= 5 IEnMin= 5 EnMin= -307.020020970902     IErMin= 5 ErrMin= 6.60D-04
 ErrMax= 6.60D-04  0.00D+00 EMaxC= 1.00D-01 BMatC= 3.72D-04 BMatP= 1.37D-02
 IDIUse=3 WtCom= 9.93D-01 WtEn= 6.60D-03
 Coeff-Com: -0.495D-02 0.257D-02 0.928D-01 0.233D+00 0.677D+00
 Coeff-En:   0.000D+00 0.000D+00 0.000D+00 0.000D+00 0.100D+01
 Coeff:     -0.491D-02 0.255D-02 0.922D-01 0.231D+00 0.679D+00
 Gap=     0.299 Goal=   None    Shift=    0.000
 Gap=     0.286 Goal=   None    Shift=    0.000
 RMSDP=3.75D-05 MaxDP=2.17D-03 DE=-2.57D-03 OVMax= 6.85D-03

 Cycle   6  Pass 1  IDiag  1:
 RMSU=  2.90D-05    CP:  9.53D-01  4.29D-01  1.07D+00  8.12D-01  1.05D+00
 E= -307.020124733146     Delta-E=       -0.000103762243 Rises=F Damp=F
 DIIS: error= 3.68D-04 at cycle   6 NSaved=   6.
 NSaved= 6 IEnMin= 6 EnMin= -307.020124733146     IErMin= 6 ErrMin= 3.68D-04
 ErrMax= 3.68D-04  0.00D+00 EMaxC= 1.00D-01 BMatC= 9.20D-05 BMatP= 3.72D-04
 IDIUse=3 WtCom= 9.96D-01 WtEn= 3.68D-03
 Coeff-Com:  0.445D-02-0.151D-01-0.367D-01-0.608D-01 0.257D+00 0.851D+00
 Coeff-En:   0.000D+00 0.000D+00 0.000D+00 0.000D+00 0.000D+00 0.100D+01
 Coeff:      0.444D-02-0.150D-01-0.366D-01-0.606D-01 0.256D+00 0.852D+00
 Gap=     0.300 Goal=   None    Shift=    0.000
 Gap=     0.287 Goal=   None    Shift=    0.000
 RMSDP=3.10D-05 MaxDP=2.03D-03 DE=-1.04D-04 OVMax= 4.09D-03

 Cycle   7  Pass 1  IDiag  1:
 RMSU=  1.61D-05    CP:  9.53D-01  4.21D-01  1.08D+00  8.26D-01  1.23D+00
                    CP:  1.20D+00
 E= -307.020165757893     Delta-E=       -0.000041024747 Rises=F Damp=F
 DIIS: error= 1.07D-04 at cycle   7 NSaved=   7.
 NSaved= 7 IEnMin= 7 EnMin= -307.020165757893     IErMin= 7 ErrMin= 1.07D-04
 ErrMax= 1.07D-04  0.00D+00 EMaxC= 1.00D-01 BMatC= 1.36D-05 BMatP= 9.20D-05
 IDIUse=3 WtCom= 9.99D-01 WtEn= 1.07D-03
 Coeff-Com:  0.246D-02-0.414D-02-0.291D-01-0.766D-01-0.104D+00 0.183D+00
 Coeff-Com:  0.103D+01
 Coeff-En:   0.000D+00 0.000D+00 0.000D+00 0.000D+00 0.000D+00 0.000D+00
 Coeff-En:   0.100D+01
 Coeff:      0.246D-02-0.414D-02-0.290D-01-0.766D-01-0.104D+00 0.182D+00
 Coeff:      0.103D+01
 Gap=     0.301 Goal=   None    Shift=    0.000
 Gap=     0.288 Goal=   None    Shift=    0.000
 RMSDP=1.71D-05 MaxDP=1.07D-03 DE=-4.10D-05 OVMax= 3.34D-03

 Cycle   8  Pass 1  IDiag  1:
 RMSU=  7.56D-06    CP:  9.52D-01  4.17D-01  1.08D+00  8.26D-01  1.33D+00
                    CP:  1.46D+00  1.31D+00
 E= -307.020175995089     Delta-E=       -0.000010237196 Rises=F Damp=F
 DIIS: error= 7.52D-05 at cycle   8 NSaved=   8.
 NSaved= 8 IEnMin= 8 EnMin= -307.020175995089     IErMin= 8 ErrMin= 7.52D-05
 ErrMax= 7.52D-05  0.00D+00 EMaxC= 1.00D-01 BMatC= 2.11D-06 BMatP= 1.36D-05
 IDIUse=1 WtCom= 1.00D+00 WtEn= 0.00D+00
 Coeff-Com:  0.168D-03 0.440D-03-0.185D-02-0.128D-01-0.540D-01-0.399D-01
 Coeff-Com:  0.272D+00 0.836D+00
 Coeff:      0.168D-03 0.440D-03-0.185D-02-0.128D-01-0.540D-01-0.399D-01
 Coeff:      0.272D+00 0.836D+00
 Gap=     0.301 Goal=   None    Shift=    0.000
 Gap=     0.288 Goal=   None    Shift=    0.000
 RMSDP=4.31D-06 MaxDP=1.94D-04 DE=-1.02D-05 OVMax= 9.43D-04

 Cycle   9  Pass 1  IDiag  1:
 RMSU=  2.76D-06    CP:  9.52D-01  4.17D-01  1.08D+00  8.24D-01  1.33D+00
                    CP:  1.51D+00  1.43D+00  1.19D+00
 E= -307.020177341613     Delta-E=       -0.000001346524 Rises=F Damp=F
 DIIS: error= 4.22D-05 at cycle   9 NSaved=   9.
 NSaved= 9 IEnMin= 9 EnMin= -307.020177341613     IErMin= 9 ErrMin= 4.22D-05
 ErrMax= 4.22D-05  0.00D+00 EMaxC= 1.00D-01 BMatC= 4.48D-07 BMatP= 2.11D-06
 IDIUse=1 WtCom= 1.00D+00 WtEn= 0.00D+00
 Coeff-Com: -0.570D-03 0.113D-02 0.748D-02 0.167D-01 0.134D-01-0.534D-01
 Coeff-Com: -0.216D+00 0.122D+00 0.111D+01
 Coeff:     -0.570D-03 0.113D-02 0.748D-02 0.167D-01 0.134D-01-0.534D-01
 Coeff:     -0.216D+00 0.122D+00 0.111D+01
 Gap=     0.301 Goal=   None    Shift=    0.000
 Gap=     0.288 Goal=   None    Shift=    0.000
 RMSDP=3.21D-06 MaxDP=1.69D-04 DE=-1.35D-06 OVMax= 7.59D-04

 Cycle  10  Pass 1  IDiag  1:
 RMSU=  1.45D-06    CP:  9.52D-01  4.17D-01  1.08D+00  8.22D-01  1.33D+00
                    CP:  1.54D+00  1.51D+00  1.46D+00  1.39D+00
 E= -307.020177877694     Delta-E=       -0.000000536081 Rises=F Damp=F
 DIIS: error= 1.73D-05 at cycle  10 NSaved=  10.
 NSaved=10 IEnMin=10 EnMin= -307.020177877694     IErMin=10 ErrMin= 1.73D-05
 ErrMax= 1.73D-05  0.00D+00 EMaxC= 1.00D-01 BMatC= 6.72D-08 BMatP= 4.48D-07
 IDIUse=1 WtCom= 1.00D+00 WtEn= 0.00D+00
 Coeff-Com:  0.144D-03-0.397D-03-0.132D-02-0.159D-02 0.677D-02 0.177D-01
 Coeff-Com:  0.502D-02-0.190D+00-0.222D+00 0.139D+01
 Coeff:      0.144D-03-0.397D-03-0.132D-02-0.159D-02 0.677D-02 0.177D-01
 Coeff:      0.502D-02-0.190D+00-0.222D+00 0.139D+01
 Gap=     0.301 Goal=   None    Shift=    0.000
 Gap=     0.288 Goal=   None    Shift=    0.000
 RMSDP=1.56D-06 MaxDP=9.63D-05 DE=-5.36D-07 OVMax= 3.96D-04

 Cycle  11  Pass 1  IDiag  1:
 RMSU=  5.69D-07    CP:  9.52D-01  4.17D-01  1.08D+00  8.22D-01  1.33D+00
                    CP:  1.54D+00  1.52D+00  1.54D+00  1.73D+00  1.61D+00
 E= -307.020177990075     Delta-E=       -0.000000112381 Rises=F Damp=F
 DIIS: error= 6.65D-06 at cycle  11 NSaved=  11.
 NSaved=11 IEnMin=11 EnMin= -307.020177990075     IErMin=11 ErrMin= 6.65D-06
 ErrMax= 6.65D-06  0.00D+00 EMaxC= 1.00D-01 BMatC= 9.45D-09 BMatP= 6.72D-08
 IDIUse=1 WtCom= 1.00D+00 WtEn= 0.00D+00
 Coeff-Com:  0.976D-04-0.201D-03-0.109D-02-0.253D-02-0.805D-03 0.688D-02
 Coeff-Com:  0.318D-01-0.372D-01-0.172D+00 0.103D+00 0.107D+01
 Coeff:      0.976D-04-0.201D-03-0.109D-02-0.253D-02-0.805D-03 0.688D-02
 Coeff:      0.318D-01-0.372D-01-0.172D+00 0.103D+00 0.107D+01
 Gap=     0.301 Goal=   None    Shift=    0.000
 Gap=     0.288 Goal=   None    Shift=    0.000
 RMSDP=5.62D-07 MaxDP=3.19D-05 DE=-1.12D-07 OVMax= 1.17D-04

 Cycle  12  Pass 1  IDiag  1:
 RMSU=  1.74D-07    CP:  9.52D-01  4.17D-01  1.08D+00  8.22D-01  1.33D+00
                    CP:  1.54D+00  1.53D+00  1.55D+00  1.81D+00  1.86D+00
                    CP:  1.32D+00
 E= -307.020178000880     Delta-E=       -0.000000010805 Rises=F Damp=F
 DIIS: error= 1.23D-06 at cycle  12 NSaved=  12.
 NSaved=12 IEnMin=12 EnMin= -307.020178000880     IErMin=12 ErrMin= 1.23D-06
 ErrMax= 1.23D-06  0.00D+00 EMaxC= 1.00D-01 BMatC= 1.79D-09 BMatP= 9.45D-09
 IDIUse=1 WtCom= 1.00D+00 WtEn= 0.00D+00
 Coeff-Com:  0.917D-05-0.716D-05-0.162D-03-0.596D-03-0.111D-02-0.432D-03
 Coeff-Com:  0.101D-01 0.142D-01-0.207D-01-0.173D+00 0.358D+00 0.814D+00
 Coeff:      0.917D-05-0.716D-05-0.162D-03-0.596D-03-0.111D-02-0.432D-03
 Coeff:      0.101D-01 0.142D-01-0.207D-01-0.173D+00 0.358D+00 0.814D+00
 Gap=     0.301 Goal=   None    Shift=    0.000
 Gap=     0.288 Goal=   None    Shift=    0.000
 RMSDP=1.38D-07 MaxDP=8.44D-06 DE=-1.08D-08 OVMax= 2.72D-05

 Cycle  13  Pass 1  IDiag  1:
 RMSU=  7.21D-08    CP:  9.52D-01  4.17D-01  1.08D+00  8.22D-01  1.33D+00
                    CP:  1.54D+00  1.53D+00  1.55D+00  1.83D+00  1.91D+00
                    CP:  1.46D+00  1.14D+00
 E= -307.020178001789     Delta-E=       -0.000000000909 Rises=F Damp=F
 DIIS: error= 3.86D-07 at cycle  13 NSaved=  13.
 NSaved=13 IEnMin=13 EnMin= -307.020178001789     IErMin=13 ErrMin= 3.86D-07
 ErrMax= 3.86D-07  0.00D+00 EMaxC= 1.00D-01 BMatC= 1.07D-10 BMatP= 1.79D-09
 IDIUse=1 WtCom= 1.00D+00 WtEn= 0.00D+00
 Coeff-Com: -0.121D-04 0.264D-04 0.118D-03 0.247D-03-0.955D-04-0.979D-03
 Coeff-Com: -0.279D-02 0.668D-02 0.224D-01-0.416D-01-0.914D-01 0.103D+00
 Coeff-Com:  0.100D+01
 Coeff:     -0.121D-04 0.264D-04 0.118D-03 0.247D-03-0.955D-04-0.979D-03
 Coeff:     -0.279D-02 0.668D-02 0.224D-01-0.416D-01-0.914D-01 0.103D+00
 Coeff:      0.100D+01
 Gap=     0.301 Goal=   None    Shift=    0.000
 Gap=     0.288 Goal=   None    Shift=    0.000
 RMSDP=4.93D-08 MaxDP=3.11D-06 DE=-9.09D-10 OVMax= 7.10D-06

 Cycle  14  Pass 1  IDiag  1:
 RMSU=  1.73D-08    CP:  9.52D-01  4.17D-01  1.08D+00  8.22D-01  1.33D+00
                    CP:  1.54D+00  1.53D+00  1.55D+00  1.83D+00  1.91D+00
                    CP:  1.50D+00  1.28D+00  1.16D+00
 E= -307.020178001862     Delta-E=       -0.000000000073 Rises=F Damp=F
 DIIS: error= 8.64D-08 at cycle  14 NSaved=  14.
 NSaved=14 IEnMin=14 EnMin= -307.020178001862     IErMin=14 ErrMin= 8.64D-08
 ErrMax= 8.64D-08  0.00D+00 EMaxC= 1.00D-01 BMatC= 7.07D-12 BMatP= 1.07D-10
 IDIUse=1 WtCom= 1.00D+00 WtEn= 0.00D+00
 Coeff-Com:  0.410D-06-0.143D-05 0.730D-05 0.228D-04 0.664D-04 0.457D-04
 Coeff-Com: -0.467D-03-0.120D-02 0.232D-03 0.124D-01-0.176D-01-0.554D-01
 Coeff-Com: -0.612D-01 0.112D+01
 Coeff:      0.410D-06-0.143D-05 0.730D-05 0.228D-04 0.664D-04 0.457D-04
 Coeff:     -0.467D-03-0.120D-02 0.232D-03 0.124D-01-0.176D-01-0.554D-01
 Coeff:     -0.612D-01 0.112D+01
 Gap=     0.301 Goal=   None    Shift=    0.000
 Gap=     0.288 Goal=   None    Shift=    0.000
 RMSDP=1.16D-08 MaxDP=5.80D-07 DE=-7.28D-11 OVMax= 1.28D-06

 Cycle  15  Pass 1  IDiag  1:
 RMSU=  5.65D-09    CP:  9.52D-01  4.17D-01  1.08D+00  8.22D-01  1.33D+00
                    CP:  1.54D+00  1.53D+00  1.55D+00  1.83D+00  1.91D+00
                    CP:  1.50D+00  1.30D+00  1.23D+00  1.27D+00
 E= -307.020178001868     Delta-E=       -0.000000000006 Rises=F Damp=F
 DIIS: error= 2.71D-08 at cycle  15 NSaved=  15.
 NSaved=15 IEnMin=15 EnMin= -307.020178001868     IErMin=15 ErrMin= 2.71D-08
 ErrMax= 2.71D-08  0.00D+00 EMaxC= 1.00D-01 BMatC= 6.43D-13 BMatP= 7.07D-12
 IDIUse=1 WtCom= 1.00D+00 WtEn= 0.00D+00
 Coeff-Com:  0.107D-05-0.232D-05-0.859D-05-0.192D-04 0.183D-05 0.812D-04
 Coeff-Com:  0.214D-03-0.501D-03-0.182D-02 0.354D-02 0.657D-02-0.907D-02
 Coeff-Com: -0.787D-01-0.541D-02 0.109D+01
 Coeff:      0.107D-05-0.232D-05-0.859D-05-0.192D-04 0.183D-05 0.812D-04
 Coeff:      0.214D-03-0.501D-03-0.182D-02 0.354D-02 0.657D-02-0.907D-02
 Coeff:     -0.787D-01-0.541D-02 0.109D+01
 Gap=     0.301 Goal=   None    Shift=    0.000
 Gap=     0.288 Goal=   None    Shift=    0.000
 RMSDP=2.92D-09 MaxDP=1.14D-07 DE=-6.25D-12 OVMax= 4.47D-07

 SCF Done:  E(UM062X) =  -307.020178002     A.U. after   15 cycles
            NFock= 15  Conv=0.29D-08     -V/T= 2.0035
 <Sx>= 0.0000 <Sy>= 0.0000 <Sz>= 0.5000 <S**2>= 0.7584 S= 0.5042
 <L.S>= 0.000000000000E+00
 KE= 3.059455160861D+02 PE=-1.190077395165D+03 EE= 3.413213946329D+02
 Annihilation of the first spin contaminant:
 S**2 before annihilation     0.7584,   after     0.7501
 Leave Link  502 at Mon Mar 11 00:01:32 2019, MaxMem=   671088640 cpu:             926.6 elap:              46.4
 (Enter /shared/centos7/gaussian/g16/l801.exe)
 DoSCS=F DFT=T ScalE2(SS,OS)=  1.000000  1.000000
 Range of M.O.s used for correlation:     1   267
 NBasis=   267 NAE=    24 NBE=    23 NFC=     0 NFV=     0
 NROrb=    267 NOA=    24 NOB=    23 NVA=   243 NVB=   244

 **** Warning!!: The largest alpha MO coefficient is  0.60434175D+02


 **** Warning!!: The largest beta MO coefficient is  0.61516760D+02

 Leave Link  801 at Mon Mar 11 00:01:32 2019, MaxMem=   671088640 cpu:               0.5 elap:               0.0
 (Enter /shared/centos7/gaussian/g16/l1101.exe)
 Using compressed storage, NAtomX=    13.
 Will process     14 centers per pass.
 Leave Link 1101 at Mon Mar 11 00:01:32 2019, MaxMem=   671088640 cpu:               6.8 elap:               0.4
 (Enter /shared/centos7/gaussian/g16/l1102.exe)
 Symmetrizing basis deriv contribution to polar:
 IMax=3 JMax=2 DiffMx= 0.00D+00
 Leave Link 1102 at Mon Mar 11 00:01:32 2019, MaxMem=   671088640 cpu:               0.5 elap:               0.0
 (Enter /shared/centos7/gaussian/g16/l1110.exe)
 Forming Gx(P) for the SCF density, NAtomX=    13.
 Integral derivatives from FoFJK, PRISM(SPDF).
 Do as many integral derivatives as possible in FoFJK.
 G2DrvN: MDV=     671087568.
 G2DrvN: will do    14 centers at a time, making    1 passes.
 Calling FoFCou, ICntrl=  3107 FMM=F I1Cent=   0 AccDes= 0.00D+00.
 FoFJK:  IHMeth= 1 ICntrl=    3107 DoSepK=F KAlg= 0 I1Cent=           0 FoldK=F
 IRaf=         0 NMat=       1 IRICut=       1 DoRegI=T DoRafI=F ISym2E= 0 IDoP0=0 IntGTp=1.
 FoFCou: FMM=F IPFlag=           0 FMFlag=      100000 FMFlg1=           0
         NFxFlg=           0 DoJE=F BraDBF=F KetDBF=F FulRan=T
         wScrn=  0.000000 ICntrl=      3107 IOpCl=  1 I1Cent=           0 NGrid=           0
         NMat0=    1 NMatS0=      1 NMatT0=    0 NMatD0=    1 NMtDS0=    0 NMtDT0=    0
 Symmetry not used in FoFCou.
 End of G2Drv F.D. properties file   721 does not exist.
 End of G2Drv F.D. properties file   722 does not exist.
 End of G2Drv F.D. properties file   788 does not exist.
 Leave Link 1110 at Mon Mar 11 00:02:52 2019, MaxMem=   671088640 cpu:            1586.2 elap:              79.3
 (Enter /shared/centos7/gaussian/g16/l1002.exe)
 Minotr:  UHF open shell wavefunction.
          IDoAtm=1111111111111
          Direct CPHF calculation.
          Differentiating once with respect to nuclear coordinates.
          Requested convergence is 1.0D-08 RMS, and 1.0D-07 maximum.
          Secondary convergence is 1.0D-12 RMS, and 1.0D-12 maximum.
          NewPWx=T KeepS1=F KeepF1=F KeepIn=T MapXYZ=F SortEE=F KeepMc=T.
         3966 words used for storage of precomputed grid.
 Two-electron integrals replicated using symmetry.
          MDV=     671088640 using IRadAn=       1.
          Solving linear equations simultaneously, MaxMat=     380.
 FoF2E skips out because all densities are zero.
 CalDSu exits because no D1Ps are significant.
 FoFJK:  IHMeth= 1 ICntrl=       0 DoSepK=F KAlg= 0 I1Cent=           0 FoldK=F
 IRaf= 940000000 NMat=      39 IRICut=      97 DoRegI=T DoRafI=T ISym2E= 2 IDoP0=3 IntGTp=3.
 FoFCou: FMM=F IPFlag=           0 FMFlag=      100000 FMFlg1=           0
         NFxFlg=           0 DoJE=F BraDBF=F KetDBF=F FulRan=T
         wScrn=  0.000000 ICntrl=         0 IOpCl=  1 I1Cent=           0 NGrid=           0
         NMat0=   39 NMatS0=     39 NMatT0=    0 NMatD0=   39 NMtDS0=    0 NMtDT0=    0
 Integrals replicated using symmetry in FoFCou.
 Raff kept on since  91.74% of shell-pairs survive, threshold=   0.20 IRatSp=92.
          There are    42 degrees of freedom in the 1st order CPHF.  IDoFFX=6 NUNeed=     0.
     36 vectors produced by pass  0 Test12= 2.72D-14 2.38D-09 XBig12= 1.57D-01 1.35D-01.
 AX will form    36 AO Fock derivatives at one time.
     36 vectors produced by pass  1 Test12= 2.72D-14 2.38D-09 XBig12= 1.84D-02 4.07D-02.
     36 vectors produced by pass  2 Test12= 2.72D-14 2.38D-09 XBig12= 7.85D-04 9.37D-03.
     36 vectors produced by pass  3 Test12= 2.72D-14 2.38D-09 XBig12= 1.21D-05 9.43D-04.
     36 vectors produced by pass  4 Test12= 2.72D-14 2.38D-09 XBig12= 1.24D-07 4.00D-05.
     36 vectors produced by pass  5 Test12= 2.72D-14 2.38D-09 XBig12= 1.42D-09 5.15D-06.
     36 vectors produced by pass  6 Test12= 2.72D-14 2.38D-09 XBig12= 1.49D-11 6.48D-07.
     18 vectors produced by pass  7 Test12= 2.72D-14 2.38D-09 XBig12= 1.37D-13 3.56D-08.
      4 vectors produced by pass  8 Test12= 2.72D-14 2.38D-09 XBig12= 1.26D-15 4.16D-09.
 InvSVY:  IOpt=1 It=  1 EMax= 1.78D-15
 Solved reduced A of dimension   274 with    36 vectors.
 End of Minotr F.D. properties file   721 does not exist.
 End of Minotr F.D. properties file   722 does not exist.
 End of Minotr F.D. properties file   788 does not exist.
 Leave Link 1002 at Mon Mar 11 00:04:51 2019, MaxMem=   671088640 cpu:            2385.9 elap:             119.3
 (Enter /shared/centos7/gaussian/g16/l601.exe)
 Copying SCF densities to generalized density rwf, IOpCl= 1 IROHF=0.

 **********************************************************************

            Population analysis using the SCF density.

 **********************************************************************

 Orbital symmetries:
 Alpha Orbitals:
       Occupied  (A) (A) (A) (A) (A) (A) (A) (A) (A) (A) (A) (A)
                 (A) (A) (A) (A) (A) (A) (A) (A) (A) (A) (A) (A)
       Virtual   (A) (A) (A) (A) (A) (A) (A) (A) (A) (A) (A) (A)
                 (A) (A) (A) (A) (A) (A) (A) (A) (A) (A) (A) (A)
                 (A) (A) (A) (A) (A) (A) (A) (A) (A) (A) (A) (A)
                 (A) (A) (A) (A) (A) (A) (A) (A) (A) (A) (A) (A)
                 (A) (A) (A) (A) (A) (A) (A) (A) (A) (A) (A) (A)
                 (A) (A) (A) (A) (A) (A) (A) (A) (A) (A) (A) (A)
                 (A) (A) (A) (A) (A) (A) (A) (A) (A) (A) (A) (A)
                 (A) (A) (A) (A) (A) (A) (A) (A) (A) (A) (A) (A)
                 (A) (A) (A) (A) (A) (A) (A) (A) (A) (A) (A) (A)
                 (A) (A) (A) (A) (A) (A) (A) (A) (A) (A) (A) (A)
                 (A) (A) (A) (A) (A) (A) (A) (A) (A) (A) (A) (A)
                 (A) (A) (A) (A) (A) (A) (A) (A) (A) (A) (A) (A)
                 (A) (A) (A) (A) (A) (A) (A) (A) (A) (A) (A) (A)
                 (A) (A) (A) (A) (A) (A) (A) (A) (A) (A) (A) (A)
                 (A) (A) (A) (A) (A) (A) (A) (A) (A) (A) (A) (A)
                 (A) (A) (A) (A) (A) (A) (A) (A) (A) (A) (A) (A)
                 (A) (A) (A) (A) (A) (A) (A) (A) (A) (A) (A) (A)
                 (A) (A) (A) (A) (A) (A) (A) (A) (A) (A) (A) (A)
                 (A) (A) (A) (A) (A) (A) (A) (A) (A) (A) (A) (A)
                 (A) (A) (A) (A) (A) (A) (A) (A) (A) (A) (A) (A)
                 (A) (A) (A)
 Beta  Orbitals:
       Occupied  (A) (A) (A) (A) (A) (A) (A) (A) (A) (A) (A) (A)
                 (A) (A) (A) (A) (A) (A) (A) (A) (A) (A) (A)
       Virtual   (A) (A) (A) (A) (A) (A) (A) (A) (A) (A) (A) (A)
                 (A) (A) (A) (A) (A) (A) (A) (A) (A) (A) (A) (A)
                 (A) (A) (A) (A) (A) (A) (A) (A) (A) (A) (A) (A)
                 (A) (A) (A) (A) (A) (A) (A) (A) (A) (A) (A) (A)
                 (A) (A) (A) (A) (A) (A) (A) (A) (A) (A) (A) (A)
                 (A) (A) (A) (A) (A) (A) (A) (A) (A) (A) (A) (A)
                 (A) (A) (A) (A) (A) (A) (A) (A) (A) (A) (A) (A)
                 (A) (A) (A) (A) (A) (A) (A) (A) (A) (A) (A) (A)
                 (A) (A) (A) (A) (A) (A) (A) (A) (A) (A) (A) (A)
                 (A) (A) (A) (A) (A) (A) (A) (A) (A) (A) (A) (A)
                 (A) (A) (A) (A) (A) (A) (A) (A) (A) (A) (A) (A)
                 (A) (A) (A) (A) (A) (A) (A) (A) (A) (A) (A) (A)
                 (A) (A) (A) (A) (A) (A) (A) (A) (A) (A) (A) (A)
                 (A) (A) (A) (A) (A) (A) (A) (A) (A) (A) (A) (A)
                 (A) (A) (A) (A) (A) (A) (A) (A) (A) (A) (A) (A)
                 (A) (A) (A) (A) (A) (A) (A) (A) (A) (A) (A) (A)
                 (A) (A) (A) (A) (A) (A) (A) (A) (A) (A) (A) (A)
                 (A) (A) (A) (A) (A) (A) (A) (A) (A) (A) (A) (A)
                 (A) (A) (A) (A) (A) (A) (A) (A) (A) (A) (A) (A)
                 (A) (A) (A) (A) (A) (A) (A) (A) (A) (A) (A) (A)
                 (A) (A) (A) (A)
 The electronic state is 2-A.
 Alpha  occ. eigenvalues --  -19.66487 -19.60905 -10.66401 -10.58610 -10.57731
 Alpha  occ. eigenvalues --  -10.54218  -1.23333  -1.13963  -0.90351  -0.82759
 Alpha  occ. eigenvalues --   -0.74009  -0.64122  -0.60020  -0.57210  -0.56148
 Alpha  occ. eigenvalues --   -0.51486  -0.50645  -0.47114  -0.46819  -0.44867
 Alpha  occ. eigenvalues --   -0.43142  -0.38327  -0.36232  -0.28844
 Alpha virt. eigenvalues --    0.01207   0.02485   0.03643   0.04684   0.05134
 Alpha virt. eigenvalues --    0.05745   0.06603   0.08026   0.08103   0.09184
 Alpha virt. eigenvalues --    0.10358   0.10394   0.11556   0.12048   0.14755
 Alpha virt. eigenvalues --    0.16274   0.18569   0.19475   0.20398   0.20928
 Alpha virt. eigenvalues --    0.20930   0.22538   0.23120   0.23688   0.26170
 Alpha virt. eigenvalues --    0.27291   0.27586   0.29169   0.29580   0.30631
 Alpha virt. eigenvalues --    0.32449   0.34079   0.34473   0.37352   0.40396
 Alpha virt. eigenvalues --    0.42740   0.43570   0.44607   0.45609   0.48903
 Alpha virt. eigenvalues --    0.50162   0.51803   0.53648   0.54564   0.54968
 Alpha virt. eigenvalues --    0.55229   0.56738   0.58495   0.59266   0.61920
 Alpha virt. eigenvalues --    0.63130   0.63637   0.65017   0.66094   0.66672
 Alpha virt. eigenvalues --    0.68430   0.70589   0.74181   0.77241   0.77811
 Alpha virt. eigenvalues --    0.80354   0.82812   0.85021   0.85385   0.88988
 Alpha virt. eigenvalues --    0.91373   0.91376   0.93011   0.98431   0.98888
 Alpha virt. eigenvalues --    1.02173   1.03852   1.07226   1.09199   1.11116
 Alpha virt. eigenvalues --    1.11569   1.13019   1.13534   1.14657   1.17410
 Alpha virt. eigenvalues --    1.18078   1.18689   1.19677   1.22854   1.24317
 Alpha virt. eigenvalues --    1.26998   1.27913   1.28808   1.31556   1.33641
 Alpha virt. eigenvalues --    1.35246   1.36025   1.39143   1.42166   1.42512
 Alpha virt. eigenvalues --    1.44747   1.45653   1.47153   1.48523   1.49087
 Alpha virt. eigenvalues --    1.52556   1.56746   1.58418   1.60913   1.66018
 Alpha virt. eigenvalues --    1.66304   1.72821   1.74630   1.78712   1.84329
 Alpha virt. eigenvalues --    1.89110   1.93337   2.03516   2.16719   2.17673
 Alpha virt. eigenvalues --    2.29985   2.36678   2.39148   2.40530   2.46161
 Alpha virt. eigenvalues --    2.51524   2.54543   2.58097   2.60445   2.66495
 Alpha virt. eigenvalues --    2.68002   2.74755   2.77065   2.79468   2.79797
 Alpha virt. eigenvalues --    2.83855   2.85692   2.93277   2.95477   2.96449
 Alpha virt. eigenvalues --    2.98877   2.99388   3.06170   3.07177   3.10083
 Alpha virt. eigenvalues --    3.12992   3.13624   3.14379   3.17640   3.18669
 Alpha virt. eigenvalues --    3.18832   3.19635   3.21251   3.24143   3.26971
 Alpha virt. eigenvalues --    3.30438   3.30848   3.37111   3.40352   3.40513
 Alpha virt. eigenvalues --    3.42154   3.45803   3.49490   3.50124   3.51350
 Alpha virt. eigenvalues --    3.52863   3.53053   3.55903   3.57433   3.60891
 Alpha virt. eigenvalues --    3.67251   3.68899   3.72513   3.75781   3.78455
 Alpha virt. eigenvalues --    3.84556   3.87567   3.88514   3.90008   3.90331
 Alpha virt. eigenvalues --    3.92681   3.98997   4.01326   4.07949   4.09390
 Alpha virt. eigenvalues --    4.12804   4.15165   4.15825   4.17861   4.21601
 Alpha virt. eigenvalues --    4.25047   4.29366   4.31197   4.31791   4.33966
 Alpha virt. eigenvalues --    4.36513   4.39039   4.40571   4.43094   4.47813
 Alpha virt. eigenvalues --    4.50144   4.52803   4.64383   4.83778   4.93338
 Alpha virt. eigenvalues --    5.04063   5.08519   5.11623   5.14298   5.20275
 Alpha virt. eigenvalues --    5.23814   5.26645   5.32011   5.39279   5.43542
 Alpha virt. eigenvalues --    5.45514   5.54055   5.55400   5.56705   5.58404
 Alpha virt. eigenvalues --    5.58821   5.63786   5.73034   5.74890   5.80634
 Alpha virt. eigenvalues --    5.97989   6.11241   6.33976   6.47661   6.70730
 Alpha virt. eigenvalues --    6.82216   6.95226   7.09978   7.11305   7.17352
 Alpha virt. eigenvalues --    7.18994   7.25007   7.30429   7.55524   7.67044
 Alpha virt. eigenvalues --    7.78891   7.82597  24.25967  24.44411  24.48782
 Alpha virt. eigenvalues --   24.91061  50.17744  50.32203
  Beta  occ. eigenvalues --  -19.66409 -19.60603 -10.66479 -10.58613 -10.57175
  Beta  occ. eigenvalues --  -10.54269  -1.22988  -1.13270  -0.88207  -0.82565
  Beta  occ. eigenvalues --   -0.72728  -0.63674  -0.59023  -0.56293  -0.55652
  Beta  occ. eigenvalues --   -0.51004  -0.48601  -0.46395  -0.45558  -0.44647
  Beta  occ. eigenvalues --   -0.42936  -0.36599  -0.35536
  Beta virt. eigenvalues --   -0.06728   0.00968   0.02521   0.03688   0.04366
  Beta virt. eigenvalues --    0.05050   0.05753   0.06513   0.08199   0.08498
  Beta virt. eigenvalues --    0.08546   0.09798   0.10621   0.12134   0.13146
  Beta virt. eigenvalues --    0.14448   0.15812   0.18785   0.19468   0.20609
  Beta virt. eigenvalues --    0.20875   0.21518   0.22649   0.23230   0.24033
  Beta virt. eigenvalues --    0.26452   0.27155   0.27471   0.29105   0.30238
  Beta virt. eigenvalues --    0.31040   0.32730   0.34100   0.34813   0.37695
  Beta virt. eigenvalues --    0.40455   0.42868   0.43520   0.44620   0.46266
  Beta virt. eigenvalues --    0.49480   0.50467   0.52198   0.54169   0.55081
  Beta virt. eigenvalues --    0.55355   0.56519   0.56895   0.58762   0.59486
  Beta virt. eigenvalues --    0.61927   0.63730   0.64095   0.65576   0.66201
  Beta virt. eigenvalues --    0.67142   0.68732   0.70733   0.73589   0.77146
  Beta virt. eigenvalues --    0.77863   0.80148   0.82645   0.84722   0.85483
  Beta virt. eigenvalues --    0.89208   0.90986   0.91551   0.92917   0.97462
  Beta virt. eigenvalues --    0.98731   1.02236   1.03966   1.07359   1.09254
  Beta virt. eigenvalues --    1.10966   1.11553   1.13010   1.14041   1.14573
  Beta virt. eigenvalues --    1.17367   1.18478   1.18713   1.19904   1.22904
  Beta virt. eigenvalues --    1.24349   1.27237   1.28606   1.29433   1.31495
  Beta virt. eigenvalues --    1.33840   1.35405   1.36346   1.39537   1.42204
  Beta virt. eigenvalues --    1.42639   1.44873   1.45589   1.47226   1.48959
  Beta virt. eigenvalues --    1.49134   1.53652   1.56808   1.59076   1.61014
  Beta virt. eigenvalues --    1.66435   1.66602   1.73538   1.74936   1.78818
  Beta virt. eigenvalues --    1.84561   1.89601   1.93577   2.03924   2.17580
  Beta virt. eigenvalues --    2.18131   2.30318   2.37020   2.39246   2.41411
  Beta virt. eigenvalues --    2.46617   2.52070   2.55050   2.58202   2.61682
  Beta virt. eigenvalues --    2.68849   2.71203   2.75154   2.80520   2.81696
  Beta virt. eigenvalues --    2.83925   2.85347   2.87879   2.95081   2.96517
  Beta virt. eigenvalues --    2.97004   3.00459   3.00623   3.06323   3.08540
  Beta virt. eigenvalues --    3.10165   3.13521   3.14682   3.15099   3.18173
  Beta virt. eigenvalues --    3.19500   3.20232   3.20756   3.22654   3.27215
  Beta virt. eigenvalues --    3.28420   3.32426   3.33008   3.38538   3.41002
  Beta virt. eigenvalues --    3.41667   3.43199   3.46552   3.50491   3.51464
  Beta virt. eigenvalues --    3.52351   3.54449   3.54993   3.57838   3.58757
  Beta virt. eigenvalues --    3.61387   3.69503   3.69915   3.73909   3.76379
  Beta virt. eigenvalues --    3.79510   3.85589   3.87559   3.88944   3.90491
  Beta virt. eigenvalues --    3.91361   3.92829   3.99726   4.01668   4.09969
  Beta virt. eigenvalues --    4.10266   4.13130   4.16805   4.17838   4.19766
  Beta virt. eigenvalues --    4.22214   4.26808   4.29942   4.31479   4.32861
  Beta virt. eigenvalues --    4.35717   4.39166   4.39949   4.42080   4.43320
  Beta virt. eigenvalues --    4.49503   4.51914   4.54530   4.68722   4.88328
  Beta virt. eigenvalues --    4.93594   5.06773   5.09186   5.12579   5.14687
  Beta virt. eigenvalues --    5.21252   5.24168   5.27372   5.34302   5.39624
  Beta virt. eigenvalues --    5.46186   5.46732   5.54441   5.55681   5.56590
  Beta virt. eigenvalues --    5.58019   5.59984   5.65218   5.74000   5.75004
  Beta virt. eigenvalues --    5.82698   5.98354   6.11569   6.34795   6.47771
  Beta virt. eigenvalues --    6.71147   6.84457   6.97157   7.10872   7.11828
  Beta virt. eigenvalues --    7.17817   7.20078   7.25529   7.31470   7.55974
  Beta virt. eigenvalues --    7.67822   7.78989   7.82738  24.26955  24.44395
  Beta virt. eigenvalues --   24.49309  24.91349  50.17655  50.31823
          Condensed to atoms (all electrons):
               1          2          3          4          5          6
     1  O    8.225865  -0.084512   0.012412   0.137641  -0.203692   0.212894
     2  O   -0.084512   8.224375  -0.006503  -0.042237  -0.030852   0.364402
     3  C    0.012412  -0.006503   5.053315  -0.013264   0.273837  -0.081615
     4  C    0.137641  -0.042237  -0.013264   4.988051  -0.117029  -0.057398
     5  C   -0.203692  -0.030852   0.273837  -0.117029   6.016977  -0.134281
     6  C    0.212894   0.364402  -0.081615  -0.057398  -0.134281   5.417322
     7  H   -0.000321   0.000853   0.411687   0.000123  -0.032524  -0.009434
     8  H    0.000228   0.000434   0.429018  -0.000885  -0.063255   0.015004
     9  H   -0.000321   0.000853   0.411687   0.000123  -0.032523  -0.009435
    10  H   -0.059365   0.003525   0.000397   0.419786   0.006136   0.014123
    11  H   -0.036125  -0.004274  -0.000762   0.431481  -0.002934   0.003423
    12  H   -0.036126  -0.004274  -0.000762   0.431481  -0.002934   0.003423
    13  H    0.003163   0.003615  -0.017238   0.004287   0.347122   0.019142
               7          8          9         10         11         12
     1  O   -0.000321   0.000228  -0.000321  -0.059365  -0.036125  -0.036126
     2  O    0.000853   0.000434   0.000853   0.003525  -0.004274  -0.004274
     3  C    0.411687   0.429018   0.411687   0.000397  -0.000762  -0.000762
     4  C    0.000123  -0.000885   0.000123   0.419786   0.431481   0.431481
     5  C   -0.032524  -0.063255  -0.032523   0.006136  -0.002934  -0.002934
     6  C   -0.009434   0.015004  -0.009435   0.014123   0.003423   0.003423
     7  H    0.565044  -0.023843  -0.042241  -0.000001   0.000004  -0.000006
     8  H   -0.023843   0.496843  -0.023843   0.000004  -0.000006  -0.000006
     9  H   -0.042241  -0.023843   0.565044  -0.000001  -0.000006   0.000004
    10  H   -0.000001   0.000004  -0.000001   0.534425  -0.025073  -0.025073
    11  H    0.000004  -0.000006  -0.000006  -0.025073   0.534433  -0.038141
    12  H   -0.000006  -0.000006   0.000004  -0.025073  -0.038141   0.534433
    13  H   -0.002365   0.003142  -0.002365  -0.000049  -0.000007  -0.000007
              13
     1  O    0.003163
     2  O    0.003615
     3  C   -0.017238
     4  C    0.004287
     5  C    0.347122
     6  C    0.019142
     7  H   -0.002365
     8  H    0.003142
     9  H   -0.002365
    10  H   -0.000049
    11  H   -0.000007
    12  H   -0.000007
    13  H    0.448786
          Atomic-Atomic Spin Densities.
               1          2          3          4          5          6
     1  O    0.035586   0.009130   0.002966  -0.002440  -0.030151   0.011333
     2  O    0.009130   0.197047   0.005953  -0.002052  -0.030364  -0.020603
     3  C    0.002966   0.005953  -0.013534   0.000861  -0.066500  -0.006420
     4  C   -0.002440  -0.002052   0.000861  -0.002647  -0.005843   0.007222
     5  C   -0.030151  -0.030364  -0.066500  -0.005843   1.036978   0.039472
     6  C    0.011333  -0.020603  -0.006420   0.007222   0.039472  -0.101647
     7  H    0.000090   0.000548   0.023244  -0.000069  -0.031163   0.000443
     8  H   -0.000053   0.000136  -0.004390   0.000060   0.002063   0.000806
     9  H    0.000090   0.000548   0.023245  -0.000069  -0.031163   0.000442
    10  H    0.000234  -0.000048  -0.000048   0.000131  -0.000019  -0.000357
    11  H   -0.000587  -0.000810  -0.000011   0.000490   0.000400   0.000172
    12  H   -0.000587  -0.000810  -0.000011   0.000490   0.000400   0.000172
    13  H   -0.000290   0.000209   0.002517   0.000341  -0.012884   0.011278
               7          8          9         10         11         12
     1  O    0.000090  -0.000053   0.000090   0.000234  -0.000587  -0.000587
     2  O    0.000548   0.000136   0.000548  -0.000048  -0.000810  -0.000810
     3  C    0.023244  -0.004390   0.023245  -0.000048  -0.000011  -0.000011
     4  C   -0.000069   0.000060  -0.000069   0.000131   0.000490   0.000490
     5  C   -0.031163   0.002063  -0.031163  -0.000019   0.000400   0.000400
     6  C    0.000443   0.000806   0.000442  -0.000357   0.000172   0.000172
     7  H    0.057068  -0.000044  -0.015824   0.000000   0.000003  -0.000006
     8  H   -0.000044   0.004524  -0.000044  -0.000000   0.000000   0.000000
     9  H   -0.015824  -0.000044   0.057068   0.000000  -0.000006   0.000003
    10  H    0.000000  -0.000000   0.000000   0.000072   0.000037   0.000037
    11  H    0.000003   0.000000  -0.000006   0.000037   0.002847  -0.000635
    12  H   -0.000006   0.000000   0.000003   0.000037  -0.000635   0.002847
    13  H    0.000248  -0.000203   0.000248  -0.000005   0.000007   0.000007
              13
     1  O   -0.000290
     2  O    0.000209
     3  C    0.002517
     4  C    0.000341
     5  C   -0.012884
     6  C    0.011278
     7  H    0.000248
     8  H   -0.000203
     9  H    0.000248
    10  H   -0.000005
    11  H    0.000007
    12  H    0.000007
    13  H   -0.039342
 Mulliken charges and spin densities:
               1          2
     1  O   -0.171741   0.025320
     2  O   -0.425404   0.158882
     3  C   -0.472208  -0.032128
     4  C   -0.182158  -0.003524
     5  C   -0.024049   0.871226
     6  C    0.242431  -0.057688
     7  H    0.133024   0.034537
     8  H    0.167165   0.002856
     9  H    0.133025   0.034538
    10  H    0.131165   0.000036
    11  H    0.137988   0.001907
    12  H    0.137988   0.001907
    13  H    0.192774  -0.037869
 Sum of Mulliken charges =  -0.00000   1.00000
 Mulliken charges and spin densities with hydrogens summed into heavy atoms:
               1          2
     1  O   -0.171741   0.025320
     2  O   -0.425404   0.158882
     3  C   -0.038994   0.039803
     4  C    0.224984   0.000327
     5  C    0.168725   0.833357
     6  C    0.242431  -0.057688
 APT charges:
               1
     1  O   -0.052738
     2  O   -0.428795
     3  C   -1.341371
     4  C   -1.229385
     5  C   -0.277605
     6  C    0.333440
     7  H    0.497065
     8  H    0.281113
     9  H    0.497063
    10  H    0.573110
    11  H    0.355533
    12  H    0.355533
    13  H    0.437037
 Sum of APT charges =  -0.00000
 APT charges with hydrogens summed into heavy atoms:
               1
     1  O   -0.052738
     2  O   -0.428795
     3  C   -0.066129
     4  C    0.054790
     5  C    0.159431
     6  C    0.333440
 Electronic spatial extent (au):  <R**2>=            675.7493
 Charge=             -0.0000 electrons
 Dipole moment (field-independent basis, Debye):
    X=             -0.3514    Y=             -1.7429    Z=              0.0000  Tot=              1.7779
 Quadrupole moment (field-independent basis, Debye-Ang):
   XX=            -28.0433   YY=            -40.3362   ZZ=            -36.2279
   XY=              1.3617   XZ=             -0.0000   YZ=              0.0000
 Traceless Quadrupole moment (field-independent basis, Debye-Ang):
   XX=              6.8259   YY=             -5.4671   ZZ=             -1.3588
   XY=              1.3617   XZ=             -0.0000   YZ=              0.0000
 Octapole moment (field-independent basis, Debye-Ang**2):
  XXX=             11.5442  YYY=             -5.0251  ZZZ=              0.0000  XYY=             -0.5162
  XXY=             -0.4497  XXZ=              0.0000  XZZ=              1.9049  YZZ=              1.3518
  YYZ=             -0.0000  XYZ=             -0.0000
 Hexadecapole moment (field-independent basis, Debye-Ang**3):
 XXXX=           -642.7377 YYYY=           -152.5604 ZZZZ=            -49.3328 XXXY=             -5.1038
 XXXZ=              0.0000 YYYX=             -2.0078 YYYZ=             -0.0000 ZZZX=             -0.0001
 ZZZY=             -0.0000 XXYY=           -138.0459 XXZZ=           -119.9713 YYZZ=            -34.3007
 XXYZ=              0.0000 YYXZ=              0.0000 ZZXY=              1.9517
 N-N= 2.357903064436D+02 E-N=-1.190077395674D+03  KE= 3.059455160861D+02
  Exact polarizability:   0.000   0.000   0.000   0.000   0.000   0.000
 Approx polarizability:  67.686   0.989  68.118  -0.000   0.000  51.380
                          Isotropic Fermi Contact Couplings
        Atom                 a.u.       MegaHertz       Gauss      10(-4) cm-1
     1  O(17)              0.00137      -0.83264      -0.29711      -0.27774
     2  O(17)              0.03581     -21.70531      -7.74500      -7.24011
     3  C(13)             -0.02844     -31.96818     -11.40704     -10.66344
     4  C(13)             -0.00164      -1.83851      -0.65603      -0.61326
     5  C(13)              0.14019     157.60566      56.23762      52.57159
     6  C(13)             -0.04400     -49.46774     -17.65132     -16.50066
     7  H(1)               0.02090      93.44139      33.34221      31.16869
     8  H(1)               0.00020       0.89508       0.31939       0.29857
     9  H(1)               0.02091      93.44328      33.34289      31.16932
    10  H(1)              -0.00002      -0.09002      -0.03212      -0.03003
    11  H(1)               0.00130       5.81753       2.07584       1.94052
    12  H(1)               0.00130       5.81756       2.07585       1.94053
    13  H(1)              -0.01430     -63.93136     -22.81230     -21.32521
 --------------------------------------------------------
       Center         ----  Spin Dipole Couplings  ----
                      3XX-RR        3YY-RR        3ZZ-RR
 --------------------------------------------------------
     1   Atom       -0.068386     -0.086072      0.154458
     2   Atom       -0.329259     -0.332651      0.661910
     3   Atom       -0.003116     -0.014808      0.017924
     4   Atom        0.003950     -0.003248     -0.000702
     5   Atom       -0.482975     -0.476251      0.959225
     6   Atom        0.017909      0.019881     -0.037790
     7   Atom        0.012463     -0.007222     -0.005241
     8   Atom        0.001729      0.005737     -0.007466
     9   Atom        0.012462     -0.007222     -0.005240
    10   Atom        0.003802     -0.001837     -0.001964
    11   Atom        0.004127     -0.001796     -0.002331
    12   Atom        0.004127     -0.001796     -0.002331
    13   Atom       -0.062190      0.068722     -0.006533
 --------------------------------------------------------
                        XY            XZ            YZ
 --------------------------------------------------------
     1   Atom        0.003156     -0.000000      0.000000
     2   Atom       -0.005023     -0.000001      0.000000
     3   Atom       -0.005046     -0.000000     -0.000000
     4   Atom        0.000043     -0.000000     -0.000000
     5   Atom        0.003556      0.000000     -0.000001
     6   Atom        0.015855     -0.000000     -0.000000
     7   Atom       -0.003031      0.009194     -0.000029
     8   Atom       -0.010620      0.000000     -0.000000
     9   Atom       -0.003031     -0.009194      0.000029
    10   Atom       -0.000740      0.000000     -0.000000
    11   Atom        0.001086      0.002087      0.000546
    12   Atom        0.001086     -0.002087     -0.000546
    13   Atom       -0.003616      0.000000      0.000000
 --------------------------------------------------------


 ---------------------------------------------------------------------------------
              Anisotropic Spin Dipole Couplings in Principal Axis System
 ---------------------------------------------------------------------------------

       Atom             a.u.   MegaHertz   Gauss  10(-4) cm-1        Axes

              Baa    -0.0866     6.268     2.236     2.091 -0.1706  0.9853 -0.0000
     1 O(17)  Bbb    -0.0678     4.909     1.752     1.637  0.9853  0.1706  0.0000
              Bcc     0.1545   -11.176    -3.988    -3.728 -0.0000  0.0000  1.0000
 
              Baa    -0.3363    24.331     8.682     8.116  0.5831  0.8124  0.0000
     2 O(17)  Bbb    -0.3257    23.564     8.408     7.860  0.8124 -0.5831  0.0000
              Bcc     0.6619   -47.895   -17.090   -15.976 -0.0000  0.0000  1.0000
 
              Baa    -0.0167    -2.239    -0.799    -0.747  0.3485  0.9373  0.0000
     3 C(13)  Bbb    -0.0012    -0.166    -0.059    -0.055  0.9373 -0.3485 -0.0000
              Bcc     0.0179     2.405     0.858     0.802 -0.0000 -0.0000  1.0000
 
              Baa    -0.0032    -0.436    -0.156    -0.145 -0.0059  1.0000  0.0000
     4 C(13)  Bbb    -0.0007    -0.094    -0.034    -0.031  0.0000 -0.0000  1.0000
              Bcc     0.0040     0.530     0.189     0.177  1.0000  0.0059 -0.0000
 
              Baa    -0.4845   -65.016   -23.199   -21.687  0.9184 -0.3956 -0.0000
     5 C(13)  Bbb    -0.4747   -63.703   -22.731   -21.249  0.3956  0.9184  0.0000
              Bcc     0.9592   128.719    45.930    42.936  0.0000 -0.0000  1.0000
 
              Baa    -0.0378    -5.071    -1.809    -1.692 -0.0000  0.0000  1.0000
     6 C(13)  Bbb     0.0030     0.404     0.144     0.135  0.7287 -0.6848  0.0000
              Bcc     0.0348     4.667     1.665     1.557  0.6848  0.7287 -0.0000
 
              Baa    -0.0098    -5.204    -1.857    -1.736 -0.3923 -0.4606  0.7962
     7 H(1)   Bbb    -0.0069    -3.707    -1.323    -1.237 -0.0841  0.8799  0.4676
              Bcc     0.0167     8.911     3.180     2.972  0.9160 -0.1165  0.3839
 
              Baa    -0.0075    -3.983    -1.421    -1.329 -0.0001 -0.0000  1.0000
     8 H(1)   Bbb    -0.0071    -3.774    -1.347    -1.259  0.7699  0.6382  0.0001
              Bcc     0.0145     7.758     2.768     2.588 -0.6382  0.7699 -0.0000
 
              Baa    -0.0098    -5.204    -1.857    -1.736  0.3923  0.4606  0.7962
     9 H(1)   Bbb    -0.0069    -3.707    -1.323    -1.237 -0.0841  0.8799 -0.4676
              Bcc     0.0167     8.911     3.180     2.972  0.9160 -0.1165 -0.3839
 
              Baa    -0.0020    -1.048    -0.374    -0.350  0.0000  0.0000  1.0000
    10 H(1)   Bbb    -0.0019    -1.031    -0.368    -0.344  0.1280  0.9918 -0.0000
              Bcc     0.0039     2.079     0.742     0.694  0.9918 -0.1280  0.0000
 
              Baa    -0.0030    -1.597    -0.570    -0.533 -0.2455 -0.2094  0.9465
    11 H(1)   Bbb    -0.0020    -1.047    -0.373    -0.349 -0.2246  0.9621  0.1546
              Bcc     0.0050     2.644     0.943     0.882  0.9430  0.1746  0.2832
 
              Baa    -0.0030    -1.597    -0.570    -0.533  0.2454  0.2094  0.9465
    12 H(1)   Bbb    -0.0020    -1.047    -0.373    -0.349 -0.2246  0.9621 -0.1546
              Bcc     0.0050     2.644     0.943     0.882  0.9430  0.1746 -0.2832
 
              Baa    -0.0623   -33.235   -11.859   -11.086  0.9996  0.0276 -0.0000
    13 H(1)   Bbb    -0.0065    -3.485    -1.244    -1.163  0.0000 -0.0000  1.0000
              Bcc     0.0688    36.720    13.103    12.249 -0.0276  0.9996  0.0000
 

 ---------------------------------------------------------------------------------

 No NMR shielding tensors so no spin-rotation constants.
 Leave Link  601 at Mon Mar 11 00:04:51 2019, MaxMem=   671088640 cpu:               9.8 elap:               0.5
 (Enter /shared/centos7/gaussian/g16/l701.exe)
 ... and contract with generalized density number  0.
 Compute integral second derivatives.
 Leave Link  701 at Mon Mar 11 00:04:52 2019, MaxMem=   671088640 cpu:               5.2 elap:               0.3
 (Enter /shared/centos7/gaussian/g16/l702.exe)
 L702 exits ... SP integral derivatives will be done elsewhere.
 Leave Link  702 at Mon Mar 11 00:04:52 2019, MaxMem=   671088640 cpu:               0.3 elap:               0.0
 (Enter /shared/centos7/gaussian/g16/l703.exe)
 Integral derivatives from FoFJK, PRISM(SPDF).
 Compute integral second derivatives, UseDBF=F ICtDFT=           0.
 Calling FoFJK, ICntrl=    100147 FMM=F ISym2X=0 I1Cent= 0 IOpClX= 1 NMat=1 NMatS=1 NMatT=0.
 FoFJK:  IHMeth= 1 ICntrl=  100147 DoSepK=F KAlg= 0 I1Cent=           0 FoldK=F
 IRaf=         0 NMat=       1 IRICut=       1 DoRegI=T DoRafI=F ISym2E= 0 IDoP0=0 IntGTp=1.
 FoFCou: FMM=F IPFlag=           0 FMFlag=      100000 FMFlg1=         800
         NFxFlg=           0 DoJE=F BraDBF=F KetDBF=F FulRan=T
         wScrn=  0.000000 ICntrl=    100147 IOpCl=  1 I1Cent=           0 NGrid=           0
         NMat0=    1 NMatS0=      1 NMatT0=    0 NMatD0=    1 NMtDS0=    0 NMtDT0=    0
 Symmetry not used in FoFCou.
 Leave Link  703 at Mon Mar 11 00:06:14 2019, MaxMem=   671088640 cpu:            1652.6 elap:              82.6
 (Enter /shared/centos7/gaussian/g16/l716.exe)
 Dipole        =-1.38256911D-01-6.85695518D-01 5.07956702D-07
 Polarizability= 0.00000000D+00 0.00000000D+00 0.00000000D+00
                 0.00000000D+00 0.00000000D+00 0.00000000D+00
 ***** Axes restored to original set *****
 -------------------------------------------------------------------
 Center     Atomic                   Forces (Hartrees/Bohr)
 Number     Number              X              Y              Z
 -------------------------------------------------------------------
      1        8           0.000000213    0.000000049   -0.000000330
      2        8          -0.000000331   -0.000000162   -0.000000124
      3        6          -0.000000122    0.000000019    0.000000643
      4        6           0.000000105   -0.000000030   -0.000000688
      5        6           0.000000091    0.000000074    0.000000308
      6        6          -0.000000013   -0.000000016   -0.000000015
      7        1          -0.000000082    0.000000049    0.000000807
      8        1          -0.000000396   -0.000000109    0.000000568
      9        1          -0.000000089    0.000000056    0.000000816
     10        1           0.000000340    0.000000051   -0.000000857
     11        1          -0.000000040   -0.000000103   -0.000000726
     12        1          -0.000000041   -0.000000099   -0.000000730
     13        1           0.000000365    0.000000219    0.000000330
 -------------------------------------------------------------------
 Cartesian Forces:  Max     0.000000857 RMS     0.000000372
 Force constants in Cartesian coordinates: 
                1             2             3             4             5 
      1  0.458643D+00
      2  0.173986D+00  0.161969D+00
      3  0.250010D-01  0.453373D-01  0.371964D+00
      4  0.202794D-01 -0.720634D-02 -0.351153D-01  0.135985D+00
      5 -0.657248D-02  0.208524D-01 -0.294756D-01  0.283615D-01  0.478968D-01
      6 -0.296569D-01 -0.270195D-01 -0.905315D-01 -0.154491D+00  0.176843D-01
      7 -0.353056D-02 -0.258426D-02  0.820126D-03 -0.162833D-03 -0.351197D-04
      8 -0.203663D-02  0.151939D-02  0.970576D-04  0.337005D-03 -0.611989D-03
      9  0.553589D-02  0.221891D-02  0.823370D-04  0.111636D-02  0.237224D-03
     10 -0.183424D+00 -0.480565D-01  0.396715D-01 -0.129280D-03  0.433859D-02
     11 -0.449830D-01 -0.852091D-01  0.121721D-01  0.224155D-02 -0.443085D-02
     12  0.661386D-01  0.240810D-01 -0.115280D+00 -0.415231D-02 -0.172505D-02
     13 -0.471421D-01 -0.262966D-01 -0.482714D-02 -0.744631D-02 -0.674866D-02
     14 -0.286942D-01 -0.308059D-02 -0.193511D-02 -0.631487D-02  0.170642D-01
     15 -0.254735D-01 -0.112250D-01  0.120953D-01  0.467320D-01  0.125033D-01
     16 -0.172242D+00 -0.534152D-01 -0.419350D-01 -0.143608D+00 -0.160480D-01
     17 -0.569974D-01 -0.937391D-01 -0.322148D-01 -0.142949D-01 -0.821381D-01
     18 -0.727831D-01 -0.460950D-01 -0.179280D+00  0.143521D+00 -0.102089D-02
     19 -0.165214D-02 -0.255669D-03 -0.585752D-04 -0.313486D-03  0.285945D-04
     20 -0.102487D-02 -0.305526D-03 -0.145138D-03 -0.113204D-03  0.653883D-04
     21 -0.131438D-02 -0.136457D-03 -0.139589D-03  0.359164D-03 -0.451785D-04
     22  0.994733D-03  0.512133D-03  0.105092D-02 -0.991673D-03  0.153412D-03
     23  0.366334D-03  0.348848D-03  0.484397D-03  0.122413D-03 -0.728183D-03
     24 -0.204579D-03 -0.805210D-04  0.227058D-03  0.136406D-02  0.985698D-03
     25 -0.143888D-02 -0.107080D-02 -0.548472D-04 -0.206151D-03 -0.190005D-03
     26 -0.557759D-03 -0.585355D-03  0.894182D-04 -0.109292D-03  0.123544D-04
     27 -0.100509D-02 -0.911878D-03 -0.730254D-04  0.439550D-04  0.660448D-03
     28 -0.297085D-01 -0.163361D-01 -0.252702D-01  0.174574D-02  0.352956D-03
     29 -0.119507D-01 -0.643501D-02 -0.976267D-02  0.216938D-03  0.785870D-03
     30  0.124946D-01  0.722971D-02  0.139205D-01 -0.207969D-02 -0.859666D-03
     31 -0.697539D-02 -0.336057D-01  0.245988D-01 -0.749406D-04 -0.509051D-03
     32 -0.101625D-01 -0.945458D-02  0.707913D-02  0.135888D-02  0.642786D-03
     33  0.845315D-02  0.106031D-01 -0.771020D-02  0.148421D-03 -0.280305D-03
     34 -0.329636D-01  0.142668D-01  0.171310D-01  0.101064D-02  0.985753D-05
     35 -0.114375D-01  0.153485D-01  0.844050D-02 -0.121625D-02 -0.149308D-03
     36  0.138059D-01 -0.384441D-02 -0.652502D-02  0.169546D-03  0.429362D-03
     37 -0.839813D-03  0.619511D-04 -0.101237D-02 -0.608798D-02 -0.314162D-02
     38  0.643511D-04 -0.122916D-02 -0.166528D-03 -0.338346D-02  0.738586D-03
     39 -0.991713D-03 -0.157232D-03  0.124987D-02  0.238422D-02  0.906371D-03
                6             7             8             9            10 
      6  0.783981D+00
      7 -0.208814D-02  0.518938D+00
      8 -0.120474D-02  0.115588D-02  0.506590D+00
      9 -0.290656D-02 -0.358156D-01 -0.910446D-02  0.567499D+00
     10  0.139062D-01  0.590656D-03  0.843510D-04  0.267505D-03  0.512194D+00
     11  0.640041D-02 -0.554869D-04  0.466717D-03  0.167847D-03 -0.286461D-01
     12 -0.494874D-02 -0.936796D-03 -0.374037D-03  0.881066D-03  0.546389D-01
     13  0.429964D-01 -0.160856D+00 -0.587031D-01 -0.694293D-01  0.415741D-02
     14  0.108225D-01 -0.576234D-01 -0.792418D-01 -0.431002D-01 -0.270915D-03
     15 -0.547543D-01 -0.601319D-01 -0.389170D-01 -0.150444D+00 -0.337190D-02
     16  0.128424D+00 -0.146313D-01 -0.937753D-02  0.250675D-03 -0.524113D-01
     17 -0.781379D-02 -0.109126D-01  0.148920D-02  0.107871D-02 -0.264887D-01
     18 -0.639695D+00 -0.129707D-01 -0.487013D-02  0.145928D-01 -0.138645D-01
     19  0.398392D-03 -0.467009D-01 -0.507017D-01  0.159956D-01  0.834891D-04
     20  0.541946D-03 -0.467124D-01 -0.274922D+00  0.701534D-01  0.141060D-03
     21  0.193478D-02  0.132083D-01  0.646762D-01 -0.673111D-01  0.972131D-04
     22  0.163097D-02 -0.703145D-01 -0.844842D-03  0.773466D-01 -0.170274D-03
     23  0.110582D-02 -0.135912D-02 -0.484747D-01  0.525941D-02 -0.902547D-04
     24  0.229116D-02  0.729183D-01  0.326694D-02 -0.302863D+00  0.100859D-03
     25  0.530912D-03 -0.230191D+00  0.120171D+00  0.262165D-01  0.243070D-03
     26  0.310090D-03  0.115266D+00 -0.108336D+00 -0.160102D-01 -0.188889D-04
     27  0.188047D-02  0.211275D-01 -0.140768D-01 -0.504056D-01  0.161271D-03
     28 -0.908344D-03 -0.299365D-03 -0.691368D-04  0.324655D-03 -0.111440D+00
     29 -0.332616D-03 -0.991102D-04 -0.901131D-04  0.141280D-03 -0.399293D-01
     30  0.138218D-02  0.665398D-04  0.251409D-04 -0.103255D-03 -0.118252D+00
     31 -0.216547D-02 -0.710122D-04  0.116094D-04  0.215484D-04 -0.606526D-01
     32 -0.212368D-02 -0.288021D-04  0.448470D-05  0.283558D-04  0.382988D-01
     33  0.522943D-03  0.339320D-04 -0.195367D-04 -0.182291D-04 -0.328750D-01
     34 -0.304354D-02 -0.414996D-04 -0.541488D-04  0.446926D-04 -0.109143D+00
     35 -0.214136D-03 -0.163865D-04 -0.227340D-04 -0.294993D-05  0.100441D+00
     36  0.229470D-03  0.951504D-05  0.346860D-04 -0.205231D-04  0.590944D-01
     37  0.446676D-02  0.727031D-02  0.276322D-04 -0.218751D-01  0.101649D-03
     38  0.184341D-02  0.300431D-02  0.162987D-02 -0.110672D-01  0.196648D-03
     39  0.613814D-03  0.375878D-02  0.466698D-03 -0.898188D-02  0.425234D-03
               11            12            13            14            15 
     11  0.580171D+00
     12  0.266976D-01  0.608153D+00
     13 -0.318520D-03 -0.378165D-02  0.502558D+00
     14  0.347019D-02 -0.255947D-02  0.180601D+00  0.184040D+00
     15 -0.237511D-02 -0.349842D-02 -0.188613D-01  0.556913D-01  0.648979D+00
     16 -0.275180D-01 -0.227277D-01 -0.205859D+00 -0.586390D-01  0.503844D-01
     17 -0.100067D-01 -0.834124D-02 -0.604123D-01 -0.875670D-01  0.185037D-01
     18 -0.435319D-02  0.191147D-01  0.351144D-01  0.116328D-01 -0.984169D-01
     19  0.765863D-04 -0.255032D-03 -0.115547D-01 -0.230291D-01  0.565293D-02
     20  0.158582D-03 -0.132950D-03 -0.706975D-02 -0.100930D-01  0.625639D-03
     21  0.791118D-04 -0.114036D-03 -0.569900D-02 -0.176624D-01  0.696173D-02
     22 -0.820563D-04  0.171468D-03  0.834412D-02  0.132549D-02 -0.263210D-01
     23  0.244011D-04  0.746381D-04  0.469110D-02 -0.919567D-03 -0.140814D-01
     24  0.428676D-04  0.346909D-04  0.266029D-02 -0.104139D-02 -0.206700D-01
     25 -0.413520D-04 -0.235123D-03 -0.243890D-01  0.522318D-02  0.553500D-03
     26 -0.120347D-04 -0.126936D-03 -0.141221D-01  0.618434D-02  0.277656D-02
     27 -0.214854D-05 -0.102994D-03 -0.172525D-01  0.794499D-02  0.351853D-02
     28 -0.384886D-01 -0.105845D+00 -0.851475D-03 -0.599997D-03 -0.122553D-02
     29 -0.792186D-01 -0.691853D-01 -0.411538D-03 -0.775207D-04 -0.499935D-03
     30 -0.747678D-01 -0.238879D+00  0.397382D-03  0.230296D-03  0.609144D-03
     31  0.454353D-01 -0.382572D-01 -0.839956D-03  0.662067D-03  0.325727D-04
     32 -0.201311D+00  0.125789D+00 -0.475222D-03 -0.192708D-03 -0.900347D-04
     33  0.127911D+00 -0.158367D+00  0.474947D-03  0.427935D-03 -0.112109D-03
     34  0.922528D-01  0.554166D-01 -0.438413D-03 -0.880944D-03  0.974756D-04
     35 -0.203963D+00 -0.941717D-01  0.360137D-03 -0.603326D-03  0.211632D-03
     36 -0.922169D-01 -0.107225D+00  0.548839D-03  0.958065D-04 -0.103034D-03
     37  0.126945D-03 -0.175010D-03 -0.556826D-01 -0.117597D-01  0.319323D-01
     38 -0.140142D-03 -0.256430D-04 -0.110947D-01 -0.289834D-01 -0.231236D-01
     39  0.244439D-03  0.231651D-03  0.376587D-01 -0.205470D-01 -0.344164D+00
               16            17            18            19            20 
     16  0.579495D+00
     17  0.161845D+00  0.266696D+00
     18 -0.114735D+00  0.317097D-01  0.907824D+00
     19 -0.880729D-04 -0.681757D-03 -0.284485D-02  0.575286D-01
     20  0.210587D-02 -0.110273D-02 -0.191890D-02  0.550703D-01  0.301656D+00
     21  0.175683D-02  0.387065D-03 -0.344170D-02 -0.129027D-01 -0.742855D-01
     22  0.873712D-04 -0.165654D-03 -0.283032D-02 -0.262820D-02  0.685414D-03
     23  0.433203D-03 -0.259987D-03 -0.154975D-02 -0.835873D-02  0.141310D-02
     24  0.232636D-02  0.770580D-03 -0.265334D-02  0.153601D-02  0.485531D-04
     25  0.194236D-03  0.126194D-02 -0.331986D-02  0.500156D-02 -0.245386D-02
     26 -0.386650D-03 -0.127706D-02 -0.134461D-02  0.271740D-01 -0.177257D-01
     27  0.188647D-02  0.762606D-03 -0.354960D-02 -0.734868D-02  0.546084D-02
     28 -0.262429D-02 -0.555275D-03  0.663477D-02 -0.876535D-04 -0.495431D-04
     29 -0.968009D-03  0.184645D-03  0.256721D-02 -0.457640D-04 -0.156226D-04
     30  0.308046D-02  0.967940D-03 -0.327856D-02  0.190196D-04  0.409445D-05
     31  0.296954D-02  0.610634D-03  0.553052D-02 -0.247248D-04 -0.112697D-04
     32  0.213887D-02  0.136466D-02  0.553682D-02 -0.102948D-04 -0.515260D-05
     33 -0.265721D-02 -0.173948D-02 -0.764815D-03  0.144615D-04  0.920735D-05
     34  0.301392D-02  0.329597D-02  0.765149D-02 -0.495787D-04 -0.517941D-04
     35 -0.387611D-03  0.792378D-03  0.196478D-03 -0.104796D-04 -0.864554D-05
     36 -0.272128D-02 -0.878580D-03 -0.236917D-03  0.340900D-04  0.252374D-04
     37  0.570407D-02  0.349497D-02  0.248962D-01  0.485703D-03 -0.515924D-03
     38  0.216868D-03  0.556377D-02  0.950948D-02  0.743959D-03  0.884962D-03
     39 -0.333300D-02 -0.319235D-02 -0.102143D-01 -0.240639D-03 -0.386352D-03
               21            22            23            24            25 
     21  0.669871D-01
     22  0.409180D-02  0.745062D-01
     23  0.294266D-01  0.321892D-02  0.482006D-01
     24 -0.578421D-02 -0.786583D-01 -0.256836D-02  0.329695D+00
     25 -0.246275D-04 -0.642333D-02  0.366687D-02  0.312058D-03  0.256611D+00
[...]
 Iteration 95 RMS(Cart)=  0.00282213 RMS(Int)=  0.26352314
 Iteration 96 RMS(Cart)=  0.00234866 RMS(Int)=  0.25854165
 Iteration 97 RMS(Cart)=  0.00146373 RMS(Int)=  0.25564016
 Iteration 98 RMS(Cart)=  0.00127590 RMS(Int)=  0.25312712
 Iteration 99 RMS(Cart)=  0.00119299 RMS(Int)=  0.25076442
 Iteration100 RMS(Cart)=  0.00114462 RMS(Int)=  0.24847105
 New curvilinear step not converged.
 ITry= 8 IFail=1 DXMaxC= 1.24D-01 DCOld= 1.00D+10 DXMaxT= 1.26D-01 DXLimC= 3.00D+00 Rises=F
 SLEqS3 Cycle:   391 Max:0.120361E-01 RMS:0.363941E-02 Conv:0.271542E-06
 SLEqS3 Cycle:   391 Max:0.120361E-01 RMS:0.363941E-02 Conv:0.271542E-06
 Iteration  1 RMS(Cart)=  0.00225401 RMS(Int)=  0.45798490
 Iteration  2 RMS(Cart)=  0.01875057 RMS(Int)=  0.45199968
 Iteration  3 RMS(Cart)=  0.00343623 RMS(Int)=  0.42284358
 Iteration  4 RMS(Cart)=  0.00344593 RMS(Int)=  0.39370660
 Iteration  5 RMS(Cart)=  0.00343947 RMS(Int)=  0.36493893
 Iteration  6 RMS(Cart)=  0.00347160 RMS(Int)=  0.33648578
 Iteration  7 RMS(Cart)=  0.00351562 RMS(Int)=  0.30813817
 Iteration  8 RMS(Cart)=  0.00351595 RMS(Int)=  0.27944658
 Iteration  9 RMS(Cart)=  0.00340653 RMS(Int)=  0.25053441
 Iteration 10 RMS(Cart)=  0.00382905 RMS(Int)=  0.22256152
 Iteration 11 RMS(Cart)=  0.00437104 RMS(Int)=  0.20188871
 Iteration 12 RMS(Cart)=  0.00165017 RMS(Int)=  0.19705469
 Iteration 13 RMS(Cart)=  0.00106008 RMS(Int)=  0.19412028
 Iteration 14 RMS(Cart)=  0.00092372 RMS(Int)=  0.19158213
 Iteration 15 RMS(Cart)=  0.00086448 RMS(Int)=  0.18919930
 Iteration 16 RMS(Cart)=  0.00083130 RMS(Int)=  0.18688844
 Iteration 17 RMS(Cart)=  0.00080957 RMS(Int)=  0.18460755
 Iteration 18 RMS(Cart)=  0.00079419 RMS(Int)=  0.18232835
 Iteration 19 RMS(Cart)=  0.00078223 RMS(Int)=  0.18002506
 Iteration 20 RMS(Cart)=  0.00077255 RMS(Int)=  0.17766611
 Iteration 21 RMS(Cart)=  0.00076478 RMS(Int)=  0.17520072
 Iteration 22 RMS(Cart)=  0.00075905 RMS(Int)=  0.17252198
 Iteration 23 RMS(Cart)=  0.00075684 RMS(Int)=  0.16929896
 Iteration 24 RMS(Cart)=  0.00076085 RMS(Int)=  0.16266832
 Iteration 25 RMS(Cart)=  0.00082004 RMS(Int)=  0.29465513
 Iteration 26 RMS(Cart)=  0.01177572 RMS(Int)=  0.29312228
 Iteration 27 RMS(Cart)=  0.00228917 RMS(Int)=  0.26560335
 Iteration 28 RMS(Cart)=  0.00291815 RMS(Int)=  0.25503291
 Iteration 29 RMS(Cart)=  0.00113151 RMS(Int)=  0.25178964
 Iteration 30 RMS(Cart)=  0.00093368 RMS(Int)=  0.24914197
 Iteration 31 RMS(Cart)=  0.00085540 RMS(Int)=  0.24670418
 Iteration 32 RMS(Cart)=  0.00081172 RMS(Int)=  0.24436348
 Iteration 33 RMS(Cart)=  0.00078242 RMS(Int)=  0.24206925
 Iteration 34 RMS(Cart)=  0.00076023 RMS(Int)=  0.23979119
 Iteration 35 RMS(Cart)=  0.00074199 RMS(Int)=  0.23750553
 Iteration 36 RMS(Cart)=  0.00072619 RMS(Int)=  0.23518761
 Iteration 37 RMS(Cart)=  0.00071211 RMS(Int)=  0.23280391
 Iteration 38 RMS(Cart)=  0.00069961 RMS(Int)=  0.23029596
 Iteration 39 RMS(Cart)=  0.00068833 RMS(Int)=  0.22753088
 Iteration 40 RMS(Cart)=  0.00068116 RMS(Int)=  0.22402952
 Iteration 41 RMS(Cart)=  0.00068259 RMS(Int)=  0.20881523
 New curvilinear step failed, DQL= 3.14D+00 SP=-9.94D-01.
 ITry= 9 IFail=1 DXMaxC= 7.38D-02 DCOld= 1.00D+10 DXMaxT= 1.26D-01 DXLimC= 3.00D+00 Rises=F
 SLEqS3 Cycle:   391 Max:0.688033E-02 RMS:0.226180E-02 Conv:0.268951E-06
 SLEqS3 Cycle:   391 Max:0.688033E-02 RMS:0.226180E-02 Conv:0.268951E-06
 Iteration  1 RMS(Cart)=  0.00110515 RMS(Int)=  0.45804217
 Iteration  2 RMS(Cart)=  0.00939281 RMS(Int)=  0.45428287
 Iteration  3 RMS(Cart)=  0.00172012 RMS(Int)=  0.42511380
 Iteration  4 RMS(Cart)=  0.00172293 RMS(Int)=  0.39597525
 Iteration  5 RMS(Cart)=  0.00172395 RMS(Int)=  0.36720694
 Iteration  6 RMS(Cart)=  0.00174640 RMS(Int)=  0.33873075
 Iteration  7 RMS(Cart)=  0.00177248 RMS(Int)=  0.31031558
 Iteration  8 RMS(Cart)=  0.00177432 RMS(Int)=  0.28146579
 Iteration  9 RMS(Cart)=  0.00171899 RMS(Int)=  0.25239836
 Iteration 10 RMS(Cart)=  0.00197253 RMS(Int)=  0.22448369
 Iteration 11 RMS(Cart)=  0.00212704 RMS(Int)=  0.20539354
 Iteration 12 RMS(Cart)=  0.00074504 RMS(Int)=  0.20112581
 Iteration 13 RMS(Cart)=  0.00052301 RMS(Int)=  0.19825212
 Iteration 14 RMS(Cart)=  0.00046270 RMS(Int)=  0.19572250
 Iteration 15 RMS(Cart)=  0.00043509 RMS(Int)=  0.19333551
 Iteration 16 RMS(Cart)=  0.00042002 RMS(Int)=  0.19101690
 Iteration 17 RMS(Cart)=  0.00040784 RMS(Int)=  0.18872493
 Iteration 18 RMS(Cart)=  0.00039987 RMS(Int)=  0.18643318
 Iteration 19 RMS(Cart)=  0.00039357 RMS(Int)=  0.18411548
 Iteration 20 RMS(Cart)=  0.00038841 RMS(Int)=  0.18173858
 Iteration 21 RMS(Cart)=  0.00038420 RMS(Int)=  0.17924723
 Iteration 22 RMS(Cart)=  0.00038117 RMS(Int)=  0.17651981
 Iteration 23 RMS(Cart)=  0.00037961 RMS(Int)=  0.17315261
 Iteration 24 RMS(Cart)=  0.00038300 RMS(Int)=  0.16383511
 Iteration 25 RMS(Cart)=  0.00043086 RMS(Int)=  0.29391040
 Iteration 26 RMS(Cart)=  0.00628685 RMS(Int)=  0.29228245
 Iteration 27 RMS(Cart)=  0.00125023 RMS(Int)=  0.26477017
 Iteration 28 RMS(Cart)=  0.00178431 RMS(Int)=  0.25090426
 Iteration 29 RMS(Cart)=  0.00061230 RMS(Int)=  0.24747149
 Iteration 30 RMS(Cart)=  0.00049158 RMS(Int)=  0.24474826
 Iteration 31 RMS(Cart)=  0.00044559 RMS(Int)=  0.24226698
 Iteration 32 RMS(Cart)=  0.00042035 RMS(Int)=  0.23989736
 Iteration 33 RMS(Cart)=  0.00040354 RMS(Int)=  0.23758319
 Iteration 34 RMS(Cart)=  0.00039087 RMS(Int)=  0.23529212
 Iteration 35 RMS(Cart)=  0.00038051 RMS(Int)=  0.23299995
 Iteration 36 RMS(Cart)=  0.00037158 RMS(Int)=  0.23068297
 Iteration 37 RMS(Cart)=  0.00036367 RMS(Int)=  0.22831067
 Iteration 38 RMS(Cart)=  0.00035625 RMS(Int)=  0.22583343
 Iteration 39 RMS(Cart)=  0.00035010 RMS(Int)=  0.22314452
 Iteration 40 RMS(Cart)=  0.00034513 RMS(Int)=  0.21991540
 Iteration 41 RMS(Cart)=  0.00034354 RMS(Int)=  0.21325535
 Iteration 42 RMS(Cart)=  0.00036773 RMS(Int)=  0.24399756
 Iteration 43 RMS(Cart)=  0.00523180 RMS(Int)=  0.24288728
 Iteration 44 RMS(Cart)=  0.00109604 RMS(Int)=  0.21600416
 Iteration 45 RMS(Cart)=  0.00152198 RMS(Int)=  0.20184473
 Iteration 46 RMS(Cart)=  0.00047624 RMS(Int)=  0.19892257
 Iteration 47 RMS(Cart)=  0.00041862 RMS(Int)=  0.19639507
 Iteration 48 RMS(Cart)=  0.00039552 RMS(Int)=  0.19401559
 Iteration 49 RMS(Cart)=  0.00038335 RMS(Int)=  0.19170165
 Iteration 50 RMS(Cart)=  0.00037591 RMS(Int)=  0.18941169
 Iteration 51 RMS(Cart)=  0.00037089 RMS(Int)=  0.18711630
 Iteration 52 RMS(Cart)=  0.00036726 RMS(Int)=  0.18478652
 Iteration 53 RMS(Cart)=  0.00036457 RMS(Int)=  0.18238319
 Iteration 54 RMS(Cart)=  0.00036275 RMS(Int)=  0.17983587
 Iteration 55 RMS(Cart)=  0.00036194 RMS(Int)=  0.17697191
 Iteration 56 RMS(Cart)=  0.00036357 RMS(Int)=  0.17305116
 Iteration 57 RMS(Cart)=  0.00037325 RMS(Int)=  0.26968986
 Iteration 58 RMS(Cart)=  0.00302568 RMS(Int)=  0.26927420
 Iteration 59 RMS(Cart)=  0.00054841 RMS(Int)=  0.24052239
 Iteration 60 RMS(Cart)=  0.00037176 RMS(Int)=  0.23821296
 Iteration 61 RMS(Cart)=  0.00036239 RMS(Int)=  0.23592334
 Iteration 62 RMS(Cart)=  0.00035471 RMS(Int)=  0.23362767
 Iteration 63 RMS(Cart)=  0.00034829 RMS(Int)=  0.23129969
 Iteration 64 RMS(Cart)=  0.00034263 RMS(Int)=  0.22890383
 Iteration 65 RMS(Cart)=  0.00033766 RMS(Int)=  0.22637742
 Iteration 66 RMS(Cart)=  0.00033345 RMS(Int)=  0.22357375
 Iteration 67 RMS(Cart)=  0.00033106 RMS(Int)=  0.21993349
 Iteration 68 RMS(Cart)=  0.00033382 RMS(Int)=  0.17902340
 New curvilinear step failed, DQL= 3.14D+00 SP=-9.97D-01.
 ITry=10 IFail=1 DXMaxC= 3.69D-02 DCOld= 1.00D+10 DXMaxT= 1.26D-01 DXLimC= 3.00D+00 Rises=F
 RedQX1 iteration     1 Try  1 RMS(Cart)=  0.02088079 RMS(Int)=  0.45919179 XScale=  0.19614230
 RedQX1 iteration     2 Try  1 RMS(Cart)=  0.00417616 RMS(Int)=  0.46523787 XScale=  0.19470266
 RedQX1 iteration     3 Try  1 RMS(Cart)=  0.00083523 RMS(Int)=  0.46649566 XScale=  0.19439399
 RedQX1 iteration     4 Try  1 RMS(Cart)=  0.00016705 RMS(Int)=  0.46674541 XScale=  0.19433306
 Old curvilinear step not converged, using linear step:
 SCX= 1.27D+00 DXMaxT= 1.26D-01 SCLim= 6.31D-02 Fact= 4.96D-02
 RedQX1 iteration     1 Try  1 RMS(Cart)=  0.00002598 RMS(Int)=  0.45796892 XScale=520.07080014
 RedQX1 iteration     1 Try  2 RMS(Cart)=  0.00003255 RMS(Int)=  0.45906762 XScale=231.13147981
 RedQX1 iteration     1 Try  3 RMS(Cart)=  0.00004351 RMS(Int)=  0.46053233 XScale=132.78426506
 RedQX1 iteration     1 Try  4 RMS(Cart)=  0.00006548 RMS(Int)=  0.46272767 XScale= 81.07683136
 RedQX1 iteration     1 Try  5 RMS(Cart)=  0.00013162 RMS(Int)=  0.46710400 XScale= 45.64439180
 RedQX1 iteration     1 Try  6 RMS(Cart)=  0.00013289 RMS(Int)=  0.47146761 XScale= 31.79127174
 RedQX1 iteration     2 Try  1 RMS(Cart)=  0.00002683 RMS(Int)=  0.47234132 XScale= 29.97002659
 RedQX1 iteration     2 Try  2 RMS(Cart)=  0.00003360 RMS(Int)=  0.47343191 XScale= 27.96995521
 RedQX1 iteration     2 Try  3 RMS(Cart)=  0.00004490 RMS(Int)=  0.47488301 XScale= 25.68886587
 RedQX1 iteration     2 Try  4 RMS(Cart)=  0.00006755 RMS(Int)=  0.47705215 XScale= 22.89744325
 RedQX1 iteration     2 Try  5 RMS(Cart)=  0.00013572 RMS(Int)=  0.48135596 XScale= 18.83634107
 RedQX1 iteration     2 Try  6 RMS(Cart)=  0.00013695 RMS(Int)=  0.48562051 XScale= 16.02080671
 RedQX1 iteration     3 Try  1 RMS(Cart)=  0.00002763 RMS(Int)=  0.48647101 XScale= 15.55704664
 RedQX1 iteration     3 Try  2 RMS(Cart)=  0.00003460 RMS(Int)=  0.48753115 XScale= 15.01525794
 RedQX1 iteration     3 Try  3 RMS(Cart)=  0.00004624 RMS(Int)=  0.48893922 XScale= 14.35142472
 RedQX1 iteration     3 Try  4 RMS(Cart)=  0.00006955 RMS(Int)=  0.49103872 XScale= 13.46388317
 RedQX1 iteration     3 Try  5 RMS(Cart)=  0.00013971 RMS(Int)=  0.49518605 XScale= 11.99812991
 RedQX1 iteration     3 Try  6 RMS(Cart)=  0.00014089 RMS(Int)=  0.49927131 XScale= 10.83610861
 RedQX1 iteration     4 Try  1 RMS(Cart)=  0.00002841 RMS(Int)=  0.50008303 XScale= 10.63152047
 RedQX1 iteration     4 Try  2 RMS(Cart)=  0.00003557 RMS(Int)=  0.50109354 XScale= 10.38737445
 RedQX1 iteration     4 Try  3 RMS(Cart)=  0.00004752 RMS(Int)=  0.50243351 XScale= 10.08040943
 RedQX1 iteration     4 Try  4 RMS(Cart)=  0.00007147 RMS(Int)=  0.50442696 XScale=  9.65590349
 RedQX1 iteration     4 Try  5 RMS(Cart)=  0.00014352 RMS(Int)=  0.50834948 XScale=  8.91700216
 RedQX1 iteration     4 Try  6 RMS(Cart)=  0.00014463 RMS(Int)=  0.51219323 XScale=  8.29499077
 RedQX1 iteration     5 Try  1 RMS(Cart)=  0.00002915 RMS(Int)=  0.51295444 XScale=  8.18196167
 RedQX1 iteration     5 Try  2 RMS(Cart)=  0.00003649 RMS(Int)=  0.51390105 XScale=  8.04562916
 RedQX1 iteration     5 Try  3 RMS(Cart)=  0.00004874 RMS(Int)=  0.51515457 XScale=  7.87193673
 RedQX1 iteration     5 Try  4 RMS(Cart)=  0.00007329 RMS(Int)=  0.51701583 XScale=  7.62743744
 RedQX1 iteration     5 Try  5 RMS(Cart)=  0.00014710 RMS(Int)=  0.52066645 XScale=  7.18946005
 RedQX1 iteration     5 Try  6 RMS(Cart)=  0.00014814 RMS(Int)=  0.52422837 XScale=  6.80803122
 RedQX1 iteration     6 Try  1 RMS(Cart)=  0.00002983 RMS(Int)=  0.52493184 XScale=  6.73743667
 RedQX1 iteration     6 Try  2 RMS(Cart)=  0.00003734 RMS(Int)=  0.52580588 XScale=  6.65173853
 RedQX1 iteration     6 Try  3 RMS(Cart)=  0.00004987 RMS(Int)=  0.52696201 XScale=  6.54167459
 RedQX1 iteration     6 Try  4 RMS(Cart)=  0.00007497 RMS(Int)=  0.52867610 XScale=  6.38503701
 RedQX1 iteration     6 Try  5 RMS(Cart)=  0.00015042 RMS(Int)=  0.53202963 XScale=  6.09930516
 RedQX1 iteration     6 Try  6 RMS(Cart)=  0.00015137 RMS(Int)=  0.53529077 XScale=  5.84494819
 RedQX1 iteration     7 Try  1 RMS(Cart)=  0.00003046 RMS(Int)=  0.53593343 XScale=  5.79730418
 RedQX1 iteration     7 Try  2 RMS(Cart)=  0.00003812 RMS(Int)=  0.53673141 XScale=  5.73921668
 RedQX1 iteration     7 Try  3 RMS(Cart)=  0.00005090 RMS(Int)=  0.53778607 XScale=  5.66420669
 RedQX1 iteration     7 Try  4 RMS(Cart)=  0.00007651 RMS(Int)=  0.53934797 XScale=  5.55665442
 RedQX1 iteration     7 Try  5 RMS(Cart)=  0.00015346 RMS(Int)=  0.54239825 XScale=  5.35796806
 RedQX1 iteration     7 Try  6 RMS(Cart)=  0.00015433 RMS(Int)=  0.54535732 XScale=  5.17834465
 RedQX1 iteration     8 Try  1 RMS(Cart)=  0.00003103 RMS(Int)=  0.54593952 XScale=  5.14441181
 RedQX1 iteration     8 Try  2 RMS(Cart)=  0.00003883 RMS(Int)=  0.54666209 XScale=  5.10291138
 RedQX1 iteration     8 Try  3 RMS(Cart)=  0.00005185 RMS(Int)=  0.54761656 XScale=  5.04910792
 RedQX1 iteration     8 Try  4 RMS(Cart)=  0.00007791 RMS(Int)=  0.54902901 XScale=  4.97153755
 RedQX1 iteration     8 Try  5 RMS(Cart)=  0.00015622 RMS(Int)=  0.55178416 XScale=  4.82688621
 RedQX1 iteration     8 Try  6 RMS(Cart)=  0.00015700 RMS(Int)=  0.55445265 XScale=  4.69458911
 RedQX1 iteration     9 Try  1 RMS(Cart)=  0.00003155 RMS(Int)=  0.55497710 XScale=  4.66943623
 RedQX1 iteration     9 Try  2 RMS(Cart)=  0.00003948 RMS(Int)=  0.55562781 XScale=  4.63860013
 RedQX1 iteration     9 Try  3 RMS(Cart)=  0.00005270 RMS(Int)=  0.55648705 XScale=  4.59850050
 RedQX1 iteration     9 Try  4 RMS(Cart)=  0.00007917 RMS(Int)=  0.55775801 XScale=  4.54044148
 RedQX1 iteration     9 Try  5 RMS(Cart)=  0.00015870 RMS(Int)=  0.56023554 XScale=  4.43137806
 RedQX1 iteration     9 Try  6 RMS(Cart)=  0.00015941 RMS(Int)=  0.56263292 XScale=  4.33071732
 RedQX1 iteration    10 Try  1 RMS(Cart)=  0.00003202 RMS(Int)=  0.56310376 XScale=  4.31148260
 RedQX1 iteration    10 Try  2 RMS(Cart)=  0.00004006 RMS(Int)=  0.56368787 XScale=  4.28785678
 RedQX1 iteration    10 Try  3 RMS(Cart)=  0.00005346 RMS(Int)=  0.56445904 XScale=  4.25705854
 RedQX1 iteration    10 Try  4 RMS(Cart)=  0.00008031 RMS(Int)=  0.56559949 XScale=  4.21231441
 RedQX1 iteration    10 Try  5 RMS(Cart)=  0.00016094 RMS(Int)=  0.56782206 XScale=  4.12776319
 RedQX1 iteration    10 Try  6 RMS(Cart)=  0.00016157 RMS(Int)=  0.56997190 XScale=  4.04914668
 RedQX1 iteration    11 Try  1 RMS(Cart)=  0.00003244 RMS(Int)=  0.57039397 XScale=  4.03406251
 RedQX1 iteration    11 Try  2 RMS(Cart)=  0.00004058 RMS(Int)=  0.57091755 XScale=  4.01550568
 RedQX1 iteration    11 Try  3 RMS(Cart)=  0.00005415 RMS(Int)=  0.57160879 XScale=  3.99126670
 RedQX1 iteration    11 Try  4 RMS(Cart)=  0.00008132 RMS(Int)=  0.57263103 XScale=  3.95595263
 RedQX1 iteration    11 Try  5 RMS(Cart)=  0.00016294 RMS(Int)=  0.57462335 XScale=  3.88889165
 RedQX1 iteration    11 Try  6 RMS(Cart)=  0.00016351 RMS(Int)=  0.57655050 XScale=  3.82615199
 RedQX1 iteration    12 Try  1 RMS(Cart)=  0.00003281 RMS(Int)=  0.57692881 XScale=  3.81407278
 RedQX1 iteration    12 Try  2 RMS(Cart)=  0.00004104 RMS(Int)=  0.57739814 XScale=  3.79919313
 RedQX1 iteration    12 Try  3 RMS(Cart)=  0.00005477 RMS(Int)=  0.57801779 XScale=  3.77972441
 RedQX1 iteration    12 Try  4 RMS(Cart)=  0.00008224 RMS(Int)=  0.57893426 XScale=  3.75129270
 RedQX1 iteration    12 Try  5 RMS(Cart)=  0.00016474 RMS(Int)=  0.58072097 XScale=  3.69707559
 RedQX1 iteration    12 Try  6 RMS(Cart)=  0.00016525 RMS(Int)=  0.58244981 XScale=  3.64608561
 RedQX1 iteration    13 Try  1 RMS(Cart)=  0.00003315 RMS(Int)=  0.58278922 XScale=  3.63623988
 RedQX1 iteration    13 Try  2 RMS(Cart)=  0.00004146 RMS(Int)=  0.58321032 XScale=  3.62409783
 RedQX1 iteration    13 Try  3 RMS(Cart)=  0.00005532 RMS(Int)=  0.58376639 XScale=  3.60818805
 RedQX1 iteration    13 Try  4 RMS(Cart)=  0.00008306 RMS(Int)=  0.58458901 XScale=  3.58490633
 RedQX1 iteration    13 Try  5 RMS(Cart)=  0.00016635 RMS(Int)=  0.58619348 XScale=  3.54035033
 RedQX1 iteration    13 Try  6 RMS(Cart)=  0.00016681 RMS(Int)=  0.58774681 XScale=  3.49825662
 RedQX1 iteration    14 Try  1 RMS(Cart)=  0.00003345 RMS(Int)=  0.58805183 XScale=  3.49010818
 RedQX1 iteration    14 Try  2 RMS(Cart)=  0.00004183 RMS(Int)=  0.58843032 XScale=  3.48004945
 RedQX1 iteration    14 Try  3 RMS(Cart)=  0.00005582 RMS(Int)=  0.58893022 XScale=  3.46685293
 RedQX1 iteration    14 Try  4 RMS(Cart)=  0.00008379 RMS(Int)=  0.58966996 XScale=  3.44750750
 RedQX1 iteration    14 Try  5 RMS(Cart)=  0.00016780 RMS(Int)=  0.59111359 XScale=  3.41036894
 RedQX1 iteration    14 Try  6 RMS(Cart)=  0.00016821 RMS(Int)=  0.59251218 XScale=  3.37514419
 RedQX1 iteration    15 Try  1 RMS(Cart)=  0.00003372 RMS(Int)=  0.59278690 XScale=  3.36831040
 RedQX1 iteration    15 Try  2 RMS(Cart)=  0.00004217 RMS(Int)=  0.59312785 XScale=  3.35986731
 RedQX1 iteration    15 Try  3 RMS(Cart)=  0.00005626 RMS(Int)=  0.59357827 XScale=  3.34877826
 RedQX1 iteration    15 Try  4 RMS(Cart)=  0.00008446 RMS(Int)=  0.59424502 XScale=  3.33249704
 RedQX1 iteration    15 Try  5 RMS(Cart)=  0.00016910 RMS(Int)=  0.59554703 XScale=  3.30115524
 RedQX1 iteration    15 Try  6 RMS(Cart)=  0.00016948 RMS(Int)=  0.59680939 XScale=  3.27132524
 RedQX1 iteration    16 Try  1 RMS(Cart)=  0.00003397 RMS(Int)=  0.59705745 XScale=  3.26552679
 RedQX1 iteration    16 Try  2 RMS(Cart)=  0.00004248 RMS(Int)=  0.59736538 XScale=  3.25835748
 RedQX1 iteration    16 Try  3 RMS(Cart)=  0.00005667 RMS(Int)=  0.59777226 XScale=  3.24893224
 RedQX1 iteration    16 Try  4 RMS(Cart)=  0.00008506 RMS(Int)=  0.59837478 XScale=  3.23507490
 RedQX1 iteration    16 Try  5 RMS(Cart)=  0.00017028 RMS(Int)=  0.59955217 XScale=  3.20833435
 RedQX1 iteration    16 Try  6 RMS(Cart)=  0.00017062 RMS(Int)=  0.60069466 XScale=  3.18280522
 RedQX1 iteration    17 Try  1 RMS(Cart)=  0.00003419 RMS(Int)=  0.60091926 XScale=  3.17783422
 RedQX1 iteration    17 Try  2 RMS(Cart)=  0.00004275 RMS(Int)=  0.60119812 XScale=  3.17168385
 RedQX1 iteration    17 Try  3 RMS(Cart)=  0.00005703 RMS(Int)=  0.60156669 XScale=  3.16359121
 RedQX1 iteration    17 Try  4 RMS(Cart)=  0.00008560 RMS(Int)=  0.60211269 XScale=  3.15167859
 RedQX1 iteration    17 Try  5 RMS(Cart)=  0.00017135 RMS(Int)=  0.60318035 XScale=  3.12864102
 RedQX1 iteration    17 Try  6 RMS(Cart)=  0.00017166 RMS(Int)=  0.60421728 XScale=  3.10658665
 RedQX1 iteration    18 Try  1 RMS(Cart)=  0.00003439 RMS(Int)=  0.60442122 XScale=  3.10228561
 RedQX1 iteration    18 Try  2 RMS(Cart)=  0.00004300 RMS(Int)=  0.60467448 XScale=  3.09696096
 RedQX1 iteration    18 Try  3 RMS(Cart)=  0.00005736 RMS(Int)=  0.60500930 XScale=  3.08994941
 RedQX1 iteration    18 Try  4 RMS(Cart)=  0.00008609 RMS(Int)=  0.60550548 XScale=  3.07961689
 RedQX1 iteration    18 Try  5 RMS(Cart)=  0.00017232 RMS(Int)=  0.60647643 XScale=  3.05959635
 RedQX1 iteration    18 Try  6 RMS(Cart)=  0.00017260 RMS(Int)=  0.60742024 XScale=  3.04038294
 RedQX1 iteration    19 Try  1 RMS(Cart)=  0.00003457 RMS(Int)=  0.60760595 XScale=  3.03663073
 RedQX1 iteration    19 Try  2 RMS(Cart)=  0.00004323 RMS(Int)=  0.60783662 XScale=  3.03198304
 RedQX1 iteration    19 Try  3 RMS(Cart)=  0.00005766 RMS(Int)=  0.60814166 XScale=  3.02585865
 RedQX1 iteration    19 Try  4 RMS(Cart)=  0.00008654 RMS(Int)=  0.60859388 XScale=  3.01682465
 RedQX1 iteration    19 Try  5 RMS(Cart)=  0.00017321 RMS(Int)=  0.60947940 XScale=  2.99928958
 RedQX1 iteration    19 Try  6 RMS(Cart)=  0.00017346 RMS(Int)=  0.61034093 XScale=  2.98242400
 RedQX1 iteration    20 Try  1 RMS(Cart)=  0.00003474 RMS(Int)=  0.61051053 XScale=  2.97912617
 RedQX1 iteration    20 Try  2 RMS(Cart)=  0.00004344 RMS(Int)=  0.61072122 XScale=  2.97503930
 RedQX1 iteration    20 Try  3 RMS(Cart)=  0.00005794 RMS(Int)=  0.61099992 XScale=  2.96965055
 RedQX1 iteration    20 Try  4 RMS(Cart)=  0.00008695 RMS(Int)=  0.61141325 XScale=  2.96169462
 RedQX1 iteration    20 Try  5 RMS(Cart)=  0.00017401 RMS(Int)=  0.61222316 XScale=  2.94622774
 RedQX1 iteration    20 Try  6 RMS(Cart)=  0.00017424 RMS(Int)=  0.61301179 XScale=  2.93132140
 Old curvilinear step not converged, using linear step:
 SCX= 4.41D-04 DXMaxT= 1.26D-01 SCLim= 6.31D-02 Fact= 1.00D+00
 Error imposing constraints
 Error termination via Lnk1e in /shared/centos7/gaussian/g16/l103.exe at Mon Mar 11 01:14:11 2019.
 Job cpu time:       1 days  0 hours 15 minutes 25.1 seconds.
 Elapsed time:       0 days  1 hours 13 minutes 20.5 seconds.
 File lengths (MBytes):  RWF=   1392 Int=      0 D2E=      0 Chk=     32 Scr=     32
