 Entering Gaussian System, Link 0=g16
 Input=XDJVAJLIXKTENM-UHFFFAOYSA-N_36by10.0_tor02_a2_fix.com
 Output=XDJVAJLIXKTENM-UHFFFAOYSA-N_36by10.0_tor02_a2_fix.log
 Initial command:
 /shared/centos7/gaussian/g16/l1.exe "/scratch/underkoffler.c/gaussian_scratch/Gau-35598.inp" -scrdir="/scratch/underkoffler.c/gaussian_scratch/"
 Entering Link 1 = /shared/centos7/gaussian/g16/l1.exe PID=     35599.
  
 Copyright (c) 1988,1990,1992,1993,1995,1998,2003,2009,2016,
            Gaussian, Inc.  All Rights Reserved.
  
 This is part of the Gaussian(R) 16 program.  It is based on
 the Gaussian(R) 09 system (copyright 2009, Gaussian, Inc.),
 the Gaussian(R) 03 system (copyright 2003, Gaussian, Inc.),
 the Gaussian(R) 98 system (copyright 1998, Gaussian, Inc.),
 the Gaussian(R) 94 system (copyright 1995, Gaussian, Inc.),
 the Gaussian 92(TM) system (copyright 1992, Gaussian, Inc.),
 the Gaussian 90(TM) system (copyright 1990, Gaussian, Inc.),
 the Gaussian 88(TM) system (copyright 1988, Gaussian, Inc.),
 the Gaussian 86(TM) system (copyright 1986, Carnegie Mellon
 University), and the Gaussian 82(TM) system (copyright 1983,
 Carnegie Mellon University). Gaussian is a federally registered
 trademark of Gaussian, Inc.
  
 This software contains proprietary and confidential information,
 including trade secrets, belonging to Gaussian, Inc.
  
 This software is provided under written license and may be
 used, copied, transmitted, or stored only in accord with that
 written license.
  
 The following legend is applicable only to US Government
 contracts under FAR:
  
                    RESTRICTED RIGHTS LEGEND
  
 Use, reproduction and disclosure by the US Government is
 subject to restrictions as set forth in subparagraphs (a)
 and (c) of the Commercial Computer Software - Restricted
 Rights clause in FAR 52.227-19.
  
 Gaussian, Inc.
 340 Quinnipiac St., Bldg. 40, Wallingford CT 06492
  
  
 ---------------------------------------------------------------
 Warning -- This program may not be used in any manner that
 competes with the business of Gaussian, Inc. or will provide
 assistance to any competitor of Gaussian, Inc.  The licensee
 of this program is prohibited from giving any competitor of
 Gaussian, Inc. access to this program.  By using this program,
 the user acknowledges that Gaussian, Inc. is engaged in the
 business of creating and licensing software in the field of
 computational chemistry and represents and warrants to the
 licensee that it is not a competitor of Gaussian, Inc. and that
 it will not use this program in any manner prohibited above.
 ---------------------------------------------------------------
  

 Cite this work as:
 Gaussian 16, Revision A.03,
 M. J. Frisch, G. W. Trucks, H. B. Schlegel, G. E. Scuseria, 
 M. A. Robb, J. R. Cheeseman, G. Scalmani, V. Barone, 
 G. A. Petersson, H. Nakatsuji, X. Li, M. Caricato, A. V. Marenich, 
 J. Bloino, B. G. Janesko, R. Gomperts, B. Mennucci, H. P. Hratchian, 
 J. V. Ortiz, A. F. Izmaylov, J. L. Sonnenberg, D. Williams-Young, 
 F. Ding, F. Lipparini, F. Egidi, J. Goings, B. Peng, A. Petrone, 
 T. Henderson, D. Ranasinghe, V. G. Zakrzewski, J. Gao, N. Rega, 
 G. Zheng, W. Liang, M. Hada, M. Ehara, K. Toyota, R. Fukuda, 
 J. Hasegawa, M. Ishida, T. Nakajima, Y. Honda, O. Kitao, H. Nakai, 
 T. Vreven, K. Throssell, J. A. Montgomery, Jr., J. E. Peralta, 
 F. Ogliaro, M. J. Bearpark, J. J. Heyd, E. N. Brothers, K. N. Kudin, 
 V. N. Staroverov, T. A. Keith, R. Kobayashi, J. Normand, 
 K. Raghavachari, A. P. Rendell, J. C. Burant, S. S. Iyengar, 
 J. Tomasi, M. Cossi, J. M. Millam, M. Klene, C. Adamo, R. Cammi, 
 J. W. Ochterski, R. L. Martin, K. Morokuma, O. Farkas, 
 J. B. Foresman, and D. J. Fox, Gaussian, Inc., Wallingford CT, 2016.
 
 ******************************************
 Gaussian 16:  EM64L-G16RevA.03 25-Dec-2016
                26-Mar-2019 
 ******************************************
 %nprocshared=20
 Will use up to   20 processors via shared memory.
 %mem=5GB
 ----------------------------------------------
 #p m062x/6-311+g(2df,2p) Opt=(CalcFC,ModRedun)
 ----------------------------------------------
 1/10=4,18=120,19=15,26=3,38=1/1,3;
 2/9=110,12=2,17=6,18=5,40=1/2;
 3/5=4,6=6,7=214,11=2,25=1,30=1,71=2,74=-55,140=1/1,2,3;
 4//1;
 5/5=2,38=5/2;
 8/6=4,10=90,11=11/1;
 11/6=1,8=1,9=11,15=111,16=1/1,2,10;
 10/6=1,13=1/2;
 6/7=2,8=2,9=2,10=2,28=1/1;
 7/10=1,18=20,25=1/1,2,3,16;
 1/10=4,18=20,19=15,26=3/3(2);
 2/9=110/2;
 99//99;
 2/9=110/2;
 3/5=4,6=6,7=214,11=2,25=1,30=1,71=1,74=-55/1,2,3;
 4/5=5,16=3,69=1/1;
 5/5=2,38=5/2;
 7//1,2,3,16;
 1/18=20,19=15,26=3/3(-5);
 2/9=110/2;
 6/7=2,8=2,9=2,10=2,19=2,28=1/1;
 99/9=1/99;
 Leave Link    1 at Tue Mar 26 09:35:19 2019, MaxMem=   671088640 cpu:              15.1 elap:               0.8
 (Enter /shared/centos7/gaussian/g16/l101.exe)
 ----------------------------------------
 Gaussian Input Prepared from Scan Object
 ----------------------------------------
 Symbolic Z-matrix:
 Charge =  0 Multiplicity = 2
 O                    -1.5434   -1.73326  -0.17321 
 O                    -0.06434   1.17276  -0.72771 
 O                     2.44477   0.02074  -0.54896 
 O                     2.18095  -0.19215   0.83303 
 C                    -0.75857   0.54539   0.20746 
 C                    -0.59961  -1.02572  -0.14978 
 C                    -2.21409   0.93019   0.35008 
 H                    -0.21049   0.51527   1.17115 
 H                     2.932     0.24444   1.24838 
 H                     0.44029  -1.32364  -0.3434 
 H                    -2.7266    0.80284  -0.60145 
 H                    -2.70623   0.3103    1.09713 
 H                    -2.28089   1.9743    0.6495 
 H                     1.71467   0.62509  -0.77733 
 
 Add virtual bond connecting atoms H14        and O2         Dist= 3.52D+00.
 The following ModRedundant input section has been read:
 B       6      10 B                                                           
 B       5       6 B                                                           
 B       5       8 B                                                           
 B       5       7 B                                                           
 B       7      11 B                                                           
 B       2       5 B                                                           
 B       7      12 B                                                           
 B       2       4 B                                                           
 B       1       3 B                                                           
 B       7      13 B                                                           
 B       3      14 B                                                           
 B       6       9 B                                                           
 B       1       6 B                                                           
 D       6       1       3      14 S  36 10.000                                
 D       3       1       6       9 F                                           
 D       4       2       5       7 F                                           
 D       7       5       6       9 F                                           
 D       8       5       7      12 F                                           
 
 ITRead=  0  0  0  0  0  0  0  0  0  0  0  0  0  0
 MicOpt= -1 -1 -1 -1 -1 -1 -1 -1 -1 -1 -1 -1 -1 -1
 NAtoms=     14 NQM=       14 NQMF=       0 NMMI=      0 NMMIF=      0
                NMic=       0 NMicF=      0.
                    Isotopes and Nuclear Properties:
 (Nuclear quadrupole moments (NQMom) in fm**2, nuclear magnetic moments (NMagM)
  in nuclear magnetons)

  Atom         1           2           3           4           5           6           7           8           9          10
 IAtWgt=          16          16          16          16          12          12          12           1           1           1
 AtmWgt=  15.9949146  15.9949146  15.9949146  15.9949146  12.0000000  12.0000000  12.0000000   1.0078250   1.0078250   1.0078250
 NucSpn=           0           0           0           0           0           0           0           1           1           1
 AtZEff=  -0.0000000  -0.0000000  -0.0000000  -0.0000000  -0.0000000  -0.0000000  -0.0000000  -0.0000000  -0.0000000  -0.0000000
 NQMom=    0.0000000   0.0000000   0.0000000   0.0000000   0.0000000   0.0000000   0.0000000   0.0000000   0.0000000   0.0000000
 NMagM=    0.0000000   0.0000000   0.0000000   0.0000000   0.0000000   0.0000000   0.0000000   2.7928460   2.7928460   2.7928460
 AtZNuc=   8.0000000   8.0000000   8.0000000   8.0000000   6.0000000   6.0000000   6.0000000   1.0000000   1.0000000   1.0000000

  Atom        11          12          13          14
 IAtWgt=           1           1           1           1
 AtmWgt=   1.0078250   1.0078250   1.0078250   1.0078250
 NucSpn=           1           1           1           1
 AtZEff=  -0.0000000  -0.0000000  -0.0000000  -0.0000000
 NQMom=    0.0000000   0.0000000   0.0000000   0.0000000
 NMagM=    2.7928460   2.7928460   2.7928460   2.7928460
 AtZNuc=   1.0000000   1.0000000   1.0000000   1.0000000
 Leave Link  101 at Tue Mar 26 09:35:19 2019, MaxMem=   671088640 cpu:               5.5 elap:               0.3
 (Enter /shared/centos7/gaussian/g16/l103.exe)

 GradGradGradGradGradGradGradGradGradGradGradGradGradGradGradGradGradGrad
 Berny optimization.
 Initialization pass.
                           ----------------------------
                           !    Initial Parameters    !
                           ! (Angstroms and Degrees)  !
 --------------------------                            --------------------------
 ! Name  Definition              Value          Derivative Info.                !
 --------------------------------------------------------------------------------
 ! R1    R(1,3)                  4.373          calculate D2E/DX2 analytically  !
 ! R2    R(1,6)                  1.1798         calculate D2E/DX2 analytically  !
 ! R3    R(2,4)                  3.0562         calculate D2E/DX2 analytically  !
 ! R4    R(2,5)                  1.3229         calculate D2E/DX2 analytically  !
 ! R5    R(2,14)                 1.8621         calculate D2E/DX2 analytically  !
 ! R6    R(3,4)                  1.423          calculate D2E/DX2 analytically  !
 ! R7    R(3,14)                 0.9749         calculate D2E/DX2 analytically  !
 ! R8    R(4,9)                  0.9629         calculate D2E/DX2 analytically  !
 ! R9    R(5,6)                  1.619          calculate D2E/DX2 analytically  !
 ! R10   R(5,7)                  1.5123         calculate D2E/DX2 analytically  !
 ! R11   R(5,8)                  1.109          calculate D2E/DX2 analytically  !
 ! R12   R(6,9)                  4.005          calculate D2E/DX2 analytically  !
 ! R13   R(6,10)                 1.0989         calculate D2E/DX2 analytically  !
 ! R14   R(7,11)                 1.0883         calculate D2E/DX2 analytically  !
 ! R15   R(7,12)                 1.0884         calculate D2E/DX2 analytically  !
 ! R16   R(7,13)                 1.0882         calculate D2E/DX2 analytically  !
 ! A1    A(4,2,5)               79.2068         calculate D2E/DX2 analytically  !
 ! A2    A(4,2,14)              34.9501         calculate D2E/DX2 analytically  !
 ! A3    A(5,2,14)             112.3785         calculate D2E/DX2 analytically  !
 ! A4    A(1,3,4)               71.7873         calculate D2E/DX2 analytically  !
 ! A5    A(1,3,14)              65.5299         calculate D2E/DX2 analytically  !
 ! A6    A(4,3,14)             100.4516         calculate D2E/DX2 analytically  !
 ! A7    A(2,4,3)               64.749          calculate D2E/DX2 analytically  !
 ! A8    A(2,4,9)              126.2152         calculate D2E/DX2 analytically  !
 ! A9    A(3,4,9)              101.9164         calculate D2E/DX2 analytically  !
 ! A10   A(2,5,6)              104.637          calculate D2E/DX2 analytically  !
 ! A11   A(2,5,7)              116.8128         calculate D2E/DX2 analytically  !
 ! A12   A(2,5,8)              111.5797         calculate D2E/DX2 analytically  !
 ! A13   A(6,5,7)              111.2374         calculate D2E/DX2 analytically  !
 ! A14   A(6,5,8)               96.7104         calculate D2E/DX2 analytically  !
 ! A15   A(7,5,8)              113.616          calculate D2E/DX2 analytically  !
 ! A16   A(1,6,5)              120.5174         calculate D2E/DX2 analytically  !
 ! A17   A(1,6,9)              154.4926         calculate D2E/DX2 analytically  !
 ! A18   A(1,6,10)             126.2225         calculate D2E/DX2 analytically  !
 ! A19   A(5,6,9)               72.6503         calculate D2E/DX2 analytically  !
 ! A20   A(5,6,10)             113.257          calculate D2E/DX2 analytically  !
 ! A21   A(9,6,10)              46.6113         calculate D2E/DX2 analytically  !
 ! A22   A(5,7,11)             109.9398         calculate D2E/DX2 analytically  !
 ! A23   A(5,7,12)             110.7946         calculate D2E/DX2 analytically  !
 ! A24   A(5,7,13)             109.218          calculate D2E/DX2 analytically  !
 ! A25   A(11,7,12)            108.6965         calculate D2E/DX2 analytically  !
 ! A26   A(11,7,13)            108.9015         calculate D2E/DX2 analytically  !
 ! A27   A(12,7,13)            109.2597         calculate D2E/DX2 analytically  !
 ! A28   A(2,14,3)             153.0718         calculate D2E/DX2 analytically  !
 ! A29   L(3,1,6,11,-1)        168.9763         calculate D2E/DX2 analytically  !
 ! A30   L(4,9,6,3,-1)         100.9577         calculate D2E/DX2 analytically  !
 ! A31   L(3,1,6,11,-2)        351.9703         calculate D2E/DX2 analytically  !
 ! A32   L(4,9,6,3,-2)          12.4258         calculate D2E/DX2 analytically  !
 ! D1    D(6,1,3,14)           -41.8211         Scan                            !
 ! D2    D(3,1,6,9)            -75.2277         frozen, calculate D2E/DX2 analyt!
 ! D3    D(4,2,5,7)            167.8488         frozen, calculate D2E/DX2 analyt!
 ! D4    D(4,3,6,5)             80.4138         calculate D2E/DX2 analytically  !
 ! D5    D(4,3,6,9)              6.6045         calculate D2E/DX2 analytically  !
 ! D6    D(4,3,6,10)           -92.6746         calculate D2E/DX2 analytically  !
 ! D7    D(14,3,6,5)           -34.1065         calculate D2E/DX2 analytically  !
 ! D8    D(14,3,6,9)          -107.9159         calculate D2E/DX2 analytically  !
 ! D9    D(14,3,6,10)          152.8051         calculate D2E/DX2 analytically  !
 ! D10   D(5,2,4,3)            150.7164         calculate D2E/DX2 analytically  !
 ! D11   D(5,2,4,9)           -122.8624         calculate D2E/DX2 analytically  !
 ! D12   D(14,2,4,3)           -10.9661         calculate D2E/DX2 analytically  !
 ! D13   D(14,2,4,9)            75.455          calculate D2E/DX2 analytically  !
 ! D14   D(4,2,5,6)            -68.6824         calculate D2E/DX2 analytically  !
 ! D15   D(4,2,5,7)            167.8488         calculate D2E/DX2 analytically  !
 ! D16   D(4,2,5,8)             34.8015         calculate D2E/DX2 analytically  !
 ! D17   D(14,2,5,6)           -57.455          calculate D2E/DX2 analytically  !
 ! D18   D(14,2,5,7)           179.0762         calculate D2E/DX2 analytically  !
 ! D19   D(14,2,5,8)            46.0289         calculate D2E/DX2 analytically  !
 ! D20   D(4,2,14,3)            33.6772         calculate D2E/DX2 analytically  !
 ! D21   D(5,2,14,3)            14.1736         calculate D2E/DX2 analytically  !
 ! D22   D(1,3,4,2)            -47.5081         calculate D2E/DX2 analytically  !
 ! D23   D(1,3,4,9)           -172.1253         calculate D2E/DX2 analytically  !
 ! D24   D(14,3,4,2)            12.2193         calculate D2E/DX2 analytically  !
 ! D25   D(14,3,4,9)          -112.3979         calculate D2E/DX2 analytically  !
 ! D26   D(1,3,14,2)            20.4043         calculate D2E/DX2 analytically  !
 ! D27   D(4,3,14,2)           -43.9291         calculate D2E/DX2 analytically  !
 ! D28   D(2,4,6,1)           -165.7971         calculate D2E/DX2 analytically  !
 ! D29   D(2,4,6,5)            -33.985          calculate D2E/DX2 analytically  !
 ! D30   D(2,4,6,10)           115.7565         calculate D2E/DX2 analytically  !
 ! D31   D(3,4,6,1)            134.4937         calculate D2E/DX2 analytically  !
 ! D32   D(3,4,6,5)            -93.6943         calculate D2E/DX2 analytically  !
 ! D33   D(3,4,6,10)            56.0472         calculate D2E/DX2 analytically  !
 ! D34   D(2,5,6,1)           -132.3819         calculate D2E/DX2 analytically  !
 ! D35   D(2,5,6,9)             71.6331         calculate D2E/DX2 analytically  !
 ! D36   D(2,5,6,10)            48.2124         calculate D2E/DX2 analytically  !
 ! D37   D(7,5,6,1)             -5.3921         calculate D2E/DX2 analytically  !
 ! D38   D(7,5,6,9)           -161.3771         frozen, calculate D2E/DX2 analyt!
 ! D39   D(7,5,6,10)           175.2022         calculate D2E/DX2 analytically  !
 ! D40   D(8,5,6,1)            113.1943         calculate D2E/DX2 analytically  !
 ! D41   D(8,5,6,9)            -42.7907         calculate D2E/DX2 analytically  !
 ! D42   D(8,5,6,10)           -66.2114         calculate D2E/DX2 analytically  !
 ! D43   D(2,5,7,11)            55.9885         calculate D2E/DX2 analytically  !
 ! D44   D(2,5,7,12)           176.1557         calculate D2E/DX2 analytically  !
 ! D45   D(2,5,7,13)           -63.4441         calculate D2E/DX2 analytically  !
 ! D46   D(6,5,7,11)           -64.0236         calculate D2E/DX2 analytically  !
 ! D47   D(6,5,7,12)            56.1436         calculate D2E/DX2 analytically  !
 ! D48   D(6,5,7,13)           176.5438         calculate D2E/DX2 analytically  !
 ! D49   D(8,5,7,11)          -171.8865         calculate D2E/DX2 analytically  !
 ! D50   D(8,5,7,12)           -51.7192         frozen, calculate D2E/DX2 analyt!
 ! D51   D(8,5,7,13)            68.6809         calculate D2E/DX2 analytically  !
 --------------------------------------------------------------------------------
 Trust Radius=3.00D-01 FncErr=1.00D-07 GrdErr=1.00D-06 EigMax=2.50D+02 EigMin=1.00D-04
 Number of optimizations in scan=  37
 Number of steps in this run=    100 maximum allowed number of steps=    100.
 GradGradGradGradGradGradGradGradGradGradGradGradGradGradGradGradGradGrad

 Leave Link  103 at Tue Mar 26 09:35:19 2019, MaxMem=   671088640 cpu:               0.3 elap:               0.0
 (Enter /shared/centos7/gaussian/g16/l202.exe)
                          Input orientation:                          
 ---------------------------------------------------------------------
 Center     Atomic      Atomic             Coordinates (Angstroms)
 Number     Number       Type             X           Y           Z
 ---------------------------------------------------------------------
      1          8           0       -1.543403   -1.733264   -0.173209
      2          8           0       -0.064344    1.172757   -0.727712
      3          8           0        2.444772    0.020739   -0.548958
      4          8           0        2.180950   -0.192150    0.833030
      5          6           0       -0.758572    0.545389    0.207460
      6          6           0       -0.599607   -1.025725   -0.149777
      7          6           0       -2.214091    0.930193    0.350082
      8          1           0       -0.210494    0.515268    1.171146
      9          1           0        2.932000    0.244438    1.248382
     10          1           0        0.440289   -1.323635   -0.343398
     11          1           0       -2.726598    0.802841   -0.601454
     12          1           0       -2.706230    0.310302    1.097129
     13          1           0       -2.280891    1.974301    0.649501
     14          1           0        1.714673    0.625088   -0.777332
 ---------------------------------------------------------------------
                    Distance matrix (angstroms):
                    1          2          3          4          5
     1  O    0.000000
     2  O    3.307574   0.000000
     3  O    4.373014   2.766724   0.000000
     4  O    4.154317   3.056180   1.422960   0.000000
     5  C    2.439903   1.322910   3.332992   3.094525   0.000000
     6  C    1.179793   2.335346   3.243868   3.064679   1.619039
     7  C    2.796007   2.417000   4.831188   4.561718   1.512267
     8  H    2.939360   2.014774   3.202148   2.516697   1.109047
     9  H    5.095239   3.707399   1.875597   0.962914   3.846350
    10  H    2.032681   2.575719   2.422303   2.386240   2.287785
    11  H    2.831108   2.690795   5.230441   5.208817   2.143304
    12  H    2.672468   3.324671   5.415373   4.920033   2.154100
    13  H    3.868692   2.729884   5.252104   4.963387   2.134162
    14  H    4.067167   1.862071   0.974903   1.865090   2.663289
                    6          7          8          9         10
     6  C    0.000000
     7  C    2.584962   0.000000
     8  H    2.066617   2.204701   0.000000
     9  H    4.005049   5.268724   3.155088   0.000000
    10  H    1.098919   3.550547   2.469601   3.346826   0.000000
    11  H    2.841084   1.088257   3.091212   5.979418   3.823306
    12  H    2.788835   1.088368   2.505232   5.640643   3.826937
    13  H    3.530682   1.088244   2.586007   5.524972   4.389425
    14  H    2.911169   4.098699   2.741331   2.393804   2.368518
                   11         12         13         14
    11  H    0.000000
    12  H    1.768670   0.000000
    13  H    1.770837   1.774873   0.000000
    14  H    4.448306   4.812180   4.452051   0.000000
 Stoichiometry    C3H7O4(2)
 Framework group  C1[X(C3H7O4)]
 Deg. of freedom    36
 Full point group                 C1      NOp   1
 Largest Abelian subgroup         C1      NOp   1
 Largest concise Abelian subgroup C1      NOp   1
                         Standard orientation:                         
 ---------------------------------------------------------------------
 Center     Atomic      Atomic             Coordinates (Angstroms)
 Number     Number       Type             X           Y           Z
 ---------------------------------------------------------------------
      1          8           0        1.545560    1.728514   -0.179373
      2          8           0        0.061206   -1.177515   -0.719500
      3          8           0       -2.445693   -0.018700   -0.554066
      4          8           0       -2.184768    0.202154    0.827222
      5          6           0        0.754578   -0.545941    0.213474
      6          6           0        0.600090    1.023285   -0.153882
      7          6           0        2.208857   -0.933166    0.362061
      8          1           0        0.204213   -0.508597    1.175602
      9          1           0       -2.937832   -0.230138    1.243420
     10          1           0       -0.438643    1.322356   -0.351905
     11          1           0        2.723984   -0.812885   -0.588981
     12          1           0        2.700586   -0.309776    1.106462
     13          1           0        2.272531   -1.975546    0.668108
     14          1           0       -1.716425   -0.626114   -0.776893
 ---------------------------------------------------------------------
 Rotational constants (GHZ):           3.6941869           1.4661000           1.2142234
 Leave Link  202 at Tue Mar 26 09:35:19 2019, MaxMem=   671088640 cpu:               0.2 elap:               0.0
 (Enter /shared/centos7/gaussian/g16/l301.exe)
 Standard basis: 6-311+G(2df,2p) (5D, 7F)
 Ernie: Thresh=  0.10000D-02 Tol=  0.10000D-05 Strict=F.
 There are   336 symmetry adapted cartesian basis functions of A   symmetry.
 There are   301 symmetry adapted basis functions of A   symmetry.
   301 basis functions,   441 primitive gaussians,   336 cartesian basis functions
    29 alpha electrons       28 beta electrons
       nuclear repulsion energy       311.5418305913 Hartrees.
 IExCor= 4336 DFT=T Ex+Corr=M062X ExCW=0 ScaHFX=  0.540000
 ScaDFX=  1.000000  1.000000  1.000000  1.000000 ScalE2=  1.000000  1.000000
 IRadAn=      5 IRanWt=     -1 IRanGd=            0 ICorTp=0 IEmpDi=  4
 NAtoms=   14 NActive=   14 NUniq=   14 SFac= 1.00D+00 NAtFMM=   60 NAOKFM=F Big=F
 Integral buffers will be    131072 words long.
 Raffenetti 2 integral format.
 Two-electron integral symmetry is turned on.
 Leave Link  301 at Tue Mar 26 09:35:19 2019, MaxMem=   671088640 cpu:               1.2 elap:               0.1
 (Enter /shared/centos7/gaussian/g16/l302.exe)
 NPDir=0 NMtPBC=     1 NCelOv=     1 NCel=       1 NClECP=     1 NCelD=      1
         NCelK=      1 NCelE2=     1 NClLst=     1 CellRange=     0.0.
 One-electron integrals computed using PRISM.
 One-electron integral symmetry used in STVInt
 NBasis=   301 RedAO= T EigKep=  3.92D-05  NBF=   301
 NBsUse=   301 1.00D-06 EigRej= -1.00D+00 NBFU=   301
 Precomputing XC quadrature grid using
 IXCGrd= 4 IRadAn=           5 IRanWt=          -1 IRanGd=           0 AccXCQ= 0.00D+00.
 Generated NRdTot=       0 NPtTot=           0 NUsed=           0 NTot=          32
 NSgBfM=   336   336   336   336   336 MxSgAt=    14 MxSgA2=    14.
 Leave Link  302 at Tue Mar 26 09:35:20 2019, MaxMem=   671088640 cpu:              10.3 elap:               0.5
 (Enter /shared/centos7/gaussian/g16/l303.exe)
 DipDrv:  MaxL=1.
 Leave Link  303 at Tue Mar 26 09:35:20 2019, MaxMem=   671088640 cpu:               0.8 elap:               0.1
 (Enter /shared/centos7/gaussian/g16/l401.exe)
 ExpMin= 4.38D-02 ExpMax= 8.59D+03 ExpMxC= 1.30D+03 IAcc=3 IRadAn=         5 AccDes= 0.00D+00
 Harris functional with IExCor= 1009 and IRadAn=       5 diagonalized for initial guess.
 HarFok:  IExCor= 1009 AccDes= 0.00D+00 IRadAn=         5 IDoV= 1 UseB2=F ITyADJ=14
 ICtDFT=  3500011 ScaDFX=  1.000000  1.000000  1.000000  1.000000
 FoFCou: FMM=F IPFlag=           0 FMFlag=      100000 FMFlg1=           0
         NFxFlg=           0 DoJE=T BraDBF=F KetDBF=T FulRan=T
         wScrn=  0.000000 ICntrl=       500 IOpCl=  0 I1Cent=   200000004 NGrid=           0
         NMat0=    1 NMatS0=      1 NMatT0=    0 NMatD0=    1 NMtDS0=    0 NMtDT0=    0
 Petite list used in FoFCou.
 Harris En= -419.031289087172    
 JPrj=0 DoOrth=F DoCkMO=F.
 Initial guess <Sx>= 0.0000 <Sy>= 0.0000 <Sz>= 0.5000 <S**2>= 0.7500 S= 0.5000
 Leave Link  401 at Tue Mar 26 09:35:22 2019, MaxMem=   671088640 cpu:              29.7 elap:               1.5
 (Enter /shared/centos7/gaussian/g16/l502.exe)
 Integral symmetry usage will be decided dynamically.
 UHF open shell SCF:
 Using DIIS extrapolation, IDIIS=  1040.
 NGot=   671088640 LenX=   670853114 LenY=   670739777
 Requested convergence on RMS density matrix=1.00D-08 within 128 cycles.
 Requested convergence on MAX density matrix=1.00D-06.
 Requested convergence on             energy=1.00D-06.
 No special actions if energy rises.
 Fock matrices will be formed incrementally for  20 cycles.

 Cycle   1  Pass 1  IDiag  1:
 FoFJK:  IHMeth= 1 ICntrl=       0 DoSepK=F KAlg= 0 I1Cent=           0 FoldK=F
 IRaf= 940000000 NMat=       1 IRICut=       1 DoRegI=T DoRafI=F ISym2E= 0 IDoP0=0 IntGTp=1.
 FoFCou: FMM=F IPFlag=           0 FMFlag=      100000 FMFlg1=           0
         NFxFlg=           0 DoJE=F BraDBF=F KetDBF=F FulRan=T
         wScrn=  0.000000 ICntrl=         0 IOpCl=  1 I1Cent=           0 NGrid=           0
         NMat0=    1 NMatS0=      1 NMatT0=    0 NMatD0=    1 NMtDS0=    0 NMtDT0=    0
 Symmetry not used in FoFCou.
 E= -419.037785355797    
 DIIS: error= 1.75D-02 at cycle   1 NSaved=   1.
 NSaved= 1 IEnMin= 1 EnMin= -419.037785355797     IErMin= 1 ErrMin= 1.75D-02
 ErrMax= 1.75D-02  0.00D+00 EMaxC= 1.00D-01 BMatC= 1.10D+00 BMatP= 1.10D+00
 IDIUse=3 WtCom= 8.25D-01 WtEn= 1.75D-01
 Coeff-Com:  0.100D+01
 Coeff-En:   0.100D+01
 Coeff:      0.100D+01
 Gap=     0.237 Goal=   None    Shift=    0.000
 Gap=     0.244 Goal=   None    Shift=    0.000
 GapD=    0.237 DampG=1.000 DampE=0.500 DampFc=0.5000 IDamp=-1.
 Damping current iteration by 5.00D-01
 RMSDP=2.38D-03 MaxDP=1.15D-01              OVMax= 3.18D-01

 Cycle   2  Pass 1  IDiag  1:
 RMSU=  1.18D-03    CP:  9.82D-01
 E= -419.120492104610     Delta-E=       -0.082706748813 Rises=F Damp=T
 DIIS: error= 7.76D-03 at cycle   2 NSaved=   2.
 NSaved= 2 IEnMin= 2 EnMin= -419.120492104610     IErMin= 2 ErrMin= 7.76D-03
 ErrMax= 7.76D-03  0.00D+00 EMaxC= 1.00D-01 BMatC= 1.16D-01 BMatP= 1.10D+00
 IDIUse=3 WtCom= 9.22D-01 WtEn= 7.76D-02
 Coeff-Com: -0.322D-01 0.103D+01
 Coeff-En:   0.160D-01 0.984D+00
 Coeff:     -0.284D-01 0.103D+01
 Gap=     0.367 Goal=   None    Shift=    0.000
 Gap=     0.233 Goal=   None    Shift=    0.000
 RMSDP=8.65D-04 MaxDP=3.33D-02 DE=-8.27D-02 OVMax= 1.54D-01

 Cycle   3  Pass 1  IDiag  1:
 RMSU=  8.57D-04    CP:  9.71D-01  1.03D+00
 E= -419.206077569195     Delta-E=       -0.085585464586 Rises=F Damp=F
 DIIS: error= 5.99D-03 at cycle   3 NSaved=   3.
 NSaved= 3 IEnMin= 3 EnMin= -419.206077569195     IErMin= 3 ErrMin= 5.99D-03
 ErrMax= 5.99D-03  0.00D+00 EMaxC= 1.00D-01 BMatC= 7.54D-02 BMatP= 1.16D-01
 IDIUse=3 WtCom= 9.40D-01 WtEn= 5.99D-02
 Coeff-Com: -0.104D+00 0.491D+00 0.613D+00
 Coeff-En:   0.000D+00 0.000D+00 0.100D+01
 Coeff:     -0.975D-01 0.461D+00 0.636D+00
 Gap=     0.317 Goal=   None    Shift=    0.000
 Gap=     0.209 Goal=   None    Shift=    0.000
 RMSDP=4.10D-04 MaxDP=2.20D-02 DE=-8.56D-02 OVMax= 1.23D-01

 Cycle   4  Pass 1  IDiag  1:
 RMSU=  3.32D-04    CP:  9.69D-01  1.19D+00  8.28D-01
 E= -419.218881605187     Delta-E=       -0.012804035991 Rises=F Damp=F
 DIIS: error= 3.82D-03 at cycle   4 NSaved=   4.
 NSaved= 4 IEnMin= 4 EnMin= -419.218881605187     IErMin= 4 ErrMin= 3.82D-03
 ErrMax= 3.82D-03  0.00D+00 EMaxC= 1.00D-01 BMatC= 2.17D-02 BMatP= 7.54D-02
 IDIUse=3 WtCom= 9.62D-01 WtEn= 3.82D-02
 Coeff-Com: -0.455D-01 0.111D+00 0.385D+00 0.549D+00
 Coeff-En:   0.000D+00 0.000D+00 0.161D+00 0.839D+00
 Coeff:     -0.438D-01 0.107D+00 0.377D+00 0.560D+00
 Gap=     0.322 Goal=   None    Shift=    0.000
 Gap=     0.213 Goal=   None    Shift=    0.000
 RMSDP=1.63D-04 MaxDP=8.32D-03 DE=-1.28D-02 OVMax= 1.42D-02

 Cycle   5  Pass 1  IDiag  1:
 RMSU=  1.15D-04    CP:  9.68D-01  1.16D+00  9.19D-01  7.65D-01
 E= -419.223081253922     Delta-E=       -0.004199648735 Rises=F Damp=F
 DIIS: error= 9.49D-04 at cycle   5 NSaved=   5.
 NSaved= 5 IEnMin= 5 EnMin= -419.223081253922     IErMin= 5 ErrMin= 9.49D-04
 ErrMax= 9.49D-04  0.00D+00 EMaxC= 1.00D-01 BMatC= 1.33D-03 BMatP= 2.17D-02
 IDIUse=3 WtCom= 9.91D-01 WtEn= 9.49D-03
 Coeff-Com: -0.815D-02 0.752D-02 0.145D+00 0.217D+00 0.639D+00
 Coeff-En:   0.000D+00 0.000D+00 0.000D+00 0.000D+00 0.100D+01
 Coeff:     -0.807D-02 0.745D-02 0.144D+00 0.215D+00 0.642D+00
 Gap=     0.321 Goal=   None    Shift=    0.000
 Gap=     0.215 Goal=   None    Shift=    0.000
 RMSDP=6.86D-05 MaxDP=3.46D-03 DE=-4.20D-03 OVMax= 2.22D-02

 Cycle   6  Pass 1  IDiag  1:
 RMSU=  6.23D-05    CP:  9.68D-01  1.15D+00  9.29D-01  8.17D-01  1.17D+00
 E= -419.223623624296     Delta-E=       -0.000542370374 Rises=F Damp=F
 DIIS: error= 8.77D-04 at cycle   6 NSaved=   6.
 NSaved= 6 IEnMin= 6 EnMin= -419.223623624296     IErMin= 6 ErrMin= 8.77D-04
 ErrMax= 8.77D-04  0.00D+00 EMaxC= 1.00D-01 BMatC= 9.29D-04 BMatP= 1.33D-03
 IDIUse=3 WtCom= 9.91D-01 WtEn= 8.77D-03
 Coeff-Com:  0.143D-01-0.396D-01-0.417D-01-0.139D+00 0.400D+00 0.806D+00
 Coeff-En:   0.000D+00 0.000D+00 0.000D+00 0.000D+00 0.000D+00 0.100D+01
 Coeff:      0.142D-01-0.392D-01-0.414D-01-0.138D+00 0.396D+00 0.808D+00
 Gap=     0.323 Goal=   None    Shift=    0.000
 Gap=     0.220 Goal=   None    Shift=    0.000
 RMSDP=7.34D-05 MaxDP=2.22D-03 DE=-5.42D-04 OVMax= 1.95D-02

 Cycle   7  Pass 1  IDiag  1:
 RMSU=  3.31D-05    CP:  9.68D-01  1.14D+00  9.54D-01  8.64D-01  1.62D+00
                    CP:  1.43D+00
 E= -419.224118008530     Delta-E=       -0.000494384234 Rises=F Damp=F
 DIIS: error= 4.21D-04 at cycle   7 NSaved=   7.
 NSaved= 7 IEnMin= 7 EnMin= -419.224118008530     IErMin= 7 ErrMin= 4.21D-04
 ErrMax= 4.21D-04  0.00D+00 EMaxC= 1.00D-01 BMatC= 2.33D-04 BMatP= 9.29D-04
 IDIUse=3 WtCom= 9.96D-01 WtEn= 4.21D-03
 Coeff-Com:  0.100D-01-0.165D-01-0.549D-01-0.177D+00-0.128D+00 0.103D+00
 Coeff-Com:  0.126D+01
 Coeff-En:   0.000D+00 0.000D+00 0.000D+00 0.000D+00 0.000D+00 0.000D+00
 Coeff-En:   0.100D+01
 Coeff:      0.999D-02-0.165D-01-0.547D-01-0.176D+00-0.128D+00 0.103D+00
 Coeff:      0.126D+01
 Gap=     0.324 Goal=   None    Shift=    0.000
 Gap=     0.224 Goal=   None    Shift=    0.000
 RMSDP=7.77D-05 MaxDP=2.65D-03 DE=-4.94D-04 OVMax= 2.19D-02

 Cycle   8  Pass 1  IDiag  1:
 RMSU=  2.14D-05    CP:  9.68D-01  1.13D+00  9.74D-01  9.03D-01  2.07D+00
                    CP:  2.10D+00  1.72D+00
 E= -419.224381025624     Delta-E=       -0.000263017094 Rises=F Damp=F
 DIIS: error= 1.35D-04 at cycle   8 NSaved=   8.
 NSaved= 8 IEnMin= 8 EnMin= -419.224381025624     IErMin= 8 ErrMin= 1.35D-04
 ErrMax= 1.35D-04  0.00D+00 EMaxC= 1.00D-01 BMatC= 4.20D-05 BMatP= 2.33D-04
 IDIUse=3 WtCom= 9.99D-01 WtEn= 1.35D-03
 Coeff-Com: -0.668D-03 0.410D-02 0.829D-02-0.116D-01-0.935D-01-0.169D+00
 Coeff-Com:  0.241D+00 0.102D+01
 Coeff-En:   0.000D+00 0.000D+00 0.000D+00 0.000D+00 0.000D+00 0.000D+00
 Coeff-En:   0.000D+00 0.100D+01
 Coeff:     -0.667D-03 0.410D-02 0.828D-02-0.116D-01-0.934D-01-0.169D+00
 Coeff:      0.241D+00 0.102D+01
 Gap=     0.324 Goal=   None    Shift=    0.000
 Gap=     0.225 Goal=   None    Shift=    0.000
 RMSDP=3.04D-05 MaxDP=1.00D-03 DE=-2.63D-04 OVMax= 7.26D-03

 Cycle   9  Pass 1  IDiag  1:
 RMSU=  8.91D-06    CP:  9.68D-01  1.13D+00  9.80D-01  9.12D-01  2.21D+00
                    CP:  2.36D+00  2.14D+00  1.47D+00
 E= -419.224422723670     Delta-E=       -0.000041698046 Rises=F Damp=F
 DIIS: error= 6.49D-05 at cycle   9 NSaved=   9.
 NSaved= 9 IEnMin= 9 EnMin= -419.224422723670     IErMin= 9 ErrMin= 6.49D-05
 ErrMax= 6.49D-05  0.00D+00 EMaxC= 1.00D-01 BMatC= 7.30D-06 BMatP= 4.20D-05
 IDIUse=1 WtCom= 1.00D+00 WtEn= 0.00D+00
 Coeff-Com: -0.234D-02 0.438D-02 0.184D-01 0.393D-01 0.190D-01-0.670D-01
 Coeff-Com: -0.280D+00 0.203D+00 0.107D+01
 Coeff:     -0.234D-02 0.438D-02 0.184D-01 0.393D-01 0.190D-01-0.670D-01
 Coeff:     -0.280D+00 0.203D+00 0.107D+01
 Gap=     0.324 Goal=   None    Shift=    0.000
 Gap=     0.226 Goal=   None    Shift=    0.000
 RMSDP=1.57D-05 MaxDP=5.35D-04 DE=-4.17D-05 OVMax= 4.32D-03

 Cycle  10  Pass 1  IDiag  1:
 RMSU=  4.80D-06    CP:  9.68D-01  1.13D+00  9.82D-01  9.14D-01  2.26D+00
                    CP:  2.47D+00  2.36D+00  1.84D+00  1.37D+00
 E= -419.224431411500     Delta-E=       -0.000008687830 Rises=F Damp=F
 DIIS: error= 3.37D-05 at cycle  10 NSaved=  10.
 NSaved=10 IEnMin=10 EnMin= -419.224431411500     IErMin=10 ErrMin= 3.37D-05
 ErrMax= 3.37D-05  0.00D+00 EMaxC= 1.00D-01 BMatC= 1.34D-06 BMatP= 7.30D-06
 IDIUse=1 WtCom= 1.00D+00 WtEn= 0.00D+00
 Coeff-Com: -0.221D-03 0.227D-03 0.250D-02 0.548D-02 0.135D-01-0.404D-02
 Coeff-Com: -0.615D-01-0.689D-01 0.234D+00 0.879D+00
 Coeff:     -0.221D-03 0.227D-03 0.250D-02 0.548D-02 0.135D-01-0.404D-02
 Coeff:     -0.615D-01-0.689D-01 0.234D+00 0.879D+00
 Gap=     0.324 Goal=   None    Shift=    0.000
 Gap=     0.226 Goal=   None    Shift=    0.000
 RMSDP=4.58D-06 MaxDP=1.65D-04 DE=-8.69D-06 OVMax= 1.65D-03

 Cycle  11  Pass 1  IDiag  1:
 RMSU=  2.49D-06    CP:  9.68D-01  1.13D+00  9.83D-01  9.14D-01  2.28D+00
                    CP:  2.49D+00  2.41D+00  1.90D+00  1.56D+00  1.42D+00
 E= -419.224432974174     Delta-E=       -0.000001562674 Rises=F Damp=F
 DIIS: error= 2.88D-05 at cycle  11 NSaved=  11.
 NSaved=11 IEnMin=11 EnMin= -419.224432974174     IErMin=11 ErrMin= 2.88D-05
 ErrMax= 2.88D-05  0.00D+00 EMaxC= 1.00D-01 BMatC= 6.56D-07 BMatP= 1.34D-06
 IDIUse=1 WtCom= 1.00D+00 WtEn= 0.00D+00
 Coeff-Com:  0.431D-03-0.884D-03-0.288D-02-0.680D-02 0.235D-02 0.120D-01
 Coeff-Com:  0.378D-01-0.836D-01-0.134D+00 0.417D+00 0.759D+00
 Coeff:      0.431D-03-0.884D-03-0.288D-02-0.680D-02 0.235D-02 0.120D-01
 Coeff:      0.378D-01-0.836D-01-0.134D+00 0.417D+00 0.759D+00
 Gap=     0.324 Goal=   None    Shift=    0.000
 Gap=     0.226 Goal=   None    Shift=    0.000
 RMSDP=3.22D-06 MaxDP=1.33D-04 DE=-1.56D-06 OVMax= 1.28D-03

 Cycle  12  Pass 1  IDiag  1:
 RMSU=  1.36D-06    CP:  9.68D-01  1.13D+00  9.84D-01  9.14D-01  2.28D+00
                    CP:  2.50D+00  2.43D+00  1.93D+00  1.66D+00  1.85D+00
                    CP:  1.52D+00
 E= -419.224433962761     Delta-E=       -0.000000988588 Rises=F Damp=F
 DIIS: error= 2.21D-05 at cycle  12 NSaved=  12.
 NSaved=12 IEnMin=12 EnMin= -419.224433962761     IErMin=12 ErrMin= 2.21D-05
 ErrMax= 2.21D-05  0.00D+00 EMaxC= 1.00D-01 BMatC= 3.26D-07 BMatP= 6.56D-07
 IDIUse=1 WtCom= 1.00D+00 WtEn= 0.00D+00
 Coeff-Com:  0.212D-03-0.339D-03-0.188D-02-0.456D-02-0.421D-02 0.759D-02
 Coeff-Com:  0.383D-01-0.102D-01-0.142D+00-0.233D+00 0.271D+00 0.108D+01
 Coeff:      0.212D-03-0.339D-03-0.188D-02-0.456D-02-0.421D-02 0.759D-02
 Coeff:      0.383D-01-0.102D-01-0.142D+00-0.233D+00 0.271D+00 0.108D+01
 Gap=     0.324 Goal=   None    Shift=    0.000
 Gap=     0.226 Goal=   None    Shift=    0.000
 RMSDP=4.09D-06 MaxDP=1.96D-04 DE=-9.89D-07 OVMax= 1.67D-03

 Cycle  13  Pass 1  IDiag  1:
 RMSU=  9.83D-07    CP:  9.68D-01  1.13D+00  9.84D-01  9.14D-01  2.28D+00
                    CP:  2.51D+00  2.45D+00  1.96D+00  1.77D+00  2.38D+00
                    CP:  2.45D+00  2.04D+00
 E= -419.224435026502     Delta-E=       -0.000001063740 Rises=F Damp=F
 DIIS: error= 1.73D-05 at cycle  13 NSaved=  13.
 NSaved=13 IEnMin=13 EnMin= -419.224435026502     IErMin=13 ErrMin= 1.73D-05
 ErrMax= 1.73D-05  0.00D+00 EMaxC= 1.00D-01 BMatC= 1.95D-07 BMatP= 3.26D-07
 IDIUse=1 WtCom= 1.00D+00 WtEn= 0.00D+00
 Coeff-Com: -0.234D-03 0.497D-03 0.142D-02 0.296D-02-0.155D-02-0.460D-02
 Coeff-Com: -0.160D-01 0.309D-01 0.785D-01-0.223D+00-0.409D+00 0.156D-01
 Coeff-Com:  0.152D+01
 Coeff:     -0.234D-03 0.497D-03 0.142D-02 0.296D-02-0.155D-02-0.460D-02
 Coeff:     -0.160D-01 0.309D-01 0.785D-01-0.223D+00-0.409D+00 0.156D-01
 Coeff:      0.152D+01
 Gap=     0.324 Goal=   None    Shift=    0.000
 Gap=     0.226 Goal=   None    Shift=    0.000
 RMSDP=5.42D-06 MaxDP=2.61D-04 DE=-1.06D-06 OVMax= 2.20D-03

 Cycle  14  Pass 1  IDiag  1:
 RMSU=  2.19D-06    CP:  9.68D-01  1.13D+00  9.84D-01  9.13D-01  2.28D+00
                    CP:  2.51D+00  2.48D+00  1.99D+00  1.89D+00  2.99D+00
                    CP:  3.00D+00  3.00D+00  2.43D+00
 E= -419.224436128784     Delta-E=       -0.000001102283 Rises=F Damp=F
 DIIS: error= 1.34D-05 at cycle  14 NSaved=  14.
 NSaved=14 IEnMin=14 EnMin= -419.224436128784     IErMin=14 ErrMin= 1.34D-05
 ErrMax= 1.34D-05  0.00D+00 EMaxC= 1.00D-01 BMatC= 1.15D-07 BMatP= 1.95D-07
 IDIUse=1 WtCom= 1.00D+00 WtEn= 0.00D+00
 Coeff-Com: -0.125D-03 0.211D-03 0.134D-02 0.265D-02 0.206D-02-0.651D-02
 Coeff-Com: -0.273D-01-0.285D-03 0.138D+00 0.210D+00-0.283D+00-0.105D+01
 Coeff-Com:  0.908D-01 0.192D+01
 Coeff:     -0.125D-03 0.211D-03 0.134D-02 0.265D-02 0.206D-02-0.651D-02
 Coeff:     -0.273D-01-0.285D-03 0.138D+00 0.210D+00-0.283D+00-0.105D+01
 Coeff:      0.908D-01 0.192D+01
 Gap=     0.324 Goal=   None    Shift=    0.000
 Gap=     0.226 Goal=   None    Shift=    0.000
 RMSDP=8.47D-06 MaxDP=3.92D-04 DE=-1.10D-06 OVMax= 3.43D-03

 Cycle  15  Pass 1  IDiag  1:
 RMSU=  5.28D-06    CP:  9.68D-01  1.13D+00  9.84D-01  9.11D-01  2.28D+00
                    CP:  2.52D+00  2.52D+00  2.02D+00  2.06D+00  3.00D+00
                    CP:  3.00D+00  3.00D+00  3.00D+00  3.00D+00
 E= -419.224437204210     Delta-E=       -0.000001075425 Rises=F Damp=F
 DIIS: error= 5.78D-06 at cycle  15 NSaved=  15.
 NSaved=15 IEnMin=15 EnMin= -419.224437204210     IErMin=15 ErrMin= 5.78D-06
 ErrMax= 5.78D-06  0.00D+00 EMaxC= 1.00D-01 BMatC= 3.33D-08 BMatP= 1.15D-07
 IDIUse=1 WtCom= 1.00D+00 WtEn= 0.00D+00
 Coeff-Com:  0.115D-03-0.223D-03-0.564D-03-0.152D-02 0.365D-03 0.233D-02
 Coeff-Com:  0.954D-02-0.132D-01-0.278D-01 0.978D-01 0.171D+00-0.181D-01
 Coeff-Com: -0.672D+00 0.190D-01 0.143D+01
 Coeff:      0.115D-03-0.223D-03-0.564D-03-0.152D-02 0.365D-03 0.233D-02
 Coeff:      0.954D-02-0.132D-01-0.278D-01 0.978D-01 0.171D+00-0.181D-01
 Coeff:     -0.672D+00 0.190D-01 0.143D+01
 Gap=     0.324 Goal=   None    Shift=    0.000
 Gap=     0.226 Goal=   None    Shift=    0.000
 RMSDP=4.82D-06 MaxDP=2.25D-04 DE=-1.08D-06 OVMax= 1.87D-03

 Cycle  16  Pass 1  IDiag  1:
 RMSU=  2.37D-06    CP:  9.68D-01  1.13D+00  9.84D-01  9.10D-01  2.28D+00
                    CP:  2.52D+00  2.54D+00  2.04D+00  2.14D+00  3.00D+00
                    CP:  3.00D+00  3.00D+00  3.00D+00  3.00D+00  1.76D+00
 E= -419.224437485591     Delta-E=       -0.000000281382 Rises=F Damp=F
 DIIS: error= 2.65D-06 at cycle  16 NSaved=  16.
 NSaved=16 IEnMin=16 EnMin= -419.224437485591     IErMin=16 ErrMin= 2.65D-06
 ErrMax= 2.65D-06  0.00D+00 EMaxC= 1.00D-01 BMatC= 8.61D-09 BMatP= 3.33D-08
 IDIUse=1 WtCom= 1.00D+00 WtEn= 0.00D+00
 Coeff-Com:  0.437D-04-0.795D-04-0.436D-03-0.973D-03-0.646D-03 0.249D-02
 Coeff-Com:  0.975D-02-0.139D-02-0.484D-01-0.722D-01 0.102D+00 0.375D+00
 Coeff-Com: -0.260D-01-0.720D+00 0.163D-01 0.136D+01
 Coeff:      0.437D-04-0.795D-04-0.436D-03-0.973D-03-0.646D-03 0.249D-02
 Coeff:      0.975D-02-0.139D-02-0.484D-01-0.722D-01 0.102D+00 0.375D+00
 Coeff:     -0.260D-01-0.720D+00 0.163D-01 0.136D+01
 Gap=     0.324 Goal=   None    Shift=    0.000
 Gap=     0.226 Goal=   None    Shift=    0.000
 RMSDP=2.25D-06 MaxDP=1.01D-04 DE=-2.81D-07 OVMax= 8.69D-04

 Cycle  17  Pass 1  IDiag  1:
 RMSU=  2.76D-07    CP:  9.68D-01  1.13D+00  9.84D-01  9.10D-01  2.27D+00
                    CP:  2.52D+00  2.55D+00  2.05D+00  2.19D+00  3.00D+00
                    CP:  3.00D+00  3.00D+00  3.00D+00  3.00D+00  2.11D+00
                    CP:  1.48D+00
 E= -419.224437535612     Delta-E=       -0.000000050021 Rises=F Damp=F
 DIIS: error= 1.34D-06 at cycle  17 NSaved=  17.
 NSaved=17 IEnMin=17 EnMin= -419.224437535612     IErMin=17 ErrMin= 1.34D-06
 ErrMax= 1.34D-06  0.00D+00 EMaxC= 1.00D-01 BMatC= 1.64D-09 BMatP= 8.61D-09
 IDIUse=1 WtCom= 1.00D+00 WtEn= 0.00D+00
 Coeff-Com: -0.146D-04 0.276D-04 0.705D-04 0.116D-03-0.138D-03-0.337D-03
 Coeff-Com: -0.116D-02 0.232D-02 0.114D-02-0.249D-01-0.321D-01 0.245D-01
 Coeff-Com:  0.147D+00-0.435D-01-0.290D+00 0.347D-01 0.118D+01
 Coeff:     -0.146D-04 0.276D-04 0.705D-04 0.116D-03-0.138D-03-0.337D-03
 Coeff:     -0.116D-02 0.232D-02 0.114D-02-0.249D-01-0.321D-01 0.245D-01
 Coeff:      0.147D+00-0.435D-01-0.290D+00 0.347D-01 0.118D+01
 Gap=     0.324 Goal=   None    Shift=    0.000
 Gap=     0.226 Goal=   None    Shift=    0.000
 RMSDP=5.72D-07 MaxDP=2.52D-05 DE=-5.00D-08 OVMax= 2.32D-04

 Cycle  18  Pass 1  IDiag  1:
 RMSU=  1.02D-07    CP:  9.68D-01  1.13D+00  9.84D-01  9.10D-01  2.27D+00
                    CP:  2.52D+00  2.55D+00  2.05D+00  2.20D+00  3.00D+00
                    CP:  3.00D+00  3.00D+00  3.00D+00  3.00D+00  2.20D+00
                    CP:  1.59D+00  1.40D+00
 E= -419.224437539692     Delta-E=       -0.000000004080 Rises=F Damp=F
 DIIS: error= 4.14D-07 at cycle  18 NSaved=  18.
 NSaved=18 IEnMin=18 EnMin= -419.224437539692     IErMin=18 ErrMin= 4.14D-07
 ErrMax= 4.14D-07  0.00D+00 EMaxC= 1.00D-01 BMatC= 2.88D-10 BMatP= 1.64D-09
 IDIUse=1 WtCom= 1.00D+00 WtEn= 0.00D+00
 Coeff-Com: -0.214D-05 0.378D-05 0.354D-04 0.414D-04 0.925D-05-0.363D-03
 Coeff-Com: -0.101D-02 0.362D-03 0.556D-02 0.709D-02-0.188D-01-0.515D-01
 Coeff-Com:  0.304D-01 0.100D+00-0.618D-01-0.209D+00 0.265D+00 0.933D+00
 Coeff:     -0.214D-05 0.378D-05 0.354D-04 0.414D-04 0.925D-05-0.363D-03
 Coeff:     -0.101D-02 0.362D-03 0.556D-02 0.709D-02-0.188D-01-0.515D-01
 Coeff:      0.304D-01 0.100D+00-0.618D-01-0.209D+00 0.265D+00 0.933D+00
 Gap=     0.324 Goal=   None    Shift=    0.000
 Gap=     0.226 Goal=   None    Shift=    0.000
 RMSDP=1.23D-07 MaxDP=4.75D-06 DE=-4.08D-09 OVMax= 4.59D-05

 Cycle  19  Pass 1  IDiag  1:
 RMSU=  3.53D-08    CP:  9.68D-01  1.13D+00  9.84D-01  9.10D-01  2.28D+00
                    CP:  2.53D+00  2.56D+00  2.05D+00  2.21D+00  3.00D+00
                    CP:  3.00D+00  3.00D+00  3.00D+00  3.00D+00  2.21D+00
                    CP:  1.61D+00  1.51D+00  1.33D+00
 E= -419.224437540009     Delta-E=       -0.000000000317 Rises=F Damp=F
 DIIS: error= 2.08D-07 at cycle  19 NSaved=  19.
 NSaved=19 IEnMin=19 EnMin= -419.224437540009     IErMin=19 ErrMin= 2.08D-07
 ErrMax= 2.08D-07  0.00D+00 EMaxC= 1.00D-01 BMatC= 6.79D-11 BMatP= 2.88D-10
 IDIUse=1 WtCom= 1.00D+00 WtEn= 0.00D+00
 Coeff-Com:  0.590D-05-0.113D-04-0.222D-04-0.532D-04 0.202D-04 0.503D-04
 Coeff-Com:  0.187D-03-0.649D-03 0.790D-03 0.882D-02 0.319D-02-0.223D-01
 Coeff-Com: -0.279D-01 0.423D-01 0.525D-01-0.733D-01-0.213D+00 0.312D+00
 Coeff-Com:  0.917D+00
 Coeff:      0.590D-05-0.113D-04-0.222D-04-0.532D-04 0.202D-04 0.503D-04
 Coeff:      0.187D-03-0.649D-03 0.790D-03 0.882D-02 0.319D-02-0.223D-01
 Coeff:     -0.279D-01 0.423D-01 0.525D-01-0.733D-01-0.213D+00 0.312D+00
 Coeff:      0.917D+00
 Gap=     0.324 Goal=   None    Shift=    0.000
 Gap=     0.226 Goal=   None    Shift=    0.000
 RMSDP=3.61D-08 MaxDP=1.38D-06 DE=-3.17D-10 OVMax= 1.14D-05

 Cycle  20  Pass 1  IDiag  1:
 RMSU=  1.58D-08    CP:  9.68D-01  1.13D+00  9.84D-01  9.10D-01  2.28D+00
                    CP:  2.53D+00  2.56D+00  2.05D+00  2.21D+00  3.00D+00
                    CP:  3.00D+00  3.00D+00  3.00D+00  3.00D+00  2.21D+00
                    CP:  1.62D+00  1.54D+00  1.50D+00  1.24D+00
 E= -419.224437540066     Delta-E=       -0.000000000057 Rises=F Damp=F
 DIIS: error= 6.90D-08 at cycle  20 NSaved=  20.
 NSaved=20 IEnMin=20 EnMin= -419.224437540066     IErMin=20 ErrMin= 6.90D-08
 ErrMax= 6.90D-08  0.00D+00 EMaxC= 1.00D-01 BMatC= 5.98D-12 BMatP= 6.79D-11
 IDIUse=1 WtCom= 1.00D+00 WtEn= 0.00D+00
 Coeff-Com:  0.356D-07-0.618D-07-0.326D-05-0.272D-05-0.455D-05 0.711D-04
 Coeff-Com:  0.144D-03-0.875D-04-0.779D-03-0.106D-02 0.238D-02 0.750D-02
 Coeff-Com: -0.281D-02-0.157D-01 0.616D-02 0.339D-01-0.295D-01-0.140D+00
 Coeff-Com: -0.509D-01 0.119D+01
 Coeff:      0.356D-07-0.618D-07-0.326D-05-0.272D-05-0.455D-05 0.711D-04
 Coeff:      0.144D-03-0.875D-04-0.779D-03-0.106D-02 0.238D-02 0.750D-02
 Coeff:     -0.281D-02-0.157D-01 0.616D-02 0.339D-01-0.295D-01-0.140D+00
 Coeff:     -0.509D-01 0.119D+01
 Gap=     0.324 Goal=   None    Shift=    0.000
 Gap=     0.226 Goal=   None    Shift=    0.000
 RMSDP=1.20D-08 MaxDP=5.71D-07 DE=-5.71D-11 OVMax= 2.10D-06

 Cycle  21  Pass 1  IDiag  1:
 Restarting incremental Fock formation.
 E= -419.224437540082     Delta-E=       -0.000000000016 Rises=F Damp=F
 DIIS: error= 2.54D-08 at cycle  21 NSaved=  20.
 NSaved=20 IEnMin=20 EnMin= -419.224437540082     IErMin=20 ErrMin= 2.54D-08
 ErrMax= 2.54D-08  0.00D+00 EMaxC= 1.00D-01 BMatC= 7.84D-13 BMatP= 5.98D-12
 IDIUse=1 WtCom= 1.00D+00 WtEn= 0.00D+00
 Coeff-Com: -0.437D-07-0.109D-05-0.316D-05-0.440D-05-0.821D-05 0.165D-04
 Coeff-Com:  0.519D-04-0.869D-04-0.724D-03-0.393D-03 0.162D-02 0.276D-02
 Coeff-Com: -0.288D-02-0.563D-02 0.467D-02 0.218D-01-0.136D-01-0.807D-01
 Coeff-Com: -0.189D+00 0.126D+01
 Coeff:     -0.437D-07-0.109D-05-0.316D-05-0.440D-05-0.821D-05 0.165D-04
 Coeff:      0.519D-04-0.869D-04-0.724D-03-0.393D-03 0.162D-02 0.276D-02
 Coeff:     -0.288D-02-0.563D-02 0.467D-02 0.218D-01-0.136D-01-0.807D-01
 Coeff:     -0.189D+00 0.126D+01
 Gap=     0.324 Goal=   None    Shift=    0.000
 Gap=     0.226 Goal=   None    Shift=    0.000
 RMSDP=4.29D-09 MaxDP=1.79D-07 DE=-1.61D-11 OVMax= 9.01D-07

 SCF Done:  E(UM062X) =  -419.224437540     A.U. after   21 cycles
            NFock= 21  Conv=0.43D-08     -V/T= 2.0031
 <Sx>= 0.0000 <Sy>= 0.0000 <Sz>= 0.5000 <S**2>= 0.7595 S= 0.5047
 <L.S>= 0.000000000000E+00
 KE= 4.179259175390D+02 PE=-1.608991481057D+03 EE= 4.602992953868D+02
 Annihilation of the first spin contaminant:
 S**2 before annihilation     0.7595,   after     0.7500
 Leave Link  502 at Tue Mar 26 09:37:46 2019, MaxMem=   671088640 cpu:            2895.0 elap:             144.8
 (Enter /shared/centos7/gaussian/g16/l801.exe)
 DoSCS=F DFT=T ScalE2(SS,OS)=  1.000000  1.000000
 Range of M.O.s used for correlation:     1   301
 NBasis=   301 NAE=    29 NBE=    28 NFC=     0 NFV=     0
 NROrb=    301 NOA=    29 NOB=    28 NVA=   272 NVB=   273

 **** Warning!!: The largest alpha MO coefficient is  0.35373910D+02


 **** Warning!!: The largest beta MO coefficient is  0.36654615D+02

 Leave Link  801 at Tue Mar 26 09:37:46 2019, MaxMem=   671088640 cpu:               0.5 elap:               0.0
 (Enter /shared/centos7/gaussian/g16/l1101.exe)
 Using compressed storage, NAtomX=    14.
 Will process     15 centers per pass.
 Leave Link 1101 at Tue Mar 26 09:37:47 2019, MaxMem=   671088640 cpu:              11.6 elap:               0.6
 (Enter /shared/centos7/gaussian/g16/l1102.exe)
 Symmetrizing basis deriv contribution to polar:
 IMax=3 JMax=2 DiffMx= 0.00D+00
 Leave Link 1102 at Tue Mar 26 09:37:47 2019, MaxMem=   671088640 cpu:               0.9 elap:               0.1
 (Enter /shared/centos7/gaussian/g16/l1110.exe)
 Forming Gx(P) for the SCF density, NAtomX=    14.
 Integral derivatives from FoFJK, PRISM(SPDF).
 Do as many integral derivatives as possible in FoFJK.
 G2DrvN: MDV=     671087496.
 G2DrvN: will do    15 centers at a time, making    1 passes.
 Calling FoFCou, ICntrl=  3107 FMM=F I1Cent=   0 AccDes= 0.00D+00.
 FoFJK:  IHMeth= 1 ICntrl=    3107 DoSepK=F KAlg= 0 I1Cent=           0 FoldK=F
 IRaf=         0 NMat=       1 IRICut=       1 DoRegI=T DoRafI=F ISym2E= 0 IDoP0=0 IntGTp=1.
 FoFCou: FMM=F IPFlag=           0 FMFlag=      100000 FMFlg1=           0
         NFxFlg=           0 DoJE=F BraDBF=F KetDBF=F FulRan=T
         wScrn=  0.000000 ICntrl=      3107 IOpCl=  1 I1Cent=           0 NGrid=           0
         NMat0=    1 NMatS0=      1 NMatT0=    0 NMatD0=    1 NMtDS0=    0 NMtDT0=    0
 Symmetry not used in FoFCou.
 End of G2Drv F.D. properties file   721 does not exist.
 End of G2Drv F.D. properties file   722 does not exist.
 End of G2Drv F.D. properties file   788 does not exist.
 Leave Link 1110 at Tue Mar 26 09:40:50 2019, MaxMem=   671088640 cpu:            3657.4 elap:             182.9
 (Enter /shared/centos7/gaussian/g16/l1002.exe)
 Minotr:  UHF open shell wavefunction.
          IDoAtm=11111111111111
          Direct CPHF calculation.
          Differentiating once with respect to nuclear coordinates.
          Requested convergence is 1.0D-08 RMS, and 1.0D-07 maximum.
          Secondary convergence is 1.0D-12 RMS, and 1.0D-12 maximum.
          NewPWx=T KeepS1=F KeepF1=F KeepIn=T MapXYZ=F SortEE=F KeepMc=T.
         4264 words used for storage of precomputed grid.
 Two-electron integrals replicated using symmetry.
          MDV=     671088640 using IRadAn=       1.
          Solving linear equations simultaneously, MaxMat=     380.
 FoF2E skips out because all densities are zero.
 CalDSu exits because no D1Ps are significant.
 FoFJK:  IHMeth= 1 ICntrl=       0 DoSepK=F KAlg= 0 I1Cent=           0 FoldK=F
 IRaf= 930000000 NMat=      42 IRICut=     105 DoRegI=T DoRafI=T ISym2E= 2 IDoP0=3 IntGTp=3.
 FoFCou: FMM=F IPFlag=           0 FMFlag=      100000 FMFlg1=           0
         NFxFlg=           0 DoJE=F BraDBF=F KetDBF=F FulRan=T
         wScrn=  0.000000 ICntrl=         0 IOpCl=  1 I1Cent=           0 NGrid=           0
         NMat0=   42 NMatS0=     42 NMatT0=    0 NMatD0=   42 NMtDS0=    0 NMtDT0=    0
 Integrals replicated using symmetry in FoFCou.
 Raff kept on since  90.71% of shell-pairs survive, threshold=   0.20 IRatSp=91.
          There are    45 degrees of freedom in the 1st order CPHF.  IDoFFX=6 NUNeed=     0.
     39 vectors produced by pass  0 Test12= 3.45D-14 2.22D-09 XBig12= 1.33D-01 1.02D-01.
 AX will form    39 AO Fock derivatives at one time.
     39 vectors produced by pass  1 Test12= 3.45D-14 2.22D-09 XBig12= 3.17D-02 4.47D-02.
     39 vectors produced by pass  2 Test12= 3.45D-14 2.22D-09 XBig12= 1.82D-03 1.08D-02.
     39 vectors produced by pass  3 Test12= 3.45D-14 2.22D-09 XBig12= 3.66D-05 1.10D-03.
     39 vectors produced by pass  4 Test12= 3.45D-14 2.22D-09 XBig12= 5.84D-07 8.52D-05.
     39 vectors produced by pass  5 Test12= 3.45D-14 2.22D-09 XBig12= 7.03D-09 1.10D-05.
     39 vectors produced by pass  6 Test12= 3.45D-14 2.22D-09 XBig12= 8.32D-11 1.09D-06.
     24 vectors produced by pass  7 Test12= 3.45D-14 2.22D-09 XBig12= 7.96D-13 1.12D-07.
      4 vectors produced by pass  8 Test12= 3.45D-14 2.22D-09 XBig12= 6.12D-15 6.61D-09.
      1 vectors produced by pass  9 Test12= 3.45D-14 2.22D-09 XBig12= 4.22D-16 3.33D-09.
 InvSVY:  IOpt=1 It=  1 EMax= 2.11D-15
 Solved reduced A of dimension   302 with    39 vectors.
 End of Minotr F.D. properties file   721 does not exist.
 End of Minotr F.D. properties file   722 does not exist.
 End of Minotr F.D. properties file   788 does not exist.
 Leave Link 1002 at Tue Mar 26 09:46:07 2019, MaxMem=   671088640 cpu:            6327.7 elap:             316.5
 (Enter /shared/centos7/gaussian/g16/l601.exe)
 Copying SCF densities to generalized density rwf, IOpCl= 1 IROHF=0.

 **********************************************************************

            Population analysis using the SCF density.

 **********************************************************************

 Orbital symmetries:
 Alpha Orbitals:
       Occupied  (A) (A) (A) (A) (A) (A) (A) (A) (A) (A) (A) (A)
                 (A) (A) (A) (A) (A) (A) (A) (A) (A) (A) (A) (A)
                 (A) (A) (A) (A) (A)
       Virtual   (A) (A) (A) (A) (A) (A) (A) (A) (A) (A) (A) (A)
                 (A) (A) (A) (A) (A) (A) (A) (A) (A) (A) (A) (A)
                 (A) (A) (A) (A) (A) (A) (A) (A) (A) (A) (A) (A)
                 (A) (A) (A) (A) (A) (A) (A) (A) (A) (A) (A) (A)
                 (A) (A) (A) (A) (A) (A) (A) (A) (A) (A) (A) (A)
                 (A) (A) (A) (A) (A) (A) (A) (A) (A) (A) (A) (A)
                 (A) (A) (A) (A) (A) (A) (A) (A) (A) (A) (A) (A)
                 (A) (A) (A) (A) (A) (A) (A) (A) (A) (A) (A) (A)
                 (A) (A) (A) (A) (A) (A) (A) (A) (A) (A) (A) (A)
                 (A) (A) (A) (A) (A) (A) (A) (A) (A) (A) (A) (A)
                 (A) (A) (A) (A) (A) (A) (A) (A) (A) (A) (A) (A)
                 (A) (A) (A) (A) (A) (A) (A) (A) (A) (A) (A) (A)
                 (A) (A) (A) (A) (A) (A) (A) (A) (A) (A) (A) (A)
                 (A) (A) (A) (A) (A) (A) (A) (A) (A) (A) (A) (A)
                 (A) (A) (A) (A) (A) (A) (A) (A) (A) (A) (A) (A)
                 (A) (A) (A) (A) (A) (A) (A) (A) (A) (A) (A) (A)
                 (A) (A) (A) (A) (A) (A) (A) (A) (A) (A) (A) (A)
                 (A) (A) (A) (A) (A) (A) (A) (A) (A) (A) (A) (A)
                 (A) (A) (A) (A) (A) (A) (A) (A) (A) (A) (A) (A)
                 (A) (A) (A) (A) (A) (A) (A) (A) (A) (A) (A) (A)
                 (A) (A) (A) (A) (A) (A) (A) (A) (A) (A) (A) (A)
                 (A) (A) (A) (A) (A) (A) (A) (A) (A) (A) (A) (A)
                 (A) (A) (A) (A) (A) (A) (A) (A)
 Beta  Orbitals:
       Occupied  (A) (A) (A) (A) (A) (A) (A) (A) (A) (A) (A) (A)
                 (A) (A) (A) (A) (A) (A) (A) (A) (A) (A) (A) (A)
                 (A) (A) (A) (A)
       Virtual   (A) (A) (A) (A) (A) (A) (A) (A) (A) (A) (A) (A)
                 (A) (A) (A) (A) (A) (A) (A) (A) (A) (A) (A) (A)
                 (A) (A) (A) (A) (A) (A) (A) (A) (A) (A) (A) (A)
                 (A) (A) (A) (A) (A) (A) (A) (A) (A) (A) (A) (A)
                 (A) (A) (A) (A) (A) (A) (A) (A) (A) (A) (A) (A)
                 (A) (A) (A) (A) (A) (A) (A) (A) (A) (A) (A) (A)
                 (A) (A) (A) (A) (A) (A) (A) (A) (A) (A) (A) (A)
                 (A) (A) (A) (A) (A) (A) (A) (A) (A) (A) (A) (A)
                 (A) (A) (A) (A) (A) (A) (A) (A) (A) (A) (A) (A)
                 (A) (A) (A) (A) (A) (A) (A) (A) (A) (A) (A) (A)
                 (A) (A) (A) (A) (A) (A) (A) (A) (A) (A) (A) (A)
                 (A) (A) (A) (A) (A) (A) (A) (A) (A) (A) (A) (A)
                 (A) (A) (A) (A) (A) (A) (A) (A) (A) (A) (A) (A)
                 (A) (A) (A) (A) (A) (A) (A) (A) (A) (A) (A) (A)
                 (A) (A) (A) (A) (A) (A) (A) (A) (A) (A) (A) (A)
                 (A) (A) (A) (A) (A) (A) (A) (A) (A) (A) (A) (A)
                 (A) (A) (A) (A) (A) (A) (A) (A) (A) (A) (A) (A)
                 (A) (A) (A) (A) (A) (A) (A) (A) (A) (A) (A) (A)
                 (A) (A) (A) (A) (A) (A) (A) (A) (A) (A) (A) (A)
                 (A) (A) (A) (A) (A) (A) (A) (A) (A) (A) (A) (A)
                 (A) (A) (A) (A) (A) (A) (A) (A) (A) (A) (A) (A)
                 (A) (A) (A) (A) (A) (A) (A) (A) (A) (A) (A) (A)
                 (A) (A) (A) (A) (A) (A) (A) (A) (A)
 The electronic state is 2-A.
 Alpha  occ. eigenvalues --  -19.69305 -19.68098 -19.67950 -19.66907 -10.67377
 Alpha  occ. eigenvalues --  -10.62442 -10.54000  -1.26662  -1.23896  -1.18119
 Alpha  occ. eigenvalues --   -1.01539  -0.86739  -0.77678  -0.67483  -0.62607
 Alpha  occ. eigenvalues --   -0.61980  -0.60042  -0.58419  -0.56488  -0.52288
 Alpha  occ. eigenvalues --   -0.51281  -0.50583  -0.47359  -0.46917  -0.44941
 Alpha  occ. eigenvalues --   -0.41663  -0.37803  -0.37008  -0.34000
 Alpha virt. eigenvalues --   -0.01588   0.01233   0.02912   0.03624   0.04394
 Alpha virt. eigenvalues --    0.05734   0.06324   0.06745   0.08068   0.08551
 Alpha virt. eigenvalues --    0.09958   0.10916   0.11761   0.13418   0.16555
 Alpha virt. eigenvalues --    0.17452   0.17522   0.18195   0.19289   0.20216
 Alpha virt. eigenvalues --    0.20835   0.22012   0.22783   0.23077   0.24434
 Alpha virt. eigenvalues --    0.25388   0.26269   0.26504   0.28123   0.28802
 Alpha virt. eigenvalues --    0.29673   0.30012   0.31040   0.31976   0.32917
 Alpha virt. eigenvalues --    0.35179   0.35223   0.37691   0.38781   0.41055
 Alpha virt. eigenvalues --    0.43150   0.45952   0.48455   0.50403   0.51666
 Alpha virt. eigenvalues --    0.52944   0.54051   0.55238   0.57059   0.57685
 Alpha virt. eigenvalues --    0.60255   0.61019   0.61940   0.62705   0.65515
 Alpha virt. eigenvalues --    0.67099   0.68813   0.70022   0.70357   0.74429
 Alpha virt. eigenvalues --    0.74792   0.78487   0.79731   0.82685   0.84980
 Alpha virt. eigenvalues --    0.88562   0.89510   0.90723   0.92823   0.93835
 Alpha virt. eigenvalues --    0.94785   0.96395   1.01444   1.02194   1.02768
 Alpha virt. eigenvalues --    1.06576   1.07923   1.08666   1.09248   1.11013
 Alpha virt. eigenvalues --    1.12689   1.14481   1.15512   1.17314   1.18209
 Alpha virt. eigenvalues --    1.20230   1.20567   1.22826   1.25164   1.26132
 Alpha virt. eigenvalues --    1.28552   1.30698   1.31762   1.33152   1.36109
 Alpha virt. eigenvalues --    1.36875   1.38240   1.42182   1.42940   1.45214
 Alpha virt. eigenvalues --    1.48379   1.49345   1.50361   1.53632   1.55482
 Alpha virt. eigenvalues --    1.57506   1.59066   1.60323   1.61052   1.63121
 Alpha virt. eigenvalues --    1.65326   1.66891   1.70571   1.72716   1.75025
 Alpha virt. eigenvalues --    1.80997   1.84414   1.89815   1.93369   1.94028
 Alpha virt. eigenvalues --    2.02452   2.11299   2.16161   2.18398   2.19189
 Alpha virt. eigenvalues --    2.28136   2.31374   2.33988   2.38390   2.41992
 Alpha virt. eigenvalues --    2.45691   2.47944   2.53593   2.58037   2.58821
 Alpha virt. eigenvalues --    2.63832   2.67975   2.72538   2.76458   2.80159
 Alpha virt. eigenvalues --    2.81879   2.82841   2.84925   2.88643   2.93775
 Alpha virt. eigenvalues --    2.96757   2.98929   3.04280   3.06105   3.08369
 Alpha virt. eigenvalues --    3.12382   3.14897   3.18532   3.22016   3.24911
 Alpha virt. eigenvalues --    3.28236   3.30438   3.31343   3.36522   3.38811
 Alpha virt. eigenvalues --    3.42978   3.48742   3.54140   3.55041   3.56891
 Alpha virt. eigenvalues --    3.58415   3.60145   3.63170   3.64513   3.66906
 Alpha virt. eigenvalues --    3.70719   3.73595   3.73948   3.77462   3.78635
 Alpha virt. eigenvalues --    3.79533   3.88173   3.90234   3.93719   3.96970
 Alpha virt. eigenvalues --    4.02928   4.04182   4.06503   4.08049   4.15345
 Alpha virt. eigenvalues --    4.17597   4.18160   4.21554   4.23514   4.24266
 Alpha virt. eigenvalues --    4.25814   4.32325   4.41514   4.42905   4.46795
 Alpha virt. eigenvalues --    4.50101   4.52556   4.54517   4.56964   4.60073
 Alpha virt. eigenvalues --    4.62026   4.69163   4.72948   4.81639   4.90207
 Alpha virt. eigenvalues --    5.00614   5.03816   5.05497   5.07333   5.11591
 Alpha virt. eigenvalues --    5.12906   5.15170   5.16953   5.18703   5.21043
 Alpha virt. eigenvalues --    5.22457   5.26440   5.28307   5.30606   5.34738
 Alpha virt. eigenvalues --    5.35528   5.37976   5.42747   5.45989   5.47496
 Alpha virt. eigenvalues --    5.48652   5.49677   5.52371   5.53671   5.55355
 Alpha virt. eigenvalues --    5.61373   5.62825   5.66871   5.84618   5.96791
 Alpha virt. eigenvalues --    5.97876   5.98430   6.07874   6.33272   6.63810
 Alpha virt. eigenvalues --    6.70101   6.76124   6.79768   6.81233   6.82732
 Alpha virt. eigenvalues --    6.84404   6.87455   6.89937   6.95356   7.00547
 Alpha virt. eigenvalues --    7.09082   7.12912   7.14808   7.17584   7.24849
 Alpha virt. eigenvalues --    7.26481   7.29060   7.34337   7.38139   7.44265
 Alpha virt. eigenvalues --    7.48364   7.59522   7.61101   7.70782   7.95465
 Alpha virt. eigenvalues --   24.38055  24.52791  24.60733  49.98296  50.02279
 Alpha virt. eigenvalues --   50.14842  50.25419
  Beta  occ. eigenvalues --  -19.69302 -19.67943 -19.67833 -19.65657 -10.67188
  Beta  occ. eigenvalues --  -10.62470 -10.54004  -1.26644  -1.23086  -1.14161
  Beta  occ. eigenvalues --   -1.01528  -0.85635  -0.76302  -0.66393  -0.62481
  Beta  occ. eigenvalues --   -0.60929  -0.58583  -0.56581  -0.55459  -0.52100
  Beta  occ. eigenvalues --   -0.50451  -0.49742  -0.46486  -0.45430  -0.41501
  Beta  occ. eigenvalues --   -0.37775  -0.37049  -0.34749
  Beta virt. eigenvalues --   -0.12191  -0.01131   0.01231   0.02931   0.03620
  Beta virt. eigenvalues --    0.04510   0.05695   0.06338   0.06768   0.08087
  Beta virt. eigenvalues --    0.08754   0.09995   0.10924   0.11724   0.13297
  Beta virt. eigenvalues --    0.16715   0.17465   0.17602   0.18278   0.19429
  Beta virt. eigenvalues --    0.20356   0.20933   0.22121   0.22774   0.23193
  Beta virt. eigenvalues --    0.24562   0.25401   0.26234   0.26638   0.28107
  Beta virt. eigenvalues --    0.29197   0.29699   0.30080   0.31301   0.32285
  Beta virt. eigenvalues --    0.33213   0.35287   0.35326   0.37711   0.38998
  Beta virt. eigenvalues --    0.40666   0.43119   0.46046   0.48470   0.50571
  Beta virt. eigenvalues --    0.51891   0.52958   0.54131   0.55249   0.57322
  Beta virt. eigenvalues --    0.57587   0.60452   0.61137   0.61893   0.63016
  Beta virt. eigenvalues --    0.65454   0.67169   0.68882   0.70156   0.70445
  Beta virt. eigenvalues --    0.74471   0.74939   0.78550   0.79865   0.82755
  Beta virt. eigenvalues --    0.84903   0.88574   0.89562   0.90798   0.92788
  Beta virt. eigenvalues --    0.93880   0.94751   0.96433   1.01561   1.02268
  Beta virt. eigenvalues --    1.02901   1.06645   1.08040   1.08723   1.09646
  Beta virt. eigenvalues --    1.11111   1.12995   1.15578   1.15751   1.17784
  Beta virt. eigenvalues --    1.18507   1.20322   1.20687   1.22995   1.25265
  Beta virt. eigenvalues --    1.26342   1.28733   1.31072   1.31891   1.33162
  Beta virt. eigenvalues --    1.36272   1.36994   1.38416   1.42299   1.43217
  Beta virt. eigenvalues --    1.45394   1.48416   1.49222   1.50427   1.53835
  Beta virt. eigenvalues --    1.55575   1.57554   1.59409   1.60393   1.61251
  Beta virt. eigenvalues --    1.63363   1.65807   1.67021   1.71882   1.73229
  Beta virt. eigenvalues --    1.75413   1.81980   1.85131   1.90021   1.93814
  Beta virt. eigenvalues --    1.94384   2.03034   2.11864   2.16634   2.18660
  Beta virt. eigenvalues --    2.19713   2.28721   2.31496   2.34173   2.38615
  Beta virt. eigenvalues --    2.42263   2.46165   2.48237   2.53823   2.58126
  Beta virt. eigenvalues --    2.59001   2.63791   2.68174   2.72595   2.76798
  Beta virt. eigenvalues --    2.80414   2.82034   2.82994   2.85320   2.88844
  Beta virt. eigenvalues --    2.93993   2.96821   2.99053   3.04349   3.06232
  Beta virt. eigenvalues --    3.08510   3.12420   3.15126   3.18683   3.22500
  Beta virt. eigenvalues --    3.25114   3.28537   3.30557   3.31529   3.36713
  Beta virt. eigenvalues --    3.39288   3.43421   3.48854   3.54007   3.55194
  Beta virt. eigenvalues --    3.57031   3.58549   3.60178   3.63236   3.64648
  Beta virt. eigenvalues --    3.66894   3.70608   3.73697   3.73946   3.77437
  Beta virt. eigenvalues --    3.79029   3.79694   3.88168   3.90280   3.93960
  Beta virt. eigenvalues --    3.96969   4.02950   4.04278   4.06487   4.08086
  Beta virt. eigenvalues --    4.15420   4.17651   4.18187   4.21656   4.23488
  Beta virt. eigenvalues --    4.24394   4.25605   4.32046   4.41521   4.42898
  Beta virt. eigenvalues --    4.46872   4.50165   4.52352   4.54495   4.56889
  Beta virt. eigenvalues --    4.59995   4.62070   4.69214   4.72639   4.81638
  Beta virt. eigenvalues --    4.90211   5.01014   5.05554   5.05914   5.09846
  Beta virt. eigenvalues --    5.12944   5.14330   5.15243   5.18368   5.21114
  Beta virt. eigenvalues --    5.21907   5.22607   5.26697   5.28731   5.31741
  Beta virt. eigenvalues --    5.35297   5.36548   5.39557   5.42992   5.46167
  Beta virt. eigenvalues --    5.48487   5.48920   5.50260   5.52860   5.54207
  Beta virt. eigenvalues --    5.55492   5.61650   5.62924   5.66909   5.85442
  Beta virt. eigenvalues --    5.97872   5.98426   6.00136   6.08300   6.33245
  Beta virt. eigenvalues --    6.64330   6.70148   6.77324   6.80858   6.82372
  Beta virt. eigenvalues --    6.86780   6.86866   6.88894   6.92897   6.99221
  Beta virt. eigenvalues --    7.02909   7.09744   7.13366   7.16688   7.19481
  Beta virt. eigenvalues --    7.24906   7.29455   7.35291   7.36654   7.38834
  Beta virt. eigenvalues --    7.44397   7.49324   7.60338   7.63886   7.70826
  Beta virt. eigenvalues --    7.95470  24.38035  24.52673  24.60941  49.98294
  Beta virt. eigenvalues --   50.02268  50.14202  50.25219
          Condensed to atoms (all electrons):
               1          2          3          4          5          6
     1  O    8.029130   0.003342  -0.001329  -0.000549  -0.086715   0.339913
     2  O    0.003342   8.208717  -0.038476   0.012930   0.253498  -0.099013
     3  O   -0.001329  -0.038476   7.941991   0.089152   0.005034   0.015000
     4  O   -0.000549   0.012930   0.089152   8.033433   0.006057  -0.008246
     5  C   -0.086715   0.253498   0.005034   0.006057   5.414634   0.319032
     6  C    0.339913  -0.099013   0.015000  -0.008246   0.319032   5.078954
     7  C    0.006991  -0.079066  -0.006744   0.020482  -0.113274  -0.177755
     8  H   -0.002458  -0.051758   0.001125  -0.012638   0.432096  -0.043007
     9  H   -0.000002  -0.002103  -0.020210   0.218124   0.010881  -0.008687
    10  H   -0.030043  -0.000144   0.021285  -0.009091   0.000518   0.385791
    11  H   -0.000918  -0.006836   0.000028  -0.000035  -0.004401  -0.004741
    12  H   -0.003146   0.008170   0.000037  -0.000029  -0.028485  -0.003620
    13  H    0.000978  -0.003075   0.000024   0.000031  -0.038249   0.015675
    14  H    0.000192   0.039108   0.275629  -0.067079  -0.004782   0.003358
               7          8          9         10         11         12
     1  O    0.006991  -0.002458  -0.000002  -0.030043  -0.000918  -0.003146
     2  O   -0.079066  -0.051758  -0.002103  -0.000144  -0.006836   0.008170
     3  O   -0.006744   0.001125  -0.020210   0.021285   0.000028   0.000037
     4  O    0.020482  -0.012638   0.218124  -0.009091  -0.000035  -0.000029
     5  C   -0.113274   0.432096   0.010881   0.000518  -0.004401  -0.028485
     6  C   -0.177755  -0.043007  -0.008687   0.385791  -0.004741  -0.003620
     7  C    5.622014  -0.037452   0.002966  -0.011796   0.386040   0.408775
     8  H   -0.037452   0.510680   0.000740  -0.005980   0.004947  -0.004907
     9  H    0.002966   0.000740   0.507536   0.001095  -0.000001   0.000003
    10  H   -0.011796  -0.005980   0.001095   0.448391   0.000126   0.000217
    11  H    0.386040   0.004947  -0.000001   0.000126   0.507967  -0.029220
    12  H    0.408775  -0.004907   0.000003   0.000217  -0.029220   0.523428
    13  H    0.403306  -0.002900  -0.000006  -0.000102  -0.020953  -0.023258
    14  H   -0.001455   0.003003   0.003617  -0.003222  -0.000029   0.000018
              13         14
     1  O    0.000978   0.000192
     2  O   -0.003075   0.039108
     3  O    0.000024   0.275629
     4  O    0.000031  -0.067079
     5  C   -0.038249  -0.004782
     6  C    0.015675   0.003358
     7  C    0.403306  -0.001455
     8  H   -0.002900   0.003003
     9  H   -0.000006   0.003617
    10  H   -0.000102  -0.003222
    11  H   -0.020953  -0.000029
    12  H   -0.023258   0.000018
    13  H    0.523666  -0.000041
    14  H   -0.000041   0.446842
          Atomic-Atomic Spin Densities.
               1          2          3          4          5          6
     1  O    0.146753   0.003742   0.000140  -0.000070  -0.004132  -0.060168
     2  O    0.003742   0.817604   0.006431  -0.001706  -0.079736  -0.034422
     3  O    0.000140   0.006431   0.000473  -0.001050   0.002258  -0.004174
     4  O   -0.000070  -0.001706  -0.001050   0.004480  -0.001694   0.003822
     5  C   -0.004132  -0.079736   0.002258  -0.001694  -0.001624   0.049975
     6  C   -0.060168  -0.034422  -0.004174   0.003822   0.049975   0.197465
     7  C    0.003035   0.004577   0.000561  -0.000653   0.003516  -0.005593
     8  H    0.005464  -0.007856   0.001171  -0.003349   0.029042  -0.034250
     9  H    0.000012  -0.000023   0.000477  -0.001150   0.000590  -0.000574
    10  H    0.002065   0.006758   0.001667  -0.002413   0.007048  -0.009198
    11  H    0.001610   0.001094   0.000022  -0.000019   0.002227  -0.004774
    12  H   -0.001754  -0.000015  -0.000015   0.000014  -0.003388   0.003296
    13  H   -0.000590   0.002376  -0.000029   0.000037  -0.002671   0.002410
    14  H   -0.000029  -0.010775   0.000112   0.000124   0.000134   0.002102
               7          8          9         10         11         12
     1  O    0.003035   0.005464   0.000012   0.002065   0.001610  -0.001754
     2  O    0.004577  -0.007856  -0.000023   0.006758   0.001094  -0.000015
     3  O    0.000561   0.001171   0.000477   0.001667   0.000022  -0.000015
     4  O   -0.000653  -0.003349  -0.001150  -0.002413  -0.000019   0.000014
     5  C    0.003516   0.029042   0.000590   0.007048   0.002227  -0.003388
     6  C   -0.005593  -0.034250  -0.000574  -0.009198  -0.004774   0.003296
     7  C   -0.004929   0.005813   0.000017   0.001027  -0.000404   0.001234
     8  H    0.005813   0.065463   0.000316   0.004089   0.000742  -0.000855
     9  H    0.000017   0.000316   0.000580   0.000110   0.000000  -0.000001
    10  H    0.001027   0.004089   0.000110   0.006120   0.000070  -0.000115
    11  H   -0.000404   0.000742   0.000000   0.000070   0.003653  -0.000573
    12  H    0.001234  -0.000855  -0.000001  -0.000115  -0.000573   0.000217
    13  H   -0.000637  -0.001879  -0.000001  -0.000038  -0.001140   0.001252
    14  H   -0.000292  -0.000191   0.000016  -0.000679  -0.000011   0.000004
              13         14
     1  O   -0.000590  -0.000029
     2  O    0.002376  -0.010775
     3  O   -0.000029   0.000112
     4  O    0.000037   0.000124
     5  C   -0.002671   0.000134
     6  C    0.002410   0.002102
     7  C   -0.000637  -0.000292
     8  H   -0.001879  -0.000191
     9  H   -0.000001   0.000016
    10  H   -0.000038  -0.000679
    11  H   -0.001140  -0.000011
    12  H    0.001252   0.000004
    13  H    0.003008   0.000016
    14  H    0.000016   0.001670
 Mulliken charges and spin densities:
               1          2
     1  O   -0.255386   0.096080
     2  O   -0.245294   0.708049
     3  O   -0.282545   0.008046
     4  O   -0.282541  -0.003626
     5  C   -0.165845   0.001545
     6  C    0.187343   0.105917
     7  C   -0.423033   0.007272
     8  H    0.208507   0.063720
     9  H    0.286048   0.000370
    10  H    0.202956   0.016511
    11  H    0.168027   0.002498
    12  H    0.152018  -0.000700
    13  H    0.144906   0.002114
    14  H    0.304840  -0.007796
 Sum of Mulliken charges =  -0.00000   1.00000
 Mulliken charges and spin densities with hydrogens summed into heavy atoms:
               1          2
     1  O   -0.255386   0.096080
     2  O   -0.245294   0.708049
     3  O    0.022294   0.000249
     4  O    0.003507  -0.003255
     5  C    0.042662   0.065265
     6  C    0.390299   0.122428
     7  C    0.041918   0.011184
 APT charges:
               1
     1  O   -0.086902
     2  O   -0.290365
     3  O   -0.297457
     4  O   -0.744100
     5  C   -0.234695
     6  C   -0.018715
     7  C   -1.320973
     8  H    0.331076
     9  H    0.778136
    10  H    0.299965
    11  H    0.407631
    12  H    0.415842
    13  H    0.468508
    14  H    0.292049
 Sum of APT charges =  -0.00000
 APT charges with hydrogens summed into heavy atoms:
               1
     1  O   -0.086902
     2  O   -0.290365
     3  O   -0.005408
     4  O    0.034036
     5  C    0.096381
     6  C    0.281250
     7  C   -0.028992
 Electronic spatial extent (au):  <R**2>=            975.5957
 Charge=             -0.0000 electrons
 Dipole moment (field-independent basis, Debye):
    X=             -0.1701    Y=             -1.2653    Z=              2.1133  Tot=              2.4690
 Quadrupole moment (field-independent basis, Debye-Ang):
   XX=            -41.8194   YY=            -45.5378   ZZ=            -40.1278
   XY=             -0.7725   XZ=             -3.1955   YZ=             -2.2253
 Traceless Quadrupole moment (field-independent basis, Debye-Ang):
   XX=              0.6756   YY=             -3.0428   ZZ=              2.3672
   XY=             -0.7725   XZ=             -3.1955   YZ=             -2.2253
 Octapole moment (field-independent basis, Debye-Ang**2):
  XXX=            -22.2848  YYY=             -2.9657  ZZZ=              2.0588  XYY=            -10.3008
  XXY=            -14.9466  XXZ=             16.4587  XZZ=             -8.7770  YZZ=              0.8134
  YYZ=              2.6491  XYZ=              1.6779
 Hexadecapole moment (field-independent basis, Debye-Ang**3):
 XXXX=           -742.6561 YYYY=           -293.9566 ZZZZ=           -111.4509 XXXY=             16.8112
 XXXZ=            -62.7811 YYYX=             -6.0977 YYYZ=             -2.4315 ZZZX=            -13.0189
 ZZZY=              0.0715 XXYY=           -186.2753 XXZZ=           -128.6294 YYZZ=            -68.5908
 XXYZ=             -3.1232 YYXZ=              3.0483 ZZXY=              9.4168
 N-N= 3.115418305913D+02 E-N=-1.608991480439D+03  KE= 4.179259175390D+02
  Exact polarizability:   0.000   0.000   0.000   0.000   0.000   0.000
 Approx polarizability:  69.084  11.849  80.196   2.761   4.893  64.642
                          Isotropic Fermi Contact Couplings
        Atom                 a.u.       MegaHertz       Gauss      10(-4) cm-1
     1  O(17)              0.02193     -13.29413      -4.74368      -4.43445
     2  O(17)              0.10589     -64.19172     -22.90520     -21.41205
     3  O(17)              0.00024      -0.14782      -0.05275      -0.04931
     4  O(17)              0.00240      -1.45443      -0.51898      -0.48514
     5  C(13)             -0.03735     -41.99234     -14.98391     -14.00714
     6  C(13)              0.10556     118.67022      42.34449      39.58412
     7  C(13)             -0.00491      -5.52185      -1.97033      -1.84189
     8  H(1)               0.03550     158.69586      56.62663      52.93524
     9  H(1)              -0.00003      -0.12506      -0.04463      -0.04172
    10  H(1)               0.01142      51.03734      18.21139      17.02422
    11  H(1)               0.00052       2.33151       0.83194       0.77771
    12  H(1)              -0.00027      -1.21618      -0.43396      -0.40567
    13  H(1)               0.00053       2.37777       0.84845       0.79314
    14  H(1)               0.00027       1.19101       0.42498       0.39728
 --------------------------------------------------------
       Center         ----  Spin Dipole Couplings  ----
                      3XX-RR        3YY-RR        3ZZ-RR
 --------------------------------------------------------
     1   Atom       -0.191789      0.359946     -0.168156
     2   Atom       -1.263082      1.278443     -0.015361
     3   Atom        0.005175     -0.000672     -0.004503
     4   Atom        0.006137     -0.003196     -0.002941
     5   Atom       -0.051635      0.045396      0.006239
     6   Atom       -0.108601      0.201275     -0.092674
     7   Atom        0.013751     -0.007715     -0.006036
     8   Atom       -0.007263     -0.009905      0.017169
     9   Atom        0.003097     -0.002212     -0.000886
    10   Atom        0.007182      0.005928     -0.013110
    11   Atom        0.010457     -0.004038     -0.006418
    12   Atom        0.004871     -0.002756     -0.002115
    13   Atom        0.005235     -0.002257     -0.002978
    14   Atom        0.023533     -0.009673     -0.013860
 --------------------------------------------------------
                        XY            XZ            YZ
 --------------------------------------------------------
     1   Atom       -0.214868      0.136166     -0.304307
     2   Atom        0.529041     -0.413566     -1.931257
     3   Atom        0.015490     -0.007657     -0.008722
     4   Atom       -0.004217     -0.002390      0.000963
     5   Atom        0.040096      0.009871     -0.053218
     6   Atom       -0.036364      0.014657     -0.067813
     7   Atom       -0.003078      0.009230      0.000290
     8   Atom       -0.005060     -0.007263      0.010605
     9   Atom       -0.000886     -0.002877      0.000554
    10   Atom       -0.007360      0.001473      0.001879
    11   Atom       -0.000747     -0.000582      0.000702
    12   Atom       -0.000022      0.005335     -0.000275
    13   Atom       -0.004614      0.005378     -0.001948
    14   Atom       -0.008218      0.001207     -0.001006
 --------------------------------------------------------


 ---------------------------------------------------------------------------------
              Anisotropic Spin Dipole Couplings in Principal Axis System
 ---------------------------------------------------------------------------------

       Atom             a.u.   MegaHertz   Gauss  10(-4) cm-1        Axes

              Baa    -0.3275    23.695     8.455     7.904 -0.5020  0.2140  0.8379
     1 O(17)  Bbb    -0.2536    18.353     6.549     6.122  0.8072  0.4638  0.3652
              Bcc     0.5811   -42.048   -15.004   -14.026 -0.3105  0.8597 -0.4056
 
              Baa    -1.4203   102.770    36.671    34.280  0.4911  0.4412  0.7511
     2 O(17)  Bbb    -1.3594    98.362    35.098    32.810  0.8556 -0.4064 -0.3207
              Bcc     2.7796  -201.132   -71.769   -67.090  0.1637  0.8001 -0.5771
 
              Baa    -0.0141     1.022     0.365     0.341 -0.5163  0.7974  0.3123
     3 O(17)  Bbb    -0.0087     0.631     0.225     0.210  0.4975 -0.0175  0.8673
              Bcc     0.0228    -1.652    -0.590    -0.551  0.6971  0.6032 -0.3877
 
              Baa    -0.0048     0.349     0.124     0.116  0.3533  0.9350 -0.0299
     4 O(17)  Bbb    -0.0035     0.255     0.091     0.085  0.2185 -0.0514  0.9745
              Bcc     0.0083    -0.604    -0.216    -0.201  0.9096 -0.3508 -0.2225
 
              Baa    -0.0771   -10.349    -3.693    -3.452  0.8220 -0.4308 -0.3724
     5 C(13)  Bbb    -0.0110    -1.481    -0.528    -0.494  0.5323  0.3491  0.7712
              Bcc     0.0882    11.830     4.221     3.946  0.2022  0.8322 -0.5163
 
              Baa    -0.1174   -15.754    -5.621    -5.255  0.8298 -0.0240 -0.5576
[...]
    -- Step size scaled by   0.995
 SLEqS3 Cycle:    53 Max:0.165002     RMS: 28013.4     Conv:0.122634    
 Iteration  1 RMS(Cart)=  0.01848285 RMS(Int)=  0.03211261
 Iteration  2 RMS(Cart)=  0.00082592 RMS(Int)=  0.42178642
 Iteration  3 RMS(Cart)=  0.01349407 RMS(Int)=  0.41637383
 Iteration  4 RMS(Cart)=  0.00139250 RMS(Int)=  0.38805173
 Iteration  5 RMS(Cart)=  0.00128046 RMS(Int)=  0.35983207
 Iteration  6 RMS(Cart)=  0.00121232 RMS(Int)=  0.33163756
 Iteration  7 RMS(Cart)=  0.00116834 RMS(Int)=  0.30346455
 Iteration  8 RMS(Cart)=  0.00115449 RMS(Int)=  0.27533599
 Iteration  9 RMS(Cart)=  0.00116789 RMS(Int)=  0.24727897
 Iteration 10 RMS(Cart)=  0.00120588 RMS(Int)=  0.21932366
 Iteration 11 RMS(Cart)=  0.00128200 RMS(Int)=  0.19156562
 Iteration 12 RMS(Cart)=  0.00143606 RMS(Int)=  0.16467659
 Iteration 13 RMS(Cart)=  0.00147011 RMS(Int)=  0.14331687
 Iteration 14 RMS(Cart)=  0.00059027 RMS(Int)=  0.13775200
 Iteration 15 RMS(Cart)=  0.00032765 RMS(Int)=  0.13491373
 Iteration 16 RMS(Cart)=  0.00028268 RMS(Int)=  0.13248963
 Iteration 17 RMS(Cart)=  0.00026518 RMS(Int)=  0.13021527
 Iteration 18 RMS(Cart)=  0.00025648 RMS(Int)=  0.12800453
 Iteration 19 RMS(Cart)=  0.00025174 RMS(Int)=  0.12581448
 Iteration 20 RMS(Cart)=  0.00024916 RMS(Int)=  0.12361498
 Iteration 21 RMS(Cart)=  0.00024797 RMS(Int)=  0.12137604
 Iteration 22 RMS(Cart)=  0.00024785 RMS(Int)=  0.11905627
 Iteration 23 RMS(Cart)=  0.00024871 RMS(Int)=  0.11657832
 Iteration 24 RMS(Cart)=  0.00025088 RMS(Int)=  0.11373839
 Iteration 25 RMS(Cart)=  0.00025558 RMS(Int)=  0.10947748
 New curvilinear step failed, DQL= 4.43D+00 SP=-4.05D-02.
 ITry= 1 IFail=1 DXMaxC= 9.69D-02 DCOld= 1.00D+10 DXMaxT= 2.38D-01 DXLimC= 3.00D+00 Rises=F
 SLEqS3 Cycle:    52 Max:0.153935     RMS: 28013.4     Conv:0.122634    
 Iteration  1 RMS(Cart)=  0.01717128 RMS(Int)=  0.02950853
 Iteration  2 RMS(Cart)=  0.00072290 RMS(Int)=  0.42209936
 Iteration  3 RMS(Cart)=  0.01218076 RMS(Int)=  0.41747177
 Iteration  4 RMS(Cart)=  0.00127735 RMS(Int)=  0.38912731
 Iteration  5 RMS(Cart)=  0.00117324 RMS(Int)=  0.36088012
 Iteration  6 RMS(Cart)=  0.00111021 RMS(Int)=  0.33265415
 Iteration  7 RMS(Cart)=  0.00106864 RMS(Int)=  0.30444161
 Iteration  8 RMS(Cart)=  0.00105437 RMS(Int)=  0.27626290
 Iteration  9 RMS(Cart)=  0.00106531 RMS(Int)=  0.24814229
 Iteration 10 RMS(Cart)=  0.00109887 RMS(Int)=  0.22010582
 Iteration 11 RMS(Cart)=  0.00116643 RMS(Int)=  0.19224070
 Iteration 12 RMS(Cart)=  0.00130541 RMS(Int)=  0.16518853
 Iteration 13 RMS(Cart)=  0.00134808 RMS(Int)=  0.14350186
 Iteration 14 RMS(Cart)=  0.00055057 RMS(Int)=  0.13778354
 Iteration 15 RMS(Cart)=  0.00030067 RMS(Int)=  0.13492860
 Iteration 16 RMS(Cart)=  0.00025922 RMS(Int)=  0.13249360
 Iteration 17 RMS(Cart)=  0.00024317 RMS(Int)=  0.13021009
 Iteration 18 RMS(Cart)=  0.00023520 RMS(Int)=  0.12799115
 Iteration 19 RMS(Cart)=  0.00023084 RMS(Int)=  0.12579356
 Iteration 20 RMS(Cart)=  0.00022846 RMS(Int)=  0.12358693
 Iteration 21 RMS(Cart)=  0.00022736 RMS(Int)=  0.12134097
 Iteration 22 RMS(Cart)=  0.00022720 RMS(Int)=  0.11901369
 Iteration 23 RMS(Cart)=  0.00022795 RMS(Int)=  0.11652627
 Iteration 24 RMS(Cart)=  0.00022990 RMS(Int)=  0.11366915
 Iteration 25 RMS(Cart)=  0.00023419 RMS(Int)=  0.10932609
 New curvilinear step failed, DQL= 4.43D+00 SP=-3.79D-02.
 ITry= 2 IFail=1 DXMaxC= 8.80D-02 DCOld= 1.00D+10 DXMaxT= 2.38D-01 DXLimC= 3.00D+00 Rises=F
 Iteration  1 RMS(Cart)=  0.00191639 RMS(Int)=  0.43406694
 Iteration  2 RMS(Cart)=  0.02044547 RMS(Int)=  0.42506811
 Iteration  3 RMS(Cart)=  0.00121928 RMS(Int)=  0.39690033
 Iteration  4 RMS(Cart)=  0.00111245 RMS(Int)=  0.36869928
 Iteration  5 RMS(Cart)=  0.00102966 RMS(Int)=  0.34046116
 Iteration  6 RMS(Cart)=  0.00097785 RMS(Int)=  0.31221304
 Iteration  7 RMS(Cart)=  0.00095583 RMS(Int)=  0.28398155
 Iteration  8 RMS(Cart)=  0.00095888 RMS(Int)=  0.25579079
 Iteration  9 RMS(Cart)=  0.00098309 RMS(Int)=  0.22766198
 Iteration 10 RMS(Cart)=  0.00103273 RMS(Int)=  0.19964626
 Iteration 11 RMS(Cart)=  0.00113901 RMS(Int)=  0.17211350
 Iteration 12 RMS(Cart)=  0.00125250 RMS(Int)=  0.14788820
 Iteration 13 RMS(Cart)=  0.00073741 RMS(Int)=  0.13833770
 Iteration 14 RMS(Cart)=  0.00028392 RMS(Int)=  0.13533656
 Iteration 15 RMS(Cart)=  0.00023838 RMS(Int)=  0.13285416
 Iteration 16 RMS(Cart)=  0.00022199 RMS(Int)=  0.13054704
 Iteration 17 RMS(Cart)=  0.00021406 RMS(Int)=  0.12831430
 Iteration 18 RMS(Cart)=  0.00020978 RMS(Int)=  0.12610867
 Iteration 19 RMS(Cart)=  0.00020744 RMS(Int)=  0.12389853
 Iteration 20 RMS(Cart)=  0.00020629 RMS(Int)=  0.12165393
 Iteration 21 RMS(Cart)=  0.00020604 RMS(Int)=  0.11933500
 Iteration 22 RMS(Cart)=  0.00020659 RMS(Int)=  0.11686973
 Iteration 23 RMS(Cart)=  0.00020815 RMS(Int)=  0.11407626
 Iteration 24 RMS(Cart)=  0.00021161 RMS(Int)=  0.11010823
 Iteration 25 RMS(Cart)=  0.00022161 RMS(Int)=  0.33007943
 Iteration 26 RMS(Cart)=  0.00257888 RMS(Int)=  0.32980391
 Iteration 27 RMS(Cart)=  0.00066220 RMS(Int)=  0.30230132
 Iteration 28 RMS(Cart)=  0.00027541 RMS(Int)=  0.29967303
 Iteration 29 RMS(Cart)=  0.00024880 RMS(Int)=  0.29726915
 Iteration 30 RMS(Cart)=  0.00023343 RMS(Int)=  0.29497296
 Iteration 31 RMS(Cart)=  0.00022281 RMS(Int)=  0.29273266
 Iteration 32 RMS(Cart)=  0.00021461 RMS(Int)=  0.29051889
 Iteration 33 RMS(Cart)=  0.00020783 RMS(Int)=  0.28831091
 Iteration 34 RMS(Cart)=  0.00020192 RMS(Int)=  0.28609033
 Iteration 35 RMS(Cart)=  0.00019666 RMS(Int)=  0.28383648
 Iteration 36 RMS(Cart)=  0.00019190 RMS(Int)=  0.28152037
 Iteration 37 RMS(Cart)=  0.00018760 RMS(Int)=  0.27909189
 Iteration 38 RMS(Cart)=  0.00018387 RMS(Int)=  0.27644105
 Iteration 39 RMS(Cart)=  0.00018101 RMS(Int)=  0.27321557
 Iteration 40 RMS(Cart)=  0.00018013 RMS(Int)=  0.26588812
 Iteration 41 RMS(Cart)=  0.00019239 RMS(Int)=  0.18019434
 Iteration 42 RMS(Cart)=  0.00278450 RMS(Int)=  0.17853664
 Iteration 43 RMS(Cart)=  0.00062215 RMS(Int)=  0.15266997
 Iteration 44 RMS(Cart)=  0.00086256 RMS(Int)=  0.13718375
 Iteration 45 RMS(Cart)=  0.00023816 RMS(Int)=  0.13450154
 Iteration 46 RMS(Cart)=  0.00021362 RMS(Int)=  0.13212762
 Iteration 47 RMS(Cart)=  0.00020406 RMS(Int)=  0.12986867
 Iteration 48 RMS(Cart)=  0.00019961 RMS(Int)=  0.12765530
 Iteration 49 RMS(Cart)=  0.00019754 RMS(Int)=  0.12544908
 Iteration 50 RMS(Cart)=  0.00019682 RMS(Int)=  0.12321894
 Iteration 51 RMS(Cart)=  0.00019702 RMS(Int)=  0.12092844
 Iteration 52 RMS(Cart)=  0.00019802 RMS(Int)=  0.11851793
 Iteration 53 RMS(Cart)=  0.00019990 RMS(Int)=  0.11585233
 Iteration 54 RMS(Cart)=  0.00020329 RMS(Int)=  0.11243391
 Iteration 55 RMS(Cart)=  0.00021091 RMS(Int)=  0.08926822
 New curvilinear step failed, DQL= 4.43D+00 SP=-5.54D-02.
 ITry= 3 IFail=1 DXMaxC= 7.89D-02 DCOld= 1.00D+10 DXMaxT= 2.38D-01 DXLimC= 3.00D+00 Rises=F
 SLEqS3 Cycle:    52 Max:0.138494     RMS: 28013.4     Conv:0.122634    
 Iteration  1 RMS(Cart)=  0.01398316 RMS(Int)=  0.02601027
 Iteration  2 RMS(Cart)=  0.00057056 RMS(Int)=  0.42357880
 Iteration  3 RMS(Cart)=  0.01035541 RMS(Int)=  0.42000486
 Iteration  4 RMS(Cart)=  0.00107155 RMS(Int)=  0.39170795
 Iteration  5 RMS(Cart)=  0.00095724 RMS(Int)=  0.36341513
 Iteration  6 RMS(Cart)=  0.00090504 RMS(Int)=  0.33513602
 Iteration  7 RMS(Cart)=  0.00086855 RMS(Int)=  0.30685608
 Iteration  8 RMS(Cart)=  0.00085393 RMS(Int)=  0.27859144
 Iteration  9 RMS(Cart)=  0.00086018 RMS(Int)=  0.25036183
 Iteration 10 RMS(Cart)=  0.00088501 RMS(Int)=  0.22218616
 Iteration 11 RMS(Cart)=  0.00093583 RMS(Int)=  0.19413335
 Iteration 12 RMS(Cart)=  0.00104382 RMS(Int)=  0.16675880
 Iteration 13 RMS(Cart)=  0.00110314 RMS(Int)=  0.14420845
 Iteration 14 RMS(Cart)=  0.00048340 RMS(Int)=  0.13786940
 Iteration 15 RMS(Cart)=  0.00024658 RMS(Int)=  0.13497079
 Iteration 16 RMS(Cart)=  0.00021171 RMS(Int)=  0.13251286
 Iteration 17 RMS(Cart)=  0.00019846 RMS(Int)=  0.13021198
 Iteration 18 RMS(Cart)=  0.00019190 RMS(Int)=  0.12797828
 Iteration 19 RMS(Cart)=  0.00018832 RMS(Int)=  0.12576759
 Iteration 20 RMS(Cart)=  0.00018636 RMS(Int)=  0.12354897
 Iteration 21 RMS(Cart)=  0.00018541 RMS(Int)=  0.12129168
 Iteration 22 RMS(Cart)=  0.00018524 RMS(Int)=  0.11895295
 Iteration 23 RMS(Cart)=  0.00018579 RMS(Int)=  0.11645211
 Iteration 24 RMS(Cart)=  0.00018730 RMS(Int)=  0.11357279
 Iteration 25 RMS(Cart)=  0.00019074 RMS(Int)=  0.10913010
 New curvilinear step failed, DQL= 4.43D+00 SP=-3.21D-02.
 ITry= 4 IFail=1 DXMaxC= 7.00D-02 DCOld= 1.00D+10 DXMaxT= 2.38D-01 DXLimC= 3.00D+00 Rises=F
 Iteration  1 RMS(Cart)=  0.01165173 RMS(Int)=  0.02411159
 Iteration  2 RMS(Cart)=  0.00046292 RMS(Int)=  0.42461528
 Iteration  3 RMS(Cart)=  0.00898669 RMS(Int)=  0.42146589
 Iteration  4 RMS(Cart)=  0.00093792 RMS(Int)=  0.39308746
 Iteration  5 RMS(Cart)=  0.00084949 RMS(Int)=  0.36477902
 Iteration  6 RMS(Cart)=  0.00080197 RMS(Int)=  0.33647891
 Iteration  7 RMS(Cart)=  0.00076809 RMS(Int)=  0.30817136
 Iteration  8 RMS(Cart)=  0.00075368 RMS(Int)=  0.27987118
 Iteration  9 RMS(Cart)=  0.00075783 RMS(Int)=  0.25159645
 Iteration 10 RMS(Cart)=  0.00077862 RMS(Int)=  0.22336319
 Iteration 11 RMS(Cart)=  0.00082150 RMS(Int)=  0.19523143
 Iteration 12 RMS(Cart)=  0.00091431 RMS(Int)=  0.16770841
 Iteration 13 RMS(Cart)=  0.00097812 RMS(Int)=  0.14468417
 Iteration 14 RMS(Cart)=  0.00045007 RMS(Int)=  0.13789379
 Iteration 15 RMS(Cart)=  0.00021904 RMS(Int)=  0.13497321
 Iteration 16 RMS(Cart)=  0.00018761 RMS(Int)=  0.13250482
 Iteration 17 RMS(Cart)=  0.00017577 RMS(Int)=  0.13019631
 Iteration 18 RMS(Cart)=  0.00016995 RMS(Int)=  0.12795631
 Iteration 19 RMS(Cart)=  0.00016678 RMS(Int)=  0.12574009
 Iteration 20 RMS(Cart)=  0.00016503 RMS(Int)=  0.12351649
 Iteration 21 RMS(Cart)=  0.00016417 RMS(Int)=  0.12125453
 Iteration 22 RMS(Cart)=  0.00016400 RMS(Int)=  0.11891116
 Iteration 23 RMS(Cart)=  0.00016446 RMS(Int)=  0.11640502
 Iteration 24 RMS(Cart)=  0.00016577 RMS(Int)=  0.11351727
 Iteration 25 RMS(Cart)=  0.00016878 RMS(Int)=  0.10903812
 Iteration 26 RMS(Cart)=  0.00017871 RMS(Int)=  0.33471822
 Iteration 27 RMS(Cart)=  0.00239804 RMS(Int)=  0.33422291
 Iteration 28 RMS(Cart)=  0.00064137 RMS(Int)=  0.30746485
 Iteration 29 RMS(Cart)=  0.00035091 RMS(Int)=  0.30311009
 Iteration 30 RMS(Cart)=  0.00024079 RMS(Int)=  0.30020947
 Iteration 31 RMS(Cart)=  0.00020833 RMS(Int)=  0.29768616
 Iteration 32 RMS(Cart)=  0.00019221 RMS(Int)=  0.29532428
 Iteration 33 RMS(Cart)=  0.00018199 RMS(Int)=  0.29304453
 Iteration 34 RMS(Cart)=  0.00017451 RMS(Int)=  0.29080736
 Iteration 35 RMS(Cart)=  0.00016851 RMS(Int)=  0.28858801
 Iteration 36 RMS(Cart)=  0.00016341 RMS(Int)=  0.28636708
 Iteration 37 RMS(Cart)=  0.00015890 RMS(Int)=  0.28412536
 Iteration 38 RMS(Cart)=  0.00015483 RMS(Int)=  0.28183883
 Iteration 39 RMS(Cart)=  0.00015113 RMS(Int)=  0.27947025
 Iteration 40 RMS(Cart)=  0.00014784 RMS(Int)=  0.27694777
 Iteration 41 RMS(Cart)=  0.00014508 RMS(Int)=  0.27408683
 Iteration 42 RMS(Cart)=  0.00014327 RMS(Int)=  0.27004318
 Iteration 43 RMS(Cart)=  0.00014459 RMS(Int)=  0.16799912
 Iteration 44 RMS(Cart)=  0.00167655 RMS(Int)=  0.16742367
 Iteration 45 RMS(Cart)=  0.00037048 RMS(Int)=  0.14157610
 Iteration 46 RMS(Cart)=  0.00024934 RMS(Int)=  0.13722177
 Iteration 47 RMS(Cart)=  0.00016345 RMS(Int)=  0.13461035
 Iteration 48 RMS(Cart)=  0.00015013 RMS(Int)=  0.13226501
 Iteration 49 RMS(Cart)=  0.00014567 RMS(Int)=  0.13001446
 Iteration 50 RMS(Cart)=  0.00014423 RMS(Int)=  0.12779551
 Iteration 51 RMS(Cart)=  0.00014417 RMS(Int)=  0.12557014
 Iteration 52 RMS(Cart)=  0.00014492 RMS(Int)=  0.12330301
 Iteration 53 RMS(Cart)=  0.00014626 RMS(Int)=  0.12094521
 Iteration 54 RMS(Cart)=  0.00014822 RMS(Int)=  0.11840089
 Iteration 55 RMS(Cart)=  0.00015106 RMS(Int)=  0.11538929
 Iteration 56 RMS(Cart)=  0.00015598 RMS(Int)=  0.10980675
 New curvilinear step failed, DQL= 4.44D+00 SP=-2.72D-02.
 ITry= 5 IFail=1 DXMaxC= 6.10D-02 DCOld= 1.00D+10 DXMaxT= 2.38D-01 DXLimC= 3.00D+00 Rises=F
 Iteration  1 RMS(Cart)=  0.01073790 RMS(Int)=  0.01305522
 New curvilinear step failed, DQL= 4.42D+00 SP=-1.45D-01.
 ITry= 6 IFail=1 DXMaxC= 4.50D-02 DCOld= 1.00D+10 DXMaxT= 2.38D-01 DXLimC= 3.00D+00 Rises=F
 Iteration  1 RMS(Cart)=  0.00812759 RMS(Int)=  0.01156610
 New curvilinear step failed, DQL= 4.43D+00 SP=-9.97D-02.
 ITry= 7 IFail=1 DXMaxC= 3.50D-02 DCOld= 1.00D+10 DXMaxT= 2.38D-01 DXLimC= 3.00D+00 Rises=F
 Iteration  1 RMS(Cart)=  0.00638256 RMS(Int)=  0.00979257
 New curvilinear step failed, DQL= 4.43D+00 SP=-6.29D-02.
 ITry= 8 IFail=1 DXMaxC= 2.74D-02 DCOld= 1.00D+10 DXMaxT= 2.38D-01 DXLimC= 3.00D+00 Rises=F
 Iteration  1 RMS(Cart)=  0.00685155 RMS(Int)=  0.00703335
 New curvilinear step failed, DQL= 4.43D+00 SP=-1.48D-01.
 ITry= 9 IFail=1 DXMaxC= 2.77D-02 DCOld= 1.00D+10 DXMaxT= 2.38D-01 DXLimC= 3.00D+00 Rises=F
 Iteration  1 RMS(Cart)=  0.00084189 RMS(Int)=  0.00910013
 Iteration  2 RMS(Cart)=  0.00000657 RMS(Int)=  0.44638707
 Iteration  3 RMS(Cart)=  0.00699876 RMS(Int)=  0.44535556
 Iteration  4 RMS(Cart)=  0.00039590 RMS(Int)=  0.41707765
 Iteration  5 RMS(Cart)=  0.00030878 RMS(Int)=  0.38877581
 Iteration  6 RMS(Cart)=  0.00028804 RMS(Int)=  0.36044673
 Iteration  7 RMS(Cart)=  0.00026945 RMS(Int)=  0.33207899
 Iteration  8 RMS(Cart)=  0.00025750 RMS(Int)=  0.30368204
 Iteration  9 RMS(Cart)=  0.00025258 RMS(Int)=  0.27527253
 Iteration 10 RMS(Cart)=  0.00025398 RMS(Int)=  0.24686282
 Iteration 11 RMS(Cart)=  0.00026073 RMS(Int)=  0.21846055
 Iteration 12 RMS(Cart)=  0.00027482 RMS(Int)=  0.19012830
 Iteration 13 RMS(Cart)=  0.00030884 RMS(Int)=  0.16251953
 Iteration 14 RMS(Cart)=  0.00032657 RMS(Int)=  0.14089694
 Iteration 15 RMS(Cart)=  0.00011541 RMS(Int)=  0.13612119
 Iteration 16 RMS(Cart)=  0.00007225 RMS(Int)=  0.13332075
 Iteration 17 RMS(Cart)=  0.00006369 RMS(Int)=  0.13087684
 Iteration 18 RMS(Cart)=  0.00006021 RMS(Int)=  0.12856845
 Iteration 19 RMS(Cart)=  0.00005841 RMS(Int)=  0.12631850
 Iteration 20 RMS(Cart)=  0.00005739 RMS(Int)=  0.12408639
 Iteration 21 RMS(Cart)=  0.00005685 RMS(Int)=  0.12184147
 Iteration 22 RMS(Cart)=  0.00005655 RMS(Int)=  0.11955089
 Iteration 23 RMS(Cart)=  0.00005646 RMS(Int)=  0.11716542
 Iteration 24 RMS(Cart)=  0.00005657 RMS(Int)=  0.11458519
 Iteration 25 RMS(Cart)=  0.00005700 RMS(Int)=  0.11150918
 Iteration 26 RMS(Cart)=  0.00005812 RMS(Int)=  0.10550289
 Iteration 27 RMS(Cart)=  0.00006339 RMS(Int)=  0.33989283
 Iteration 28 RMS(Cart)=  0.00090964 RMS(Int)=  0.33886404
 Iteration 29 RMS(Cart)=  0.00026070 RMS(Int)=  0.31290538
 Iteration 30 RMS(Cart)=  0.00021967 RMS(Int)=  0.30377937
 Iteration 31 RMS(Cart)=  0.00009541 RMS(Int)=  0.30043030
 Iteration 32 RMS(Cart)=  0.00007705 RMS(Int)=  0.29773998
 Iteration 33 RMS(Cart)=  0.00006946 RMS(Int)=  0.29528937
 Iteration 34 RMS(Cart)=  0.00006509 RMS(Int)=  0.29295479
 Iteration 35 RMS(Cart)=  0.00006205 RMS(Int)=  0.29068191
 Iteration 36 RMS(Cart)=  0.00005970 RMS(Int)=  0.28844004
 Iteration 37 RMS(Cart)=  0.00005773 RMS(Int)=  0.28620760
 Iteration 38 RMS(Cart)=  0.00005601 RMS(Int)=  0.28396547
 Iteration 39 RMS(Cart)=  0.00005447 RMS(Int)=  0.28169222
 Iteration 40 RMS(Cart)=  0.00005305 RMS(Int)=  0.27935781
 Iteration 41 RMS(Cart)=  0.00005177 RMS(Int)=  0.27690973
 Iteration 42 RMS(Cart)=  0.00005064 RMS(Int)=  0.27423124
 Iteration 43 RMS(Cart)=  0.00004975 RMS(Int)=  0.27093484
 Iteration 44 RMS(Cart)=  0.00004936 RMS(Int)=  0.26234298
 Iteration 45 RMS(Cart)=  0.00005347 RMS(Int)=  0.18359306
 Iteration 46 RMS(Cart)=  0.00078017 RMS(Int)=  0.18210459
 Iteration 47 RMS(Cart)=  0.00017331 RMS(Int)=  0.15645053
 Iteration 48 RMS(Cart)=  0.00026463 RMS(Int)=  0.13664455
 Iteration 49 RMS(Cart)=  0.00006918 RMS(Int)=  0.13379813
 Iteration 50 RMS(Cart)=  0.00006054 RMS(Int)=  0.13134912
 Iteration 51 RMS(Cart)=  0.00005733 RMS(Int)=  0.12904159
 Iteration 52 RMS(Cart)=  0.00005581 RMS(Int)=  0.12679292
 Iteration 53 RMS(Cart)=  0.00005504 RMS(Int)=  0.12456076
 Iteration 54 RMS(Cart)=  0.00005467 RMS(Int)=  0.12231335
 Iteration 55 RMS(Cart)=  0.00005455 RMS(Int)=  0.12001597
 Iteration 56 RMS(Cart)=  0.00005464 RMS(Int)=  0.11761530
 Iteration 57 RMS(Cart)=  0.00005494 RMS(Int)=  0.11499898
 Iteration 58 RMS(Cart)=  0.00005557 RMS(Int)=  0.11180356
 Iteration 59 RMS(Cart)=  0.00005702 RMS(Int)=  0.10388442
 Iteration 60 RMS(Cart)=  0.00006446 RMS(Int)=  0.34205265
 Iteration 61 RMS(Cart)=  0.00095042 RMS(Int)=  0.34083193
 Iteration 62 RMS(Cart)=  0.00027658 RMS(Int)=  0.31502925
 Iteration 63 RMS(Cart)=  0.00025487 RMS(Int)=  0.30416520
 Iteration 64 RMS(Cart)=  0.00010090 RMS(Int)=  0.30069612
 Iteration 65 RMS(Cart)=  0.00007998 RMS(Int)=  0.29796262
 Iteration 66 RMS(Cart)=  0.00007157 RMS(Int)=  0.29549000
 Iteration 67 RMS(Cart)=  0.00006678 RMS(Int)=  0.29314270
 Iteration 68 RMS(Cart)=  0.00006349 RMS(Int)=  0.29086243
 Iteration 69 RMS(Cart)=  0.00006096 RMS(Int)=  0.28861697
 Iteration 70 RMS(Cart)=  0.00005886 RMS(Int)=  0.28638426
 Iteration 71 RMS(Cart)=  0.00005703 RMS(Int)=  0.28414545
 Iteration 72 RMS(Cart)=  0.00005539 RMS(Int)=  0.28188019
 Iteration 73 RMS(Cart)=  0.00005388 RMS(Int)=  0.27956110
 Iteration 74 RMS(Cart)=  0.00005252 RMS(Int)=  0.27714235
 Iteration 75 RMS(Cart)=  0.00005130 RMS(Int)=  0.27452763
 Iteration 76 RMS(Cart)=  0.00005030 RMS(Int)=  0.27143040
 Iteration 77 RMS(Cart)=  0.00004974 RMS(Int)=  0.26576673
 Iteration 78 RMS(Cart)=  0.00005136 RMS(Int)=  0.17920197
 Iteration 79 RMS(Cart)=  0.00073118 RMS(Int)=  0.17808638
 Iteration 80 RMS(Cart)=  0.00016139 RMS(Int)=  0.15247343
 Iteration 81 RMS(Cart)=  0.00023577 RMS(Int)=  0.13575887
 Iteration 82 RMS(Cart)=  0.00006314 RMS(Int)=  0.13310766
 Iteration 83 RMS(Cart)=  0.00005751 RMS(Int)=  0.13072572
 Iteration 84 RMS(Cart)=  0.00005526 RMS(Int)=  0.12844736
 Iteration 85 RMS(Cart)=  0.00005420 RMS(Int)=  0.12620937
 Iteration 86 RMS(Cart)=  0.00005371 RMS(Int)=  0.12397462
 Iteration 87 RMS(Cart)=  0.00005354 RMS(Int)=  0.12171094
 Iteration 88 RMS(Cart)=  0.00005358 RMS(Int)=  0.11937774
 Iteration 89 RMS(Cart)=  0.00005383 RMS(Int)=  0.11690361
 Iteration 90 RMS(Cart)=  0.00005434 RMS(Int)=  0.11411193
 Iteration 91 RMS(Cart)=  0.00005530 RMS(Int)=  0.11021117
 Iteration 92 RMS(Cart)=  0.00005784 RMS(Int)=  0.32723928
 Iteration 93 RMS(Cart)=  0.00061261 RMS(Int)=  0.32685609
 Iteration 94 RMS(Cart)=  0.00016019 RMS(Int)=  0.29975772
 Iteration 95 RMS(Cart)=  0.00006771 RMS(Int)=  0.29718158
 Iteration 96 RMS(Cart)=  0.00006236 RMS(Int)=  0.29479190
 Iteration 97 RMS(Cart)=  0.00005917 RMS(Int)=  0.29249322
 Iteration 98 RMS(Cart)=  0.00005692 RMS(Int)=  0.29024046
 Iteration 99 RMS(Cart)=  0.00005514 RMS(Int)=  0.28800647
 Iteration100 RMS(Cart)=  0.00005364 RMS(Int)=  0.28577013
 New curvilinear step not converged.
 ITry=10 IFail=1 DXMaxC= 2.60D-02 DCOld= 1.00D+10 DXMaxT= 2.38D-01 DXLimC= 3.00D+00 Rises=F
 RedQX1 iteration     1 Try  1 RMS(Cart)=  0.00544003 RMS(Int)=  0.43372076 XScale=  0.13507659
 RedQX1 iteration     2 Try  1 RMS(Cart)=  0.00108801 RMS(Int)=  0.43602476 XScale=  0.13475290
 RedQX1 iteration     3 Try  1 RMS(Cart)=  0.00021760 RMS(Int)=  0.43650915 XScale=  0.13468169
 RedQX1 iteration     4 Try  1 RMS(Cart)=  0.00004352 RMS(Int)=  0.43660697 XScale=  0.13466719
 RedQX1 iteration     5 Try  1 RMS(Cart)=  0.00000870 RMS(Int)=  0.43662654 XScale=  0.13466429
 RedQX1 iteration     6 Try  1 RMS(Cart)=  0.00000174 RMS(Int)=  0.43663022 XScale=  0.13466378
 Old curvilinear step not converged, using linear step:
 SCX= 6.32D+00 DXMaxT= 2.38D-01 SCLim= 1.19D-01 Fact= 1.88D-02
 Old curvilinear step not converged, using linear step:
 SCX= 5.55D-04 DXMaxT= 2.38D-01 SCLim= 1.19D-01 Fact= 1.00D+00
 Error imposing constraints
 Error termination via Lnk1e in /shared/centos7/gaussian/g16/l103.exe at Tue Mar 26 12:06:48 2019.
 Job cpu time:       2 days  2 hours 17 minutes 44.8 seconds.
 Elapsed time:       0 days  2 hours 31 minutes 21.4 seconds.
 File lengths (MBytes):  RWF=   1408 Int=      0 D2E=      0 Chk=     32 Scr=     32
