 Entering Gaussian System, Link 0=g16
 Input=XDJVAJLIXKTENM-UHFFFAOYSA-N_36by10.0_tor45_a1.com
 Output=XDJVAJLIXKTENM-UHFFFAOYSA-N_36by10.0_tor45_a1.log
 Initial command:
 /shared/centos7/gaussian/g16/l1.exe "/scratch/underkoffler.c/gaussian_scratch/Gau-14383.inp" -scrdir="/scratch/underkoffler.c/gaussian_scratch/"
 Entering Link 1 = /shared/centos7/gaussian/g16/l1.exe PID=     14384.
  
 Copyright (c) 1988,1990,1992,1993,1995,1998,2003,2009,2016,
            Gaussian, Inc.  All Rights Reserved.
  
 This is part of the Gaussian(R) 16 program.  It is based on
 the Gaussian(R) 09 system (copyright 2009, Gaussian, Inc.),
 the Gaussian(R) 03 system (copyright 2003, Gaussian, Inc.),
 the Gaussian(R) 98 system (copyright 1998, Gaussian, Inc.),
 the Gaussian(R) 94 system (copyright 1995, Gaussian, Inc.),
 the Gaussian 92(TM) system (copyright 1992, Gaussian, Inc.),
 the Gaussian 90(TM) system (copyright 1990, Gaussian, Inc.),
 the Gaussian 88(TM) system (copyright 1988, Gaussian, Inc.),
 the Gaussian 86(TM) system (copyright 1986, Carnegie Mellon
 University), and the Gaussian 82(TM) system (copyright 1983,
 Carnegie Mellon University). Gaussian is a federally registered
 trademark of Gaussian, Inc.
  
 This software contains proprietary and confidential information,
 including trade secrets, belonging to Gaussian, Inc.
  
 This software is provided under written license and may be
 used, copied, transmitted, or stored only in accord with that
 written license.
  
 The following legend is applicable only to US Government
 contracts under FAR:
  
                    RESTRICTED RIGHTS LEGEND
  
 Use, reproduction and disclosure by the US Government is
 subject to restrictions as set forth in subparagraphs (a)
 and (c) of the Commercial Computer Software - Restricted
 Rights clause in FAR 52.227-19.
  
 Gaussian, Inc.
 340 Quinnipiac St., Bldg. 40, Wallingford CT 06492
  
  
 ---------------------------------------------------------------
 Warning -- This program may not be used in any manner that
 competes with the business of Gaussian, Inc. or will provide
 assistance to any competitor of Gaussian, Inc.  The licensee
 of this program is prohibited from giving any competitor of
 Gaussian, Inc. access to this program.  By using this program,
 the user acknowledges that Gaussian, Inc. is engaged in the
 business of creating and licensing software in the field of
 computational chemistry and represents and warrants to the
 licensee that it is not a competitor of Gaussian, Inc. and that
 it will not use this program in any manner prohibited above.
 ---------------------------------------------------------------
  

 Cite this work as:
 Gaussian 16, Revision A.03,
 M. J. Frisch, G. W. Trucks, H. B. Schlegel, G. E. Scuseria, 
 M. A. Robb, J. R. Cheeseman, G. Scalmani, V. Barone, 
 G. A. Petersson, H. Nakatsuji, X. Li, M. Caricato, A. V. Marenich, 
 J. Bloino, B. G. Janesko, R. Gomperts, B. Mennucci, H. P. Hratchian, 
 J. V. Ortiz, A. F. Izmaylov, J. L. Sonnenberg, D. Williams-Young, 
 F. Ding, F. Lipparini, F. Egidi, J. Goings, B. Peng, A. Petrone, 
 T. Henderson, D. Ranasinghe, V. G. Zakrzewski, J. Gao, N. Rega, 
 G. Zheng, W. Liang, M. Hada, M. Ehara, K. Toyota, R. Fukuda, 
 J. Hasegawa, M. Ishida, T. Nakajima, Y. Honda, O. Kitao, H. Nakai, 
 T. Vreven, K. Throssell, J. A. Montgomery, Jr., J. E. Peralta, 
 F. Ogliaro, M. J. Bearpark, J. J. Heyd, E. N. Brothers, K. N. Kudin, 
 V. N. Staroverov, T. A. Keith, R. Kobayashi, J. Normand, 
 K. Raghavachari, A. P. Rendell, J. C. Burant, S. S. Iyengar, 
 J. Tomasi, M. Cossi, J. M. Millam, M. Klene, C. Adamo, R. Cammi, 
 J. W. Ochterski, R. L. Martin, K. Morokuma, O. Farkas, 
 J. B. Foresman, and D. J. Fox, Gaussian, Inc., Wallingford CT, 2016.
 
 ******************************************
 Gaussian 16:  EM64L-G16RevA.03 25-Dec-2016
                11-Apr-2019 
 ******************************************
 %nprocshared=20
 Will use up to   20 processors via shared memory.
 %mem=5GB
 ----------------------------------------------
 #p m062x/6-311+g(2df,2p) Opt=(CalcFC,ModRedun)
 ----------------------------------------------
 1/10=4,18=120,19=15,26=3,38=1/1,3;
 2/9=110,12=2,17=6,18=5,40=1/2;
 3/5=4,6=6,7=214,11=2,25=1,30=1,71=2,74=-55,140=1/1,2,3;
 4//1;
 5/5=2,38=5/2;
 8/6=4,10=90,11=11/1;
 11/6=1,8=1,9=11,15=111,16=1/1,2,10;
 10/6=1,13=1/2;
 6/7=2,8=2,9=2,10=2,28=1/1;
 7/10=1,18=20,25=1/1,2,3,16;
 1/10=4,18=20,19=15,26=3/3(2);
 2/9=110/2;
 99//99;
 2/9=110/2;
 3/5=4,6=6,7=214,11=2,25=1,30=1,71=1,74=-55/1,2,3;
 4/5=5,16=3,69=1/1;
 5/5=2,38=5/2;
 7//1,2,3,16;
 1/18=20,19=15,26=3/3(-5);
 2/9=110/2;
 6/7=2,8=2,9=2,10=2,19=2,28=1/1;
 99/9=1/99;
 Leave Link    1 at Thu Apr 11 10:07:07 2019, MaxMem=   671088640 cpu:              28.3 elap:               1.5
 (Enter /shared/centos7/gaussian/g16/l101.exe)
 ----------------------------------------
 Gaussian Input Prepared from Scan Object
 ----------------------------------------
 Symbolic Z-matrix:
 Charge =  0 Multiplicity = 2
 O                     2.80386  -2.63562  -1.6998 
 O                     0.19543  -1.9575    0.04127 
 O                     0.82743  -1.2263    2.64108 
 O                     2.16423  -1.66147   2.43141 
 C                     0.96037  -1.28638  -0.79684 
 C                     2.35684  -2.12214  -0.73945 
 C                     1.36849   0.12587  -0.3615 
 H                     0.64926  -1.34493  -1.84601 
 H                     2.24179  -2.3772    3.07119 
 H                     2.78879  -2.11208   0.27239 
 H                     1.80472   0.10935   0.63643 
 H                     2.07699   0.55046  -1.07186 
 H                     0.47644   0.75022  -0.34162 
 H                     0.41169  -1.52251   1.80918 
 
 Add virtual bond connecting atoms H14        and O2         Dist= 3.46D+00.
 The following ModRedundant input section has been read:
 B       6      10 B                                                           
 B       5       6 B                                                           
 B       5       8 B                                                           
 B       5       7 B                                                           
 B       7      11 B                                                           
 B       2       5 B                                                           
 B       7      12 B                                                           
 B       2       4 B                                                           
 B       1       3 B                                                           
 B       7      13 B                                                           
 B       3      14 B                                                           
 B       6       9 B                                                           
 B       1       6 B                                                           
 D       8       5       6       9 S  36 10.000                                
 
 ITRead=  0  0  0  0  0  0  0  0  0  0  0  0  0  0
 MicOpt= -1 -1 -1 -1 -1 -1 -1 -1 -1 -1 -1 -1 -1 -1
 NAtoms=     14 NQM=       14 NQMF=       0 NMMI=      0 NMMIF=      0
                NMic=       0 NMicF=      0.
                    Isotopes and Nuclear Properties:
 (Nuclear quadrupole moments (NQMom) in fm**2, nuclear magnetic moments (NMagM)
  in nuclear magnetons)

  Atom         1           2           3           4           5           6           7           8           9          10
 IAtWgt=          16          16          16          16          12          12          12           1           1           1
 AtmWgt=  15.9949146  15.9949146  15.9949146  15.9949146  12.0000000  12.0000000  12.0000000   1.0078250   1.0078250   1.0078250
 NucSpn=           0           0           0           0           0           0           0           1           1           1
 AtZEff=  -0.0000000  -0.0000000  -0.0000000  -0.0000000  -0.0000000  -0.0000000  -0.0000000  -0.0000000  -0.0000000  -0.0000000
 NQMom=    0.0000000   0.0000000   0.0000000   0.0000000   0.0000000   0.0000000   0.0000000   0.0000000   0.0000000   0.0000000
 NMagM=    0.0000000   0.0000000   0.0000000   0.0000000   0.0000000   0.0000000   0.0000000   2.7928460   2.7928460   2.7928460
 AtZNuc=   8.0000000   8.0000000   8.0000000   8.0000000   6.0000000   6.0000000   6.0000000   1.0000000   1.0000000   1.0000000

  Atom        11          12          13          14
 IAtWgt=           1           1           1           1
 AtmWgt=   1.0078250   1.0078250   1.0078250   1.0078250
 NucSpn=           1           1           1           1
 AtZEff=  -0.0000000  -0.0000000  -0.0000000  -0.0000000
 NQMom=    0.0000000   0.0000000   0.0000000   0.0000000
 NMagM=    2.7928460   2.7928460   2.7928460   2.7928460
 AtZNuc=   1.0000000   1.0000000   1.0000000   1.0000000
 Leave Link  101 at Thu Apr 11 10:07:07 2019, MaxMem=   671088640 cpu:               5.5 elap:               0.3
 (Enter /shared/centos7/gaussian/g16/l103.exe)

 GradGradGradGradGradGradGradGradGradGradGradGradGradGradGradGradGradGrad
 Berny optimization.
 Initialization pass.
                           ----------------------------
                           !    Initial Parameters    !
                           ! (Angstroms and Degrees)  !
 --------------------------                            --------------------------
 ! Name  Definition              Value          Derivative Info.                !
 --------------------------------------------------------------------------------
 ! R1    R(1,3)                  4.9735         calculate D2E/DX2 analytically  !
 ! R2    R(1,6)                  1.1772         calculate D2E/DX2 analytically  !
 ! R3    R(2,4)                  3.1107         calculate D2E/DX2 analytically  !
 ! R4    R(2,5)                  1.3183         calculate D2E/DX2 analytically  !
 ! R5    R(2,14)                 1.8334         calculate D2E/DX2 analytically  !
 ! R6    R(3,4)                  1.4214         calculate D2E/DX2 analytically  !
 ! R7    R(3,14)                 0.976          calculate D2E/DX2 analytically  !
 ! R8    R(4,9)                  0.9631         calculate D2E/DX2 analytically  !
 ! R9    R(5,6)                  1.6285         calculate D2E/DX2 analytically  !
 ! R10   R(5,7)                  1.5331         calculate D2E/DX2 analytically  !
 ! R11   R(5,8)                  1.0959         calculate D2E/DX2 analytically  !
 ! R12   R(6,9)                  3.8209         calculate D2E/DX2 analytically  !
 ! R13   R(6,10)                 1.1002         calculate D2E/DX2 analytically  !
 ! R14   R(7,11)                 1.0892         calculate D2E/DX2 analytically  !
 ! R15   R(7,12)                 1.0894         calculate D2E/DX2 analytically  !
 ! R16   R(7,13)                 1.089          calculate D2E/DX2 analytically  !
 ! A1    A(4,2,5)               94.1744         calculate D2E/DX2 analytically  !
 ! A2    A(4,2,14)              33.0573         calculate D2E/DX2 analytically  !
 ! A3    A(5,2,14)             115.0749         calculate D2E/DX2 analytically  !
 ! A4    A(1,3,4)               53.8966         calculate D2E/DX2 analytically  !
 ! A5    A(1,3,14)              48.6515         calculate D2E/DX2 analytically  !
 ! A6    A(4,3,14)             100.484          calculate D2E/DX2 analytically  !
 ! A7    A(2,4,3)               63.079          calculate D2E/DX2 analytically  !
 ! A8    A(2,4,9)              119.3834         calculate D2E/DX2 analytically  !
 ! A9    A(3,4,9)              101.845          calculate D2E/DX2 analytically  !
 ! A10   A(2,5,6)              102.3512         calculate D2E/DX2 analytically  !
 ! A11   A(2,5,7)              116.2868         calculate D2E/DX2 analytically  !
 ! A12   A(2,5,8)              114.6275         calculate D2E/DX2 analytically  !
 ! A13   A(6,5,7)              103.5601         calculate D2E/DX2 analytically  !
 ! A14   A(6,5,8)              104.4635         calculate D2E/DX2 analytically  !
 ! A15   A(7,5,8)              113.3682         calculate D2E/DX2 analytically  !
 ! A16   A(1,6,5)              121.3826         calculate D2E/DX2 analytically  !
 ! A17   A(1,6,9)              142.743          calculate D2E/DX2 analytically  !
 ! A18   A(1,6,10)             127.2406         calculate D2E/DX2 analytically  !
 ! A19   A(5,6,9)               92.4982         calculate D2E/DX2 analytically  !
 ! A20   A(5,6,10)             111.3702         calculate D2E/DX2 analytically  !
 ! A21   A(9,6,10)              25.2085         calculate D2E/DX2 analytically  !
 ! A22   A(5,7,11)             110.6581         calculate D2E/DX2 analytically  !
 ! A23   A(5,7,12)             110.3022         calculate D2E/DX2 analytically  !
 ! A24   A(5,7,13)             108.3753         calculate D2E/DX2 analytically  !
 ! A25   A(11,7,12)            110.0503         calculate D2E/DX2 analytically  !
 ! A26   A(11,7,13)            108.6647         calculate D2E/DX2 analytically  !
 ! A27   A(12,7,13)            108.7336         calculate D2E/DX2 analytically  !
 ! A28   A(4,9,6)               44.7912         calculate D2E/DX2 analytically  !
 ! A29   A(2,14,3)             160.7535         calculate D2E/DX2 analytically  !
 ! A30   L(3,1,6,8,-1)         124.1114         calculate D2E/DX2 analytically  !
 ! A31   L(3,1,6,8,-2)           9.4703         calculate D2E/DX2 analytically  !
 ! D1    D(4,3,6,5)           -164.386          calculate D2E/DX2 analytically  !
 ! D2    D(4,3,6,9)             23.8223         calculate D2E/DX2 analytically  !
 ! D3    D(4,3,6,10)            -0.9116         calculate D2E/DX2 analytically  !
 ! D4    D(14,3,6,5)            39.7796         calculate D2E/DX2 analytically  !
 ! D5    D(14,3,6,9)          -132.0121         calculate D2E/DX2 analytically  !
 ! D6    D(14,3,6,10)         -156.746          calculate D2E/DX2 analytically  !
 ! D7    D(5,2,4,3)            125.5148         calculate D2E/DX2 analytically  !
 ! D8    D(5,2,4,9)           -145.7304         calculate D2E/DX2 analytically  !
 ! D9    D(14,2,4,3)            -6.3104         calculate D2E/DX2 analytically  !
 ! D10   D(14,2,4,9)            82.4444         calculate D2E/DX2 analytically  !
 ! D11   D(4,2,5,6)             56.5832         calculate D2E/DX2 analytically  !
 ! D12   D(4,2,5,7)            -55.4945         calculate D2E/DX2 analytically  !
 ! D13   D(4,2,5,8)            169.0189         calculate D2E/DX2 analytically  !
 ! D14   D(14,2,5,6)            83.2484         calculate D2E/DX2 analytically  !
 ! D15   D(14,2,5,7)           -28.8293         calculate D2E/DX2 analytically  !
 ! D16   D(14,2,5,8)          -164.3159         calculate D2E/DX2 analytically  !
 ! D17   D(4,2,14,3)            25.6562         calculate D2E/DX2 analytically  !
 ! D18   D(5,2,14,3)           -29.4824         calculate D2E/DX2 analytically  !
 ! D19   D(1,3,4,2)             -8.294          calculate D2E/DX2 analytically  !
 ! D20   D(1,3,4,9)           -125.4078         calculate D2E/DX2 analytically  !
 ! D21   D(14,3,4,2)             6.5769         calculate D2E/DX2 analytically  !
 ! D22   D(14,3,4,9)          -110.5369         calculate D2E/DX2 analytically  !
 ! D23   D(1,3,14,2)           -15.6774         calculate D2E/DX2 analytically  !
 ! D24   D(4,3,14,2)           -31.7117         calculate D2E/DX2 analytically  !
 ! D25   D(2,4,9,6)             50.2341         calculate D2E/DX2 analytically  !
 ! D26   D(3,4,9,6)            115.8524         calculate D2E/DX2 analytically  !
 ! D27   D(2,5,6,1)            119.0967         calculate D2E/DX2 analytically  !
 ! D28   D(2,5,6,9)            -44.6059         calculate D2E/DX2 analytically  !
 ! D29   D(2,5,6,10)           -61.7794         calculate D2E/DX2 analytically  !
 ! D30   D(7,5,6,1)           -119.6267         calculate D2E/DX2 analytically  !
 ! D31   D(7,5,6,9)             76.6707         calculate D2E/DX2 analytically  !
 ! D32   D(7,5,6,10)            59.4973         calculate D2E/DX2 analytically  !
 ! D33   D(8,5,6,1)             -0.7073         calculate D2E/DX2 analytically  !
 ! D34   D(8,5,6,9)           -164.4099         Scan                            !
 ! D35   D(8,5,6,10)           178.4166         calculate D2E/DX2 analytically  !
 ! D36   D(2,5,7,11)            52.2137         calculate D2E/DX2 analytically  !
 ! D37   D(2,5,7,12)           174.2299         calculate D2E/DX2 analytically  !
 ! D38   D(2,5,7,13)           -66.8406         calculate D2E/DX2 analytically  !
 ! D39   D(6,5,7,11)           -59.1662         calculate D2E/DX2 analytically  !
 ! D40   D(6,5,7,12)            62.8501         calculate D2E/DX2 analytically  !
 ! D41   D(6,5,7,13)          -178.2205         calculate D2E/DX2 analytically  !
 ! D42   D(8,5,7,11)          -171.7538         calculate D2E/DX2 analytically  !
 ! D43   D(8,5,7,12)           -49.7375         calculate D2E/DX2 analytically  !
 ! D44   D(8,5,7,13)            69.1919         calculate D2E/DX2 analytically  !
 ! D45   D(1,6,9,4)            152.3089         calculate D2E/DX2 analytically  !
 ! D46   D(5,6,9,4)            -51.0025         calculate D2E/DX2 analytically  !
 ! D47   D(10,6,9,4)            88.7876         calculate D2E/DX2 analytically  !
 --------------------------------------------------------------------------------
 Trust Radius=3.00D-01 FncErr=1.00D-07 GrdErr=1.00D-06 EigMax=2.50D+02 EigMin=1.00D-04
 Number of optimizations in scan=  37
 Number of steps in this run=    100 maximum allowed number of steps=    100.
 GradGradGradGradGradGradGradGradGradGradGradGradGradGradGradGradGradGrad

 Leave Link  103 at Thu Apr 11 10:07:07 2019, MaxMem=   671088640 cpu:               0.2 elap:               0.0
 (Enter /shared/centos7/gaussian/g16/l202.exe)
                          Input orientation:                          
 ---------------------------------------------------------------------
 Center     Atomic      Atomic             Coordinates (Angstroms)
 Number     Number       Type             X           Y           Z
 ---------------------------------------------------------------------
      1          8           0        2.803862   -2.635616   -1.699803
      2          8           0        0.195429   -1.957502    0.041274
      3          8           0        0.827434   -1.226301    2.641080
      4          8           0        2.164229   -1.661468    2.431406
      5          6           0        0.960369   -1.286379   -0.796843
      6          6           0        2.356837   -2.122136   -0.739450
      7          6           0        1.368490    0.125868   -0.361498
      8          1           0        0.649260   -1.344934   -1.846005
      9          1           0        2.241793   -2.377199    3.071190
     10          1           0        2.788788   -2.112085    0.272394
     11          1           0        1.804715    0.109347    0.636427
     12          1           0        2.076995    0.550462   -1.071862
     13          1           0        0.476441    0.750223   -0.341624
     14          1           0        0.411685   -1.522511    1.809178
 ---------------------------------------------------------------------
                    Distance matrix (angstroms):
                    1          2          3          4          5
     1  O    0.000000
     2  O    3.208600   0.000000
     3  O    4.973501   2.773640   0.000000
     4  O    4.292433   3.110713   1.421391   0.000000
     5  C    2.456470   1.318324   3.441017   3.465769   0.000000
     6  C    1.177188   2.303978   3.817012   3.209928   1.628467
     7  C    3.387794   2.424608   3.337151   3.409997   1.533143
     8  H    2.515859   2.035442   4.492189   4.548799   1.095883
     9  H    4.810933   3.680237   1.873492   0.963126   4.218248
    10  H    2.040558   2.608222   3.200343   2.292261   2.273361
    11  H    3.740466   2.686237   2.599552   2.546956   2.171459
    12  H    3.327723   3.327047   4.301654   4.144047   2.167135
    13  H    4.327291   2.749063   3.595325   4.044078   2.142232
    14  H    4.390269   1.833431   0.976037   1.864908   2.673603
                    6          7          8          9         10
     6  C    0.000000
     7  C    2.484592   0.000000
     8  H    2.178147   2.210047   0.000000
     9  H    3.820899   4.337206   5.270725   0.000000
    10  H    1.100233   2.725344   3.107043   2.864044   0.000000
    11  H    2.679065   1.089229   3.100400   3.507424   2.456762
    12  H    2.707690   1.089438   2.496047   5.075750   3.066403
    13  H    3.456095   1.089020   2.585094   4.954244   3.730519
    14  H    3.261697   2.888678   3.667198   2.381693   2.891352
                   11         12         13         14
    11  H    0.000000
    12  H    1.785208   0.000000
    13  H    1.769637   1.770571   0.000000
    14  H    2.445166   3.920569   3.129770   0.000000
 Stoichiometry    C3H7O4(2)
 Framework group  C1[X(C3H7O4)]
 Deg. of freedom    36
 Full point group                 C1      NOp   1
 Largest Abelian subgroup         C1      NOp   1
 Largest concise Abelian subgroup C1      NOp   1
                         Standard orientation:                         
 ---------------------------------------------------------------------
 Center     Atomic      Atomic             Coordinates (Angstroms)
 Number     Number       Type             X           Y           Z
 ---------------------------------------------------------------------
      1          8           0       -2.364140   -1.204365   -0.014447
      2          8           0       -0.079613    0.646867    1.269682
      3          8           0        2.422350    0.131197    0.189246
      4          8           0        1.903983   -1.034350   -0.437770
      5          6           0       -0.954614    0.783814    0.293159
      6          6           0       -1.277009   -0.761965   -0.105001
      7          6           0       -0.425667    1.388532   -1.012621
      8          1           0       -1.922631    1.194606    0.601629
      9          1           0        2.417877   -1.731046   -0.015704
     10          1           0       -0.374907   -1.280301   -0.462845
     11          1           0        0.458608    0.851983   -1.354078
     12          1           0       -1.197705    1.363307   -1.780864
     13          1           0       -0.152937    2.425979   -0.824771
     14          1           0        1.654795    0.398392    0.729723
 ---------------------------------------------------------------------
 Rotational constants (GHZ):           3.3949626           1.4961713           1.3024530
 Leave Link  202 at Thu Apr 11 10:07:07 2019, MaxMem=   671088640 cpu:               0.2 elap:               0.0
 (Enter /shared/centos7/gaussian/g16/l301.exe)
 Standard basis: 6-311+G(2df,2p) (5D, 7F)
 Ernie: Thresh=  0.10000D-02 Tol=  0.10000D-05 Strict=F.
 There are   336 symmetry adapted cartesian basis functions of A   symmetry.
 There are   301 symmetry adapted basis functions of A   symmetry.
   301 basis functions,   441 primitive gaussians,   336 cartesian basis functions
    29 alpha electrons       28 beta electrons
       nuclear repulsion energy       311.9975812678 Hartrees.
 IExCor= 4336 DFT=T Ex+Corr=M062X ExCW=0 ScaHFX=  0.540000
 ScaDFX=  1.000000  1.000000  1.000000  1.000000 ScalE2=  1.000000  1.000000
 IRadAn=      5 IRanWt=     -1 IRanGd=            0 ICorTp=0 IEmpDi=  4
 NAtoms=   14 NActive=   14 NUniq=   14 SFac= 1.00D+00 NAtFMM=   60 NAOKFM=F Big=F
 Integral buffers will be    131072 words long.
 Raffenetti 2 integral format.
 Two-electron integral symmetry is turned on.
 Leave Link  301 at Thu Apr 11 10:07:07 2019, MaxMem=   671088640 cpu:               1.2 elap:               0.1
 (Enter /shared/centos7/gaussian/g16/l302.exe)
 NPDir=0 NMtPBC=     1 NCelOv=     1 NCel=       1 NClECP=     1 NCelD=      1
         NCelK=      1 NCelE2=     1 NClLst=     1 CellRange=     0.0.
 One-electron integrals computed using PRISM.
 One-electron integral symmetry used in STVInt
 NBasis=   301 RedAO= T EigKep=  4.47D-05  NBF=   301
 NBsUse=   301 1.00D-06 EigRej= -1.00D+00 NBFU=   301
 Precomputing XC quadrature grid using
 IXCGrd= 4 IRadAn=           5 IRanWt=          -1 IRanGd=           0 AccXCQ= 0.00D+00.
 Generated NRdTot=       0 NPtTot=           0 NUsed=           0 NTot=          32
 NSgBfM=   336   336   336   336   336 MxSgAt=    14 MxSgA2=    14.
 Leave Link  302 at Thu Apr 11 10:07:08 2019, MaxMem=   671088640 cpu:               8.3 elap:               0.4
 (Enter /shared/centos7/gaussian/g16/l303.exe)
 DipDrv:  MaxL=1.
 Leave Link  303 at Thu Apr 11 10:07:08 2019, MaxMem=   671088640 cpu:               1.0 elap:               0.1
 (Enter /shared/centos7/gaussian/g16/l401.exe)
 ExpMin= 4.38D-02 ExpMax= 8.59D+03 ExpMxC= 1.30D+03 IAcc=3 IRadAn=         5 AccDes= 0.00D+00
 Harris functional with IExCor= 1009 and IRadAn=       5 diagonalized for initial guess.
 HarFok:  IExCor= 1009 AccDes= 0.00D+00 IRadAn=         5 IDoV= 1 UseB2=F ITyADJ=14
 ICtDFT=  3500011 ScaDFX=  1.000000  1.000000  1.000000  1.000000
 FoFCou: FMM=F IPFlag=           0 FMFlag=      100000 FMFlg1=           0
         NFxFlg=           0 DoJE=T BraDBF=F KetDBF=T FulRan=T
         wScrn=  0.000000 ICntrl=       500 IOpCl=  0 I1Cent=   200000004 NGrid=           0
         NMat0=    1 NMatS0=      1 NMatT0=    0 NMatD0=    1 NMtDS0=    0 NMtDT0=    0
 Petite list used in FoFCou.
 Harris En= -419.030243697039    
 JPrj=0 DoOrth=F DoCkMO=F.
 Initial guess <Sx>= 0.0000 <Sy>= 0.0000 <Sz>= 0.5000 <S**2>= 0.7500 S= 0.5000
 Leave Link  401 at Thu Apr 11 10:07:09 2019, MaxMem=   671088640 cpu:              22.5 elap:               1.2
 (Enter /shared/centos7/gaussian/g16/l502.exe)
 Integral symmetry usage will be decided dynamically.
 UHF open shell SCF:
 Using DIIS extrapolation, IDIIS=  1040.
 NGot=   671088640 LenX=   670853114 LenY=   670739777
 Requested convergence on RMS density matrix=1.00D-08 within 128 cycles.
 Requested convergence on MAX density matrix=1.00D-06.
 Requested convergence on             energy=1.00D-06.
 No special actions if energy rises.
 Fock matrices will be formed incrementally for  20 cycles.

 Cycle   1  Pass 1  IDiag  1:
 FoFJK:  IHMeth= 1 ICntrl=       0 DoSepK=F KAlg= 0 I1Cent=           0 FoldK=F
 IRaf= 950000000 NMat=       1 IRICut=       1 DoRegI=T DoRafI=F ISym2E= 0 IDoP0=0 IntGTp=1.
 FoFCou: FMM=F IPFlag=           0 FMFlag=      100000 FMFlg1=           0
         NFxFlg=           0 DoJE=F BraDBF=F KetDBF=F FulRan=T
         wScrn=  0.000000 ICntrl=         0 IOpCl=  1 I1Cent=           0 NGrid=           0
         NMat0=    1 NMatS0=      1 NMatT0=    0 NMatD0=    1 NMtDS0=    0 NMtDT0=    0
 Symmetry not used in FoFCou.
 E= -419.037288925360    
 DIIS: error= 1.54D-02 at cycle   1 NSaved=   1.
 NSaved= 1 IEnMin= 1 EnMin= -419.037288925360     IErMin= 1 ErrMin= 1.54D-02
 ErrMax= 1.54D-02  0.00D+00 EMaxC= 1.00D-01 BMatC= 1.09D+00 BMatP= 1.09D+00
 IDIUse=3 WtCom= 8.46D-01 WtEn= 1.54D-01
 Coeff-Com:  0.100D+01
 Coeff-En:   0.100D+01
 Coeff:      0.100D+01
 Gap=     0.239 Goal=   None    Shift=    0.000
 Gap=     0.220 Goal=   None    Shift=    0.000
 GapD=    0.220 DampG=1.000 DampE=0.500 DampFc=0.5000 IDamp=-1.
 Damping current iteration by 5.00D-01
 RMSDP=2.54D-03 MaxDP=1.43D-01              OVMax= 3.01D-01

 Cycle   2  Pass 1  IDiag  1:
 RMSU=  1.24D-03    CP:  9.72D-01
 E= -419.117722770786     Delta-E=       -0.080433845426 Rises=F Damp=T
 DIIS: error= 7.03D-03 at cycle   2 NSaved=   2.
 NSaved= 2 IEnMin= 2 EnMin= -419.117722770786     IErMin= 2 ErrMin= 7.03D-03
 ErrMax= 7.03D-03  0.00D+00 EMaxC= 1.00D-01 BMatC= 1.20D-01 BMatP= 1.09D+00
 IDIUse=3 WtCom= 9.30D-01 WtEn= 7.03D-02
 Coeff-Com: -0.217D-01 0.102D+01
 Coeff-En:   0.418D-01 0.958D+00
 Coeff:     -0.172D-01 0.102D+01
 Gap=     0.364 Goal=   None    Shift=    0.000
 Gap=     0.239 Goal=   None    Shift=    0.000
 RMSDP=8.89D-04 MaxDP=3.34D-02 DE=-8.04D-02 OVMax= 1.93D-01

 Cycle   3  Pass 1  IDiag  1:
 RMSU=  8.87D-04    CP:  9.66D-01  1.00D+00
 E= -419.202040916530     Delta-E=       -0.084318145744 Rises=F Damp=F
 DIIS: error= 7.01D-03 at cycle   3 NSaved=   3.
 NSaved= 3 IEnMin= 3 EnMin= -419.202040916530     IErMin= 3 ErrMin= 7.01D-03
 ErrMax= 7.01D-03  0.00D+00 EMaxC= 1.00D-01 BMatC= 8.52D-02 BMatP= 1.20D-01
 IDIUse=3 WtCom= 9.30D-01 WtEn= 7.01D-02
 Coeff-Com: -0.102D+00 0.503D+00 0.598D+00
 Coeff-En:   0.000D+00 0.000D+00 0.100D+01
 Coeff:     -0.945D-01 0.468D+00 0.627D+00
 Gap=     0.313 Goal=   None    Shift=    0.000
 Gap=     0.213 Goal=   None    Shift=    0.000
 RMSDP=4.69D-04 MaxDP=3.07D-02 DE=-8.43D-02 OVMax= 1.30D-01

 Cycle   4  Pass 1  IDiag  1:
 RMSU=  3.71D-04    CP:  9.62D-01  1.18D+00  8.07D-01
 E= -419.216264317303     Delta-E=       -0.014223400773 Rises=F Damp=F
 DIIS: error= 4.53D-03 at cycle   4 NSaved=   4.
 NSaved= 4 IEnMin= 4 EnMin= -419.216264317303     IErMin= 4 ErrMin= 4.53D-03
 ErrMax= 4.53D-03  0.00D+00 EMaxC= 1.00D-01 BMatC= 2.51D-02 BMatP= 8.52D-02
 IDIUse=3 WtCom= 9.55D-01 WtEn= 4.53D-02
 Coeff-Com: -0.455D-01 0.113D+00 0.385D+00 0.547D+00
 Coeff-En:   0.000D+00 0.000D+00 0.177D+00 0.823D+00
 Coeff:     -0.435D-01 0.108D+00 0.376D+00 0.560D+00
 Gap=     0.317 Goal=   None    Shift=    0.000
 Gap=     0.212 Goal=   None    Shift=    0.000
 RMSDP=1.89D-04 MaxDP=8.59D-03 DE=-1.42D-02 OVMax= 1.73D-02

 Cycle   5  Pass 1  IDiag  1:
 RMSU=  1.26D-04    CP:  9.63D-01  1.14D+00  9.07D-01  7.37D-01
 E= -419.221056938489     Delta-E=       -0.004792621186 Rises=F Damp=F
 DIIS: error= 9.94D-04 at cycle   5 NSaved=   5.
 NSaved= 5 IEnMin= 5 EnMin= -419.221056938489     IErMin= 5 ErrMin= 9.94D-04
 ErrMax= 9.94D-04  0.00D+00 EMaxC= 1.00D-01 BMatC= 1.46D-03 BMatP= 2.51D-02
 IDIUse=3 WtCom= 9.90D-01 WtEn= 9.94D-03
 Coeff-Com: -0.833D-02 0.711D-02 0.148D+00 0.231D+00 0.622D+00
 Coeff-En:   0.000D+00 0.000D+00 0.000D+00 0.000D+00 0.100D+01
 Coeff:     -0.824D-02 0.704D-02 0.146D+00 0.229D+00 0.626D+00
 Gap=     0.317 Goal=   None    Shift=    0.000
 Gap=     0.215 Goal=   None    Shift=    0.000
 RMSDP=7.16D-05 MaxDP=3.84D-03 DE=-4.79D-03 OVMax= 1.95D-02

 Cycle   6  Pass 1  IDiag  1:
 RMSU=  6.20D-05    CP:  9.63D-01  1.14D+00  9.14D-01  7.89D-01  1.23D+00
 E= -419.221635751839     Delta-E=       -0.000578813350 Rises=F Damp=F
 DIIS: error= 7.64D-04 at cycle   6 NSaved=   6.
 NSaved= 6 IEnMin= 6 EnMin= -419.221635751839     IErMin= 6 ErrMin= 7.64D-04
 ErrMax= 7.64D-04  0.00D+00 EMaxC= 1.00D-01 BMatC= 8.67D-04 BMatP= 1.46D-03
 IDIUse=3 WtCom= 9.92D-01 WtEn= 7.64D-03
 Coeff-Com:  0.135D-01-0.377D-01-0.330D-01-0.114D+00 0.347D+00 0.825D+00
 Coeff-En:   0.000D+00 0.000D+00 0.000D+00 0.000D+00 0.000D+00 0.100D+01
 Coeff:      0.134D-01-0.374D-01-0.327D-01-0.113D+00 0.344D+00 0.826D+00
 Gap=     0.320 Goal=   None    Shift=    0.000
 Gap=     0.220 Goal=   None    Shift=    0.000
 RMSDP=7.48D-05 MaxDP=3.66D-03 DE=-5.79D-04 OVMax= 1.84D-02

 Cycle   7  Pass 1  IDiag  1:
 RMSU=  3.23D-05    CP:  9.63D-01  1.13D+00  9.33D-01  8.34D-01  1.68D+00
                    CP:  1.37D+00
 E= -419.222140064939     Delta-E=       -0.000504313100 Rises=F Damp=F
 DIIS: error= 4.78D-04 at cycle   7 NSaved=   7.
 NSaved= 7 IEnMin= 7 EnMin= -419.222140064939     IErMin= 7 ErrMin= 4.78D-04
 ErrMax= 4.78D-04  0.00D+00 EMaxC= 1.00D-01 BMatC= 2.64D-04 BMatP= 8.67D-04
 IDIUse=3 WtCom= 9.95D-01 WtEn= 4.78D-03
 Coeff-Com:  0.107D-01-0.179D-01-0.535D-01-0.174D+00-0.162D+00 0.163D+00
 Coeff-Com:  0.123D+01
 Coeff-En:   0.000D+00 0.000D+00 0.000D+00 0.000D+00 0.000D+00 0.000D+00
 Coeff-En:   0.100D+01
 Coeff:      0.107D-01-0.178D-01-0.532D-01-0.173D+00-0.162D+00 0.163D+00
 Coeff:      0.123D+01
 Gap=     0.321 Goal=   None    Shift=    0.000
 Gap=     0.224 Goal=   None    Shift=    0.000
 RMSDP=8.55D-05 MaxDP=4.23D-03 DE=-5.04D-04 OVMax= 2.26D-02

 Cycle   8  Pass 1  IDiag  1:
 RMSU=  2.29D-05    CP:  9.63D-01  1.11D+00  9.50D-01  8.67D-01  2.19D+00
                    CP:  2.03D+00  1.68D+00
 E= -419.222438314315     Delta-E=       -0.000298249376 Rises=F Damp=F
 DIIS: error= 1.63D-04 at cycle   8 NSaved=   8.
 NSaved= 8 IEnMin= 8 EnMin= -419.222438314315     IErMin= 8 ErrMin= 1.63D-04
 ErrMax= 1.63D-04  0.00D+00 EMaxC= 1.00D-01 BMatC= 5.43D-05 BMatP= 2.64D-04
 IDIUse=3 WtCom= 9.98D-01 WtEn= 1.63D-03
 Coeff-Com: -0.980D-03 0.493D-02 0.138D-01-0.332D-02-0.986D-01-0.196D+00
 Coeff-Com:  0.199D+00 0.108D+01
 Coeff-En:   0.000D+00 0.000D+00 0.000D+00 0.000D+00 0.000D+00 0.000D+00
 Coeff-En:   0.000D+00 0.100D+01
 Coeff:     -0.979D-03 0.493D-02 0.138D-01-0.331D-02-0.984D-01-0.196D+00
 Coeff:      0.198D+00 0.108D+01
 Gap=     0.322 Goal=   None    Shift=    0.000
 Gap=     0.226 Goal=   None    Shift=    0.000
 RMSDP=3.79D-05 MaxDP=1.71D-03 DE=-2.98D-04 OVMax= 8.63D-03

 Cycle   9  Pass 1  IDiag  1:
 RMSU=  1.15D-05    CP:  9.63D-01  1.11D+00  9.56D-01  8.75D-01  2.37D+00
                    CP:  2.32D+00  2.15D+00  1.57D+00
 E= -419.222498299789     Delta-E=       -0.000059985473 Rises=F Damp=F
 DIIS: error= 8.61D-05 at cycle   9 NSaved=   9.
 NSaved= 9 IEnMin= 9 EnMin= -419.222498299789     IErMin= 9 ErrMin= 8.61D-05
 ErrMax= 8.61D-05  0.00D+00 EMaxC= 1.00D-01 BMatC= 9.29D-06 BMatP= 5.43D-05
 IDIUse=1 WtCom= 1.00D+00 WtEn= 0.00D+00
 Coeff-Com: -0.233D-02 0.425D-02 0.189D-01 0.405D-01 0.303D-01-0.848D-01
 Coeff-Com: -0.275D+00 0.163D+00 0.111D+01
 Coeff:     -0.233D-02 0.425D-02 0.189D-01 0.405D-01 0.303D-01-0.848D-01
 Coeff:     -0.275D+00 0.163D+00 0.111D+01
 Gap=     0.322 Goal=   None    Shift=    0.000
 Gap=     0.226 Goal=   None    Shift=    0.000
 RMSDP=1.96D-05 MaxDP=8.10D-04 DE=-6.00D-05 OVMax= 5.06D-03

 Cycle  10  Pass 1  IDiag  1:
 RMSU=  5.65D-06    CP:  9.63D-01  1.11D+00  9.58D-01  8.77D-01  2.44D+00
                    CP:  2.44D+00  2.39D+00  2.04D+00  1.49D+00
 E= -419.222512935699     Delta-E=       -0.000014635910 Rises=F Damp=F
 DIIS: error= 4.60D-05 at cycle  10 NSaved=  10.
 NSaved=10 IEnMin=10 EnMin= -419.222512935699     IErMin=10 ErrMin= 4.60D-05
 ErrMax= 4.60D-05  0.00D+00 EMaxC= 1.00D-01 BMatC= 1.85D-06 BMatP= 9.29D-06
 IDIUse=1 WtCom= 1.00D+00 WtEn= 0.00D+00
 Coeff-Com:  0.204D-03-0.697D-03-0.271D-03 0.137D-02 0.144D-01 0.617D-02
 Coeff-Com: -0.260D-01-0.117D+00 0.579D-01 0.106D+01
 Coeff:      0.204D-03-0.697D-03-0.271D-03 0.137D-02 0.144D-01 0.617D-02
 Coeff:     -0.260D-01-0.117D+00 0.579D-01 0.106D+01
 Gap=     0.322 Goal=   None    Shift=    0.000
 Gap=     0.226 Goal=   None    Shift=    0.000
 RMSDP=8.39D-06 MaxDP=3.74D-04 DE=-1.46D-05 OVMax= 3.14D-03

 Cycle  11  Pass 1  IDiag  1:
 RMSU=  3.23D-06    CP:  9.63D-01  1.11D+00  9.60D-01  8.78D-01  2.47D+00
                    CP:  2.46D+00  2.45D+00  2.21D+00  1.78D+00  1.70D+00
 E= -419.222517169266     Delta-E=       -0.000004233567 Rises=F Damp=F
 DIIS: error= 3.66D-05 at cycle  11 NSaved=  11.
 NSaved=11 IEnMin=11 EnMin= -419.222517169266     IErMin=11 ErrMin= 3.66D-05
 ErrMax= 3.66D-05  0.00D+00 EMaxC= 1.00D-01 BMatC= 9.72D-07 BMatP= 1.85D-06
 IDIUse=1 WtCom= 1.00D+00 WtEn= 0.00D+00
 Coeff-Com:  0.677D-03-0.131D-02-0.458D-02-0.883D-02-0.421D-02 0.179D-01
 Coeff-Com:  0.680D-01-0.611D-01-0.299D+00 0.180D+00 0.111D+01
 Coeff:      0.677D-03-0.131D-02-0.458D-02-0.883D-02-0.421D-02 0.179D-01
 Coeff:      0.680D-01-0.611D-01-0.299D+00 0.180D+00 0.111D+01
 Gap=     0.322 Goal=   None    Shift=    0.000
 Gap=     0.226 Goal=   None    Shift=    0.000
 RMSDP=7.04D-06 MaxDP=3.63D-04 DE=-4.23D-06 OVMax= 3.08D-03

 Cycle  12  Pass 1  IDiag  1:
 RMSU=  1.79D-06    CP:  9.63D-01  1.11D+00  9.61D-01  8.77D-01  2.47D+00
                    CP:  2.47D+00  2.48D+00  2.32D+00  2.01D+00  2.45D+00
                    CP:  2.00D+00
 E= -419.222520338680     Delta-E=       -0.000003169414 Rises=F Damp=F
 DIIS: error= 2.90D-05 at cycle  12 NSaved=  12.
 NSaved=12 IEnMin=12 EnMin= -419.222520338680     IErMin=12 ErrMin= 2.90D-05
 ErrMax= 2.90D-05  0.00D+00 EMaxC= 1.00D-01 BMatC= 5.90D-07 BMatP= 9.72D-07
 IDIUse=1 WtCom= 1.00D+00 WtEn= 0.00D+00
 Coeff-Com: -0.706D-04 0.229D-03 0.269D-03 0.105D-02-0.620D-02-0.362D-02
 Coeff-Com:  0.149D-01 0.532D-01-0.470D-01-0.515D+00 0.312D-01 0.147D+01
 Coeff:     -0.706D-04 0.229D-03 0.269D-03 0.105D-02-0.620D-02-0.362D-02
 Coeff:      0.149D-01 0.532D-01-0.470D-01-0.515D+00 0.312D-01 0.147D+01
 Gap=     0.322 Goal=   None    Shift=    0.000
 Gap=     0.226 Goal=   None    Shift=    0.000
 RMSDP=8.61D-06 MaxDP=4.49D-04 DE=-3.17D-06 OVMax= 3.92D-03

 Cycle  13  Pass 1  IDiag  1:
 RMSU=  2.89D-06    CP:  9.63D-01  1.11D+00  9.61D-01  8.77D-01  2.48D+00
                    CP:  2.48D+00  2.50D+00  2.43D+00  2.24D+00  3.00D+00
                    CP:  3.00D+00  2.50D+00
 E= -419.222523444890     Delta-E=       -0.000003106210 Rises=F Damp=F
 DIIS: error= 2.52D-05 at cycle  13 NSaved=  13.
 NSaved=13 IEnMin=13 EnMin= -419.222523444890     IErMin=13 ErrMin= 2.52D-05
 ErrMax= 2.52D-05  0.00D+00 EMaxC= 1.00D-01 BMatC= 3.60D-07 BMatP= 5.90D-07
 IDIUse=1 WtCom= 1.00D+00 WtEn= 0.00D+00
 Coeff-Com: -0.348D-03 0.693D-03 0.269D-02 0.612D-02 0.134D-03-0.119D-01
 Coeff-Com: -0.363D-01 0.441D-01 0.169D+00-0.211D+00-0.739D+00 0.449D+00
 Coeff-Com:  0.133D+01
 Coeff:     -0.348D-03 0.693D-03 0.269D-02 0.612D-02 0.134D-03-0.119D-01
 Coeff:     -0.363D-01 0.441D-01 0.169D+00-0.211D+00-0.739D+00 0.449D+00
 Coeff:      0.133D+01
 Gap=     0.322 Goal=   None    Shift=    0.000
 Gap=     0.226 Goal=   None    Shift=    0.000
 RMSDP=8.89D-06 MaxDP=4.53D-04 DE=-3.11D-06 OVMax= 4.05D-03

 Cycle  14  Pass 1  IDiag  1:
 RMSU=  3.56D-06    CP:  9.63D-01  1.11D+00  9.62D-01  8.77D-01  2.49D+00
                    CP:  2.48D+00  2.52D+00  2.54D+00  2.46D+00  3.00D+00
                    CP:  3.00D+00  3.00D+00  3.00D+00
 E= -419.222525687276     Delta-E=       -0.000002242386 Rises=F Damp=F
 DIIS: error= 1.68D-05 at cycle  14 NSaved=  14.
 NSaved=14 IEnMin=14 EnMin= -419.222525687276     IErMin=14 ErrMin= 1.68D-05
 ErrMax= 1.68D-05  0.00D+00 EMaxC= 1.00D-01 BMatC= 2.23D-07 BMatP= 3.60D-07
 IDIUse=1 WtCom= 1.00D+00 WtEn= 0.00D+00
 Coeff-Com: -0.143D-03 0.209D-03 0.171D-02 0.369D-02 0.399D-02-0.689D-02
 Coeff-Com: -0.367D-01-0.845D-02 0.168D+00 0.259D+00-0.627D+00-0.811D+00
 Coeff-Com:  0.994D+00 0.106D+01
 Coeff:     -0.143D-03 0.209D-03 0.171D-02 0.369D-02 0.399D-02-0.689D-02
 Coeff:     -0.367D-01-0.845D-02 0.168D+00 0.259D+00-0.627D+00-0.811D+00
 Coeff:      0.994D+00 0.106D+01
 Gap=     0.322 Goal=   None    Shift=    0.000
 Gap=     0.226 Goal=   None    Shift=    0.000
 RMSDP=9.21D-06 MaxDP=4.60D-04 DE=-2.24D-06 OVMax= 4.17D-03

 Cycle  15  Pass 1  IDiag  1:
 RMSU=  5.68D-06    CP:  9.63D-01  1.11D+00  9.63D-01  8.77D-01  2.49D+00
                    CP:  2.49D+00  2.55D+00  2.64D+00  2.67D+00  3.00D+00
                    CP:  3.00D+00  3.00D+00  3.00D+00  2.76D+00
 E= -419.222527026819     Delta-E=       -0.000001339543 Rises=F Damp=F
 DIIS: error= 9.09D-06 at cycle  15 NSaved=  15.
 NSaved=15 IEnMin=15 EnMin= -419.222527026819     IErMin=15 ErrMin= 9.09D-06
 ErrMax= 9.09D-06  0.00D+00 EMaxC= 1.00D-01 BMatC= 4.88D-08 BMatP= 2.23D-07
 IDIUse=1 WtCom= 1.00D+00 WtEn= 0.00D+00
 Coeff-Com:  0.153D-03-0.303D-03-0.803D-03-0.197D-02 0.482D-03 0.390D-02
 Coeff-Com:  0.118D-01-0.182D-01-0.475D-01 0.119D+00 0.233D+00-0.267D+00
 Coeff-Com: -0.488D+00 0.127D+00 0.133D+01
 Coeff:      0.153D-03-0.303D-03-0.803D-03-0.197D-02 0.482D-03 0.390D-02
 Coeff:      0.118D-01-0.182D-01-0.475D-01 0.119D+00 0.233D+00-0.267D+00
 Coeff:     -0.488D+00 0.127D+00 0.133D+01
 Gap=     0.322 Goal=   None    Shift=    0.000
 Gap=     0.226 Goal=   None    Shift=    0.000
 RMSDP=5.07D-06 MaxDP=2.42D-04 DE=-1.34D-06 OVMax= 2.25D-03

 Cycle  16  Pass 1  IDiag  1:
 RMSU=  2.70D-06    CP:  9.63D-01  1.10D+00  9.63D-01  8.76D-01  2.49D+00
                    CP:  2.49D+00  2.56D+00  2.69D+00  2.78D+00  3.00D+00
                    CP:  3.00D+00  3.00D+00  3.00D+00  3.00D+00  1.56D+00
 E= -419.222527343837     Delta-E=       -0.000000317018 Rises=F Damp=F
 DIIS: error= 3.11D-06 at cycle  16 NSaved=  16.
 NSaved=16 IEnMin=16 EnMin= -419.222527343837     IErMin=16 ErrMin= 3.11D-06
 ErrMax= 3.11D-06  0.00D+00 EMaxC= 1.00D-01 BMatC= 9.51D-09 BMatP= 4.88D-08
 IDIUse=1 WtCom= 1.00D+00 WtEn= 0.00D+00
 Coeff-Com:  0.495D-04-0.891D-04-0.459D-03-0.105D-02-0.963D-03 0.261D-02
 Coeff-Com:  0.970D-02 0.765D-03-0.473D-01-0.586D-01 0.184D+00 0.202D+00
 Coeff-Com: -0.313D+00-0.284D+00 0.964D-01 0.121D+01
 Coeff:      0.495D-04-0.891D-04-0.459D-03-0.105D-02-0.963D-03 0.261D-02
 Coeff:      0.970D-02 0.765D-03-0.473D-01-0.586D-01 0.184D+00 0.202D+00
 Coeff:     -0.313D+00-0.284D+00 0.964D-01 0.121D+01
 Gap=     0.322 Goal=   None    Shift=    0.000
 Gap=     0.226 Goal=   None    Shift=    0.000
 RMSDP=1.88D-06 MaxDP=8.80D-05 DE=-3.17D-07 OVMax= 8.03D-04

 Cycle  17  Pass 1  IDiag  1:
 RMSU=  2.88D-07    CP:  9.63D-01  1.10D+00  9.63D-01  8.76D-01  2.49D+00
                    CP:  2.49D+00  2.56D+00  2.71D+00  2.82D+00  3.00D+00
                    CP:  3.00D+00  3.00D+00  3.00D+00  3.00D+00  1.75D+00
                    CP:  1.48D+00
 E= -419.222527381834     Delta-E=       -0.000000037997 Rises=F Damp=F
 DIIS: error= 1.01D-06 at cycle  17 NSaved=  17.
 NSaved=17 IEnMin=17 EnMin= -419.222527381834     IErMin=17 ErrMin= 1.01D-06
 ErrMax= 1.01D-06  0.00D+00 EMaxC= 1.00D-01 BMatC= 2.08D-09 BMatP= 9.51D-09
 IDIUse=1 WtCom= 1.00D+00 WtEn= 0.00D+00
 Coeff-Com: -0.129D-04 0.258D-04 0.335D-04 0.641D-04-0.350D-03-0.568D-05
 Coeff-Com: -0.334D-04 0.388D-02-0.385D-02-0.397D-01 0.143D-02 0.110D+00
 Coeff-Com:  0.150D-01-0.992D-01-0.226D+00 0.303D+00 0.935D+00
 Coeff:     -0.129D-04 0.258D-04 0.335D-04 0.641D-04-0.350D-03-0.568D-05
 Coeff:     -0.334D-04 0.388D-02-0.385D-02-0.397D-01 0.143D-02 0.110D+00
 Coeff:      0.150D-01-0.992D-01-0.226D+00 0.303D+00 0.935D+00
 Gap=     0.322 Goal=   None    Shift=    0.000
 Gap=     0.226 Goal=   None    Shift=    0.000
 RMSDP=3.51D-07 MaxDP=1.60D-05 DE=-3.80D-08 OVMax= 1.41D-04

 Cycle  18  Pass 1  IDiag  1:
 RMSU=  1.10D-07    CP:  9.63D-01  1.10D+00  9.63D-01  8.76D-01  2.49D+00
                    CP:  2.49D+00  2.56D+00  2.71D+00  2.83D+00  3.00D+00
                    CP:  3.00D+00  3.00D+00  3.00D+00  3.00D+00  1.79D+00
                    CP:  1.56D+00  1.32D+00
 E= -419.222527384433     Delta-E=       -0.000000002599 Rises=F Damp=F
 DIIS: error= 4.60D-07 at cycle  18 NSaved=  18.
 NSaved=18 IEnMin=18 EnMin= -419.222527384433     IErMin=18 ErrMin= 4.60D-07
 ErrMax= 4.60D-07  0.00D+00 EMaxC= 1.00D-01 BMatC= 4.68D-10 BMatP= 2.08D-09
 IDIUse=1 WtCom= 1.00D+00 WtEn= 0.00D+00
 Coeff-Com: -0.867D-05 0.161D-04 0.783D-04 0.139D-03 0.364D-04-0.558D-03
 Coeff-Com: -0.156D-02 0.897D-03 0.749D-02 0.183D-02-0.369D-01-0.114D-01
 Coeff-Com:  0.689D-01 0.310D-01-0.808D-01-0.173D+00 0.264D+00 0.929D+00
 Coeff:     -0.867D-05 0.161D-04 0.783D-04 0.139D-03 0.364D-04-0.558D-03
 Coeff:     -0.156D-02 0.897D-03 0.749D-02 0.183D-02-0.369D-01-0.114D-01
 Coeff:      0.689D-01 0.310D-01-0.808D-01-0.173D+00 0.264D+00 0.929D+00
 Gap=     0.322 Goal=   None    Shift=    0.000
 Gap=     0.226 Goal=   None    Shift=    0.000
 RMSDP=1.15D-07 MaxDP=4.19D-06 DE=-2.60D-09 OVMax= 3.79D-05

 Cycle  19  Pass 1  IDiag  1:
 RMSU=  4.64D-08    CP:  9.63D-01  1.10D+00  9.63D-01  8.76D-01  2.50D+00
                    CP:  2.49D+00  2.56D+00  2.71D+00  2.83D+00  3.00D+00
                    CP:  3.00D+00  3.00D+00  3.00D+00  3.00D+00  1.79D+00
                    CP:  1.58D+00  1.47D+00  1.33D+00
 E= -419.222527384867     Delta-E=       -0.000000000434 Rises=F Damp=F
 DIIS: error= 1.89D-07 at cycle  19 NSaved=  19.
 NSaved=19 IEnMin=19 EnMin= -419.222527384867     IErMin=19 ErrMin= 1.89D-07
 ErrMax= 1.89D-07  0.00D+00 EMaxC= 1.00D-01 BMatC= 5.80D-11 BMatP= 4.68D-10
 IDIUse=1 WtCom= 1.00D+00 WtEn= 0.00D+00
 Coeff-Com:  0.651D-05-0.126D-04-0.234D-04-0.591D-04 0.493D-04 0.787D-04
 Coeff-Com:  0.245D-03-0.100D-02 0.143D-03 0.874D-02-0.123D-03-0.225D-01
 Coeff-Com: -0.196D-02 0.207D-01 0.430D-01-0.673D-01-0.176D+00 0.405D-01
 Coeff-Com:  0.116D+01
 Coeff:      0.651D-05-0.126D-04-0.234D-04-0.591D-04 0.493D-04 0.787D-04
 Coeff:      0.245D-03-0.100D-02 0.143D-03 0.874D-02-0.123D-03-0.225D-01
 Coeff:     -0.196D-02 0.207D-01 0.430D-01-0.673D-01-0.176D+00 0.405D-01
 Coeff:      0.116D+01
 Gap=     0.322 Goal=   None    Shift=    0.000
 Gap=     0.226 Goal=   None    Shift=    0.000
 RMSDP=3.81D-08 MaxDP=1.88D-06 DE=-4.34D-10 OVMax= 5.45D-06

 Cycle  20  Pass 1  IDiag  1:
 RMSU=  2.09D-08    CP:  9.63D-01  1.10D+00  9.63D-01  8.76D-01  2.50D+00
                    CP:  2.49D+00  2.56D+00  2.71D+00  2.83D+00  3.00D+00
                    CP:  3.00D+00  3.00D+00  3.00D+00  3.00D+00  1.79D+00
                    CP:  1.58D+00  1.51D+00  1.50D+00  1.38D+00
 E= -419.222527384937     Delta-E=       -0.000000000070 Rises=F Damp=F
 DIIS: error= 7.35D-08 at cycle  20 NSaved=  20.
 NSaved=20 IEnMin=20 EnMin= -419.222527384937     IErMin=20 ErrMin= 7.35D-08
 ErrMax= 7.35D-08  0.00D+00 EMaxC= 1.00D-01 BMatC= 6.57D-12 BMatP= 5.80D-11
 IDIUse=1 WtCom= 1.00D+00 WtEn= 0.00D+00
 Coeff-Com: -0.338D-06 0.704D-06-0.214D-05 0.407D-06-0.121D-04 0.614D-04
 Coeff-Com:  0.123D-03 0.547D-04-0.750D-03-0.143D-02 0.379D-02 0.452D-02
 Coeff-Com: -0.721D-02-0.655D-02 0.172D-02 0.317D-01-0.437D-02-0.122D+00
 Coeff-Com: -0.186D+00 0.129D+01
 Coeff:     -0.338D-06 0.704D-06-0.214D-05 0.407D-06-0.121D-04 0.614D-04
 Coeff:      0.123D-03 0.547D-04-0.750D-03-0.143D-02 0.379D-02 0.452D-02
 Coeff:     -0.721D-02-0.655D-02 0.172D-02 0.317D-01-0.437D-02-0.122D+00
 Coeff:     -0.186D+00 0.129D+01
 Gap=     0.322 Goal=   None    Shift=    0.000
 Gap=     0.226 Goal=   None    Shift=    0.000
 RMSDP=1.59D-08 MaxDP=7.97D-07 DE=-6.98D-11 OVMax= 2.75D-06

 Cycle  21  Pass 1  IDiag  1:
 Restarting incremental Fock formation.
 E= -419.222527384948     Delta-E=       -0.000000000011 Rises=F Damp=F
 DIIS: error= 3.20D-08 at cycle  21 NSaved=  20.
 NSaved=20 IEnMin=20 EnMin= -419.222527384948     IErMin=20 ErrMin= 3.20D-08
 ErrMax= 3.20D-08  0.00D+00 EMaxC= 1.00D-01 BMatC= 8.21D-13 BMatP= 6.57D-12
 IDIUse=1 WtCom= 1.00D+00 WtEn= 0.00D+00
 Coeff-Com: -0.477D-07-0.113D-05-0.211D-05-0.551D-05-0.125D-04 0.343D-05
 Coeff-Com:  0.694D-04-0.137D-04-0.513D-03-0.211D-03 0.123D-02 0.665D-03
 Coeff-Com: -0.944D-03-0.311D-02 0.210D-02 0.154D-01 0.907D-02-0.820D-01
 Coeff-Com: -0.179D+00 0.124D+01
 Coeff:     -0.477D-07-0.113D-05-0.211D-05-0.551D-05-0.125D-04 0.343D-05
 Coeff:      0.694D-04-0.137D-04-0.513D-03-0.211D-03 0.123D-02 0.665D-03
 Coeff:     -0.944D-03-0.311D-02 0.210D-02 0.154D-01 0.907D-02-0.820D-01
 Coeff:     -0.179D+00 0.124D+01
 Gap=     0.322 Goal=   None    Shift=    0.000
 Gap=     0.226 Goal=   None    Shift=    0.000
 RMSDP=4.87D-09 MaxDP=2.84D-07 DE=-1.11D-11 OVMax= 7.51D-07

 SCF Done:  E(UM062X) =  -419.222527385     A.U. after   21 cycles
            NFock= 21  Conv=0.49D-08     -V/T= 2.0031
 <Sx>= 0.0000 <Sy>= 0.0000 <Sz>= 0.5000 <S**2>= 0.7627 S= 0.5063
 <L.S>= 0.000000000000E+00
 KE= 4.179250481211D+02 PE=-1.609796066418D+03 EE= 4.606509096443D+02
 Annihilation of the first spin contaminant:
 S**2 before annihilation     0.7627,   after     0.7501
 Leave Link  502 at Thu Apr 11 10:08:56 2019, MaxMem=   671088640 cpu:            2147.7 elap:             107.5
 (Enter /shared/centos7/gaussian/g16/l801.exe)
 DoSCS=F DFT=T ScalE2(SS,OS)=  1.000000  1.000000
 Range of M.O.s used for correlation:     1   301
 NBasis=   301 NAE=    29 NBE=    28 NFC=     0 NFV=     0
 NROrb=    301 NOA=    29 NOB=    28 NVA=   272 NVB=   273

 **** Warning!!: The largest alpha MO coefficient is  0.35899460D+02


 **** Warning!!: The largest beta MO coefficient is  0.36360867D+02

 Leave Link  801 at Thu Apr 11 10:08:56 2019, MaxMem=   671088640 cpu:               0.6 elap:               0.1
 (Enter /shared/centos7/gaussian/g16/l1101.exe)
 Using compressed storage, NAtomX=    14.
 Will process     15 centers per pass.
 Leave Link 1101 at Thu Apr 11 10:08:57 2019, MaxMem=   671088640 cpu:               8.6 elap:               0.5
 (Enter /shared/centos7/gaussian/g16/l1102.exe)
 Symmetrizing basis deriv contribution to polar:
 IMax=3 JMax=2 DiffMx= 0.00D+00
 Leave Link 1102 at Thu Apr 11 10:08:57 2019, MaxMem=   671088640 cpu:               0.6 elap:               0.1
 (Enter /shared/centos7/gaussian/g16/l1110.exe)
 Forming Gx(P) for the SCF density, NAtomX=    14.
 Integral derivatives from FoFJK, PRISM(SPDF).
 Do as many integral derivatives as possible in FoFJK.
 G2DrvN: MDV=     671087496.
 G2DrvN: will do    15 centers at a time, making    1 passes.
 Calling FoFCou, ICntrl=  3107 FMM=F I1Cent=   0 AccDes= 0.00D+00.
 FoFJK:  IHMeth= 1 ICntrl=    3107 DoSepK=F KAlg= 0 I1Cent=           0 FoldK=F
 IRaf=         0 NMat=       1 IRICut=       1 DoRegI=T DoRafI=F ISym2E= 0 IDoP0=0 IntGTp=1.
 FoFCou: FMM=F IPFlag=           0 FMFlag=      100000 FMFlg1=           0
         NFxFlg=           0 DoJE=F BraDBF=F KetDBF=F FulRan=T
         wScrn=  0.000000 ICntrl=      3107 IOpCl=  1 I1Cent=           0 NGrid=           0
         NMat0=    1 NMatS0=      1 NMatT0=    0 NMatD0=    1 NMtDS0=    0 NMtDT0=    0
 Symmetry not used in FoFCou.
 End of G2Drv F.D. properties file   721 does not exist.
 End of G2Drv F.D. properties file   722 does not exist.
 End of G2Drv F.D. properties file   788 does not exist.
 Leave Link 1110 at Thu Apr 11 10:11:13 2019, MaxMem=   671088640 cpu:            2727.6 elap:             136.4
 (Enter /shared/centos7/gaussian/g16/l1002.exe)
 Minotr:  UHF open shell wavefunction.
          IDoAtm=11111111111111
          Direct CPHF calculation.
          Differentiating once with respect to nuclear coordinates.
          Requested convergence is 1.0D-08 RMS, and 1.0D-07 maximum.
          Secondary convergence is 1.0D-12 RMS, and 1.0D-12 maximum.
          NewPWx=T KeepS1=F KeepF1=F KeepIn=T MapXYZ=F SortEE=F KeepMc=T.
         4271 words used for storage of precomputed grid.
 Two-electron integrals replicated using symmetry.
          MDV=     671088640 using IRadAn=       1.
          Solving linear equations simultaneously, MaxMat=     380.
 FoF2E skips out because all densities are zero.
 CalDSu exits because no D1Ps are significant.
 FoFJK:  IHMeth= 1 ICntrl=       0 DoSepK=F KAlg= 0 I1Cent=           0 FoldK=F
 IRaf= 940000000 NMat=      42 IRICut=     105 DoRegI=T DoRafI=T ISym2E= 2 IDoP0=3 IntGTp=3.
 FoFCou: FMM=F IPFlag=           0 FMFlag=      100000 FMFlg1=           0
         NFxFlg=           0 DoJE=F BraDBF=F KetDBF=F FulRan=T
         wScrn=  0.000000 ICntrl=         0 IOpCl=  1 I1Cent=           0 NGrid=           0
         NMat0=   42 NMatS0=     42 NMatT0=    0 NMatD0=   42 NMtDS0=    0 NMtDT0=    0
 Integrals replicated using symmetry in FoFCou.
 Raff kept on since  92.12% of shell-pairs survive, threshold=   0.20 IRatSp=92.
          There are    45 degrees of freedom in the 1st order CPHF.  IDoFFX=6 NUNeed=     0.
     39 vectors produced by pass  0 Test12= 3.45D-14 2.22D-09 XBig12= 1.55D-01 1.00D-01.
 AX will form    39 AO Fock derivatives at one time.
     39 vectors produced by pass  1 Test12= 3.45D-14 2.22D-09 XBig12= 4.23D-02 5.16D-02.
     39 vectors produced by pass  2 Test12= 3.45D-14 2.22D-09 XBig12= 2.74D-03 1.12D-02.
     39 vectors produced by pass  3 Test12= 3.45D-14 2.22D-09 XBig12= 4.57D-05 1.09D-03.
     39 vectors produced by pass  4 Test12= 3.45D-14 2.22D-09 XBig12= 6.86D-07 1.61D-04.
     39 vectors produced by pass  5 Test12= 3.45D-14 2.22D-09 XBig12= 8.23D-09 1.21D-05.
     39 vectors produced by pass  6 Test12= 3.45D-14 2.22D-09 XBig12= 8.58D-11 6.40D-07.
     25 vectors produced by pass  7 Test12= 3.45D-14 2.22D-09 XBig12= 8.38D-13 8.23D-08.
      3 vectors produced by pass  8 Test12= 3.45D-14 2.22D-09 XBig12= 6.56D-15 7.57D-09.
 InvSVY:  IOpt=1 It=  1 EMax= 1.55D-15
 Solved reduced A of dimension   301 with    39 vectors.
 End of Minotr F.D. properties file   721 does not exist.
 End of Minotr F.D. properties file   722 does not exist.
 End of Minotr F.D. properties file   788 does not exist.
 Leave Link 1002 at Thu Apr 11 10:15:11 2019, MaxMem=   671088640 cpu:            4744.8 elap:             237.3
 (Enter /shared/centos7/gaussian/g16/l601.exe)
 Copying SCF densities to generalized density rwf, IOpCl= 1 IROHF=0.

 **********************************************************************

            Population analysis using the SCF density.

 **********************************************************************

 Orbital symmetries:
 Alpha Orbitals:
       Occupied  (A) (A) (A) (A) (A) (A) (A) (A) (A) (A) (A) (A)
                 (A) (A) (A) (A) (A) (A) (A) (A) (A) (A) (A) (A)
                 (A) (A) (A) (A) (A)
       Virtual   (A) (A) (A) (A) (A) (A) (A) (A) (A) (A) (A) (A)
                 (A) (A) (A) (A) (A) (A) (A) (A) (A) (A) (A) (A)
                 (A) (A) (A) (A) (A) (A) (A) (A) (A) (A) (A) (A)
                 (A) (A) (A) (A) (A) (A) (A) (A) (A) (A) (A) (A)
                 (A) (A) (A) (A) (A) (A) (A) (A) (A) (A) (A) (A)
                 (A) (A) (A) (A) (A) (A) (A) (A) (A) (A) (A) (A)
                 (A) (A) (A) (A) (A) (A) (A) (A) (A) (A) (A) (A)
                 (A) (A) (A) (A) (A) (A) (A) (A) (A) (A) (A) (A)
                 (A) (A) (A) (A) (A) (A) (A) (A) (A) (A) (A) (A)
                 (A) (A) (A) (A) (A) (A) (A) (A) (A) (A) (A) (A)
                 (A) (A) (A) (A) (A) (A) (A) (A) (A) (A) (A) (A)
                 (A) (A) (A) (A) (A) (A) (A) (A) (A) (A) (A) (A)
                 (A) (A) (A) (A) (A) (A) (A) (A) (A) (A) (A) (A)
                 (A) (A) (A) (A) (A) (A) (A) (A) (A) (A) (A) (A)
                 (A) (A) (A) (A) (A) (A) (A) (A) (A) (A) (A) (A)
                 (A) (A) (A) (A) (A) (A) (A) (A) (A) (A) (A) (A)
                 (A) (A) (A) (A) (A) (A) (A) (A) (A) (A) (A) (A)
                 (A) (A) (A) (A) (A) (A) (A) (A) (A) (A) (A) (A)
                 (A) (A) (A) (A) (A) (A) (A) (A) (A) (A) (A) (A)
                 (A) (A) (A) (A) (A) (A) (A) (A) (A) (A) (A) (A)
                 (A) (A) (A) (A) (A) (A) (A) (A) (A) (A) (A) (A)
                 (A) (A) (A) (A) (A) (A) (A) (A) (A) (A) (A) (A)
                 (A) (A) (A) (A) (A) (A) (A) (A)
 Beta  Orbitals:
       Occupied  (A) (A) (A) (A) (A) (A) (A) (A) (A) (A) (A) (A)
                 (A) (A) (A) (A) (A) (A) (A) (A) (A) (A) (A) (A)
                 (A) (A) (A) (A)
       Virtual   (A) (A) (A) (A) (A) (A) (A) (A) (A) (A) (A) (A)
                 (A) (A) (A) (A) (A) (A) (A) (A) (A) (A) (A) (A)
                 (A) (A) (A) (A) (A) (A) (A) (A) (A) (A) (A) (A)
                 (A) (A) (A) (A) (A) (A) (A) (A) (A) (A) (A) (A)
                 (A) (A) (A) (A) (A) (A) (A) (A) (A) (A) (A) (A)
                 (A) (A) (A) (A) (A) (A) (A) (A) (A) (A) (A) (A)
                 (A) (A) (A) (A) (A) (A) (A) (A) (A) (A) (A) (A)
                 (A) (A) (A) (A) (A) (A) (A) (A) (A) (A) (A) (A)
                 (A) (A) (A) (A) (A) (A) (A) (A) (A) (A) (A) (A)
                 (A) (A) (A) (A) (A) (A) (A) (A) (A) (A) (A) (A)
                 (A) (A) (A) (A) (A) (A) (A) (A) (A) (A) (A) (A)
                 (A) (A) (A) (A) (A) (A) (A) (A) (A) (A) (A) (A)
                 (A) (A) (A) (A) (A) (A) (A) (A) (A) (A) (A) (A)
                 (A) (A) (A) (A) (A) (A) (A) (A) (A) (A) (A) (A)
                 (A) (A) (A) (A) (A) (A) (A) (A) (A) (A) (A) (A)
                 (A) (A) (A) (A) (A) (A) (A) (A) (A) (A) (A) (A)
                 (A) (A) (A) (A) (A) (A) (A) (A) (A) (A) (A) (A)
                 (A) (A) (A) (A) (A) (A) (A) (A) (A) (A) (A) (A)
                 (A) (A) (A) (A) (A) (A) (A) (A) (A) (A) (A) (A)
                 (A) (A) (A) (A) (A) (A) (A) (A) (A) (A) (A) (A)
                 (A) (A) (A) (A) (A) (A) (A) (A) (A) (A) (A) (A)
                 (A) (A) (A) (A) (A) (A) (A) (A) (A) (A) (A) (A)
                 (A) (A) (A) (A) (A) (A) (A) (A) (A)
 The electronic state is 2-A.
 Alpha  occ. eigenvalues --  -19.69029 -19.68919 -19.67257 -19.66582 -10.67982
 Alpha  occ. eigenvalues --  -10.62741 -10.55545  -1.26204  -1.24706  -1.18095
 Alpha  occ. eigenvalues --   -1.01010  -0.87791  -0.76586  -0.70135  -0.62081
 Alpha  occ. eigenvalues --   -0.60388  -0.59738  -0.58475  -0.55940  -0.54917
 Alpha  occ. eigenvalues --   -0.51882  -0.50563  -0.48333  -0.47468  -0.45282
 Alpha  occ. eigenvalues --   -0.40746  -0.37377  -0.36945  -0.34002
 Alpha virt. eigenvalues --   -0.01813   0.01504   0.01893   0.03515   0.04307
 Alpha virt. eigenvalues --    0.04997   0.06789   0.06892   0.07915   0.08698
 Alpha virt. eigenvalues --    0.10095   0.10540   0.11634   0.14047   0.14788
 Alpha virt. eigenvalues --    0.16687   0.17112   0.18453   0.19576   0.19791
 Alpha virt. eigenvalues --    0.20397   0.20607   0.22477   0.23466   0.24559
 Alpha virt. eigenvalues --    0.24996   0.26069   0.26925   0.27972   0.29035
 Alpha virt. eigenvalues --    0.29410   0.31175   0.31594   0.33084   0.34014
 Alpha virt. eigenvalues --    0.35065   0.35968   0.36645   0.38516   0.41378
 Alpha virt. eigenvalues --    0.42274   0.44122   0.46179   0.49447   0.51477
 Alpha virt. eigenvalues --    0.52812   0.53916   0.56056   0.57029   0.57260
 Alpha virt. eigenvalues --    0.60143   0.60745   0.61767   0.63428   0.65457
 Alpha virt. eigenvalues --    0.66446   0.68313   0.69405   0.71820   0.73139
 Alpha virt. eigenvalues --    0.77395   0.78190   0.79336   0.82428   0.83618
 Alpha virt. eigenvalues --    0.86725   0.88497   0.90323   0.93477   0.95361
 Alpha virt. eigenvalues --    0.97043   0.98121   0.99836   1.02298   1.04609
 Alpha virt. eigenvalues --    1.06651   1.08718   1.10505   1.10697   1.11817
 Alpha virt. eigenvalues --    1.12068   1.14252   1.14776   1.16159   1.16312
 Alpha virt. eigenvalues --    1.18391   1.20412   1.21633   1.22443   1.25482
 Alpha virt. eigenvalues --    1.26088   1.29270   1.31573   1.34948   1.35877
 Alpha virt. eigenvalues --    1.36750   1.38218   1.42885   1.43464   1.45492
 Alpha virt. eigenvalues --    1.47416   1.50261   1.51569   1.53565   1.55136
 Alpha virt. eigenvalues --    1.56129   1.58619   1.59750   1.61610   1.62688
 Alpha virt. eigenvalues --    1.64351   1.65602   1.70987   1.72992   1.75582
 Alpha virt. eigenvalues --    1.80137   1.83730   1.86606   1.92676   1.99252
 Alpha virt. eigenvalues --    2.04904   2.09902   2.14898   2.17195   2.19334
 Alpha virt. eigenvalues --    2.26088   2.30417   2.32505   2.40629   2.42354
 Alpha virt. eigenvalues --    2.47188   2.52259   2.52895   2.58099   2.60260
 Alpha virt. eigenvalues --    2.61503   2.66302   2.71594   2.73289   2.76377
 Alpha virt. eigenvalues --    2.82601   2.83611   2.87112   2.88508   2.92135
 Alpha virt. eigenvalues --    2.96783   3.00296   3.01655   3.04656   3.05156
 Alpha virt. eigenvalues --    3.09453   3.15532   3.18672   3.21886   3.23516
 Alpha virt. eigenvalues --    3.26900   3.30184   3.33260   3.34986   3.38795
 Alpha virt. eigenvalues --    3.42067   3.45911   3.51051   3.54368   3.57208
 Alpha virt. eigenvalues --    3.58044   3.61593   3.62490   3.65711   3.70384
 Alpha virt. eigenvalues --    3.71265   3.72426   3.73519   3.76231   3.80646
 Alpha virt. eigenvalues --    3.84505   3.87980   3.89207   3.92374   3.93846
 Alpha virt. eigenvalues --    3.96877   4.03108   4.06603   4.11581   4.13012
 Alpha virt. eigenvalues --    4.14896   4.17366   4.20148   4.22739   4.24378
 Alpha virt. eigenvalues --    4.29632   4.37013   4.40262   4.43517   4.46460
 Alpha virt. eigenvalues --    4.49813   4.53208   4.54429   4.56764   4.58819
 Alpha virt. eigenvalues --    4.61126   4.67025   4.71110   4.82339   4.91025
 Alpha virt. eigenvalues --    5.00527   5.03161   5.05077   5.07694   5.14194
 Alpha virt. eigenvalues --    5.14790   5.17025   5.18370   5.19613   5.21469
 Alpha virt. eigenvalues --    5.23280   5.26047   5.27974   5.28880   5.32791
 Alpha virt. eigenvalues --    5.33462   5.34851   5.40296   5.44628   5.46470
 Alpha virt. eigenvalues --    5.48563   5.50702   5.53000   5.55407   5.57780
 Alpha virt. eigenvalues --    5.60387   5.63520   5.68065   5.85261   5.96428
 Alpha virt. eigenvalues --    5.99025   5.99638   6.08990   6.34666   6.64318
 Alpha virt. eigenvalues --    6.72095   6.76623   6.78996   6.80587   6.84250
 Alpha virt. eigenvalues --    6.86079   6.87525   6.90831   6.95420   7.00468
 Alpha virt. eigenvalues --    7.07234   7.12180   7.16780   7.17612   7.25150
 Alpha virt. eigenvalues --    7.28061   7.29312   7.33199   7.34882   7.44359
 Alpha virt. eigenvalues --    7.48953   7.58931   7.60729   7.71000   7.96178
 Alpha virt. eigenvalues --   24.33747  24.51032  24.58805  49.98692  50.01527
 Alpha virt. eigenvalues --   50.15323  50.25611
  Beta  occ. eigenvalues --  -19.69007 -19.68617 -19.67261 -19.65392 -10.67779
  Beta  occ. eigenvalues --  -10.62766 -10.55490  -1.26173  -1.23799  -1.14393
  Beta  occ. eigenvalues --   -1.00990  -0.86555  -0.74862  -0.69236  -0.62016
  Beta  occ. eigenvalues --   -0.59721  -0.58503  -0.56681  -0.54782  -0.53551
  Beta  occ. eigenvalues --   -0.51767  -0.49379  -0.47544  -0.46501  -0.40641
  Beta  occ. eigenvalues --   -0.37234  -0.36768  -0.35283
  Beta virt. eigenvalues --   -0.12676  -0.00989   0.01490   0.01931   0.03531
  Beta virt. eigenvalues --    0.04300   0.05032   0.06859   0.06891   0.07877
  Beta virt. eigenvalues --    0.08728   0.10130   0.10591   0.11855   0.13930
  Beta virt. eigenvalues --    0.14712   0.16749   0.17327   0.18407   0.19739
  Beta virt. eigenvalues --    0.19955   0.20483   0.20994   0.22587   0.23535
  Beta virt. eigenvalues --    0.24844   0.24955   0.26111   0.27105   0.28008
  Beta virt. eigenvalues --    0.29079   0.29504   0.31329   0.31653   0.33263
  Beta virt. eigenvalues --    0.34169   0.35112   0.36135   0.36744   0.38850
  Beta virt. eigenvalues --    0.41416   0.42103   0.44227   0.46372   0.49579
  Beta virt. eigenvalues --    0.51609   0.52848   0.53886   0.56167   0.57110
  Beta virt. eigenvalues --    0.57273   0.60241   0.61051   0.62054   0.63675
  Beta virt. eigenvalues --    0.65549   0.66423   0.68384   0.69605   0.71917
  Beta virt. eigenvalues --    0.73316   0.77487   0.78301   0.79373   0.82449
  Beta virt. eigenvalues --    0.83696   0.86778   0.88605   0.90344   0.93613
  Beta virt. eigenvalues --    0.95544   0.97089   0.98116   0.99940   1.02411
  Beta virt. eigenvalues --    1.04701   1.06780   1.08748   1.10639   1.11067
  Beta virt. eigenvalues --    1.12214   1.12452   1.14393   1.15044   1.16245
  Beta virt. eigenvalues --    1.16589   1.18800   1.20776   1.21780   1.22479
  Beta virt. eigenvalues --    1.25963   1.26140   1.29404   1.31654   1.35059
  Beta virt. eigenvalues --    1.36241   1.36886   1.38729   1.43096   1.43841
  Beta virt. eigenvalues --    1.45674   1.47457   1.50439   1.51719   1.53732
  Beta virt. eigenvalues --    1.55304   1.56259   1.58902   1.60019   1.61681
  Beta virt. eigenvalues --    1.62809   1.64968   1.65754   1.71396   1.73467
  Beta virt. eigenvalues --    1.77753   1.80596   1.84767   1.86886   1.92715
  Beta virt. eigenvalues --    1.99739   2.05669   2.10407   2.15554   2.17455
  Beta virt. eigenvalues --    2.19479   2.26306   2.30634   2.32655   2.40875
  Beta virt. eigenvalues --    2.42957   2.47436   2.52554   2.53097   2.58177
  Beta virt. eigenvalues --    2.60757   2.61687   2.66875   2.71687   2.73416
  Beta virt. eigenvalues --    2.76578   2.82656   2.84325   2.87260   2.88694
  Beta virt. eigenvalues --    2.92506   2.96910   3.00521   3.01949   3.04625
  Beta virt. eigenvalues --    3.05346   3.09896   3.16049   3.19004   3.22154
  Beta virt. eigenvalues --    3.23716   3.27695   3.30414   3.33581   3.35425
  Beta virt. eigenvalues --    3.39300   3.42503   3.45881   3.51206   3.54795
  Beta virt. eigenvalues --    3.57479   3.58448   3.61724   3.62776   3.65982
  Beta virt. eigenvalues --    3.70435   3.71421   3.72558   3.73548   3.76323
  Beta virt. eigenvalues --    3.80921   3.84901   3.88115   3.89635   3.92485
  Beta virt. eigenvalues --    3.94022   3.97082   4.03191   4.06876   4.11840
  Beta virt. eigenvalues --    4.13205   4.14996   4.17419   4.20288   4.22952
  Beta virt. eigenvalues --    4.24536   4.29629   4.36960   4.40250   4.43614
  Beta virt. eigenvalues --    4.46669   4.50065   4.53262   4.54445   4.56863
  Beta virt. eigenvalues --    4.58894   4.61167   4.67038   4.70864   4.82339
  Beta virt. eigenvalues --    4.91047   5.01203   5.04567   5.05585   5.10827
  Beta virt. eigenvalues --    5.14607   5.15447   5.17454   5.19895   5.21381
  Beta virt. eigenvalues --    5.21508   5.24821   5.26548   5.28669   5.29326
  Beta virt. eigenvalues --    5.33474   5.34568   5.36491   5.41651   5.45141
  Beta virt. eigenvalues --    5.46604   5.48887   5.51029   5.53678   5.55484
  Beta virt. eigenvalues --    5.58601   5.60746   5.63831   5.68088   5.85851
  Beta virt. eigenvalues --    5.98957   5.99042   6.00316   6.09751   6.34684
  Beta virt. eigenvalues --    6.64769   6.72121   6.78400   6.81044   6.82092
  Beta virt. eigenvalues --    6.84673   6.88421   6.90210   6.94170   6.98812
  Beta virt. eigenvalues --    7.03506   7.07674   7.13494   7.18566   7.18797
  Beta virt. eigenvalues --    7.25178   7.29139   7.34754   7.35821   7.37819
  Beta virt. eigenvalues --    7.44406   7.49877   7.59135   7.63904   7.71015
  Beta virt. eigenvalues --    7.96174  24.33792  24.50919  24.59044  49.98690
  Beta virt. eigenvalues --   50.01525  50.14638  50.25365
          Condensed to atoms (all electrons):
               1          2          3          4          5          6
     1  O    7.969834   0.000763  -0.000067  -0.000064  -0.035874   0.340462
     2  O    0.000763   8.193635  -0.030404   0.022206   0.278716  -0.080290
     3  O   -0.000067  -0.030404   7.966535   0.115820  -0.010912   0.001163
     4  O   -0.000064   0.022206   0.115820   8.062258  -0.011107   0.008796
     5  C   -0.035874   0.278716  -0.010912  -0.011107   5.381025   0.192859
     6  C    0.340462  -0.080290   0.001163   0.008796   0.192859   5.174407
     7  C   -0.022715  -0.083443   0.018061  -0.003525  -0.095188  -0.032997
     8  H    0.006916  -0.040582  -0.000554   0.000375   0.442518  -0.070248
     9  H   -0.000189  -0.001396  -0.029714   0.216277   0.001821   0.001422
    10  H   -0.021552  -0.006381  -0.002153  -0.003947   0.005870   0.333975
    11  H    0.001263  -0.010870  -0.004744   0.004718   0.020477  -0.031161
    12  H    0.000331   0.009076   0.001421  -0.000535  -0.041696  -0.007170
    13  H   -0.000807  -0.004460  -0.002356   0.000936  -0.045615   0.023674
    14  H    0.000049   0.024637   0.269082  -0.082696   0.018796  -0.006686
               7          8          9         10         11         12
     1  O   -0.022715   0.006916  -0.000189  -0.021552   0.001263   0.000331
     2  O   -0.083443  -0.040582  -0.001396  -0.006381  -0.010870   0.009076
     3  O    0.018061  -0.000554  -0.029714  -0.002153  -0.004744   0.001421
     4  O   -0.003525   0.000375   0.216277  -0.003947   0.004718  -0.000535
     5  C   -0.095188   0.442518   0.001821   0.005870   0.020477  -0.041696
     6  C   -0.032997  -0.070248   0.001422   0.333975  -0.031161  -0.007170
     7  C    5.436136   0.002111   0.000762   0.010826   0.392326   0.427938
     8  H    0.002111   0.488515  -0.000006   0.002439   0.003282  -0.003276
     9  H    0.000762  -0.000006   0.517945   0.000131   0.000286   0.000018
    10  H    0.010826   0.002439   0.000131   0.448672   0.000041   0.000687
    11  H    0.392326   0.003282   0.000286   0.000041   0.473340  -0.031593
    12  H    0.427938  -0.003276   0.000018   0.000687  -0.031593   0.513140
    13  H    0.403087  -0.003801  -0.000049  -0.000710  -0.023736  -0.021175
    14  H   -0.000063  -0.000004   0.005046   0.002113   0.003686  -0.000621
              13         14
     1  O   -0.000807   0.000049
     2  O   -0.004460   0.024637
     3  O   -0.002356   0.269082
     4  O    0.000936  -0.082696
     5  C   -0.045615   0.018796
     6  C    0.023674  -0.006686
     7  C    0.403087  -0.000063
     8  H   -0.003801  -0.000004
     9  H   -0.000049   0.005046
    10  H   -0.000710   0.002113
    11  H   -0.023736   0.003686
    12  H   -0.021175  -0.000621
    13  H    0.512571   0.000053
    14  H    0.000053   0.441635
          Atomic-Atomic Spin Densities.
               1          2          3          4          5          6
     1  O    0.178351   0.007148  -0.000070   0.000279  -0.014095  -0.072284
     2  O    0.007148   0.785179   0.005453  -0.001225  -0.089596  -0.036317
     3  O   -0.000070   0.005453  -0.004014   0.000027   0.003732  -0.001144
     4  O    0.000279  -0.001225   0.000027   0.004085  -0.002251  -0.000074
     5  C   -0.014095  -0.089596   0.003732  -0.002251   0.041762   0.076366
     6  C   -0.072284  -0.036317  -0.001144  -0.000074   0.076366   0.208352
     7  C    0.010871   0.002181  -0.002600   0.002674  -0.012380  -0.038104
     8  H    0.006391   0.002000  -0.000032   0.000043  -0.007210  -0.010166
     9  H    0.000006  -0.000059   0.000116   0.001268   0.000154   0.000139
    10  H    0.002059   0.009225  -0.000278  -0.000816  -0.004978  -0.005098
    11  H    0.000255  -0.000146  -0.000289  -0.000023   0.001429  -0.002902
    12  H   -0.000615   0.000082   0.000055  -0.000035  -0.000882   0.002403
    13  H   -0.000409   0.004343   0.000048  -0.000054   0.002555   0.002913
    14  H    0.000017  -0.010511   0.001723   0.000686  -0.001206   0.001468
               7          8          9         10         11         12
     1  O    0.010871   0.006391   0.000006   0.002059   0.000255  -0.000615
     2  O    0.002181   0.002000  -0.000059   0.009225  -0.000146   0.000082
     3  O   -0.002600  -0.000032   0.000116  -0.000278  -0.000289   0.000055
     4  O    0.002674   0.000043   0.001268  -0.000816  -0.000023  -0.000035
     5  C   -0.012380  -0.007210   0.000154  -0.004978   0.001429  -0.000882
     6  C   -0.038104  -0.010166   0.000139  -0.005098  -0.002902   0.002403
     7  C    0.076902   0.012166  -0.000291   0.007706   0.000900  -0.001012
     8  H    0.012166   0.005165  -0.000002   0.000598   0.000260  -0.000552
     9  H   -0.000291  -0.000002  -0.000635  -0.000225  -0.000006  -0.000000
    10  H    0.007706   0.000598  -0.000225   0.013488   0.001105  -0.000494
    11  H    0.000900   0.000260  -0.000006   0.001105   0.000701  -0.000405
    12  H   -0.001012  -0.000552  -0.000000  -0.000494  -0.000405  -0.001413
    13  H   -0.008352  -0.001073   0.000007  -0.000207  -0.001478   0.001901
    14  H    0.000616   0.000065  -0.000193   0.000117   0.000259  -0.000036
              13         14
     1  O   -0.000409   0.000017
     2  O    0.004343  -0.010511
     3  O    0.000048   0.001723
     4  O   -0.000054   0.000686
     5  C    0.002555  -0.001206
     6  C    0.002913   0.001468
     7  C   -0.008352   0.000616
     8  H   -0.001073   0.000065
     9  H    0.000007  -0.000193
    10  H   -0.000207   0.000117
    11  H   -0.001478   0.000259
    12  H    0.001901  -0.000036
    13  H    0.005760   0.000058
    14  H    0.000058  -0.001075
 Mulliken charges and spin densities:
               1          2
     1  O   -0.238348   0.117904
     2  O   -0.271207   0.677756
     3  O   -0.291177   0.002729
     4  O   -0.329512   0.004584
     5  C   -0.101688  -0.006600
     6  C    0.151797   0.125552
     7  C   -0.453316   0.051277
     8  H    0.172315   0.007654
     9  H    0.287647   0.000279
    10  H    0.229989   0.022204
    11  H    0.202686  -0.000338
    12  H    0.153453  -0.001004
    13  H    0.162389   0.006014
    14  H    0.324972  -0.008010
 Sum of Mulliken charges =  -0.00000   1.00000
 Mulliken charges and spin densities with hydrogens summed into heavy atoms:
               1          2
     1  O   -0.238348   0.117904
     2  O   -0.271207   0.677756
     3  O    0.033795  -0.005281
     4  O   -0.041865   0.004863
     5  C    0.070627   0.001054
     6  C    0.381786   0.147756
     7  C    0.065212   0.055948
 APT charges:
               1
     1  O    0.003171
     2  O   -0.287146
     3  O   -0.329175
     4  O   -0.665163
     5  C   -0.570940
     6  C   -0.009974
     7  C   -1.111971
     8  H    0.548348
     9  H    0.687356
    10  H    0.257516
    11  H    0.253978
    12  H    0.452345
    13  H    0.468301
    14  H    0.303354
 Sum of APT charges =  -0.00000
 APT charges with hydrogens summed into heavy atoms:
               1
     1  O    0.003171
     2  O   -0.287146
     3  O   -0.025821
     4  O    0.022194
     5  C   -0.022592
     6  C    0.247542
     7  C    0.062653
 Electronic spatial extent (au):  <R**2>=            940.9657
 Charge=             -0.0000 electrons
 Dipole moment (field-independent basis, Debye):
    X=             -0.3559    Y=             -0.1906    Z=             -0.9740  Tot=              1.0543
 Quadrupole moment (field-independent basis, Debye-Ang):
   XX=            -48.6869   YY=            -36.9985   ZZ=            -44.1779
   XY=             -7.5428   XZ=              2.5251   YZ=             -1.7584
 Traceless Quadrupole moment (field-independent basis, Debye-Ang):
   XX=             -5.3991   YY=              6.2893   ZZ=             -0.8902
   XY=             -7.5428   XZ=              2.5251   YZ=             -1.7584
 Octapole moment (field-independent basis, Debye-Ang**2):
  XXX=             15.0400  YYY=             -8.8248  ZZZ=             -1.6811  XYY=             15.6135
  XXY=             -4.2194  XXZ=              5.1459  XZZ=              0.8327  YZZ=             -2.5821
  YYZ=              1.4189  XYZ=             -0.8785
 Hexadecapole moment (field-independent basis, Debye-Ang**3):
 XXXX=           -733.9934 YYYY=           -264.4416 ZZZZ=           -173.7227 XXXY=            -61.2658
 XXXZ=              3.8984 YYYX=            -26.4026 YYYZ=              3.0190 ZZZX=              4.5133
 ZZZY=             -0.2702 XXYY=           -143.3755 XXZZ=           -138.0977 YYZZ=            -76.5949
 XXYZ=             -0.3415 YYXZ=              2.1885 ZZXY=              2.2554
 N-N= 3.119975812678D+02 E-N=-1.609796065797D+03  KE= 4.179250481211D+02
  Exact polarizability:   0.000   0.000   0.000   0.000   0.000   0.000
 Approx polarizability:  77.687  12.247  73.783   7.851   7.562  64.375
                          Isotropic Fermi Contact Couplings
        Atom                 a.u.       MegaHertz       Gauss      10(-4) cm-1
     1  O(17)              0.02498     -15.14277      -5.40332      -5.05109
     2  O(17)              0.10194     -61.79825     -22.05115     -20.61368
     3  O(17)             -0.00310       1.87884       0.67042       0.62671
     4  O(17)              0.01148      -6.96139      -2.48400      -2.32207
     5  C(13)             -0.03647     -40.99627     -14.62849     -13.67488
     6  C(13)              0.11163     125.49506      44.77976      41.86065
     7  C(13)              0.02674      30.06581      10.72823      10.02887
     8  H(1)               0.00413      18.44143       6.58036       6.15140
     9  H(1)               0.00002       0.10826       0.03863       0.03611
    10  H(1)               0.01545      69.04706      24.63771      23.03162
    11  H(1)              -0.00054      -2.41266      -0.86090      -0.80478
    12  H(1)              -0.00076      -3.41856      -1.21983      -1.14031
    13  H(1)               0.00289      12.92109       4.61057       4.31001
    14  H(1)               0.00023       1.02147       0.36449       0.34073
 --------------------------------------------------------
       Center         ----  Spin Dipole Couplings  ----
                      3XX-RR        3YY-RR        3ZZ-RR
 --------------------------------------------------------
     1   Atom       -0.270583      0.701596     -0.431012
     2   Atom       -1.068438      2.394876     -1.326438
     3   Atom        0.006408     -0.002425     -0.003983
     4   Atom        0.020008     -0.014766     -0.005242
     5   Atom       -0.037796      0.081794     -0.043998
     6   Atom       -0.111599      0.221894     -0.110295
     7   Atom       -0.029048     -0.012870      0.041917
     8   Atom        0.013489     -0.003401     -0.010088
     9   Atom        0.002172      0.000029     -0.002201
    10   Atom        0.003663     -0.000537     -0.003126
    11   Atom       -0.001138     -0.005879      0.007017
    12   Atom       -0.003369     -0.004286      0.007655
    13   Atom       -0.007669      0.005343      0.002326
    14   Atom        0.021523     -0.010336     -0.011187
 --------------------------------------------------------
                        XY            XZ            YZ
 --------------------------------------------------------
     1   Atom       -0.156132      0.022328     -0.010825
     2   Atom        0.950087     -0.008955      0.081445
     3   Atom        0.000821      0.003302     -0.001022
     4   Atom       -0.006852     -0.020574      0.004187
     5   Atom        0.038318      0.031033     -0.003201
     6   Atom        0.048410      0.019698      0.084406
     7   Atom        0.016598     -0.025662     -0.048033
     8   Atom       -0.008283      0.000441      0.000674
     9   Atom       -0.003827     -0.000999      0.000602
    10   Atom       -0.004346     -0.007229      0.012424
    11   Atom       -0.000448     -0.008500     -0.001528
    12   Atom        0.000947      0.005174     -0.004794
    13   Atom        0.003061     -0.000253     -0.005612
    14   Atom       -0.004632     -0.009488      0.002345
 --------------------------------------------------------


 ---------------------------------------------------------------------------------
              Anisotropic Spin Dipole Couplings in Principal Axis System
 ---------------------------------------------------------------------------------

       Atom             a.u.   MegaHertz   Gauss  10(-4) cm-1        Axes

              Baa    -0.4342    31.416    11.210    10.479 -0.1451 -0.0105  0.9894
     1 O(17)  Bbb    -0.2921    21.133     7.541     7.049  0.9772  0.1551  0.1449
              Bcc     0.7262   -52.549   -18.751   -17.529 -0.1550  0.9878 -0.0122
 
              Baa    -1.3499    97.679    34.854    32.582  0.5829 -0.1652  0.7956
     2 O(17)  Bbb    -1.2900    93.341    33.306    31.135  0.7737 -0.1861 -0.6055
              Bcc     2.6399  -191.019   -68.160   -63.717  0.2481  0.9685  0.0193
 
              Baa    -0.0054     0.393     0.140     0.131 -0.2730  0.3753  0.8858
     3 O(17)  Bbb    -0.0020     0.142     0.051     0.047  0.0570  0.9255 -0.3745
              Bcc     0.0074    -0.535    -0.191    -0.178  0.9603  0.0517  0.2741
 
              Baa    -0.0169     1.221     0.436     0.407  0.4008 -0.3654  0.8402
     4 O(17)  Bbb    -0.0160     1.158     0.413     0.386  0.3158  0.9159  0.2477
              Bcc     0.0329    -2.379    -0.849    -0.793  0.8600 -0.1661 -0.4825
 
              Baa    -0.0774   -10.384    -3.705    -3.464  0.7109 -0.1848 -0.6786
     5 C(13)  Bbb    -0.0159    -2.131    -0.761    -0.711  0.6408 -0.2274  0.7332
              Bcc     0.0933    12.515     4.466     4.175  0.2898  0.9561  0.0432
 
              Baa    -0.1345   -18.042    -6.438    -6.018 -0.4463 -0.1484  0.8825
     6 C(13)  Bbb    -0.1151   -15.439    -5.509    -5.150  0.8836 -0.2292  0.4083
              Bcc     0.2495    33.481    11.947    11.168  0.1417  0.9620  0.2334
 
              Baa    -0.0413    -5.545    -1.979    -1.850 -0.3503  0.8540  0.3848
     7 C(13)  Bbb    -0.0372    -4.987    -1.780    -1.664  0.8959  0.1857  0.4035
              Bcc     0.0785    10.532     3.758     3.513 -0.2731 -0.4861  0.8301
 
              Baa    -0.0103    -5.479    -1.955    -1.827 -0.0888 -0.2028  0.9752
     8 H(1)   Bbb    -0.0066    -3.524    -1.257    -1.176  0.3675  0.9033  0.2213
              Bcc     0.0169     9.003     3.212     3.003  0.9258 -0.3780  0.0057
 
              Baa    -0.0029    -1.549    -0.553    -0.517  0.6145  0.7555  0.2271
     9 H(1)   Bbb    -0.0024    -1.255    -0.448    -0.419 -0.0191 -0.2736  0.9617
[...]
    A6        1.76102   0.00000   0.00132  -0.00120  -0.00045   1.76057
    A7        1.09948  -0.00000  -0.00259   0.00050  -0.00190   1.09758
    A8        1.92415   0.00002   0.00443   0.00051   0.00529   1.92944
    A9        1.78877  -0.00000  -0.00090   0.00094   0.00048   1.78925
   A10        1.80745   0.00003   0.00089   0.00069   0.00175   1.80920
   A11        2.01858  -0.00009   0.00004  -0.00036  -0.00027   2.01830
   A12        1.99679   0.00037   0.00006   0.00029   0.00020   1.99699
   A13        1.79764   0.00004  -0.00094   0.00012  -0.00093   1.79671
   A14        1.82675  -0.00004   0.00066  -0.00021   0.00042   1.82717
   A15        1.98217  -0.00031  -0.00057  -0.00039  -0.00088   1.98129
   A16        2.10826  -0.00004  -0.00016  -0.00022  -0.00046   2.10781
   A17        2.33812   0.00010   0.00622   0.00002   0.00635   2.34446
   A18        2.21255   0.00012   0.00068  -0.00105  -0.00029   2.21226
   A19        1.65080   0.00002  -0.00135  -0.00013  -0.00157   1.64923
   A20        1.96226  -0.00009  -0.00055   0.00127   0.00074   1.96300
   A21        0.61919  -0.00015  -0.00529   0.00065  -0.00463   0.61456
   A22        1.92476   0.00002  -0.00015   0.00041   0.00026   1.92503
   A23        1.92906  -0.00001  -0.00019  -0.00022  -0.00041   1.92865
   A24        1.89184  -0.00001  -0.00007  -0.00015  -0.00022   1.89162
   A25        1.91954  -0.00000   0.00013  -0.00005   0.00008   1.91962
   A26        1.89828  -0.00000   0.00020  -0.00000   0.00020   1.89848
   A27        1.89969   0.00000   0.00008   0.00001   0.00009   1.89978
   A28        0.62659  -0.00004  -0.01413  -0.00030  -0.01431   0.61229
   A29        2.79604   0.00002  -0.00223   0.00136  -0.00115   2.79489
   A30        2.27216   0.00002   0.00114   0.00042   0.00159   2.27375
   A31        0.16723  -0.00014  -0.00809  -0.00002  -0.00791   0.15933
    D1        2.75696   0.00004  -0.01625  -0.00131  -0.01736   2.73959
    D2        0.34956  -0.00000  -0.00605  -0.00042  -0.00655   0.34301
    D3       -0.69730   0.00014  -0.00414  -0.00027  -0.00429  -0.70159
    D4        0.44753   0.00004   0.00292  -0.00020   0.00260   0.45013
    D5       -1.95987   0.00000   0.01312   0.00070   0.01341  -1.94646
    D6       -3.00673   0.00014   0.01503   0.00084   0.01566  -2.99106
    D7        1.87308  -0.00004  -0.01509  -0.00022  -0.01540   1.85768
    D8       -2.76851  -0.00005  -0.01909   0.00080  -0.01806  -2.78657
    D9       -0.11068   0.00000  -0.00655   0.00034  -0.00628  -0.11696
   D10        1.53091  -0.00001  -0.01055   0.00136  -0.00893   1.52198
   D11        0.63521   0.00005  -0.00488  -0.00051  -0.00531   0.62990
   D12       -1.31729   0.00002  -0.00433  -0.00092  -0.00515  -1.32244
   D13        2.61253   0.00018  -0.00354  -0.00022  -0.00368   2.60886
   D14        1.22223   0.00000  -0.00462  -0.00101  -0.00577   1.21646
   D15       -0.73027  -0.00003  -0.00406  -0.00141  -0.00561  -0.73587
   D16       -3.08363   0.00014  -0.00328  -0.00072  -0.00413  -3.08777
   D17        0.43649  -0.00001   0.02406   0.00035   0.02441   0.46090
   D18       -0.92302   0.00004   0.01615   0.00018   0.01633  -0.90669
   D19       -0.50892  -0.00004  -0.01360  -0.00073  -0.01405  -0.52296
   D20       -2.36864  -0.00007  -0.01877  -0.00090  -0.01963  -2.38827
   D21        0.11593  -0.00001   0.00675  -0.00046   0.00626   0.12219
   D22       -1.74380  -0.00004   0.00158  -0.00064   0.00068  -1.74312
   D23        0.10057   0.00004  -0.00850   0.00072  -0.00789   0.09268
   D24       -0.54309   0.00001  -0.03061   0.00007  -0.03062  -0.57371
   D25        0.77213   0.00003  -0.00395   0.00070  -0.00374   0.76839
   D26        1.91609   0.00003  -0.00662   0.00155  -0.00523   1.91085
   D27        2.18005   0.00007   0.00898   0.00014   0.00903   2.18908
   D28       -0.42314  -0.00008   0.00075   0.00053   0.00116  -0.42198
   D29       -0.97657   0.00004   0.00768   0.00050   0.00815  -0.96842
   D30       -1.99395  -0.00000   0.00901   0.00008   0.00906  -1.98489
   D31        1.68605  -0.00015   0.00078   0.00047   0.00119   1.68724
   D32        1.13262  -0.00003   0.00771   0.00044   0.00818   1.14080
   D33        0.08277  -0.00034   0.00824  -0.00040   0.00785   0.09061
   D34       -2.52042  -0.00049   0.00001   0.00000  -0.00002  -2.52044
   D35       -3.07385  -0.00037   0.00694  -0.00004   0.00697  -3.06688
   D36        0.90449  -0.00004   0.00127   0.00042   0.00176   0.90625
   D37        3.03077  -0.00004   0.00121   0.00048   0.00177   3.03254
   D38       -1.17184  -0.00004   0.00115   0.00027   0.00150  -1.17034
   D39       -1.05373  -0.00006   0.00075  -0.00032   0.00037  -1.05336
   D40        1.07256  -0.00006   0.00070  -0.00026   0.00037   1.07293
   D41       -3.13006  -0.00006   0.00064  -0.00047   0.00010  -3.12995
   D42       -3.01883   0.00010   0.00077   0.00003   0.00078  -3.01805
   D43       -0.89255   0.00010   0.00071   0.00009   0.00079  -0.89176
   D44        1.18802   0.00010   0.00065  -0.00012   0.00052   1.18854
   D45        2.24453  -0.00005  -0.02487   0.00120  -0.02396   2.22056
   D46       -1.55560   0.00006  -0.01898   0.00057  -0.01869  -1.57428
   D47        0.59400  -0.00002  -0.01359   0.00269  -0.01084   0.58315
         Item               Value     Threshold  Converged?
 Maximum Force            0.000151     0.000450     YES
 RMS     Force            0.000032     0.000300     YES
 Maximum Displacement     0.024998     0.001800     NO 
 RMS     Displacement     0.005740     0.001200     NO 
 Predicted change in Energy=-1.134471D-06
 Lowest energy point so far.  Saving SCF results.
 GradGradGradGradGradGradGradGradGradGradGradGradGradGradGradGradGradGrad

 Leave Link  103 at Thu Apr 11 10:43:54 2019, MaxMem=   671088640 cpu:               0.9 elap:               0.1
 (Enter /shared/centos7/gaussian/g16/l202.exe)
                          Input orientation:                          
 ---------------------------------------------------------------------
 Center     Atomic      Atomic             Coordinates (Angstroms)
 Number     Number       Type             X           Y           Z
 ---------------------------------------------------------------------
      1          8           0        2.904906   -2.527889   -1.513517
      2          8           0        0.208668   -1.816250    0.174441
      3          8           0        1.226800   -1.193849    2.670015
      4          8           0        2.179886   -2.238698    2.539549
      5          6           0        0.945761   -1.262340   -0.767977
      6          6           0        2.392483   -1.988259   -0.600712
      7          6           0        1.280044    0.221713   -0.563464
      8          1           0        0.630713   -1.502813   -1.789355
      9          1           0        1.842090   -2.906286    3.146055
     10          1           0        2.797111   -1.889943    0.417782
     11          1           0        1.704168    0.380567    0.427839
     12          1           0        1.978003    0.564185   -1.326239
     13          1           0        0.358692    0.795796   -0.646515
     14          1           0        0.677003   -1.346165    1.877960
 ---------------------------------------------------------------------
                    Distance matrix (angstroms):
                    1          2          3          4          5
     1  O    0.000000
     2  O    3.259652   0.000000
     3  O    4.700813   2.766201   0.000000
     4  O    4.127545   3.107716   1.420249   0.000000
     5  C    2.448610   1.318436   3.450139   3.662795   0.000000
     6  C    1.177706   2.323682   3.561960   3.157397   1.627249
     7  C    3.332130   2.417777   3.530161   4.061038   1.534922
     8  H    2.509746   2.032944   4.509630   4.656273   1.095581
     9  H    4.794202   3.561845   1.880861   0.963135   4.338849
    10  H    2.036789   2.600901   2.832486   2.237072   2.286352
    11  H    3.697263   2.669595   2.781011   3.397967   2.168940
    12  H    3.233442   3.324013   4.430016   4.779250   2.171031
    13  H    4.275720   2.742127   3.963795   4.761923   2.143672
    14  H    4.226362   1.828194   0.976129   1.868950   2.660871
                    6          7          8          9         10
     6  C    0.000000
     7  C    2.474446   0.000000
     8  H    2.179992   2.213240   0.000000
     9  H    3.896661   4.884752   5.272139   0.000000
    10  H    1.100327   2.779105   3.116826   3.064065   0.000000
    11  H    2.672645   1.089860   3.100867   4.267450   2.519890
    12  H    2.685732   1.089156   2.510408   5.662514   3.120143
    13  H    3.448096   1.088742   2.581411   5.503587   3.780451
    14  H    3.082040   2.963520   3.670951   2.323677   2.631098
                   11         12         13         14
    11  H    0.000000
    12  H    1.784794   0.000000
    13  H    1.771145   1.771394   0.000000
    14  H    2.477807   3.950814   3.326002   0.000000
 Stoichiometry    C3H7O4(2)
 Framework group  C1[X(C3H7O4)]
 Deg. of freedom    36
 Full point group                 C1      NOp   1
 RotChk:  IX=3 Diff= 7.30D-03
 Largest Abelian subgroup         C1      NOp   1
 Largest concise Abelian subgroup C1      NOp   1
                         Standard orientation:                         
 ---------------------------------------------------------------------
 Center     Atomic      Atomic             Coordinates (Angstroms)
 Number     Number       Type             X           Y           Z
 ---------------------------------------------------------------------
      1          8           0       -1.920765   -1.633547   -0.091938
      2          8           0       -0.059339    0.690775    1.233941
      3          8           0        2.285699    0.461234   -0.215186
      4          8           0        2.148484   -0.952359   -0.209502
      5          6           0       -1.100398    0.614061    0.428592
      6          6           0       -1.008194   -0.893865   -0.176055
      7          6           0       -1.034228    1.493006   -0.828015
      8          1           0       -2.070102    0.650638    0.937152
      9          1           0        2.829100   -1.225630    0.414768
     10          1           0       -0.038879   -1.096027   -0.655928
     11          1           0       -0.098031    1.322944   -1.359436
     12          1           0       -1.878033    1.284426   -1.484330
     13          1           0       -1.077744    2.536337   -0.519916
     14          1           0        1.557985    0.719278    0.382036
 ---------------------------------------------------------------------
 Rotational constants (GHZ):           3.0696782           1.5864151           1.2686628
 Leave Link  202 at Thu Apr 11 10:43:54 2019, MaxMem=   671088640 cpu:               0.2 elap:               0.0
 (Enter /shared/centos7/gaussian/g16/l301.exe)
 Standard basis: 6-311+G(2df,2p) (5D, 7F)
 Ernie: Thresh=  0.10000D-02 Tol=  0.10000D-05 Strict=F.
 There are   336 symmetry adapted cartesian basis functions of A   symmetry.
 There are   301 symmetry adapted basis functions of A   symmetry.
   301 basis functions,   441 primitive gaussians,   336 cartesian basis functions
    29 alpha electrons       28 beta electrons
       nuclear repulsion energy       310.5315263855 Hartrees.
 IExCor= 4336 DFT=T Ex+Corr=M062X ExCW=0 ScaHFX=  0.540000
 ScaDFX=  1.000000  1.000000  1.000000  1.000000 ScalE2=  1.000000  1.000000
 IRadAn=      5 IRanWt=     -1 IRanGd=            0 ICorTp=0 IEmpDi=  4
 NAtoms=   14 NActive=   14 NUniq=   14 SFac= 1.00D+00 NAtFMM=   60 NAOKFM=F Big=F
 Integral buffers will be    131072 words long.
 Raffenetti 2 integral format.
 Two-electron integral symmetry is turned on.
 Leave Link  301 at Thu Apr 11 10:43:54 2019, MaxMem=   671088640 cpu:               1.2 elap:               0.1
 (Enter /shared/centos7/gaussian/g16/l302.exe)
 NPDir=0 NMtPBC=     1 NCelOv=     1 NCel=       1 NClECP=     1 NCelD=      1
         NCelK=      1 NCelE2=     1 NClLst=     1 CellRange=     0.0.
 One-electron integrals computed using PRISM.
 One-electron integral symmetry used in STVInt
 NBasis=   301 RedAO= T EigKep=  4.57D-05  NBF=   301
 NBsUse=   301 1.00D-06 EigRej= -1.00D+00 NBFU=   301
 Precomputing XC quadrature grid using
 IXCGrd= 4 IRadAn=           5 IRanWt=          -1 IRanGd=           0 AccXCQ= 0.00D+00.
 Generated NRdTot=       0 NPtTot=           0 NUsed=           0 NTot=          32
 NSgBfM=   336   336   336   336   336 MxSgAt=    14 MxSgA2=    14.
 Leave Link  302 at Thu Apr 11 10:43:55 2019, MaxMem=   671088640 cpu:               7.2 elap:               0.4
 (Enter /shared/centos7/gaussian/g16/l303.exe)
 DipDrv:  MaxL=1.
 Leave Link  303 at Thu Apr 11 10:43:55 2019, MaxMem=   671088640 cpu:               0.7 elap:               0.1
 (Enter /shared/centos7/gaussian/g16/l401.exe)
 Initial guess from the checkpoint file:  "/scratch/underkoffler.c/gaussian_scratch/Gau-14384.chk"
 B after Tr=     0.000000    0.000000    0.000000
         Rot=    0.999998    0.000673   -0.000244   -0.001843 Ang=   0.23 deg.
 Guess basis will be translated and rotated to current coordinates.
 JPrj=2 DoOrth=T DoCkMO=T.
 Initial guess <Sx>= 0.0000 <Sy>= 0.0000 <Sz>= 0.5000 <S**2>= 0.7618 S= 0.5059
 Generating alternative initial guess.
 ExpMin= 4.38D-02 ExpMax= 8.59D+03 ExpMxC= 1.30D+03 IAcc=2 IRadAn=         4 AccDes= 0.00D+00
 Harris functional with IExCor= 1009 and IRadAn=       4 diagonalized for initial guess.
 HarFok:  IExCor= 1009 AccDes= 0.00D+00 IRadAn=         4 IDoV= 1 UseB2=F ITyADJ=14
 ICtDFT=  3500011 ScaDFX=  1.000000  1.000000  1.000000  1.000000
 FoFCou: FMM=F IPFlag=           0 FMFlag=      100000 FMFlg1=           0
         NFxFlg=           0 DoJE=T BraDBF=F KetDBF=T FulRan=T
         wScrn=  0.000000 ICntrl=       500 IOpCl=  0 I1Cent=   200000004 NGrid=           0
         NMat0=    1 NMatS0=      1 NMatT0=    0 NMatD0=    1 NMtDS0=    0 NMtDT0=    0
 Petite list used in FoFCou.
 Harris En= -419.028143248979    
 Leave Link  401 at Thu Apr 11 10:43:56 2019, MaxMem=   671088640 cpu:              18.9 elap:               1.0
 (Enter /shared/centos7/gaussian/g16/l502.exe)
 Integral symmetry usage will be decided dynamically.
 UHF open shell SCF:
 Using DIIS extrapolation, IDIIS=  1040.
 NGot=   671088640 LenX=   670853114 LenY=   670739777
 Requested convergence on RMS density matrix=1.00D-08 within 128 cycles.
 Requested convergence on MAX density matrix=1.00D-06.
 Requested convergence on             energy=1.00D-06.
 No special actions if energy rises.
 Fock matrices will be formed incrementally for  20 cycles.

 Cycle   1  Pass 1  IDiag  1:
 FoFJK:  IHMeth= 1 ICntrl=       0 DoSepK=F KAlg= 0 I1Cent=           0 FoldK=F
 IRaf= 950000000 NMat=       1 IRICut=       1 DoRegI=T DoRafI=F ISym2E= 0 IDoP0=0 IntGTp=1.
 FoFCou: FMM=F IPFlag=           0 FMFlag=      100000 FMFlg1=           0
         NFxFlg=           0 DoJE=F BraDBF=F KetDBF=F FulRan=T
         wScrn=  0.000000 ICntrl=         0 IOpCl=  1 I1Cent=           0 NGrid=           0
         NMat0=    1 NMatS0=      1 NMatT0=    0 NMatD0=    1 NMtDS0=    0 NMtDT0=    0
 Symmetry not used in FoFCou.
 E= -419.221546790257    
 DIIS: error= 7.99D-04 at cycle   1 NSaved=   1.
 NSaved= 1 IEnMin= 1 EnMin= -419.221546790257     IErMin= 1 ErrMin= 7.99D-04
 ErrMax= 7.99D-04  0.00D+00 EMaxC= 1.00D-01 BMatC= 6.21D-04 BMatP= 6.21D-04
 IDIUse=3 WtCom= 9.92D-01 WtEn= 7.99D-03
 Coeff-Com:  0.100D+01
 Coeff-En:   0.100D+01
 Coeff:      0.100D+01
 Gap=     0.616 Goal=   None    Shift=    0.000
 Gap=     0.627 Goal=   None    Shift=    0.000
 RMSDP=6.00D-05 MaxDP=1.59D-03              OVMax= 4.25D-03

 Cycle   2  Pass 1  IDiag  1:
 RMSU=  5.99D-05    CP:  1.00D+00
 E= -419.221762971688     Delta-E=       -0.000216181431 Rises=F Damp=F
 DIIS: error= 1.73D-04 at cycle   2 NSaved=   2.
 NSaved= 2 IEnMin= 2 EnMin= -419.221762971688     IErMin= 2 ErrMin= 1.73D-04
 ErrMax= 1.73D-04  0.00D+00 EMaxC= 1.00D-01 BMatC= 2.92D-05 BMatP= 6.21D-04
 IDIUse=3 WtCom= 9.98D-01 WtEn= 1.73D-03
 Coeff-Com: -0.146D+00 0.115D+01
 Coeff-En:   0.000D+00 0.100D+01
 Coeff:     -0.145D+00 0.115D+01
 Gap=     0.324 Goal=   None    Shift=    0.000
 Gap=     0.225 Goal=   None    Shift=    0.000
 RMSDP=1.46D-05 MaxDP=3.54D-04 DE=-2.16D-04 OVMax= 1.80D-03

 Cycle   3  Pass 1  IDiag  1:
 RMSU=  1.05D-05    CP:  1.00D+00  1.17D+00
 E= -419.221777539449     Delta-E=       -0.000014567761 Rises=F Damp=F
 DIIS: error= 9.31D-05 at cycle   3 NSaved=   3.
 NSaved= 3 IEnMin= 3 EnMin= -419.221777539449     IErMin= 3 ErrMin= 9.31D-05
 ErrMax= 9.31D-05  0.00D+00 EMaxC= 1.00D-01 BMatC= 1.55D-05 BMatP= 2.92D-05
 IDIUse=1 WtCom= 1.00D+00 WtEn= 0.00D+00
 Coeff-Com: -0.909D-01 0.538D+00 0.553D+00
 Coeff:     -0.909D-01 0.538D+00 0.553D+00
 Gap=     0.324 Goal=   None    Shift=    0.000
 Gap=     0.225 Goal=   None    Shift=    0.000
 RMSDP=5.59D-06 MaxDP=2.20D-04 DE=-1.46D-05 OVMax= 6.52D-04

 Cycle   4  Pass 1  IDiag  1:
 RMSU=  5.28D-06    CP:  1.00D+00  1.18D+00  8.54D-01
 E= -419.221780268665     Delta-E=       -0.000002729216 Rises=F Damp=F
 DIIS: error= 3.73D-05 at cycle   4 NSaved=   4.
 NSaved= 4 IEnMin= 4 EnMin= -419.221780268665     IErMin= 4 ErrMin= 3.73D-05
 ErrMax= 3.73D-05  0.00D+00 EMaxC= 1.00D-01 BMatC= 2.43D-06 BMatP= 1.55D-05
 IDIUse=1 WtCom= 1.00D+00 WtEn= 0.00D+00
 Coeff-Com:  0.919D-02-0.151D+00 0.244D+00 0.898D+00
 Coeff:      0.919D-02-0.151D+00 0.244D+00 0.898D+00
 Gap=     0.324 Goal=   None    Shift=    0.000
 Gap=     0.225 Goal=   None    Shift=    0.000
 RMSDP=2.93D-06 MaxDP=1.10D-04 DE=-2.73D-06 OVMax= 3.54D-04

 Cycle   5  Pass 1  IDiag  1:
 RMSU=  1.76D-06    CP:  1.00D+00  1.20D+00  1.05D+00  1.12D+00
 E= -419.221780976719     Delta-E=       -0.000000708053 Rises=F Damp=F
 DIIS: error= 8.09D-06 at cycle   5 NSaved=   5.
 NSaved= 5 IEnMin= 5 EnMin= -419.221780976719     IErMin= 5 ErrMin= 8.09D-06
 ErrMax= 8.09D-06  0.00D+00 EMaxC= 1.00D-01 BMatC= 1.87D-07 BMatP= 2.43D-06
 IDIUse=1 WtCom= 1.00D+00 WtEn= 0.00D+00
 Coeff-Com:  0.904D-02-0.941D-01 0.684D-01 0.371D+00 0.646D+00
 Coeff:      0.904D-02-0.941D-01 0.684D-01 0.371D+00 0.646D+00
 Gap=     0.324 Goal=   None    Shift=    0.000
 Gap=     0.225 Goal=   None    Shift=    0.000
 RMSDP=7.72D-07 MaxDP=2.96D-05 DE=-7.08D-07 OVMax= 7.36D-05

 Cycle   6  Pass 1  IDiag  1:
 RMSU=  6.37D-07    CP:  1.00D+00  1.20D+00  1.08D+00  1.18D+00  9.89D-01
 E= -419.221781027257     Delta-E=       -0.000000050538 Rises=F Damp=F
 DIIS: error= 5.14D-06 at cycle   6 NSaved=   6.
 NSaved= 6 IEnMin= 6 EnMin= -419.221781027257     IErMin= 6 ErrMin= 5.14D-06
 ErrMax= 5.14D-06  0.00D+00 EMaxC= 1.00D-01 BMatC= 5.28D-08 BMatP= 1.87D-07
 IDIUse=1 WtCom= 1.00D+00 WtEn= 0.00D+00
 Coeff-Com:  0.358D-02-0.236D-01-0.139D-01 0.248D-01 0.333D+00 0.676D+00
 Coeff:      0.358D-02-0.236D-01-0.139D-01 0.248D-01 0.333D+00 0.676D+00
 Gap=     0.324 Goal=   None    Shift=    0.000
 Gap=     0.225 Goal=   None    Shift=    0.000
 RMSDP=4.84D-07 MaxDP=2.08D-05 DE=-5.05D-08 OVMax= 1.16D-04

 Cycle   7  Pass 1  IDiag  1:
 RMSU=  3.80D-07    CP:  1.00D+00  1.20D+00  1.09D+00  1.21D+00  1.12D+00
                    CP:  1.08D+00
 E= -419.221781050741     Delta-E=       -0.000000023484 Rises=F Damp=F
 DIIS: error= 3.23D-06 at cycle   7 NSaved=   7.
 NSaved= 7 IEnMin= 7 EnMin= -419.221781050741     IErMin= 7 ErrMin= 3.23D-06
 ErrMax= 3.23D-06  0.00D+00 EMaxC= 1.00D-01 BMatC= 1.22D-08 BMatP= 5.28D-08
 IDIUse=1 WtCom= 1.00D+00 WtEn= 0.00D+00
 Coeff-Com: -0.119D-02 0.159D-01-0.172D-01-0.711D-01-0.155D+00 0.218D+00
 Coeff-Com:  0.101D+01
 Coeff:     -0.119D-02 0.159D-01-0.172D-01-0.711D-01-0.155D+00 0.218D+00
 Coeff:      0.101D+01
 Gap=     0.324 Goal=   None    Shift=    0.000
 Gap=     0.225 Goal=   None    Shift=    0.000
 RMSDP=4.13D-07 MaxDP=1.67D-05 DE=-2.35D-08 OVMax= 1.29D-04

 Cycle   8  Pass 1  IDiag  1:
 RMSU=  2.02D-07    CP:  1.00D+00  1.20D+00  1.10D+00  1.23D+00  1.21D+00
                    CP:  1.46D+00  1.43D+00
