 Entering Gaussian System, Link 0=g16
 Input=QOOQLKSEGVNYLA-UHFFFAOYSA-N_GeoFreq_c1_a1.com
 Output=QOOQLKSEGVNYLA-UHFFFAOYSA-N_GeoFreq_c1_a1.log
 Initial command:
 /shared/centos7/gaussian/g16/l1.exe "/scratch/underkoffler.c/gaussian_scratch/Gau-18391.inp" -scrdir="/scratch/underkoffler.c/gaussian_scratch/"
 Entering Link 1 = /shared/centos7/gaussian/g16/l1.exe PID=     18392.
  
 Copyright (c) 1988,1990,1992,1993,1995,1998,2003,2009,2016,
            Gaussian, Inc.  All Rights Reserved.
  
 This is part of the Gaussian(R) 16 program.  It is based on
 the Gaussian(R) 09 system (copyright 2009, Gaussian, Inc.),
 the Gaussian(R) 03 system (copyright 2003, Gaussian, Inc.),
 the Gaussian(R) 98 system (copyright 1998, Gaussian, Inc.),
 the Gaussian(R) 94 system (copyright 1995, Gaussian, Inc.),
 the Gaussian 92(TM) system (copyright 1992, Gaussian, Inc.),
 the Gaussian 90(TM) system (copyright 1990, Gaussian, Inc.),
 the Gaussian 88(TM) system (copyright 1988, Gaussian, Inc.),
 the Gaussian 86(TM) system (copyright 1986, Carnegie Mellon
 University), and the Gaussian 82(TM) system (copyright 1983,
 Carnegie Mellon University). Gaussian is a federally registered
 trademark of Gaussian, Inc.
  
 This software contains proprietary and confidential information,
 including trade secrets, belonging to Gaussian, Inc.
  
 This software is provided under written license and may be
 used, copied, transmitted, or stored only in accord with that
 written license.
  
 The following legend is applicable only to US Government
 contracts under FAR:
  
                    RESTRICTED RIGHTS LEGEND
  
 Use, reproduction and disclosure by the US Government is
 subject to restrictions as set forth in subparagraphs (a)
 and (c) of the Commercial Computer Software - Restricted
 Rights clause in FAR 52.227-19.
  
 Gaussian, Inc.
 340 Quinnipiac St., Bldg. 40, Wallingford CT 06492
  
  
 ---------------------------------------------------------------
 Warning -- This program may not be used in any manner that
 competes with the business of Gaussian, Inc. or will provide
 assistance to any competitor of Gaussian, Inc.  The licensee
 of this program is prohibited from giving any competitor of
 Gaussian, Inc. access to this program.  By using this program,
 the user acknowledges that Gaussian, Inc. is engaged in the
 business of creating and licensing software in the field of
 computational chemistry and represents and warrants to the
 licensee that it is not a competitor of Gaussian, Inc. and that
 it will not use this program in any manner prohibited above.
 ---------------------------------------------------------------
  

 Cite this work as:
 Gaussian 16, Revision A.03,
 M. J. Frisch, G. W. Trucks, H. B. Schlegel, G. E. Scuseria, 
 M. A. Robb, J. R. Cheeseman, G. Scalmani, V. Barone, 
 G. A. Petersson, H. Nakatsuji, X. Li, M. Caricato, A. V. Marenich, 
 J. Bloino, B. G. Janesko, R. Gomperts, B. Mennucci, H. P. Hratchian, 
 J. V. Ortiz, A. F. Izmaylov, J. L. Sonnenberg, D. Williams-Young, 
 F. Ding, F. Lipparini, F. Egidi, J. Goings, B. Peng, A. Petrone, 
 T. Henderson, D. Ranasinghe, V. G. Zakrzewski, J. Gao, N. Rega, 
 G. Zheng, W. Liang, M. Hada, M. Ehara, K. Toyota, R. Fukuda, 
 J. Hasegawa, M. Ishida, T. Nakajima, Y. Honda, O. Kitao, H. Nakai, 
 T. Vreven, K. Throssell, J. A. Montgomery, Jr., J. E. Peralta, 
 F. Ogliaro, M. J. Bearpark, J. J. Heyd, E. N. Brothers, K. N. Kudin, 
 V. N. Staroverov, T. A. Keith, R. Kobayashi, J. Normand, 
 K. Raghavachari, A. P. Rendell, J. C. Burant, S. S. Iyengar, 
 J. Tomasi, M. Cossi, J. M. Millam, M. Klene, C. Adamo, R. Cammi, 
 J. W. Ochterski, R. L. Martin, K. Morokuma, O. Farkas, 
 J. B. Foresman, and D. J. Fox, Gaussian, Inc., Wallingford CT, 2016.
 
 ******************************************
 Gaussian 16:  EM64L-G16RevA.03 25-Dec-2016
                 9-Apr-2019 
 ******************************************
 %nprocshared=20
 Will use up to   20 processors via shared memory.
 %mem=5GB
 ----------------------------------------------------------------------
 #p m062x/6-311+g(2df,2p) opt=(calcfc,verytight,gdiis,maxcycles=900) fr
 eq iop(7/33=1,2/16=3)
 ----------------------------------------------------------------------

 Warning!  Use of Opt=GDIIS is deprecated since it is seldom a good choice.

 1/6=900,7=1,10=4,18=20,19=11,26=3,38=1/1,3;
 2/9=110,12=2,16=3,17=6,18=5,40=1/2;
 3/5=4,6=6,7=214,11=2,25=1,30=1,71=2,74=-55,140=1/1,2,3;
 4//1;
 5/5=2,38=5/2;
 8/6=4,10=90,11=11/1;
 11/6=1,8=1,9=11,15=111,16=1/1,2,10;
 10/6=1,13=1/2;
 6/7=2,8=2,9=2,10=2,28=1/1;
 7/10=1,18=20,25=1,33=1/1,2,3,16;
 1/6=900,7=1,10=4,18=20,19=11,26=3/3(2);
 2/9=110,16=3/2;
 99//99;
 2/9=110,16=3/2;
 3/5=4,6=6,7=214,11=2,25=1,30=1,71=1,74=-55/1,2,3;
 4/5=5,16=3,69=1/1;
 5/5=2,38=5/2;
 7/33=1/1,2,3,16;
 1/6=900,7=1,18=20,19=11,26=3/3(-5);
 2/9=110,16=3/2;
 6/7=2,8=2,9=2,10=2,19=2,28=1/1;
 99/9=1/99;
 Leave Link    1 at Tue Apr  9 00:13:38 2019, MaxMem=   671088640 cpu:              26.6 elap:               1.4
 (Enter /shared/centos7/gaussian/g16/l101.exe)
 ------------------------------
 Gaussian input prepared by ASE
 ------------------------------
 Symbolic Z-matrix:
 Charge =  0 Multiplicity = 2
 O                     0.61106   1.36308  -1.80573 
 C                     0.70152  -0.44791   0.54205 
 C                    -0.3389   -0.46964  -0.53776 
 C                     1.69217   0.68563   0.44149 
 C                    -0.54561   0.84481  -1.24902 
 H                     0.19812  -0.39577   1.53986 
 H                     1.25502  -1.42082   0.52259 
 H                    -0.06314  -1.23884  -1.30236 
 H                    -1.3216   -0.79847  -0.11467 
 H                     1.61402   1.11668  -0.58828 
 H                     2.73793   0.35524   0.61185 
 H                     1.45796   1.49168   1.14787 
 H                    -1.04538   1.59187  -0.58298 
 H                    -1.25018   0.64577  -2.08781 
 
 ITRead=  0  0  0  0  0  0  0  0  0  0  0  0  0  0
 MicOpt= -1 -1 -1 -1 -1 -1 -1 -1 -1 -1 -1 -1 -1 -1
 NAtoms=     14 NQM=       14 NQMF=       0 NMMI=      0 NMMIF=      0
                NMic=       0 NMicF=      0.
                    Isotopes and Nuclear Properties:
 (Nuclear quadrupole moments (NQMom) in fm**2, nuclear magnetic moments (NMagM)
  in nuclear magnetons)

  Atom         1           2           3           4           5           6           7           8           9          10
 IAtWgt=          16          12          12          12          12           1           1           1           1           1
 AtmWgt=  15.9949146  12.0000000  12.0000000  12.0000000  12.0000000   1.0078250   1.0078250   1.0078250   1.0078250   1.0078250
 NucSpn=           0           0           0           0           0           1           1           1           1           1
 AtZEff=  -0.0000000  -0.0000000  -0.0000000  -0.0000000  -0.0000000  -0.0000000  -0.0000000  -0.0000000  -0.0000000  -0.0000000
 NQMom=    0.0000000   0.0000000   0.0000000   0.0000000   0.0000000   0.0000000   0.0000000   0.0000000   0.0000000   0.0000000
 NMagM=    0.0000000   0.0000000   0.0000000   0.0000000   0.0000000   2.7928460   2.7928460   2.7928460   2.7928460   2.7928460
 AtZNuc=   8.0000000   6.0000000   6.0000000   6.0000000   6.0000000   1.0000000   1.0000000   1.0000000   1.0000000   1.0000000

  Atom        11          12          13          14
 IAtWgt=           1           1           1           1
 AtmWgt=   1.0078250   1.0078250   1.0078250   1.0078250
 NucSpn=           1           1           1           1
 AtZEff=  -0.0000000  -0.0000000  -0.0000000  -0.0000000
 NQMom=    0.0000000   0.0000000   0.0000000   0.0000000
 NMagM=    2.7928460   2.7928460   2.7928460   2.7928460
 AtZNuc=   1.0000000   1.0000000   1.0000000   1.0000000
 Leave Link  101 at Tue Apr  9 00:13:38 2019, MaxMem=   671088640 cpu:               4.8 elap:               0.3
 (Enter /shared/centos7/gaussian/g16/l103.exe)

 GradGradGradGradGradGradGradGradGradGradGradGradGradGradGradGradGradGrad
 Berny optimization.
 Initialization pass.
                           ----------------------------
                           !    Initial Parameters    !
                           ! (Angstroms and Degrees)  !
 --------------------------                            --------------------------
 ! Name  Definition              Value          Derivative Info.                !
 --------------------------------------------------------------------------------
 ! R1    R(1,5)                  1.3843         calculate D2E/DX2 analytically  !
 ! R2    R(2,3)                  1.4996         calculate D2E/DX2 analytically  !
 ! R3    R(2,4)                  1.5088         calculate D2E/DX2 analytically  !
 ! R4    R(2,6)                  1.1188         calculate D2E/DX2 analytically  !
 ! R5    R(2,7)                  1.1195         calculate D2E/DX2 analytically  !
 ! R6    R(3,5)                  1.5088         calculate D2E/DX2 analytically  !
 ! R7    R(3,8)                  1.1191         calculate D2E/DX2 analytically  !
 ! R8    R(3,9)                  1.1193         calculate D2E/DX2 analytically  !
 ! R9    R(4,10)                 1.1191         calculate D2E/DX2 analytically  !
 ! R10   R(4,11)                 1.1099         calculate D2E/DX2 analytically  !
 ! R11   R(4,12)                 1.0971         calculate D2E/DX2 analytically  !
 ! R12   R(5,13)                 1.1187         calculate D2E/DX2 analytically  !
 ! R13   R(5,14)                 1.1134         calculate D2E/DX2 analytically  !
 ! A1    A(3,2,4)              114.7347         calculate D2E/DX2 analytically  !
 ! A2    A(3,2,6)              109.3105         calculate D2E/DX2 analytically  !
 ! A3    A(3,2,7)              108.5359         calculate D2E/DX2 analytically  !
 ! A4    A(4,2,6)              108.6544         calculate D2E/DX2 analytically  !
 ! A5    A(4,2,7)              109.0946         calculate D2E/DX2 analytically  !
 ! A6    A(6,2,7)              106.1687         calculate D2E/DX2 analytically  !
 ! A7    A(2,3,5)              114.9525         calculate D2E/DX2 analytically  !
 ! A8    A(2,3,8)              109.3274         calculate D2E/DX2 analytically  !
 ! A9    A(2,3,9)              109.9491         calculate D2E/DX2 analytically  !
 ! A10   A(5,3,8)              108.0888         calculate D2E/DX2 analytically  !
 ! A11   A(5,3,9)              108.2916         calculate D2E/DX2 analytically  !
 ! A12   A(8,3,9)              105.8243         calculate D2E/DX2 analytically  !
 ! A13   A(2,4,10)             107.7501         calculate D2E/DX2 analytically  !
 ! A14   A(2,4,11)             112.6299         calculate D2E/DX2 analytically  !
 ! A15   A(2,4,12)             111.6483         calculate D2E/DX2 analytically  !
 ! A16   A(10,4,11)            108.767          calculate D2E/DX2 analytically  !
 ! A17   A(10,4,12)            107.1332         calculate D2E/DX2 analytically  !
 ! A18   A(11,4,12)            108.7258         calculate D2E/DX2 analytically  !
 ! A19   A(1,5,3)              113.6577         calculate D2E/DX2 analytically  !
 ! A20   A(1,5,13)             111.2649         calculate D2E/DX2 analytically  !
 ! A21   A(1,5,14)             107.0202         calculate D2E/DX2 analytically  !
 ! A22   A(3,5,13)             111.2432         calculate D2E/DX2 analytically  !
 ! A23   A(3,5,14)             106.6249         calculate D2E/DX2 analytically  !
 ! A24   A(13,5,14)            106.5715         calculate D2E/DX2 analytically  !
 ! D1    D(4,2,3,5)            -20.2624         calculate D2E/DX2 analytically  !
 ! D2    D(4,2,3,8)            101.4802         calculate D2E/DX2 analytically  !
 ! D3    D(4,2,3,9)           -142.7522         calculate D2E/DX2 analytically  !
 ! D4    D(6,2,3,5)            102.0534         calculate D2E/DX2 analytically  !
 ! D5    D(6,2,3,8)           -136.204          calculate D2E/DX2 analytically  !
 ! D6    D(6,2,3,9)            -20.4363         calculate D2E/DX2 analytically  !
 ! D7    D(7,2,3,5)           -142.5617         calculate D2E/DX2 analytically  !
 ! D8    D(7,2,3,8)            -20.8191         calculate D2E/DX2 analytically  !
 ! D9    D(7,2,3,9)             94.9485         calculate D2E/DX2 analytically  !
 ! D10   D(3,2,4,10)           -15.6343         calculate D2E/DX2 analytically  !
 ! D11   D(3,2,4,11)          -135.596          calculate D2E/DX2 analytically  !
 ! D12   D(3,2,4,12)           101.7427         calculate D2E/DX2 analytically  !
 ! D13   D(6,2,4,10)          -138.3045         calculate D2E/DX2 analytically  !
 ! D14   D(6,2,4,11)           101.7338         calculate D2E/DX2 analytically  !
 ! D15   D(6,2,4,12)           -20.9275         calculate D2E/DX2 analytically  !
 ! D16   D(7,2,4,10)           106.3621         calculate D2E/DX2 analytically  !
 ! D17   D(7,2,4,11)           -13.5996         calculate D2E/DX2 analytically  !
 ! D18   D(7,2,4,12)          -136.2609         calculate D2E/DX2 analytically  !
 ! D19   D(2,3,5,1)             55.9643         calculate D2E/DX2 analytically  !
 ! D20   D(2,3,5,13)           -70.5574         calculate D2E/DX2 analytically  !
 ! D21   D(2,3,5,14)           173.6302         calculate D2E/DX2 analytically  !
 ! D22   D(8,3,5,1)            -66.4474         calculate D2E/DX2 analytically  !
 ! D23   D(8,3,5,13)           167.0308         calculate D2E/DX2 analytically  !
 ! D24   D(8,3,5,14)            51.2184         calculate D2E/DX2 analytically  !
 ! D25   D(9,3,5,1)            179.3413         calculate D2E/DX2 analytically  !
 ! D26   D(9,3,5,13)            52.8195         calculate D2E/DX2 analytically  !
 ! D27   D(9,3,5,14)           -62.9929         calculate D2E/DX2 analytically  !
 --------------------------------------------------------------------------------
 Trust Radius=3.00D-01 FncErr=1.00D-07 GrdErr=1.00D-06 EigMax=2.50D+02 EigMin=1.00D-04
 Number of steps in this run=    100 maximum allowed number of steps=    100.
 GradGradGradGradGradGradGradGradGradGradGradGradGradGradGradGradGradGrad

 Leave Link  103 at Tue Apr  9 00:13:38 2019, MaxMem=   671088640 cpu:               0.2 elap:               0.0
 (Enter /shared/centos7/gaussian/g16/l202.exe)
                          Input orientation:                          
 ---------------------------------------------------------------------
 Center     Atomic      Atomic             Coordinates (Angstroms)
 Number     Number       Type             X           Y           Z
 ---------------------------------------------------------------------
      1          8           0        0.611061    1.363085   -1.805730
      2          6           0        0.701518   -0.447912    0.542055
      3          6           0       -0.338902   -0.469641   -0.537762
      4          6           0        1.692170    0.685635    0.441486
      5          6           0       -0.545609    0.844808   -1.249020
      6          1           0        0.198123   -0.395773    1.539856
      7          1           0        1.255016   -1.420815    0.522585
      8          1           0       -0.063135   -1.238836   -1.302364
      9          1           0       -1.321598   -0.798467   -0.114669
     10          1           0        1.614018    1.116676   -0.588278
     11          1           0        2.737926    0.355238    0.611855
     12          1           0        1.457961    1.491680    1.147875
     13          1           0       -1.045375    1.591868   -0.582985
     14          1           0       -1.250181    0.645768   -2.087810
 ---------------------------------------------------------------------
                    Distance matrix (angstroms):
                    1          2          3          4          5
     1  O    0.000000
     2  C    2.966476   0.000000
     3  C    2.422613   1.499650   0.000000
     4  C    2.584127   1.508785   2.533544   0.000000
     5  C    1.384348   2.536611   1.508772   2.809057   0.000000
     6  H    3.802242   1.118809   2.147173   2.146634   3.141657
     7  H    3.685896   1.119500   2.137672   2.152861   3.393211
     8  H    2.734576   2.147588   1.119073   3.134596   2.139438
     9  H    3.356660   2.155730   1.119297   3.405094   2.142257
    10  H    1.596505   2.135004   2.516516   1.119070   2.274748
    11  H    3.374022   2.190179   3.386579   1.109862   3.805803
    12  H    3.075314   2.168234   3.149106   1.097063   3.190273
    13  H    2.071527   2.911708   2.179672   3.060220   1.118690
    14  H    2.014530   3.452745   2.115943   3.880252   1.113376
                    6          7          8          9         10
     6  H    0.000000
     7  H    1.789574   0.000000
     8  H    2.976109   2.258557   0.000000
     9  H    2.282360   2.726234   1.785574   0.000000
    10  H    2.970053   2.793163   2.978455   3.536937   0.000000
    11  H    2.806387   2.315460   3.748500   4.282361   1.811982
    12  H    2.302894   2.985767   3.971539   3.816378   1.783034
    13  H    3.162824   3.948461   3.081425   2.451392   2.701519
    14  H    4.042567   4.166646   2.361723   2.446263   3.267106
                   11         12         13         14
    11  H    0.000000
    12  H    1.793636   0.000000
    13  H    4.155751   3.045095   0.000000
    14  H    4.824686   4.303400   1.789287   0.000000
 Stoichiometry    C4H9O(2)
 Framework group  C1[X(C4H9O)]
 Deg. of freedom    36
 Full point group                 C1      NOp   1
 Largest Abelian subgroup         C1      NOp   1
 Largest concise Abelian subgroup C1      NOp   1
                         Standard orientation:                         
 ---------------------------------------------------------------------
 Center     Atomic      Atomic             Coordinates (Angstroms)
 Number     Number       Type             X           Y           Z
 ---------------------------------------------------------------------
      1          8           0        1.263680   -1.015983   -0.289207
      2          6           0       -1.234708    0.562119   -0.029139
      3          6           0        0.146506    1.130101   -0.165504
      4          6           0       -1.289497   -0.939938    0.102226
      5          6           0        1.255945    0.228570    0.316968
      6          1           0       -1.735852    1.017743    0.861363
      7          1           0       -1.837308    0.874088   -0.919548
      8          1           0        0.341282    1.376471   -1.239602
      9          1           0        0.216709    2.100530    0.387817
     10          1           0       -0.296461   -1.346622   -0.215276
     11          1           0       -2.080334   -1.395299   -0.529453
     12          1           0       -1.447904   -1.249696    1.142661
     13          1           0        1.247759    0.136800    1.431857
     14          1           0        2.213184    0.728737    0.046538
 ---------------------------------------------------------------------
 Rotational constants (GHZ):           7.1759069           4.4751103           3.0928354
 Leave Link  202 at Tue Apr  9 00:13:38 2019, MaxMem=   671088640 cpu:               0.1 elap:               0.0
 (Enter /shared/centos7/gaussian/g16/l301.exe)
 Standard basis: 6-311+G(2df,2p) (5D, 7F)
 Ernie: Thresh=  0.10000D-02 Tol=  0.10000D-05 Strict=F.
 There are   276 symmetry adapted cartesian basis functions of A   symmetry.
 There are   251 symmetry adapted basis functions of A   symmetry.
   251 basis functions,   359 primitive gaussians,   276 cartesian basis functions
    21 alpha electrons       20 beta electrons
       nuclear repulsion energy       187.4497840654 Hartrees.
 IExCor= 4336 DFT=T Ex+Corr=M062X ExCW=0 ScaHFX=  0.540000
 ScaDFX=  1.000000  1.000000  1.000000  1.000000 ScalE2=  1.000000  1.000000
 IRadAn=      5 IRanWt=     -1 IRanGd=            0 ICorTp=0 IEmpDi=  4
 NAtoms=   14 NActive=   14 NUniq=   14 SFac= 1.00D+00 NAtFMM=   60 NAOKFM=F Big=F
 Integral buffers will be    131072 words long.
 Raffenetti 2 integral format.
 Two-electron integral symmetry is turned on.
 Leave Link  301 at Tue Apr  9 00:13:39 2019, MaxMem=   671088640 cpu:               0.9 elap:               0.1
 (Enter /shared/centos7/gaussian/g16/l302.exe)
 NPDir=0 NMtPBC=     1 NCelOv=     1 NCel=       1 NClECP=     1 NCelD=      1
         NCelK=      1 NCelE2=     1 NClLst=     1 CellRange=     0.0.
 One-electron integrals computed using PRISM.
 One-electron integral symmetry used in STVInt
 NBasis=   251 RedAO= T EigKep=  1.66D-05  NBF=   251
 NBsUse=   251 1.00D-06 EigRej= -1.00D+00 NBFU=   251
 Precomputing XC quadrature grid using
 IXCGrd= 4 IRadAn=           5 IRanWt=          -1 IRanGd=           0 AccXCQ= 0.00D+00.
 Generated NRdTot=       0 NPtTot=           0 NUsed=           0 NTot=          32
 NSgBfM=   276   276   276   276   276 MxSgAt=    14 MxSgA2=    14.
 Leave Link  302 at Tue Apr  9 00:13:39 2019, MaxMem=   671088640 cpu:               5.3 elap:               0.3
 (Enter /shared/centos7/gaussian/g16/l303.exe)
 DipDrv:  MaxL=1.
 Leave Link  303 at Tue Apr  9 00:13:39 2019, MaxMem=   671088640 cpu:               0.5 elap:               0.0
 (Enter /shared/centos7/gaussian/g16/l401.exe)
 ExpMin= 4.38D-02 ExpMax= 8.59D+03 ExpMxC= 1.30D+03 IAcc=3 IRadAn=         5 AccDes= 0.00D+00
 Harris functional with IExCor= 1009 and IRadAn=       5 diagonalized for initial guess.
 HarFok:  IExCor= 1009 AccDes= 0.00D+00 IRadAn=         5 IDoV= 1 UseB2=F ITyADJ=14
 ICtDFT=  3500011 ScaDFX=  1.000000  1.000000  1.000000  1.000000
 FoFCou: FMM=F IPFlag=           0 FMFlag=      100000 FMFlg1=           0
         NFxFlg=           0 DoJE=T BraDBF=F KetDBF=T FulRan=T
         wScrn=  0.000000 ICntrl=       500 IOpCl=  0 I1Cent=   200000004 NGrid=           0
         NMat0=    1 NMatS0=      1 NMatT0=    0 NMatD0=    1 NMtDS0=    0 NMtDT0=    0
 Petite list used in FoFCou.
 Harris En= -232.860387849887    
 JPrj=0 DoOrth=F DoCkMO=F.
 Initial guess <Sx>= 0.0000 <Sy>= 0.0000 <Sz>= 0.5000 <S**2>= 0.7500 S= 0.5000
 Leave Link  401 at Tue Apr  9 00:13:40 2019, MaxMem=   671088640 cpu:              17.9 elap:               0.9
 (Enter /shared/centos7/gaussian/g16/l502.exe)
 Integral symmetry usage will be decided dynamically.
 UHF open shell SCF:
 Using DIIS extrapolation, IDIIS=  1040.
 NGot=   671088640 LenX=   670928170 LenY=   670851553
 Requested convergence on RMS density matrix=1.00D-08 within 128 cycles.
 Requested convergence on MAX density matrix=1.00D-06.
 Requested convergence on             energy=1.00D-06.
 No special actions if energy rises.
 Fock matrices will be formed incrementally for  20 cycles.

 Cycle   1  Pass 1  IDiag  1:
 FoFJK:  IHMeth= 1 ICntrl=       0 DoSepK=F KAlg= 0 I1Cent=           0 FoldK=F
 IRaf= 990000000 NMat=       1 IRICut=       1 DoRegI=T DoRafI=F ISym2E= 0 IDoP0=0 IntGTp=1.
 FoFCou: FMM=F IPFlag=           0 FMFlag=      100000 FMFlg1=           0
         NFxFlg=           0 DoJE=F BraDBF=F KetDBF=F FulRan=T
         wScrn=  0.000000 ICntrl=         0 IOpCl=  1 I1Cent=           0 NGrid=           0
         NMat0=    1 NMatS0=      1 NMatT0=    0 NMatD0=    1 NMtDS0=    0 NMtDT0=    0
 Symmetry not used in FoFCou.
 E= -232.750587940504    
 DIIS: error= 2.26D-02 at cycle   1 NSaved=   1.
 NSaved= 1 IEnMin= 1 EnMin= -232.750587940504     IErMin= 1 ErrMin= 2.26D-02
 ErrMax= 2.26D-02  0.00D+00 EMaxC= 1.00D-01 BMatC= 8.17D-01 BMatP= 8.17D-01
 IDIUse=3 WtCom= 7.74D-01 WtEn= 2.26D-01
 Coeff-Com:  0.100D+01
 Coeff-En:   0.100D+01
 Coeff:      0.100D+01
 Gap=     0.340 Goal=   None    Shift=    0.000
 Gap=     0.244 Goal=   None    Shift=    0.000
 GapD=    0.244 DampG=1.000 DampE=0.500 DampFc=0.5000 IDamp=-1.
 Damping current iteration by 5.00D-01
 RMSDP=2.53D-03 MaxDP=1.07D-01              OVMax= 1.53D-01

 Cycle   2  Pass 1  IDiag  1:
 RMSU=  1.24D-03    CP:  9.73D-01
 E= -232.840513878457     Delta-E=       -0.089925937954 Rises=F Damp=T
 DIIS: error= 5.58D-03 at cycle   2 NSaved=   2.
 NSaved= 2 IEnMin= 2 EnMin= -232.840513878457     IErMin= 2 ErrMin= 5.58D-03
 ErrMax= 5.58D-03  0.00D+00 EMaxC= 1.00D-01 BMatC= 5.84D-02 BMatP= 8.17D-01
 IDIUse=3 WtCom= 9.44D-01 WtEn= 5.58D-02
 Coeff-Com: -0.925D-01 0.109D+01
 Coeff-En:   0.000D+00 0.100D+01
 Coeff:     -0.873D-01 0.109D+01
 Gap=     0.359 Goal=   None    Shift=    0.000
 Gap=     0.248 Goal=   None    Shift=    0.000
 RMSDP=1.04D-03 MaxDP=3.79D-02 DE=-8.99D-02 OVMax= 9.00D-02

 Cycle   3  Pass 1  IDiag  1:
 RMSU=  1.02D-03    CP:  9.75D-01  8.49D-01
 E= -232.930713328745     Delta-E=       -0.090199450288 Rises=F Damp=F
 DIIS: error= 3.76D-03 at cycle   3 NSaved=   3.
 NSaved= 3 IEnMin= 3 EnMin= -232.930713328745     IErMin= 3 ErrMin= 3.76D-03
 ErrMax= 3.76D-03  0.00D+00 EMaxC= 1.00D-01 BMatC= 1.10D-02 BMatP= 5.84D-02
 IDIUse=3 WtCom= 9.62D-01 WtEn= 3.76D-02
 Coeff-Com: -0.802D-01 0.288D+00 0.792D+00
 Coeff-En:   0.000D+00 0.000D+00 0.100D+01
 Coeff:     -0.772D-01 0.277D+00 0.800D+00
 Gap=     0.353 Goal=   None    Shift=    0.000
 Gap=     0.239 Goal=   None    Shift=    0.000
 RMSDP=2.90D-04 MaxDP=1.43D-02 DE=-9.02D-02 OVMax= 1.62D-02

 Cycle   4  Pass 1  IDiag  1:
 RMSU=  2.50D-04    CP:  9.68D-01  9.26D-01  9.12D-01
 E= -232.933694955916     Delta-E=       -0.002981627171 Rises=F Damp=F
 DIIS: error= 1.24D-03 at cycle   4 NSaved=   4.
 NSaved= 4 IEnMin= 4 EnMin= -232.933694955916     IErMin= 4 ErrMin= 1.24D-03
 ErrMax= 1.24D-03  0.00D+00 EMaxC= 1.00D-01 BMatC= 1.19D-03 BMatP= 1.10D-02
 IDIUse=3 WtCom= 9.88D-01 WtEn= 1.24D-02
 Coeff-Com: -0.184D-01 0.308D-01 0.244D+00 0.743D+00
 Coeff-En:   0.000D+00 0.000D+00 0.000D+00 0.100D+01
 Coeff:     -0.182D-01 0.304D-01 0.241D+00 0.747D+00
 Gap=     0.352 Goal=   None    Shift=    0.000
 Gap=     0.245 Goal=   None    Shift=    0.000
 RMSDP=1.01D-04 MaxDP=4.16D-03 DE=-2.98D-03 OVMax= 1.45D-02

 Cycle   5  Pass 1  IDiag  1:
 RMSU=  8.62D-05    CP:  9.69D-01  9.15D-01  9.59D-01  9.44D-01
 E= -232.934207917081     Delta-E=       -0.000512961165 Rises=F Damp=F
 DIIS: error= 5.69D-04 at cycle   5 NSaved=   5.
 NSaved= 5 IEnMin= 5 EnMin= -232.934207917081     IErMin= 5 ErrMin= 5.69D-04
 ErrMax= 5.69D-04  0.00D+00 EMaxC= 1.00D-01 BMatC= 4.16D-04 BMatP= 1.19D-03
 IDIUse=3 WtCom= 9.94D-01 WtEn= 5.69D-03
 Coeff-Com:  0.433D-02-0.278D-01-0.189D-01 0.309D+00 0.733D+00
 Coeff-En:   0.000D+00 0.000D+00 0.000D+00 0.000D+00 0.100D+01
 Coeff:      0.430D-02-0.276D-01-0.187D-01 0.307D+00 0.735D+00
 Gap=     0.355 Goal=   None    Shift=    0.000
 Gap=     0.249 Goal=   None    Shift=    0.000
 RMSDP=6.61D-05 MaxDP=3.80D-03 DE=-5.13D-04 OVMax= 9.38D-03

 Cycle   6  Pass 1  IDiag  1:
 RMSU=  3.77D-05    CP:  9.69D-01  9.09D-01  9.72D-01  1.11D+00  1.37D+00
 E= -232.934432954275     Delta-E=       -0.000225037194 Rises=F Damp=F
 DIIS: error= 4.59D-04 at cycle   6 NSaved=   6.
 NSaved= 6 IEnMin= 6 EnMin= -232.934432954275     IErMin= 6 ErrMin= 4.59D-04
 ErrMax= 4.59D-04  0.00D+00 EMaxC= 1.00D-01 BMatC= 8.01D-05 BMatP= 4.16D-04
 IDIUse=3 WtCom= 9.95D-01 WtEn= 4.59D-03
 Coeff-Com:  0.792D-02-0.173D-01-0.967D-01-0.194D+00 0.113D+00 0.119D+01
 Coeff-En:   0.000D+00 0.000D+00 0.000D+00 0.000D+00 0.000D+00 0.100D+01
 Coeff:      0.788D-02-0.172D-01-0.962D-01-0.193D+00 0.112D+00 0.119D+01
 Gap=     0.355 Goal=   None    Shift=    0.000
 Gap=     0.253 Goal=   None    Shift=    0.000
 RMSDP=7.34D-05 MaxDP=4.81D-03 DE=-2.25D-04 OVMax= 1.42D-02

 Cycle   7  Pass 1  IDiag  1:
 RMSU=  3.17D-05    CP:  9.68D-01  9.12D-01  9.80D-01  1.28D+00  1.88D+00
                    CP:  1.57D+00
 E= -232.934592268704     Delta-E=       -0.000159314429 Rises=F Damp=F
 DIIS: error= 1.94D-04 at cycle   7 NSaved=   7.
 NSaved= 7 IEnMin= 7 EnMin= -232.934592268704     IErMin= 7 ErrMin= 1.94D-04
 ErrMax= 1.94D-04  0.00D+00 EMaxC= 1.00D-01 BMatC= 3.26D-05 BMatP= 8.01D-05
 IDIUse=3 WtCom= 9.98D-01 WtEn= 1.94D-03
 Coeff-Com:  0.168D-02-0.131D-02-0.241D-01-0.971D-01-0.874D-01 0.403D+00
 Coeff-Com:  0.805D+00
 Coeff-En:   0.000D+00 0.000D+00 0.000D+00 0.000D+00 0.000D+00 0.000D+00
 Coeff-En:   0.100D+01
 Coeff:      0.168D-02-0.131D-02-0.241D-01-0.969D-01-0.872D-01 0.402D+00
 Coeff:      0.806D+00
 Gap=     0.356 Goal=   None    Shift=    0.000
 Gap=     0.254 Goal=   None    Shift=    0.000
 RMSDP=3.41D-05 MaxDP=2.32D-03 DE=-1.59D-04 OVMax= 8.90D-03

 Cycle   8  Pass 1  IDiag  1:
 RMSU=  1.25D-05    CP:  9.67D-01  9.13D-01  9.81D-01  1.35D+00  2.04D+00
                    CP:  1.93D+00  1.59D+00
 E= -232.934648607936     Delta-E=       -0.000056339231 Rises=F Damp=F
 DIIS: error= 1.75D-04 at cycle   8 NSaved=   8.
 NSaved= 8 IEnMin= 8 EnMin= -232.934648607936     IErMin= 8 ErrMin= 1.75D-04
 ErrMax= 1.75D-04  0.00D+00 EMaxC= 1.00D-01 BMatC= 1.92D-05 BMatP= 3.26D-05
 IDIUse=3 WtCom= 9.98D-01 WtEn= 1.75D-03
 Coeff-Com: -0.252D-02 0.585D-02 0.337D-01 0.602D-01-0.425D-01-0.350D+00
 Coeff-Com:  0.440D-01 0.125D+01
 Coeff-En:   0.000D+00 0.000D+00 0.000D+00 0.000D+00 0.000D+00 0.000D+00
 Coeff-En:   0.000D+00 0.100D+01
 Coeff:     -0.252D-02 0.584D-02 0.336D-01 0.601D-01-0.424D-01-0.350D+00
 Coeff:      0.439D-01 0.125D+01
 Gap=     0.356 Goal=   None    Shift=    0.000
 Gap=     0.255 Goal=   None    Shift=    0.000
 RMSDP=4.27D-05 MaxDP=2.54D-03 DE=-5.63D-05 OVMax= 1.27D-02

 Cycle   9  Pass 1  IDiag  1:
 RMSU=  9.54D-06    CP:  9.67D-01  9.15D-01  9.82D-01  1.40D+00  2.19D+00
                    CP:  2.34D+00  2.48D+00  2.40D+00
 E= -232.934715727461     Delta-E=       -0.000067119525 Rises=F Damp=F
 DIIS: error= 1.52D-04 at cycle   9 NSaved=   9.
 NSaved= 9 IEnMin= 9 EnMin= -232.934715727461     IErMin= 9 ErrMin= 1.52D-04
 ErrMax= 1.52D-04  0.00D+00 EMaxC= 1.00D-01 BMatC= 1.45D-05 BMatP= 1.92D-05
 IDIUse=3 WtCom= 9.98D-01 WtEn= 1.52D-03
 Coeff-Com: -0.578D-04-0.104D-02 0.121D-01 0.595D-01 0.981D-01-0.265D+00
 Coeff-Com: -0.633D+00-0.439D+00 0.217D+01
 Coeff-En:   0.000D+00 0.000D+00 0.000D+00 0.000D+00 0.000D+00 0.000D+00
 Coeff-En:   0.000D+00 0.000D+00 0.100D+01
 Coeff:     -0.577D-04-0.104D-02 0.121D-01 0.594D-01 0.979D-01-0.265D+00
 Coeff:     -0.632D+00-0.438D+00 0.217D+01
 Gap=     0.357 Goal=   None    Shift=    0.000
 Gap=     0.256 Goal=   None    Shift=    0.000
 RMSDP=8.65D-05 MaxDP=4.54D-03 DE=-6.71D-05 OVMax= 2.66D-02

 Cycle  10  Pass 1  IDiag  1:
 RMSU=  5.23D-05    CP:  9.66D-01  9.18D-01  9.83D-01  1.51D+00  2.48D+00
                    CP:  3.00D+00  3.00D+00  3.00D+00  3.00D+00
 E= -232.934829874649     Delta-E=       -0.000114147189 Rises=F Damp=F
 DIIS: error= 1.17D-04 at cycle  10 NSaved=  10.
 NSaved=10 IEnMin=10 EnMin= -232.934829874649     IErMin=10 ErrMin= 1.17D-04
 ErrMax= 1.17D-04  0.00D+00 EMaxC= 1.00D-01 BMatC= 8.42D-06 BMatP= 1.45D-05
 IDIUse=3 WtCom= 9.99D-01 WtEn= 1.17D-03
 Coeff-Com:  0.340D-02-0.692D-02-0.394D-01-0.838D-01 0.496D-01 0.440D+00
 Coeff-Com:  0.152D+00-0.157D+01-0.550D+00 0.261D+01
 Coeff-En:   0.000D+00 0.000D+00 0.000D+00 0.000D+00 0.000D+00 0.000D+00
 Coeff-En:   0.000D+00 0.000D+00 0.000D+00 0.100D+01
 Coeff:      0.340D-02-0.691D-02-0.394D-01-0.837D-01 0.495D-01 0.439D+00
 Coeff:      0.151D+00-0.157D+01-0.549D+00 0.261D+01
 Gap=     0.357 Goal=   None    Shift=    0.000
 Gap=     0.257 Goal=   None    Shift=    0.000
 RMSDP=1.60D-04 MaxDP=7.73D-03 DE=-1.14D-04 OVMax= 5.06D-02

 Cycle  11  Pass 1  IDiag  1:
 RMSU=  6.76D-05    CP:  9.64D-01  9.19D-01  9.87D-01  1.70D+00  2.97D+00
                    CP:  3.00D+00  3.00D+00  3.00D+00  3.00D+00  3.00D+00
 E= -232.934956259919     Delta-E=       -0.000126385269 Rises=F Damp=F
 DIIS: error= 4.11D-05 at cycle  11 NSaved=  11.
 NSaved=11 IEnMin=11 EnMin= -232.934956259919     IErMin=11 ErrMin= 4.11D-05
 ErrMax= 4.11D-05  0.00D+00 EMaxC= 1.00D-01 BMatC= 2.66D-06 BMatP= 8.42D-06
 IDIUse=1 WtCom= 1.00D+00 WtEn= 0.00D+00
 Coeff-Com:  0.437D-03-0.363D-03-0.862D-02-0.248D-01 0.868D-02 0.140D+00
 Coeff-Com:  0.106D+00-0.346D+00-0.436D+00 0.664D+00 0.897D+00
 Coeff:      0.437D-03-0.363D-03-0.862D-02-0.248D-01 0.868D-02 0.140D+00
 Coeff:      0.106D+00-0.346D+00-0.436D+00 0.664D+00 0.897D+00
 Gap=     0.357 Goal=   None    Shift=    0.000
 Gap=     0.257 Goal=   None    Shift=    0.000
 RMSDP=3.04D-05 MaxDP=1.52D-03 DE=-1.26D-04 OVMax= 9.81D-03

 Cycle  12  Pass 1  IDiag  1:
 RMSU=  1.96D-05    CP:  9.64D-01  9.19D-01  9.88D-01  1.73D+00  3.00D+00
                    CP:  3.00D+00  3.00D+00  3.00D+00  3.00D+00  3.00D+00
                    CP:  1.32D+00
 E= -232.934967846733     Delta-E=       -0.000011586815 Rises=F Damp=F
 DIIS: error= 3.03D-05 at cycle  12 NSaved=  12.
 NSaved=12 IEnMin=12 EnMin= -232.934967846733     IErMin=12 ErrMin= 3.03D-05
 ErrMax= 3.03D-05  0.00D+00 EMaxC= 1.00D-01 BMatC= 9.12D-07 BMatP= 2.66D-06
 IDIUse=1 WtCom= 1.00D+00 WtEn= 0.00D+00
 Coeff-Com: -0.864D-03 0.191D-02 0.101D-01 0.203D-01-0.410D-02-0.116D+00
 Coeff-Com: -0.429D-01 0.374D+00 0.172D+00-0.801D+00-0.353D+00 0.174D+01
 Coeff:     -0.864D-03 0.191D-02 0.101D-01 0.203D-01-0.410D-02-0.116D+00
 Coeff:     -0.429D-01 0.374D+00 0.172D+00-0.801D+00-0.353D+00 0.174D+01
 Gap=     0.358 Goal=   None    Shift=    0.000
 Gap=     0.256 Goal=   None    Shift=    0.000
 RMSDP=4.70D-05 MaxDP=2.36D-03 DE=-1.16D-05 OVMax= 1.51D-02

 Cycle  13  Pass 1  IDiag  1:
 RMSU=  5.75D-06    CP:  9.63D-01  9.20D-01  9.89D-01  1.77D+00  3.00D+00
                    CP:  3.00D+00  3.00D+00  3.00D+00  3.00D+00  3.00D+00
                    CP:  1.81D+00  2.55D+00
 E= -232.934976523135     Delta-E=       -0.000008676402 Rises=F Damp=F
 DIIS: error= 1.24D-05 at cycle  13 NSaved=  13.
 NSaved=13 IEnMin=13 EnMin= -232.934976523135     IErMin=13 ErrMin= 1.24D-05
 ErrMax= 1.24D-05  0.00D+00 EMaxC= 1.00D-01 BMatC= 2.03D-07 BMatP= 9.12D-07
 IDIUse=1 WtCom= 1.00D+00 WtEn= 0.00D+00
 Coeff-Com: -0.836D-04 0.159D-03 0.206D-02 0.437D-02-0.116D-02-0.325D-01
 Coeff-Com: -0.182D-01 0.844D-01 0.966D-01-0.270D+00-0.307D+00 0.695D+00
 Coeff-Com:  0.746D+00
 Coeff:     -0.836D-04 0.159D-03 0.206D-02 0.437D-02-0.116D-02-0.325D-01
 Coeff:     -0.182D-01 0.844D-01 0.966D-01-0.270D+00-0.307D+00 0.695D+00
 Coeff:      0.746D+00
 Gap=     0.358 Goal=   None    Shift=    0.000
 Gap=     0.256 Goal=   None    Shift=    0.000
 RMSDP=1.25D-05 MaxDP=6.19D-04 DE=-8.68D-06 OVMax= 3.94D-03

 Cycle  14  Pass 1  IDiag  1:
 RMSU=  1.15D-06    CP:  9.63D-01  9.19D-01  9.89D-01  1.79D+00  3.00D+00
                    CP:  3.00D+00  3.00D+00  3.00D+00  3.00D+00  3.00D+00
                    CP:  1.94D+00  2.94D+00  1.38D+00
 E= -232.934977089271     Delta-E=       -0.000000566136 Rises=F Damp=F
 DIIS: error= 3.39D-06 at cycle  14 NSaved=  14.
 NSaved=14 IEnMin=14 EnMin= -232.934977089271     IErMin=14 ErrMin= 3.39D-06
 ErrMax= 3.39D-06  0.00D+00 EMaxC= 1.00D-01 BMatC= 2.01D-08 BMatP= 2.03D-07
 IDIUse=1 WtCom= 1.00D+00 WtEn= 0.00D+00
 Coeff-Com:  0.146D-03-0.315D-03-0.143D-02-0.257D-02 0.349D-03 0.185D-01
 Coeff-Com: -0.332D-02-0.650D-01 0.795D-02 0.121D+00 0.207D-01-0.307D+00
 Coeff-Com:  0.700D-02 0.120D+01
 Coeff:      0.146D-03-0.315D-03-0.143D-02-0.257D-02 0.349D-03 0.185D-01
 Coeff:     -0.332D-02-0.650D-01 0.795D-02 0.121D+00 0.207D-01-0.307D+00
 Coeff:      0.700D-02 0.120D+01
 Gap=     0.358 Goal=   None    Shift=    0.000
 Gap=     0.256 Goal=   None    Shift=    0.000
 RMSDP=3.04D-06 MaxDP=1.56D-04 DE=-5.66D-07 OVMax= 9.23D-04

 Cycle  15  Pass 1  IDiag  1:
 RMSU=  1.09D-06    CP:  9.63D-01  9.19D-01  9.89D-01  1.79D+00  3.00D+00
                    CP:  3.00D+00  3.00D+00  3.00D+00  3.00D+00  3.00D+00
                    CP:  1.97D+00  3.00D+00  1.47D+00  1.04D+00
 E= -232.934977123348     Delta-E=       -0.000000034076 Rises=F Damp=F
 DIIS: error= 1.06D-06 at cycle  15 NSaved=  15.
 NSaved=15 IEnMin=15 EnMin= -232.934977123348     IErMin=15 ErrMin= 1.06D-06
 ErrMax= 1.06D-06  0.00D+00 EMaxC= 1.00D-01 BMatC= 1.22D-09 BMatP= 2.01D-08
 IDIUse=1 WtCom= 1.00D+00 WtEn= 0.00D+00
 Coeff-Com: -0.160D-05-0.145D-05-0.841D-04-0.258D-03 0.768D-03 0.114D-02
 Coeff-Com: -0.968D-04-0.617D-02-0.144D-02 0.113D-01 0.318D-01-0.519D-01
 Coeff-Com: -0.480D-01 0.335D-01 0.103D+01
 Coeff:     -0.160D-05-0.145D-05-0.841D-04-0.258D-03 0.768D-03 0.114D-02
 Coeff:     -0.968D-04-0.617D-02-0.144D-02 0.113D-01 0.318D-01-0.519D-01
 Coeff:     -0.480D-01 0.335D-01 0.103D+01
 Gap=     0.358 Goal=   None    Shift=    0.000
 Gap=     0.256 Goal=   None    Shift=    0.000
 RMSDP=2.42D-07 MaxDP=1.22D-05 DE=-3.41D-08 OVMax= 5.95D-05

 Cycle  16  Pass 1  IDiag  1:
 RMSU=  1.17D-07    CP:  9.63D-01  9.19D-01  9.89D-01  1.79D+00  3.00D+00
                    CP:  3.00D+00  3.00D+00  3.00D+00  3.00D+00  3.00D+00
                    CP:  1.97D+00  3.00D+00  1.48D+00  1.07D+00  1.12D+00
 E= -232.934977124215     Delta-E=       -0.000000000867 Rises=F Damp=F
 DIIS: error= 5.78D-07 at cycle  16 NSaved=  16.
 NSaved=16 IEnMin=16 EnMin= -232.934977124215     IErMin=16 ErrMin= 5.78D-07
 ErrMax= 5.78D-07  0.00D+00 EMaxC= 1.00D-01 BMatC= 1.99D-10 BMatP= 1.22D-09
 IDIUse=1 WtCom= 1.00D+00 WtEn= 0.00D+00
 Coeff-Com: -0.103D-04 0.226D-04 0.952D-04 0.148D-03 0.215D-05-0.138D-02
 Coeff-Com: -0.556D-04 0.550D-02 0.170D-02-0.141D-01-0.254D-02 0.343D-01
 Coeff-Com:  0.150D-02-0.131D+00-0.102D+00 0.121D+01
 Coeff:     -0.103D-04 0.226D-04 0.952D-04 0.148D-03 0.215D-05-0.138D-02
 Coeff:     -0.556D-04 0.550D-02 0.170D-02-0.141D-01-0.254D-02 0.343D-01
 Coeff:      0.150D-02-0.131D+00-0.102D+00 0.121D+01
 Gap=     0.358 Goal=   None    Shift=    0.000
 Gap=     0.256 Goal=   None    Shift=    0.000
 RMSDP=1.18D-07 MaxDP=5.00D-06 DE=-8.67D-10 OVMax= 2.64D-05

 Cycle  17  Pass 1  IDiag  1:
 RMSU=  8.67D-08    CP:  9.63D-01  9.19D-01  9.89D-01  1.79D+00  3.00D+00
                    CP:  3.00D+00  3.00D+00  3.00D+00  3.00D+00  3.00D+00
                    CP:  1.97D+00  3.00D+00  1.48D+00  1.07D+00  1.11D+00
                    CP:  1.32D+00
 E= -232.934977124478     Delta-E=       -0.000000000263 Rises=F Damp=F
 DIIS: error= 2.84D-07 at cycle  17 NSaved=  17.
 NSaved=17 IEnMin=17 EnMin= -232.934977124478     IErMin=17 ErrMin= 2.84D-07
 ErrMax= 2.84D-07  0.00D+00 EMaxC= 1.00D-01 BMatC= 6.00D-11 BMatP= 1.99D-10
 IDIUse=1 WtCom= 1.00D+00 WtEn= 0.00D+00
 Coeff-Com: -0.295D-05 0.796D-05 0.557D-04 0.123D-03-0.201D-03-0.595D-03
 Coeff-Com: -0.516D-03 0.270D-02 0.257D-02-0.651D-02-0.579D-02 0.128D-01
 Coeff-Com:  0.781D-02-0.175D-01-0.254D+00 0.324D+00 0.935D+00
 Coeff:     -0.295D-05 0.796D-05 0.557D-04 0.123D-03-0.201D-03-0.595D-03
 Coeff:     -0.516D-03 0.270D-02 0.257D-02-0.651D-02-0.579D-02 0.128D-01
 Coeff:      0.781D-02-0.175D-01-0.254D+00 0.324D+00 0.935D+00
 Gap=     0.358 Goal=   None    Shift=    0.000
 Gap=     0.256 Goal=   None    Shift=    0.000
 RMSDP=5.54D-08 MaxDP=2.28D-06 DE=-2.63D-10 OVMax= 9.60D-06

 Cycle  18  Pass 1  IDiag  1:
 RMSU=  2.26D-08    CP:  9.63D-01  9.19D-01  9.89D-01  1.79D+00  3.00D+00
                    CP:  3.00D+00  3.00D+00  3.00D+00  3.00D+00  3.00D+00
                    CP:  1.97D+00  3.00D+00  1.48D+00  1.06D+00  1.11D+00
                    CP:  1.42D+00  1.45D+00
 E= -232.934977124539     Delta-E=       -0.000000000061 Rises=F Damp=F
 DIIS: error= 1.04D-07 at cycle  18 NSaved=  18.
 NSaved=18 IEnMin=18 EnMin= -232.934977124539     IErMin=18 ErrMin= 1.04D-07
 ErrMax= 1.04D-07  0.00D+00 EMaxC= 1.00D-01 BMatC= 1.42D-11 BMatP= 6.00D-11
 IDIUse=1 WtCom= 1.00D+00 WtEn= 0.00D+00
 Coeff-Com:  0.296D-05-0.589D-05-0.233D-04-0.495D-04-0.174D-04 0.361D-03
 Coeff-Com:  0.765D-04-0.100D-02-0.223D-03 0.181D-02 0.788D-03-0.566D-02
 Coeff-Com:  0.864D-03 0.251D-01-0.258D-01-0.251D+00 0.198D+00 0.106D+01
 Coeff:      0.296D-05-0.589D-05-0.233D-04-0.495D-04-0.174D-04 0.361D-03
 Coeff:      0.765D-04-0.100D-02-0.223D-03 0.181D-02 0.788D-03-0.566D-02
 Coeff:      0.864D-03 0.251D-01-0.258D-01-0.251D+00 0.198D+00 0.106D+01
 Gap=     0.358 Goal=   None    Shift=    0.000
 Gap=     0.256 Goal=   None    Shift=    0.000
 RMSDP=3.05D-08 MaxDP=1.46D-06 DE=-6.14D-11 OVMax= 6.71D-06

 Cycle  19  Pass 1  IDiag  1:
 RMSU=  1.55D-08    CP:  9.63D-01  9.19D-01  9.89D-01  1.79D+00  3.00D+00
                    CP:  3.00D+00  3.00D+00  3.00D+00  3.00D+00  3.00D+00
                    CP:  1.97D+00  3.00D+00  1.48D+00  1.06D+00  1.12D+00
                    CP:  1.52D+00  1.50D+00  1.20D+00
 E= -232.934977124555     Delta-E=       -0.000000000015 Rises=F Damp=F
 DIIS: error= 2.78D-08 at cycle  19 NSaved=  19.
 NSaved=19 IEnMin=19 EnMin= -232.934977124555     IErMin=19 ErrMin= 2.78D-08
 ErrMax= 2.78D-08  0.00D+00 EMaxC= 1.00D-01 BMatC= 6.83D-13 BMatP= 1.42D-11
 IDIUse=1 WtCom= 1.00D+00 WtEn= 0.00D+00
 Coeff-Com: -0.111D-06-0.110D-06-0.450D-06 0.238D-06 0.220D-04 0.207D-04
 Coeff-Com: -0.489D-04-0.243D-03 0.326D-04 0.611D-03 0.802D-03-0.265D-02
 Coeff-Com: -0.106D-02 0.677D-02 0.275D-01-0.556D-01-0.945D-01 0.299D-01
 Coeff-Com:  0.109D+01
 Coeff:     -0.111D-06-0.110D-06-0.450D-06 0.238D-06 0.220D-04 0.207D-04
 Coeff:     -0.489D-04-0.243D-03 0.326D-04 0.611D-03 0.802D-03-0.265D-02
 Coeff:     -0.106D-02 0.677D-02 0.275D-01-0.556D-01-0.945D-01 0.299D-01
 Coeff:      0.109D+01
 Gap=     0.358 Goal=   None    Shift=    0.000
 Gap=     0.256 Goal=   None    Shift=    0.000
 RMSDP=7.64D-09 MaxDP=2.96D-07 DE=-1.55D-11 OVMax= 1.23D-06

 SCF Done:  E(UM062X) =  -232.934977125     A.U. after   19 cycles
            NFock= 19  Conv=0.76D-08     -V/T= 2.0041
 <Sx>= 0.0000 <Sy>= 0.0000 <Sz>= 0.5000 <S**2>= 0.7557 S= 0.5029
 <L.S>= 0.000000000000E+00
 KE= 2.319900301508D+02 PE=-9.178038170284D+02 EE= 2.654290256876D+02
 Annihilation of the first spin contaminant:
 S**2 before annihilation     0.7557,   after     0.7500
 Leave Link  502 at Tue Apr  9 00:14:39 2019, MaxMem=   671088640 cpu:            1176.6 elap:              58.9
 (Enter /shared/centos7/gaussian/g16/l801.exe)
 DoSCS=F DFT=T ScalE2(SS,OS)=  1.000000  1.000000
 Range of M.O.s used for correlation:     1   251
 NBasis=   251 NAE=    21 NBE=    20 NFC=     0 NFV=     0
 NROrb=    251 NOA=    21 NOB=    20 NVA=   230 NVB=   231

 **** Warning!!: The largest alpha MO coefficient is  0.66495510D+02


 **** Warning!!: The largest beta MO coefficient is  0.69026599D+02

 Leave Link  801 at Tue Apr  9 00:14:39 2019, MaxMem=   671088640 cpu:               0.5 elap:               0.0
 (Enter /shared/centos7/gaussian/g16/l1101.exe)
 Using compressed storage, NAtomX=    14.
 Will process     15 centers per pass.
 Leave Link 1101 at Tue Apr  9 00:14:39 2019, MaxMem=   671088640 cpu:               6.6 elap:               0.4
 (Enter /shared/centos7/gaussian/g16/l1102.exe)
 Symmetrizing basis deriv contribution to polar:
 IMax=3 JMax=2 DiffMx= 0.00D+00
 Leave Link 1102 at Tue Apr  9 00:14:39 2019, MaxMem=   671088640 cpu:               0.5 elap:               0.1
 (Enter /shared/centos7/gaussian/g16/l1110.exe)
 Forming Gx(P) for the SCF density, NAtomX=    14.
 Integral derivatives from FoFJK, PRISM(SPDF).
 Do as many integral derivatives as possible in FoFJK.
 G2DrvN: MDV=     671087496.
 G2DrvN: will do    15 centers at a time, making    1 passes.
 Calling FoFCou, ICntrl=  3107 FMM=F I1Cent=   0 AccDes= 0.00D+00.
 FoFJK:  IHMeth= 1 ICntrl=    3107 DoSepK=F KAlg= 0 I1Cent=           0 FoldK=F
 IRaf=         0 NMat=       1 IRICut=       1 DoRegI=T DoRafI=F ISym2E= 0 IDoP0=0 IntGTp=1.
 FoFCou: FMM=F IPFlag=           0 FMFlag=      100000 FMFlg1=           0
         NFxFlg=           0 DoJE=F BraDBF=F KetDBF=F FulRan=T
         wScrn=  0.000000 ICntrl=      3107 IOpCl=  1 I1Cent=           0 NGrid=           0
         NMat0=    1 NMatS0=      1 NMatT0=    0 NMatD0=    1 NMtDS0=    0 NMtDT0=    0
 Symmetry not used in FoFCou.
 End of G2Drv F.D. properties file   721 does not exist.
 End of G2Drv F.D. properties file   722 does not exist.
 End of G2Drv F.D. properties file   788 does not exist.
 Leave Link 1110 at Tue Apr  9 00:16:05 2019, MaxMem=   671088640 cpu:            1716.0 elap:              85.8
 (Enter /shared/centos7/gaussian/g16/l1002.exe)
 Minotr:  UHF open shell wavefunction.
          IDoAtm=11111111111111
          Direct CPHF calculation.
          Differentiating once with respect to nuclear coordinates.
          Requested convergence is 1.0D-08 RMS, and 1.0D-07 maximum.
          Secondary convergence is 1.0D-12 RMS, and 1.0D-12 maximum.
          NewPWx=T KeepS1=F KeepF1=F KeepIn=T MapXYZ=F SortEE=F KeepMc=T.
         4243 words used for storage of precomputed grid.
 Two-electron integrals replicated using symmetry.
          MDV=     671088640 using IRadAn=       1.
          Solving linear equations simultaneously, MaxMat=     380.
 FoF2E skips out because all densities are zero.
 CalDSu exits because no D1Ps are significant.
 FoFJK:  IHMeth= 1 ICntrl=       0 DoSepK=F KAlg= 0 I1Cent=           0 FoldK=F
 IRaf= 990000000 NMat=      42 IRICut=     105 DoRegI=T DoRafI=T ISym2E= 2 IDoP0=3 IntGTp=3.
 FoFCou: FMM=F IPFlag=           0 FMFlag=      100000 FMFlg1=           0
         NFxFlg=           0 DoJE=F BraDBF=F KetDBF=F FulRan=T
         wScrn=  0.000000 ICntrl=         0 IOpCl=  1 I1Cent=           0 NGrid=           0
         NMat0=   42 NMatS0=     42 NMatT0=    0 NMatD0=   42 NMtDS0=    0 NMtDT0=    0
 Integrals replicated using symmetry in FoFCou.
 Raff kept on since  97.51% of shell-pairs survive, threshold=   0.20 IRatSp=98.
          There are    45 degrees of freedom in the 1st order CPHF.  IDoFFX=6 NUNeed=     0.
     39 vectors produced by pass  0 Test12= 2.10D-14 2.22D-09 XBig12= 1.21D-01 1.21D-01.
 AX will form    39 AO Fock derivatives at one time.
     39 vectors produced by pass  1 Test12= 2.10D-14 2.22D-09 XBig12= 6.33D-03 1.81D-02.
     39 vectors produced by pass  2 Test12= 2.10D-14 2.22D-09 XBig12= 3.94D-04 5.08D-03.
     39 vectors produced by pass  3 Test12= 2.10D-14 2.22D-09 XBig12= 6.07D-06 2.84D-04.
     39 vectors produced by pass  4 Test12= 2.10D-14 2.22D-09 XBig12= 6.95D-08 2.75D-05.
     39 vectors produced by pass  5 Test12= 2.10D-14 2.22D-09 XBig12= 8.76D-10 3.64D-06.
     39 vectors produced by pass  6 Test12= 2.10D-14 2.22D-09 XBig12= 6.81D-12 2.48D-07.
     14 vectors produced by pass  7 Test12= 2.10D-14 2.22D-09 XBig12= 3.69D-14 1.48D-08.
 InvSVY:  IOpt=1 It=  1 EMax= 2.22D-15
 Solved reduced A of dimension   287 with    39 vectors.
 End of Minotr F.D. properties file   721 does not exist.
 End of Minotr F.D. properties file   722 does not exist.
 End of Minotr F.D. properties file   788 does not exist.
 Leave Link 1002 at Tue Apr  9 00:18:24 2019, MaxMem=   671088640 cpu:            2770.3 elap:             138.6
 (Enter /shared/centos7/gaussian/g16/l601.exe)
 Copying SCF densities to generalized density rwf, IOpCl= 1 IROHF=0.

 **********************************************************************

            Population analysis using the SCF density.

 **********************************************************************

 Orbital symmetries:
 Alpha Orbitals:
       Occupied  (A) (A) (A) (A) (A) (A) (A) (A) (A) (A) (A) (A)
                 (A) (A) (A) (A) (A) (A) (A) (A) (A)
       Virtual   (A) (A) (A) (A) (A) (A) (A) (A) (A) (A) (A) (A)
                 (A) (A) (A) (A) (A) (A) (A) (A) (A) (A) (A) (A)
                 (A) (A) (A) (A) (A) (A) (A) (A) (A) (A) (A) (A)
                 (A) (A) (A) (A) (A) (A) (A) (A) (A) (A) (A) (A)
                 (A) (A) (A) (A) (A) (A) (A) (A) (A) (A) (A) (A)
                 (A) (A) (A) (A) (A) (A) (A) (A) (A) (A) (A) (A)
                 (A) (A) (A) (A) (A) (A) (A) (A) (A) (A) (A) (A)
                 (A) (A) (A) (A) (A) (A) (A) (A) (A) (A) (A) (A)
                 (A) (A) (A) (A) (A) (A) (A) (A) (A) (A) (A) (A)
                 (A) (A) (A) (A) (A) (A) (A) (A) (A) (A) (A) (A)
                 (A) (A) (A) (A) (A) (A) (A) (A) (A) (A) (A) (A)
                 (A) (A) (A) (A) (A) (A) (A) (A) (A) (A) (A) (A)
                 (A) (A) (A) (A) (A) (A) (A) (A) (A) (A) (A) (A)
                 (A) (A) (A) (A) (A) (A) (A) (A) (A) (A) (A) (A)
                 (A) (A) (A) (A) (A) (A) (A) (A) (A) (A) (A) (A)
                 (A) (A) (A) (A) (A) (A) (A) (A) (A) (A) (A) (A)
                 (A) (A) (A) (A) (A) (A) (A) (A) (A) (A) (A) (A)
                 (A) (A) (A) (A) (A) (A) (A) (A) (A) (A) (A) (A)
                 (A) (A) (A) (A) (A) (A) (A) (A) (A) (A) (A) (A)
                 (A) (A)
 Beta  Orbitals:
       Occupied  (A) (A) (A) (A) (A) (A) (A) (A) (A) (A) (A) (A)
                 (A) (A) (A) (A) (A) (A) (A) (A)
       Virtual   (A) (A) (A) (A) (A) (A) (A) (A) (A) (A) (A) (A)
                 (A) (A) (A) (A) (A) (A) (A) (A) (A) (A) (A) (A)
                 (A) (A) (A) (A) (A) (A) (A) (A) (A) (A) (A) (A)
                 (A) (A) (A) (A) (A) (A) (A) (A) (A) (A) (A) (A)
                 (A) (A) (A) (A) (A) (A) (A) (A) (A) (A) (A) (A)
                 (A) (A) (A) (A) (A) (A) (A) (A) (A) (A) (A) (A)
                 (A) (A) (A) (A) (A) (A) (A) (A) (A) (A) (A) (A)
                 (A) (A) (A) (A) (A) (A) (A) (A) (A) (A) (A) (A)
                 (A) (A) (A) (A) (A) (A) (A) (A) (A) (A) (A) (A)
                 (A) (A) (A) (A) (A) (A) (A) (A) (A) (A) (A) (A)
                 (A) (A) (A) (A) (A) (A) (A) (A) (A) (A) (A) (A)
                 (A) (A) (A) (A) (A) (A) (A) (A) (A) (A) (A) (A)
                 (A) (A) (A) (A) (A) (A) (A) (A) (A) (A) (A) (A)
                 (A) (A) (A) (A) (A) (A) (A) (A) (A) (A) (A) (A)
                 (A) (A) (A) (A) (A) (A) (A) (A) (A) (A) (A) (A)
                 (A) (A) (A) (A) (A) (A) (A) (A) (A) (A) (A) (A)
                 (A) (A) (A) (A) (A) (A) (A) (A) (A) (A) (A) (A)
                 (A) (A) (A) (A) (A) (A) (A) (A) (A) (A) (A) (A)
                 (A) (A) (A) (A) (A) (A) (A) (A) (A) (A) (A) (A)
                 (A) (A) (A)
 The electronic state is 2-A.
 Alpha  occ. eigenvalues --  -19.66021 -10.59148 -10.54390 -10.53754 -10.52523
 Alpha  occ. eigenvalues --   -1.15154  -0.90372  -0.81981  -0.72235  -0.65549
 Alpha  occ. eigenvalues --   -0.58372  -0.55569  -0.51767  -0.50518  -0.47132
 Alpha  occ. eigenvalues --   -0.45531  -0.44205  -0.41423  -0.38107  -0.35810
 Alpha  occ. eigenvalues --   -0.34464
 Alpha virt. eigenvalues --    0.01294   0.03192   0.03265   0.03946   0.05782
 Alpha virt. eigenvalues --    0.06583   0.06778   0.07417   0.07989   0.10655
 Alpha virt. eigenvalues --    0.10896   0.11385   0.12061   0.12863   0.14036
 Alpha virt. eigenvalues --    0.14940   0.17465   0.19570   0.22171   0.23208
 Alpha virt. eigenvalues --    0.23643   0.24421   0.25710   0.26529   0.26579
 Alpha virt. eigenvalues --    0.27490   0.29983   0.30275   0.30898   0.32682
 Alpha virt. eigenvalues --    0.32934   0.33887   0.38475   0.40636   0.43625
 Alpha virt. eigenvalues --    0.45423   0.46761   0.48195   0.49960   0.50060
 Alpha virt. eigenvalues --    0.51759   0.54227   0.56500   0.56806   0.56987
 Alpha virt. eigenvalues --    0.57946   0.60228   0.61204   0.62042   0.63016
 Alpha virt. eigenvalues --    0.64102   0.64428   0.65884   0.68659   0.70744
 Alpha virt. eigenvalues --    0.70915   0.76360   0.78557   0.81800   0.85645
 Alpha virt. eigenvalues --    0.87289   0.88719   0.91575   0.94731   0.97639
 Alpha virt. eigenvalues --    1.00181   1.00705   1.04429   1.05837   1.06689
 Alpha virt. eigenvalues --    1.10435   1.13115   1.14796   1.16840   1.17469
 Alpha virt. eigenvalues --    1.17917   1.19711   1.20881   1.22053   1.23280
 Alpha virt. eigenvalues --    1.24356   1.25909   1.29418   1.29882   1.31839
 Alpha virt. eigenvalues --    1.32013   1.35227   1.36490   1.36687   1.38654
 Alpha virt. eigenvalues --    1.40682   1.42219   1.43630   1.45329   1.47629
 Alpha virt. eigenvalues --    1.49115   1.50655   1.52413   1.52945   1.54272
 Alpha virt. eigenvalues --    1.55599   1.56311   1.60379   1.62251   1.64346
 Alpha virt. eigenvalues --    1.66854   1.70878   1.72109   1.78700   1.88814
 Alpha virt. eigenvalues --    2.10019   2.13690   2.21667   2.36778   2.40605
 Alpha virt. eigenvalues --    2.45429   2.52137   2.55913   2.58330   2.60988
 Alpha virt. eigenvalues --    2.68294   2.71555   2.75518   2.78334   2.80545
 Alpha virt. eigenvalues --    2.82615   2.85617   2.87593   2.90019   2.91525
 Alpha virt. eigenvalues --    2.99046   3.01071   3.06025   3.08244   3.08775
 Alpha virt. eigenvalues --    3.13346   3.14437   3.17740   3.18645   3.20336
 Alpha virt. eigenvalues --    3.22734   3.25305   3.26003   3.30705   3.30880
 Alpha virt. eigenvalues --    3.32985   3.36370   3.38888   3.40739   3.42959
 Alpha virt. eigenvalues --    3.45731   3.48958   3.50870   3.54440   3.55256
 Alpha virt. eigenvalues --    3.60865   3.61265   3.64665   3.68206   3.73577
 Alpha virt. eigenvalues --    3.74698   3.75363   3.77828   3.80111   3.82072
 Alpha virt. eigenvalues --    3.87949   3.89791   3.93579   3.95255   3.97256
 Alpha virt. eigenvalues --    3.99123   4.00164   4.03983   4.05001   4.09395
 Alpha virt. eigenvalues --    4.10801   4.13741   4.16081   4.18115   4.18371
 Alpha virt. eigenvalues --    4.21307   4.24015   4.25569   4.27221   4.30434
 Alpha virt. eigenvalues --    4.34048   4.34365   4.39517   4.41224   4.44673
 Alpha virt. eigenvalues --    4.47328   4.49033   4.49658   4.56122   4.57111
 Alpha virt. eigenvalues --    4.60848   4.66161   4.68540   4.71692   4.84465
 Alpha virt. eigenvalues --    4.98454   5.03698   5.11120   5.15300   5.19398
 Alpha virt. eigenvalues --    5.25806   5.27572   5.35289   5.37837   5.43476
 Alpha virt. eigenvalues --    5.46455   5.48531   5.51435   5.53686   5.55331
 Alpha virt. eigenvalues --    5.59027   5.63446   5.90813   5.91374   6.59370
 Alpha virt. eigenvalues --    6.84533   7.11266   7.23399   7.24437   7.56111
 Alpha virt. eigenvalues --   24.18981  24.33571  24.41296  24.50738  50.13771
  Beta  occ. eigenvalues --  -19.64563 -10.59194 -10.54352 -10.53757 -10.52386
  Beta  occ. eigenvalues --   -1.09746  -0.89775  -0.81159  -0.71161  -0.64457
  Beta  occ. eigenvalues --   -0.55883  -0.54256  -0.51029  -0.48673  -0.45534
  Beta  occ. eigenvalues --   -0.42942  -0.41518  -0.40227  -0.37646  -0.33722
  Beta virt. eigenvalues --   -0.08126   0.01333   0.03216   0.03318   0.04072
  Beta virt. eigenvalues --    0.05888   0.06630   0.06962   0.07526   0.08184
  Beta virt. eigenvalues --    0.10732   0.10949   0.11432   0.12203   0.13032
  Beta virt. eigenvalues --    0.14209   0.14954   0.17572   0.19737   0.22544
  Beta virt. eigenvalues --    0.23347   0.23682   0.24642   0.25871   0.26799
  Beta virt. eigenvalues --    0.27078   0.27501   0.30287   0.30558   0.31185
  Beta virt. eigenvalues --    0.32869   0.33061   0.34648   0.38719   0.40737
  Beta virt. eigenvalues --    0.43743   0.45606   0.46806   0.48245   0.50094
  Beta virt. eigenvalues --    0.50173   0.51865   0.54517   0.56644   0.56936
  Beta virt. eigenvalues --    0.57207   0.58246   0.60633   0.61120   0.62185
  Beta virt. eigenvalues --    0.63166   0.64165   0.64535   0.65972   0.68757
  Beta virt. eigenvalues --    0.70793   0.71168   0.76427   0.78643   0.81989
  Beta virt. eigenvalues --    0.85660   0.87334   0.88809   0.91752   0.94802
  Beta virt. eigenvalues --    0.97764   1.00397   1.00850   1.04727   1.06104
  Beta virt. eigenvalues --    1.07063   1.10815   1.13249   1.15144   1.17030
  Beta virt. eigenvalues --    1.17544   1.18355   1.19826   1.21209   1.22161
  Beta virt. eigenvalues --    1.23520   1.24647   1.26350   1.29905   1.30685
  Beta virt. eigenvalues --    1.31834   1.32388   1.35375   1.36833   1.37172
  Beta virt. eigenvalues --    1.38845   1.40807   1.42445   1.43885   1.45291
  Beta virt. eigenvalues --    1.47720   1.49383   1.50772   1.52554   1.52974
  Beta virt. eigenvalues --    1.54310   1.55588   1.56550   1.60473   1.62573
  Beta virt. eigenvalues --    1.64874   1.67061   1.71704   1.72181   1.79896
  Beta virt. eigenvalues --    1.90399   2.10856   2.15040   2.22761   2.37499
  Beta virt. eigenvalues --    2.40829   2.46067   2.52520   2.55840   2.58729
  Beta virt. eigenvalues --    2.61176   2.68328   2.71528   2.75675   2.78411
  Beta virt. eigenvalues --    2.80609   2.82973   2.85558   2.87463   2.90064
  Beta virt. eigenvalues --    2.91555   2.98938   3.01484   3.06165   3.08305
  Beta virt. eigenvalues --    3.08812   3.13395   3.14496   3.17700   3.18572
  Beta virt. eigenvalues --    3.20286   3.22785   3.25467   3.26039   3.30738
  Beta virt. eigenvalues --    3.31201   3.33140   3.36428   3.38784   3.41370
  Beta virt. eigenvalues --    3.43068   3.45620   3.49175   3.50906   3.54439
  Beta virt. eigenvalues --    3.55349   3.60315   3.60720   3.65089   3.68530
  Beta virt. eigenvalues --    3.73871   3.74853   3.75287   3.77934   3.80130
  Beta virt. eigenvalues --    3.82004   3.88331   3.90004   3.93712   3.95233
  Beta virt. eigenvalues --    3.97280   3.99317   4.00412   4.04152   4.05132
  Beta virt. eigenvalues --    4.09396   4.10791   4.13738   4.16228   4.18339
  Beta virt. eigenvalues --    4.18435   4.21302   4.23808   4.25378   4.27363
  Beta virt. eigenvalues --    4.30437   4.34032   4.34439   4.39470   4.41251
  Beta virt. eigenvalues --    4.44548   4.47419   4.49070   4.49754   4.56231
  Beta virt. eigenvalues --    4.56993   4.60644   4.66196   4.68704   4.71805
  Beta virt. eigenvalues --    4.84540   4.98905   5.04543   5.13273   5.19829
  Beta virt. eigenvalues --    5.21695   5.29361   5.31627   5.36793   5.39131
  Beta virt. eigenvalues --    5.44642   5.46636   5.48951   5.51875   5.54059
  Beta virt. eigenvalues --    5.55997   5.59524   5.63742   5.91297   5.95231
  Beta virt. eigenvalues --    6.60221   6.97526   7.22859   7.27200   7.36506
  Beta virt. eigenvalues --    7.63520  24.18991  24.33622  24.41208  24.50660
  Beta virt. eigenvalues --   50.13406
          Condensed to atoms (all electrons):
               1          2          3          4          5          6
     1  O    8.270392  -0.098325  -0.000442   0.049572   0.100154  -0.000398
     2  C   -0.098325   5.712666  -0.131101  -0.130874   0.060264   0.465356
     3  C   -0.000442  -0.131101   5.407554   0.142232   0.167375  -0.052698
     4  C    0.049572  -0.130874   0.142232   5.496566  -0.119310  -0.053730
     5  C    0.100154   0.060264   0.167375  -0.119310   5.227780  -0.004042
     6  H   -0.000398   0.465356  -0.052698  -0.053730  -0.004042   0.551765
     7  H   -0.001271   0.450733  -0.056577  -0.049221   0.017401  -0.032624
     8  H   -0.008086  -0.043180   0.457159  -0.008319  -0.045133   0.006059
     9  H    0.007308  -0.063387   0.466523   0.017047  -0.058647  -0.014187
    10  H   -0.040722  -0.039203   0.003857   0.393484   0.003485   0.005546
    11  H    0.002195  -0.001027  -0.009068   0.385632   0.008837   0.002989
    12  H   -0.002685  -0.037818  -0.002276   0.418460  -0.000007  -0.016795
    13  H   -0.049628  -0.002773  -0.053247  -0.017200   0.460547   0.000246
    14  H   -0.034580   0.026715  -0.058079   0.000669   0.422460  -0.000165
               7          8          9         10         11         12
     1  O   -0.001271  -0.008086   0.007308  -0.040722   0.002195  -0.002685
     2  C    0.450733  -0.043180  -0.063387  -0.039203  -0.001027  -0.037818
     3  C   -0.056577   0.457159   0.466523   0.003857  -0.009068  -0.002276
     4  C   -0.049221  -0.008319   0.017047   0.393484   0.385632   0.418460
     5  C    0.017401  -0.045133  -0.058647   0.003485   0.008837  -0.000007
     6  H   -0.032624   0.006059  -0.014187   0.005546   0.002989  -0.016795
     7  H    0.547596  -0.014492   0.002305   0.002466  -0.013710   0.006275
     8  H   -0.014492   0.522349  -0.030382   0.001335   0.000460  -0.000492
     9  H    0.002305  -0.030382   0.536384  -0.000517  -0.000344  -0.000048
    10  H    0.002466   0.001335  -0.000517   0.509555  -0.029019  -0.031015
    11  H   -0.013710   0.000460  -0.000344  -0.029019   0.545836  -0.024460
    12  H    0.006275  -0.000492  -0.000048  -0.031015  -0.024460   0.537279
    13  H   -0.000486   0.005609  -0.003283  -0.000172  -0.000014   0.000023
    14  H   -0.000225  -0.008441  -0.004306  -0.000260   0.000027  -0.000025
              13         14
     1  O   -0.049628  -0.034580
     2  C   -0.002773   0.026715
     3  C   -0.053247  -0.058079
     4  C   -0.017200   0.000669
     5  C    0.460547   0.422460
     6  H    0.000246  -0.000165
     7  H   -0.000486  -0.000225
     8  H    0.005609  -0.008441
     9  H   -0.003283  -0.004306
    10  H   -0.000172  -0.000260
    11  H   -0.000014   0.000027
    12  H    0.000023  -0.000025
    13  H    0.548533  -0.034969
    14  H   -0.034969   0.531104
          Atomic-Atomic Spin Densities.
               1          2          3          4          5          6
     1  O    0.922663  -0.017623   0.000098   0.005088  -0.045708  -0.001235
     2  C   -0.017623   0.074984  -0.039715  -0.091898   0.040775   0.006516
     3  C    0.000098  -0.039715   0.056414   0.033652  -0.011453   0.000636
     4  C    0.005088  -0.091898   0.033652   0.225895  -0.036284  -0.009569
     5  C   -0.045708   0.040775  -0.011453  -0.036284  -0.004450   0.002601
     6  H   -0.001235   0.006516   0.000636  -0.009569   0.002601   0.003376
     7  H   -0.001273   0.004834  -0.001599  -0.006327   0.001665   0.001320
     8  H   -0.000385  -0.002658   0.001475  -0.000812   0.003220   0.000199
     9  H    0.000261   0.001963   0.000276   0.001344  -0.002654  -0.000425
    10  H   -0.052750   0.021551  -0.002935  -0.002636   0.023018   0.000449
    11  H    0.002247  -0.003445  -0.000322   0.005776  -0.001152  -0.000363
    12  H    0.001216  -0.000418  -0.001497   0.001679  -0.000573   0.000307
    13  H   -0.000312  -0.000442   0.008004   0.000648  -0.003365   0.000270
    14  H   -0.014620  -0.003263  -0.012482   0.005432   0.016008  -0.000236
               7          8          9         10         11         12
     1  O   -0.001273  -0.000385   0.000261  -0.052750   0.002247   0.001216
     2  C    0.004834  -0.002658   0.001963   0.021551  -0.003445  -0.000418
     3  C   -0.001599   0.001475   0.000276  -0.002935  -0.000322  -0.001497
     4  C   -0.006327  -0.000812   0.001344  -0.002636   0.005776   0.001679
     5  C    0.001665   0.003220  -0.002654   0.023018  -0.001152  -0.000573
     6  H    0.001320   0.000199  -0.000425   0.000449  -0.000363   0.000307
     7  H    0.004568   0.000570  -0.000315   0.001133  -0.000556  -0.000167
     8  H    0.000570   0.001134  -0.000265   0.000610  -0.000072  -0.000006
     9  H   -0.000315  -0.000265  -0.002924  -0.000261   0.000031   0.000017
    10  H    0.001133   0.000610  -0.000261   0.006047  -0.002385   0.000685
    11  H   -0.000556  -0.000072   0.000031  -0.002385  -0.002086   0.001194
    12  H   -0.000167  -0.000006   0.000017   0.000685   0.001194  -0.008226
    13  H    0.000058   0.000210  -0.000589   0.001452  -0.000029  -0.000245
    14  H   -0.000134  -0.001998   0.001789  -0.003027   0.000040   0.000051
              13         14
     1  O   -0.000312  -0.014620
     2  C   -0.000442  -0.003263
     3  C    0.008004  -0.012482
     4  C    0.000648   0.005432
     5  C   -0.003365   0.016008
     6  H    0.000270  -0.000236
     7  H    0.000058  -0.000134
     8  H    0.000210  -0.001998
     9  H   -0.000589   0.001789
    10  H    0.001452  -0.003027
    11  H   -0.000029   0.000040
    12  H   -0.000245   0.000051
    13  H    0.003410  -0.003676
    14  H   -0.003676   0.086775
 Mulliken charges and spin densities:
               1          2
     1  O   -0.193485   0.797666
     2  C   -0.168048  -0.008840
     3  C   -0.281212   0.030550
     4  C   -0.525006   0.131986
     5  C   -0.241165  -0.018351
     6  H    0.142680   0.003844
     7  H    0.141832   0.003775
     8  H    0.165552   0.001223
     9  H    0.145532  -0.001752
    10  H    0.221181  -0.009049
    11  H    0.131665  -0.001122
    12  H    0.153584  -0.005983
    13  H    0.146813   0.005393
    14  H    0.160076   0.070660
 Sum of Mulliken charges =  -0.00000   1.00000
 Mulliken charges and spin densities with hydrogens summed into heavy atoms:
               1          2
     1  O   -0.193485   0.797666
     2  C    0.116464  -0.001220
     3  C    0.029872   0.030020
     4  C   -0.018576   0.115833
     5  C    0.065725   0.057702
 APT charges:
               1
     1  O   -0.256582
     2  C   -0.892634
     3  C   -0.725094
     4  C   -0.981583
     5  C   -0.734051
     6  H    0.412602
     7  H    0.431119
     8  H    0.389066
     9  H    0.439487
    10  H    0.223084
    11  H    0.470383
    12  H    0.377800
    13  H    0.348383
    14  H    0.498021
 Sum of APT charges =  -0.00000
 APT charges with hydrogens summed into heavy atoms:
               1
     1  O   -0.256582
     2  C   -0.048914
     3  C    0.103459
     4  C    0.089684
     5  C    0.112353
 Electronic spatial extent (au):  <R**2>=            455.7593
 Charge=             -0.0000 electrons
 Dipole moment (field-independent basis, Debye):
    X=             -0.5324    Y=              1.8479    Z=              0.6184  Tot=              2.0200
 Quadrupole moment (field-independent basis, Debye-Ang):
   XX=            -32.3728   YY=            -34.6135   ZZ=            -32.6389
   XY=              3.0050   XZ=              0.9524   YZ=             -0.4632
 Traceless Quadrupole moment (field-independent basis, Debye-Ang):
   XX=              0.8356   YY=             -1.4051   ZZ=              0.5695
   XY=              3.0050   XZ=              0.9524   YZ=             -0.4632
 Octapole moment (field-independent basis, Debye-Ang**2):
  XXX=              8.2055  YYY=             -0.0136  ZZZ=              0.0519  XYY=             -0.7172
  XXY=              2.5139  XXZ=             -0.7106  XZZ=              0.1189  YZZ=             -0.1716
  YYZ=              0.2648  XYZ=             -0.9412
 Hexadecapole moment (field-independent basis, Debye-Ang**3):
 XXXX=           -317.8541 YYYY=           -218.3694 ZZZZ=            -72.0720 XXXY=              4.4275
 XXXZ=              1.1538 YYYX=             -0.0493 YYYZ=              3.7162 ZZZX=             -0.5651
 ZZZY=             -1.5720 XXYY=            -93.3261 XXZZ=            -65.0822 YYZZ=            -47.2555
 XXYZ=              0.4462 YYXZ=              0.1268 ZZXY=             -0.8531
 N-N= 1.874497840654D+02 E-N=-9.178038167540D+02  KE= 2.319900301508D+02
  Exact polarizability:   0.000   0.000   0.000   0.000   0.000   0.000
 Approx polarizability:  68.526   0.878  64.186  -0.551   1.858  60.608
                          Isotropic Fermi Contact Couplings
        Atom                 a.u.       MegaHertz       Gauss      10(-4) cm-1
     1  O(17)              0.12459     -75.52653     -26.94974     -25.19294
     2  C(13)             -0.00279      -3.13233      -1.11769      -1.04483
     3  C(13)              0.00948      10.65573       3.80223       3.55437
     4  C(13)              0.04946      55.60335      19.84066      18.54728
     5  C(13)             -0.03013     -33.87083     -12.08595     -11.29809
     6  H(1)               0.00238      10.62580       3.79155       3.54439
     7  H(1)               0.00186       8.32364       2.97008       2.77647
     8  H(1)              -0.00028      -1.25867      -0.44912      -0.41985
     9  H(1)              -0.00064      -2.86357      -1.02179      -0.95518
    10  H(1)              -0.00190      -8.47288      -3.02333      -2.82625
    11  H(1)               0.00117       5.23030       1.86630       1.74464
    12  H(1)              -0.00111      -4.95854      -1.76933      -1.65399
    13  H(1)               0.00196       8.76819       3.12871       2.92475
    14  H(1)               0.03939     176.06448      62.82419      58.72879
 --------------------------------------------------------
       Center         ----  Spin Dipole Couplings  ----
                      3XX-RR        3YY-RR        3ZZ-RR
 --------------------------------------------------------
     1   Atom        3.132076     -1.612387     -1.519689
     2   Atom        0.014540     -0.002986     -0.011553
     3   Atom        0.039928     -0.004486     -0.035442
     4   Atom        0.131082     -0.055609     -0.075473
     5   Atom        0.007798      0.017307     -0.025105
     6   Atom        0.000960      0.000593     -0.001553
     7   Atom        0.001784      0.000122     -0.001906
     8   Atom       -0.004471      0.004503     -0.000033
     9   Atom       -0.002799      0.007642     -0.004843
    10   Atom        0.108077     -0.050635     -0.057442
    11   Atom        0.009978     -0.006900     -0.003078
    12   Atom        0.001723     -0.010909      0.009186
    13   Atom       -0.009102     -0.002907      0.012010
    14   Atom       -0.001037      0.012232     -0.011195
 --------------------------------------------------------
                        XY            XZ            YZ
 --------------------------------------------------------
     1   Atom        0.579363     -0.804487     -0.107916
     2   Atom       -0.007757     -0.002482      0.000203
     3   Atom       -0.038704      0.012915     -0.005619
     4   Atom       -0.090664     -0.065114      0.026983
     5   Atom        0.005704     -0.006166      0.025394
     6   Atom       -0.003358     -0.001936      0.002273
     7   Atom       -0.003745      0.001788     -0.001853
     8   Atom       -0.004636      0.002168     -0.007612
     9   Atom       -0.002595      0.000185      0.004371
    10   Atom        0.005987     -0.020554      0.004532
    11   Atom        0.005008      0.007261      0.007405
    12   Atom       -0.000820     -0.008399     -0.005615
    13   Atom        0.000241      0.000449      0.013391
    14   Atom        0.015853     -0.001107      0.004051
 --------------------------------------------------------


 ---------------------------------------------------------------------------------
              Anisotropic Spin Dipole Couplings in Principal Axis System
 ---------------------------------------------------------------------------------

       Atom             a.u.   MegaHertz   Gauss  10(-4) cm-1        Axes

              Baa    -1.6860   121.995    43.531    40.693 -0.0583  0.9423  0.3297
     1 O(17)  Bbb    -1.6515   119.498    42.640    39.860  0.1943 -0.3132  0.9296
              Bcc     3.3374  -241.493   -86.171   -80.554  0.9792  0.1182 -0.1648
 
              Baa    -0.0118    -1.587    -0.566    -0.529  0.1166  0.0796  0.9900
     2 C(13)  Bbb    -0.0058    -0.785    -0.280    -0.262  0.3410  0.9330 -0.1151
              Bcc     0.0177     2.372     0.846     0.791  0.9328 -0.3510 -0.0816
 
              Baa    -0.0376    -5.051    -1.802    -1.685 -0.1922 -0.0584  0.9796
     3 C(13)  Bbb    -0.0267    -3.578    -1.277    -1.194  0.4760  0.8674  0.1451
              Bcc     0.0643     8.629     3.079     2.878  0.8582 -0.4942  0.1390
 
              Baa    -0.0945   -12.685    -4.526    -4.231  0.1474 -0.3082  0.9398
     4 C(13)  Bbb    -0.0923   -12.382    -4.418    -4.130  0.4216  0.8791  0.2221
              Bcc     0.1868    25.067     8.945     8.362  0.8947 -0.3635 -0.2595
 
              Baa    -0.0384    -5.149    -1.837    -1.718  0.1711 -0.4233  0.8897
     5 C(13)  Bbb     0.0089     1.191     0.425     0.397  0.9776 -0.0391 -0.2066
              Bcc     0.0295     3.959     1.413     1.320  0.1222  0.9052  0.4071
 
              Baa    -0.0030    -1.611    -0.575    -0.537 -0.1572 -0.6264  0.7635
     6 H(1)   Bbb    -0.0024    -1.274    -0.455    -0.425  0.7374  0.4397  0.5126
              Bcc     0.0054     2.885     1.030     0.962  0.6569 -0.6436 -0.3928
 
              Baa    -0.0031    -1.676    -0.598    -0.559  0.3282  0.7224  0.6087
     7 H(1)   Bbb    -0.0025    -1.341    -0.478    -0.447 -0.5982 -0.3398  0.7258
              Bcc     0.0057     3.017     1.076     1.006  0.7311 -0.6023  0.3206
 
              Baa    -0.0069    -3.663    -1.307    -1.222  0.7290  0.5604  0.3930
     8 H(1)   Bbb    -0.0049    -2.598    -0.927    -0.866 -0.6170  0.2893  0.7319
              Bcc     0.0117     6.261     2.234     2.088 -0.2965  0.7761 -0.5566
 
              Baa    -0.0065    -3.467    -1.237    -1.156 -0.2765 -0.3298  0.9026
     9 H(1)   Bbb    -0.0030    -1.601    -0.571    -0.534  0.9412  0.0966  0.3237
              Bcc     0.0095     5.068     1.808     1.691 -0.1939  0.9391  0.2837
 
              Baa    -0.0623   -33.254   -11.866   -11.092  0.1234 -0.4130  0.9024
    10 H(1)   Bbb    -0.0484   -25.848    -9.223    -8.622  0.0195  0.9101  0.4139
              Bcc     0.1108    59.102    21.089    19.714  0.9922  0.0334 -0.1203
 
              Baa    -0.0127    -6.750    -2.408    -2.251  0.0278  0.7803 -0.6247
    11 H(1)   Bbb    -0.0032    -1.713    -0.611    -0.571 -0.5544  0.5321  0.6400
              Bcc     0.0159     8.463     3.020     2.823  0.8318  0.3286  0.4474
 
              Baa    -0.0131    -6.973    -2.488    -2.326  0.2323  0.9187  0.3194
    12 H(1)   Bbb    -0.0023    -1.221    -0.436    -0.407  0.8281 -0.3591  0.4305
              Bcc     0.0154     8.193     2.924     2.733 -0.5102 -0.1645  0.8442
 
              Baa    -0.0108    -5.750    -2.052    -1.918  0.0121  0.8620 -0.5068
    13 H(1)   Bbb    -0.0091    -4.861    -1.735    -1.622  0.9998 -0.0193 -0.0090
              Bcc     0.0199    10.612     3.786     3.540  0.0176  0.5066  0.8620
 
              Baa    -0.0147    -7.822    -2.791    -2.609  0.5682 -0.4397  0.6955
    14 H(1)   Bbb    -0.0083    -4.454    -1.589    -1.486 -0.6156  0.3337  0.7139
              Bcc     0.0230    12.276     4.380     4.095  0.5460  0.8338  0.0811
 

 ---------------------------------------------------------------------------------

 No NMR shielding tensors so no spin-rotation constants.
 Leave Link  601 at Tue Apr  9 00:18:24 2019, MaxMem=   671088640 cpu:               9.6 elap:               0.5
 (Enter /shared/centos7/gaussian/g16/l701.exe)
 SCFChk:  SCF convergence  7.64D-09 required  1.00D-08
 ... and contract with generalized density number  0.
 Compute integral second derivatives.
 Entering OneElI...
 Calculate overlap and kinetic energy integrals
    NBasis = 276  MinDer = 2  MaxDer = 2
 Requested accuracy = 0.1000D-12
 PrmmSu-InSpLW:  IPartL=    0 NPrtUS=   20 NPrtUL=    1 DoSpLW=F IThBeg=    0 IThEnd=   19 NThAct=   20.
 PrsmSu:  NPrtUS=  20 ThrOK=T IAlg=1 NPAlg=1 LenDen=           0 ISkipM=0 DoSpLW=F IThBeg=    0 IThEnd=   19.
 Prism:   IPart=     0 DynPar=F LinDyn=F Incr=           1.
 PRISM was handed    33455962 working-precision words and  3655 shell-pairs
 PRISM was handed    33455962 working-precision words and  3655 shell-pairs
 PRISM was handed    33455962 working-precision words and  3655 shell-pairs
 PRISM was handed    33455962 working-precision words and  3655 shell-pairs
 PRISM was handed    33455962 working-precision words and  3655 shell-pairs
 PRISM was handed    33455962 working-precision words and  3655 shell-pairs
 PRISM was handed    33455962 working-precision words and  3655 shell-pairs
 PRISM was handed    33455962 working-precision words and  3655 shell-pairs
 PRISM was handed    33455962 working-precision words and  3655 shell-pairs
 PRISM was handed    33455962 working-precision words and  3655 shell-pairs
 PRISM was handed    33455962 working-precision words and  3655 shell-pairs
 PRISM was handed    33455962 working-precision words and  3655 shell-pairs
 PRISM was handed    33455962 working-precision words and  3655 shell-pairs
 PRISM was handed    33455962 working-precision words and  3655 shell-pairs
 PRISM was handed    33455962 working-precision words and  3655 shell-pairs
 PRISM was handed    33455962 working-precision words and  3655 shell-pairs
 PRISM was handed    33455962 working-precision words and  3655 shell-pairs
 PRISM was handed    33455962 working-precision words and  3655 shell-pairs
 PRISM was handed    33455962 working-precision words and  3655 shell-pairs
 PRISM was handed    33455962 working-precision words and  3655 shell-pairs
 IPart= 18 NShTot=         162 NBatch=          29 AvBLen=         5.6
 IPart= 16 NShTot=         165 NBatch=          31 AvBLen=         5.3
 IPart= 15 NShTot=         165 NBatch=          31 AvBLen=         5.3
 IPart=  0 NShTot=         212 NBatch=          52 AvBLen=         4.1
 IPart= 17 NShTot=         165 NBatch=          31 AvBLen=         5.3
 IPart= 19 NShTot=         162 NBatch=          29 AvBLen=         5.6
 IPart=  1 NShTot=         209 NBatch=          49 AvBLen=         4.3
 IPart=  5 NShTot=         192 NBatch=          39 AvBLen=         4.9
 IPart= 12 NShTot=         170 NBatch=          33 AvBLen=         5.2
 IPart=  4 NShTot=         201 NBatch=          43 AvBLen=         4.7
 IPart=  7 NShTot=         189 NBatch=          39 AvBLen=         4.8
 IPart=  3 NShTot=         204 NBatch=          46 AvBLen=         4.4
 IPart=  6 NShTot=         190 NBatch=          39 AvBLen=         4.9
 IPart=  9 NShTot=         187 NBatch=          37 AvBLen=         5.1
 IPart= 10 NShTot=         174 NBatch=          35 AvBLen=         5.0
 IPart= 11 NShTot=         173 NBatch=          35 AvBLen=         4.9
 IPart=  8 NShTot=         188 NBatch=          38 AvBLen=         4.9
 IPart=  2 NShTot=         207 NBatch=          49 AvBLen=         4.2
 IPart= 14 NShTot=         170 NBatch=          33 AvBLen=         5.2
 IPart= 13 NShTot=         170 NBatch=          33 AvBLen=         5.2
 PrSmSu:  NxtVal=             21.
 Entering OneElI...
 Calculate potential energy integrals
    NBasis = 276  MinDer = 2  MaxDer = 2
 Requested accuracy = 0.1000D-12
 PrmmSu-InSpLW:  IPartL=    0 NPrtUS=   20 NPrtUL=    1 DoSpLW=F IThBeg=    0 IThEnd=   19 NThAct=   20.
 PrsmSu:  NPrtUS=  20 ThrOK=T IAlg=1 NPAlg=1 LenDen=           0 ISkipM=0 DoSpLW=F IThBeg=    0 IThEnd=   19.
 Prism:   IPart=     0 DynPar=F LinDyn=F Incr=          24.
 PRISM was handed    33468118 working-precision words and  3548 shell-pairs
 PRISM was handed    33468118 working-precision words and  3548 shell-pairs
 PRISM was handed    33468118 working-precision words and  3548 shell-pairs
 PRISM was handed    33468118 working-precision words and  3548 shell-pairs
 PRISM was handed    33468118 working-precision words and  3548 shell-pairs
 PRISM was handed    33468118 working-precision words and  3548 shell-pairs
 PRISM was handed    33468118 working-precision words and  3548 shell-pairs
 PRISM was handed    33468118 working-precision words and  3548 shell-pairs
 PRISM was handed    33468118 working-precision words and  3548 shell-pairs
 PRISM was handed    33468118 working-precision words and  3548 shell-pairs
 PRISM was handed    33468118 working-precision words and  3548 shell-pairs
 PRISM was handed    33468118 working-precision words and  3548 shell-pairs
 PRISM was handed    33468118 working-precision words and  3548 shell-pairs
 PRISM was handed    33468118 working-precision words and  3548 shell-pairs
 PRISM was handed    33468118 working-precision words and  3548 shell-pairs
 PRISM was handed    33468118 working-precision words and  3548 shell-pairs
 PRISM was handed    33468118 working-precision words and  3548 shell-pairs
 PRISM was handed    33468118 working-precision words and  3548 shell-pairs
 PRISM was handed    33468118 working-precision words and  3548 shell-pairs
 PRISM was handed    33468118 working-precision words and  3548 shell-pairs
 IPart= 18 NShTot=        2226 NBatch=         159 AvBLen=        14.0
 IPart= 19 NShTot=        2212 NBatch=         158 AvBLen=        14.0
 IPart= 17 NShTot=        2240 NBatch=         160 AvBLen=        14.0
 IPart= 15 NShTot=        2268 NBatch=         162 AvBLen=        14.0
 IPart= 16 NShTot=        2268 NBatch=         162 AvBLen=        14.0
 IPart=  6 NShTot=        2548 NBatch=         182 AvBLen=        14.0
 IPart= 10 NShTot=        2408 NBatch=         172 AvBLen=        14.0
 IPart= 12 NShTot=        2352 NBatch=         168 AvBLen=        14.0
 IPart=  4 NShTot=        2660 NBatch=         190 AvBLen=        14.0
 IPart= 11 NShTot=        2394 NBatch=         171 AvBLen=        14.0
 IPart=  7 NShTot=        2534 NBatch=         181 AvBLen=        14.0
 IPart=  2 NShTot=        2786 NBatch=         199 AvBLen=        14.0
[...]
 ! D1    D(4,2,3,5)            -60.0592         -DE/DX =    0.0                 !
 ! D2    D(4,2,3,8)             60.6161         -DE/DX =    0.0                 !
 ! D3    D(4,2,3,9)            179.0709         -DE/DX =    0.0                 !
 ! D4    D(6,2,3,5)             62.3135         -DE/DX =    0.0                 !
 ! D5    D(6,2,3,8)           -177.0112         -DE/DX =    0.0                 !
 ! D6    D(6,2,3,9)            -58.5564         -DE/DX =    0.0                 !
 ! D7    D(7,2,3,5)            177.7806         -DE/DX =    0.0                 !
 ! D8    D(7,2,3,8)            -61.5441         -DE/DX =    0.0                 !
 ! D9    D(7,2,3,9)             56.9107         -DE/DX =    0.0                 !
 ! D10   D(3,2,4,10)           -56.6791         -DE/DX =    0.0                 !
 ! D11   D(3,2,4,11)          -177.1169         -DE/DX =    0.0                 !
 ! D12   D(3,2,4,12)            62.7819         -DE/DX =    0.0                 !
 ! D13   D(6,2,4,10)          -178.6726         -DE/DX =    0.0                 !
 ! D14   D(6,2,4,11)            60.8896         -DE/DX =    0.0                 !
 ! D15   D(6,2,4,12)           -59.2116         -DE/DX =    0.0                 !
 ! D16   D(7,2,4,10)            64.9854         -DE/DX =    0.0                 !
 ! D17   D(7,2,4,11)           -55.4523         -DE/DX =    0.0                 !
 ! D18   D(7,2,4,12)          -175.5536         -DE/DX =    0.0                 !
 ! D19   D(2,3,5,1)             74.5102         -DE/DX =    0.0                 !
 ! D20   D(2,3,5,13)           -53.2228         -DE/DX =    0.0                 !
 ! D21   D(2,3,5,14)          -170.4268         -DE/DX =    0.0                 !
 ! D22   D(8,3,5,1)            -47.4211         -DE/DX =    0.0                 !
 ! D23   D(8,3,5,13)          -175.1541         -DE/DX =    0.0                 !
 ! D24   D(8,3,5,14)            67.6418         -DE/DX =    0.0                 !
 ! D25   D(9,3,5,1)           -163.9353         -DE/DX =    0.0                 !
 ! D26   D(9,3,5,13)            68.3317         -DE/DX =    0.0                 !
 ! D27   D(9,3,5,14)           -48.8724         -DE/DX =    0.0                 !
 --------------------------------------------------------------------------------
 GradGradGradGradGradGradGradGradGradGradGradGradGradGradGradGradGradGrad

 Leave Link  103 at Tue Apr  9 00:46:19 2019, MaxMem=   671088640 cpu:               0.5 elap:               0.1
 (Enter /shared/centos7/gaussian/g16/l9999.exe)

 ----------------------------------------------------------------------

 Electric dipole moment (input orientation):
 (Debye = 10**-18 statcoulomb cm , SI units = C m)
                  (au)            (Debye)         (10**-30 SI)
   Tot        0.813085D+00      0.206665D+01      0.689362D+01
   x         -0.451809D+00     -0.114838D+01     -0.383060D+01
   y         -0.581236D+00     -0.147735D+01     -0.492792D+01
   z          0.345167D+00      0.877328D+00      0.292645D+01

 Dipole polarizability, Alpha (input orientation).
 (esu units = cm**3 , SI units = C**2 m**2 J**-1)
 Alpha(0;0):
               (au)            (10**-24 esu)      (10**-40 SI)
   iso        0.538308D+02      0.797690D+01      0.887550D+01
   aniso      0.884176D+01      0.131021D+01      0.145781D+01
   xx         0.561640D+02      0.832264D+01      0.926019D+01
   yx         0.686434D+00      0.101719D+00      0.113178D+00
   yy         0.533222D+02      0.790154D+01      0.879165D+01
   zx         0.321146D+01      0.475890D+00      0.529499D+00
   zy        -0.328001D+01     -0.486048D+00     -0.540801D+00
   zz         0.520062D+02      0.770653D+01      0.857467D+01

 ----------------------------------------------------------------------

 Dipole orientation:
     8         -2.49553070         -0.21969541         -3.79897875
     6          1.77692249         -0.07502731          0.25731195
     6         -0.81137957         -1.35037423          0.32511608
     6          2.88347413          0.12352358         -2.39542957
     6         -2.77336176          0.06935282         -1.24395484
     1          1.61784424          1.81096901          1.08633415
     1          3.06839108         -1.13343161          1.46863433
     1         -0.67976328         -3.27725417         -0.40269851
     1         -1.48334666         -1.46183396          2.27279860
     1          3.01845571         -1.73397558         -3.27702693
     1          4.76622365          0.95508648         -2.34994746
     1          1.70835510          1.29747432         -3.61819310
     1         -2.87838439          2.07397295         -0.70775930
     1         -4.66430697         -0.73463204         -0.87213267

 Electric dipole moment (dipole orientation):
 (Debye = 10**-18 statcoulomb cm , SI units = C m)
                  (au)            (Debye)         (10**-30 SI)
   Tot        0.813085D+00      0.206665D+01      0.689362D+01
   x          0.000000D+00      0.000000D+00      0.000000D+00
   y          0.000000D+00      0.000000D+00      0.000000D+00
   z          0.813085D+00      0.206665D+01      0.689362D+01

 Dipole polarizability, Alpha (dipole orientation).
 (esu units = cm**3 , SI units = C**2 m**2 J**-1)
 Alpha(0;0):
               (au)            (10**-24 esu)      (10**-40 SI)
   iso        0.538308D+02      0.797690D+01      0.887550D+01
   aniso      0.884176D+01      0.131021D+01      0.145781D+01
   xx         0.581713D+02      0.862009D+01      0.959115D+01
   yx         0.402858D-01      0.596974D-02      0.664223D-02
   yy         0.483377D+02      0.716290D+01      0.796981D+01
   zx        -0.578410D-01     -0.857115D-02     -0.953669D-02
   zy        -0.939416D+00     -0.139207D+00     -0.154889D+00
   zz         0.549835D+02      0.814771D+01      0.906555D+01

 ----------------------------------------------------------------------

 Test job not archived.
 1\1\GINC-C0316\Freq\UM062X\6-311+G(2df,2p)\C4H9O1(2)\UNDERKOFFLER.C\09
 -Apr-2019\0\\#P Geom=AllCheck Guess=TCheck SCRF=Check Test GenChk UM06
 2X/6-311+G(2df,2p) Freq\\Gaussian input prepared by ASE\\0,2\O,0.11517
 01998,1.7307796668,-1.6703347948\C,0.6718986018,-0.3850001769,0.551924
 8283\C,-0.2326352155,-0.4615034356,-0.6763746229\C,1.8812751346,0.5225
 831061,0.3564910722\C,-0.793938801,0.9033402004,-1.0687172673\H,0.0838
 932725,-0.0351259945,1.4048245808\H,1.0071699068,-1.3929586926,0.80341
 97715\H,0.3202605868,-0.8594842198,-1.5300794468\H,-1.0674164103,-1.13
 69477398,-0.4785938526\H,2.4705476398,0.2058233661,-0.504524987\H,2.52
 55481805,0.5097469816,1.2348961647\H,1.5805420222,1.5569113282,0.18034
 77725\H,-1.2909381083,1.3962640288,-0.2208308643\H,-1.5683862005,0.768
 884812,-1.8453549783\\Version=EM64L-G16RevA.03\State=2-A\HF=-232.95838
 33\S2=0.754423\S2-1=0.\S2A=0.750015\RMSD=5.262e-09\RMSF=4.378e-07\Zero
 Point=0.1241859\Thermal=0.1303748\Dipole=-0.4518089,-0.5812356,0.34516
 75\DipoleDeriv=-0.1592127,-0.0214909,0.0533258,0.0256634,-0.2608462,0.
 076462,-0.0162673,0.0465374,-0.3515329,0.1199586,0.0023601,-0.005025,0
 .0224297,0.0143193,0.059854,-0.0106903,-0.0090571,0.1062063,0.1074773,
 -0.000785,-0.0313067,-0.0152684,0.1121697,-0.0354208,0.0172832,0.06537
 87,0.0487744,-0.0019579,-0.0291115,-0.0174065,-0.0881793,0.0523539,-0.
 0364624,-0.0436876,0.0210293,0.0374811,0.0073941,-0.0272452,-0.059556,
 0.0152325,0.0503247,0.003307,-0.0919286,-0.1401098,0.4340699,-0.058187
 8,0.0055884,0.0913453,0.0151435,0.0320649,-0.0741075,0.0600149,-0.0320
 891,-0.0829848,0.0019406,0.0593951,-0.0498363,0.0267441,-0.1221522,0.0
 575409,-0.0342994,0.0615499,0.0187724,0.0014944,0.0675583,0.0603565,0.
 0355812,0.0192641,-0.0242917,0.0311549,-0.0515361,-0.0751924,-0.101432
 9,-0.1004546,-0.0113216,-0.0614628,-0.0486474,0.0257278,-0.0049187,0.0
 425506,0.0357337,0.0002493,-0.0061492,0.0554911,0.0170604,0.0339643,-0
 .0565588,0.1048043,-0.0382907,-0.0495655,-0.0409369,-0.027172,-0.09639
 79,0.0033235,0.0592954,0.0197076,-0.1213926,-0.0031816,-0.063294,0.004
 6201,0.0760147,-0.008284,0.0513086,-0.1023452,0.0496253,0.0113586,0.03
 78471,0.0582924,0.0366655,0.0206412,0.0623574,0.0009485,0.011148,-0.06
 40412,0.1628415,-0.0722053,-0.0778457,0.0819282,-0.0191495,-0.0437422,
 -0.048525,0.1490866,-0.0013423,-0.0642731,0.0715766,-0.0389148\Polar=5
 6.1639758,0.6864338,53.3222185,3.211463,-3.2800147,52.0062356\Quadrupo
 le=1.9000874,-1.4980415,-0.4020459,-0.3916759,1.054076,1.615279\PG=C01
  [X(C4H9O1)]\NImag=0\\0.17002930,0.12148644,0.16048042,-0.09699275,-0.
 08779358,0.10966800,0.00016667,-0.00143647,0.00069781,0.50263186,0.001
 29304,0.00541173,-0.00293340,-0.04892029,0.56813974,0.00003217,-0.0007
 5824,0.00121102,-0.03868603,0.00100476,0.52732539,0.00035389,-0.030313
 51,0.00971216,-0.11646229,-0.00524526,-0.05137164,0.55130466,-0.008621
 25,-0.04158930,0.01851572,-0.00507091,-0.07769175,-0.00547873,0.039311
 78,0.50580805,-0.00287167,0.01486757,-0.00134659,-0.05184121,-0.005970
 61,-0.15631336,-0.06628600,0.01622897,0.53141130,-0.00081529,0.0007480
 0,-0.00156435,-0.15425411,-0.05617401,0.01480918,-0.02112239,-0.013709
 96,-0.00101817,0.51452458,0.00199085,-0.00026653,0.00044249,-0.0563071
 0,-0.12362938,0.01107456,-0.00288191,-0.00126588,-0.00235621,-0.043787
 75,0.53588470,-0.00010105,0.00031801,-0.00236725,0.01666133,0.01222413
 ,-0.08285331,-0.02444621,-0.01857167,0.00380350,0.01401823,0.00734420,
 0.58055182,-0.10897117,-0.07136653,0.06483776,-0.01098068,0.01966814,-
 0.00809348,-0.08285785,0.04494976,-0.00596159,-0.00012556,-0.00035841,
 -0.00111869,0.42303942,-0.08790848,-0.11552121,0.05450211,0.00529934,-
 0.00921417,0.00491052,0.03764084,-0.13668325,0.02655676,0.00073290,0.0
 0339564,0.00029528,0.00092336,0.41147316,0.08772031,0.06856868,-0.1039
 3028,-0.01337967,0.02798262,-0.01103593,-0.00401257,0.01574384,-0.0848
 0778,0.00103598,-0.00010116,0.00139826,-0.02180904,0.01492594,0.549168
 87,-0.00003210,0.00034289,0.00019186,-0.12204379,0.04702454,0.10777620
 ,0.01014197,-0.00679334,-0.01746169,-0.01599624,0.00817939,0.02109200,
 0.00123271,-0.00135606,-0.00022916,0.13579905,0.00007432,-0.00024383,-
 0.00000258,0.04721311,-0.07694519,-0.06541826,0.00097279,-0.00159187,-
 0.00166212,-0.01288655,0.00649497,0.01732654,-0.00087611,0.00090649,0.
 00119797,-0.04757915,0.08112100,0.00034955,0.00016959,-0.00007447,0.10
 722616,-0.06444944,-0.20174754,0.01367174,-0.00975567,-0.02416066,0.00
 226072,-0.00064761,-0.00268823,0.00054500,-0.00064541,0.00082138,-0.11
 601995,0.07231302,0.22202129,-0.00033625,-0.00060832,0.00031190,-0.072
 34502,0.07742582,-0.01707129,-0.00746549,0.01793695,-0.00435083,0.0075
 8127,-0.02797740,0.00593233,-0.00153173,0.00003924,-0.00367739,-0.0061
 9710,0.01593273,-0.00407352,0.08167835,0.00012589,-0.00022727,0.000151
 54,0.07733110,-0.27087538,0.05364642,-0.00093876,0.00222448,-0.0013343
 0,0.00460148,-0.01911771,0.00376459,-0.00056940,0.00236187,-0.00051271
 ,0.00355915,-0.01007901,0.00170055,-0.08060631,0.29479694,0.00015615,-
 0.00105740,0.00048494,-0.01620963,0.05317088,-0.06060470,-0.01014049,0
 .02568189,-0.00822323,-0.00134026,0.00385550,-0.00111497,-0.00334263,0
 .00020499,-0.00381498,0.00797309,-0.02390817,0.00595312,0.02193930,-0.
 05860192,0.06501927,0.00146637,-0.00178962,-0.00108785,0.01002856,-0.0
 0811781,-0.01695531,-0.11723551,0.04874721,0.10515055,0.00198662,0.000
 18602,-0.00042937,-0.00872882,0.00512756,0.01133046,-0.00192943,-0.000
 66071,-0.00398168,0.00080448,0.00010977,0.00102198,0.12628063,-0.00041
 512,0.00401473,-0.00038713,0.00053878,-0.00042687,-0.00041932,0.046472
 77,-0.08103903,-0.07315056,0.00055541,-0.00025313,-0.00034533,0.016943
 90,-0.01509329,-0.02455730,0.00016640,0.00081244,-0.00013955,-0.000392
 17,0.00022758,0.00013480,-0.05541833,0.08804454,-0.00074310,-0.0004680
 4,0.00053765,0.01320816,-0.00975878,-0.02291400,0.10545845,-0.07495237
 ,-0.20631948,0.00125986,0.00058583,0.00120937,-0.00457307,0.00369474,0
 .00642172,-0.00397959,0.00006975,-0.00339140,0.00021375,0.00050489,0.0
 0074998,-0.11217461,0.08027775,0.22623697,0.00097527,0.00317762,-0.000
 93625,-0.01508384,-0.01141829,0.00441488,-0.20074873,-0.12372918,0.039
 96792,-0.00109636,0.00092258,-0.00462555,0.00819341,0.00837578,-0.0039
 8157,0.00094994,-0.00003981,-0.00018034,0.00007309,0.00045363,0.000391
 37,-0.01219809,-0.01014923,0.00239332,0.21819209,-0.00078478,-0.006170
 38,0.00226219,-0.00015205,-0.00141714,-0.00005175,-0.12398615,-0.14776
 782,0.02961644,0.00000711,0.00110751,-0.00043810,-0.01846620,-0.018657
 51,0.00681519,-0.00011610,-0.00010467,0.00003627,0.00019297,0.00056328
 ,-0.00022148,0.00954742,0.00846018,-0.00149677,0.13490684,0.15948768,0
 .00021443,0.00392805,-0.00015463,-0.02251639,-0.01816701,0.00495201,0.
 03965890,0.02969070,-0.05652964,-0.00248217,0.00075382,-0.00489407,0.0
 0507132,0.00439350,-0.00357534,0.00088596,-0.00027259,0.00094559,0.000
 69093,0.00036192,0.00108764,0.01771639,0.01615959,-0.00408048,-0.03849
 228,-0.03535736,0.06156688,-0.00001529,0.00018811,0.00019702,-0.015980
 82,0.00819710,0.02118485,0.00090969,0.00135485,0.00131478,-0.12294202,
 0.04342510,0.11181355,0.00026984,-0.00076490,-0.00008500,-0.00359683,-
 0.00399348,0.00038507,0.00099378,0.00002708,-0.00038029,-0.00022597,-0
 .00028736,-0.00090890,0.00052115,-0.00025104,-0.00014439,0.13422365,0.
 00013578,-0.00030549,-0.00051763,-0.01214847,0.00667167,0.01750947,0.0
 0099729,0.00055396,0.00029261,0.04376909,-0.07180607,-0.06446305,-0.00
 083608,0.00115896,0.00011133,-0.00399737,-0.00195044,0.00042993,0.0009
 1009,0.00074143,0.00018158,0.00025684,-0.00006811,-0.00039021,0.000254
 93,0.00003308,0.00010886,-0.04426132,0.07528423,-0.00016529,0.00009217
 ,-0.00002877,0.00193485,-0.00075440,-0.00357276,-0.00072255,0.00024190
 ,0.00129464,0.11283360,-0.06434458,-0.21491604,0.00007557,0.00010987,-
 0.00007291,-0.00002089,0.00079450,0.00111866,0.00007457,0.00030337,-0.
 00016294,0.00054450,-0.00011667,0.00039198,-0.00003306,0.00011983,0.00
 009802,-0.12505498,0.07010500,0.23088571,-0.00008507,0.00024225,-0.000
 00847,-0.01497540,0.00151443,-0.02178249,-0.00381549,-0.00353382,0.002
 63481,-0.13879291,0.00376777,-0.12732561,0.00100598,-0.00094012,0.0004
 0766,0.00038369,0.00090908,0.00021361,0.00122247,0.00006894,0.00011392
 ,0.00014670,-0.00005756,-0.00006283,-0.00093043,-0.00026870,-0.0014538
 0,0.01154356,-0.00105978,0.01425543,0.15046977,-0.00017633,0.00005096,
 0.00060267,-0.01197254,-0.00058413,-0.01821345,-0.00332878,-0.00248891
 ,0.00172525,0.00462398,-0.04620951,0.00480095,0.00043413,-0.00067361,0
 .00006187,0.00060077,0.00060868,0.00037317,0.00076678,0.00051343,-0.00
 048807,0.00017841,0.00003649,0.00029013,-0.00104975,0.00009935,-0.0008
 9969,-0.00664214,-0.00077684,-0.00808981,-0.00108728,0.04833342,-0.000
 09495,0.00007926,-0.00059981,0.00467960,-0.00018114,0.00530771,0.00115
 840,0.00023965,0.00066570,-0.12822892,0.00385658,-0.22576195,-0.000494
 30,0.00069170,0.00014762,-0.00050489,-0.00043641,0.00039612,-0.0003426
 9,-0.00054660,0.00024299,0.00015060,0.00018987,0.00031923,0.00003534,0
 .00035690,0.00021045,-0.01518228,0.00144295,-0.01948044,0.14026701,-0.
 00537586,0.24214228,0.00030273,-0.00009066,-0.00136174,0.00856459,-0.0
 2673192,0.00434757,0.00210672,-0.00055181,0.00005692,-0.06947776,0.072
 23860,-0.01201809,-0.00293310,0.00203704,-0.00051063,0.00136806,0.0008
 4941,-0.00003716,-0.00438191,-0.00400385,0.00033861,-0.00008887,-0.000
 04411,-0.00003080,0.00008784,0.00052560,0.00016089,-0.00562429,0.01576
 615,-0.00374024,-0.00603184,0.01797440,-0.00166781,0.07573514,-0.00090
 164,-0.00009091,0.00083552,0.00517429,-0.01886011,0.00312493,0.0006620
 3,0.00047094,0.00032392,0.07247425,-0.28257291,0.03879059,0.00106685,-
 0.00067540,-0.00069932,-0.00008308,0.00087601,0.00012165,-0.00370095,-
 0.00066564,0.00059597,-0.00012411,-0.00002231,-0.00003456,-0.00012197,
 0.00024646,0.00002419,0.00264240,-0.00877790,0.00149091,0.00011598,0.0
 0048182,0.00010501,-0.07655842,0.30856932,-0.00062821,0.00007851,-0.00
 112449,-0.00108183,0.00529773,-0.00200685,0.00037152,-0.00104551,0.000
 09848,-0.01215358,0.03858158,-0.05301525,-0.00104443,0.00024162,0.0004
 6771,-0.00036259,0.00022004,-0.00000982,0.00091338,0.00040775,0.000644
 89,0.00007450,-0.00003822,0.00000326,0.00000410,0.00014243,-0.00007627
 ,0.00714943,-0.02511384,0.00447408,-0.00718183,0.02559294,-0.00378444,
 0.01369466,-0.04404638,0.05443419,-0.02752829,-0.00412802,0.03021563,0
 .00036011,-0.00047383,0.00125961,-0.00519623,0.00850629,0.00962529,0.0
 0006627,0.00018690,0.00003196,-0.07713775,0.05180132,0.07144172,-0.000
 09548,0.00007344,-0.00047054,0.00023892,-0.00018948,-0.00009040,-0.000
 12571,0.00224851,-0.00024695,-0.00008229,0.00007894,0.00005188,0.00008
 672,0.00004131,0.00002394,-0.00005884,-0.00017554,0.00007540,-0.000061
 75,-0.00029495,0.00016049,0.10150530,-0.01103149,0.00867810,0.02066626
 ,-0.00116171,0.00231619,-0.00113088,0.01577233,-0.01513877,-0.02460035
 ,-0.00024590,-0.00058225,-0.00050072,0.04141137,-0.09932662,-0.0843945
 0,0.00018094,0.00018664,0.00083301,-0.00054635,0.00002236,-0.00026545,
 0.00210160,-0.00530241,0.00221978,-0.00090717,0.00142454,-0.00028766,0
 .00010587,-0.00046849,0.00005755,0.00019553,0.00035489,-0.00023755,-0.
 00059850,0.00057643,-0.00008674,-0.05025453,0.11200824,0.01267728,0.00
 687348,-0.01197356,-0.00011031,-0.00063131,0.00132322,-0.00740609,0.00
 591412,0.00738755,0.00025176,0.00049158,0.00056245,0.08294257,-0.09658
 579,-0.19169503,0.00049365,-0.00013704,0.00040259,0.00025407,0.0001490
 1,0.00038531,-0.00148900,0.00219628,0.00030325,0.00082413,-0.00198011,
 0.00039088,-0.00023393,0.00032601,-0.00003228,-0.00007300,-0.00020505,
 0.00020358,0.00060977,-0.00036436,-0.00006188,-0.09515412,0.09304744,0
 .20964245,-0.03551078,-0.01645218,-0.00421273,0.00037415,0.00195834,0.
 00013579,-0.00991295,0.00120344,-0.00895912,0.00046390,0.00041536,0.00
 051516,-0.14047470,-0.02100783,-0.12425111,0.00001556,0.00001092,0.000
 11133,-0.00033488,0.00003076,-0.00043072,-0.00018094,-0.00016188,0.000
 18632,0.00114696,-0.00123386,0.00063832,-0.00016318,0.00017154,-0.0000
 0545,-0.00008217,-0.00014610,0.00014950,0.00043445,-0.00035069,0.00008
 440,0.00802903,0.00497802,0.00641322,0.17619555,-0.01526724,-0.0142210
 3,-0.00634417,0.00161294,-0.00289520,0.00019997,0.02486453,-0.00380084
 ,0.01946263,-0.00070804,-0.00117944,-0.00054541,-0.03292477,-0.0234510
 5,-0.02514244,-0.00012900,-0.00009120,-0.00033951,0.00062693,-0.000486
 35,0.00071687,-0.00014426,0.00060919,-0.00054214,-0.00067598,0.0026954
 4,-0.00043630,0.00025973,-0.00028998,-0.00000964,0.00013329,0.00025398
 ,-0.00018435,-0.00081193,0.00044421,-0.00023190,-0.00742036,-0.0047488
 6,-0.00909426,0.03058416,0.04716113,0.00044715,-0.00489807,0.00969824,
 -0.00058283,0.00316596,0.00092911,-0.00564562,-0.00245284,-0.00696043,
 0.00031812,0.00046343,0.00008568,-0.10703500,-0.01329583,-0.15949332,0
 .00016601,-0.00008463,0.00041337,-0.00081451,0.00000549,-0.00064732,0.
 00012883,0.00019580,0.00053195,0.00021799,0.00019633,0.00005896,-0.000
 05496,-0.00002300,0.00000306,-0.00000441,-0.00017505,-0.00000905,0.000
 15805,-0.00026807,-0.00004361,-0.01692390,-0.00532019,-0.01683854,0.12
 962509,0.02249066,0.17227189\\-0.00000005,0.00000031,0.00000022,-0.000
 00010,-0.00000008,-0.00000011,0.00000027,0.,-0.00000029,-0.00000033,0.
 00000032,0.00000058,0.00000045,-0.00000052,-0.00000030,-0.00000052,-0.
 00000045,-0.00000018,0.00000013,-0.00000007,-0.00000012,0.00000081,0.0
 0000024,-0.00000027,0.00000049,-0.00000046,-0.00000080,0.00000010,0.00
 000070,0.00000074,-0.00000063,0.00000032,0.00000084,-0.00000055,0.0000
 0027,0.00000071,-0.00000041,-0.00000043,-0.00000044,0.00000036,-0.0000
 0016,-0.00000059\\\@


 UNLESS WE CHANGE DIRECTIONS, WE WILL WIND UP WHERE WE ARE HEADED.
     -- CONFUCIUS
 Job cpu time:       0 days  1 hours 48 minutes 24.1 seconds.
 Elapsed time:       0 days  0 hours  5 minutes 25.7 seconds.
 File lengths (MBytes):  RWF=   1376 Int=      0 D2E=      0 Chk=     32 Scr=     32
 Normal termination of Gaussian 16 at Tue Apr  9 00:46:19 2019.
