 Entering Gaussian System, Link 0=g16
 Input=QOOQLKSEGVNYLA-UHFFFAOYSA-N_GeoFreq_a1.com
 Output=QOOQLKSEGVNYLA-UHFFFAOYSA-N_GeoFreq_a1.log
 Initial command:
 /shared/centos7/gaussian/g16/l1.exe "/scratch/underkoffler.c/gaussian_scratch/Gau-47004.inp" -scrdir="/scratch/underkoffler.c/gaussian_scratch/"
 Entering Link 1 = /shared/centos7/gaussian/g16/l1.exe PID=     47005.
  
 Copyright (c) 1988,1990,1992,1993,1995,1998,2003,2009,2016,
            Gaussian, Inc.  All Rights Reserved.
  
 This is part of the Gaussian(R) 16 program.  It is based on
 the Gaussian(R) 09 system (copyright 2009, Gaussian, Inc.),
 the Gaussian(R) 03 system (copyright 2003, Gaussian, Inc.),
 the Gaussian(R) 98 system (copyright 1998, Gaussian, Inc.),
 the Gaussian(R) 94 system (copyright 1995, Gaussian, Inc.),
 the Gaussian 92(TM) system (copyright 1992, Gaussian, Inc.),
 the Gaussian 90(TM) system (copyright 1990, Gaussian, Inc.),
 the Gaussian 88(TM) system (copyright 1988, Gaussian, Inc.),
 the Gaussian 86(TM) system (copyright 1986, Carnegie Mellon
 University), and the Gaussian 82(TM) system (copyright 1983,
 Carnegie Mellon University). Gaussian is a federally registered
 trademark of Gaussian, Inc.
  
 This software contains proprietary and confidential information,
 including trade secrets, belonging to Gaussian, Inc.
  
 This software is provided under written license and may be
 used, copied, transmitted, or stored only in accord with that
 written license.
  
 The following legend is applicable only to US Government
 contracts under FAR:
  
                    RESTRICTED RIGHTS LEGEND
  
 Use, reproduction and disclosure by the US Government is
 subject to restrictions as set forth in subparagraphs (a)
 and (c) of the Commercial Computer Software - Restricted
 Rights clause in FAR 52.227-19.
  
 Gaussian, Inc.
 340 Quinnipiac St., Bldg. 40, Wallingford CT 06492
  
  
 ---------------------------------------------------------------
 Warning -- This program may not be used in any manner that
 competes with the business of Gaussian, Inc. or will provide
 assistance to any competitor of Gaussian, Inc.  The licensee
 of this program is prohibited from giving any competitor of
 Gaussian, Inc. access to this program.  By using this program,
 the user acknowledges that Gaussian, Inc. is engaged in the
 business of creating and licensing software in the field of
 computational chemistry and represents and warrants to the
 licensee that it is not a competitor of Gaussian, Inc. and that
 it will not use this program in any manner prohibited above.
 ---------------------------------------------------------------
  

 Cite this work as:
 Gaussian 16, Revision A.03,
 M. J. Frisch, G. W. Trucks, H. B. Schlegel, G. E. Scuseria, 
 M. A. Robb, J. R. Cheeseman, G. Scalmani, V. Barone, 
 G. A. Petersson, H. Nakatsuji, X. Li, M. Caricato, A. V. Marenich, 
 J. Bloino, B. G. Janesko, R. Gomperts, B. Mennucci, H. P. Hratchian, 
 J. V. Ortiz, A. F. Izmaylov, J. L. Sonnenberg, D. Williams-Young, 
 F. Ding, F. Lipparini, F. Egidi, J. Goings, B. Peng, A. Petrone, 
 T. Henderson, D. Ranasinghe, V. G. Zakrzewski, J. Gao, N. Rega, 
 G. Zheng, W. Liang, M. Hada, M. Ehara, K. Toyota, R. Fukuda, 
 J. Hasegawa, M. Ishida, T. Nakajima, Y. Honda, O. Kitao, H. Nakai, 
 T. Vreven, K. Throssell, J. A. Montgomery, Jr., J. E. Peralta, 
 F. Ogliaro, M. J. Bearpark, J. J. Heyd, E. N. Brothers, K. N. Kudin, 
 V. N. Staroverov, T. A. Keith, R. Kobayashi, J. Normand, 
 K. Raghavachari, A. P. Rendell, J. C. Burant, S. S. Iyengar, 
 J. Tomasi, M. Cossi, J. M. Millam, M. Klene, C. Adamo, R. Cammi, 
 J. W. Ochterski, R. L. Martin, K. Morokuma, O. Farkas, 
 J. B. Foresman, and D. J. Fox, Gaussian, Inc., Wallingford CT, 2016.
 
 ******************************************
 Gaussian 16:  EM64L-G16RevA.03 25-Dec-2016
                11-Mar-2019 
 ******************************************
 %nprocshared=20
 Will use up to   20 processors via shared memory.
 %mem=5GB
 ----------------------------------------------------------------------
 #p m062x/6-311+g(2df,2p) opt=(calcfc,verytight,gdiis,maxcycles=900) fr
 eq iop(7/33=1,2/16=3)
 ----------------------------------------------------------------------

 Warning!  Use of Opt=GDIIS is deprecated since it is seldom a good choice.

 1/6=900,7=1,10=4,18=20,19=11,26=3,38=1/1,3;
 2/9=110,12=2,16=3,17=6,18=5,40=1/2;
 3/5=4,6=6,7=214,11=2,25=1,30=1,71=2,74=-55,140=1/1,2,3;
 4//1;
 5/5=2,38=5/2;
 8/6=4,10=90,11=11/1;
 11/6=1,8=1,9=11,15=111,16=1/1,2,10;
 10/6=1,13=1/2;
 6/7=2,8=2,9=2,10=2,28=1/1;
 7/10=1,18=20,25=1,33=1/1,2,3,16;
 1/6=900,7=1,10=4,18=20,19=11,26=3/3(2);
 2/9=110,16=3/2;
 99//99;
 2/9=110,16=3/2;
 3/5=4,6=6,7=214,11=2,25=1,30=1,71=1,74=-55/1,2,3;
 4/5=5,16=3,69=1/1;
 5/5=2,38=5/2;
 7/33=1/1,2,3,16;
 1/6=900,7=1,18=20,19=11,26=3/3(-5);
 2/9=110,16=3/2;
 6/7=2,8=2,9=2,10=2,19=2,28=1/1;
 99/9=1/99;
 Leave Link    1 at Mon Mar 11 15:37:46 2019, MaxMem=   671088640 cpu:              18.6 elap:               1.0
 (Enter /shared/centos7/gaussian/g16/l101.exe)
 ------------------------------
 Gaussian input prepared by ASE
 ------------------------------
 Symbolic Z-matrix:
 Charge =  0 Multiplicity = 2
 O                     1.45279   0.98873  -0.09195 
 C                    -1.26405  -0.52061   0.23158 
 C                     0.05616  -1.01588  -0.36799 
 C                    -1.57494   0.90347  -0.06859 
 C                     1.28721  -0.37097   0.25466 
 H                    -2.07559  -1.15391  -0.15389 
 H                    -1.25629  -0.68206   1.31304 
 H                     0.0686   -0.8294   -1.44473 
 H                     0.12646  -2.0964   -0.22566 
 H                    -2.21      1.48014   0.58739 
 H                    -1.40845   1.28705  -1.06611 
 H                     0.66894   1.47433   0.18198 
 H                     1.25185  -0.49033   1.3448 
 H                     2.18589  -0.87535  -0.09915 
 
 ITRead=  0  0  0  0  0  0  0  0  0  0  0  0  0  0
 MicOpt= -1 -1 -1 -1 -1 -1 -1 -1 -1 -1 -1 -1 -1 -1
 NAtoms=     14 NQM=       14 NQMF=       0 NMMI=      0 NMMIF=      0
                NMic=       0 NMicF=      0.
                    Isotopes and Nuclear Properties:
 (Nuclear quadrupole moments (NQMom) in fm**2, nuclear magnetic moments (NMagM)
  in nuclear magnetons)

  Atom         1           2           3           4           5           6           7           8           9          10
 IAtWgt=          16          12          12          12          12           1           1           1           1           1
 AtmWgt=  15.9949146  12.0000000  12.0000000  12.0000000  12.0000000   1.0078250   1.0078250   1.0078250   1.0078250   1.0078250
 NucSpn=           0           0           0           0           0           1           1           1           1           1
 AtZEff=  -0.0000000  -0.0000000  -0.0000000  -0.0000000  -0.0000000  -0.0000000  -0.0000000  -0.0000000  -0.0000000  -0.0000000
 NQMom=    0.0000000   0.0000000   0.0000000   0.0000000   0.0000000   0.0000000   0.0000000   0.0000000   0.0000000   0.0000000
 NMagM=    0.0000000   0.0000000   0.0000000   0.0000000   0.0000000   2.7928460   2.7928460   2.7928460   2.7928460   2.7928460
 AtZNuc=   8.0000000   6.0000000   6.0000000   6.0000000   6.0000000   1.0000000   1.0000000   1.0000000   1.0000000   1.0000000

  Atom        11          12          13          14
 IAtWgt=           1           1           1           1
 AtmWgt=   1.0078250   1.0078250   1.0078250   1.0078250
 NucSpn=           1           1           1           1
 AtZEff=  -0.0000000  -0.0000000  -0.0000000  -0.0000000
 NQMom=    0.0000000   0.0000000   0.0000000   0.0000000
 NMagM=    2.7928460   2.7928460   2.7928460   2.7928460
 AtZNuc=   1.0000000   1.0000000   1.0000000   1.0000000
 Leave Link  101 at Mon Mar 11 15:37:46 2019, MaxMem=   671088640 cpu:               5.1 elap:               0.3
 (Enter /shared/centos7/gaussian/g16/l103.exe)

 GradGradGradGradGradGradGradGradGradGradGradGradGradGradGradGradGradGrad
 Berny optimization.
 Initialization pass.
                           ----------------------------
                           !    Initial Parameters    !
                           ! (Angstroms and Degrees)  !
 --------------------------                            --------------------------
 ! Name  Definition              Value          Derivative Info.                !
 --------------------------------------------------------------------------------
 ! R1    R(1,5)                  1.4129         calculate D2E/DX2 analytically  !
 ! R2    R(1,12)                 0.9619         calculate D2E/DX2 analytically  !
 ! R3    R(2,3)                  1.5322         calculate D2E/DX2 analytically  !
 ! R4    R(2,4)                  1.4882         calculate D2E/DX2 analytically  !
 ! R5    R(2,6)                  1.0992         calculate D2E/DX2 analytically  !
 ! R6    R(2,7)                  1.0935         calculate D2E/DX2 analytically  !
 ! R7    R(3,5)                  1.5229         calculate D2E/DX2 analytically  !
 ! R8    R(3,8)                  1.0928         calculate D2E/DX2 analytically  !
 ! R9    R(3,9)                  1.0921         calculate D2E/DX2 analytically  !
 ! R10   R(4,10)                 1.0799         calculate D2E/DX2 analytically  !
 ! R11   R(4,11)                 1.0816         calculate D2E/DX2 analytically  !
 ! R12   R(5,13)                 1.0972         calculate D2E/DX2 analytically  !
 ! R13   R(5,14)                 1.0896         calculate D2E/DX2 analytically  !
 ! A1    A(5,1,12)             108.6913         calculate D2E/DX2 analytically  !
 ! A2    A(3,2,4)              114.2282         calculate D2E/DX2 analytically  !
 ! A3    A(3,2,6)              108.2207         calculate D2E/DX2 analytically  !
 ! A4    A(3,2,7)              109.4611         calculate D2E/DX2 analytically  !
 ! A5    A(4,2,6)              109.0477         calculate D2E/DX2 analytically  !
 ! A6    A(4,2,7)              110.0148         calculate D2E/DX2 analytically  !
 ! A7    A(6,2,7)              105.4856         calculate D2E/DX2 analytically  !
 ! A8    A(2,3,5)              113.5559         calculate D2E/DX2 analytically  !
 ! A9    A(2,3,8)              109.8888         calculate D2E/DX2 analytically  !
 ! A10   A(2,3,9)              108.9214         calculate D2E/DX2 analytically  !
 ! A11   A(5,3,8)              108.7464         calculate D2E/DX2 analytically  !
 ! A12   A(5,3,9)              108.2806         calculate D2E/DX2 analytically  !
 ! A13   A(8,3,9)              107.2472         calculate D2E/DX2 analytically  !
 ! A14   A(2,4,10)             120.7519         calculate D2E/DX2 analytically  !
 ! A15   A(2,4,11)             119.5529         calculate D2E/DX2 analytically  !
 ! A16   A(10,4,11)            117.4746         calculate D2E/DX2 analytically  !
 ! A17   A(1,5,3)              113.7015         calculate D2E/DX2 analytically  !
 ! A18   A(1,5,13)             110.6216         calculate D2E/DX2 analytically  !
 ! A19   A(1,5,14)             105.6142         calculate D2E/DX2 analytically  !
 ! A20   A(3,5,13)             109.5181         calculate D2E/DX2 analytically  !
 ! A21   A(3,5,14)             109.7515         calculate D2E/DX2 analytically  !
 ! A22   A(13,5,14)            107.3882         calculate D2E/DX2 analytically  !
 ! D1    D(12,1,5,3)            58.1788         calculate D2E/DX2 analytically  !
 ! D2    D(12,1,5,13)          -65.536          calculate D2E/DX2 analytically  !
 ! D3    D(12,1,5,14)          178.5701         calculate D2E/DX2 analytically  !
 ! D4    D(4,2,3,5)             67.6478         calculate D2E/DX2 analytically  !
 ! D5    D(4,2,3,8)            -54.3952         calculate D2E/DX2 analytically  !
 ! D6    D(4,2,3,9)           -171.6098         calculate D2E/DX2 analytically  !
 ! D7    D(6,2,3,5)           -170.6903         calculate D2E/DX2 analytically  !
 ! D8    D(6,2,3,8)             67.2667         calculate D2E/DX2 analytically  !
 ! D9    D(6,2,3,9)            -49.9479         calculate D2E/DX2 analytically  !
 ! D10   D(7,2,3,5)            -56.2061         calculate D2E/DX2 analytically  !
 ! D11   D(7,2,3,8)           -178.2491         calculate D2E/DX2 analytically  !
 ! D12   D(7,2,3,9)             64.5363         calculate D2E/DX2 analytically  !
 ! D13   D(3,2,4,10)          -154.4719         calculate D2E/DX2 analytically  !
 ! D14   D(3,2,4,11)            42.8822         calculate D2E/DX2 analytically  !
 ! D15   D(6,2,4,10)            84.3225         calculate D2E/DX2 analytically  !
 ! D16   D(6,2,4,11)           -78.3234         calculate D2E/DX2 analytically  !
 ! D17   D(7,2,4,10)           -30.9158         calculate D2E/DX2 analytically  !
 ! D18   D(7,2,4,11)           166.4383         calculate D2E/DX2 analytically  !
 ! D19   D(2,3,5,1)            -70.8935         calculate D2E/DX2 analytically  !
 ! D20   D(2,3,5,13)            53.4188         calculate D2E/DX2 analytically  !
 ! D21   D(2,3,5,14)           171.0749         calculate D2E/DX2 analytically  !
 ! D22   D(8,3,5,1)             51.7815         calculate D2E/DX2 analytically  !
 ! D23   D(8,3,5,13)           176.0938         calculate D2E/DX2 analytically  !
 ! D24   D(8,3,5,14)           -66.2501         calculate D2E/DX2 analytically  !
 ! D25   D(9,3,5,1)            168.004          calculate D2E/DX2 analytically  !
 ! D26   D(9,3,5,13)           -67.6837         calculate D2E/DX2 analytically  !
 ! D27   D(9,3,5,14)            49.9724         calculate D2E/DX2 analytically  !
 --------------------------------------------------------------------------------
 Trust Radius=3.00D-01 FncErr=1.00D-07 GrdErr=1.00D-06 EigMax=2.50D+02 EigMin=1.00D-04
 Number of steps in this run=    100 maximum allowed number of steps=    100.
 GradGradGradGradGradGradGradGradGradGradGradGradGradGradGradGradGradGrad

 Leave Link  103 at Mon Mar 11 15:37:46 2019, MaxMem=   671088640 cpu:               0.5 elap:               0.0
 (Enter /shared/centos7/gaussian/g16/l202.exe)
                          Input orientation:                          
 ---------------------------------------------------------------------
 Center     Atomic      Atomic             Coordinates (Angstroms)
 Number     Number       Type             X           Y           Z
 ---------------------------------------------------------------------
      1          8           0        1.452788    0.988727   -0.091949
      2          6           0       -1.264052   -0.520605    0.231583
      3          6           0        0.056159   -1.015879   -0.367991
      4          6           0       -1.574935    0.903466   -0.068592
      5          6           0        1.287210   -0.370966    0.254656
      6          1           0       -2.075593   -1.153909   -0.153890
      7          1           0       -1.256293   -0.682062    1.313040
      8          1           0        0.068600   -0.829401   -1.444732
      9          1           0        0.126460   -2.096398   -0.225663
     10          1           0       -2.210003    1.480138    0.587391
     11          1           0       -1.408450    1.287054   -1.066111
     12          1           0        0.668944    1.474334    0.181976
     13          1           0        1.251847   -0.490330    1.344801
     14          1           0        2.185891   -0.875346   -0.099153
 ---------------------------------------------------------------------
                    Distance matrix (angstroms):
                    1          2          3          4          5
     1  O    0.000000
     2  C    3.124736   0.000000
     3  C    2.458702   1.532234   0.000000
     4  C    3.029013   1.488197   2.536532   0.000000
     5  C    1.412911   2.555751   1.522855   3.149689   0.000000
     6  H    4.128462   1.099210   2.146918   2.119133   3.476831
     7  H    3.479174   1.093471   2.158664   2.127049   2.772429
     8  H    2.655483   2.163642   1.092840   2.756410   2.140816
     9  H    3.360807   2.150749   1.092118   3.452333   2.134283
    10  H    3.757529   2.241516   3.504047   1.079896   3.970869
    11  H    3.037215   2.229908   2.817082   1.081620   3.429291
    12  H    0.961905   2.778258   2.622810   2.328877   1.947477
    13  H    2.071772   2.751349   2.153956   3.454134   1.097230
    14  H    2.003063   3.483868   2.151228   4.160399   1.089591
                    6          7          8          9         10
     6  H    0.000000
     7  H    1.745215   0.000000
     8  H    2.523716   3.063063   0.000000
     9  H    2.396346   2.505985   1.759193   0.000000
    10  H    2.739666   2.472092   3.828254   4.348761   0.000000
    11  H    2.689894   3.092075   2.608527   3.809206   1.847657
    12  H    3.814833   3.104173   2.883364   3.634637   2.907358
    13  H    3.709214   2.515658   3.049022   2.512431   4.054728
    14  H    4.270930   3.725625   2.509106   2.397546   5.034236
                   11         12         13         14
    11  H    0.000000
    12  H    2.430712   0.000000
    13  H    4.006092   2.356235   0.000000
    14  H    4.304680   2.810900   1.762294   0.000000
 Stoichiometry    C4H9O(2)
 Framework group  C1[X(C4H9O)]
 Deg. of freedom    36
 Full point group                 C1      NOp   1
 Largest Abelian subgroup         C1      NOp   1
 Largest concise Abelian subgroup C1      NOp   1
                         Standard orientation:                         
 ---------------------------------------------------------------------
 Center     Atomic      Atomic             Coordinates (Angstroms)
 Number     Number       Type             X           Y           Z
 ---------------------------------------------------------------------
      1          8           0        1.452788    0.988727   -0.091949
      2          6           0       -1.264052   -0.520604    0.231583
      3          6           0        0.056159   -1.015879   -0.367991
      4          6           0       -1.574935    0.903467   -0.068592
      5          6           0        1.287210   -0.370966    0.254656
      6          1           0       -2.075593   -1.153908   -0.153890
      7          1           0       -1.256293   -0.682061    1.313040
      8          1           0        0.068600   -0.829401   -1.444732
      9          1           0        0.126460   -2.096398   -0.225663
     10          1           0       -2.210003    1.480139    0.587391
     11          1           0       -1.408450    1.287055   -1.066111
     12          1           0        0.668944    1.474334    0.181976
     13          1           0        1.251847   -0.490330    1.344801
     14          1           0        2.185891   -0.875346   -0.099153
 ---------------------------------------------------------------------
 Rotational constants (GHZ):           7.5427750           3.8011991           2.8243883
 Leave Link  202 at Mon Mar 11 15:37:47 2019, MaxMem=   671088640 cpu:               0.3 elap:               0.0
 (Enter /shared/centos7/gaussian/g16/l301.exe)
 Standard basis: 6-311+G(2df,2p) (5D, 7F)
 Ernie: Thresh=  0.10000D-02 Tol=  0.10000D-05 Strict=F.
 There are   276 symmetry adapted cartesian basis functions of A   symmetry.
 There are   251 symmetry adapted basis functions of A   symmetry.
   251 basis functions,   359 primitive gaussians,   276 cartesian basis functions
    21 alpha electrons       20 beta electrons
       nuclear repulsion energy       184.4289996408 Hartrees.
 IExCor= 4336 DFT=T Ex+Corr=M062X ExCW=0 ScaHFX=  0.540000
 ScaDFX=  1.000000  1.000000  1.000000  1.000000 ScalE2=  1.000000  1.000000
 IRadAn=      5 IRanWt=     -1 IRanGd=            0 ICorTp=0 IEmpDi=  4
 NAtoms=   14 NActive=   14 NUniq=   14 SFac= 1.00D+00 NAtFMM=   60 NAOKFM=F Big=F
 Integral buffers will be    131072 words long.
 Raffenetti 2 integral format.
 Two-electron integral symmetry is turned on.
 Leave Link  301 at Mon Mar 11 15:37:47 2019, MaxMem=   671088640 cpu:               1.2 elap:               0.1
 (Enter /shared/centos7/gaussian/g16/l302.exe)
 NPDir=0 NMtPBC=     1 NCelOv=     1 NCel=       1 NClECP=     1 NCelD=      1
         NCelK=      1 NCelE2=     1 NClLst=     1 CellRange=     0.0.
 One-electron integrals computed using PRISM.
 One-electron integral symmetry used in STVInt
 NBasis=   251 RedAO= T EigKep=  5.63D-05  NBF=   251
 NBsUse=   251 1.00D-06 EigRej= -1.00D+00 NBFU=   251
 Precomputing XC quadrature grid using
 IXCGrd= 4 IRadAn=           5 IRanWt=          -1 IRanGd=           0 AccXCQ= 0.00D+00.
 Generated NRdTot=       0 NPtTot=           0 NUsed=           0 NTot=          32
 NSgBfM=   276   276   276   276   276 MxSgAt=    14 MxSgA2=    14.
 Leave Link  302 at Mon Mar 11 15:37:47 2019, MaxMem=   671088640 cpu:               8.3 elap:               0.4
 (Enter /shared/centos7/gaussian/g16/l303.exe)
 DipDrv:  MaxL=1.
 Leave Link  303 at Mon Mar 11 15:37:47 2019, MaxMem=   671088640 cpu:               0.7 elap:               0.1
 (Enter /shared/centos7/gaussian/g16/l401.exe)
 ExpMin= 4.38D-02 ExpMax= 8.59D+03 ExpMxC= 1.30D+03 IAcc=3 IRadAn=         5 AccDes= 0.00D+00
 Harris functional with IExCor= 1009 and IRadAn=       5 diagonalized for initial guess.
 HarFok:  IExCor= 1009 AccDes= 0.00D+00 IRadAn=         5 IDoV= 1 UseB2=F ITyADJ=14
 ICtDFT=  3500011 ScaDFX=  1.000000  1.000000  1.000000  1.000000
 FoFCou: FMM=F IPFlag=           0 FMFlag=      100000 FMFlg1=           0
         NFxFlg=           0 DoJE=T BraDBF=F KetDBF=T FulRan=T
         wScrn=  0.000000 ICntrl=       500 IOpCl=  0 I1Cent=   200000004 NGrid=           0
         NMat0=    1 NMatS0=      1 NMatT0=    0 NMatD0=    1 NMtDS0=    0 NMtDT0=    0
 Petite list used in FoFCou.
 Harris En= -232.888158454562    
 JPrj=0 DoOrth=F DoCkMO=F.
 Initial guess <Sx>= 0.0000 <Sy>= 0.0000 <Sz>= 0.5000 <S**2>= 0.7500 S= 0.5000
 Leave Link  401 at Mon Mar 11 15:37:48 2019, MaxMem=   671088640 cpu:              27.0 elap:               1.4
 (Enter /shared/centos7/gaussian/g16/l502.exe)
 Integral symmetry usage will be decided dynamically.
 UHF open shell SCF:
 Using DIIS extrapolation, IDIIS=  1040.
 NGot=   671088640 LenX=   670928170 LenY=   670851553
 Requested convergence on RMS density matrix=1.00D-08 within 128 cycles.
 Requested convergence on MAX density matrix=1.00D-06.
 Requested convergence on             energy=1.00D-06.
 No special actions if energy rises.
 Fock matrices will be formed incrementally for  20 cycles.

 Cycle   1  Pass 1  IDiag  1:
 FoFJK:  IHMeth= 1 ICntrl=       0 DoSepK=F KAlg= 0 I1Cent=           0 FoldK=F
 IRaf= 990000000 NMat=       1 IRICut=       1 DoRegI=T DoRafI=F ISym2E= 0 IDoP0=0 IntGTp=1.
 FoFCou: FMM=F IPFlag=           0 FMFlag=      100000 FMFlg1=           0
         NFxFlg=           0 DoJE=F BraDBF=F KetDBF=F FulRan=T
         wScrn=  0.000000 ICntrl=         0 IOpCl=  1 I1Cent=           0 NGrid=           0
         NMat0=    1 NMatS0=      1 NMatT0=    0 NMatD0=    1 NMtDS0=    0 NMtDT0=    0
 Symmetry not used in FoFCou.
 E= -232.782427158914    
 DIIS: error= 2.17D-02 at cycle   1 NSaved=   1.
 NSaved= 1 IEnMin= 1 EnMin= -232.782427158914     IErMin= 1 ErrMin= 2.17D-02
 ErrMax= 2.17D-02  0.00D+00 EMaxC= 1.00D-01 BMatC= 8.80D-01 BMatP= 8.80D-01
 IDIUse=3 WtCom= 7.83D-01 WtEn= 2.17D-01
 Coeff-Com:  0.100D+01
 Coeff-En:   0.100D+01
 Coeff:      0.100D+01
 Gap=     0.247 Goal=   None    Shift=    0.000
 Gap=     0.297 Goal=   None    Shift=    0.000
 GapD=    0.247 DampG=1.000 DampE=0.500 DampFc=0.5000 IDamp=-1.
 Damping current iteration by 5.00D-01
 RMSDP=3.31D-03 MaxDP=1.73D-01              OVMax= 1.42D-01

 Cycle   2  Pass 1  IDiag  1:
 RMSU=  1.64D-03    CP:  9.79D-01
 E= -232.872834331136     Delta-E=       -0.090407172222 Rises=F Damp=T
 DIIS: error= 4.94D-03 at cycle   2 NSaved=   2.
 NSaved= 2 IEnMin= 2 EnMin= -232.872834331136     IErMin= 2 ErrMin= 4.94D-03
 ErrMax= 4.94D-03  0.00D+00 EMaxC= 1.00D-01 BMatC= 5.92D-02 BMatP= 8.80D-01
 IDIUse=3 WtCom= 9.51D-01 WtEn= 4.94D-02
 Coeff-Com: -0.794D-01 0.108D+01
 Coeff-En:   0.000D+00 0.100D+01
 Coeff:     -0.754D-01 0.108D+01
 Gap=     0.289 Goal=   None    Shift=    0.000
 Gap=     0.335 Goal=   None    Shift=    0.000
 RMSDP=1.26D-03 MaxDP=6.98D-02 DE=-9.04D-02 OVMax= 8.30D-02

 Cycle   3  Pass 1  IDiag  1:
 RMSU=  1.20D-03    CP:  9.69D-01  7.80D-01
 E= -232.961758926162     Delta-E=       -0.088924595026 Rises=F Damp=F
 DIIS: error= 3.08D-03 at cycle   3 NSaved=   3.
 NSaved= 3 IEnMin= 3 EnMin= -232.961758926162     IErMin= 3 ErrMin= 3.08D-03
 ErrMax= 3.08D-03  0.00D+00 EMaxC= 1.00D-01 BMatC= 1.45D-02 BMatP= 5.92D-02
 IDIUse=3 WtCom= 9.69D-01 WtEn= 3.08D-02
 Coeff-Com: -0.826D-01 0.328D+00 0.754D+00
 Coeff-En:   0.000D+00 0.000D+00 0.100D+01
 Coeff:     -0.800D-01 0.318D+00 0.762D+00
 Gap=     0.287 Goal=   None    Shift=    0.000
 Gap=     0.303 Goal=   None    Shift=    0.000
 RMSDP=2.22D-04 MaxDP=1.29D-02 DE=-8.89D-02 OVMax= 1.43D-02

 Cycle   4  Pass 1  IDiag  1:
 RMSU=  1.91D-04    CP:  9.68D-01  8.48D-01  9.89D-01
 E= -232.964052843696     Delta-E=       -0.002293917534 Rises=F Damp=F
 DIIS: error= 1.23D-03 at cycle   4 NSaved=   4.
 NSaved= 4 IEnMin= 4 EnMin= -232.964052843696     IErMin= 4 ErrMin= 1.23D-03
 ErrMax= 1.23D-03  0.00D+00 EMaxC= 1.00D-01 BMatC= 2.47D-03 BMatP= 1.45D-02
 IDIUse=3 WtCom= 9.88D-01 WtEn= 1.23D-02
 Coeff-Com: -0.294D-01 0.723D-01 0.339D+00 0.618D+00
 Coeff-En:   0.000D+00 0.000D+00 0.000D+00 0.100D+01
 Coeff:     -0.291D-01 0.714D-01 0.335D+00 0.623D+00
 Gap=     0.284 Goal=   None    Shift=    0.000
 Gap=     0.309 Goal=   None    Shift=    0.000
 RMSDP=9.35D-05 MaxDP=5.69D-03 DE=-2.29D-03 OVMax= 5.71D-03

 Cycle   5  Pass 1  IDiag  1:
 RMSU=  6.29D-05    CP:  9.67D-01  8.27D-01  1.01D+00  7.21D-01
 E= -232.964538067845     Delta-E=       -0.000485224149 Rises=F Damp=F
 DIIS: error= 4.38D-04 at cycle   5 NSaved=   5.
 NSaved= 5 IEnMin= 5 EnMin= -232.964538067845     IErMin= 5 ErrMin= 4.38D-04
 ErrMax= 4.38D-04  0.00D+00 EMaxC= 1.00D-01 BMatC= 1.71D-04 BMatP= 2.47D-03
 IDIUse=3 WtCom= 9.96D-01 WtEn= 4.38D-03
 Coeff-Com: -0.319D-02-0.299D-02 0.478D-01 0.222D+00 0.737D+00
 Coeff-En:   0.000D+00 0.000D+00 0.000D+00 0.000D+00 0.100D+01
 Coeff:     -0.318D-02-0.298D-02 0.475D-01 0.221D+00 0.738D+00
 Gap=     0.285 Goal=   None    Shift=    0.000
 Gap=     0.309 Goal=   None    Shift=    0.000
 RMSDP=4.05D-05 MaxDP=1.84D-03 DE=-4.85D-04 OVMax= 2.17D-03

 Cycle   6  Pass 1  IDiag  1:
 RMSU=  3.16D-05    CP:  9.67D-01  8.26D-01  1.02D+00  8.08D-01  9.10D-01
 E= -232.964587189893     Delta-E=       -0.000049122048 Rises=F Damp=F
 DIIS: error= 1.04D-04 at cycle   6 NSaved=   6.
 NSaved= 6 IEnMin= 6 EnMin= -232.964587189893     IErMin= 6 ErrMin= 1.04D-04
 ErrMax= 1.04D-04  0.00D+00 EMaxC= 1.00D-01 BMatC= 1.38D-05 BMatP= 1.71D-04
 IDIUse=3 WtCom= 9.99D-01 WtEn= 1.04D-03
 Coeff-Com:  0.435D-02-0.108D-01-0.508D-01-0.923D-01 0.484D-02 0.114D+01
 Coeff-En:   0.000D+00 0.000D+00 0.000D+00 0.000D+00 0.000D+00 0.100D+01
 Coeff:      0.435D-02-0.108D-01-0.507D-01-0.923D-01 0.483D-02 0.114D+01
 Gap=     0.286 Goal=   None    Shift=    0.000
 Gap=     0.310 Goal=   None    Shift=    0.000
 RMSDP=1.62D-05 MaxDP=8.48D-04 DE=-4.91D-05 OVMax= 1.82D-03

 Cycle   7  Pass 1  IDiag  1:
 RMSU=  1.07D-05    CP:  9.67D-01  8.23D-01  1.03D+00  8.26D-01  1.05D+00
                    CP:  1.14D+00
 E= -232.964596590616     Delta-E=       -0.000009400723 Rises=F Damp=F
 DIIS: error= 3.43D-05 at cycle   7 NSaved=   7.
 NSaved= 7 IEnMin= 7 EnMin= -232.964596590616     IErMin= 7 ErrMin= 3.43D-05
 ErrMax= 3.43D-05  0.00D+00 EMaxC= 1.00D-01 BMatC= 1.96D-06 BMatP= 1.38D-05
 IDIUse=1 WtCom= 1.00D+00 WtEn= 0.00D+00
 Coeff-Com:  0.134D-02-0.232D-02-0.177D-01-0.492D-01-0.803D-01 0.313D+00
 Coeff-Com:  0.835D+00
 Coeff:      0.134D-02-0.232D-02-0.177D-01-0.492D-01-0.803D-01 0.313D+00
 Coeff:      0.835D+00
 Gap=     0.286 Goal=   None    Shift=    0.000
 Gap=     0.310 Goal=   None    Shift=    0.000
 RMSDP=4.32D-06 MaxDP=4.05D-04 DE=-9.40D-06 OVMax= 3.95D-04

 Cycle   8  Pass 1  IDiag  1:
 RMSU=  3.21D-06    CP:  9.67D-01  8.22D-01  1.03D+00  8.26D-01  1.06D+00
                    CP:  1.21D+00  1.15D+00
 E= -232.964597406226     Delta-E=       -0.000000815609 Rises=F Damp=F
 DIIS: error= 1.26D-05 at cycle   8 NSaved=   8.
 NSaved= 8 IEnMin= 8 EnMin= -232.964597406226     IErMin= 8 ErrMin= 1.26D-05
 ErrMax= 1.26D-05  0.00D+00 EMaxC= 1.00D-01 BMatC= 2.17D-07 BMatP= 1.96D-06
 IDIUse=1 WtCom= 1.00D+00 WtEn= 0.00D+00
 Coeff-Com: -0.198D-03 0.652D-03 0.136D-02-0.301D-02-0.224D-01-0.466D-01
 Coeff-Com:  0.213D+00 0.857D+00
 Coeff:     -0.198D-03 0.652D-03 0.136D-02-0.301D-02-0.224D-01-0.466D-01
 Coeff:      0.213D+00 0.857D+00
 Gap=     0.286 Goal=   None    Shift=    0.000
 Gap=     0.310 Goal=   None    Shift=    0.000
 RMSDP=1.89D-06 MaxDP=8.60D-05 DE=-8.16D-07 OVMax= 1.81D-04

 Cycle   9  Pass 1  IDiag  1:
 RMSU=  1.41D-06    CP:  9.67D-01  8.23D-01  1.03D+00  8.26D-01  1.06D+00
                    CP:  1.22D+00  1.25D+00  1.16D+00
 E= -232.964597489701     Delta-E=       -0.000000083476 Rises=F Damp=F
 DIIS: error= 3.90D-06 at cycle   9 NSaved=   9.
 NSaved= 9 IEnMin= 9 EnMin= -232.964597489701     IErMin= 9 ErrMin= 3.90D-06
 ErrMax= 3.90D-06  0.00D+00 EMaxC= 1.00D-01 BMatC= 1.97D-08 BMatP= 2.17D-07
 IDIUse=1 WtCom= 1.00D+00 WtEn= 0.00D+00
 Coeff-Com: -0.210D-03 0.439D-03 0.246D-02 0.544D-02 0.638D-02-0.444D-01
 Coeff-Com: -0.741D-01 0.171D+00 0.933D+00
 Coeff:     -0.210D-03 0.439D-03 0.246D-02 0.544D-02 0.638D-02-0.444D-01
 Coeff:     -0.741D-01 0.171D+00 0.933D+00
 Gap=     0.286 Goal=   None    Shift=    0.000
 Gap=     0.310 Goal=   None    Shift=    0.000
 RMSDP=6.92D-07 MaxDP=2.75D-05 DE=-8.35D-08 OVMax= 3.19D-05

 Cycle  10  Pass 1  IDiag  1:
 RMSU=  3.11D-07    CP:  9.67D-01  8.23D-01  1.03D+00  8.25D-01  1.06D+00
                    CP:  1.21D+00  1.28D+00  1.28D+00  1.04D+00
 E= -232.964597497546     Delta-E=       -0.000000007845 Rises=F Damp=F
 DIIS: error= 8.99D-07 at cycle  10 NSaved=  10.
 NSaved=10 IEnMin=10 EnMin= -232.964597497546     IErMin=10 ErrMin= 8.99D-07
 ErrMax= 8.99D-07  0.00D+00 EMaxC= 1.00D-01 BMatC= 8.85D-10 BMatP= 1.97D-08
 IDIUse=1 WtCom= 1.00D+00 WtEn= 0.00D+00
 Coeff-Com: -0.817D-05 0.124D-04 0.207D-03 0.704D-03 0.172D-02-0.261D-02
 Coeff-Com: -0.199D-01-0.191D-01 0.102D+00 0.937D+00
 Coeff:     -0.817D-05 0.124D-04 0.207D-03 0.704D-03 0.172D-02-0.261D-02
 Coeff:     -0.199D-01-0.191D-01 0.102D+00 0.937D+00
 Gap=     0.286 Goal=   None    Shift=    0.000
 Gap=     0.310 Goal=   None    Shift=    0.000
 RMSDP=1.52D-07 MaxDP=8.14D-06 DE=-7.84D-09 OVMax= 8.73D-06

 Cycle  11  Pass 1  IDiag  1:
 RMSU=  1.02D-07    CP:  9.67D-01  8.23D-01  1.03D+00  8.25D-01  1.06D+00
                    CP:  1.21D+00  1.28D+00  1.30D+00  1.06D+00  1.23D+00
 E= -232.964597497926     Delta-E=       -0.000000000380 Rises=F Damp=F
 DIIS: error= 4.04D-07 at cycle  11 NSaved=  11.
 NSaved=11 IEnMin=11 EnMin= -232.964597497926     IErMin=11 ErrMin= 4.04D-07
 ErrMax= 4.04D-07  0.00D+00 EMaxC= 1.00D-01 BMatC= 2.18D-10 BMatP= 8.85D-10
 IDIUse=1 WtCom= 1.00D+00 WtEn= 0.00D+00
 Coeff-Com:  0.228D-04-0.489D-04-0.219D-03-0.392D-03-0.140D-03 0.430D-02
 Coeff-Com:  0.151D-02-0.259D-01-0.735D-01 0.319D+00 0.776D+00
 Coeff:      0.228D-04-0.489D-04-0.219D-03-0.392D-03-0.140D-03 0.430D-02
 Coeff:      0.151D-02-0.259D-01-0.735D-01 0.319D+00 0.776D+00
 Gap=     0.286 Goal=   None    Shift=    0.000
 Gap=     0.310 Goal=   None    Shift=    0.000
 RMSDP=5.64D-08 MaxDP=3.68D-06 DE=-3.80D-10 OVMax= 3.55D-06

 Cycle  12  Pass 1  IDiag  1:
 RMSU=  3.22D-08    CP:  9.67D-01  8.23D-01  1.03D+00  8.25D-01  1.06D+00
                    CP:  1.22D+00  1.28D+00  1.31D+00  1.06D+00  1.33D+00
                    CP:  1.15D+00
 E= -232.964597498001     Delta-E=       -0.000000000075 Rises=F Damp=F
 DIIS: error= 1.02D-07 at cycle  12 NSaved=  12.
 NSaved=12 IEnMin=12 EnMin= -232.964597498001     IErMin=12 ErrMin= 1.02D-07
 ErrMax= 1.02D-07  0.00D+00 EMaxC= 1.00D-01 BMatC= 1.52D-11 BMatP= 2.18D-10
 IDIUse=1 WtCom= 1.00D+00 WtEn= 0.00D+00
 Coeff-Com:  0.277D-05-0.615D-05-0.460D-04-0.112D-03-0.196D-03 0.766D-03
 Coeff-Com:  0.242D-02-0.479D-03-0.206D-01-0.788D-01 0.932D-01 0.100D+01
 Coeff:      0.277D-05-0.615D-05-0.460D-04-0.112D-03-0.196D-03 0.766D-03
 Coeff:      0.242D-02-0.479D-03-0.206D-01-0.788D-01 0.932D-01 0.100D+01
 Gap=     0.286 Goal=   None    Shift=    0.000
 Gap=     0.310 Goal=   None    Shift=    0.000
 RMSDP=2.37D-08 MaxDP=1.41D-06 DE=-7.49D-11 OVMax= 1.73D-06

 Cycle  13  Pass 1  IDiag  1:
 RMSU=  9.54D-09    CP:  9.67D-01  8.23D-01  1.03D+00  8.25D-01  1.06D+00
                    CP:  1.22D+00  1.27D+00  1.31D+00  1.06D+00  1.35D+00
                    CP:  1.31D+00  1.28D+00
 E= -232.964597498009     Delta-E=       -0.000000000008 Rises=F Damp=F
 DIIS: error= 2.98D-08 at cycle  13 NSaved=  13.
 NSaved=13 IEnMin=13 EnMin= -232.964597498009     IErMin=13 ErrMin= 2.98D-08
 ErrMax= 2.98D-08  0.00D+00 EMaxC= 1.00D-01 BMatC= 1.21D-12 BMatP= 1.52D-11
 IDIUse=1 WtCom= 1.00D+00 WtEn= 0.00D+00
 Coeff-Com: -0.162D-05 0.330D-05 0.114D-04 0.194D-04-0.126D-04-0.247D-03
 Coeff-Com:  0.146D-03 0.194D-02 0.349D-02-0.344D-01-0.582D-01 0.109D+00
 Coeff-Com:  0.978D+00
 Coeff:     -0.162D-05 0.330D-05 0.114D-04 0.194D-04-0.126D-04-0.247D-03
 Coeff:      0.146D-03 0.194D-02 0.349D-02-0.344D-01-0.582D-01 0.109D+00
 Coeff:      0.978D+00
 Gap=     0.286 Goal=   None    Shift=    0.000
 Gap=     0.310 Goal=   None    Shift=    0.000
 RMSDP=8.42D-09 MaxDP=5.20D-07 DE=-8.41D-12 OVMax= 5.97D-07

 SCF Done:  E(UM062X) =  -232.964597498     A.U. after   13 cycles
            NFock= 13  Conv=0.84D-08     -V/T= 2.0039
 <Sx>= 0.0000 <Sy>= 0.0000 <Sz>= 0.5000 <S**2>= 0.7553 S= 0.5027
 <L.S>= 0.000000000000E+00
 KE= 2.320645376593D+02 PE=-9.118508313936D+02 EE= 2.623926965955D+02
 Annihilation of the first spin contaminant:
 S**2 before annihilation     0.7553,   after     0.7500
 Leave Link  502 at Mon Mar 11 15:38:58 2019, MaxMem=   671088640 cpu:            1383.3 elap:              69.2
 (Enter /shared/centos7/gaussian/g16/l801.exe)
 DoSCS=F DFT=T ScalE2(SS,OS)=  1.000000  1.000000
 Range of M.O.s used for correlation:     1   251
 NBasis=   251 NAE=    21 NBE=    20 NFC=     0 NFV=     0
 NROrb=    251 NOA=    21 NOB=    20 NVA=   230 NVB=   231

 **** Warning!!: The largest alpha MO coefficient is  0.34958020D+02


 **** Warning!!: The largest beta MO coefficient is  0.33684249D+02

 Leave Link  801 at Mon Mar 11 15:38:58 2019, MaxMem=   671088640 cpu:               0.9 elap:               0.1
 (Enter /shared/centos7/gaussian/g16/l1101.exe)
 Using compressed storage, NAtomX=    14.
 Will process     15 centers per pass.
 Leave Link 1101 at Mon Mar 11 15:38:58 2019, MaxMem=   671088640 cpu:               8.9 elap:               0.5
 (Enter /shared/centos7/gaussian/g16/l1102.exe)
 Symmetrizing basis deriv contribution to polar:
 IMax=3 JMax=2 DiffMx= 0.00D+00
 Leave Link 1102 at Mon Mar 11 15:38:58 2019, MaxMem=   671088640 cpu:               1.0 elap:               0.1
 (Enter /shared/centos7/gaussian/g16/l1110.exe)
 Forming Gx(P) for the SCF density, NAtomX=    14.
 Integral derivatives from FoFJK, PRISM(SPDF).
 Do as many integral derivatives as possible in FoFJK.
 G2DrvN: MDV=     671087496.
 G2DrvN: will do    15 centers at a time, making    1 passes.
 Calling FoFCou, ICntrl=  3107 FMM=F I1Cent=   0 AccDes= 0.00D+00.
 FoFJK:  IHMeth= 1 ICntrl=    3107 DoSepK=F KAlg= 0 I1Cent=           0 FoldK=F
 IRaf=         0 NMat=       1 IRICut=       1 DoRegI=T DoRafI=F ISym2E= 0 IDoP0=0 IntGTp=1.
 FoFCou: FMM=F IPFlag=           0 FMFlag=      100000 FMFlg1=           0
         NFxFlg=           0 DoJE=F BraDBF=F KetDBF=F FulRan=T
         wScrn=  0.000000 ICntrl=      3107 IOpCl=  1 I1Cent=           0 NGrid=           0
         NMat0=    1 NMatS0=      1 NMatT0=    0 NMatD0=    1 NMtDS0=    0 NMtDT0=    0
 Symmetry not used in FoFCou.
 End of G2Drv F.D. properties file   721 does not exist.
 End of G2Drv F.D. properties file   722 does not exist.
 End of G2Drv F.D. properties file   788 does not exist.
 Leave Link 1110 at Mon Mar 11 15:41:25 2019, MaxMem=   671088640 cpu:            2936.2 elap:             146.9
 (Enter /shared/centos7/gaussian/g16/l1002.exe)
 Minotr:  UHF open shell wavefunction.
          IDoAtm=11111111111111
          Direct CPHF calculation.
          Differentiating once with respect to nuclear coordinates.
          Requested convergence is 1.0D-08 RMS, and 1.0D-07 maximum.
          Secondary convergence is 1.0D-12 RMS, and 1.0D-12 maximum.
          NewPWx=T KeepS1=F KeepF1=F KeepIn=T MapXYZ=F SortEE=F KeepMc=T.
         4243 words used for storage of precomputed grid.
 Two-electron integrals replicated using symmetry.
          MDV=     671088640 using IRadAn=       1.
          Solving linear equations simultaneously, MaxMat=     380.
 FoF2E skips out because all densities are zero.
 CalDSu exits because no D1Ps are significant.
 FoFJK:  IHMeth= 1 ICntrl=       0 DoSepK=F KAlg= 0 I1Cent=           0 FoldK=F
 IRaf= 980000000 NMat=      42 IRICut=     105 DoRegI=T DoRafI=T ISym2E= 2 IDoP0=3 IntGTp=3.
 FoFCou: FMM=F IPFlag=           0 FMFlag=      100000 FMFlg1=           0
         NFxFlg=           0 DoJE=F BraDBF=F KetDBF=F FulRan=T
         wScrn=  0.000000 ICntrl=         0 IOpCl=  1 I1Cent=           0 NGrid=           0
         NMat0=   42 NMatS0=     42 NMatT0=    0 NMatD0=   42 NMtDS0=    0 NMtDT0=    0
 Integrals replicated using symmetry in FoFCou.
 Raff kept on since  97.05% of shell-pairs survive, threshold=   0.20 IRatSp=97.
          There are    45 degrees of freedom in the 1st order CPHF.  IDoFFX=6 NUNeed=     0.
     39 vectors produced by pass  0 Test12= 2.10D-14 2.22D-09 XBig12= 1.34D-01 7.15D-02.
 AX will form    39 AO Fock derivatives at one time.
     39 vectors produced by pass  1 Test12= 2.10D-14 2.22D-09 XBig12= 1.13D-02 1.28D-02.
     39 vectors produced by pass  2 Test12= 2.10D-14 2.22D-09 XBig12= 5.52D-04 4.47D-03.
     39 vectors produced by pass  3 Test12= 2.10D-14 2.22D-09 XBig12= 1.10D-05 4.69D-04.
     39 vectors produced by pass  4 Test12= 2.10D-14 2.22D-09 XBig12= 1.32D-07 4.81D-05.
     39 vectors produced by pass  5 Test12= 2.10D-14 2.22D-09 XBig12= 1.28D-09 3.12D-06.
     38 vectors produced by pass  6 Test12= 2.10D-14 2.22D-09 XBig12= 8.79D-12 2.41D-07.
     13 vectors produced by pass  7 Test12= 2.10D-14 2.22D-09 XBig12= 5.92D-14 1.85D-08.
 InvSVY:  IOpt=1 It=  1 EMax= 1.78D-15
 Solved reduced A of dimension   285 with    39 vectors.
 End of Minotr F.D. properties file   721 does not exist.
 End of Minotr F.D. properties file   722 does not exist.
 End of Minotr F.D. properties file   788 does not exist.
 Leave Link 1002 at Mon Mar 11 15:45:13 2019, MaxMem=   671088640 cpu:            4547.0 elap:             227.4
 (Enter /shared/centos7/gaussian/g16/l601.exe)
 Copying SCF densities to generalized density rwf, IOpCl= 1 IROHF=0.

 **********************************************************************

            Population analysis using the SCF density.

 **********************************************************************

 Orbital symmetries:
 Alpha Orbitals:
       Occupied  (A) (A) (A) (A) (A) (A) (A) (A) (A) (A) (A) (A)
                 (A) (A) (A) (A) (A) (A) (A) (A) (A)
       Virtual   (A) (A) (A) (A) (A) (A) (A) (A) (A) (A) (A) (A)
                 (A) (A) (A) (A) (A) (A) (A) (A) (A) (A) (A) (A)
                 (A) (A) (A) (A) (A) (A) (A) (A) (A) (A) (A) (A)
                 (A) (A) (A) (A) (A) (A) (A) (A) (A) (A) (A) (A)
                 (A) (A) (A) (A) (A) (A) (A) (A) (A) (A) (A) (A)
                 (A) (A) (A) (A) (A) (A) (A) (A) (A) (A) (A) (A)
                 (A) (A) (A) (A) (A) (A) (A) (A) (A) (A) (A) (A)
                 (A) (A) (A) (A) (A) (A) (A) (A) (A) (A) (A) (A)
                 (A) (A) (A) (A) (A) (A) (A) (A) (A) (A) (A) (A)
                 (A) (A) (A) (A) (A) (A) (A) (A) (A) (A) (A) (A)
                 (A) (A) (A) (A) (A) (A) (A) (A) (A) (A) (A) (A)
                 (A) (A) (A) (A) (A) (A) (A) (A) (A) (A) (A) (A)
                 (A) (A) (A) (A) (A) (A) (A) (A) (A) (A) (A) (A)
                 (A) (A) (A) (A) (A) (A) (A) (A) (A) (A) (A) (A)
                 (A) (A) (A) (A) (A) (A) (A) (A) (A) (A) (A) (A)
                 (A) (A) (A) (A) (A) (A) (A) (A) (A) (A) (A) (A)
                 (A) (A) (A) (A) (A) (A) (A) (A) (A) (A) (A) (A)
                 (A) (A) (A) (A) (A) (A) (A) (A) (A) (A) (A) (A)
                 (A) (A) (A) (A) (A) (A) (A) (A) (A) (A) (A) (A)
                 (A) (A)
 Beta  Orbitals:
       Occupied  (A) (A) (A) (A) (A) (A) (A) (A) (A) (A) (A) (A)
                 (A) (A) (A) (A) (A) (A) (A) (A)
       Virtual   (A) (A) (A) (A) (A) (A) (A) (A) (A) (A) (A) (A)
                 (A) (A) (A) (A) (A) (A) (A) (A) (A) (A) (A) (A)
                 (A) (A) (A) (A) (A) (A) (A) (A) (A) (A) (A) (A)
                 (A) (A) (A) (A) (A) (A) (A) (A) (A) (A) (A) (A)
                 (A) (A) (A) (A) (A) (A) (A) (A) (A) (A) (A) (A)
                 (A) (A) (A) (A) (A) (A) (A) (A) (A) (A) (A) (A)
                 (A) (A) (A) (A) (A) (A) (A) (A) (A) (A) (A) (A)
                 (A) (A) (A) (A) (A) (A) (A) (A) (A) (A) (A) (A)
                 (A) (A) (A) (A) (A) (A) (A) (A) (A) (A) (A) (A)
                 (A) (A) (A) (A) (A) (A) (A) (A) (A) (A) (A) (A)
                 (A) (A) (A) (A) (A) (A) (A) (A) (A) (A) (A) (A)
                 (A) (A) (A) (A) (A) (A) (A) (A) (A) (A) (A) (A)
                 (A) (A) (A) (A) (A) (A) (A) (A) (A) (A) (A) (A)
                 (A) (A) (A) (A) (A) (A) (A) (A) (A) (A) (A) (A)
                 (A) (A) (A) (A) (A) (A) (A) (A) (A) (A) (A) (A)
                 (A) (A) (A) (A) (A) (A) (A) (A) (A) (A) (A) (A)
                 (A) (A) (A) (A) (A) (A) (A) (A) (A) (A) (A) (A)
                 (A) (A) (A) (A) (A) (A) (A) (A) (A) (A) (A) (A)
                 (A) (A) (A) (A) (A) (A) (A) (A) (A) (A) (A) (A)
                 (A) (A) (A)
 The electronic state is 2-A.
 Alpha  occ. eigenvalues --  -19.61294 -10.57741 -10.55130 -10.54553 -10.53564
 Alpha  occ. eigenvalues --   -1.13971  -0.90518  -0.81943  -0.72561  -0.66834
 Alpha  occ. eigenvalues --   -0.58826  -0.54578  -0.52606  -0.50186  -0.47743
 Alpha  occ. eigenvalues --   -0.46371  -0.41988  -0.41437  -0.39178  -0.34567
 Alpha  occ. eigenvalues --   -0.27031
 Alpha virt. eigenvalues --    0.01566   0.02860   0.03457   0.03791   0.06302
 Alpha virt. eigenvalues --    0.06598   0.06991   0.07116   0.07480   0.10639
 Alpha virt. eigenvalues --    0.11139   0.11439   0.11642   0.11787   0.15705
 Alpha virt. eigenvalues --    0.16488   0.18785   0.19536   0.21275   0.22645
 Alpha virt. eigenvalues --    0.23383   0.24454   0.24863   0.25470   0.26876
 Alpha virt. eigenvalues --    0.27616   0.28227   0.29041   0.29353   0.30969
 Alpha virt. eigenvalues --    0.31962   0.33087   0.37455   0.41828   0.43807
 Alpha virt. eigenvalues --    0.44047   0.47384   0.48383   0.52163   0.52662
 Alpha virt. eigenvalues --    0.54453   0.55021   0.55965   0.57277   0.58860
 Alpha virt. eigenvalues --    0.59665   0.60351   0.60919   0.62072   0.64083
 Alpha virt. eigenvalues --    0.64273   0.65019   0.65735   0.67258   0.69352
 Alpha virt. eigenvalues --    0.69965   0.71374   0.76418   0.78336   0.80816
 Alpha virt. eigenvalues --    0.83710   0.85334   0.88454   0.93235   0.96068
 Alpha virt. eigenvalues --    0.98865   1.00069   1.00464   1.02517   1.03305
 Alpha virt. eigenvalues --    1.05412   1.09246   1.11235   1.12726   1.14848
 Alpha virt. eigenvalues --    1.15866   1.17436   1.19586   1.21618   1.22811
 Alpha virt. eigenvalues --    1.24422   1.25208   1.26443   1.29484   1.32061
 Alpha virt. eigenvalues --    1.32909   1.35171   1.36283   1.36861   1.39854
 Alpha virt. eigenvalues --    1.40892   1.42702   1.44858   1.46418   1.47211
 Alpha virt. eigenvalues --    1.49257   1.50794   1.51812   1.53524   1.54368
 Alpha virt. eigenvalues --    1.55547   1.57895   1.59466   1.62949   1.65253
 Alpha virt. eigenvalues --    1.68185   1.70515   1.75902   1.81388   1.99440
 Alpha virt. eigenvalues --    2.10857   2.15841   2.29203   2.32067   2.41584
 Alpha virt. eigenvalues --    2.46726   2.47681   2.51882   2.53683   2.64454
 Alpha virt. eigenvalues --    2.66311   2.72370   2.74040   2.77208   2.80128
 Alpha virt. eigenvalues --    2.82111   2.85951   2.87598   2.89940   2.90851
 Alpha virt. eigenvalues --    2.93619   2.96223   2.96757   2.99608   3.03081
 Alpha virt. eigenvalues --    3.06713   3.08293   3.11842   3.14970   3.16614
 Alpha virt. eigenvalues --    3.19685   3.20230   3.23844   3.27910   3.28716
 Alpha virt. eigenvalues --    3.31426   3.32445   3.35144   3.36981   3.38810
 Alpha virt. eigenvalues --    3.41998   3.42487   3.47144   3.51169   3.54736
 Alpha virt. eigenvalues --    3.57121   3.60826   3.63735   3.64317   3.66373
 Alpha virt. eigenvalues --    3.68426   3.70453   3.71333   3.76013   3.77190
 Alpha virt. eigenvalues --    3.78545   3.84489   3.86822   3.88591   3.92598
 Alpha virt. eigenvalues --    3.96467   3.97118   3.99371   4.01849   4.06283
 Alpha virt. eigenvalues --    4.08035   4.14017   4.14114   4.16839   4.18467
 Alpha virt. eigenvalues --    4.20057   4.20584   4.23523   4.27619   4.29397
 Alpha virt. eigenvalues --    4.31004   4.33769   4.36631   4.39480   4.41138
 Alpha virt. eigenvalues --    4.42968   4.46675   4.47655   4.52971   4.55547
 Alpha virt. eigenvalues --    4.58758   4.58957   4.65311   4.73145   4.75779
 Alpha virt. eigenvalues --    4.94202   5.04555   5.19773   5.24215   5.26984
 Alpha virt. eigenvalues --    5.29281   5.39893   5.41864   5.45827   5.50062
 Alpha virt. eigenvalues --    5.51966   5.55127   5.58782   5.60739   5.65290
 Alpha virt. eigenvalues --    5.69427   5.86761   5.96562   6.52631   7.01768
 Alpha virt. eigenvalues --    7.20298   7.23936   7.24842   7.52724   7.64400
 Alpha virt. eigenvalues --   24.22382  24.32774  24.44492  24.49513  50.15446
  Beta  occ. eigenvalues --  -19.61225 -10.57744 -10.54616 -10.54465 -10.53539
  Beta  occ. eigenvalues --   -1.13752  -0.89664  -0.80583  -0.71030  -0.65654
  Beta  occ. eigenvalues --   -0.58507  -0.54013  -0.51769  -0.49858  -0.46940
  Beta  occ. eigenvalues --   -0.45464  -0.41421  -0.41068  -0.38585  -0.34334
  Beta virt. eigenvalues --   -0.03325   0.01192   0.02525   0.03330   0.03803
  Beta virt. eigenvalues --    0.06423   0.06535   0.06671   0.07189   0.07871
  Beta virt. eigenvalues --    0.10324   0.10863   0.11295   0.11644   0.11732
  Beta virt. eigenvalues --    0.15127   0.16507   0.18913   0.20170   0.21502
  Beta virt. eigenvalues --    0.22602   0.23534   0.24598   0.25055   0.25706
  Beta virt. eigenvalues --    0.27154   0.27848   0.28123   0.29050   0.29470
  Beta virt. eigenvalues --    0.31016   0.32351   0.33204   0.37471   0.42094
  Beta virt. eigenvalues --    0.43949   0.44153   0.47563   0.49140   0.52545
  Beta virt. eigenvalues --    0.53417   0.54156   0.55348   0.55962   0.57609
  Beta virt. eigenvalues --    0.58877   0.59820   0.61089   0.61271   0.62744
  Beta virt. eigenvalues --    0.64191   0.64808   0.65427   0.66348   0.67497
  Beta virt. eigenvalues --    0.69468   0.70097   0.71908   0.76544   0.77811
  Beta virt. eigenvalues --    0.81181   0.83712   0.85827   0.88650   0.93316
  Beta virt. eigenvalues --    0.96129   0.98649   0.99912   1.00474   1.02542
  Beta virt. eigenvalues --    1.03453   1.05574   1.09330   1.11383   1.12763
  Beta virt. eigenvalues --    1.15124   1.16056   1.17666   1.19611   1.21839
  Beta virt. eigenvalues --    1.23074   1.24470   1.25343   1.26663   1.29607
  Beta virt. eigenvalues --    1.32132   1.33299   1.35441   1.36669   1.37155
  Beta virt. eigenvalues --    1.40050   1.41378   1.42688   1.44747   1.46658
  Beta virt. eigenvalues --    1.47756   1.49935   1.51095   1.51638   1.53594
  Beta virt. eigenvalues --    1.55067   1.55756   1.58577   1.59983   1.63168
  Beta virt. eigenvalues --    1.65347   1.68401   1.70511   1.76132   1.81584
  Beta virt. eigenvalues --    1.99687   2.10866   2.16040   2.29276   2.32291
  Beta virt. eigenvalues --    2.42295   2.47297   2.48373   2.52009   2.54246
  Beta virt. eigenvalues --    2.65009   2.67712   2.73328   2.75994   2.78862
  Beta virt. eigenvalues --    2.81744   2.83639   2.86749   2.89224   2.91457
  Beta virt. eigenvalues --    2.93546   2.94897   2.98102   2.99077   3.03199
  Beta virt. eigenvalues --    3.04051   3.09180   3.10427   3.13540   3.15901
  Beta virt. eigenvalues --    3.18441   3.20415   3.23128   3.25205   3.30228
  Beta virt. eigenvalues --    3.31333   3.33632   3.35223   3.35974   3.38561
  Beta virt. eigenvalues --    3.40072   3.43931   3.46004   3.49037   3.51350
  Beta virt. eigenvalues --    3.55088   3.59006   3.62368   3.63917   3.64675
  Beta virt. eigenvalues --    3.68779   3.69847   3.70951   3.71623   3.76881
  Beta virt. eigenvalues --    3.77963   3.79205   3.85607   3.87449   3.89778
  Beta virt. eigenvalues --    3.93204   3.97200   3.98235   4.00284   4.02447
  Beta virt. eigenvalues --    4.07589   4.09177   4.14547   4.15642   4.18622
  Beta virt. eigenvalues --    4.19521   4.20350   4.23521   4.24781   4.28444
  Beta virt. eigenvalues --    4.30738   4.31440   4.35457   4.37042   4.40063
  Beta virt. eigenvalues --    4.42774   4.44690   4.47323   4.47982   4.53493
  Beta virt. eigenvalues --    4.56378   4.59159   4.59396   4.65514   4.73476
  Beta virt. eigenvalues --    4.78442   4.97162   5.07571   5.20261   5.24339
  Beta virt. eigenvalues --    5.27185   5.30693   5.40088   5.41673   5.46535
  Beta virt. eigenvalues --    5.53529   5.55513   5.58100   5.58965   5.61047
  Beta virt. eigenvalues --    5.65115   5.69751   5.86826   5.96690   6.52627
  Beta virt. eigenvalues --    7.02115   7.20470   7.24010   7.25134   7.52867
  Beta virt. eigenvalues --    7.64661  24.23315  24.32862  24.44885  24.49670
  Beta virt. eigenvalues --   50.15359
          Condensed to atoms (all electrons):
               1          2          3          4          5          6
     1  O    8.092369  -0.035320   0.015447  -0.028634   0.143337  -0.001025
     2  C   -0.035320   5.510963  -0.023053   0.026947  -0.092831   0.419511
     3  C    0.015447  -0.023053   5.437620  -0.085398   0.231113  -0.060307
     4  C   -0.028634   0.026947  -0.085398   5.791111   0.099712  -0.028209
     5  C    0.143337  -0.092831   0.231113   0.099712   5.076130   0.014767
     6  H   -0.001025   0.419511  -0.060307  -0.028209   0.014767   0.552453
     7  H   -0.000037   0.466854   0.002027  -0.080811  -0.022368  -0.032844
     8  H   -0.010464  -0.003606   0.460787  -0.031263  -0.055947  -0.006042
     9  H    0.007372  -0.038796   0.423714   0.017667  -0.034616  -0.004392
    10  H    0.000334  -0.044381   0.017659   0.411083  -0.002482  -0.001633
    11  H   -0.000606  -0.022397   0.005402   0.383316  -0.002348  -0.001987
    12  H    0.257692   0.006017  -0.030097   0.038809  -0.012871   0.000460
    13  H   -0.042798  -0.024093   0.013637  -0.011979   0.412251   0.000015
    14  H   -0.058959   0.027846  -0.070250  -0.001855   0.458470  -0.000342
               7          8          9         10         11         12
     1  O   -0.000037  -0.010464   0.007372   0.000334  -0.000606   0.257692
     2  C    0.466854  -0.003606  -0.038796  -0.044381  -0.022397   0.006017
     3  C    0.002027   0.460787   0.423714   0.017659   0.005402  -0.030097
     4  C   -0.080811  -0.031263   0.017667   0.411083   0.383316   0.038809
     5  C   -0.022368  -0.055947  -0.034616  -0.002482  -0.002348  -0.012871
     6  H   -0.032844  -0.006042  -0.004392  -0.001633  -0.001987   0.000460
     7  H    0.499130   0.003826  -0.006549  -0.002992   0.003817  -0.001182
     8  H    0.003826   0.478313  -0.024048   0.000047   0.000559   0.000156
     9  H   -0.006549  -0.024048   0.517704  -0.000249  -0.000194  -0.000159
    10  H   -0.002992   0.000047  -0.000249   0.463985  -0.019420  -0.000825
    11  H    0.003817   0.000559  -0.000194  -0.019420   0.457968  -0.003803
    12  H   -0.001182   0.000156  -0.000159  -0.000825  -0.003803   0.497186
    13  H    0.001036   0.004109  -0.002712   0.000168   0.000026  -0.006549
    14  H   -0.000132  -0.004257  -0.004317   0.000023  -0.000083   0.008997
              13         14
     1  O   -0.042798  -0.058959
     2  C   -0.024093   0.027846
     3  C    0.013637  -0.070250
     4  C   -0.011979  -0.001855
     5  C    0.412251   0.458470
     6  H    0.000015  -0.000342
     7  H    0.001036  -0.000132
     8  H    0.004109  -0.004257
     9  H   -0.002712  -0.004317
    10  H    0.000168   0.000023
    11  H    0.000026  -0.000083
    12  H   -0.006549   0.008997
    13  H    0.551988  -0.034866
    14  H   -0.034866   0.537818
          Atomic-Atomic Spin Densities.
               1          2          3          4          5          6
     1  O    0.034818   0.005095   0.004020  -0.032139  -0.009517  -0.000801
     2  C    0.005095  -0.033652   0.018303  -0.092060  -0.006900   0.032649
     3  C    0.004020   0.018303   0.077469  -0.046856  -0.024830  -0.037104
     4  C   -0.032139  -0.092060  -0.046856   1.274298   0.024375  -0.027826
     5  C   -0.009517  -0.006900  -0.024830   0.024375   0.029297   0.008107
     6  H   -0.000801   0.032649  -0.037104  -0.027826   0.008107   0.091599
     7  H    0.001006  -0.000472   0.023715  -0.018785  -0.007319  -0.012103
     8  H    0.000239  -0.001953   0.005364  -0.001053  -0.003751  -0.001102
     9  H   -0.000241   0.000801  -0.004358   0.003211   0.000377   0.001522
    10  H    0.000485   0.011803   0.002809  -0.018992  -0.001204  -0.001966
    11  H    0.001273   0.001938   0.006759  -0.016033  -0.001087  -0.001931
    12  H    0.012755  -0.000585   0.002522   0.012986   0.003490   0.000476
    13  H   -0.001034  -0.001328   0.001647   0.000847  -0.001974  -0.000067
    14  H    0.000609   0.001252   0.001485  -0.002370  -0.001616  -0.000124
               7          8          9         10         11         12
     1  O    0.001006   0.000239  -0.000241   0.000485   0.001273   0.012755
     2  C   -0.000472  -0.001953   0.000801   0.011803   0.001938  -0.000585
     3  C    0.023715   0.005364  -0.004358   0.002809   0.006759   0.002522
     4  C   -0.018785  -0.001053   0.003211  -0.018992  -0.016033   0.012986
     5  C   -0.007319  -0.003751   0.000377  -0.001204  -0.001087   0.003490
     6  H   -0.012103  -0.001102   0.001522  -0.001966  -0.001931   0.000476
     7  H    0.023082   0.000208  -0.000488   0.001345   0.000338  -0.000653
     8  H    0.000208  -0.002716   0.000822   0.000012   0.000017  -0.000142
     9  H   -0.000488   0.000822  -0.003163  -0.000015  -0.000090   0.000094
    10  H    0.001345   0.000012  -0.000015  -0.046069   0.006652  -0.000339
    11  H    0.000338   0.000017  -0.000090   0.006652  -0.051489   0.000014
    12  H   -0.000653  -0.000142   0.000094  -0.000339   0.000014  -0.034196
    13  H    0.000080  -0.000004   0.000174   0.000006  -0.000016   0.000660
    14  H    0.000151   0.000329  -0.000398   0.000003   0.000035  -0.001445
              13         14
     1  O   -0.001034   0.000609
     2  C   -0.001328   0.001252
     3  C    0.001647   0.001485
     4  C    0.000847  -0.002370
     5  C   -0.001974  -0.001616
     6  H   -0.000067  -0.000124
     7  H    0.000080   0.000151
     8  H   -0.000004   0.000329
     9  H    0.000174  -0.000398
    10  H    0.000006   0.000003
    11  H   -0.000016   0.000035
    12  H    0.000660  -0.001445
    13  H   -0.002746   0.000519
    14  H    0.000519   0.002845
 Mulliken charges and spin densities:
               1          2
     1  O   -0.338709   0.016569
     2  C   -0.173662  -0.065110
     3  C   -0.338299   0.030947
     4  C   -0.500496   1.059603
     5  C   -0.212317   0.007449
     6  H    0.149577   0.051329
     7  H    0.170225   0.010103
     8  H    0.187830  -0.003728
     9  H    0.149575  -0.001751
    10  H    0.178682  -0.045469
    11  H    0.199749  -0.053620
    12  H    0.246170  -0.004362
    13  H    0.139768  -0.003235
    14  H    0.141907   0.001275
 Sum of Mulliken charges =  -0.00000   1.00000
 Mulliken charges and spin densities with hydrogens summed into heavy atoms:
               1          2
     1  O   -0.092539   0.012207
     2  C    0.146140  -0.003678
     3  C   -0.000895   0.025467
     4  C   -0.122065   0.960515
     5  C    0.069358   0.005490
 APT charges:
               1
     1  O   -0.535797
     2  C   -0.810804
     3  C   -0.821106
     4  C   -0.890053
     5  C   -0.690815
     6  H    0.472090
     7  H    0.369518
     8  H    0.357850
     9  H    0.449186
    10  H    0.539849
    11  H    0.342428
    12  H    0.386831
    13  H    0.338045
    14  H    0.492777
 Sum of APT charges =  -0.00000
 APT charges with hydrogens summed into heavy atoms:
               1
     1  O   -0.148966
     2  C    0.030804
     3  C   -0.014069
     4  C   -0.007776
     5  C    0.140007
 Electronic spatial extent (au):  <R**2>=            485.7127
 Charge=             -0.0000 electrons
 Dipole moment (field-independent basis, Debye):
    X=             -1.7433    Y=             -1.1572    Z=              0.5759  Tot=              2.1703
 Quadrupole moment (field-independent basis, Debye-Ang):
   XX=            -35.8699   YY=            -32.5078   ZZ=            -32.6034
   XY=             -3.4389   XZ=              0.3303   YZ=              0.6195
 Traceless Quadrupole moment (field-independent basis, Debye-Ang):
   XX=             -2.2095   YY=              1.1526   ZZ=              1.0569
   XY=             -3.4389   XZ=              0.3303   YZ=              0.6195
 Octapole moment (field-independent basis, Debye-Ang**2):
  XXX=              2.2179  YYY=              3.5689  ZZZ=              0.0111  XYY=             -1.4081
  XXY=             -5.9093  XXZ=              1.5816  XZZ=              0.9930  YZZ=              1.1022
  YYZ=              0.5992  XYZ=              0.3631
 Hexadecapole moment (field-independent basis, Debye-Ang**3):
 XXXX=           -387.5858 YYYY=           -195.3733 ZZZZ=            -73.3275 XXXY=             -7.9241
 XXXZ=             -5.3147 YYYX=              2.3778 YYYZ=              0.6977 ZZZX=             -0.1004
 ZZZY=             -1.2808 XXYY=            -99.8421 XXZZ=            -76.0693 YYZZ=            -47.0998
 XXYZ=              4.1454 YYXZ=             -0.0550 ZZXY=             -0.1049
 N-N= 1.844289996408D+02 E-N=-9.118508300583D+02  KE= 2.320645376593D+02
  Exact polarizability:   0.000   0.000   0.000   0.000   0.000   0.000
 Approx polarizability:  61.097  -1.049  63.211  -0.571  -0.598  58.989
                          Isotropic Fermi Contact Couplings
        Atom                 a.u.       MegaHertz       Gauss      10(-4) cm-1
     1  O(17)              0.00666      -4.03870      -1.44111      -1.34717
     2  C(13)             -0.03128     -35.16584     -12.54805     -11.73006
     3  C(13)              0.01403      15.77201       5.62785       5.26098
     4  C(13)              0.16996     191.06667      68.17734      63.73298
     5  C(13)             -0.00233      -2.61866      -0.93440      -0.87349
     6  H(1)               0.03125     139.69019      49.84494      46.59563
     7  H(1)               0.00561      25.08812       8.95207       8.36850
     8  H(1)              -0.00032      -1.42105      -0.50706      -0.47401
     9  H(1)              -0.00046      -2.06118      -0.73548      -0.68754
    10  H(1)              -0.01462     -65.34421     -23.31644     -21.79648
    11  H(1)              -0.01472     -65.78165     -23.47253     -21.94240
    12  H(1)              -0.00373     -16.66669      -5.94709      -5.55941
    13  H(1)               0.00001       0.05718       0.02040       0.01907
    14  H(1)               0.00098       4.36713       1.55830       1.45672
 --------------------------------------------------------
       Center         ----  Spin Dipole Couplings  ----
                      3XX-RR        3YY-RR        3ZZ-RR
 --------------------------------------------------------
     1   Atom        0.146499     -0.070745     -0.075754
     2   Atom        0.003081      0.008429     -0.011510
     3   Atom        0.017375     -0.002750     -0.014625
     4   Atom        0.634412     -0.325827     -0.308585
     5   Atom        0.006897     -0.000806     -0.006091
     6   Atom       -0.006029      0.016372     -0.010342
     7   Atom       -0.007909      0.007135      0.000774
     8   Atom       -0.000442      0.000239      0.000203
     9   Atom       -0.000612      0.005080     -0.004469
    10   Atom        0.026322     -0.020758     -0.005563
    11   Atom       -0.017118     -0.043745      0.060863
    12   Atom        0.037913     -0.015329     -0.022584
    13   Atom        0.003032     -0.001014     -0.002018
    14   Atom        0.002602     -0.000214     -0.002388
 --------------------------------------------------------
                        XY            XZ            YZ
 --------------------------------------------------------
     1   Atom       -0.042115     -0.025911      0.004870
     2   Atom        0.007921      0.009243      0.003383
     3   Atom       -0.017344     -0.012494      0.006076
     4   Atom        0.491343      0.501904      0.214243
     5   Atom       -0.006518      0.001504     -0.000717
     6   Atom        0.005179      0.002260      0.000420
     7   Atom       -0.001568      0.001568     -0.013331
     8   Atom       -0.005265     -0.005397      0.005594
     9   Atom       -0.004210     -0.000488      0.000563
    10   Atom       -0.023328     -0.030098      0.057049
    11   Atom        0.029105     -0.001458     -0.037461
    12   Atom       -0.003741     -0.005446      0.004986
    13   Atom       -0.003898      0.003440     -0.002486
    14   Atom       -0.002755     -0.000302      0.000193
 --------------------------------------------------------


 ---------------------------------------------------------------------------------
              Anisotropic Spin Dipole Couplings in Principal Axis System
 ---------------------------------------------------------------------------------

       Atom             a.u.   MegaHertz   Gauss  10(-4) cm-1        Axes

              Baa    -0.0787     5.698     2.033     1.900  0.0744 -0.2027  0.9764
     1 O(17)  Bbb    -0.0786     5.689     2.030     1.898  0.2012  0.9621  0.1843
              Bcc     0.1574   -11.386    -4.063    -3.798  0.9767 -0.1827 -0.1124
 
              Baa    -0.0160    -2.147    -0.766    -0.716 -0.4424  0.0193  0.8966
     2 C(13)  Bbb    -0.0006    -0.082    -0.029    -0.027 -0.6442  0.6887 -0.3327
              Bcc     0.0166     2.229     0.795     0.744  0.6239  0.7248  0.2923
 
              Baa    -0.0189    -2.540    -0.906    -0.847  0.3199 -0.0128  0.9474
     3 C(13)  Bbb    -0.0126    -1.691    -0.603    -0.564  0.4513  0.8812 -0.1405
              Bcc     0.0315     4.231     1.510     1.411  0.8330 -0.4725 -0.2877
 
              Baa    -0.5336   -71.599   -25.548   -23.883 -0.2544  0.9174 -0.3061
     4 C(13)  Bbb    -0.5255   -70.512   -25.160   -23.520 -0.4505  0.1677  0.8769
              Bcc     1.0590   142.110    50.709    47.403  0.8558  0.3610  0.3706
 
              Baa    -0.0063    -0.841    -0.300    -0.280 -0.1198 -0.0127  0.9927
     5 C(13)  Bbb    -0.0045    -0.606    -0.216    -0.202  0.4877  0.8702  0.0700
              Bcc     0.0108     1.447     0.516     0.483  0.8647 -0.4926  0.0980
 
              Baa    -0.0114    -6.095    -2.175    -2.033 -0.4408  0.0686  0.8950
     6 H(1)   Bbb    -0.0061    -3.264    -1.165    -1.089  0.8708 -0.2089  0.4450
              Bcc     0.0175     9.359     3.339     3.122  0.2174  0.9755  0.0323
 
              Baa    -0.0098    -5.223    -1.864    -1.742 -0.1506  0.6030  0.7834
     7 H(1)   Bbb    -0.0081    -4.299    -1.534    -1.434  0.9849  0.1598  0.0663
              Bcc     0.0178     9.523     3.398     3.176 -0.0852  0.7815 -0.6180
 
              Baa    -0.0055    -2.948    -1.052    -0.984  0.7222 -0.0115  0.6916
     8 H(1)   Bbb    -0.0053    -2.840    -1.013    -0.947  0.4123  0.8099 -0.4172
              Bcc     0.0108     5.788     2.065     1.931 -0.5553  0.5865  0.5897
 
              Baa    -0.0045    -2.417    -0.862    -0.806  0.1156 -0.0076  0.9933
     9 H(1)   Bbb    -0.0028    -1.510    -0.539    -0.504  0.8756  0.4730 -0.0983
              Bcc     0.0074     3.927     1.401     1.310 -0.4690  0.8811  0.0613
 
              Baa    -0.0708   -37.762   -13.474   -12.596 -0.0269  0.7462 -0.6652
    10 H(1)   Bbb    -0.0037    -1.956    -0.698    -0.653  0.7840  0.4286  0.4490
              Bcc     0.0744    39.718    14.172    13.249  0.6201 -0.5095 -0.5966
 
              Baa    -0.0700   -37.363   -13.332   -12.463 -0.4629  0.8535  0.2391
    11 H(1)   Bbb    -0.0041    -2.191    -0.782    -0.731  0.8783  0.4054  0.2535
              Bcc     0.0741    39.554    14.114    13.194 -0.1194 -0.3274  0.9373
 
              Baa    -0.0253   -13.492    -4.814    -4.500  0.0521 -0.4314  0.9007
    12 H(1)   Bbb    -0.0134    -7.169    -2.558    -2.391  0.1105  0.8988  0.4241
              Bcc     0.0387    20.661     7.372     6.892  0.9925 -0.0774 -0.0945
 
              Baa    -0.0041    -2.173    -0.775    -0.725 -0.1062  0.5421  0.8336
    13 H(1)   Bbb    -0.0032    -1.732    -0.618    -0.578  0.6274  0.6869 -0.3668
              Bcc     0.0073     3.905     1.393     1.303  0.7714 -0.4841  0.4130
 
              Baa    -0.0024    -1.284    -0.458    -0.428  0.0388 -0.0389  0.9985
    14 H(1)   Bbb    -0.0019    -1.014    -0.362    -0.338  0.5226  0.8525  0.0129
              Bcc     0.0043     2.298     0.820     0.766  0.8517 -0.5213 -0.0534
 

 ---------------------------------------------------------------------------------

 No NMR shielding tensors so no spin-rotation constants.
 Leave Link  601 at Mon Mar 11 15:45:13 2019, MaxMem=   671088640 cpu:              12.7 elap:               0.7
 (Enter /shared/centos7/gaussian/g16/l701.exe)
 SCFChk:  SCF convergence  8.42D-09 required  1.00D-08
 ... and contract with generalized density number  0.
 Compute integral second derivatives.
 Entering OneElI...
 Calculate overlap and kinetic energy integrals
    NBasis = 276  MinDer = 2  MaxDer = 2
 Requested accuracy = 0.1000D-12
 PrmmSu-InSpLW:  IPartL=    0 NPrtUS=   20 NPrtUL=    1 DoSpLW=F IThBeg=    0 IThEnd=   19 NThAct=   20.
 PrsmSu:  NPrtUS=  20 ThrOK=T IAlg=1 NPAlg=1 LenDen=           0 ISkipM=0 DoSpLW=F IThBeg=    0 IThEnd=   19.
 Prism:   IPart=     0 DynPar=F LinDyn=F Incr=           1.
 PRISM was handed    33456335 working-precision words and  3655 shell-pairs
 PRISM was handed    33456335 working-precision words and  3655 shell-pairs
 PRISM was handed    33456335 working-precision words and  3655 shell-pairs
 PRISM was handed    33456335 working-precision words and  3655 shell-pairs
 PRISM was handed    33456335 working-precision words and  3655 shell-pairs
 PRISM was handed    33456335 working-precision words and  3655 shell-pairs
 PRISM was handed    33456335 working-precision words and  3655 shell-pairs
 PRISM was handed    33456335 working-precision words and  3655 shell-pairs
 PRISM was handed    33456335 working-precision words and  3655 shell-pairs
 PRISM was handed    33456335 working-precision words and  3655 shell-pairs
 PRISM was handed    33456335 working-precision words and  3655 shell-pairs
 PRISM was handed    33456335 working-precision words and  3655 shell-pairs
 PRISM was handed    33456335 working-precision words and  3655 shell-pairs
 PRISM was handed    33456335 working-precision words and  3655 shell-pairs
 PRISM was handed    33456335 working-precision words and  3655 shell-pairs
 PRISM was handed    33456335 working-precision words and  3655 shell-pairs
 PRISM was handed    33456335 working-precision words and  3655 shell-pairs
 PRISM was handed    33456335 working-precision words and  3655 shell-pairs
 PRISM was handed    33456335 working-precision words and  3655 shell-pairs
 PRISM was handed    33456335 working-precision words and  3655 shell-pairs
 IPart= 13 NShTot=         169 NBatch=          32 AvBLen=         5.3
 IPart=  9 NShTot=         183 NBatch=          34 AvBLen=         5.4
 IPart=  5 NShTot=         192 NBatch=          38 AvBLen=         5.1
 IPart= 11 NShTot=         173 NBatch=          33 AvBLen=         5.2
 IPart= 12 NShTot=         170 NBatch=          33 AvBLen=         5.2
 IPart= 10 NShTot=         176 NBatch=          33 AvBLen=         5.3
 IPart= 15 NShTot=         165 NBatch=          31 AvBLen=         5.3
 IPart=  0 NShTot=         218 NBatch=          57 AvBLen=         3.8
 IPart= 18 NShTot=         163 NBatch=          29 AvBLen=         5.6
 IPart= 19 NShTot=         163 NBatch=          29 AvBLen=         5.6
 IPart=  2 NShTot=         205 NBatch=          48 AvBLen=         4.3
 IPart=  7 NShTot=         190 NBatch=          37 AvBLen=         5.1
 IPart=  3 NShTot=         203 NBatch=          46 AvBLen=         4.4
 IPart= 16 NShTot=         164 NBatch=          30 AvBLen=         5.5
 IPart=  6 NShTot=         190 NBatch=          37 AvBLen=         5.1
 IPart=  8 NShTot=         187 NBatch=          36 AvBLen=         5.2
 IPart= 14 NShTot=         169 NBatch=          32 AvBLen=         5.3
 IPart=  1 NShTot=         213 NBatch=          53 AvBLen=         4.0
 IPart= 17 NShTot=         163 NBatch=          29 AvBLen=         5.6
 IPart=  4 NShTot=         199 NBatch=          43 AvBLen=         4.6
 PrSmSu:  NxtVal=             21.
 Entering OneElI...
 Calculate potential energy integrals
    NBasis = 276  MinDer = 2  MaxDer = 2
 Requested accuracy = 0.1000D-12
 PrmmSu-InSpLW:  IPartL=    0 NPrtUS=   20 NPrtUL=    1 DoSpLW=F IThBeg=    0 IThEnd=   19 NThAct=   20.
 PrsmSu:  NPrtUS=  20 ThrOK=T IAlg=1 NPAlg=1 LenDen=           0 ISkipM=0 DoSpLW=F IThBeg=    0 IThEnd=   19.
 Prism:   IPart=     0 DynPar=F LinDyn=F Incr=          24.
 PRISM was handed    33468620 working-precision words and  3528 shell-pairs
 PRISM was handed    33468620 working-precision words and  3528 shell-pairs
 PRISM was handed    33468620 working-precision words and  3528 shell-pairs
 PRISM was handed    33468620 working-precision words and  3528 shell-pairs
 PRISM was handed    33468620 working-precision words and  3528 shell-pairs
 PRISM was handed    33468620 working-precision words and  3528 shell-pairs
 PRISM was handed    33468620 working-precision words and  3528 shell-pairs
 PRISM was handed    33468620 working-precision words and  3528 shell-pairs
 PRISM was handed    33468620 working-precision words and  3528 shell-pairs
 PRISM was handed    33468620 working-precision words and  3528 shell-pairs
 PRISM was handed    33468620 working-precision words and  3528 shell-pairs
 PRISM was handed    33468620 working-precision words and  3528 shell-pairs
 PRISM was handed    33468620 working-precision words and  3528 shell-pairs
 PRISM was handed    33468620 working-precision words and  3528 shell-pairs
 PRISM was handed    33468620 working-precision words and  3528 shell-pairs
 PRISM was handed    33468620 working-precision words and  3528 shell-pairs
 PRISM was handed    33468620 working-precision words and  3528 shell-pairs
 PRISM was handed    33468620 working-precision words and  3528 shell-pairs
 PRISM was handed    33468620 working-precision words and  3528 shell-pairs
 PRISM was handed    33468620 working-precision words and  3528 shell-pairs
 IPart=  4 NShTot=        2618 NBatch=         187 AvBLen=        14.0
 IPart=  0 NShTot=        2926 NBatch=         209 AvBLen=        14.0
 IPart=  8 NShTot=        2506 NBatch=         179 AvBLen=        14.0
 IPart= 16 NShTot=        2240 NBatch=         160 AvBLen=        14.0
 IPart= 13 NShTot=        2338 NBatch=         167 AvBLen=        14.0
 IPart=  5 NShTot=        2576 NBatch=         184 AvBLen=        14.0
 IPart=  6 NShTot=        2534 NBatch=         181 AvBLen=        14.0
 IPart= 10 NShTot=        2422 NBatch=         173 AvBLen=        14.0
 IPart= 17 NShTot=        2212 NBatch=         158 AvBLen=        14.0
 IPart= 11 NShTot=        2380 NBatch=         170 AvBLen=        14.0
 IPart=  3 NShTot=        2646 NBatch=         189 AvBLen=        14.0
 IPart= 18 NShTot=        2212 NBatch=         158 AvBLen=        14.0
 IPart= 19 NShTot=        2198 NBatch=         157 AvBLen=        14.0
 IPart= 12 NShTot=        2366 NBatch=         169 AvBLen=        14.0
 IPart=  9 NShTot=        2478 NBatch=         177 AvBLen=        14.0
 IPart= 14 NShTot=        2324 NBatch=         166 AvBLen=        14.0
 IPart=  1 NShTot=        2828 NBatch=         202 AvBLen=        14.0
 IPart=  2 NShTot=        2772 NBatch=         198 AvBLen=        14.0
 IPart= 15 NShTot=        2296 NBatch=         164 AvBLen=        14.0
 IPart=  7 NShTot=        2520 NBatch=         180 AvBLen=        14.0
 PrSmSu:  NxtVal=            481.
 Polarizability after L701:
                1             2             3 
      1  0.000000D+00
      2  0.000000D+00  0.000000D+00
      3  0.000000D+00  0.000000D+00  0.000000D+00
 Dipole Derivatives after L701:
                 1             2             3             4             5 
      1  -0.375053D+00 -0.448980D+00  0.119358D+00 -0.108877D+01 -0.951332D+00
      2   0.400770D+00 -0.808439D+00 -0.941381D-01 -0.595244D+00 -0.447812D+00
      3   0.100916D+00 -0.906311D-01 -0.423901D+00 -0.102090D+00  0.492142D-01
                 6             7             8             9            10 
      1   0.324607D+00 -0.114169D+00  0.135637D-01  0.892657D-01 -0.696773D+00
      2   0.148130D+00  0.129388D+00 -0.126443D+01 -0.336012D+00  0.329657D+00
      3  -0.895831D+00  0.120517D+00  0.439435D-01 -0.108472D+01  0.282068D+00
                11            12            13            14            15 
      1   0.123898D+01  0.701772D-01 -0.102029D+01  0.867940D+00 -0.423975D+00
      2  -0.108535D+01  0.504684D-01  0.479867D+00 -0.398982D+00  0.130430D+00
      3  -0.121664D-01 -0.888035D+00 -0.572820D-03  0.125150D+00 -0.653173D+00
                16            17            18            19            20 
      1   0.814653D+00  0.463288D+00  0.319668D+00  0.157686D+00  0.102363D+00
      2   0.337526D+00  0.421264D+00  0.177170D+00  0.422841D-02  0.227400D+00
      3   0.524834D-01  0.364980D-01  0.180353D+00  0.190724D-02 -0.789538D-01
                21            22            23            24            25 
      1  -0.545416D+00  0.185805D+00  0.140193D-01 -0.250510D-01  0.160875D+00
      2  -0.274397D+00 -0.249018D-02  0.105420D+00  0.360716D+00 -0.599012D-01
      3   0.723468D+00 -0.151025D-01 -0.120615D+00  0.782325D+00 -0.125167D-01
                26            27            28            29            30 
      1  -0.499431D-01  0.277400D-02  0.743638D+00 -0.617984D+00 -0.730935D+00
      2   0.106387D+01 -0.136576D+00 -0.417377D+00  0.552513D+00  0.464592D+00
      3   0.966572D-01  0.122812D+00 -0.169514D+00  0.140998D+00  0.323397D+00
                31            32            33            34            35 
      1  -0.111493D-01 -0.278333D+00  0.601594D+00  0.155030D+00  0.166555D+00
      2   0.124852D+00  0.402386D+00 -0.543791D+00 -0.450985D+00  0.680559D+00
      3  -0.110817D+00 -0.192823D+00  0.636046D+00 -0.899755D-01  0.507057D-01
                36            37            38            39            40 
      1   0.260530D-02  0.128578D+00 -0.791148D-01  0.536822D+00  0.959939D+00
      2   0.111640D+00  0.126659D-01  0.196771D+00 -0.165303D+00 -0.292957D+00
      3   0.324903D+00 -0.126319D-01 -0.461462D-01  0.688785D+00 -0.446703D-01
                41            42 
      1  -0.441026D+00 -0.341495D+00
      2   0.354827D+00  0.107070D+00
      3  -0.183169D-02  0.163566D+00
 Hessian after L701:
                1             2             3             4             5 
      1  0.807767D+01
      2  0.564900D+00  0.414448D+01
      3  0.100437D+01  0.717198D+00  0.121542D+02
      4  0.272750D+00  0.175675D+00  0.595140D-01  0.116903D+02
      5  0.213095D+00 -0.114115D+00  0.479606D-01  0.681172D+00  0.120357D+02
      6  0.765689D-01  0.566332D-01 -0.202546D+00  0.561467D+00  0.889158D-01
      7  0.194108D+00  0.674748D+00 -0.252069D-01 -0.166189D+01 -0.121507D+01
      8  0.661997D+00  0.287917D+00  0.295782D-01 -0.111466D+01 -0.423430D+01
      9 -0.615584D-01 -0.360796D-01 -0.390327D+00 -0.132148D+01  0.532226D+00
     10  0.433697D+00 -0.413805D-01 -0.117023D-01 -0.484543D+01 -0.102735D+01
     11  0.133073D+00 -0.237759D+00 -0.925664D-03 -0.102424D+01 -0.107177D+01
     12 -0.281573D-01  0.564094D-02 -0.238120D+00  0.152364D+00 -0.734052D+00
     13 -0.653645D+01  0.537266D+00 -0.117778D+00  0.349144D+00  0.573679D-01
     14  0.566512D+00  0.887818D-01 -0.142066D+01  0.111438D+00 -0.950432D-01
     15 -0.944341D-01 -0.136635D+01 -0.642041D+01 -0.823842D-02  0.219218D-01
     16  0.401312D-01  0.171300D-01 -0.101806D-02 -0.217295D+01  0.113143D+01
     17  0.342799D-01 -0.168467D-02 -0.850175D-03  0.109767D+01 -0.274502D+01
     18  0.878746D-02  0.149671D-02 -0.123882D-01  0.588625D+00  0.446800D+00
     19  0.190875D-01  0.230848D-01 -0.202869D-01 -0.386075D+01  0.509923D-01
     20  0.371287D-01 -0.436291D-02 -0.174271D-01  0.149128D-01 -0.371196D+01
     21 -0.632505D-01 -0.255623D-01  0.601771D-02 -0.655957D-02 -0.522073D+00
     22  0.545028D-02  0.138476D-01  0.200399D-01 -0.220356D-01 -0.370007D-01
     23  0.165864D-01 -0.154022D-01  0.795978D-02 -0.132560D-01  0.782047D-02
     24  0.627166D-01  0.415922D-01  0.300261D-01  0.682943D-02  0.599630D-01
     25 -0.322096D-01  0.520714D-01 -0.115377D-02 -0.147679D-01  0.468272D-01
     26  0.907189D-01  0.150840D+00  0.251518D-02  0.408973D-01  0.707410D-01
     27 -0.137146D-02 -0.460590D-03 -0.487824D-01  0.113346D-01 -0.260905D-01
     28  0.696530D-01 -0.203334D-01 -0.220192D-01  0.569045D-01  0.763934D-01
     29 -0.325426D-01 -0.107217D-01  0.645984D-02  0.514536D-01 -0.652646D-01
     30 -0.455398D-01  0.117889D-01 -0.108007D-01 -0.269990D-01 -0.449586D-02
     31  0.418770D-01 -0.149811D-01  0.289594D-01  0.589941D-01  0.422529D-01
     32 -0.369044D-01 -0.265695D-01 -0.119472D-01 -0.114156D-01 -0.908804D-01
     33  0.979265D-01 -0.233421D-01 -0.423579D-02  0.727491D-02  0.915710D-01
     34 -0.281860D+01 -0.187292D+01 -0.842277D+00 -0.321427D-01  0.293528D-01
     35 -0.215002D+01 -0.396788D+01  0.576059D+00  0.590002D-01  0.578791D-01
     36 -0.878479D+00  0.546579D+00 -0.537004D+01  0.906184D-02  0.121933D-01
     37  0.284274D-01 -0.272873D-01  0.566581D-02  0.733040D-02 -0.193324D-01
     38 -0.466798D-01 -0.139734D+00 -0.515217D-01 -0.184350D-01  0.116402D-01
     39 -0.516461D-02 -0.708757D-01  0.419662D+00 -0.355996D-02 -0.181133D-01
     40  0.204403D+00 -0.818237D-01 -0.771071D-01  0.174568D+00 -0.301345D-01
     41 -0.521472D-01 -0.153785D+00  0.115604D+00 -0.502180D-01 -0.554514D-01
     42 -0.724150D-01  0.141741D+00  0.877626D-01 -0.296290D-01  0.327372D-02
                6             7             8             9            10 
      6  0.138178D+02
      7 -0.132441D+01  0.116865D+02
      8  0.522885D+00 -0.626128D+00  0.132046D+02
      9 -0.420055D+01  0.142151D+00 -0.613589D+00  0.144655D+02
     10  0.143798D+00  0.143387D+00 -0.195828D+00  0.939534D-01  0.976584D+01
     11 -0.702775D+00 -0.148921D+00  0.638125D-01 -0.928259D-01  0.197267D+01
     12 -0.480711D+01  0.185257D-01 -0.337264D-01 -0.150837D+00  0.995196D+00
     13  0.115064D+00 -0.264319D+01  0.167455D+01  0.124742D+01  0.263332D+00
     14  0.272435D-01  0.171117D+01 -0.448713D+01  0.819843D+00 -0.254365D+00
     15 -0.137704D+00  0.128358D+01  0.807418D+00 -0.493096D+01 -0.138432D-01
     16  0.610209D+00 -0.215316D-01  0.983934D-02  0.113263D-01  0.114515D+00
     17  0.448153D+00  0.185749D-01  0.913619D-01  0.197192D-01  0.107882D+00
[...]
 ! D2    D(12,1,5,13)          -65.536          -DE/DX =    0.0                 !
 ! D3    D(12,1,5,14)          178.5701         -DE/DX =    0.0                 !
 ! D4    D(4,2,3,5)             67.6478         -DE/DX =    0.0                 !
 ! D5    D(4,2,3,8)            -54.3952         -DE/DX =    0.0                 !
 ! D6    D(4,2,3,9)           -171.6098         -DE/DX =    0.0                 !
 ! D7    D(6,2,3,5)           -170.6903         -DE/DX =    0.0                 !
 ! D8    D(6,2,3,8)             67.2667         -DE/DX =    0.0                 !
 ! D9    D(6,2,3,9)            -49.9479         -DE/DX =    0.0                 !
 ! D10   D(7,2,3,5)            -56.2061         -DE/DX =    0.0                 !
 ! D11   D(7,2,3,8)           -178.2492         -DE/DX =    0.0                 !
 ! D12   D(7,2,3,9)             64.5363         -DE/DX =    0.0                 !
 ! D13   D(3,2,4,10)          -154.4714         -DE/DX =    0.0                 !
 ! D14   D(3,2,4,11)            42.8825         -DE/DX =    0.0                 !
 ! D15   D(6,2,4,10)            84.323          -DE/DX =    0.0                 !
 ! D16   D(6,2,4,11)           -78.3231         -DE/DX =    0.0                 !
 ! D17   D(7,2,4,10)           -30.9153         -DE/DX =    0.0                 !
 ! D18   D(7,2,4,11)           166.4386         -DE/DX =    0.0                 !
 ! D19   D(2,3,5,1)            -70.8934         -DE/DX =    0.0                 !
 ! D20   D(2,3,5,13)            53.4187         -DE/DX =    0.0                 !
 ! D21   D(2,3,5,14)           171.0749         -DE/DX =    0.0                 !
 ! D22   D(8,3,5,1)             51.7816         -DE/DX =    0.0                 !
 ! D23   D(8,3,5,13)           176.0937         -DE/DX =    0.0                 !
 ! D24   D(8,3,5,14)           -66.2501         -DE/DX =    0.0                 !
 ! D25   D(9,3,5,1)            168.0041         -DE/DX =    0.0                 !
 ! D26   D(9,3,5,13)           -67.6838         -DE/DX =    0.0                 !
 ! D27   D(9,3,5,14)            49.9724         -DE/DX =    0.0                 !
 --------------------------------------------------------------------------------
 GradGradGradGradGradGradGradGradGradGradGradGradGradGradGradGradGradGrad

 Leave Link  103 at Mon Mar 11 15:58:27 2019, MaxMem=   671088640 cpu:               0.4 elap:               0.0
 (Enter /shared/centos7/gaussian/g16/l9999.exe)

 ----------------------------------------------------------------------

 Electric dipole moment (input orientation):
 (Debye = 10**-18 statcoulomb cm , SI units = C m)
                  (au)            (Debye)         (10**-30 SI)
   Tot        0.853854D+00      0.217028D+01      0.723927D+01
   x         -0.685877D+00     -0.174332D+01     -0.581511D+01
   y         -0.455295D+00     -0.115725D+01     -0.386015D+01
   z          0.226595D+00      0.575948D+00      0.192116D+01

 Dipole polarizability, Alpha (input orientation).
 (esu units = cm**3 , SI units = C**2 m**2 J**-1)
 Alpha(0;0):
               (au)            (10**-24 esu)      (10**-40 SI)
   iso        0.541047D+02      0.801749D+01      0.892066D+01
   aniso      0.963806D+01      0.142821D+01      0.158910D+01
   xx         0.580300D+02      0.859916D+01      0.956785D+01
   yx        -0.207720D+01     -0.307809D+00     -0.342483D+00
   yy         0.560204D+02      0.830136D+01      0.923651D+01
   zx         0.102598D+00      0.152034D-01      0.169161D-01
   zy        -0.204435D+00     -0.302942D-01     -0.337068D-01
   zz         0.482638D+02      0.715195D+01      0.795762D+01

 ----------------------------------------------------------------------

 Dipole orientation:
     8          0.57341771          0.42665010         -3.24767855
     6         -0.48610884          0.27917515          2.55950926
     6          0.14323137         -1.89510180          0.75385345
     6         -2.14060025          2.26198456          1.44592164
     6          1.81595216         -1.11028146         -1.45242672
     1         -1.41772048         -0.51799423          4.23623426
     1          1.26596865          1.12738724          3.25276910
     1         -1.59898394         -2.71482531          0.00708489
     1          1.11555368         -3.37973283          1.80729794
     1         -2.10184993          4.17410398          2.15781149
     1         -3.74598557          1.71234139          0.30643813
     1         -0.04732585          1.91553063         -2.40977993
     1          3.51435502         -0.16405907         -0.73176736
     1          2.43379571         -2.78061830         -2.48578843

 Electric dipole moment (dipole orientation):
 (Debye = 10**-18 statcoulomb cm , SI units = C m)
                  (au)            (Debye)         (10**-30 SI)
   Tot        0.853854D+00      0.217028D+01      0.723927D+01
   x          0.000000D+00      0.000000D+00      0.000000D+00
   y          0.000000D+00      0.000000D+00      0.000000D+00
   z          0.853854D+00      0.217028D+01      0.723927D+01

 Dipole polarizability, Alpha (dipole orientation).
 (esu units = cm**3 , SI units = C**2 m**2 J**-1)
 Alpha(0;0):
               (au)            (10**-24 esu)      (10**-40 SI)
   iso        0.541047D+02      0.801749D+01      0.892066D+01
   aniso      0.963806D+01      0.142821D+01      0.158910D+01
   xx         0.523792D+02      0.776180D+01      0.863617D+01
   yx        -0.477446D+01     -0.707502D+00     -0.787202D+00
   yy         0.549294D+02      0.813970D+01      0.905664D+01
   zx        -0.241351D+01     -0.357645D+00     -0.397934D+00
   zy         0.330423D+00      0.489637D-01      0.544795D-01
   zz         0.550055D+02      0.815097D+01      0.906918D+01

 ----------------------------------------------------------------------

 Test job not archived.
 1\1\GINC-C0060\Freq\UM062X\6-311+G(2df,2p)\C4H9O1(2)\UNDERKOFFLER.C\11
 -Mar-2019\0\\#P Geom=AllCheck Guess=TCheck SCRF=Check Test GenChk UM06
 2X/6-311+G(2df,2p) Freq\\Gaussian input prepared by ASE\\0,2\O,1.45278
 70086,0.9887274394,-0.0919483415\C,-1.2640520698,-0.5206052223,0.23158
 21134\C,0.0561596258,-1.0158787923,-0.3679911748\C,-1.574935485,0.9034
 659341,-0.0685929563\C,1.2872100508,-0.3709663393,0.2546562154\H,-2.07
 55932319,-1.1539096556,-0.1538910598\H,-1.256293283,-0.6820625847,1.31
 30397795\H,0.0686006277,-0.8294013494,-1.4447324475\H,0.1264606713,-2.
 096398027,-0.2256630367\H,-2.209996914,1.4801406835,0.5873941099\H,-1.
 4084544298,1.2870527642,-1.066112981\H,0.6689430473,1.4743339284,0.181
 975992\H,1.25184623,-0.4903297126,1.3448015786\H,2.185891152,-0.875346
 0665,-0.0991517914\\Version=EM64L-G16RevA.03\State=2-A\HF=-232.9645975
 \S2=0.755339\S2-1=0.\S2A=0.750023\RMSD=3.537e-09\RMSF=9.422e-07\ZeroPo
 int=0.1236796\Thermal=0.1302985\Dipole=-0.6858768,-0.4552952,0.2265954
 \DipoleDeriv=-0.5418542,-0.082189,-0.0937294,-0.1470544,-0.914893,0.07
 04562,-0.0758609,0.0661522,-0.467601,0.0746763,-0.0349956,0.0456146,0.
 042637,0.0046772,0.0013131,0.0372176,-0.0478416,0.0780247,0.0373309,-0
 .08558,-0.0275499,-0.0442128,0.0372875,-0.0161414,-0.066594,-0.0124134
 ,0.0692048,-0.2646755,-0.0904822,-0.1350868,-0.1510498,0.0210779,-0.05
 14242,-0.1411629,-0.0407443,0.0204866,0.3138713,0.0661957,0.0327934,0.
 1106134,0.7343618,-0.1111275,0.0510737,-0.1092813,0.3563527,-0.0620652
 ,-0.0602227,-0.0358957,-0.0667088,-0.0571656,-0.0197528,-0.0560316,-0.
 0327716,0.0584154,0.0415041,0.0425083,-0.0190987,0.0268903,0.020683,0.
 0250206,0.02828,0.0402741,-0.1283883,-0.0001197,-0.0017787,-0.0058297,
 0.0022407,0.0610658,0.0494206,0.0007705,0.0030444,-0.1259734,0.0035003
 ,0.0212769,0.0010106,0.0258778,-0.1555228,0.0068033,0.0005203,0.036063
 6,0.0630614,0.0631614,0.0869966,0.0629168,0.0906137,-0.0004919,-0.0028
 202,0.0761607,-0.0231247,0.0252486,0.0984672,0.0243937,0.0442599,0.036
 1406,0.0183739,0.0172311,0.0319594,0.0561373,-0.0420487,0.3131444,0.06
 43475,0.0708217,0.0497802,0.2707139,0.0241573,0.0818824,0.0263564,0.24
 48358,0.0350686,-0.0288299,0.0279829,-0.0194391,-0.0300451,0.01763,-0.
 0233423,0.0706366,-0.1944804,-0.1120098,0.0783594,0.0317904,0.0436711,
 -0.0101227,-0.0107661,0.055127,-0.0324878,0.0428617\Polar=58.0299775,-
 2.0771955,56.0203718,0.1025979,-0.2044352,48.2637773\Quadrupole=-1.642
 727,0.856911,0.785816,-2.5567194,0.2455917,0.4605825\PG=C01 [X(C4H9O1)
 ]\NImag=0\\0.44635702,-0.16867866,0.47650987,-0.14963698,-0.00600483,0
 .12366389,0.00224547,0.00240599,-0.00002072,0.46759967,0.00113020,0.00
 177016,0.00003023,0.01316159,0.48509978,0.00025762,-0.00009334,-0.0001
 4414,0.01536629,-0.01456452,0.56619542,0.00159364,-0.00593819,-0.00027
 660,-0.15379437,0.02753708,0.03910992,0.45885290,-0.03382796,-0.035859
 00,-0.01186255,0.03357138,-0.08547261,-0.01062507,-0.00686479,0.575415
 11,0.00887312,0.00624414,0.00687535,0.03653799,-0.00998101,-0.10051477
 ,0.00490152,-0.03885976,0.56930399,-0.00747009,0.00202929,0.00091440,-
 0.06109459,0.04129496,0.00799398,-0.00490797,0.02918279,-0.00409670,0.
 22684143,0.00002271,0.00084274,0.00090568,0.03954063,-0.21690709,0.036
 79966,0.00833203,-0.01745026,-0.00297692,-0.15378196,0.48347774,-0.001
 25693,0.00156265,0.00042325,0.00790121,0.03706545,-0.08994650,0.001699
 62,-0.01671397,0.00399829,-0.18630535,-0.05158772,0.54637358,-0.091489
 49,-0.03288595,0.02137924,-0.03268874,-0.01149603,-0.01139133,-0.16002
 177,-0.02610286,-0.04295100,0.00076091,-0.00157846,-0.00047832,0.56571
 647,0.00609593,-0.23562139,0.03882946,0.00780453,0.00577378,0.00749406
 ,-0.03340821,-0.09071586,-0.02191665,-0.00219774,0.00187386,-0.0017637
 8,-0.06305347,0.50410401,0.01364736,0.05367706,-0.08280092,0.00994353,
 0.00625543,0.00643088,-0.04409151,-0.01751374,-0.10816792,-0.00034197,
 0.00078651,-0.00022509,-0.04581313,0.00815855,0.57606873,0.00077034,-0
 .00058919,0.00006952,-0.17244586,-0.09783421,-0.06558871,-0.02494520,-
 0.01553244,-0.01096456,0.00697488,0.00034729,0.00351788,-0.00397432,0.
 00437382,0.00392193,0.19474159,-0.00015315,0.00055480,-0.00004487,-0.1
 1133948,-0.11901789,-0.05370933,0.00948498,0.00595179,0.00366240,-0.01
 637759,-0.02921340,-0.00741804,0.00182675,-0.00068506,-0.00108932,0.11
 162410,0.13917989,-0.00008572,-0.00019323,0.00000519,-0.06503291,-0.04
 649353,-0.07629447,0.01245096,0.00678800,0.00433369,0.00558270,0.00309
 494,0.00383924,0.00137204,-0.00086724,-0.00102434,0.07106938,0.0560084
 0,0.08080806,-0.00003936,-0.00029190,-0.00059113,-0.04789743,0.0030417
 8,-0.00484044,-0.00131442,-0.00425117,0.02938821,0.00028095,-0.0004934
 8,-0.00517759,0.00223097,-0.00019137,0.00217292,-0.00096935,0.00273149
 ,-0.02407112,0.05127830,-0.00020274,0.00005528,-0.00018553,0.00296429,
 -0.05092896,0.03564212,-0.00013022,0.00105756,-0.01127329,-0.00169693,
 -0.00851558,0.03411875,-0.00064844,0.00002200,0.00056427,-0.00041920,0
 .00264227,-0.01859039,-0.00332823,0.05985043,0.00031445,0.00012775,0.0
 0024469,-0.00374464,0.03656187,-0.29898776,0.00101077,0.00106573,-0.01
 346745,0.00032827,0.00205997,-0.00509507,-0.00147845,0.00005777,0.0005
 4784,-0.00099329,0.00092382,-0.01311768,0.00269444,-0.04013768,0.32654
 946,0.00208151,0.00176401,0.00261943,-0.00195095,-0.00434178,0.0304238
 8,-0.04675753,-0.00017035,0.00263137,0.00120897,-0.00165449,-0.0000909
 1,-0.00137058,0.00524770,-0.03021390,0.00088282,-0.00053838,-0.0005297
 9,-0.00498999,0.00226877,0.00210472,0.05476459,0.00141368,0.00187866,0
 .00044217,0.00057815,0.00101598,-0.01152303,0.00056122,-0.05639170,0.0
 4707877,-0.00041595,0.00107103,-0.00127223,-0.00152114,0.00107862,-0.0
 1535214,-0.00039827,0.00001855,0.00049305,0.00207059,-0.00015313,-0.00
 146052,-0.00052972,0.05698160,0.00159063,-0.00027133,0.00270441,0.0010
 9462,0.00173953,-0.01296770,0.00224908,0.04501064,-0.29929411,-0.00069
 095,0.00081705,0.00075854,-0.00113080,0.00361948,-0.01650677,0.0003674
 8,0.00004474,0.00031869,0.00232092,-0.00060486,0.00049125,-0.00278286,
 -0.04901732,0.32672221,-0.00510772,-0.00575814,-0.00309051,-0.00478880
 ,0.02943961,-0.00513377,-0.04710794,0.01455304,-0.00368058,-0.00426725
 ,0.00125744,0.00421436,0.00365084,-0.02493436,0.00678957,0.00119218,-0
 .00016220,-0.00083586,0.00094741,-0.00047814,0.00015557,-0.00080472,0.
 00008747,-0.00012148,0.05614324,-0.00351637,-0.00145944,-0.00212190,0.
 00045495,-0.00906752,0.00175379,0.01494177,-0.30430509,0.03494528,0.00
 182559,0.00030512,-0.00163616,0.00331208,-0.01378069,0.00407888,0.0001
 0943,0.00073672,0.00022463,-0.00006870,0.00000288,-0.00039252,0.000095
 83,-0.00464644,0.00084477,-0.01671814,0.33075387,-0.00238821,-0.001894
 48,0.00027008,0.00215290,-0.01400992,0.00131592,-0.00345381,0.03558373
 ,-0.05430010,0.00184128,-0.00025877,-0.00069789,0.00219472,-0.01372654
 ,0.00174235,-0.00079350,0.00049282,0.00040801,-0.00071043,-0.00008999,
 0.00019631,-0.00165263,0.03152547,-0.00284759,0.00159238,-0.03805099,0
 .05317319,-0.00035183,-0.00046772,-0.00035457,0.00188690,-0.00059512,0
 .00116129,-0.00033362,0.00171681,0.00030914,-0.12875631,0.10835359,0.1
 2542156,0.00044218,0.00010591,0.00010503,-0.00100109,0.00086325,0.0003
 2695,-0.00020848,-0.00016266,0.00022823,0.00009997,-0.00008653,-0.0000
 9986,-0.00030645,0.00017693,0.00010724,0.12777598,-0.00025575,0.000530
 40,-0.00017791,0.01786930,-0.00686596,-0.01750183,-0.00165967,-0.00478
 480,0.00221548,0.10221530,-0.13002954,-0.08688924,-0.00021781,-0.00071
 694,-0.00021352,-0.00060313,-0.00046766,-0.00006153,-0.00034835,0.0013
 4922,0.00048664,-0.00005997,0.00004748,-0.00013700,0.00159897,-0.00036
 434,-0.00059142,-0.11266743,0.13287311,0.00024620,-0.00021456,0.000243
 30,-0.00425456,0.00513781,0.00617269,-0.00065497,0.00173282,0.00028471
 ,0.11854360,-0.08847997,-0.15974020,0.00011385,0.00014964,-0.00002421,
 -0.00012152,0.00066035,0.00023216,-0.00039951,-0.00094420,0.00095456,-
 0.00022397,0.00018673,0.00031572,-0.00029505,0.00031805,0.00037626,-0.
 12788963,0.09562343,0.16134847,0.00039813,-0.00094879,0.00018045,0.002
 45459,0.00169553,-0.00300339,0.00101425,-0.00102664,-0.00179158,-0.030
 50424,-0.00065120,0.04920916,-0.00021781,0.00096589,-0.00008197,0.0002
 0725,0.00105704,-0.00070704,0.00084403,0.00183324,-0.00121116,0.000180
 90,0.00005207,0.00030774,-0.00002942,-0.00015155,0.00018112,0.00136693
 ,-0.00602450,0.01519426,0.02550553,-0.00007806,-0.00004877,-0.00038643
 ,-0.00363255,-0.00448606,0.02781508,-0.00090627,0.00159651,0.00072625,
 -0.00146070,-0.08450903,0.09412294,0.00013403,-0.00025109,0.00007954,-
 0.00040699,0.00021839,-0.00044686,0.00106749,-0.00524630,0.00043995,0.
 00053790,-0.00010856,-0.00085438,-0.00027770,0.00015762,-0.00033762,0.
 00224857,0.00818358,-0.01410551,0.00302973,0.08409415,0.00072391,-0.00
 077790,0.00057827,0.00038374,-0.00093136,-0.00144948,0.00020905,-0.000
 39065,0.00074273,0.05729244,0.09957712,-0.29983667,0.00003216,0.000990
 76,-0.00012680,-0.00001021,0.00046060,-0.00034813,0.00038333,0.0009656
 8,0.00095136,-0.00063446,0.00035167,0.00006055,-0.00011132,-0.00004866
 ,0.00015025,0.00007243,0.00689450,-0.00991728,-0.05752692,-0.10700041,
 0.31020054,-0.35870274,0.21299502,0.12716494,0.00090819,-0.00022277,0.
 00076410,0.00167234,-0.00230051,-0.00067095,0.00047005,0.00058261,0.00
 106384,0.00463045,-0.00380564,-0.00110003,-0.00019688,0.00052646,-0.00
 024027,-0.00023533,0.00019280,-0.00007160,-0.00003889,0.00005080,-0.00
 009998,-0.00079530,0.00001049,-0.00011624,-0.00055827,0.00001235,-0.00
 027176,-0.00113846,-0.00021680,-0.00084067,0.35245104,0.17114265,-0.15
 367233,-0.05098299,-0.00165861,-0.00072558,0.00005627,0.00011464,0.000
 44906,-0.00104355,-0.00085575,-0.00062140,-0.00001024,0.03652320,-0.02
 740448,-0.01255749,0.00005454,-0.00005817,0.00001423,-0.00005209,-0.00
 017494,0.00001144,-0.00019123,-0.00022597,-0.00012251,0.00030676,0.000
 68965,0.00027418,0.00052020,0.00006510,-0.00002657,0.00033169,0.000395
 58,0.00015728,-0.20455397,0.18580684,0.13621539,-0.07234777,-0.0543710
 1,-0.00010133,-0.00019228,0.00030692,0.00082320,-0.00008635,0.00048897
 ,-0.00087668,-0.00076873,0.00020870,-0.00931949,0.00862311,0.00215034,
 -0.00003203,0.00008542,-0.00010248,0.00019056,0.00041122,-0.00037966,-
 0.00011369,-0.00039969,-0.00042768,0.00002980,0.00033524,-0.00011668,0
 .00065988,0.00023425,-0.00026409,-0.00077589,0.00012770,-0.00106011,-0
 .12546648,0.06126045,0.05307583,0.00347745,-0.00328035,0.00375689,0.00
 216854,0.00032613,-0.00160446,-0.00163052,0.00071681,-0.02869926,0.000
 06492,0.00029151,0.00021915,-0.05423679,0.00189252,0.01040433,0.000377
 59,-0.00010528,0.00024162,-0.00025091,-0.00010726,0.00077519,-0.004112
 70,-0.00236032,-0.00268590,0.00066078,-0.00007674,0.00063355,-0.000040
 16,0.00004404,0.00001871,-0.00001321,-0.00011847,0.00006358,-0.0001782
 1,0.00019945,-0.00102604,0.05348156,-0.00455698,-0.02233191,0.04078299
 ,0.00069068,-0.00002565,0.00025998,-0.00011128,0.00383217,-0.01408886,
 0.00009250,0.00005316,0.00010408,0.00363194,-0.04930932,0.01071118,0.0
 0009572,-0.00005811,-0.00002833,-0.00005048,0.00013466,0.00038675,-0.0
 0303879,-0.00068291,-0.00100735,0.00091368,0.00028424,0.00064010,0.000
 00902,0.00003919,-0.00000635,-0.00007799,-0.00005116,-0.00010845,-0.00
 118146,0.00152610,0.00082562,0.00394904,0.06395452,0.00062117,0.013391
 69,-0.00349096,0.00131953,0.00050660,0.00092488,0.00045030,-0.00058905
 ,-0.01559370,-0.00028203,0.00011950,0.00001882,0.00925236,0.01373233,-
 0.29284924,0.00017543,-0.00010542,0.00042457,-0.00108112,0.00023297,0.
 00069877,-0.00206900,-0.00168912,0.00018957,-0.00051366,-0.00059651,-0
 .00027004,-0.00004345,0.00005924,0.00001840,0.00009778,-0.00015846,0.0
 0004339,0.00065838,0.00030958,0.00022710,-0.00911639,-0.02458063,0.320
 32781,0.00623767,-0.00035542,-0.00211435,-0.00260260,-0.00313697,-0.00
 351498,-0.02231978,0.01033589,0.01021327,0.00039835,-0.00056822,0.0000
 6232,-0.23343231,0.10110449,0.07465783,-0.00161395,0.00056200,0.000459
 07,0.00032362,-0.00008527,-0.00011248,0.00080658,0.00049795,-0.0003186
 3,0.00061315,-0.00039557,0.00041164,-0.00001575,0.00009665,-0.00000567
 ,-0.00006848,0.00007981,-0.00003707,0.00171201,-0.00188149,-0.00020721
 ,0.00023166,-0.00036560,0.00053070,0.24972983,0.03146450,-0.03314909,-
 0.00922352,-0.00241085,-0.00016239,-0.00180384,-0.01195311,0.00667711,
 0.00526770,0.00014620,-0.00037735,0.00031753,0.09207617,-0.09436746,-0
 .03758521,-0.00082148,0.00019786,0.00005787,0.00016443,-0.00009539,-0.
 00013097,0.00061050,0.00011679,-0.00006147,0.00017172,0.00069345,0.000
 44342,-0.00001483,0.00014115,-0.00003167,-0.00008452,0.00005515,-0.000
 14018,-0.00208940,-0.00604948,0.00189181,-0.00137109,0.00263502,-0.000
 63270,-0.10588825,0.12368463,-0.00912201,0.00679416,0.00579861,-0.0015
 4564,-0.00112429,-0.00104188,-0.01442753,0.00646020,0.00531031,0.00009
 701,-0.00008831,-0.00007901,0.07821814,-0.04338094,-0.08521485,-0.0006
 1782,0.00002843,0.00051749,-0.00027904,-0.00010906,0.00041337,0.000531
 81,0.00063617,0.00048290,0.00100057,0.00034610,0.00059990,-0.00000424,
 0.00005891,-0.00000049,-0.00007257,-0.00002180,0.00001138,-0.00077327,
 0.00265991,0.00026386,0.02701902,-0.01389072,-0.01066937,-0.08002443,0
 .04163124,0.08360778\\0.00000008,-0.00000006,0.00000066,0.00000007,-0.
 00000006,-0.00000009,-0.00000020,0.00000043,-0.00000106,0.00000008,0.0
 0000030,0.00000162,0.00000009,-0.00000036,-0.00000079,-0.00000022,0.00
 000038,-0.00000049,0.00000038,-0.00000132,-0.00000017,-0.00000060,0.00
 000160,-0.00000087,-0.00000031,0.00000021,-0.00000226,0.00000036,-0.00
 000041,0.00000248,-0.00000022,0.00000133,0.00000198,0.00000023,-0.0000
 0028,0.00000147,0.00000040,-0.00000162,-0.00000086,-0.00000016,-0.0000
 0013,-0.00000162\\\@


 BRING ME INTO THE COMPANY OF THOSE WHO SEEK TRUTH,
 AND DELIVER ME FROM THOSE WHO HAVE FOUND IT.
 Job cpu time:       0 days  3 hours  9 minutes 37.7 seconds.
 Elapsed time:       0 days  0 hours  9 minutes 29.5 seconds.
 File lengths (MBytes):  RWF=   1376 Int=      0 D2E=      0 Chk=     32 Scr=     32
 Normal termination of Gaussian 16 at Mon Mar 11 15:58:27 2019.
