 Entering Gaussian System, Link 0=g16
 Input=QOOQLKSEGVNYLA-UHFFFAOYSA-N_GeoFreq_c3_a1.com
 Output=QOOQLKSEGVNYLA-UHFFFAOYSA-N_GeoFreq_c3_a1.log
 Initial command:
 /shared/centos7/gaussian/g16/l1.exe "/scratch/underkoffler.c/gaussian_scratch/Gau-15233.inp" -scrdir="/scratch/underkoffler.c/gaussian_scratch/"
 Entering Link 1 = /shared/centos7/gaussian/g16/l1.exe PID=     15234.
  
 Copyright (c) 1988,1990,1992,1993,1995,1998,2003,2009,2016,
            Gaussian, Inc.  All Rights Reserved.
  
 This is part of the Gaussian(R) 16 program.  It is based on
 the Gaussian(R) 09 system (copyright 2009, Gaussian, Inc.),
 the Gaussian(R) 03 system (copyright 2003, Gaussian, Inc.),
 the Gaussian(R) 98 system (copyright 1998, Gaussian, Inc.),
 the Gaussian(R) 94 system (copyright 1995, Gaussian, Inc.),
 the Gaussian 92(TM) system (copyright 1992, Gaussian, Inc.),
 the Gaussian 90(TM) system (copyright 1990, Gaussian, Inc.),
 the Gaussian 88(TM) system (copyright 1988, Gaussian, Inc.),
 the Gaussian 86(TM) system (copyright 1986, Carnegie Mellon
 University), and the Gaussian 82(TM) system (copyright 1983,
 Carnegie Mellon University). Gaussian is a federally registered
 trademark of Gaussian, Inc.
  
 This software contains proprietary and confidential information,
 including trade secrets, belonging to Gaussian, Inc.
  
 This software is provided under written license and may be
 used, copied, transmitted, or stored only in accord with that
 written license.
  
 The following legend is applicable only to US Government
 contracts under FAR:
  
                    RESTRICTED RIGHTS LEGEND
  
 Use, reproduction and disclosure by the US Government is
 subject to restrictions as set forth in subparagraphs (a)
 and (c) of the Commercial Computer Software - Restricted
 Rights clause in FAR 52.227-19.
  
 Gaussian, Inc.
 340 Quinnipiac St., Bldg. 40, Wallingford CT 06492
  
  
 ---------------------------------------------------------------
 Warning -- This program may not be used in any manner that
 competes with the business of Gaussian, Inc. or will provide
 assistance to any competitor of Gaussian, Inc.  The licensee
 of this program is prohibited from giving any competitor of
 Gaussian, Inc. access to this program.  By using this program,
 the user acknowledges that Gaussian, Inc. is engaged in the
 business of creating and licensing software in the field of
 computational chemistry and represents and warrants to the
 licensee that it is not a competitor of Gaussian, Inc. and that
 it will not use this program in any manner prohibited above.
 ---------------------------------------------------------------
  

 Cite this work as:
 Gaussian 16, Revision A.03,
 M. J. Frisch, G. W. Trucks, H. B. Schlegel, G. E. Scuseria, 
 M. A. Robb, J. R. Cheeseman, G. Scalmani, V. Barone, 
 G. A. Petersson, H. Nakatsuji, X. Li, M. Caricato, A. V. Marenich, 
 J. Bloino, B. G. Janesko, R. Gomperts, B. Mennucci, H. P. Hratchian, 
 J. V. Ortiz, A. F. Izmaylov, J. L. Sonnenberg, D. Williams-Young, 
 F. Ding, F. Lipparini, F. Egidi, J. Goings, B. Peng, A. Petrone, 
 T. Henderson, D. Ranasinghe, V. G. Zakrzewski, J. Gao, N. Rega, 
 G. Zheng, W. Liang, M. Hada, M. Ehara, K. Toyota, R. Fukuda, 
 J. Hasegawa, M. Ishida, T. Nakajima, Y. Honda, O. Kitao, H. Nakai, 
 T. Vreven, K. Throssell, J. A. Montgomery, Jr., J. E. Peralta, 
 F. Ogliaro, M. J. Bearpark, J. J. Heyd, E. N. Brothers, K. N. Kudin, 
 V. N. Staroverov, T. A. Keith, R. Kobayashi, J. Normand, 
 K. Raghavachari, A. P. Rendell, J. C. Burant, S. S. Iyengar, 
 J. Tomasi, M. Cossi, J. M. Millam, M. Klene, C. Adamo, R. Cammi, 
 J. W. Ochterski, R. L. Martin, K. Morokuma, O. Farkas, 
 J. B. Foresman, and D. J. Fox, Gaussian, Inc., Wallingford CT, 2016.
 
 ******************************************
 Gaussian 16:  EM64L-G16RevA.03 25-Dec-2016
                 9-Apr-2019 
 ******************************************
 %nprocshared=20
 Will use up to   20 processors via shared memory.
 %mem=5GB
 ----------------------------------------------------------------------
 #p m062x/6-311+g(2df,2p) opt=(calcfc,verytight,gdiis,maxcycles=900) fr
 eq iop(7/33=1,2/16=3)
 ----------------------------------------------------------------------

 Warning!  Use of Opt=GDIIS is deprecated since it is seldom a good choice.

 1/6=900,7=1,10=4,18=20,19=11,26=3,38=1/1,3;
 2/9=110,12=2,16=3,17=6,18=5,40=1/2;
 3/5=4,6=6,7=214,11=2,25=1,30=1,71=2,74=-55,140=1/1,2,3;
 4//1;
 5/5=2,38=5/2;
 8/6=4,10=90,11=11/1;
 11/6=1,8=1,9=11,15=111,16=1/1,2,10;
 10/6=1,13=1/2;
 6/7=2,8=2,9=2,10=2,28=1/1;
 7/10=1,18=20,25=1,33=1/1,2,3,16;
 1/6=900,7=1,10=4,18=20,19=11,26=3/3(2);
 2/9=110,16=3/2;
 99//99;
 2/9=110,16=3/2;
 3/5=4,6=6,7=214,11=2,25=1,30=1,71=1,74=-55/1,2,3;
 4/5=5,16=3,69=1/1;
 5/5=2,38=5/2;
 7/33=1/1,2,3,16;
 1/6=900,7=1,18=20,19=11,26=3/3(-5);
 2/9=110,16=3/2;
 6/7=2,8=2,9=2,10=2,19=2,28=1/1;
 99/9=1/99;
 Leave Link    1 at Tue Apr  9 00:22:29 2019, MaxMem=   671088640 cpu:              31.3 elap:               1.6
 (Enter /shared/centos7/gaussian/g16/l101.exe)
 ------------------------------
 Gaussian input prepared by ASE
 ------------------------------
 Symbolic Z-matrix:
 Charge =  0 Multiplicity = 2
 O                     0.62737   1.37567  -1.77946 
 C                     0.71161  -0.46571   0.54611 
 C                    -0.32483  -0.47788  -0.53768 
 C                     1.69422   0.67638   0.46523 
 C                    -0.52849   0.84628  -1.2316 
 H                     0.19982  -0.43545   1.54053 
 H                     1.26698  -1.4372    0.51376 
 H                    -0.05043  -1.24219  -1.30766 
 H                    -1.30955  -0.80359  -0.11689 
 H                     2.74453   0.35335   0.67695 
 H                     1.42531   1.48956   1.17107 
 H                     1.65327   1.10259  -0.54483 
 H                    -1.02419   1.58144  -0.54948 
 H                    -1.23409   0.66201  -2.0729 
 
 ITRead=  0  0  0  0  0  0  0  0  0  0  0  0  0  0
 MicOpt= -1 -1 -1 -1 -1 -1 -1 -1 -1 -1 -1 -1 -1 -1
 NAtoms=     14 NQM=       14 NQMF=       0 NMMI=      0 NMMIF=      0
                NMic=       0 NMicF=      0.
                    Isotopes and Nuclear Properties:
 (Nuclear quadrupole moments (NQMom) in fm**2, nuclear magnetic moments (NMagM)
  in nuclear magnetons)

  Atom         1           2           3           4           5           6           7           8           9          10
 IAtWgt=          16          12          12          12          12           1           1           1           1           1
 AtmWgt=  15.9949146  12.0000000  12.0000000  12.0000000  12.0000000   1.0078250   1.0078250   1.0078250   1.0078250   1.0078250
 NucSpn=           0           0           0           0           0           1           1           1           1           1
 AtZEff=  -0.0000000  -0.0000000  -0.0000000  -0.0000000  -0.0000000  -0.0000000  -0.0000000  -0.0000000  -0.0000000  -0.0000000
 NQMom=    0.0000000   0.0000000   0.0000000   0.0000000   0.0000000   0.0000000   0.0000000   0.0000000   0.0000000   0.0000000
 NMagM=    0.0000000   0.0000000   0.0000000   0.0000000   0.0000000   2.7928460   2.7928460   2.7928460   2.7928460   2.7928460
 AtZNuc=   8.0000000   6.0000000   6.0000000   6.0000000   6.0000000   1.0000000   1.0000000   1.0000000   1.0000000   1.0000000

  Atom        11          12          13          14
 IAtWgt=           1           1           1           1
 AtmWgt=   1.0078250   1.0078250   1.0078250   1.0078250
 NucSpn=           1           1           1           1
 AtZEff=  -0.0000000  -0.0000000  -0.0000000  -0.0000000
 NQMom=    0.0000000   0.0000000   0.0000000   0.0000000
 NMagM=    2.7928460   2.7928460   2.7928460   2.7928460
 AtZNuc=   1.0000000   1.0000000   1.0000000   1.0000000
 Leave Link  101 at Tue Apr  9 00:22:29 2019, MaxMem=   671088640 cpu:               5.6 elap:               0.3
 (Enter /shared/centos7/gaussian/g16/l103.exe)

 GradGradGradGradGradGradGradGradGradGradGradGradGradGradGradGradGradGrad
 Berny optimization.
 Initialization pass.
                           ----------------------------
                           !    Initial Parameters    !
                           ! (Angstroms and Degrees)  !
 --------------------------                            --------------------------
 ! Name  Definition              Value          Derivative Info.                !
 --------------------------------------------------------------------------------
 ! R1    R(1,5)                  1.3843         calculate D2E/DX2 analytically  !
 ! R2    R(2,3)                  1.4996         calculate D2E/DX2 analytically  !
 ! R3    R(2,4)                  1.5088         calculate D2E/DX2 analytically  !
 ! R4    R(2,6)                  1.1188         calculate D2E/DX2 analytically  !
 ! R5    R(2,7)                  1.1195         calculate D2E/DX2 analytically  !
 ! R6    R(3,5)                  1.5088         calculate D2E/DX2 analytically  !
 ! R7    R(3,8)                  1.1191         calculate D2E/DX2 analytically  !
 ! R8    R(3,9)                  1.1193         calculate D2E/DX2 analytically  !
 ! R9    R(4,10)                 1.1191         calculate D2E/DX2 analytically  !
 ! R10   R(4,11)                 1.1099         calculate D2E/DX2 analytically  !
 ! R11   R(4,12)                 1.0971         calculate D2E/DX2 analytically  !
 ! R12   R(5,13)                 1.1187         calculate D2E/DX2 analytically  !
 ! R13   R(5,14)                 1.1134         calculate D2E/DX2 analytically  !
 ! A1    A(3,2,4)              114.6769         calculate D2E/DX2 analytically  !
 ! A2    A(3,2,6)              109.0519         calculate D2E/DX2 analytically  !
 ! A3    A(3,2,7)              108.3568         calculate D2E/DX2 analytically  !
 ! A4    A(4,2,6)              108.9708         calculate D2E/DX2 analytically  !
 ! A5    A(4,2,7)              109.4053         calculate D2E/DX2 analytically  !
 ! A6    A(6,2,7)              106.0267         calculate D2E/DX2 analytically  !
 ! A7    A(2,3,5)              114.7431         calculate D2E/DX2 analytically  !
 ! A8    A(2,3,8)              109.4711         calculate D2E/DX2 analytically  !
 ! A9    A(2,3,9)              109.7969         calculate D2E/DX2 analytically  !
 ! A10   A(5,3,8)              108.4251         calculate D2E/DX2 analytically  !
 ! A11   A(5,3,9)              108.0316         calculate D2E/DX2 analytically  !
 ! A12   A(8,3,9)              106.0003         calculate D2E/DX2 analytically  !
 ! A13   A(2,4,10)             112.4947         calculate D2E/DX2 analytically  !
 ! A14   A(2,4,11)             111.2677         calculate D2E/DX2 analytically  !
 ! A15   A(2,4,12)             108.61           calculate D2E/DX2 analytically  !
 ! A16   A(10,4,11)            108.5769         calculate D2E/DX2 analytically  !
 ! A17   A(10,4,12)            108.7456         calculate D2E/DX2 analytically  !
 ! A18   A(11,4,12)            106.9683         calculate D2E/DX2 analytically  !
 ! A19   A(1,5,3)              113.8865         calculate D2E/DX2 analytically  !
 ! A20   A(1,5,13)             111.0983         calculate D2E/DX2 analytically  !
 ! A21   A(1,5,14)             107.0613         calculate D2E/DX2 analytically  !
 ! A22   A(3,5,13)             110.863          calculate D2E/DX2 analytically  !
 ! A23   A(3,5,14)             106.7275         calculate D2E/DX2 analytically  !
 ! A24   A(13,5,14)            106.78           calculate D2E/DX2 analytically  !
 ! D1    D(4,2,3,5)            -19.9307         calculate D2E/DX2 analytically  !
 ! D2    D(4,2,3,8)            102.2142         calculate D2E/DX2 analytically  !
 ! D3    D(4,2,3,9)           -141.8101         calculate D2E/DX2 analytically  !
 ! D4    D(6,2,3,5)            102.5599         calculate D2E/DX2 analytically  !
 ! D5    D(6,2,3,8)           -135.2952         calculate D2E/DX2 analytically  !
 ! D6    D(6,2,3,9)            -19.3195         calculate D2E/DX2 analytically  !
 ! D7    D(7,2,3,5)           -142.458          calculate D2E/DX2 analytically  !
 ! D8    D(7,2,3,8)            -20.3131         calculate D2E/DX2 analytically  !
 ! D9    D(7,2,3,9)             95.6626         calculate D2E/DX2 analytically  !
 ! D10   D(3,2,4,10)          -137.9395         calculate D2E/DX2 analytically  !
 ! D11   D(3,2,4,11)            99.9742         calculate D2E/DX2 analytically  !
 ! D12   D(3,2,4,12)           -17.5108         calculate D2E/DX2 analytically  !
 ! D13   D(6,2,4,10)            99.5261         calculate D2E/DX2 analytically  !
 ! D14   D(6,2,4,11)           -22.5602         calculate D2E/DX2 analytically  !
 ! D15   D(6,2,4,12)          -140.0452         calculate D2E/DX2 analytically  !
 ! D16   D(7,2,4,10)           -15.9807         calculate D2E/DX2 analytically  !
 ! D17   D(7,2,4,11)          -138.067          calculate D2E/DX2 analytically  !
 ! D18   D(7,2,4,12)           104.448          calculate D2E/DX2 analytically  !
 ! D19   D(2,3,5,1)             56.0607         calculate D2E/DX2 analytically  !
 ! D20   D(2,3,5,13)           -70.103          calculate D2E/DX2 analytically  !
 ! D21   D(2,3,5,14)           173.9751         calculate D2E/DX2 analytically  !
 ! D22   D(8,3,5,1)            -66.6494         calculate D2E/DX2 analytically  !
 ! D23   D(8,3,5,13)           167.1868         calculate D2E/DX2 analytically  !
 ! D24   D(8,3,5,14)            51.2649         calculate D2E/DX2 analytically  !
 ! D25   D(9,3,5,1)            178.8949         calculate D2E/DX2 analytically  !
 ! D26   D(9,3,5,13)            52.7311         calculate D2E/DX2 analytically  !
 ! D27   D(9,3,5,14)           -63.1908         calculate D2E/DX2 analytically  !
 --------------------------------------------------------------------------------
 Trust Radius=3.00D-01 FncErr=1.00D-07 GrdErr=1.00D-06 EigMax=2.50D+02 EigMin=1.00D-04
 Number of steps in this run=    100 maximum allowed number of steps=    100.
 GradGradGradGradGradGradGradGradGradGradGradGradGradGradGradGradGradGrad

 Leave Link  103 at Tue Apr  9 00:22:29 2019, MaxMem=   671088640 cpu:               0.2 elap:               0.0
 (Enter /shared/centos7/gaussian/g16/l202.exe)
                          Input orientation:                          
 ---------------------------------------------------------------------
 Center     Atomic      Atomic             Coordinates (Angstroms)
 Number     Number       Type             X           Y           Z
 ---------------------------------------------------------------------
      1          8           0        0.627369    1.375667   -1.779457
      2          6           0        0.711608   -0.465711    0.546106
      3          6           0       -0.324828   -0.477882   -0.537684
      4          6           0        1.694220    0.676378    0.465225
      5          6           0       -0.528493    0.846278   -1.231597
      6          1           0        0.199819   -0.435449    1.540534
      7          1           0        1.266982   -1.437202    0.513760
      8          1           0       -0.050432   -1.242188   -1.307661
      9          1           0       -1.309545   -0.803595   -0.116887
     10          1           0        2.744527    0.353351    0.676951
     11          1           0        1.425305    1.489561    1.171068
     12          1           0        1.653272    1.102587   -0.544833
     13          1           0       -1.024186    1.581444   -0.549478
     14          1           0       -1.234089    0.662005   -2.072897
 ---------------------------------------------------------------------
                    Distance matrix (angstroms):
                    1          2          3          4          5
     1  O    0.000000
     2  C    2.967492   0.000000
     3  C    2.425762   1.499650   0.000000
     4  C    2.581816   1.508785   2.532725   0.000000
     5  C    1.384348   2.533652   1.508772   2.801522   0.000000
     6  H    3.805953   1.118809   2.143839   2.150740   3.139741
     7  H    3.685129   1.119500   2.135343   2.156874   3.388847
     8  H    2.745026   2.149436   1.119073   3.141311   2.143832
     9  H    3.356331   2.153784   1.119297   3.398791   2.138855
    10  H    3.400209   2.195618   3.404001   1.119070   3.820758
    11  H    3.058638   2.173253   3.139049   1.109862   3.162901
    12  H    1.628295   2.129891   2.531958   1.097063   2.301617
    13  H    2.069499   2.898987   2.174870   3.039490   1.118690
    14  H    2.015055   3.452051   2.117304   3.875211   1.113376
                    6          7          8          9         10
     6  H    0.000000
     7  H    1.787907   0.000000
     8  H    2.970803   2.256366   0.000000
     9  H    2.271729   2.727208   1.787645   0.000000
    10  H    2.800629   2.327198   3.781035   4.290012   0.000000
    11  H    2.311707   3.003841   3.972952   3.794311   1.809826
    12  H    2.971000   2.778555   2.997080   3.548937   1.801373
    13  H    3.151856   3.936007   3.081548   2.440692   4.149161
    14  H    4.039478   4.165672   2.369089   2.445333   4.846267
                   11         12         13         14
    11  H    0.000000
    12  H    1.773706   0.000000
    13  H    2.994783   2.719946   0.000000
    14  H    4.275573   3.296353   1.791712   0.000000
 Stoichiometry    C4H9O(2)
 Framework group  C1[X(C4H9O)]
 Deg. of freedom    36
 Full point group                 C1      NOp   1
 Largest Abelian subgroup         C1      NOp   1
 Largest concise Abelian subgroup C1      NOp   1
                         Standard orientation:                         
 ---------------------------------------------------------------------
 Center     Atomic      Atomic             Coordinates (Angstroms)
 Number     Number       Type             X           Y           Z
 ---------------------------------------------------------------------
      1          8           0        1.267598   -1.013956   -0.292163
      2          6           0       -1.234797    0.559715   -0.032190
      3          6           0        0.144793    1.132527   -0.164729
      4          6           0       -1.283020   -0.942359    0.101530
      5          6           0        1.252737    0.228924    0.317302
      6          1           0       -1.737750    1.020160    0.854806
      7          1           0       -1.833901    0.873131   -0.924449
      8          1           0        0.340021    1.391074   -1.235880
      9          1           0        0.211577    2.095334    0.402166
     10          1           0       -2.103838   -1.400153   -0.505925
     11          1           0       -1.413932   -1.248271    1.160338
     12          1           0       -0.323594   -1.354749   -0.234601
     13          1           0        1.230546    0.130843    1.431464
     14          1           0        2.211803    0.731430    0.057907
 ---------------------------------------------------------------------
 Rotational constants (GHZ):           7.1631559           4.4801302           3.0947887
 Leave Link  202 at Tue Apr  9 00:22:29 2019, MaxMem=   671088640 cpu:               0.2 elap:               0.0
 (Enter /shared/centos7/gaussian/g16/l301.exe)
 Standard basis: 6-311+G(2df,2p) (5D, 7F)
 Ernie: Thresh=  0.10000D-02 Tol=  0.10000D-05 Strict=F.
 There are   276 symmetry adapted cartesian basis functions of A   symmetry.
 There are   251 symmetry adapted basis functions of A   symmetry.
   251 basis functions,   359 primitive gaussians,   276 cartesian basis functions
    21 alpha electrons       20 beta electrons
       nuclear repulsion energy       187.4030689726 Hartrees.
 IExCor= 4336 DFT=T Ex+Corr=M062X ExCW=0 ScaHFX=  0.540000
 ScaDFX=  1.000000  1.000000  1.000000  1.000000 ScalE2=  1.000000  1.000000
 IRadAn=      5 IRanWt=     -1 IRanGd=            0 ICorTp=0 IEmpDi=  4
 NAtoms=   14 NActive=   14 NUniq=   14 SFac= 1.00D+00 NAtFMM=   60 NAOKFM=F Big=F
 Integral buffers will be    131072 words long.
 Raffenetti 2 integral format.
 Two-electron integral symmetry is turned on.
 Leave Link  301 at Tue Apr  9 00:22:29 2019, MaxMem=   671088640 cpu:               0.8 elap:               0.1
 (Enter /shared/centos7/gaussian/g16/l302.exe)
 NPDir=0 NMtPBC=     1 NCelOv=     1 NCel=       1 NClECP=     1 NCelD=      1
         NCelK=      1 NCelE2=     1 NClLst=     1 CellRange=     0.0.
 One-electron integrals computed using PRISM.
 One-electron integral symmetry used in STVInt
 NBasis=   251 RedAO= T EigKep=  1.64D-05  NBF=   251
 NBsUse=   251 1.00D-06 EigRej= -1.00D+00 NBFU=   251
 Precomputing XC quadrature grid using
 IXCGrd= 4 IRadAn=           5 IRanWt=          -1 IRanGd=           0 AccXCQ= 0.00D+00.
 Generated NRdTot=       0 NPtTot=           0 NUsed=           0 NTot=          32
 NSgBfM=   276   276   276   276   276 MxSgAt=    14 MxSgA2=    14.
 Leave Link  302 at Tue Apr  9 00:22:29 2019, MaxMem=   671088640 cpu:               6.9 elap:               0.4
 (Enter /shared/centos7/gaussian/g16/l303.exe)
 DipDrv:  MaxL=1.
 Leave Link  303 at Tue Apr  9 00:22:29 2019, MaxMem=   671088640 cpu:               0.5 elap:               0.0
 (Enter /shared/centos7/gaussian/g16/l401.exe)
 ExpMin= 4.38D-02 ExpMax= 8.59D+03 ExpMxC= 1.30D+03 IAcc=3 IRadAn=         5 AccDes= 0.00D+00
 Harris functional with IExCor= 1009 and IRadAn=       5 diagonalized for initial guess.
 HarFok:  IExCor= 1009 AccDes= 0.00D+00 IRadAn=         5 IDoV= 1 UseB2=F ITyADJ=14
 ICtDFT=  3500011 ScaDFX=  1.000000  1.000000  1.000000  1.000000
 FoFCou: FMM=F IPFlag=           0 FMFlag=      100000 FMFlg1=           0
         NFxFlg=           0 DoJE=T BraDBF=F KetDBF=T FulRan=T
         wScrn=  0.000000 ICntrl=       500 IOpCl=  0 I1Cent=   200000004 NGrid=           0
         NMat0=    1 NMatS0=      1 NMatT0=    0 NMatD0=    1 NMtDS0=    0 NMtDT0=    0
 Petite list used in FoFCou.
 Harris En= -232.859749586973    
 JPrj=0 DoOrth=F DoCkMO=F.
 Initial guess <Sx>= 0.0000 <Sy>= 0.0000 <Sz>= 0.5000 <S**2>= 0.7500 S= 0.5000
 Leave Link  401 at Tue Apr  9 00:22:30 2019, MaxMem=   671088640 cpu:              15.5 elap:               0.8
 (Enter /shared/centos7/gaussian/g16/l502.exe)
 Integral symmetry usage will be decided dynamically.
 UHF open shell SCF:
 Using DIIS extrapolation, IDIIS=  1040.
 NGot=   671088640 LenX=   670928170 LenY=   670851553
 Requested convergence on RMS density matrix=1.00D-08 within 128 cycles.
 Requested convergence on MAX density matrix=1.00D-06.
 Requested convergence on             energy=1.00D-06.
 No special actions if energy rises.
 Fock matrices will be formed incrementally for  20 cycles.

 Cycle   1  Pass 1  IDiag  1:
 FoFJK:  IHMeth= 1 ICntrl=       0 DoSepK=F KAlg= 0 I1Cent=           0 FoldK=F
 IRaf= 990000000 NMat=       1 IRICut=       1 DoRegI=T DoRafI=F ISym2E= 0 IDoP0=0 IntGTp=1.
 FoFCou: FMM=F IPFlag=           0 FMFlag=      100000 FMFlg1=           0
         NFxFlg=           0 DoJE=F BraDBF=F KetDBF=F FulRan=T
         wScrn=  0.000000 ICntrl=         0 IOpCl=  1 I1Cent=           0 NGrid=           0
         NMat0=    1 NMatS0=      1 NMatT0=    0 NMatD0=    1 NMtDS0=    0 NMtDT0=    0
 Symmetry not used in FoFCou.
 E= -232.749362132988    
 DIIS: error= 2.31D-02 at cycle   1 NSaved=   1.
 NSaved= 1 IEnMin= 1 EnMin= -232.749362132988     IErMin= 1 ErrMin= 2.31D-02
 ErrMax= 2.31D-02  0.00D+00 EMaxC= 1.00D-01 BMatC= 8.21D-01 BMatP= 8.21D-01
 IDIUse=3 WtCom= 7.69D-01 WtEn= 2.31D-01
 Coeff-Com:  0.100D+01
 Coeff-En:   0.100D+01
 Coeff:      0.100D+01
 Gap=     0.348 Goal=   None    Shift=    0.000
 Gap=     0.243 Goal=   None    Shift=    0.000
 GapD=    0.243 DampG=1.000 DampE=0.500 DampFc=0.5000 IDamp=-1.
 Damping current iteration by 5.00D-01
 RMSDP=2.55D-03 MaxDP=1.07D-01              OVMax= 1.53D-01

 Cycle   2  Pass 1  IDiag  1:
 RMSU=  1.25D-03    CP:  9.72D-01
 E= -232.839876479556     Delta-E=       -0.090514346568 Rises=F Damp=T
 DIIS: error= 5.62D-03 at cycle   2 NSaved=   2.
 NSaved= 2 IEnMin= 2 EnMin= -232.839876479556     IErMin= 2 ErrMin= 5.62D-03
 ErrMax= 5.62D-03  0.00D+00 EMaxC= 1.00D-01 BMatC= 5.85D-02 BMatP= 8.21D-01
 IDIUse=3 WtCom= 9.44D-01 WtEn= 5.62D-02
 Coeff-Com: -0.898D-01 0.109D+01
 Coeff-En:   0.000D+00 0.100D+01
 Coeff:     -0.847D-01 0.108D+01
 Gap=     0.363 Goal=   None    Shift=    0.000
 Gap=     0.250 Goal=   None    Shift=    0.000
 RMSDP=1.05D-03 MaxDP=3.81D-02 DE=-9.05D-02 OVMax= 9.08D-02

 Cycle   3  Pass 1  IDiag  1:
 RMSU=  1.03D-03    CP:  9.74D-01  8.43D-01
 E= -232.931109457880     Delta-E=       -0.091232978323 Rises=F Damp=F
 DIIS: error= 3.65D-03 at cycle   3 NSaved=   3.
 NSaved= 3 IEnMin= 3 EnMin= -232.931109457880     IErMin= 3 ErrMin= 3.65D-03
 ErrMax= 3.65D-03  0.00D+00 EMaxC= 1.00D-01 BMatC= 1.09D-02 BMatP= 5.85D-02
 IDIUse=3 WtCom= 9.64D-01 WtEn= 3.65D-02
 Coeff-Com: -0.796D-01 0.284D+00 0.796D+00
 Coeff-En:   0.000D+00 0.000D+00 0.100D+01
 Coeff:     -0.767D-01 0.273D+00 0.803D+00
 Gap=     0.356 Goal=   None    Shift=    0.000
 Gap=     0.241 Goal=   None    Shift=    0.000
 RMSDP=2.93D-04 MaxDP=1.53D-02 DE=-9.12D-02 OVMax= 1.67D-02

 Cycle   4  Pass 1  IDiag  1:
 RMSU=  2.51D-04    CP:  9.67D-01  9.23D-01  9.12D-01
 E= -232.934122784999     Delta-E=       -0.003013327119 Rises=F Damp=F
 DIIS: error= 1.20D-03 at cycle   4 NSaved=   4.
 NSaved= 4 IEnMin= 4 EnMin= -232.934122784999     IErMin= 4 ErrMin= 1.20D-03
 ErrMax= 1.20D-03  0.00D+00 EMaxC= 1.00D-01 BMatC= 1.12D-03 BMatP= 1.09D-02
 IDIUse=3 WtCom= 9.88D-01 WtEn= 1.20D-02
 Coeff-Com: -0.173D-01 0.264D-01 0.234D+00 0.757D+00
 Coeff-En:   0.000D+00 0.000D+00 0.000D+00 0.100D+01
 Coeff:     -0.171D-01 0.261D-01 0.231D+00 0.760D+00
 Gap=     0.355 Goal=   None    Shift=    0.000
 Gap=     0.247 Goal=   None    Shift=    0.000
 RMSDP=1.02D-04 MaxDP=4.22D-03 DE=-3.01D-03 OVMax= 1.53D-02

 Cycle   5  Pass 1  IDiag  1:
 RMSU=  8.67D-05    CP:  9.68D-01  9.12D-01  9.60D-01  9.57D-01
 E= -232.934637867201     Delta-E=       -0.000515082203 Rises=F Damp=F
 DIIS: error= 5.46D-04 at cycle   5 NSaved=   5.
 NSaved= 5 IEnMin= 5 EnMin= -232.934637867201     IErMin= 5 ErrMin= 5.46D-04
 ErrMax= 5.46D-04  0.00D+00 EMaxC= 1.00D-01 BMatC= 3.87D-04 BMatP= 1.12D-03
 IDIUse=3 WtCom= 9.95D-01 WtEn= 5.46D-03
 Coeff-Com:  0.526D-02-0.301D-01-0.304D-01 0.290D+00 0.765D+00
 Coeff-En:   0.000D+00 0.000D+00 0.000D+00 0.000D+00 0.100D+01
 Coeff:      0.523D-02-0.299D-01-0.302D-01 0.288D+00 0.767D+00
 Gap=     0.358 Goal=   None    Shift=    0.000
 Gap=     0.251 Goal=   None    Shift=    0.000
 RMSDP=6.78D-05 MaxDP=3.99D-03 DE=-5.15D-04 OVMax= 9.86D-03

 Cycle   6  Pass 1  IDiag  1:
 RMSU=  3.76D-05    CP:  9.68D-01  9.06D-01  9.73D-01  1.13D+00  1.39D+00
 E= -232.934866105404     Delta-E=       -0.000228238202 Rises=F Damp=F
 DIIS: error= 4.56D-04 at cycle   6 NSaved=   6.
 NSaved= 6 IEnMin= 6 EnMin= -232.934866105404     IErMin= 6 ErrMin= 4.56D-04
 ErrMax= 4.56D-04  0.00D+00 EMaxC= 1.00D-01 BMatC= 8.11D-05 BMatP= 3.87D-04
 IDIUse=3 WtCom= 9.95D-01 WtEn= 4.56D-03
 Coeff-Com:  0.769D-02-0.166D-01-0.933D-01-0.195D+00 0.163D+00 0.113D+01
 Coeff-En:   0.000D+00 0.000D+00 0.000D+00 0.000D+00 0.000D+00 0.100D+01
 Coeff:      0.766D-02-0.166D-01-0.929D-01-0.194D+00 0.162D+00 0.113D+01
 Gap=     0.358 Goal=   None    Shift=    0.000
 Gap=     0.255 Goal=   None    Shift=    0.000
 RMSDP=7.06D-05 MaxDP=4.59D-03 DE=-2.28D-04 OVMax= 1.42D-02

 Cycle   7  Pass 1  IDiag  1:
 RMSU=  3.16D-05    CP:  9.67D-01  9.09D-01  9.80D-01  1.29D+00  1.87D+00
                    CP:  1.55D+00
 E= -232.935023652413     Delta-E=       -0.000157547010 Rises=F Damp=F
 DIIS: error= 1.96D-04 at cycle   7 NSaved=   7.
 NSaved= 7 IEnMin= 7 EnMin= -232.935023652413     IErMin= 7 ErrMin= 1.96D-04
 ErrMax= 1.96D-04  0.00D+00 EMaxC= 1.00D-01 BMatC= 3.33D-05 BMatP= 8.11D-05
 IDIUse=3 WtCom= 9.98D-01 WtEn= 1.96D-03
 Coeff-Com:  0.160D-02-0.128D-02-0.219D-01-0.928D-01-0.616D-01 0.380D+00
 Coeff-Com:  0.796D+00
 Coeff-En:   0.000D+00 0.000D+00 0.000D+00 0.000D+00 0.000D+00 0.000D+00
 Coeff-En:   0.100D+01
 Coeff:      0.160D-02-0.128D-02-0.219D-01-0.926D-01-0.615D-01 0.379D+00
 Coeff:      0.796D+00
 Gap=     0.359 Goal=   None    Shift=    0.000
 Gap=     0.256 Goal=   None    Shift=    0.000
 RMSDP=3.33D-05 MaxDP=2.17D-03 DE=-1.58D-04 OVMax= 9.03D-03

 Cycle   8  Pass 1  IDiag  1:
 RMSU=  1.23D-05    CP:  9.66D-01  9.11D-01  9.81D-01  1.35D+00  2.02D+00
                    CP:  1.92D+00  1.59D+00
 E= -232.935082956675     Delta-E=       -0.000059304262 Rises=F Damp=F
 DIIS: error= 1.83D-04 at cycle   8 NSaved=   8.
 NSaved= 8 IEnMin= 8 EnMin= -232.935082956675     IErMin= 8 ErrMin= 1.83D-04
 ErrMax= 1.83D-04  0.00D+00 EMaxC= 1.00D-01 BMatC= 2.16D-05 BMatP= 3.33D-05
 IDIUse=3 WtCom= 9.98D-01 WtEn= 1.83D-03
 Coeff-Com: -0.257D-02 0.590D-02 0.350D-01 0.656D-01-0.572D-01-0.363D+00
 Coeff-Com:  0.350D-01 0.128D+01
 Coeff-En:   0.000D+00 0.000D+00 0.000D+00 0.000D+00 0.000D+00 0.000D+00
 Coeff-En:   0.000D+00 0.100D+01
 Coeff:     -0.257D-02 0.589D-02 0.350D-01 0.654D-01-0.571D-01-0.363D+00
 Coeff:      0.349D-01 0.128D+01
 Gap=     0.359 Goal=   None    Shift=    0.000
 Gap=     0.257 Goal=   None    Shift=    0.000
 RMSDP=4.56D-05 MaxDP=2.55D-03 DE=-5.93D-05 OVMax= 1.38D-02

 Cycle   9  Pass 1  IDiag  1:
 RMSU=  9.37D-06    CP:  9.66D-01  9.13D-01  9.82D-01  1.41D+00  2.18D+00
                    CP:  2.37D+00  2.56D+00  2.48D+00
 E= -232.935160782894     Delta-E=       -0.000077826219 Rises=F Damp=F
 DIIS: error= 1.58D-04 at cycle   9 NSaved=   9.
 NSaved= 9 IEnMin= 9 EnMin= -232.935160782894     IErMin= 9 ErrMin= 1.58D-04
 ErrMax= 1.58D-04  0.00D+00 EMaxC= 1.00D-01 BMatC= 1.67D-05 BMatP= 2.16D-05
 IDIUse=3 WtCom= 9.98D-01 WtEn= 1.58D-03
 Coeff-Com: -0.140D-04-0.123D-02 0.124D-01 0.677D-01 0.910D-01-0.297D+00
 Coeff-Com: -0.748D+00-0.517D+00 0.239D+01
 Coeff-En:   0.000D+00 0.000D+00 0.000D+00 0.000D+00 0.000D+00 0.000D+00
 Coeff-En:   0.000D+00 0.000D+00 0.100D+01
 Coeff:     -0.140D-04-0.123D-02 0.124D-01 0.676D-01 0.908D-01-0.297D+00
 Coeff:     -0.747D+00-0.516D+00 0.239D+01
 Gap=     0.360 Goal=   None    Shift=    0.000
 Gap=     0.258 Goal=   None    Shift=    0.000
 RMSDP=1.06D-04 MaxDP=5.42D-03 DE=-7.78D-05 OVMax= 3.28D-02

 Cycle  10  Pass 1  IDiag  1:
 RMSU=  7.09D-05    CP:  9.65D-01  9.17D-01  9.82D-01  1.54D+00  2.54D+00
                    CP:  3.00D+00  3.00D+00  3.00D+00  3.00D+00
 E= -232.935311161564     Delta-E=       -0.000150378670 Rises=F Damp=F
 DIIS: error= 1.20D-04 at cycle  10 NSaved=  10.
 NSaved=10 IEnMin=10 EnMin= -232.935311161564     IErMin=10 ErrMin= 1.20D-04
 ErrMax= 1.20D-04  0.00D+00 EMaxC= 1.00D-01 BMatC= 9.39D-06 BMatP= 1.67D-05
 IDIUse=3 WtCom= 9.99D-01 WtEn= 1.20D-03
 Coeff-Com:  0.321D-02-0.648D-02-0.378D-01-0.784D-01 0.753D-01 0.418D+00
 Coeff-Com:  0.985D-01-0.161D+01-0.311D+00 0.245D+01
 Coeff-En:   0.000D+00 0.000D+00 0.000D+00 0.000D+00 0.000D+00 0.000D+00
 Coeff-En:   0.000D+00 0.000D+00 0.000D+00 0.100D+01
 Coeff:      0.321D-02-0.647D-02-0.377D-01-0.783D-01 0.752D-01 0.417D+00
 Coeff:      0.984D-01-0.161D+01-0.310D+00 0.245D+01
 Gap=     0.361 Goal=   None    Shift=    0.000
 Gap=     0.259 Goal=   None    Shift=    0.000
 RMSDP=1.80D-04 MaxDP=8.67D-03 DE=-1.50D-04 OVMax= 5.73D-02

 Cycle  11  Pass 1  IDiag  1:
 RMSU=  5.57D-05    CP:  9.63D-01  9.18D-01  9.85D-01  1.75D+00  3.00D+00
                    CP:  3.00D+00  3.00D+00  3.00D+00  3.00D+00  3.00D+00
 E= -232.935462106651     Delta-E=       -0.000150945087 Rises=F Damp=F
 DIIS: error= 4.91D-05 at cycle  11 NSaved=  11.
 NSaved=11 IEnMin=11 EnMin= -232.935462106651     IErMin=11 ErrMin= 4.91D-05
 ErrMax= 4.91D-05  0.00D+00 EMaxC= 1.00D-01 BMatC= 3.72D-06 BMatP= 9.39D-06
 IDIUse=1 WtCom= 1.00D+00 WtEn= 0.00D+00
 Coeff-Com:  0.758D-03-0.106D-02-0.121D-01-0.292D-01 0.319D-01 0.170D+00
 Coeff-Com:  0.728D-01-0.566D+00-0.278D+00 0.902D+00 0.709D+00
 Coeff:      0.758D-03-0.106D-02-0.121D-01-0.292D-01 0.319D-01 0.170D+00
 Coeff:      0.728D-01-0.566D+00-0.278D+00 0.902D+00 0.709D+00
 Gap=     0.361 Goal=   None    Shift=    0.000
 Gap=     0.259 Goal=   None    Shift=    0.000
 RMSDP=1.83D-05 MaxDP=9.38D-04 DE=-1.51D-04 OVMax= 5.90D-03

 Cycle  12  Pass 1  IDiag  1:
 RMSU=  1.51D-05    CP:  9.63D-01  9.19D-01  9.85D-01  1.77D+00  3.00D+00
                    CP:  3.00D+00  3.00D+00  3.00D+00  3.00D+00  3.00D+00
                    CP:  1.17D+00
 E= -232.935470485734     Delta-E=       -0.000008379083 Rises=F Damp=F
 DIIS: error= 3.65D-05 at cycle  12 NSaved=  12.
 NSaved=12 IEnMin=12 EnMin= -232.935470485734     IErMin=12 ErrMin= 3.65D-05
 ErrMax= 3.65D-05  0.00D+00 EMaxC= 1.00D-01 BMatC= 1.44D-06 BMatP= 3.72D-06
 IDIUse=1 WtCom= 1.00D+00 WtEn= 0.00D+00
 Coeff-Com: -0.688D-03 0.149D-02 0.853D-02 0.177D-01-0.719D-02-0.107D+00
 Coeff-Com: -0.331D-01 0.328D+00 0.110D+00-0.763D+00-0.688D+00 0.213D+01
 Coeff:     -0.688D-03 0.149D-02 0.853D-02 0.177D-01-0.719D-02-0.107D+00
 Coeff:     -0.331D-01 0.328D+00 0.110D+00-0.763D+00-0.688D+00 0.213D+01
 Gap=     0.361 Goal=   None    Shift=    0.000
 Gap=     0.258 Goal=   None    Shift=    0.000
 RMSDP=6.67D-05 MaxDP=3.37D-03 DE=-8.38D-06 OVMax= 2.15D-02

 Cycle  13  Pass 1  IDiag  1:
 RMSU=  2.40D-05    CP:  9.62D-01  9.19D-01  9.86D-01  1.83D+00  3.00D+00
                    CP:  3.00D+00  3.00D+00  3.00D+00  3.00D+00  3.00D+00
                    CP:  1.83D+00  3.00D+00
 E= -232.935485846681     Delta-E=       -0.000015360947 Rises=F Damp=F
 DIIS: error= 1.33D-05 at cycle  13 NSaved=  13.
 NSaved=13 IEnMin=13 EnMin= -232.935485846681     IErMin=13 ErrMin= 1.33D-05
 ErrMax= 1.33D-05  0.00D+00 EMaxC= 1.00D-01 BMatC= 2.92D-07 BMatP= 1.44D-06
 IDIUse=1 WtCom= 1.00D+00 WtEn= 0.00D+00
 Coeff-Com: -0.336D-04 0.457D-04 0.163D-02 0.389D-02-0.333D-02-0.300D-01
 Coeff-Com: -0.210D-01 0.661D-01 0.800D-01-0.242D+00-0.476D+00 0.853D+00
 Coeff-Com:  0.767D+00
 Coeff:     -0.336D-04 0.457D-04 0.163D-02 0.389D-02-0.333D-02-0.300D-01
 Coeff:     -0.210D-01 0.661D-01 0.800D-01-0.242D+00-0.476D+00 0.853D+00
 Coeff:      0.767D+00
 Gap=     0.361 Goal=   None    Shift=    0.000
 Gap=     0.258 Goal=   None    Shift=    0.000
 RMSDP=1.38D-05 MaxDP=6.95D-04 DE=-1.54D-05 OVMax= 4.38D-03

 Cycle  14  Pass 1  IDiag  1:
 RMSU=  2.50D-06    CP:  9.62D-01  9.19D-01  9.86D-01  1.85D+00  3.00D+00
                    CP:  3.00D+00  3.00D+00  3.00D+00  3.00D+00  3.00D+00
                    CP:  1.97D+00  3.00D+00  1.43D+00
 E= -232.935486587276     Delta-E=       -0.000000740596 Rises=F Damp=F
 DIIS: error= 6.14D-06 at cycle  14 NSaved=  14.
 NSaved=14 IEnMin=14 EnMin= -232.935486587276     IErMin=14 ErrMin= 6.14D-06
 ErrMax= 6.14D-06  0.00D+00 EMaxC= 1.00D-01 BMatC= 4.84D-08 BMatP= 2.92D-07
 IDIUse=1 WtCom= 1.00D+00 WtEn= 0.00D+00
 Coeff-Com:  0.172D-03-0.374D-03-0.159D-02-0.252D-02 0.148D-02 0.198D-01
 Coeff-Com: -0.113D-01-0.783D-01 0.353D-01 0.143D+00-0.151D-01-0.337D+00
 Coeff-Com:  0.119D+00 0.113D+01
 Coeff:      0.172D-03-0.374D-03-0.159D-02-0.252D-02 0.148D-02 0.198D-01
 Coeff:     -0.113D-01-0.783D-01 0.353D-01 0.143D+00-0.151D-01-0.337D+00
 Coeff:      0.119D+00 0.113D+01
 Gap=     0.361 Goal=   None    Shift=    0.000
 Gap=     0.258 Goal=   None    Shift=    0.000
 RMSDP=4.19D-06 MaxDP=2.18D-04 DE=-7.41D-07 OVMax= 1.30D-03

 Cycle  15  Pass 1  IDiag  1:
 RMSU=  9.15D-07    CP:  9.62D-01  9.19D-01  9.86D-01  1.85D+00  3.00D+00
                    CP:  3.00D+00  3.00D+00  3.00D+00  3.00D+00  3.00D+00
                    CP:  2.01D+00  3.00D+00  1.56D+00  1.50D+00
 E= -232.935486655092     Delta-E=       -0.000000067815 Rises=F Damp=F
 DIIS: error= 1.33D-06 at cycle  15 NSaved=  15.
 NSaved=15 IEnMin=15 EnMin= -232.935486655092     IErMin=15 ErrMin= 1.33D-06
 ErrMax= 1.33D-06  0.00D+00 EMaxC= 1.00D-01 BMatC= 2.38D-09 BMatP= 4.84D-08
 IDIUse=1 WtCom= 1.00D+00 WtEn= 0.00D+00
 Coeff-Com:  0.227D-04-0.526D-04-0.341D-03-0.811D-03 0.127D-02 0.408D-02
 Coeff-Com:  0.181D-02-0.164D-01-0.539D-02 0.283D-01 0.474D-01-0.842D-01
 Coeff-Com: -0.296D-01 0.909D-01 0.963D+00
 Coeff:      0.227D-04-0.526D-04-0.341D-03-0.811D-03 0.127D-02 0.408D-02
 Coeff:      0.181D-02-0.164D-01-0.539D-02 0.283D-01 0.474D-01-0.842D-01
 Coeff:     -0.296D-01 0.909D-01 0.963D+00
 Gap=     0.361 Goal=   None    Shift=    0.000
 Gap=     0.258 Goal=   None    Shift=    0.000
 RMSDP=6.22D-07 MaxDP=3.09D-05 DE=-6.78D-08 OVMax= 1.86D-04

 Cycle  16  Pass 1  IDiag  1:
 RMSU=  1.36D-07    CP:  9.62D-01  9.19D-01  9.87D-01  1.85D+00  3.00D+00
                    CP:  3.00D+00  3.00D+00  3.00D+00  3.00D+00  3.00D+00
                    CP:  2.01D+00  3.00D+00  1.58D+00  1.48D+00  9.78D-01
 E= -232.935486656370     Delta-E=       -0.000000001278 Rises=F Damp=F
 DIIS: error= 5.81D-07 at cycle  16 NSaved=  16.
 NSaved=16 IEnMin=16 EnMin= -232.935486656370     IErMin=16 ErrMin= 5.81D-07
 ErrMax= 5.81D-07  0.00D+00 EMaxC= 1.00D-01 BMatC= 2.13D-10 BMatP= 2.38D-09
 IDIUse=1 WtCom= 1.00D+00 WtEn= 0.00D+00
 Coeff-Com: -0.177D-04 0.368D-04 0.175D-03 0.358D-03-0.120D-03-0.221D-02
 Coeff-Com: -0.100D-02 0.753D-02 0.362D-02-0.155D-01-0.571D-02 0.292D-01
 Coeff-Com: -0.753D-02-0.900D-01-0.107D+00 0.119D+01
 Coeff:     -0.177D-04 0.368D-04 0.175D-03 0.358D-03-0.120D-03-0.221D-02
 Coeff:     -0.100D-02 0.753D-02 0.362D-02-0.155D-01-0.571D-02 0.292D-01
 Coeff:     -0.753D-02-0.900D-01-0.107D+00 0.119D+01
 Gap=     0.361 Goal=   None    Shift=    0.000
 Gap=     0.258 Goal=   None    Shift=    0.000
 RMSDP=2.14D-07 MaxDP=9.68D-06 DE=-1.28D-09 OVMax= 5.64D-05

 Cycle  17  Pass 1  IDiag  1:
 RMSU=  4.80D-08    CP:  9.62D-01  9.19D-01  9.87D-01  1.85D+00  3.00D+00
                    CP:  3.00D+00  3.00D+00  3.00D+00  3.00D+00  3.00D+00
                    CP:  2.01D+00  3.00D+00  1.58D+00  1.49D+00  1.04D+00
                    CP:  1.32D+00
 E= -232.935486656648     Delta-E=       -0.000000000278 Rises=F Damp=F
 DIIS: error= 2.27D-07 at cycle  17 NSaved=  17.
 NSaved=17 IEnMin=17 EnMin= -232.935486656648     IErMin=17 ErrMin= 2.27D-07
 ErrMax= 2.27D-07  0.00D+00 EMaxC= 1.00D-01 BMatC= 7.35D-11 BMatP= 2.13D-10
 IDIUse=1 WtCom= 1.00D+00 WtEn= 0.00D+00
 Coeff-Com:  0.229D-06 0.123D-05 0.107D-04 0.233D-05-0.152D-03-0.136D-03
 Coeff-Com:  0.251D-04 0.157D-02 0.423D-03-0.481D-02-0.394D-02 0.137D-01
 Coeff-Com:  0.359D-02-0.227D-01-0.155D+00 0.134D+00 0.103D+01
 Coeff:      0.229D-06 0.123D-05 0.107D-04 0.233D-05-0.152D-03-0.136D-03
 Coeff:      0.251D-04 0.157D-02 0.423D-03-0.481D-02-0.394D-02 0.137D-01
 Coeff:      0.359D-02-0.227D-01-0.155D+00 0.134D+00 0.103D+01
 Gap=     0.361 Goal=   None    Shift=    0.000
 Gap=     0.258 Goal=   None    Shift=    0.000
 RMSDP=4.47D-08 MaxDP=1.83D-06 DE=-2.78D-10 OVMax= 7.92D-06

 Cycle  18  Pass 1  IDiag  1:
 RMSU=  1.97D-08    CP:  9.62D-01  9.19D-01  9.87D-01  1.85D+00  3.00D+00
                    CP:  3.00D+00  3.00D+00  3.00D+00  3.00D+00  3.00D+00
                    CP:  2.01D+00  3.00D+00  1.58D+00  1.49D+00  1.03D+00
                    CP:  1.48D+00  1.34D+00
 E= -232.935486656702     Delta-E=       -0.000000000054 Rises=F Damp=F
 DIIS: error= 1.35D-07 at cycle  18 NSaved=  18.
 NSaved=18 IEnMin=18 EnMin= -232.935486656702     IErMin=18 ErrMin= 1.35D-07
 ErrMax= 1.35D-07  0.00D+00 EMaxC= 1.00D-01 BMatC= 1.29D-11 BMatP= 7.35D-11
 IDIUse=1 WtCom= 1.00D+00 WtEn= 0.00D+00
 Coeff-Com:  0.177D-05-0.319D-05-0.698D-05-0.109D-04-0.476D-04 0.198D-03
 Coeff-Com: -0.239D-03-0.526D-03 0.767D-03 0.953D-03-0.911D-05-0.527D-02
 Coeff-Com:  0.256D-02 0.207D-01-0.343D-01-0.197D+00 0.232D+00 0.980D+00
 Coeff:      0.177D-05-0.319D-05-0.698D-05-0.109D-04-0.476D-04 0.198D-03
 Coeff:     -0.239D-03-0.526D-03 0.767D-03 0.953D-03-0.911D-05-0.527D-02
 Coeff:      0.256D-02 0.207D-01-0.343D-01-0.197D+00 0.232D+00 0.980D+00
 Gap=     0.361 Goal=   None    Shift=    0.000
 Gap=     0.258 Goal=   None    Shift=    0.000
 RMSDP=2.39D-08 MaxDP=8.83D-07 DE=-5.38D-11 OVMax= 3.56D-06

 Cycle  19  Pass 1  IDiag  1:
 RMSU=  8.69D-09    CP:  9.62D-01  9.19D-01  9.87D-01  1.85D+00  3.00D+00
                    CP:  3.00D+00  3.00D+00  3.00D+00  3.00D+00  3.00D+00
                    CP:  2.01D+00  3.00D+00  1.58D+00  1.49D+00  1.04D+00
                    CP:  1.51D+00  1.60D+00  1.37D+00
 E= -232.935486656711     Delta-E=       -0.000000000010 Rises=F Damp=F
 DIIS: error= 4.96D-08 at cycle  19 NSaved=  19.
 NSaved=19 IEnMin=19 EnMin= -232.935486656711     IErMin=19 ErrMin= 4.96D-08
 ErrMax= 4.96D-08  0.00D+00 EMaxC= 1.00D-01 BMatC= 3.57D-12 BMatP= 1.29D-11
 IDIUse=1 WtCom= 1.00D+00 WtEn= 0.00D+00
 Coeff-Com:  0.414D-06-0.128D-05-0.562D-05-0.960D-05 0.449D-04 0.866D-04
 Coeff-Com: -0.523D-04-0.561D-03 0.835D-04 0.121D-02 0.140D-02-0.451D-02
 Coeff-Com: -0.205D-03 0.964D-02 0.309D-01-0.754D-01-0.255D+00 0.260D+00
 Coeff-Com:  0.103D+01
 Coeff:      0.414D-06-0.128D-05-0.562D-05-0.960D-05 0.449D-04 0.866D-04
 Coeff:     -0.523D-04-0.561D-03 0.835D-04 0.121D-02 0.140D-02-0.451D-02
 Coeff:     -0.205D-03 0.964D-02 0.309D-01-0.754D-01-0.255D+00 0.260D+00
 Coeff:      0.103D+01
 Gap=     0.361 Goal=   None    Shift=    0.000
 Gap=     0.258 Goal=   None    Shift=    0.000
 RMSDP=1.58D-08 MaxDP=7.56D-07 DE=-9.61D-12 OVMax= 3.60D-06

 Cycle  20  Pass 1  IDiag  1:
 RMSU=  3.83D-09    CP:  9.62D-01  9.19D-01  9.87D-01  1.85D+00  3.00D+00
                    CP:  3.00D+00  3.00D+00  3.00D+00  3.00D+00  3.00D+00
                    CP:  2.01D+00  3.00D+00  1.58D+00  1.49D+00  1.04D+00
                    CP:  1.53D+00  1.71D+00  1.69D+00  1.34D+00
 E= -232.935486656720     Delta-E=       -0.000000000008 Rises=F Damp=F
 DIIS: error= 9.76D-09 at cycle  20 NSaved=  20.
 NSaved=20 IEnMin=20 EnMin= -232.935486656720     IErMin=20 ErrMin= 9.76D-09
 ErrMax= 9.76D-09  0.00D+00 EMaxC= 1.00D-01 BMatC= 1.58D-13 BMatP= 3.57D-12
 IDIUse=1 WtCom= 1.00D+00 WtEn= 0.00D+00
 Coeff-Com: -0.235D-06 0.379D-06 0.131D-05 0.331D-05 0.335D-05-0.200D-04
 Coeff-Com: -0.178D-04 0.221D-04 0.487D-04-0.196D-04 0.167D-03-0.218D-03
 Coeff-Com: -0.225D-03-0.134D-03 0.396D-02 0.177D-01-0.544D-01-0.530D-01
 Coeff-Com:  0.631D-01 0.102D+01
 Coeff:     -0.235D-06 0.379D-06 0.131D-05 0.331D-05 0.335D-05-0.200D-04
 Coeff:     -0.178D-04 0.221D-04 0.487D-04-0.196D-04 0.167D-03-0.218D-03
 Coeff:     -0.225D-03-0.134D-03 0.396D-02 0.177D-01-0.544D-01-0.530D-01
 Coeff:      0.631D-01 0.102D+01
 Gap=     0.361 Goal=   None    Shift=    0.000
 Gap=     0.258 Goal=   None    Shift=    0.000
 RMSDP=2.29D-09 MaxDP=8.99D-08 DE=-8.19D-12 OVMax= 3.14D-07

 SCF Done:  E(UM062X) =  -232.935486657     A.U. after   20 cycles
            NFock= 20  Conv=0.23D-08     -V/T= 2.0041
 <Sx>= 0.0000 <Sy>= 0.0000 <Sz>= 0.5000 <S**2>= 0.7554 S= 0.5027
 <L.S>= 0.000000000000E+00
 KE= 2.319893671024D+02 PE=-9.177078691895D+02 EE= 2.653799464579D+02
 Annihilation of the first spin contaminant:
 S**2 before annihilation     0.7554,   after     0.7500
 Leave Link  502 at Tue Apr  9 00:23:34 2019, MaxMem=   671088640 cpu:            1275.6 elap:              63.8
 (Enter /shared/centos7/gaussian/g16/l801.exe)
 DoSCS=F DFT=T ScalE2(SS,OS)=  1.000000  1.000000
 Range of M.O.s used for correlation:     1   251
 NBasis=   251 NAE=    21 NBE=    20 NFC=     0 NFV=     0
 NROrb=    251 NOA=    21 NOB=    20 NVA=   230 NVB=   231

 **** Warning!!: The largest alpha MO coefficient is  0.67344151D+02


 **** Warning!!: The largest beta MO coefficient is  0.69193077D+02

 Leave Link  801 at Tue Apr  9 00:23:34 2019, MaxMem=   671088640 cpu:               0.3 elap:               0.0
 (Enter /shared/centos7/gaussian/g16/l1101.exe)
 Using compressed storage, NAtomX=    14.
 Will process     15 centers per pass.
 Leave Link 1101 at Tue Apr  9 00:23:35 2019, MaxMem=   671088640 cpu:               7.0 elap:               0.4
 (Enter /shared/centos7/gaussian/g16/l1102.exe)
 Symmetrizing basis deriv contribution to polar:
 IMax=3 JMax=2 DiffMx= 0.00D+00
 Leave Link 1102 at Tue Apr  9 00:23:35 2019, MaxMem=   671088640 cpu:               0.5 elap:               0.0
 (Enter /shared/centos7/gaussian/g16/l1110.exe)
 Forming Gx(P) for the SCF density, NAtomX=    14.
 Integral derivatives from FoFJK, PRISM(SPDF).
 Do as many integral derivatives as possible in FoFJK.
 G2DrvN: MDV=     671087496.
 G2DrvN: will do    15 centers at a time, making    1 passes.
 Calling FoFCou, ICntrl=  3107 FMM=F I1Cent=   0 AccDes= 0.00D+00.
 FoFJK:  IHMeth= 1 ICntrl=    3107 DoSepK=F KAlg= 0 I1Cent=           0 FoldK=F
 IRaf=         0 NMat=       1 IRICut=       1 DoRegI=T DoRafI=F ISym2E= 0 IDoP0=0 IntGTp=1.
 FoFCou: FMM=F IPFlag=           0 FMFlag=      100000 FMFlg1=           0
         NFxFlg=           0 DoJE=F BraDBF=F KetDBF=F FulRan=T
         wScrn=  0.000000 ICntrl=      3107 IOpCl=  1 I1Cent=           0 NGrid=           0
         NMat0=    1 NMatS0=      1 NMatT0=    0 NMatD0=    1 NMtDS0=    0 NMtDT0=    0
 Symmetry not used in FoFCou.
 End of G2Drv F.D. properties file   721 does not exist.
 End of G2Drv F.D. properties file   722 does not exist.
 End of G2Drv F.D. properties file   788 does not exist.
 Leave Link 1110 at Tue Apr  9 00:25:02 2019, MaxMem=   671088640 cpu:            1754.2 elap:              87.7
 (Enter /shared/centos7/gaussian/g16/l1002.exe)
 Minotr:  UHF open shell wavefunction.
          IDoAtm=11111111111111
          Direct CPHF calculation.
          Differentiating once with respect to nuclear coordinates.
          Requested convergence is 1.0D-08 RMS, and 1.0D-07 maximum.
          Secondary convergence is 1.0D-12 RMS, and 1.0D-12 maximum.
          NewPWx=T KeepS1=F KeepF1=F KeepIn=T MapXYZ=F SortEE=F KeepMc=T.
         4243 words used for storage of precomputed grid.
 Two-electron integrals replicated using symmetry.
          MDV=     671088640 using IRadAn=       1.
          Solving linear equations simultaneously, MaxMat=     380.
 FoF2E skips out because all densities are zero.
 CalDSu exits because no D1Ps are significant.
 FoFJK:  IHMeth= 1 ICntrl=       0 DoSepK=F KAlg= 0 I1Cent=           0 FoldK=F
 IRaf= 990000000 NMat=      42 IRICut=     105 DoRegI=T DoRafI=T ISym2E= 2 IDoP0=3 IntGTp=3.
 FoFCou: FMM=F IPFlag=           0 FMFlag=      100000 FMFlg1=           0
         NFxFlg=           0 DoJE=F BraDBF=F KetDBF=F FulRan=T
         wScrn=  0.000000 ICntrl=         0 IOpCl=  1 I1Cent=           0 NGrid=           0
         NMat0=   42 NMatS0=     42 NMatT0=    0 NMatD0=   42 NMtDS0=    0 NMtDT0=    0
 Integrals replicated using symmetry in FoFCou.
 Raff kept on since  97.54% of shell-pairs survive, threshold=   0.20 IRatSp=98.
          There are    45 degrees of freedom in the 1st order CPHF.  IDoFFX=6 NUNeed=     0.
     39 vectors produced by pass  0 Test12= 2.10D-14 2.22D-09 XBig12= 1.21D-01 1.19D-01.
 AX will form    39 AO Fock derivatives at one time.
     39 vectors produced by pass  1 Test12= 2.10D-14 2.22D-09 XBig12= 6.57D-03 1.74D-02.
     39 vectors produced by pass  2 Test12= 2.10D-14 2.22D-09 XBig12= 4.54D-04 5.40D-03.
     39 vectors produced by pass  3 Test12= 2.10D-14 2.22D-09 XBig12= 6.83D-06 2.93D-04.
     39 vectors produced by pass  4 Test12= 2.10D-14 2.22D-09 XBig12= 7.66D-08 3.04D-05.
     39 vectors produced by pass  5 Test12= 2.10D-14 2.22D-09 XBig12= 9.78D-10 3.70D-06.
     39 vectors produced by pass  6 Test12= 2.10D-14 2.22D-09 XBig12= 7.61D-12 2.46D-07.
     14 vectors produced by pass  7 Test12= 2.10D-14 2.22D-09 XBig12= 4.25D-14 1.54D-08.
 InvSVY:  IOpt=1 It=  1 EMax= 2.55D-15
 Solved reduced A of dimension   287 with    39 vectors.
 End of Minotr F.D. properties file   721 does not exist.
 End of Minotr F.D. properties file   722 does not exist.
 End of Minotr F.D. properties file   788 does not exist.
 Leave Link 1002 at Tue Apr  9 00:27:21 2019, MaxMem=   671088640 cpu:            2767.5 elap:             138.4
 (Enter /shared/centos7/gaussian/g16/l601.exe)
 Copying SCF densities to generalized density rwf, IOpCl= 1 IROHF=0.

 **********************************************************************

            Population analysis using the SCF density.

 **********************************************************************

 Orbital symmetries:
 Alpha Orbitals:
       Occupied  (A) (A) (A) (A) (A) (A) (A) (A) (A) (A) (A) (A)
                 (A) (A) (A) (A) (A) (A) (A) (A) (A)
       Virtual   (A) (A) (A) (A) (A) (A) (A) (A) (A) (A) (A) (A)
                 (A) (A) (A) (A) (A) (A) (A) (A) (A) (A) (A) (A)
                 (A) (A) (A) (A) (A) (A) (A) (A) (A) (A) (A) (A)
                 (A) (A) (A) (A) (A) (A) (A) (A) (A) (A) (A) (A)
                 (A) (A) (A) (A) (A) (A) (A) (A) (A) (A) (A) (A)
                 (A) (A) (A) (A) (A) (A) (A) (A) (A) (A) (A) (A)
                 (A) (A) (A) (A) (A) (A) (A) (A) (A) (A) (A) (A)
                 (A) (A) (A) (A) (A) (A) (A) (A) (A) (A) (A) (A)
                 (A) (A) (A) (A) (A) (A) (A) (A) (A) (A) (A) (A)
                 (A) (A) (A) (A) (A) (A) (A) (A) (A) (A) (A) (A)
                 (A) (A) (A) (A) (A) (A) (A) (A) (A) (A) (A) (A)
                 (A) (A) (A) (A) (A) (A) (A) (A) (A) (A) (A) (A)
                 (A) (A) (A) (A) (A) (A) (A) (A) (A) (A) (A) (A)
                 (A) (A) (A) (A) (A) (A) (A) (A) (A) (A) (A) (A)
                 (A) (A) (A) (A) (A) (A) (A) (A) (A) (A) (A) (A)
                 (A) (A) (A) (A) (A) (A) (A) (A) (A) (A) (A) (A)
                 (A) (A) (A) (A) (A) (A) (A) (A) (A) (A) (A) (A)
                 (A) (A) (A) (A) (A) (A) (A) (A) (A) (A) (A) (A)
                 (A) (A) (A) (A) (A) (A) (A) (A) (A) (A) (A) (A)
                 (A) (A)
 Beta  Orbitals:
       Occupied  (A) (A) (A) (A) (A) (A) (A) (A) (A) (A) (A) (A)
                 (A) (A) (A) (A) (A) (A) (A) (A)
       Virtual   (A) (A) (A) (A) (A) (A) (A) (A) (A) (A) (A) (A)
                 (A) (A) (A) (A) (A) (A) (A) (A) (A) (A) (A) (A)
                 (A) (A) (A) (A) (A) (A) (A) (A) (A) (A) (A) (A)
                 (A) (A) (A) (A) (A) (A) (A) (A) (A) (A) (A) (A)
                 (A) (A) (A) (A) (A) (A) (A) (A) (A) (A) (A) (A)
                 (A) (A) (A) (A) (A) (A) (A) (A) (A) (A) (A) (A)
                 (A) (A) (A) (A) (A) (A) (A) (A) (A) (A) (A) (A)
                 (A) (A) (A) (A) (A) (A) (A) (A) (A) (A) (A) (A)
                 (A) (A) (A) (A) (A) (A) (A) (A) (A) (A) (A) (A)
                 (A) (A) (A) (A) (A) (A) (A) (A) (A) (A) (A) (A)
                 (A) (A) (A) (A) (A) (A) (A) (A) (A) (A) (A) (A)
                 (A) (A) (A) (A) (A) (A) (A) (A) (A) (A) (A) (A)
                 (A) (A) (A) (A) (A) (A) (A) (A) (A) (A) (A) (A)
                 (A) (A) (A) (A) (A) (A) (A) (A) (A) (A) (A) (A)
                 (A) (A) (A) (A) (A) (A) (A) (A) (A) (A) (A) (A)
                 (A) (A) (A) (A) (A) (A) (A) (A) (A) (A) (A) (A)
                 (A) (A) (A) (A) (A) (A) (A) (A) (A) (A) (A) (A)
                 (A) (A) (A) (A) (A) (A) (A) (A) (A) (A) (A) (A)
                 (A) (A) (A) (A) (A) (A) (A) (A) (A) (A) (A) (A)
                 (A) (A) (A)
 The electronic state is 2-A.
 Alpha  occ. eigenvalues --  -19.66161 -10.59193 -10.54379 -10.53711 -10.52474
 Alpha  occ. eigenvalues --   -1.15244  -0.90373  -0.81923  -0.72244  -0.65521
 Alpha  occ. eigenvalues --   -0.58336  -0.55580  -0.51661  -0.50502  -0.47172
 Alpha  occ. eigenvalues --   -0.45485  -0.44329  -0.41335  -0.38026  -0.35858
 Alpha  occ. eigenvalues --   -0.34834
 Alpha virt. eigenvalues --    0.01283   0.03184   0.03257   0.03944   0.05775
 Alpha virt. eigenvalues --    0.06606   0.06776   0.07421   0.07974   0.10640
 Alpha virt. eigenvalues --    0.10903   0.11388   0.12051   0.12869   0.14024
 Alpha virt. eigenvalues --    0.14953   0.17474   0.19477   0.22136   0.23158
 Alpha virt. eigenvalues --    0.23564   0.24413   0.25684   0.26428   0.26620
 Alpha virt. eigenvalues --    0.27477   0.30018   0.30299   0.30808   0.32703
 Alpha virt. eigenvalues --    0.32796   0.33818   0.38432   0.40730   0.43616
 Alpha virt. eigenvalues --    0.45431   0.46655   0.48260   0.49923   0.50239
 Alpha virt. eigenvalues --    0.51951   0.54200   0.56518   0.56884   0.57029
 Alpha virt. eigenvalues --    0.57926   0.60046   0.61235   0.62143   0.63047
 Alpha virt. eigenvalues --    0.64096   0.64400   0.65764   0.68640   0.70792
 Alpha virt. eigenvalues --    0.70836   0.76291   0.78465   0.81782   0.85702
 Alpha virt. eigenvalues --    0.86902   0.88890   0.91753   0.94839   0.97340
 Alpha virt. eigenvalues --    1.00250   1.00774   1.04206   1.05795   1.06594
 Alpha virt. eigenvalues --    1.10057   1.13068   1.14608   1.16798   1.17537
 Alpha virt. eigenvalues --    1.17931   1.19695   1.20852   1.22172   1.23337
 Alpha virt. eigenvalues --    1.24234   1.25834   1.29633   1.29976   1.31543
 Alpha virt. eigenvalues --    1.32166   1.35217   1.36363   1.36514   1.38744
 Alpha virt. eigenvalues --    1.40486   1.41848   1.43572   1.45198   1.47800
 Alpha virt. eigenvalues --    1.48647   1.50727   1.52395   1.52840   1.54147
 Alpha virt. eigenvalues --    1.55648   1.56423   1.60159   1.61743   1.64277
 Alpha virt. eigenvalues --    1.66664   1.70835   1.72529   1.78344   1.87980
 Alpha virt. eigenvalues --    2.09713   2.13514   2.20397   2.36839   2.40603
 Alpha virt. eigenvalues --    2.45580   2.52620   2.55574   2.58165   2.61250
 Alpha virt. eigenvalues --    2.67933   2.71501   2.75471   2.78375   2.80349
 Alpha virt. eigenvalues --    2.82450   2.85694   2.87206   2.90288   2.91311
 Alpha virt. eigenvalues --    2.99077   3.01143   3.06542   3.07966   3.08874
 Alpha virt. eigenvalues --    3.13375   3.14415   3.17690   3.18609   3.20292
 Alpha virt. eigenvalues --    3.22580   3.25301   3.26060   3.30638   3.31087
 Alpha virt. eigenvalues --    3.32856   3.36899   3.38639   3.41154   3.42958
 Alpha virt. eigenvalues --    3.45613   3.48967   3.51275   3.54452   3.55296
 Alpha virt. eigenvalues --    3.60679   3.61023   3.64414   3.68283   3.73308
 Alpha virt. eigenvalues --    3.74731   3.75328   3.77607   3.79862   3.82087
 Alpha virt. eigenvalues --    3.88017   3.89579   3.93136   3.95151   3.96959
 Alpha virt. eigenvalues --    3.99143   4.00374   4.04159   4.05077   4.09884
 Alpha virt. eigenvalues --    4.11085   4.13781   4.16059   4.17901   4.18053
 Alpha virt. eigenvalues --    4.21270   4.23904   4.25238   4.27113   4.30515
 Alpha virt. eigenvalues --    4.34094   4.34890   4.39533   4.41019   4.45015
 Alpha virt. eigenvalues --    4.47509   4.48990   4.49328   4.55619   4.57297
 Alpha virt. eigenvalues --    4.61596   4.66510   4.67845   4.71415   4.84906
 Alpha virt. eigenvalues --    4.98329   5.03437   5.10873   5.15296   5.19145
 Alpha virt. eigenvalues --    5.25286   5.27227   5.35153   5.37509   5.43265
 Alpha virt. eigenvalues --    5.46546   5.47630   5.51386   5.52730   5.56972
 Alpha virt. eigenvalues --    5.59999   5.63990   5.90718   5.91066   6.59272
 Alpha virt. eigenvalues --    6.83676   7.09764   7.22861   7.24215   7.55707
 Alpha virt. eigenvalues --   24.18874  24.33536  24.41262  24.50752  50.13466
  Beta  occ. eigenvalues --  -19.64685 -10.59240 -10.54341 -10.53714 -10.52353
  Beta  occ. eigenvalues --   -1.09686  -0.89786  -0.81115  -0.71187  -0.64443
  Beta  occ. eigenvalues --   -0.55857  -0.54219  -0.50940  -0.48648  -0.45491
  Beta  occ. eigenvalues --   -0.43187  -0.41531  -0.40203  -0.37559  -0.33776
  Beta virt. eigenvalues --   -0.07961   0.01324   0.03213   0.03307   0.04071
  Beta virt. eigenvalues --    0.05883   0.06649   0.06957   0.07525   0.08168
  Beta virt. eigenvalues --    0.10723   0.10953   0.11431   0.12193   0.13035
  Beta virt. eigenvalues --    0.14188   0.14963   0.17584   0.19641   0.22492
  Beta virt. eigenvalues --    0.23294   0.23600   0.24629   0.25856   0.26659
  Beta virt. eigenvalues --    0.27126   0.27488   0.30307   0.30582   0.31089
  Beta virt. eigenvalues --    0.32801   0.32988   0.34539   0.38674   0.40810
  Beta virt. eigenvalues --    0.43715   0.45611   0.46697   0.48306   0.50036
  Beta virt. eigenvalues --    0.50347   0.52056   0.54509   0.56691   0.56918
  Beta virt. eigenvalues --    0.57272   0.58213   0.60443   0.61096   0.62263
  Beta virt. eigenvalues --    0.63189   0.64159   0.64510   0.65838   0.68745
  Beta virt. eigenvalues --    0.70842   0.71073   0.76361   0.78551   0.81975
  Beta virt. eigenvalues --    0.85713   0.86950   0.88964   0.91963   0.94905
  Beta virt. eigenvalues --    0.97468   1.00447   1.00935   1.04525   1.06057
  Beta virt. eigenvalues --    1.06975   1.10405   1.13213   1.14970   1.17003
  Beta virt. eigenvalues --    1.17573   1.18371   1.19836   1.21162   1.22261
  Beta virt. eigenvalues --    1.23543   1.24574   1.26281   1.29991   1.30846
  Beta virt. eigenvalues --    1.31747   1.32407   1.35350   1.36661   1.37128
  Beta virt. eigenvalues --    1.38934   1.40601   1.42087   1.43811   1.45147
  Beta virt. eigenvalues --    1.47918   1.48896   1.50830   1.52541   1.52886
  Beta virt. eigenvalues --    1.54154   1.55645   1.56678   1.60218   1.62174
  Beta virt. eigenvalues --    1.64702   1.66916   1.71592   1.72700   1.79570
  Beta virt. eigenvalues --    1.89563   2.10540   2.14918   2.21522   2.37715
  Beta virt. eigenvalues --    2.40762   2.46134   2.53023   2.55499   2.58576
  Beta virt. eigenvalues --    2.61422   2.67972   2.71482   2.75615   2.78439
  Beta virt. eigenvalues --    2.80401   2.82750   2.85631   2.87084   2.90322
  Beta virt. eigenvalues --    2.91339   2.98951   3.01490   3.06635   3.08032
  Beta virt. eigenvalues --    3.08894   3.13339   3.14527   3.17623   3.18534
  Beta virt. eigenvalues --    3.20174   3.22634   3.25431   3.26100   3.30684
  Beta virt. eigenvalues --    3.31325   3.32971   3.36957   3.38513   3.41765
  Beta virt. eigenvalues --    3.43040   3.45503   3.49128   3.51312   3.54426
  Beta virt. eigenvalues --    3.55335   3.60063   3.60516   3.64803   3.68546
  Beta virt. eigenvalues --    3.73586   3.74870   3.75229   3.77692   3.79861
  Beta virt. eigenvalues --    3.82015   3.88333   3.89762   3.93242   3.95116
  Beta virt. eigenvalues --    3.96967   3.99276   4.00646   4.04322   4.05196
  Beta virt. eigenvalues --    4.09868   4.11058   4.13827   4.16206   4.17990
  Beta virt. eigenvalues --    4.18178   4.21276   4.23613   4.25058   4.27313
  Beta virt. eigenvalues --    4.30534   4.34124   4.35018   4.39511   4.41009
  Beta virt. eigenvalues --    4.44919   4.47608   4.49010   4.49411   4.55698
  Beta virt. eigenvalues --    4.57281   4.61451   4.66558   4.67990   4.71490
  Beta virt. eigenvalues --    4.84968   4.98781   5.04357   5.12898   5.19846
  Beta virt. eigenvalues --    5.21468   5.29097   5.30833   5.36737   5.38661
  Beta virt. eigenvalues --    5.44298   5.46747   5.48021   5.51777   5.53095
  Beta virt. eigenvalues --    5.57341   5.60696   5.64479   5.91192   5.94863
  Beta virt. eigenvalues --    6.60126   6.96726   7.21597   7.26976   7.36101
  Beta virt. eigenvalues --    7.62866  24.18880  24.33574  24.41166  24.50672
  Beta virt. eigenvalues --   50.13110
          Condensed to atoms (all electrons):
               1          2          3          4          5          6
     1  O    8.259359  -0.094708  -0.000233   0.045905   0.101608  -0.000363
     2  C   -0.094708   5.700682  -0.135492  -0.114187   0.058885   0.466371
     3  C   -0.000233  -0.135492   5.415289   0.142613   0.164588  -0.053087
     4  C    0.045905  -0.114187   0.142613   5.475293  -0.118522  -0.054182
     5  C    0.101608   0.058885   0.164588  -0.118522   5.232600  -0.003964
     6  H   -0.000363   0.466371  -0.053087  -0.054182  -0.003964   0.551960
     7  H   -0.001277   0.453249  -0.058970  -0.049699   0.018137  -0.032885
     8  H   -0.007889  -0.042357   0.456029  -0.008124  -0.044478   0.006059
     9  H    0.007209  -0.064779   0.468408   0.017574  -0.060160  -0.014531
    10  H    0.002473  -0.003067  -0.007386   0.386175   0.008348   0.002706
    11  H   -0.002969  -0.036813  -0.004789   0.417467   0.001250  -0.016907
    12  H   -0.038727  -0.038221   0.003733   0.396671   0.002744   0.005556
    13  H   -0.049893  -0.002422  -0.054198  -0.017532   0.460529   0.000248
    14  H   -0.034029   0.026714  -0.058182   0.000467   0.422696  -0.000176
               7          8          9         10         11         12
     1  O   -0.001277  -0.007889   0.007209   0.002473  -0.002969  -0.038727
     2  C    0.453249  -0.042357  -0.064779  -0.003067  -0.036813  -0.038221
     3  C   -0.058970   0.456029   0.468408  -0.007386  -0.004789   0.003733
     4  C   -0.049699  -0.008124   0.017574   0.386175   0.417467   0.396671
     5  C    0.018137  -0.044478  -0.060160   0.008348   0.001250   0.002744
     6  H   -0.032885   0.006059  -0.014531   0.002706  -0.016907   0.005556
     7  H    0.547683  -0.014528   0.002499  -0.013452   0.006334   0.002269
     8  H   -0.014528   0.522653  -0.030423   0.000413  -0.000486   0.001263
     9  H    0.002499  -0.030423   0.536818  -0.000344  -0.000035  -0.000507
    10  H   -0.013452   0.000413  -0.000344   0.547819  -0.023263  -0.030271
    11  H    0.006334  -0.000486  -0.000035  -0.023263   0.541409  -0.031570
    12  H    0.002269   0.001263  -0.000507  -0.030271  -0.031570   0.508547
    13  H   -0.000503   0.005645  -0.003529   0.000008  -0.000230  -0.000033
    14  H   -0.000230  -0.008238  -0.004322   0.000026  -0.000003  -0.000319
              13         14
     1  O   -0.049893  -0.034029
     2  C   -0.002422   0.026714
     3  C   -0.054198  -0.058182
     4  C   -0.017532   0.000467
     5  C    0.460529   0.422696
     6  H    0.000248  -0.000176
     7  H   -0.000503  -0.000230
     8  H    0.005645  -0.008238
     9  H   -0.003529  -0.004322
    10  H    0.000008   0.000026
    11  H   -0.000230  -0.000003
    12  H   -0.000033  -0.000319
    13  H    0.548292  -0.034290
    14  H   -0.034290   0.529402
          Atomic-Atomic Spin Densities.
               1          2          3          4          5          6
     1  O    0.932776  -0.018856   0.000886   0.007765  -0.044736  -0.001144
     2  C   -0.018856   0.078967  -0.042600  -0.090657   0.041695   0.005485
     3  C    0.000886  -0.042600   0.057577   0.035152  -0.012600   0.000797
     4  C    0.007765  -0.090657   0.035152   0.203516  -0.037205  -0.008437
     5  C   -0.044736   0.041695  -0.012600  -0.037205  -0.005183   0.002382
     6  H   -0.001144   0.005485   0.000797  -0.008437   0.002382   0.002932
     7  H   -0.001194   0.004147  -0.001488  -0.005629   0.001607   0.001216
     8  H   -0.000340  -0.002504   0.001326  -0.000952   0.003316   0.000191
     9  H    0.000252   0.001980   0.000333   0.001341  -0.002803  -0.000407
    10  H    0.002194  -0.003504  -0.000203   0.005826  -0.001200  -0.000353
    11  H    0.001178  -0.000027  -0.001564   0.001035  -0.000389   0.000277
    12  H   -0.047847   0.019518  -0.002858  -0.002830   0.020637   0.000408
    13  H   -0.000372  -0.000291   0.007987   0.000420  -0.002943   0.000274
    14  H   -0.015440  -0.003354  -0.011751   0.005453   0.016025  -0.000225
               7          8          9         10         11         12
     1  O   -0.001194  -0.000340   0.000252   0.002194   0.001178  -0.047847
     2  C    0.004147  -0.002504   0.001980  -0.003504  -0.000027   0.019518
     3  C   -0.001488   0.001326   0.000333  -0.000203  -0.001564  -0.002858
     4  C   -0.005629  -0.000952   0.001341   0.005826   0.001035  -0.002830
     5  C    0.001607   0.003316  -0.002803  -0.001200  -0.000389   0.020637
     6  H    0.001216   0.000191  -0.000407  -0.000353   0.000277   0.000408
     7  H    0.004125   0.000556  -0.000311  -0.000574  -0.000144   0.001053
     8  H    0.000556   0.001130  -0.000273  -0.000070  -0.000005   0.000566
     9  H   -0.000311  -0.000273  -0.002751   0.000031   0.000018  -0.000237
    10  H   -0.000574  -0.000070   0.000031  -0.000545   0.001007  -0.002409
    11  H   -0.000144  -0.000005   0.000018   0.001007  -0.006909   0.000460
    12  H    0.001053   0.000566  -0.000237  -0.002409   0.000460   0.006320
    13  H    0.000060   0.000220  -0.000606  -0.000034  -0.000248   0.001409
    14  H   -0.000130  -0.002045   0.001820   0.000040   0.000051  -0.002698
              13         14
     1  O   -0.000372  -0.015440
     2  C   -0.000291  -0.003354
     3  C    0.007987  -0.011751
     4  C    0.000420   0.005453
     5  C   -0.002943   0.016025
     6  H    0.000274  -0.000225
     7  H    0.000060  -0.000130
     8  H    0.000220  -0.002045
     9  H   -0.000606   0.001820
    10  H   -0.000034   0.000040
    11  H   -0.000248   0.000051
    12  H    0.001409  -0.002698
    13  H    0.004150  -0.004049
    14  H   -0.004049   0.088174
 Mulliken charges and spin densities:
               1          2
     1  O   -0.186466   0.815122
     2  C   -0.173855  -0.010001
     3  C   -0.278324   0.030996
     4  C   -0.519921   0.114800
     5  C   -0.244262  -0.021397
     6  H    0.143197   0.003396
     7  H    0.141375   0.003294
     8  H    0.164458   0.001115
     9  H    0.146123  -0.001613
    10  H    0.129816   0.000206
    11  H    0.150604  -0.005260
    12  H    0.218866  -0.008507
    13  H    0.147907   0.005977
    14  H    0.160483   0.071872
 Sum of Mulliken charges =  -0.00000   1.00000
 Mulliken charges and spin densities with hydrogens summed into heavy atoms:
               1          2
     1  O   -0.186466   0.815122
     2  C    0.110717  -0.003310
     3  C    0.032257   0.030497
     4  C   -0.020635   0.101239
     5  C    0.064127   0.056452
 APT charges:
               1
     1  O   -0.251010
     2  C   -0.897188
     3  C   -0.721124
     4  C   -0.984770
     5  C   -0.731253
     6  H    0.413252
     7  H    0.431049
     8  H    0.389859
     9  H    0.438035
    10  H    0.472555
    11  H    0.369447
    12  H    0.227131
    13  H    0.345211
    14  H    0.498804
 Sum of APT charges =  -0.00000
 APT charges with hydrogens summed into heavy atoms:
               1
     1  O   -0.251010
     2  C   -0.052887
     3  C    0.106771
     4  C    0.084364
     5  C    0.112762
 Electronic spatial extent (au):  <R**2>=            455.7839
 Charge=             -0.0000 electrons
 Dipole moment (field-independent basis, Debye):
    X=             -0.4740    Y=              1.8533    Z=              0.6177  Tot=              2.0102
 Quadrupole moment (field-independent basis, Debye-Ang):
   XX=            -32.4177   YY=            -34.6007   ZZ=            -32.6557
   XY=              2.9413   XZ=              0.9678   YZ=             -0.4387
 Traceless Quadrupole moment (field-independent basis, Debye-Ang):
   XX=              0.8070   YY=             -1.3760   ZZ=              0.5690
   XY=              2.9413   XZ=              0.9678   YZ=             -0.4387
 Octapole moment (field-independent basis, Debye-Ang**2):
  XXX=              8.5193  YYY=              0.0056  ZZZ=              0.0362  XYY=             -0.6158
  XXY=              2.5868  XXZ=             -0.7806  XZZ=              0.2153  YZZ=             -0.1208
  YYZ=              0.2280  XYZ=             -0.9620
 Hexadecapole moment (field-independent basis, Debye-Ang**3):
 XXXX=           -317.3514 YYYY=           -218.8849 ZZZZ=            -72.3583 XXXY=              4.2645
 XXXZ=              1.3016 YYYX=             -0.3667 YYYZ=              3.8422 ZZZX=             -0.5897
 ZZZY=             -1.5641 XXYY=            -93.3101 XXZZ=            -65.3372 YYZZ=            -47.3159
 XXYZ=              0.5974 YYXZ=              0.1661 ZZXY=             -1.0050
 N-N= 1.874030689726D+02 E-N=-9.177078693873D+02  KE= 2.319893671024D+02
  Exact polarizability:   0.000   0.000   0.000   0.000   0.000   0.000
 Approx polarizability:  67.064   0.839  64.111  -0.320   1.825  60.817
                          Isotropic Fermi Contact Couplings
        Atom                 a.u.       MegaHertz       Gauss      10(-4) cm-1
     1  O(17)              0.12367     -74.96930     -26.75091     -25.00707
     2  C(13)             -0.00260      -2.91857      -1.04142      -0.97353
     3  C(13)              0.01027      11.54143       4.11827       3.84981
     4  C(13)              0.04478      50.33860      17.96206      16.79115
     5  C(13)             -0.03041     -34.18815     -12.19918     -11.40394
     6  H(1)               0.00210       9.36905       3.34311       3.12518
     7  H(1)               0.00160       7.16061       2.55508       2.38852
     8  H(1)              -0.00029      -1.27877      -0.45630      -0.42655
     9  H(1)              -0.00059      -2.65242      -0.94645      -0.88475
    10  H(1)               0.00147       6.55897       2.34041       2.18784
    11  H(1)              -0.00109      -4.85245      -1.73147      -1.61860
    12  H(1)              -0.00017      -0.75986      -0.27114      -0.25346
    13  H(1)               0.00220       9.82245       3.50489       3.27642
    14  H(1)               0.03995     178.57540      63.72014      59.56634
 --------------------------------------------------------
       Center         ----  Spin Dipole Couplings  ----
                      3XX-RR        3YY-RR        3ZZ-RR
 --------------------------------------------------------
     1   Atom        3.178952     -1.632040     -1.546912
     2   Atom        0.013828     -0.002952     -0.010877
     3   Atom        0.037166     -0.002694     -0.034473
     4   Atom        0.113331     -0.048816     -0.064515
     5   Atom        0.006873      0.018177     -0.025050
     6   Atom        0.001234      0.000388     -0.001622
     7   Atom        0.002037     -0.000017     -0.002020
     8   Atom       -0.004484      0.004698     -0.000214
     9   Atom       -0.002775      0.007497     -0.004722
    10   Atom        0.009697     -0.006224     -0.003473
    11   Atom        0.002158     -0.010138      0.007980
    12   Atom        0.099575     -0.046555     -0.053020
    13   Atom       -0.009441     -0.002956      0.012397
    14   Atom       -0.001122      0.012516     -0.011394
 --------------------------------------------------------
                        XY            XZ            YZ
 --------------------------------------------------------
     1   Atom        0.611094     -0.808934     -0.112302
     2   Atom       -0.007157     -0.002302      0.000230
     3   Atom       -0.039387      0.012780     -0.005839
     4   Atom       -0.079567     -0.060669      0.025425
     5   Atom        0.005500     -0.006521      0.025996
     6   Atom       -0.003319     -0.001939      0.002141
     7   Atom       -0.003691      0.001763     -0.001716
     8   Atom       -0.004778      0.002245     -0.007577
     9   Atom       -0.002810      0.000129      0.004384
    10   Atom        0.004738      0.006174      0.006248
    11   Atom       -0.000512     -0.007987     -0.004605
    12   Atom        0.006050     -0.018419      0.004975
    13   Atom       -0.000028      0.000201      0.013612
    14   Atom        0.015962     -0.000892      0.004411
 --------------------------------------------------------


 ---------------------------------------------------------------------------------
              Anisotropic Spin Dipole Couplings in Principal Axis System
 ---------------------------------------------------------------------------------

       Atom             a.u.   MegaHertz   Gauss  10(-4) cm-1        Axes

              Baa    -1.7124   123.906    44.213    41.331 -0.0623  0.9406  0.3337
     1 O(17)  Bbb    -1.6781   121.423    43.327    40.502  0.1945 -0.3165  0.9285
              Bcc     3.3904  -245.329   -87.539   -81.833  0.9789  0.1228 -0.1632
 
              Baa    -0.0111    -1.492    -0.532    -0.498  0.1115  0.0698  0.9913
     2 C(13)  Bbb    -0.0055    -0.742    -0.265    -0.248  0.3341  0.9368 -0.1035
              Bcc     0.0166     2.234     0.797     0.745  0.9359 -0.3427 -0.0812
 
              Baa    -0.0368    -4.932    -1.760    -1.645 -0.2072 -0.0724  0.9756
     3 C(13)  Bbb    -0.0266    -3.571    -1.274    -1.191  0.4933  0.8534  0.1681
              Bcc     0.0634     8.503     3.034     2.836  0.8448 -0.5162  0.1412
 
              Baa    -0.0835   -11.209    -4.000    -3.739  0.1540 -0.3293  0.9316
     4 C(13)  Bbb    -0.0812   -10.896    -3.888    -3.634  0.4302  0.8711  0.2369
              Bcc     0.1647    22.105     7.888     7.373  0.8895 -0.3643 -0.2758
 
              Baa    -0.0387    -5.198    -1.855    -1.734  0.1780 -0.4230  0.8885
     5 C(13)  Bbb     0.0081     1.093     0.390     0.365  0.9792 -0.0127 -0.2023
              Bcc     0.0306     4.104     1.465     1.369  0.0969  0.9060  0.4120
 
              Baa    -0.0030    -1.601    -0.571    -0.534 -0.1252 -0.6148  0.7787
     6 H(1)   Bbb    -0.0023    -1.249    -0.446    -0.417  0.7194  0.4842  0.4980
              Bcc     0.0053     2.850     1.017     0.951  0.6832 -0.6226 -0.3817
 
              Baa    -0.0031    -1.653    -0.590    -0.551  0.2735  0.6970  0.6628
     7 H(1)   Bbb    -0.0025    -1.347    -0.481    -0.449 -0.6000 -0.4150  0.6839
              Bcc     0.0056     3.000     1.070     1.001  0.7518 -0.5847  0.3048
 
              Baa    -0.0069    -3.680    -1.313    -1.228  0.7436  0.5525  0.3766
     8 H(1)   Bbb    -0.0050    -2.647    -0.944    -0.883 -0.5959  0.2921  0.7480
              Bcc     0.0119     6.327     2.258     2.110 -0.3033  0.7807 -0.5464
 
              Baa    -0.0064    -3.433    -1.225    -1.145 -0.2928 -0.3403  0.8936
     9 H(1)   Bbb    -0.0030    -1.624    -0.579    -0.542  0.9325  0.1049  0.3455
              Bcc     0.0095     5.057     1.804     1.687 -0.2113  0.9345  0.2866
 
              Baa    -0.0112    -6.002    -2.141    -2.002  0.0108  0.7752 -0.6316
    10 H(1)   Bbb    -0.0032    -1.685    -0.601    -0.562 -0.5177  0.5447  0.6598
              Bcc     0.0144     7.687     2.743     2.564  0.8555  0.3198  0.4072
 
              Baa    -0.0117    -6.265    -2.236    -2.090  0.2074  0.9307  0.3013
    11 H(1)   Bbb    -0.0023    -1.247    -0.445    -0.416  0.8115 -0.3356  0.4783
              Bcc     0.0141     7.513     2.681     2.506 -0.5463 -0.1453  0.8249
 
              Baa    -0.0580   -30.968   -11.050   -10.330  0.1207 -0.4474  0.8862
    12 H(1)   Bbb    -0.0439   -23.435    -8.362    -7.817  0.0199  0.8936  0.4484
              Bcc     0.1020    54.403    19.413    18.147  0.9925  0.0365 -0.1168
 
              Baa    -0.0109    -5.825    -2.079    -1.943  0.0850  0.8601 -0.5029
    13 H(1)   Bbb    -0.0094    -5.032    -1.796    -1.679  0.9964 -0.0761  0.0382
              Bcc     0.0203    10.857     3.874     3.622  0.0054  0.5043  0.8635
 
              Baa    -0.0148    -7.916    -2.824    -2.640  0.5562 -0.4384  0.7060
    14 H(1)   Bbb    -0.0085    -4.543    -1.621    -1.515 -0.6303  0.3311  0.7022
              Bcc     0.0233    12.458     4.445     4.156  0.5416  0.8355  0.0922
 

 ---------------------------------------------------------------------------------

 No NMR shielding tensors so no spin-rotation constants.
 Leave Link  601 at Tue Apr  9 00:27:21 2019, MaxMem=   671088640 cpu:               8.6 elap:               0.5
 (Enter /shared/centos7/gaussian/g16/l701.exe)
 SCFChk:  SCF convergence  2.29D-09 required  1.00D-08
 ... and contract with generalized density number  0.
 Compute integral second derivatives.
 Entering OneElI...
 Calculate overlap and kinetic energy integrals
    NBasis = 276  MinDer = 2  MaxDer = 2
 Requested accuracy = 0.1000D-12
 PrmmSu-InSpLW:  IPartL=    0 NPrtUS=   20 NPrtUL=    1 DoSpLW=F IThBeg=    0 IThEnd=   19 NThAct=   20.
 PrsmSu:  NPrtUS=  20 ThrOK=T IAlg=1 NPAlg=1 LenDen=           0 ISkipM=0 DoSpLW=F IThBeg=    0 IThEnd=   19.
 Prism:   IPart=     0 DynPar=F LinDyn=F Incr=           1.
 PRISM was handed    33455963 working-precision words and  3655 shell-pairs
 PRISM was handed    33455963 working-precision words and  3655 shell-pairs
 PRISM was handed    33455963 working-precision words and  3655 shell-pairs
 PRISM was handed    33455963 working-precision words and  3655 shell-pairs
 PRISM was handed    33455963 working-precision words and  3655 shell-pairs
 PRISM was handed    33455963 working-precision words and  3655 shell-pairs
 PRISM was handed    33455963 working-precision words and  3655 shell-pairs
 PRISM was handed    33455963 working-precision words and  3655 shell-pairs
 PRISM was handed    33455963 working-precision words and  3655 shell-pairs
 PRISM was handed    33455963 working-precision words and  3655 shell-pairs
 PRISM was handed    33455963 working-precision words and  3655 shell-pairs
 PRISM was handed    33455963 working-precision words and  3655 shell-pairs
 PRISM was handed    33455963 working-precision words and  3655 shell-pairs
 PRISM was handed    33455963 working-precision words and  3655 shell-pairs
 PRISM was handed    33455963 working-precision words and  3655 shell-pairs
 PRISM was handed    33455963 working-precision words and  3655 shell-pairs
 PRISM was handed    33455963 working-precision words and  3655 shell-pairs
 PRISM was handed    33455963 working-precision words and  3655 shell-pairs
 PRISM was handed    33455963 working-precision words and  3655 shell-pairs
 PRISM was handed    33455963 working-precision words and  3655 shell-pairs
 IPart=  1 NShTot=         209 NBatch=          49 AvBLen=         4.3
 IPart=  4 NShTot=         200 NBatch=          43 AvBLen=         4.7
 IPart=  3 NShTot=         205 NBatch=          47 AvBLen=         4.4
 IPart=  2 NShTot=         206 NBatch=          48 AvBLen=         4.3
 IPart=  8 NShTot=         188 NBatch=          38 AvBLen=         4.9
 IPart=  9 NShTot=         187 NBatch=          37 AvBLen=         5.1
 IPart=  7 NShTot=         189 NBatch=          39 AvBLen=         4.8
 IPart=  6 NShTot=         190 NBatch=          39 AvBLen=         4.9
 IPart=  5 NShTot=         193 NBatch=          39 AvBLen=         4.9
 IPart= 10 NShTot=         174 NBatch=          35 AvBLen=         5.0
 IPart= 12 NShTot=         170 NBatch=          33 AvBLen=         5.2
 IPart= 15 NShTot=         165 NBatch=          31 AvBLen=         5.3
 IPart=  0 NShTot=         212 NBatch=          52 AvBLen=         4.1
 IPart= 13 NShTot=         170 NBatch=          33 AvBLen=         5.2
 IPart= 11 NShTot=         173 NBatch=          35 AvBLen=         4.9
 IPart= 16 NShTot=         165 NBatch=          31 AvBLen=         5.3
 IPart= 14 NShTot=         170 NBatch=          33 AvBLen=         5.2
 IPart= 19 NShTot=         162 NBatch=          29 AvBLen=         5.6
 IPart= 18 NShTot=         162 NBatch=          29 AvBLen=         5.6
 IPart= 17 NShTot=         165 NBatch=          31 AvBLen=         5.3
 PrSmSu:  NxtVal=             21.
 Entering OneElI...
 Calculate potential energy integrals
    NBasis = 276  MinDer = 2  MaxDer = 2
 Requested accuracy = 0.1000D-12
 PrmmSu-InSpLW:  IPartL=    0 NPrtUS=   20 NPrtUL=    1 DoSpLW=F IThBeg=    0 IThEnd=   19 NThAct=   20.
 PrsmSu:  NPrtUS=  20 ThrOK=T IAlg=1 NPAlg=1 LenDen=           0 ISkipM=0 DoSpLW=F IThBeg=    0 IThEnd=   19.
 Prism:   IPart=     0 DynPar=F LinDyn=F Incr=          24.
 PRISM was handed    33468147 working-precision words and  3546 shell-pairs
 PRISM was handed    33468147 working-precision words and  3546 shell-pairs
 PRISM was handed    33468147 working-precision words and  3546 shell-pairs
 PRISM was handed    33468147 working-precision words and  3546 shell-pairs
 PRISM was handed    33468147 working-precision words and  3546 shell-pairs
 PRISM was handed    33468147 working-precision words and  3546 shell-pairs
 PRISM was handed    33468147 working-precision words and  3546 shell-pairs
 PRISM was handed    33468147 working-precision words and  3546 shell-pairs
 PRISM was handed    33468147 working-precision words and  3546 shell-pairs
 PRISM was handed    33468147 working-precision words and  3546 shell-pairs
 PRISM was handed    33468147 working-precision words and  3546 shell-pairs
 PRISM was handed    33468147 working-precision words and  3546 shell-pairs
 PRISM was handed    33468147 working-precision words and  3546 shell-pairs
 PRISM was handed    33468147 working-precision words and  3546 shell-pairs
 PRISM was handed    33468147 working-precision words and  3546 shell-pairs
[...]
 ! D3    D(4,2,3,9)            179.0709         -DE/DX =    0.0                 !
 ! D4    D(6,2,3,5)             62.313          -DE/DX =    0.0                 !
 ! D5    D(6,2,3,8)           -177.0116         -DE/DX =    0.0                 !
 ! D6    D(6,2,3,9)            -58.5565         -DE/DX =    0.0                 !
 ! D7    D(7,2,3,5)            177.7802         -DE/DX =    0.0                 !
 ! D8    D(7,2,3,8)            -61.5445         -DE/DX =    0.0                 !
 ! D9    D(7,2,3,9)             56.9107         -DE/DX =    0.0                 !
 ! D10   D(3,2,4,10)          -177.1176         -DE/DX =    0.0                 !
 ! D11   D(3,2,4,11)            62.7812         -DE/DX =    0.0                 !
 ! D12   D(3,2,4,12)           -56.6798         -DE/DX =    0.0                 !
 ! D13   D(6,2,4,10)            60.889          -DE/DX =    0.0                 !
 ! D14   D(6,2,4,11)           -59.2122         -DE/DX =    0.0                 !
 ! D15   D(6,2,4,12)          -178.6733         -DE/DX =    0.0                 !
 ! D16   D(7,2,4,10)           -55.4531         -DE/DX =    0.0                 !
 ! D17   D(7,2,4,11)          -175.5543         -DE/DX =    0.0                 !
 ! D18   D(7,2,4,12)            64.9847         -DE/DX =    0.0                 !
 ! D19   D(2,3,5,1)             74.5099         -DE/DX =    0.0                 !
 ! D20   D(2,3,5,13)           -53.2229         -DE/DX =    0.0                 !
 ! D21   D(2,3,5,14)          -170.4278         -DE/DX =    0.0                 !
 ! D22   D(8,3,5,1)            -47.4215         -DE/DX =    0.0                 !
 ! D23   D(8,3,5,13)          -175.1543         -DE/DX =    0.0                 !
 ! D24   D(8,3,5,14)            67.6408         -DE/DX =    0.0                 !
 ! D25   D(9,3,5,1)           -163.9358         -DE/DX =    0.0                 !
 ! D26   D(9,3,5,13)            68.3314         -DE/DX =    0.0                 !
 ! D27   D(9,3,5,14)           -48.8736         -DE/DX =    0.0                 !
 --------------------------------------------------------------------------------
 GradGradGradGradGradGradGradGradGradGradGradGradGradGradGradGradGradGrad

 Leave Link  103 at Tue Apr  9 00:54:13 2019, MaxMem=   671088640 cpu:               0.5 elap:               0.1
 (Enter /shared/centos7/gaussian/g16/l9999.exe)

 ----------------------------------------------------------------------

 Electric dipole moment (input orientation):
 (Debye = 10**-18 statcoulomb cm , SI units = C m)
                  (au)            (Debye)         (10**-30 SI)
   Tot        0.813092D+00      0.206667D+01      0.689368D+01
   x         -0.452483D+00     -0.115010D+01     -0.383631D+01
   y         -0.585346D+00     -0.148780D+01     -0.496277D+01
   z          0.337265D+00      0.857242D+00      0.285945D+01

 Dipole polarizability, Alpha (input orientation).
 (esu units = cm**3 , SI units = C**2 m**2 J**-1)
 Alpha(0;0):
               (au)            (10**-24 esu)      (10**-40 SI)
   iso        0.538307D+02      0.797689D+01      0.887549D+01
   aniso      0.884227D+01      0.131029D+01      0.145789D+01
   xx         0.560720D+02      0.830902D+01      0.924503D+01
   yx         0.733847D+00      0.108745D+00      0.120995D+00
   yy         0.533547D+02      0.790635D+01      0.879700D+01
   zx         0.328692D+01      0.487071D+00      0.541940D+00
   zy        -0.324602D+01     -0.481010D+00     -0.535196D+00
   zz         0.520656D+02      0.771532D+01      0.858445D+01

 ----------------------------------------------------------------------

 Dipole orientation:
     8         -2.46255960         -0.25068159         -3.78577590
     6          1.80786517         -0.05757236          0.27055929
     6         -0.76583287         -1.36213805          0.33836418
     6          2.91213845          0.15340343         -2.38217173
     6         -2.74374004          0.03526896         -1.23076806
     1          1.62742993          1.82652945          1.09951533
     1          3.11121320         -1.10124777          1.48193817
     1         -0.61240827         -3.28742104         -0.38940419
     1         -1.43652745         -1.48114407          2.28603800
     1          4.78534184          1.00625287         -2.33669573
     1          1.72380726          1.31391465         -3.60499660
     1          3.06817779         -1.70248124         -3.26369388
     1         -2.87144336          2.03857449         -0.69459163
     1         -4.62544716         -0.79010939         -0.85896775

 Electric dipole moment (dipole orientation):
 (Debye = 10**-18 statcoulomb cm , SI units = C m)
                  (au)            (Debye)         (10**-30 SI)
   Tot        0.813092D+00      0.206667D+01      0.689368D+01
   x          0.000000D+00      0.000000D+00      0.000000D+00
   y          0.000000D+00      0.000000D+00      0.000000D+00
   z          0.813092D+00      0.206667D+01      0.689368D+01

 Dipole polarizability, Alpha (dipole orientation).
 (esu units = cm**3 , SI units = C**2 m**2 J**-1)
 Alpha(0;0):
               (au)            (10**-24 esu)      (10**-40 SI)
   iso        0.538307D+02      0.797689D+01      0.887549D+01
   aniso      0.884227D+01      0.131029D+01      0.145789D+01
   xx         0.581693D+02      0.861980D+01      0.959082D+01
   yx         0.151957D+00      0.225177D-01      0.250543D-01
   yy         0.483394D+02      0.716316D+01      0.797009D+01
   zx        -0.470459D-01     -0.697148D-02     -0.775682D-02
   zy        -0.939750D+00     -0.139257D+00     -0.154944D+00
   zz         0.549835D+02      0.814772D+01      0.906556D+01

 ----------------------------------------------------------------------

 Test job not archived.
 1\1\GINC-C0207\Freq\UM062X\6-311+G(2df,2p)\C4H9O1(2)\UNDERKOFFLER.C\09
 -Apr-2019\0\\#P Geom=AllCheck Guess=TCheck SCRF=Check Test GenChk UM06
 2X/6-311+G(2df,2p) Freq\\Gaussian input prepared by ASE\\0,2\O,0.13453
 57191,1.727153619,-1.6516607664\C,0.6762211097,-0.3932774788,0.5698450
 493\C,-0.2120852815,-0.4709140434,-0.6701698402\C,1.8822426421,0.52257
 11927,0.3931379035\C,-0.776949613,0.8918318154,-1.0647081213\H,0.07519
 94887,-0.0502348792,1.4164232458\H,1.0146086377,-1.4000379002,0.821964
 8868\H,0.3541441767,-0.8622665923,-1.5181798722\H,-1.0450418838,-1.152
 2967971,-0.485503075\H,2.5153319876,0.5105437042,1.2796486091\H,1.5772
 59966,1.5556360963,0.2168856985\H,2.484432113,0.2126716676,-0.46141327
 27\H,-1.2878176287,1.3784816069,-0.2214546915\H,-1.5405521622,0.755381
 8459,-1.8516660368\\Version=EM64L-G16RevA.03\State=2-A\HF=-232.9583833
 \S2=0.754423\S2-1=0.\S2A=0.750015\RMSD=6.153e-09\RMSF=4.461e-07\ZeroPo
 int=0.1241862\Thermal=0.130375\Dipole=-0.4524833,-0.5853462,0.337265\D
 ipoleDeriv=-0.159767,-0.0215966,0.0552338,0.0253715,-0.261278,0.077452
 6,-0.0139654,0.0464224,-0.350561,0.1199995,0.0031591,-0.0052173,0.0223
 631,0.0142932,0.059786,-0.0103757,-0.0094184,0.1061834,0.1077657,-0.00
 15753,-0.0303035,-0.0148954,0.111994,-0.0356208,0.0176064,0.0656459,0.
 0487342,-0.0004304,-0.0296517,-0.017771,-0.0878791,0.0516586,-0.037648
 1,-0.0446258,0.0204211,0.0366309,0.0095136,-0.0254753,-0.0651695,0.015
 2529,0.0507273,0.0018041,-0.0965303,-0.1422642,0.4315441,-0.0602554,0.
 0050836,0.0921192,0.0152852,0.0325789,-0.0729196,0.0605622,-0.0312252,
 -0.0814273,0.0024796,0.0595721,-0.0501863,0.0269194,-0.1220398,0.05705
 32,-0.034794,0.0615781,0.0181256,-0.000342,0.067867,0.0617115,0.035649
 1,0.0201841,-0.0231078,0.0325646,-0.0501272,-0.0742761,-0.1001722,-0.1
 012582,-0.0135921,-0.0620847,-0.0499145,0.0245575,-0.0071505,0.0409212
 ,0.035739,-0.0380067,-0.0273977,-0.0962964,0.0028924,0.0590923,0.01959
 29,-0.1210356,-0.0038434,-0.0660107,0.0037946,0.0762191,-0.0090149,0.0
 512978,-0.1018405,0.0496416,0.0106157,0.0383002,0.0586408,-0.0018781,-
 0.0060879,0.0564336,0.0171749,0.0343733,-0.0556889,0.1057154,-0.037405
 4,-0.0478495,0.0336099,0.0214441,0.0642855,0.0013364,0.011748,-0.06331
 73,0.1647219,-0.0705771,-0.0754533,0.083689,-0.0203023,-0.0422326,-0.0
 486835,0.1484231,-0.0015854,-0.0633088,0.071572,-0.0400201\Polar=56.07
 20161,0.7338471,53.3546707,3.2869187,-3.2460155,52.0655542\Quadrupole=
 1.8779052,-1.5147527,-0.3631526,-0.3948085,1.0715306,1.6127285\PG=C01 
 [X(C4H9O1)]\NImag=0\\0.17094911,0.12300618,0.16265194,-0.09520611,-0.0
 8663422,0.10657871,0.00015793,-0.00146202,0.00069775,0.50424176,0.0012
 9923,0.00542400,-0.00289874,-0.04919113,0.56751914,0.00002808,-0.00076
 132,0.00120660,-0.03916799,0.00028396,0.52633721,0.00050932,-0.0302661
 1,0.00950180,-0.11508823,-0.00522229,-0.05083022,0.55248984,-0.0085850
 6,-0.04195513,0.01832239,-0.00505169,-0.07771379,-0.00557559,0.0396395
 5,0.50617828,-0.00297670,0.01431660,-0.00113937,-0.05129569,-0.0060743
 7,-0.15766563,-0.06597591,0.01623229,0.52984496,-0.00081187,0.00074660
 ,-0.00154456,-0.15393142,-0.05656590,0.01362507,-0.02069070,-0.0135895
 8,-0.00136542,0.51473307,0.00198085,-0.00025090,0.00046689,-0.05669119
 ,-0.12442081,0.01029192,-0.00288589,-0.00129208,-0.00241727,-0.0440579
 2,0.53528037,-0.00007652,0.00033601,-0.00238475,0.01546964,0.01145513,
 -0.08238509,-0.02465230,-0.01891723,0.00339861,0.01297083,0.00670481,0
 .58094695,-0.10990373,-0.07243681,0.06416270,-0.01086104,0.01932665,-0
 .00805053,-0.08323899,0.04510716,-0.00593553,-0.00012558,-0.00037275,-
 0.00114000,0.42360095,-0.08886943,-0.11697225,0.05371011,0.00527414,-0
 .00917912,0.00493489,0.03764224,-0.13631258,0.02680142,0.00070177,0.00
 339399,0.00030194,0.00090178,0.41136690,0.08689376,0.06813599,-0.10155
 096,-0.01353523,0.02815749,-0.01118947,-0.00394171,0.01609386,-0.08478
 128,0.00101923,-0.00009390,0.00139621,-0.02353002,0.01433541,0.5487219
 9,-0.00004160,0.00034118,0.00019348,-0.12539942,0.04714287,0.10933443,
 0.01021998,-0.00653261,-0.01703700,-0.01625978,0.00796849,0.02083876,0
 .00124263,-0.00134448,-0.00023614,0.13937949,0.00007435,-0.00024188,-0
 .00000100,0.04734573,-0.07588540,-0.06368075,0.00101745,-0.00158607,-0
 .00167529,-0.01325722,0.00640256,0.01732413,-0.00089120,0.00089061,0.0
 0118539,-0.04770573,0.08000204,0.00034911,0.00017552,-0.00006657,0.108
 77888,-0.06271779,-0.19945202,0.01417517,-0.00967064,-0.02424451,0.002
 04293,-0.00049836,-0.00233219,0.00055113,-0.00065904,0.00082648,-0.117
 70362,0.07046005,0.21956016,-0.00033930,-0.00059668,0.00029845,-0.0728
 9380,0.07805297,-0.01727834,-0.00738569,0.01756296,-0.00426669,0.00766
 831,-0.02787669,0.00591784,-0.00143912,0.00002604,-0.00364420,-0.00636
 960,0.01627464,-0.00418129,0.08213175,0.00012258,-0.00022704,0.0001527
 4,0.07794913,-0.27028888,0.05376360,-0.00094493,0.00224073,-0.00133487
 ,0.00472652,-0.01929082,0.00379529,-0.00057492,0.00235991,-0.00052097,
 0.00353182,-0.00987491,0.00166187,-0.08127455,0.29420729,0.00015230,-0
 .00106667,0.00048800,-0.01641405,0.05329476,-0.06064207,-0.01029484,0.
 02588225,-0.00831886,-0.00123514,0.00342516,-0.00102869,-0.00331530,0.
 00020725,-0.00390652,0.00797963,-0.02371060,0.00592160,0.02222705,-0.0
 5865958,0.06515510,0.00150354,-0.00179563,-0.00107973,0.01011752,-0.00
 786644,-0.01656050,-0.12054483,0.04906266,0.10688552,0.00197116,0.0001
 9404,-0.00041680,-0.00895400,0.00507866,0.01130810,-0.00182502,-0.0006
 6389,-0.00396323,0.00079049,0.00010319,0.00102201,0.12986634,-0.000423
 18,0.00400377,-0.00038655,0.00056124,-0.00043660,-0.00043543,0.0467647
 4,-0.07990304,-0.07143348,0.00056925,-0.00024922,-0.00034608,0.0173111
 0,-0.01487785,-0.02434599,0.00016582,0.00080963,-0.00014690,-0.0003910
 5,0.00022344,0.00013426,-0.05576069,0.08676558,-0.00072942,-0.00048261
 ,0.00051114,0.01369263,-0.00969390,-0.02299305,0.10719622,-0.07320430,
 -0.20414682,0.00126794,0.00059083,0.00122097,-0.00472814,0.00365209,0.
 00643096,-0.00395936,0.00005189,-0.00349298,0.00020963,0.00050564,0.00
 076803,-0.11411426,0.07835436,0.22393095,0.00096984,0.00317529,-0.0009
 2395,-0.01477775,-0.01128492,0.00412212,-0.20017112,-0.12456522,0.0374
 9025,-0.00101214,0.00091603,-0.00456986,0.00823992,0.00850387,-0.00384
 356,0.00094185,-0.00002908,-0.00018075,0.00005541,0.00044438,0.0003812
 0,-0.01244712,-0.01049442,0.00225728,0.21743860,-0.00076983,-0.0061771
 7,0.00222261,-0.00015390,-0.00142232,-0.00004951,-0.12482121,-0.149540
 24,0.02793343,0.00000791,0.00111182,-0.00044510,-0.01839788,-0.0187623
 5,0.00650397,-0.00011314,-0.00010473,0.00002986,0.00019011,0.00056680,
 -0.00021854,0.00937051,0.00840086,-0.00131636,0.13584262,0.16144057,0.
 00020167,0.00394735,-0.00014078,-0.02265336,-0.01847631,0.00465146,0.0
 3718030,0.02800960,-0.05533523,-0.00243736,0.00077216,-0.00498290,0.00
 512461,0.00447912,-0.00352065,0.00088721,-0.00027131,0.00095367,0.0006
 7616,0.00036998,0.00110178,0.01754220,0.01618379,-0.00377190,-0.035780
 74,-0.03350036,0.06036794,-0.00008441,0.00024047,-0.00000492,-0.014688
 91,0.00150656,-0.02191668,-0.00381980,-0.00355426,0.00255354,-0.135597
 63,0.00360759,-0.12619138,0.00101043,-0.00093984,0.00041501,0.00037791
 ,0.00091236,0.00021437,0.00121979,0.00007988,0.00012976,0.00014488,-0.
 00005904,-0.00006710,-0.00090384,-0.00027434,-0.00146331,0.14691709,-0
 .00018413,0.00004820,0.00060249,-0.01184406,-0.00058191,-0.01852356,-0
 .00336247,-0.00253966,0.00168689,0.00445494,-0.04618871,0.00472027,0.0
 0044467,-0.00067797,0.00006754,0.00059634,0.00061838,0.00038292,0.0007
 7854,0.00052244,-0.00047645,0.00017485,0.00003546,0.00029095,-0.001044
 61,0.00009325,-0.00092262,-0.00089644,0.04835923,-0.00008950,0.0000842
 9,-0.00059839,0.00438221,-0.00015438,0.00501933,0.00108737,0.00018998,
 0.00072026,-0.12708565,0.00375945,-0.22897772,-0.00048602,0.00067322,0
 .00014885,-0.00050017,-0.00042715,0.00039227,-0.00032393,-0.00054672,0
 .00023653,0.00014781,0.00018904,0.00032206,0.00001505,0.00035322,0.000
 19014,0.13908165,-0.00522096,0.24566894,0.00033373,-0.00008345,-0.0013
 4792,0.00865660,-0.02663972,0.00436563,0.00210026,-0.00052818,0.000079
 22,-0.07008183,0.07312577,-0.01221131,-0.00293173,0.00202017,-0.000543
 92,0.00136806,0.00084967,-0.00001719,-0.00434817,-0.00403287,0.0002563
 7,-0.00008838,-0.00004390,-0.00003192,0.00008316,0.00052208,0.00016467
 ,-0.00603041,0.01761143,-0.00163238,0.07635067,-0.00090629,-0.00010191
 ,0.00081890,0.00531100,-0.01902459,0.00315765,0.00066747,0.00047349,0.
 00033350,0.07335896,-0.28193831,0.03881175,0.00106301,-0.00065104,-0.0
 0069209,-0.00008026,0.00087954,0.00012360,-0.00373454,-0.00071776,0.00
 054543,-0.00012431,-0.00002318,-0.00003642,-0.00012336,0.00024870,0.00
 002475,0.00010004,0.00050064,0.00011152,-0.07750625,0.30792049,-0.0006
 1371,0.00007751,-0.00114636,-0.00095984,0.00488915,-0.00193442,0.00040
 608,-0.00104865,0.00010190,-0.01234460,0.03859885,-0.05304500,-0.00108
 524,0.00025648,0.00044558,-0.00034669,0.00023187,-0.00001342,0.0008334
 0,0.00035704,0.00066327,0.00007311,-0.00003842,0.00000353,0.00000478,0
 .00015027,-0.00007353,-0.00737149,0.02578981,-0.00380460,0.01396700,-0
 .04402000,0.05446719,-0.00001791,0.00018786,0.00020087,-0.01624635,0.0
 0798636,0.02094186,0.00088734,0.00134888,0.00131258,-0.12637933,0.0434
 9023,0.11350747,0.00028012,-0.00077109,-0.00008353,-0.00355012,-0.0040
 1450,0.00030803,0.00099164,0.00002611,-0.00036664,-0.00022108,-0.00028
 351,-0.00091529,0.00052332,-0.00024896,-0.00014056,0.01159787,-0.00640
 716,-0.01481841,-0.00578426,0.00261624,0.00718659,0.13799533,0.0001449
 5,-0.00030165,-0.00051522,-0.01252166,0.00658368,0.01752093,0.00099830
 ,0.00056687,0.00031115,0.04383217,-0.07079613,-0.06267861,-0.00084340,
 0.00114758,0.00010382,-0.00401232,-0.00200500,0.00036972,0.00090898,0.
 00074557,0.00019416,0.00025889,-0.00006642,-0.00039431,0.00025669,0.00
 003231,0.00011096,-0.00105280,-0.00080044,0.00140313,0.01611772,-0.008
 57557,-0.02491305,-0.04430066,0.07422516,-0.00016512,0.00009241,-0.000
 02998,0.00173198,-0.00060314,-0.00321937,-0.00072555,0.00025186,0.0013
 0410,0.11452793,-0.06255794,-0.21248849,0.00007612,0.00010520,-0.00007
 216,-0.00010015,0.00073175,0.00112653,0.00009071,0.00030754,-0.0001648
 6,0.00053835,-0.00011858,0.00038539,-0.00002745,0.00011624,0.00009664,
 0.01469875,-0.00801417,-0.01951126,-0.00382120,0.00145295,0.00443190,-
 0.12684280,0.06818590,0.22817293,-0.02797315,-0.00455206,0.02986343,0.
 00035580,-0.00048291,0.00125256,-0.00537912,0.00845778,0.00964852,0.00
 006305,0.00018435,0.00002935,-0.07972878,0.05287964,0.07359811,-0.0000
 9725,0.00007517,-0.00048181,0.00024155,-0.00018955,-0.00009113,-0.0001
 3073,0.00225389,-0.00025820,-0.00008815,0.00009398,0.00004815,-0.00005
 905,-0.00017565,0.00007295,-0.00006580,-0.00029465,0.00015995,0.000088
 40,0.00004068,0.00002529,0.10460002,-0.01157262,0.00848124,0.02079020,
 -0.00115885,0.00231147,-0.00113445,0.01617399,-0.01491527,-0.02441534,
 -0.00023588,-0.00058155,-0.00050700,0.04230112,-0.09808317,-0.08307742
 ,0.00016666,0.00018567,0.00083158,-0.00054237,0.00001824,-0.00027406,0
 .00211112,-0.00529106,0.00222456,-0.00091607,0.00142747,-0.00029541,0.
 00019623,0.00035623,-0.00023390,-0.00060304,0.00057153,-0.00009096,0.0
 0010936,-0.00046878,0.00005744,-0.05112948,0.11069808,0.01238778,0.006
 97108,-0.01133018,-0.00012308,-0.00063405,0.00133126,-0.00754722,0.005
 89277,0.00734540,0.00024125,0.00049075,0.00056555,0.08513506,-0.095051
 04,-0.19035412,0.00048874,-0.00013373,0.00040542,0.00024920,0.00014687
 ,0.00038690,-0.00150050,0.00219516,0.00029710,0.00082726,-0.00197024,0
 .00039399,-0.00007436,-0.00020698,0.00020194,0.00060957,-0.00036146,-0
 .00005383,-0.00023402,0.00032342,-0.00003352,-0.09726946,0.09143827,0.
 20786595,-0.03525150,-0.01650484,-0.00481127,0.00035729,0.00193870,0.0
 0013451,-0.00988826,0.00122762,-0.00911670,0.00045470,0.00041709,0.000
 52428,-0.13719107,-0.02110346,-0.12387588,0.00001288,0.00001226,0.0001
 0826,-0.00032324,0.00003320,-0.00043121,-0.00018277,-0.00017023,0.0001
 7999,0.00114802,-0.00124795,0.00065036,-0.00008391,-0.00014625,0.00014
 903,0.00043811,-0.00034705,0.00009067,-0.00016496,0.00017245,-0.000006
 86,0.00817321,0.00509983,0.00680977,0.17250152,-0.01531760,-0.01438121
 ,-0.00665061,0.00163326,-0.00288488,0.00020766,0.02459915,-0.00370151,
 0.01973535,-0.00069163,-0.00118021,-0.00055531,-0.03293853,-0.02364265
 ,-0.02585309,-0.00012463,-0.00009043,-0.00034238,0.00062164,-0.0004850
 1,0.00072262,-0.00014296,0.00060863,-0.00054241,-0.00068119,0.00268505
 ,-0.00043173,0.00013360,0.00025486,-0.00018075,-0.00080943,0.00043798,
 -0.00023989,0.00026084,-0.00028720,-0.00000746,-0.00716118,-0.00471011
 ,-0.00910082,0.03061864,0.04737670,-0.00015563,-0.00519192,0.00960288,
 -0.00060385,0.00317220,0.00093527,-0.00557917,-0.00245859,-0.00708352,
 0.00031755,0.00046664,0.00009653,-0.10677884,-0.01374706,-0.16259491,0
 .00016088,-0.00008525,0.00041555,-0.00080800,0.00000157,-0.00066021,0.
 00011793,0.00019482,0.00053461,0.00022837,0.00019051,0.00006937,-0.000
 00383,-0.00017614,-0.00000835,0.00016339,-0.00027008,-0.00004221,-0.00
 005615,-0.00002200,0.00000214,-0.01659771,-0.00531351,-0.01702187,0.12
 959505,0.02323882,0.17575472\\0.00000015,0.00000014,0.00000021,-0.0000
 0010,-0.00000006,0.,0.00000045,-0.00000018,-0.00000036,-0.00000033,0.0
 0000038,0.00000058,0.00000011,0.,-0.00000044,-0.00000054,-0.00000041,-
 0.00000018,0.00000011,0.,-0.00000008,0.00000082,0.00000022,-0.00000022
 ,0.00000049,-0.00000043,-0.00000081,-0.00000066,0.00000039,0.00000084,
 -0.00000059,0.00000026,0.00000069,0.00000008,0.00000069,0.00000080,-0.
 00000040,-0.00000060,-0.00000035,0.00000040,-0.00000039,-0.00000068\\\
 @


 THE WORLD IS MADE UP OF THE WILLS, THE WON'TS, AND THE CANT'S:
 THE WILLS DO EVERYTHING,
 THE WON'TS DO NOTHING,
 THE CAN'TS CAN'T DO ANYTHING.

                               -- FROM WALT DISNEY'S "BLACK HOLE"
 Job cpu time:       0 days  1 hours 48 minutes 58.4 seconds.
 Elapsed time:       0 days  0 hours  5 minutes 27.7 seconds.
 File lengths (MBytes):  RWF=   1376 Int=      0 D2E=      0 Chk=     32 Scr=     32
 Normal termination of Gaussian 16 at Tue Apr  9 00:54:13 2019.
