 Entering Gaussian System, Link 0=g16
 Input=QOOQLKSEGVNYLA-UHFFFAOYSA-N_36by10.0_tor13_a1.com
 Output=QOOQLKSEGVNYLA-UHFFFAOYSA-N_36by10.0_tor13_a1.log
 Initial command:
 /shared/centos7/gaussian/g16/l1.exe "/scratch/underkoffler.c/gaussian_scratch/Gau-37609.inp" -scrdir="/scratch/underkoffler.c/gaussian_scratch/"
 Entering Link 1 = /shared/centos7/gaussian/g16/l1.exe PID=     37610.
  
 Copyright (c) 1988,1990,1992,1993,1995,1998,2003,2009,2016,
            Gaussian, Inc.  All Rights Reserved.
  
 This is part of the Gaussian(R) 16 program.  It is based on
 the Gaussian(R) 09 system (copyright 2009, Gaussian, Inc.),
 the Gaussian(R) 03 system (copyright 2003, Gaussian, Inc.),
 the Gaussian(R) 98 system (copyright 1998, Gaussian, Inc.),
 the Gaussian(R) 94 system (copyright 1995, Gaussian, Inc.),
 the Gaussian 92(TM) system (copyright 1992, Gaussian, Inc.),
 the Gaussian 90(TM) system (copyright 1990, Gaussian, Inc.),
 the Gaussian 88(TM) system (copyright 1988, Gaussian, Inc.),
 the Gaussian 86(TM) system (copyright 1986, Carnegie Mellon
 University), and the Gaussian 82(TM) system (copyright 1983,
 Carnegie Mellon University). Gaussian is a federally registered
 trademark of Gaussian, Inc.
  
 This software contains proprietary and confidential information,
 including trade secrets, belonging to Gaussian, Inc.
  
 This software is provided under written license and may be
 used, copied, transmitted, or stored only in accord with that
 written license.
  
 The following legend is applicable only to US Government
 contracts under FAR:
  
                    RESTRICTED RIGHTS LEGEND
  
 Use, reproduction and disclosure by the US Government is
 subject to restrictions as set forth in subparagraphs (a)
 and (c) of the Commercial Computer Software - Restricted
 Rights clause in FAR 52.227-19.
  
 Gaussian, Inc.
 340 Quinnipiac St., Bldg. 40, Wallingford CT 06492
  
  
 ---------------------------------------------------------------
 Warning -- This program may not be used in any manner that
 competes with the business of Gaussian, Inc. or will provide
 assistance to any competitor of Gaussian, Inc.  The licensee
 of this program is prohibited from giving any competitor of
 Gaussian, Inc. access to this program.  By using this program,
 the user acknowledges that Gaussian, Inc. is engaged in the
 business of creating and licensing software in the field of
 computational chemistry and represents and warrants to the
 licensee that it is not a competitor of Gaussian, Inc. and that
 it will not use this program in any manner prohibited above.
 ---------------------------------------------------------------
  

 Cite this work as:
 Gaussian 16, Revision A.03,
 M. J. Frisch, G. W. Trucks, H. B. Schlegel, G. E. Scuseria, 
 M. A. Robb, J. R. Cheeseman, G. Scalmani, V. Barone, 
 G. A. Petersson, H. Nakatsuji, X. Li, M. Caricato, A. V. Marenich, 
 J. Bloino, B. G. Janesko, R. Gomperts, B. Mennucci, H. P. Hratchian, 
 J. V. Ortiz, A. F. Izmaylov, J. L. Sonnenberg, D. Williams-Young, 
 F. Ding, F. Lipparini, F. Egidi, J. Goings, B. Peng, A. Petrone, 
 T. Henderson, D. Ranasinghe, V. G. Zakrzewski, J. Gao, N. Rega, 
 G. Zheng, W. Liang, M. Hada, M. Ehara, K. Toyota, R. Fukuda, 
 J. Hasegawa, M. Ishida, T. Nakajima, Y. Honda, O. Kitao, H. Nakai, 
 T. Vreven, K. Throssell, J. A. Montgomery, Jr., J. E. Peralta, 
 F. Ogliaro, M. J. Bearpark, J. J. Heyd, E. N. Brothers, K. N. Kudin, 
 V. N. Staroverov, T. A. Keith, R. Kobayashi, J. Normand, 
 K. Raghavachari, A. P. Rendell, J. C. Burant, S. S. Iyengar, 
 J. Tomasi, M. Cossi, J. M. Millam, M. Klene, C. Adamo, R. Cammi, 
 J. W. Ochterski, R. L. Martin, K. Morokuma, O. Farkas, 
 J. B. Foresman, and D. J. Fox, Gaussian, Inc., Wallingford CT, 2016.
 
 ******************************************
 Gaussian 16:  EM64L-G16RevA.03 25-Dec-2016
                11-Apr-2019 
 ******************************************
 %nprocshared=20
 Will use up to   20 processors via shared memory.
 %mem=5GB
 ----------------------------------------------
 #p m062x/6-311+g(2df,2p) Opt=(CalcFC,ModRedun)
 ----------------------------------------------
 1/10=4,18=120,19=15,26=3,38=1/1,3;
 2/9=110,12=2,17=6,18=5,40=1/2;
 3/5=4,6=6,7=214,11=2,25=1,30=1,71=2,74=-55,140=1/1,2,3;
 4//1;
 5/5=2,38=5/2;
 8/6=4,10=90,11=11/1;
 11/6=1,8=1,9=11,15=111,16=1/1,2,10;
 10/6=1,13=1/2;
 6/7=2,8=2,9=2,10=2,28=1/1;
 7/10=1,18=20,25=1/1,2,3,16;
 1/10=4,18=20,19=15,26=3/3(2);
 2/9=110/2;
 99//99;
 2/9=110/2;
 3/5=4,6=6,7=214,11=2,25=1,30=1,71=1,74=-55/1,2,3;
 4/5=5,16=3,69=1/1;
 5/5=2,38=5/2;
 7//1,2,3,16;
 1/18=20,19=15,26=3/3(-5);
 2/9=110/2;
 6/7=2,8=2,9=2,10=2,19=2,28=1/1;
 99/9=1/99;
 Leave Link    1 at Thu Apr 11 15:58:52 2019, MaxMem=   671088640 cpu:              25.4 elap:               1.3
 (Enter /shared/centos7/gaussian/g16/l101.exe)
 ----------------------------------------
 Gaussian Input Prepared from Scan Object
 ----------------------------------------
 Symbolic Z-matrix:
 Charge =  0 Multiplicity = 2
 O                     1.45279   0.98873  -0.09195 
 C                    -1.26405  -0.52061   0.23158 
 C                     0.05616  -1.01588  -0.36799 
 C                    -1.57494   0.90347  -0.06859 
 C                     1.28721  -0.37097   0.25466 
 H                    -2.07559  -1.15391  -0.15389 
 H                    -1.25629  -0.68206   1.31304 
 H                     0.0686   -0.8294   -1.44473 
 H                     0.12646  -2.0964   -0.22566 
 H                    -2.21      1.48014   0.58739 
 H                    -1.40845   1.28705  -1.06611 
 H                     0.66894   1.47433   0.18198 
 H                     1.25185  -0.49033   1.3448 
 H                     2.18589  -0.87535  -0.09915 
 
 The following ModRedundant input section has been read:
 B       4      11 B                                                           
 B       4      12 B                                                           
 B       3       8 B                                                           
 B       3       9 B                                                           
 B       2       3 B                                                           
 B       5      14 B                                                           
 B       3       5 B                                                           
 B       2       7 B                                                           
 B       1       5 B                                                           
 B       2       4 B                                                           
 B       2       6 B                                                           
 B       5      13 B                                                           
 B       4      10 B                                                           
 D       7       2       4      12 S  36 10.000                                
 
 ITRead=  0  0  0  0  0  0  0  0  0  0  0  0  0  0
 MicOpt= -1 -1 -1 -1 -1 -1 -1 -1 -1 -1 -1 -1 -1 -1
 NAtoms=     14 NQM=       14 NQMF=       0 NMMI=      0 NMMIF=      0
                NMic=       0 NMicF=      0.
                    Isotopes and Nuclear Properties:
 (Nuclear quadrupole moments (NQMom) in fm**2, nuclear magnetic moments (NMagM)
  in nuclear magnetons)

  Atom         1           2           3           4           5           6           7           8           9          10
 IAtWgt=          16          12          12          12          12           1           1           1           1           1
 AtmWgt=  15.9949146  12.0000000  12.0000000  12.0000000  12.0000000   1.0078250   1.0078250   1.0078250   1.0078250   1.0078250
 NucSpn=           0           0           0           0           0           1           1           1           1           1
 AtZEff=  -0.0000000  -0.0000000  -0.0000000  -0.0000000  -0.0000000  -0.0000000  -0.0000000  -0.0000000  -0.0000000  -0.0000000
 NQMom=    0.0000000   0.0000000   0.0000000   0.0000000   0.0000000   0.0000000   0.0000000   0.0000000   0.0000000   0.0000000
 NMagM=    0.0000000   0.0000000   0.0000000   0.0000000   0.0000000   2.7928460   2.7928460   2.7928460   2.7928460   2.7928460
 AtZNuc=   8.0000000   6.0000000   6.0000000   6.0000000   6.0000000   1.0000000   1.0000000   1.0000000   1.0000000   1.0000000

  Atom        11          12          13          14
 IAtWgt=           1           1           1           1
 AtmWgt=   1.0078250   1.0078250   1.0078250   1.0078250
 NucSpn=           1           1           1           1
 AtZEff=  -0.0000000  -0.0000000  -0.0000000  -0.0000000
 NQMom=    0.0000000   0.0000000   0.0000000   0.0000000
 NMagM=    2.7928460   2.7928460   2.7928460   2.7928460
 AtZNuc=   1.0000000   1.0000000   1.0000000   1.0000000
 Leave Link  101 at Thu Apr 11 15:58:52 2019, MaxMem=   671088640 cpu:               7.1 elap:               0.4
 (Enter /shared/centos7/gaussian/g16/l103.exe)

 GradGradGradGradGradGradGradGradGradGradGradGradGradGradGradGradGradGrad
 Berny optimization.
 Initialization pass.
                           ----------------------------
                           !    Initial Parameters    !
                           ! (Angstroms and Degrees)  !
 --------------------------                            --------------------------
 ! Name  Definition              Value          Derivative Info.                !
 --------------------------------------------------------------------------------
 ! R1    R(1,5)                  1.4129         calculate D2E/DX2 analytically  !
 ! R2    R(1,12)                 0.9619         calculate D2E/DX2 analytically  !
 ! R3    R(2,3)                  1.5322         calculate D2E/DX2 analytically  !
 ! R4    R(2,4)                  1.4882         calculate D2E/DX2 analytically  !
 ! R5    R(2,6)                  1.0992         calculate D2E/DX2 analytically  !
 ! R6    R(2,7)                  1.0935         calculate D2E/DX2 analytically  !
 ! R7    R(3,5)                  1.5229         calculate D2E/DX2 analytically  !
 ! R8    R(3,8)                  1.0928         calculate D2E/DX2 analytically  !
 ! R9    R(3,9)                  1.0921         calculate D2E/DX2 analytically  !
 ! R10   R(4,10)                 1.0799         calculate D2E/DX2 analytically  !
 ! R11   R(4,11)                 1.0816         calculate D2E/DX2 analytically  !
 ! R12   R(4,12)                 2.3289         calculate D2E/DX2 analytically  !
 ! R13   R(5,13)                 1.0972         calculate D2E/DX2 analytically  !
 ! R14   R(5,14)                 1.0896         calculate D2E/DX2 analytically  !
 ! A1    A(5,1,12)             108.6914         calculate D2E/DX2 analytically  !
 ! A2    A(3,2,4)              114.2283         calculate D2E/DX2 analytically  !
 ! A3    A(3,2,6)              108.2207         calculate D2E/DX2 analytically  !
 ! A4    A(3,2,7)              109.461          calculate D2E/DX2 analytically  !
 ! A5    A(4,2,6)              109.0477         calculate D2E/DX2 analytically  !
 ! A6    A(4,2,7)              110.0148         calculate D2E/DX2 analytically  !
 ! A7    A(6,2,7)              105.4856         calculate D2E/DX2 analytically  !
 ! A8    A(2,3,5)              113.5559         calculate D2E/DX2 analytically  !
 ! A9    A(2,3,8)              109.8888         calculate D2E/DX2 analytically  !
 ! A10   A(2,3,9)              108.9214         calculate D2E/DX2 analytically  !
 ! A11   A(5,3,8)              108.7464         calculate D2E/DX2 analytically  !
 ! A12   A(5,3,9)              108.2805         calculate D2E/DX2 analytically  !
 ! A13   A(8,3,9)              107.2471         calculate D2E/DX2 analytically  !
 ! A14   A(2,4,10)             120.7519         calculate D2E/DX2 analytically  !
 ! A15   A(2,4,11)             119.5529         calculate D2E/DX2 analytically  !
 ! A16   A(2,4,12)              90.6639         calculate D2E/DX2 analytically  !
 ! A17   A(10,4,11)            117.4747         calculate D2E/DX2 analytically  !
 ! A18   A(10,4,12)            111.7376         calculate D2E/DX2 analytically  !
 ! A19   A(11,4,12)             82.1832         calculate D2E/DX2 analytically  !
 ! A20   A(1,5,3)              113.7015         calculate D2E/DX2 analytically  !
 ! A21   A(1,5,13)             110.6216         calculate D2E/DX2 analytically  !
 ! A22   A(1,5,14)             105.6143         calculate D2E/DX2 analytically  !
 ! A23   A(3,5,13)             109.5181         calculate D2E/DX2 analytically  !
 ! A24   A(3,5,14)             109.7516         calculate D2E/DX2 analytically  !
 ! A25   A(13,5,14)            107.3882         calculate D2E/DX2 analytically  !
 ! A26   A(1,12,4)             129.1061         calculate D2E/DX2 analytically  !
 ! D1    D(12,1,5,3)            58.1788         calculate D2E/DX2 analytically  !
 ! D2    D(12,1,5,13)          -65.536          calculate D2E/DX2 analytically  !
 ! D3    D(12,1,5,14)          178.5701         calculate D2E/DX2 analytically  !
 ! D4    D(5,1,12,4)           -44.4696         calculate D2E/DX2 analytically  !
 ! D5    D(4,2,3,5)             67.6478         calculate D2E/DX2 analytically  !
 ! D6    D(4,2,3,8)            -54.3952         calculate D2E/DX2 analytically  !
 ! D7    D(4,2,3,9)           -171.6098         calculate D2E/DX2 analytically  !
 ! D8    D(6,2,3,5)           -170.6903         calculate D2E/DX2 analytically  !
 ! D9    D(6,2,3,8)             67.2667         calculate D2E/DX2 analytically  !
 ! D10   D(6,2,3,9)            -49.9479         calculate D2E/DX2 analytically  !
 ! D11   D(7,2,3,5)            -56.2061         calculate D2E/DX2 analytically  !
 ! D12   D(7,2,3,8)           -178.2492         calculate D2E/DX2 analytically  !
 ! D13   D(7,2,3,9)             64.5363         calculate D2E/DX2 analytically  !
 ! D14   D(3,2,4,10)          -154.4714         calculate D2E/DX2 analytically  !
 ! D15   D(3,2,4,11)            42.8825         calculate D2E/DX2 analytically  !
 ! D16   D(3,2,4,12)           -38.5029         calculate D2E/DX2 analytically  !
 ! D17   D(6,2,4,10)            84.323          calculate D2E/DX2 analytically  !
 ! D18   D(6,2,4,11)           -78.3231         calculate D2E/DX2 analytically  !
 ! D19   D(6,2,4,12)          -159.7086         calculate D2E/DX2 analytically  !
 ! D20   D(7,2,4,10)           -30.9153         calculate D2E/DX2 analytically  !
 ! D21   D(7,2,4,11)           166.4386         calculate D2E/DX2 analytically  !
 ! D22   D(7,2,4,12)            85.0531         Scan                            !
 ! D23   D(2,3,5,1)            -70.8934         calculate D2E/DX2 analytically  !
 ! D24   D(2,3,5,13)            53.4187         calculate D2E/DX2 analytically  !
 ! D25   D(2,3,5,14)           171.0749         calculate D2E/DX2 analytically  !
 ! D26   D(8,3,5,1)             51.7816         calculate D2E/DX2 analytically  !
 ! D27   D(8,3,5,13)           176.0937         calculate D2E/DX2 analytically  !
 ! D28   D(8,3,5,14)           -66.2501         calculate D2E/DX2 analytically  !
 ! D29   D(9,3,5,1)            168.0041         calculate D2E/DX2 analytically  !
 ! D30   D(9,3,5,13)           -67.6838         calculate D2E/DX2 analytically  !
 ! D31   D(9,3,5,14)            49.9724         calculate D2E/DX2 analytically  !
 ! D32   D(2,4,12,1)            38.9795         calculate D2E/DX2 analytically  !
 ! D33   D(10,4,12,1)          162.6987         calculate D2E/DX2 analytically  !
 ! D34   D(11,4,12,1)          -80.7757         calculate D2E/DX2 analytically  !
 --------------------------------------------------------------------------------
 Trust Radius=3.00D-01 FncErr=1.00D-07 GrdErr=1.00D-06 EigMax=2.50D+02 EigMin=1.00D-04
 Number of optimizations in scan=  37
 Number of steps in this run=     84 maximum allowed number of steps=    100.
 GradGradGradGradGradGradGradGradGradGradGradGradGradGradGradGradGradGrad

 Leave Link  103 at Thu Apr 11 15:58:52 2019, MaxMem=   671088640 cpu:               0.6 elap:               0.1
 (Enter /shared/centos7/gaussian/g16/l202.exe)
                          Input orientation:                          
 ---------------------------------------------------------------------
 Center     Atomic      Atomic             Coordinates (Angstroms)
 Number     Number       Type             X           Y           Z
 ---------------------------------------------------------------------
      1          8           0        1.452787    0.988727   -0.091948
      2          6           0       -1.264052   -0.520605    0.231582
      3          6           0        0.056160   -1.015879   -0.367991
      4          6           0       -1.574935    0.903466   -0.068593
      5          6           0        1.287210   -0.370966    0.254656
      6          1           0       -2.075593   -1.153910   -0.153891
      7          1           0       -1.256293   -0.682063    1.313040
      8          1           0        0.068601   -0.829401   -1.444732
      9          1           0        0.126461   -2.096398   -0.225663
     10          1           0       -2.209997    1.480141    0.587394
     11          1           0       -1.408454    1.287053   -1.066113
     12          1           0        0.668943    1.474334    0.181976
     13          1           0        1.251846   -0.490330    1.344802
     14          1           0        2.185891   -0.875346   -0.099152
 ---------------------------------------------------------------------
                    Distance matrix (angstroms):
                    1          2          3          4          5
     1  O    0.000000
     2  C    3.124735   0.000000
     3  C    2.458702   1.532235   0.000000
     4  C    3.029013   1.488198   2.536532   0.000000
     5  C    1.412911   2.555751   1.522855   3.149690   0.000000
     6  H    4.128462   1.099210   2.146919   2.119134   3.476831
     7  H    3.479173   1.093471   2.158664   2.127050   2.772430
     8  H    2.655483   2.163642   1.092841   2.756411   2.140816
     9  H    3.360806   2.150749   1.092118   3.452333   2.134282
    10  H    3.757523   2.241517   3.504046   1.079896   3.970865
    11  H    3.037219   2.229909   2.817084   1.081620   3.429295
    12  H    0.961904   2.778257   2.622809   2.328877   1.947478
    13  H    2.071772   2.751348   2.153956   3.454135   1.097231
    14  H    2.003064   3.483868   2.151228   4.160399   1.089590
                    6          7          8          9         10
     6  H    0.000000
     7  H    1.745216   0.000000
     8  H    2.523716   3.063064   0.000000
     9  H    2.396347   2.505985   1.759193   0.000000
    10  H    2.739670   2.472091   3.828254   4.348761   0.000000
    11  H    2.689892   3.092076   2.608529   3.809207   1.847658
    12  H    3.814833   3.104172   2.883364   3.634637   2.907352
    13  H    3.709214   2.515658   3.049023   2.512431   4.054723
    14  H    4.270930   3.725624   2.509107   2.397546   5.034232
                   11         12         13         14
    11  H    0.000000
    12  H    2.430716   0.000000
    13  H    4.006095   2.356235   0.000000
    14  H    4.304684   2.810900   1.762294   0.000000
 Stoichiometry    C4H9O(2)
 Framework group  C1[X(C4H9O)]
 Deg. of freedom    36
 Full point group                 C1      NOp   1
 Largest Abelian subgroup         C1      NOp   1
 Largest concise Abelian subgroup C1      NOp   1
                         Standard orientation:                         
 ---------------------------------------------------------------------
 Center     Atomic      Atomic             Coordinates (Angstroms)
 Number     Number       Type             X           Y           Z
 ---------------------------------------------------------------------
      1          8           0        1.452787    0.988728   -0.091948
      2          6           0       -1.264052   -0.520605    0.231582
      3          6           0        0.056160   -1.015879   -0.367991
      4          6           0       -1.574935    0.903466   -0.068593
      5          6           0        1.287210   -0.370966    0.254656
      6          1           0       -2.075593   -1.153910   -0.153891
      7          1           0       -1.256293   -0.682062    1.313040
      8          1           0        0.068601   -0.829401   -1.444732
      9          1           0        0.126461   -2.096398   -0.225663
     10          1           0       -2.209997    1.480141    0.587394
     11          1           0       -1.408454    1.287053   -1.066113
     12          1           0        0.668943    1.474334    0.181976
     13          1           0        1.251846   -0.490329    1.344802
     14          1           0        2.185891   -0.875346   -0.099152
 ---------------------------------------------------------------------
 Rotational constants (GHZ):           7.5427715           3.8012000           2.8243885
 Leave Link  202 at Thu Apr 11 15:58:53 2019, MaxMem=   671088640 cpu:               0.9 elap:               0.1
 (Enter /shared/centos7/gaussian/g16/l301.exe)
 Standard basis: 6-311+G(2df,2p) (5D, 7F)
 Ernie: Thresh=  0.10000D-02 Tol=  0.10000D-05 Strict=F.
 There are   276 symmetry adapted cartesian basis functions of A   symmetry.
 There are   251 symmetry adapted basis functions of A   symmetry.
   251 basis functions,   359 primitive gaussians,   276 cartesian basis functions
    21 alpha electrons       20 beta electrons
       nuclear repulsion energy       184.4289899248 Hartrees.
 IExCor= 4336 DFT=T Ex+Corr=M062X ExCW=0 ScaHFX=  0.540000
 ScaDFX=  1.000000  1.000000  1.000000  1.000000 ScalE2=  1.000000  1.000000
 IRadAn=      5 IRanWt=     -1 IRanGd=            0 ICorTp=0 IEmpDi=  4
 NAtoms=   14 NActive=   14 NUniq=   14 SFac= 1.00D+00 NAtFMM=   60 NAOKFM=F Big=F
 Integral buffers will be    131072 words long.
 Raffenetti 2 integral format.
 Two-electron integral symmetry is turned on.
 Leave Link  301 at Thu Apr 11 15:58:53 2019, MaxMem=   671088640 cpu:               1.2 elap:               0.1
 (Enter /shared/centos7/gaussian/g16/l302.exe)
 NPDir=0 NMtPBC=     1 NCelOv=     1 NCel=       1 NClECP=     1 NCelD=      1
         NCelK=      1 NCelE2=     1 NClLst=     1 CellRange=     0.0.
 One-electron integrals computed using PRISM.
 One-electron integral symmetry used in STVInt
 NBasis=   251 RedAO= T EigKep=  5.63D-05  NBF=   251
 NBsUse=   251 1.00D-06 EigRej= -1.00D+00 NBFU=   251
 Precomputing XC quadrature grid using
 IXCGrd= 4 IRadAn=           5 IRanWt=          -1 IRanGd=           0 AccXCQ= 0.00D+00.
 Generated NRdTot=       0 NPtTot=           0 NUsed=           0 NTot=          32
 NSgBfM=   276   276   276   276   276 MxSgAt=    14 MxSgA2=    14.
 Leave Link  302 at Thu Apr 11 15:58:54 2019, MaxMem=   671088640 cpu:               9.3 elap:               0.7
 (Enter /shared/centos7/gaussian/g16/l303.exe)
 DipDrv:  MaxL=1.
 Leave Link  303 at Thu Apr 11 15:58:54 2019, MaxMem=   671088640 cpu:               1.2 elap:               0.2
 (Enter /shared/centos7/gaussian/g16/l401.exe)
 ExpMin= 4.38D-02 ExpMax= 8.59D+03 ExpMxC= 1.30D+03 IAcc=3 IRadAn=         5 AccDes= 0.00D+00
 Harris functional with IExCor= 1009 and IRadAn=       5 diagonalized for initial guess.
 HarFok:  IExCor= 1009 AccDes= 0.00D+00 IRadAn=         5 IDoV= 1 UseB2=F ITyADJ=14
 ICtDFT=  3500011 ScaDFX=  1.000000  1.000000  1.000000  1.000000
 FoFCou: FMM=F IPFlag=           0 FMFlag=      100000 FMFlg1=           0
         NFxFlg=           0 DoJE=T BraDBF=F KetDBF=T FulRan=T
         wScrn=  0.000000 ICntrl=       500 IOpCl=  0 I1Cent=   200000004 NGrid=           0
         NMat0=    1 NMatS0=      1 NMatT0=    0 NMatD0=    1 NMtDS0=    0 NMtDT0=    0
 Petite list used in FoFCou.
 Harris En= -232.888158381727    
 JPrj=0 DoOrth=F DoCkMO=F.
 Initial guess <Sx>= 0.0000 <Sy>= 0.0000 <Sz>= 0.5000 <S**2>= 0.7500 S= 0.5000
 Leave Link  401 at Thu Apr 11 15:58:55 2019, MaxMem=   671088640 cpu:              23.5 elap:               1.3
 (Enter /shared/centos7/gaussian/g16/l502.exe)
 Integral symmetry usage will be decided dynamically.
 UHF open shell SCF:
 Using DIIS extrapolation, IDIIS=  1040.
 NGot=   671088640 LenX=   670928170 LenY=   670851553
 Requested convergence on RMS density matrix=1.00D-08 within 128 cycles.
 Requested convergence on MAX density matrix=1.00D-06.
 Requested convergence on             energy=1.00D-06.
 No special actions if energy rises.
 Fock matrices will be formed incrementally for  20 cycles.

 Cycle   1  Pass 1  IDiag  1:
 FoFJK:  IHMeth= 1 ICntrl=       0 DoSepK=F KAlg= 0 I1Cent=           0 FoldK=F
 IRaf= 990000000 NMat=       1 IRICut=       1 DoRegI=T DoRafI=F ISym2E= 0 IDoP0=0 IntGTp=1.
 FoFCou: FMM=F IPFlag=           0 FMFlag=      100000 FMFlg1=           0
         NFxFlg=           0 DoJE=F BraDBF=F KetDBF=F FulRan=T
         wScrn=  0.000000 ICntrl=         0 IOpCl=  1 I1Cent=           0 NGrid=           0
         NMat0=    1 NMatS0=      1 NMatT0=    0 NMatD0=    1 NMtDS0=    0 NMtDT0=    0
 Symmetry not used in FoFCou.
 E= -232.782427232329    
 DIIS: error= 2.17D-02 at cycle   1 NSaved=   1.
 NSaved= 1 IEnMin= 1 EnMin= -232.782427232329     IErMin= 1 ErrMin= 2.17D-02
 ErrMax= 2.17D-02  0.00D+00 EMaxC= 1.00D-01 BMatC= 8.80D-01 BMatP= 8.80D-01
 IDIUse=3 WtCom= 7.83D-01 WtEn= 2.17D-01
 Coeff-Com:  0.100D+01
 Coeff-En:   0.100D+01
 Coeff:      0.100D+01
 Gap=     0.247 Goal=   None    Shift=    0.000
 Gap=     0.297 Goal=   None    Shift=    0.000
 GapD=    0.247 DampG=1.000 DampE=0.500 DampFc=0.5000 IDamp=-1.
 Damping current iteration by 5.00D-01
 RMSDP=3.31D-03 MaxDP=1.73D-01              OVMax= 1.42D-01

 Cycle   2  Pass 1  IDiag  1:
 RMSU=  1.64D-03    CP:  9.79D-01
 E= -232.872834354706     Delta-E=       -0.090407122377 Rises=F Damp=T
 DIIS: error= 4.94D-03 at cycle   2 NSaved=   2.
 NSaved= 2 IEnMin= 2 EnMin= -232.872834354706     IErMin= 2 ErrMin= 4.94D-03
 ErrMax= 4.94D-03  0.00D+00 EMaxC= 1.00D-01 BMatC= 5.92D-02 BMatP= 8.80D-01
 IDIUse=3 WtCom= 9.51D-01 WtEn= 4.94D-02
 Coeff-Com: -0.794D-01 0.108D+01
 Coeff-En:   0.000D+00 0.100D+01
 Coeff:     -0.754D-01 0.108D+01
 Gap=     0.289 Goal=   None    Shift=    0.000
 Gap=     0.335 Goal=   None    Shift=    0.000
 RMSDP=1.26D-03 MaxDP=6.98D-02 DE=-9.04D-02 OVMax= 8.30D-02

 Cycle   3  Pass 1  IDiag  1:
 RMSU=  1.20D-03    CP:  9.69D-01  7.80D-01
 E= -232.961758930445     Delta-E=       -0.088924575739 Rises=F Damp=F
 DIIS: error= 3.08D-03 at cycle   3 NSaved=   3.
 NSaved= 3 IEnMin= 3 EnMin= -232.961758930445     IErMin= 3 ErrMin= 3.08D-03
 ErrMax= 3.08D-03  0.00D+00 EMaxC= 1.00D-01 BMatC= 1.45D-02 BMatP= 5.92D-02
 IDIUse=3 WtCom= 9.69D-01 WtEn= 3.08D-02
 Coeff-Com: -0.826D-01 0.328D+00 0.754D+00
 Coeff-En:   0.000D+00 0.000D+00 0.100D+01
 Coeff:     -0.800D-01 0.318D+00 0.762D+00
 Gap=     0.287 Goal=   None    Shift=    0.000
 Gap=     0.303 Goal=   None    Shift=    0.000
 RMSDP=2.22D-04 MaxDP=1.29D-02 DE=-8.89D-02 OVMax= 1.43D-02

 Cycle   4  Pass 1  IDiag  1:
 RMSU=  1.91D-04    CP:  9.68D-01  8.48D-01  9.89D-01
