 Entering Gaussian System, Link 0=g16
 Input=XDJVAJLIXKTENM-UHFFFAOYSA-N_36by10.0_tor02_a1.com
 Output=XDJVAJLIXKTENM-UHFFFAOYSA-N_36by10.0_tor02_a1.log
 Initial command:
 /shared/centos7/gaussian/g16/l1.exe "/scratch/underkoffler.c/gaussian_scratch/Gau-16995.inp" -scrdir="/scratch/underkoffler.c/gaussian_scratch/"
 Entering Link 1 = /shared/centos7/gaussian/g16/l1.exe PID=     16996.
  
 Copyright (c) 1988,1990,1992,1993,1995,1998,2003,2009,2016,
            Gaussian, Inc.  All Rights Reserved.
  
 This is part of the Gaussian(R) 16 program.  It is based on
 the Gaussian(R) 09 system (copyright 2009, Gaussian, Inc.),
 the Gaussian(R) 03 system (copyright 2003, Gaussian, Inc.),
 the Gaussian(R) 98 system (copyright 1998, Gaussian, Inc.),
 the Gaussian(R) 94 system (copyright 1995, Gaussian, Inc.),
 the Gaussian 92(TM) system (copyright 1992, Gaussian, Inc.),
 the Gaussian 90(TM) system (copyright 1990, Gaussian, Inc.),
 the Gaussian 88(TM) system (copyright 1988, Gaussian, Inc.),
 the Gaussian 86(TM) system (copyright 1986, Carnegie Mellon
 University), and the Gaussian 82(TM) system (copyright 1983,
 Carnegie Mellon University). Gaussian is a federally registered
 trademark of Gaussian, Inc.
  
 This software contains proprietary and confidential information,
 including trade secrets, belonging to Gaussian, Inc.
  
 This software is provided under written license and may be
 used, copied, transmitted, or stored only in accord with that
 written license.
  
 The following legend is applicable only to US Government
 contracts under FAR:
  
                    RESTRICTED RIGHTS LEGEND
  
 Use, reproduction and disclosure by the US Government is
 subject to restrictions as set forth in subparagraphs (a)
 and (c) of the Commercial Computer Software - Restricted
 Rights clause in FAR 52.227-19.
  
 Gaussian, Inc.
 340 Quinnipiac St., Bldg. 40, Wallingford CT 06492
  
  
 ---------------------------------------------------------------
 Warning -- This program may not be used in any manner that
 competes with the business of Gaussian, Inc. or will provide
 assistance to any competitor of Gaussian, Inc.  The licensee
 of this program is prohibited from giving any competitor of
 Gaussian, Inc. access to this program.  By using this program,
 the user acknowledges that Gaussian, Inc. is engaged in the
 business of creating and licensing software in the field of
 computational chemistry and represents and warrants to the
 licensee that it is not a competitor of Gaussian, Inc. and that
 it will not use this program in any manner prohibited above.
 ---------------------------------------------------------------
  

 Cite this work as:
 Gaussian 16, Revision A.03,
 M. J. Frisch, G. W. Trucks, H. B. Schlegel, G. E. Scuseria, 
 M. A. Robb, J. R. Cheeseman, G. Scalmani, V. Barone, 
 G. A. Petersson, H. Nakatsuji, X. Li, M. Caricato, A. V. Marenich, 
 J. Bloino, B. G. Janesko, R. Gomperts, B. Mennucci, H. P. Hratchian, 
 J. V. Ortiz, A. F. Izmaylov, J. L. Sonnenberg, D. Williams-Young, 
 F. Ding, F. Lipparini, F. Egidi, J. Goings, B. Peng, A. Petrone, 
 T. Henderson, D. Ranasinghe, V. G. Zakrzewski, J. Gao, N. Rega, 
 G. Zheng, W. Liang, M. Hada, M. Ehara, K. Toyota, R. Fukuda, 
 J. Hasegawa, M. Ishida, T. Nakajima, Y. Honda, O. Kitao, H. Nakai, 
 T. Vreven, K. Throssell, J. A. Montgomery, Jr., J. E. Peralta, 
 F. Ogliaro, M. J. Bearpark, J. J. Heyd, E. N. Brothers, K. N. Kudin, 
 V. N. Staroverov, T. A. Keith, R. Kobayashi, J. Normand, 
 K. Raghavachari, A. P. Rendell, J. C. Burant, S. S. Iyengar, 
 J. Tomasi, M. Cossi, J. M. Millam, M. Klene, C. Adamo, R. Cammi, 
 J. W. Ochterski, R. L. Martin, K. Morokuma, O. Farkas, 
 J. B. Foresman, and D. J. Fox, Gaussian, Inc., Wallingford CT, 2016.
 
 ******************************************
 Gaussian 16:  EM64L-G16RevA.03 25-Dec-2016
                14-Apr-2019 
 ******************************************
 %nprocshared=20
 Will use up to   20 processors via shared memory.
 %mem=5GB
 ----------------------------------------------
 #p m062x/6-311+g(2df,2p) Opt=(CalcFC,ModRedun)
 ----------------------------------------------
 1/10=4,18=120,19=15,26=3,38=1/1,3;
 2/9=110,12=2,17=6,18=5,40=1/2;
 3/5=4,6=6,7=214,11=2,25=1,30=1,71=2,74=-55,140=1/1,2,3;
 4//1;
 5/5=2,38=5/2;
 8/6=4,10=90,11=11/1;
 11/6=1,8=1,9=11,15=111,16=1/1,2,10;
 10/6=1,13=1/2;
 6/7=2,8=2,9=2,10=2,28=1/1;
 7/10=1,18=20,25=1/1,2,3,16;
 1/10=4,18=20,19=15,26=3/3(2);
 2/9=110/2;
 99//99;
 2/9=110/2;
 3/5=4,6=6,7=214,11=2,25=1,30=1,71=1,74=-55/1,2,3;
 4/5=5,16=3,69=1/1;
 5/5=2,38=5/2;
 7//1,2,3,16;
 1/18=20,19=15,26=3/3(-5);
 2/9=110/2;
 6/7=2,8=2,9=2,10=2,19=2,28=1/1;
 99/9=1/99;
 Leave Link    1 at Sun Apr 14 13:00:28 2019, MaxMem=   671088640 cpu:              35.9 elap:               1.9
 (Enter /shared/centos7/gaussian/g16/l101.exe)
 ----------------------------------------
 Gaussian Input Prepared from Scan Object
 ----------------------------------------
 Symbolic Z-matrix:
 Charge =  0 Multiplicity = 2
 O                     1.43984  -0.33043  -3.44359 
 O                    -1.28762  -0.84563  -1.05715 
 O                     1.51378   1.08272  -3.30136 
 O                    -1.50723  -2.1115   -1.22982 
 C                     0.0528   -0.46196  -1.46033 
 C                     0.18258  -0.73434  -2.95495 
 C                     1.09534  -1.17115  -0.62874 
 H                     0.06184   0.61135  -1.27949 
 H                    -0.62404  -0.24212  -3.50382 
 H                     0.14791  -1.8082   -3.13985 
 H                     1.02854  -2.24739  -0.77888 
 H                     2.08281  -0.83242  -0.9368 
 H                     0.9583   -0.94879   0.42777 
 H                     1.56864   1.36484  -4.22141 
 
 The following ModRedundant input section has been read:
 B       2       4 B                                                           
 B       1       3 B                                                           
 B       7      13 B                                                           
 B       3      14 B                                                           
 B       6       9 B                                                           
 B       1       6 B                                                           
 B       6      10 B                                                           
 B       5       6 B                                                           
 B       5       8 B                                                           
 B       5       7 B                                                           
 B       7      11 B                                                           
 B       2       5 B                                                           
 B       7      12 B                                                           
 D       6       1       3      14 S  36 10.000                                
 
 ITRead=  0  0  0  0  0  0  0  0  0  0  0  0  0  0
 MicOpt= -1 -1 -1 -1 -1 -1 -1 -1 -1 -1 -1 -1 -1 -1
 NAtoms=     14 NQM=       14 NQMF=       0 NMMI=      0 NMMIF=      0
                NMic=       0 NMicF=      0.
                    Isotopes and Nuclear Properties:
 (Nuclear quadrupole moments (NQMom) in fm**2, nuclear magnetic moments (NMagM)
  in nuclear magnetons)

  Atom         1           2           3           4           5           6           7           8           9          10
 IAtWgt=          16          16          16          16          12          12          12           1           1           1
 AtmWgt=  15.9949146  15.9949146  15.9949146  15.9949146  12.0000000  12.0000000  12.0000000   1.0078250   1.0078250   1.0078250
 NucSpn=           0           0           0           0           0           0           0           1           1           1
 AtZEff=  -0.0000000  -0.0000000  -0.0000000  -0.0000000  -0.0000000  -0.0000000  -0.0000000  -0.0000000  -0.0000000  -0.0000000
 NQMom=    0.0000000   0.0000000   0.0000000   0.0000000   0.0000000   0.0000000   0.0000000   0.0000000   0.0000000   0.0000000
 NMagM=    0.0000000   0.0000000   0.0000000   0.0000000   0.0000000   0.0000000   0.0000000   2.7928460   2.7928460   2.7928460
 AtZNuc=   8.0000000   8.0000000   8.0000000   8.0000000   6.0000000   6.0000000   6.0000000   1.0000000   1.0000000   1.0000000

  Atom        11          12          13          14
 IAtWgt=           1           1           1           1
 AtmWgt=   1.0078250   1.0078250   1.0078250   1.0078250
 NucSpn=           1           1           1           1
 AtZEff=  -0.0000000  -0.0000000  -0.0000000  -0.0000000
 NQMom=    0.0000000   0.0000000   0.0000000   0.0000000
 NMagM=    2.7928460   2.7928460   2.7928460   2.7928460
 AtZNuc=   1.0000000   1.0000000   1.0000000   1.0000000
 Leave Link  101 at Sun Apr 14 13:00:28 2019, MaxMem=   671088640 cpu:               6.0 elap:               0.3
 (Enter /shared/centos7/gaussian/g16/l103.exe)

 GradGradGradGradGradGradGradGradGradGradGradGradGradGradGradGradGradGrad
 Berny optimization.
 Initialization pass.
                           ----------------------------
                           !    Initial Parameters    !
                           ! (Angstroms and Degrees)  !
 --------------------------                            --------------------------
 ! Name  Definition              Value          Derivative Info.                !
 --------------------------------------------------------------------------------
 ! R1    R(1,3)                  1.4222         calculate D2E/DX2 analytically  !
 ! R2    R(1,6)                  1.4081         calculate D2E/DX2 analytically  !
 ! R3    R(2,4)                  1.2963         calculate D2E/DX2 analytically  !
 ! R4    R(2,5)                  1.4514         calculate D2E/DX2 analytically  !
 ! R5    R(3,14)                 0.9639         calculate D2E/DX2 analytically  !
 ! R6    R(5,6)                  1.5248         calculate D2E/DX2 analytically  !
 ! R7    R(5,7)                  1.5104         calculate D2E/DX2 analytically  !
 ! R8    R(5,8)                  1.0885         calculate D2E/DX2 analytically  !
 ! R9    R(6,9)                  1.0928         calculate D2E/DX2 analytically  !
 ! R10   R(6,10)                 1.0902         calculate D2E/DX2 analytically  !
 ! R11   R(7,11)                 1.0887         calculate D2E/DX2 analytically  !
 ! R12   R(7,12)                 1.0885         calculate D2E/DX2 analytically  !
 ! R13   R(7,13)                 1.0883         calculate D2E/DX2 analytically  !
 ! A1    A(3,1,6)              107.2623         calculate D2E/DX2 analytically  !
 ! A2    A(4,2,5)              112.1852         calculate D2E/DX2 analytically  !
 ! A3    A(1,3,14)             101.4386         calculate D2E/DX2 analytically  !
 ! A4    A(2,5,6)              107.6789         calculate D2E/DX2 analytically  !
 ! A5    A(2,5,7)              111.1245         calculate D2E/DX2 analytically  !
 ! A6    A(2,5,8)              102.8378         calculate D2E/DX2 analytically  !
 ! A7    A(6,5,7)              113.3944         calculate D2E/DX2 analytically  !
 ! A8    A(6,5,8)              109.7735         calculate D2E/DX2 analytically  !
 ! A9    A(7,5,8)              111.4555         calculate D2E/DX2 analytically  !
 ! A10   A(1,6,5)              111.4028         calculate D2E/DX2 analytically  !
 ! A11   A(1,6,9)              110.8284         calculate D2E/DX2 analytically  !
 ! A12   A(1,6,10)             104.6016         calculate D2E/DX2 analytically  !
 ! A13   A(5,6,9)              110.4291         calculate D2E/DX2 analytically  !
 ! A14   A(5,6,10)             109.8465         calculate D2E/DX2 analytically  !
 ! A15   A(9,6,10)             109.5732         calculate D2E/DX2 analytically  !
 ! A16   A(5,7,11)             110.2352         calculate D2E/DX2 analytically  !
 ! A17   A(5,7,12)             108.92           calculate D2E/DX2 analytically  !
 ! A18   A(5,7,13)             110.5874         calculate D2E/DX2 analytically  !
 ! A19   A(11,7,12)            108.9211         calculate D2E/DX2 analytically  !
 ! A20   A(11,7,13)            109.1545         calculate D2E/DX2 analytically  !
 ! A21   A(12,7,13)            108.9905         calculate D2E/DX2 analytically  !
 ! D1    D(6,1,3,14)          -115.7861         Scan                            !
 ! D2    D(3,1,6,5)            -64.7405         calculate D2E/DX2 analytically  !
 ! D3    D(3,1,6,9)             58.6421         calculate D2E/DX2 analytically  !
 ! D4    D(3,1,6,10)           176.6442         calculate D2E/DX2 analytically  !
 ! D5    D(4,2,5,6)             62.6546         calculate D2E/DX2 analytically  !
 ! D6    D(4,2,5,7)            -62.0892         calculate D2E/DX2 analytically  !
 ! D7    D(4,2,5,8)            178.5552         calculate D2E/DX2 analytically  !
 ! D8    D(2,5,6,1)            177.2679         calculate D2E/DX2 analytically  !
 ! D9    D(2,5,6,9)             53.6582         calculate D2E/DX2 analytically  !
 ! D10   D(2,5,6,10)           -67.3065         calculate D2E/DX2 analytically  !
 ! D11   D(7,5,6,1)            -59.3629         calculate D2E/DX2 analytically  !
 ! D12   D(7,5,6,9)            177.0274         calculate D2E/DX2 analytically  !
 ! D13   D(7,5,6,10)            56.0626         calculate D2E/DX2 analytically  !
 ! D14   D(8,5,6,1)             66.0201         calculate D2E/DX2 analytically  !
 ! D15   D(8,5,6,9)            -57.5896         calculate D2E/DX2 analytically  !
 ! D16   D(8,5,6,10)          -178.5544         calculate D2E/DX2 analytically  !
 ! D17   D(2,5,7,11)            62.4854         calculate D2E/DX2 analytically  !
 ! D18   D(2,5,7,12)          -178.0631         calculate D2E/DX2 analytically  !
 ! D19   D(2,5,7,13)           -58.3131         calculate D2E/DX2 analytically  !
 ! D20   D(6,5,7,11)           -58.9722         calculate D2E/DX2 analytically  !
 ! D21   D(6,5,7,12)            60.4793         calculate D2E/DX2 analytically  !
 ! D22   D(6,5,7,13)          -179.7708         calculate D2E/DX2 analytically  !
 ! D23   D(8,5,7,11)           176.5508         calculate D2E/DX2 analytically  !
 ! D24   D(8,5,7,12)           -63.9978         calculate D2E/DX2 analytically  !
 ! D25   D(8,5,7,13)            55.7522         calculate D2E/DX2 analytically  !
 --------------------------------------------------------------------------------
 Trust Radius=3.00D-01 FncErr=1.00D-07 GrdErr=1.00D-06 EigMax=2.50D+02 EigMin=1.00D-04
 Number of optimizations in scan=  37
 Number of steps in this run=     69 maximum allowed number of steps=    100.
 GradGradGradGradGradGradGradGradGradGradGradGradGradGradGradGradGradGrad

 Leave Link  103 at Sun Apr 14 13:00:28 2019, MaxMem=   671088640 cpu:               0.2 elap:               0.0
 (Enter /shared/centos7/gaussian/g16/l202.exe)
                          Input orientation:                          
 ---------------------------------------------------------------------
 Center     Atomic      Atomic             Coordinates (Angstroms)
 Number     Number       Type             X           Y           Z
 ---------------------------------------------------------------------
      1          8           0        1.439838   -0.330432   -3.443586
      2          8           0       -1.287619   -0.845631   -1.057153
      3          8           0        1.513781    1.082722   -3.301355
      4          8           0       -1.507233   -2.111497   -1.229821
      5          6           0        0.052799   -0.461955   -1.460332
      6          6           0        0.182580   -0.734342   -2.954950
      7          6           0        1.095338   -1.171145   -0.628736
      8          1           0        0.061844    0.611349   -1.279490
      9          1           0       -0.624037   -0.242121   -3.503824
     10          1           0        0.147906   -1.808201   -3.139851
     11          1           0        1.028539   -2.247388   -0.778875
     12          1           0        2.082812   -0.832418   -0.936798
     13          1           0        0.958296   -0.948794    0.427766
     14          1           0        1.568636    1.364839   -4.221413
 ---------------------------------------------------------------------
                    Distance matrix (angstroms):
                    1          2          3          4          5
     1  O    0.000000
     2  O    3.660535   0.000000
     3  O    1.422217   4.074657   0.000000
     4  O    4.093675   1.296326   4.860125   0.000000
     5  C    2.423730   1.451373   2.812447   2.282066   0.000000
     6  C    1.408051   2.403228   2.278994   2.779945   1.524769
     7  C    2.957847   2.442946   3.521066   2.831773   1.510427
     8  H    2.732971   1.998318   2.533427   3.142986   1.088470
     9  H    2.066642   2.605910   2.523186   3.073384   2.163860
    10  H    1.986239   2.706456   3.201427   2.545523   2.154577
    11  H    3.308258   2.721571   4.205710   2.579139   2.145745
    12  H    2.636170   3.372605   3.095592   3.822346   2.128916
    13  H    3.949888   2.694394   4.282752   3.190346   2.149849
    14  H    1.869638   4.801761   0.963901   5.522273   3.641222
                    6          7          8          9         10
     6  C    0.000000
     7  C    2.536769   0.000000
     8  H    2.152354   2.160758   0.000000
     9  H    1.092782   3.476415   2.479214   0.000000
    10  H    1.090213   2.758471   3.053288   1.783530   0.000000
    11  H    2.782132   1.088716   3.059001   3.765295   2.557852
    12  H    2.773705   1.088459   2.507232   3.776917   3.090219
    13  H    3.477139   1.088309   2.480402   4.296575   3.758085
    14  H    2.816316   4.422957   3.390144   2.811595   3.640938
                   11         12         13         14
    11  H    0.000000
    12  H    1.771601   0.000000
    13  H    1.774053   1.772036   0.000000
    14  H    5.019059   3.985099   5.228793   0.000000
 Stoichiometry    C3H7O4(2)
 Framework group  C1[X(C3H7O4)]
 Deg. of freedom    36
 Full point group                 C1      NOp   1
 Largest Abelian subgroup         C1      NOp   1
 Largest concise Abelian subgroup C1      NOp   1
                         Standard orientation:                         
 ---------------------------------------------------------------------
 Center     Atomic      Atomic             Coordinates (Angstroms)
 Number     Number       Type             X           Y           Z
 ---------------------------------------------------------------------
      1          8           0       -1.732666   -0.154417   -0.675711
      2          8           0        1.645407   -0.403935    0.712051
      3          8           0       -2.409163   -0.026120    0.568714
      4          8           0        2.317910   -0.659662   -0.366284
      5          6           0        0.385362    0.257979    0.428082
      6          6           0       -0.461500   -0.696780   -0.406291
      7          6           0        0.610761    1.595892   -0.235675
      8          1           0       -0.055465    0.373187    1.416600
      9          1           0       -0.549935   -1.664440    0.093695
     10          1           0       -0.007153   -0.833040   -1.387906
     11          1           0        1.107056    1.461311   -1.195300
     12          1           0       -0.352662    2.074783   -0.400666
     13          1           0        1.221997    2.238088    0.395507
     14          1           0       -3.143480   -0.639372    0.451217
 ---------------------------------------------------------------------
 Rotational constants (GHZ):           5.2664068           1.5517002           1.4248516
 Leave Link  202 at Sun Apr 14 13:00:28 2019, MaxMem=   671088640 cpu:               0.2 elap:               0.0
 (Enter /shared/centos7/gaussian/g16/l301.exe)
 Standard basis: 6-311+G(2df,2p) (5D, 7F)
 Ernie: Thresh=  0.10000D-02 Tol=  0.10000D-05 Strict=F.
 There are   336 symmetry adapted cartesian basis functions of A   symmetry.
 There are   301 symmetry adapted basis functions of A   symmetry.
   301 basis functions,   441 primitive gaussians,   336 cartesian basis functions
    29 alpha electrons       28 beta electrons
       nuclear repulsion energy       331.4681227413 Hartrees.
 IExCor= 4336 DFT=T Ex+Corr=M062X ExCW=0 ScaHFX=  0.540000
 ScaDFX=  1.000000  1.000000  1.000000  1.000000 ScalE2=  1.000000  1.000000
 IRadAn=      5 IRanWt=     -1 IRanGd=            0 ICorTp=0 IEmpDi=  4
 NAtoms=   14 NActive=   14 NUniq=   14 SFac= 1.00D+00 NAtFMM=   60 NAOKFM=F Big=F
 Integral buffers will be    131072 words long.
 Raffenetti 2 integral format.
 Two-electron integral symmetry is turned on.
 Leave Link  301 at Sun Apr 14 13:00:28 2019, MaxMem=   671088640 cpu:               0.9 elap:               0.1
 (Enter /shared/centos7/gaussian/g16/l302.exe)
 NPDir=0 NMtPBC=     1 NCelOv=     1 NCel=       1 NClECP=     1 NCelD=      1
         NCelK=      1 NCelE2=     1 NClLst=     1 CellRange=     0.0.
 One-electron integrals computed using PRISM.
 One-electron integral symmetry used in STVInt
 NBasis=   301 RedAO= T EigKep=  2.54D-05  NBF=   301
 NBsUse=   301 1.00D-06 EigRej= -1.00D+00 NBFU=   301
 Precomputing XC quadrature grid using
 IXCGrd= 4 IRadAn=           5 IRanWt=          -1 IRanGd=           0 AccXCQ= 0.00D+00.
 Generated NRdTot=       0 NPtTot=           0 NUsed=           0 NTot=          32
 NSgBfM=   336   336   336   336   336 MxSgAt=    14 MxSgA2=    14.
 Leave Link  302 at Sun Apr 14 13:00:28 2019, MaxMem=   671088640 cpu:               6.0 elap:               0.3
 (Enter /shared/centos7/gaussian/g16/l303.exe)
 DipDrv:  MaxL=1.
 Leave Link  303 at Sun Apr 14 13:00:28 2019, MaxMem=   671088640 cpu:               0.5 elap:               0.0
 (Enter /shared/centos7/gaussian/g16/l401.exe)
 ExpMin= 4.38D-02 ExpMax= 8.59D+03 ExpMxC= 1.30D+03 IAcc=3 IRadAn=         5 AccDes= 0.00D+00
 Harris functional with IExCor= 1009 and IRadAn=       5 diagonalized for initial guess.
 HarFok:  IExCor= 1009 AccDes= 0.00D+00 IRadAn=         5 IDoV= 1 UseB2=F ITyADJ=14
 ICtDFT=  3500011 ScaDFX=  1.000000  1.000000  1.000000  1.000000
 FoFCou: FMM=F IPFlag=           0 FMFlag=      100000 FMFlg1=           0
         NFxFlg=           0 DoJE=T BraDBF=F KetDBF=T FulRan=T
         wScrn=  0.000000 ICntrl=       500 IOpCl=  0 I1Cent=   200000004 NGrid=           0
         NMat0=    1 NMatS0=      1 NMatT0=    0 NMatD0=    1 NMtDS0=    0 NMtDT0=    0
 Petite list used in FoFCou.
 Harris En= -418.964805274244    
 JPrj=0 DoOrth=F DoCkMO=F.
 Initial guess <Sx>= 0.0000 <Sy>= 0.0000 <Sz>= 0.5000 <S**2>= 0.7500 S= 0.5000
 Leave Link  401 at Sun Apr 14 13:00:29 2019, MaxMem=   671088640 cpu:              20.1 elap:               1.0
 (Enter /shared/centos7/gaussian/g16/l502.exe)
 Integral symmetry usage will be decided dynamically.
 UHF open shell SCF:
 Using DIIS extrapolation, IDIIS=  1040.
 NGot=   671088640 LenX=   670853114 LenY=   670739777
 Requested convergence on RMS density matrix=1.00D-08 within 128 cycles.
 Requested convergence on MAX density matrix=1.00D-06.
 Requested convergence on             energy=1.00D-06.
 No special actions if energy rises.
 Fock matrices will be formed incrementally for  20 cycles.

 Cycle   1  Pass 1  IDiag  1:
 FoFJK:  IHMeth= 1 ICntrl=       0 DoSepK=F KAlg= 0 I1Cent=           0 FoldK=F
 IRaf= 960000000 NMat=       1 IRICut=       1 DoRegI=T DoRafI=F ISym2E= 0 IDoP0=0 IntGTp=1.
 FoFCou: FMM=F IPFlag=           0 FMFlag=      100000 FMFlg1=           0
         NFxFlg=           0 DoJE=F BraDBF=F KetDBF=F FulRan=T
         wScrn=  0.000000 ICntrl=         0 IOpCl=  1 I1Cent=           0 NGrid=           0
         NMat0=    1 NMatS0=      1 NMatT0=    0 NMatD0=    1 NMtDS0=    0 NMtDT0=    0
 Symmetry not used in FoFCou.
 E= -419.009816242238    
 DIIS: error= 1.49D-02 at cycle   1 NSaved=   1.
 NSaved= 1 IEnMin= 1 EnMin= -419.009816242238     IErMin= 1 ErrMin= 1.49D-02
 ErrMax= 1.49D-02  0.00D+00 EMaxC= 1.00D-01 BMatC= 9.72D-01 BMatP= 9.72D-01
 IDIUse=3 WtCom= 8.51D-01 WtEn= 1.49D-01
 Coeff-Com:  0.100D+01
 Coeff-En:   0.100D+01
 Coeff:      0.100D+01
 Gap=     0.465 Goal=   None    Shift=    0.000
 Gap=     0.246 Goal=   None    Shift=    0.000
 GapD=    0.246 DampG=1.000 DampE=0.500 DampFc=0.5000 IDamp=-1.
 Damping current iteration by 5.00D-01
 RMSDP=2.06D-03 MaxDP=1.14D-01              OVMax= 1.40D-01

 Cycle   2  Pass 1  IDiag  1:
 RMSU=  1.02D-03    CP:  9.92D-01
 E= -419.087049747909     Delta-E=       -0.077233505671 Rises=F Damp=T
 DIIS: error= 5.81D-03 at cycle   2 NSaved=   2.
 NSaved= 2 IEnMin= 2 EnMin= -419.087049747909     IErMin= 2 ErrMin= 5.81D-03
 ErrMax= 5.81D-03  0.00D+00 EMaxC= 1.00D-01 BMatC= 1.23D-01 BMatP= 9.72D-01
 IDIUse=3 WtCom= 9.42D-01 WtEn= 5.81D-02
 Coeff-Com: -0.902D-01 0.109D+01
 Coeff-En:   0.000D+00 0.100D+01
 Coeff:     -0.850D-01 0.108D+01
 Gap=     0.375 Goal=   None    Shift=    0.000
 Gap=     0.285 Goal=   None    Shift=    0.000
 RMSDP=1.02D-03 MaxDP=4.03D-02 DE=-7.72D-02 OVMax= 8.32D-02

 Cycle   3  Pass 1  IDiag  1:
 RMSU=  1.01D-03    CP:  9.78D-01  1.04D+00
 E= -419.157481970578     Delta-E=       -0.070432222669 Rises=F Damp=F
 DIIS: error= 5.49D-03 at cycle   3 NSaved=   3.
 NSaved= 3 IEnMin= 3 EnMin= -419.157481970578     IErMin= 3 ErrMin= 5.49D-03
 ErrMax= 5.49D-03  0.00D+00 EMaxC= 1.00D-01 BMatC= 7.75D-02 BMatP= 1.23D-01
 IDIUse=3 WtCom= 9.45D-01 WtEn= 5.49D-02
 Coeff-Com: -0.144D+00 0.534D+00 0.609D+00
 Coeff-En:   0.000D+00 0.000D+00 0.100D+01
 Coeff:     -0.136D+00 0.505D+00 0.631D+00
 Gap=     0.371 Goal=   None    Shift=    0.000
 Gap=     0.276 Goal=   None    Shift=    0.000
 RMSDP=3.87D-04 MaxDP=2.13D-02 DE=-7.04D-02 OVMax= 3.76D-02

 Cycle   4  Pass 1  IDiag  1:
 RMSU=  3.30D-04    CP:  9.74D-01  1.15D+00  8.38D-01
 E= -419.167975417390     Delta-E=       -0.010493446812 Rises=F Damp=F
 DIIS: error= 2.40D-03 at cycle   4 NSaved=   4.
 NSaved= 4 IEnMin= 4 EnMin= -419.167975417390     IErMin= 4 ErrMin= 2.40D-03
 ErrMax= 2.40D-03  0.00D+00 EMaxC= 1.00D-01 BMatC= 1.57D-02 BMatP= 7.75D-02
 IDIUse=3 WtCom= 9.76D-01 WtEn= 2.40D-02
 Coeff-Com: -0.543D-01 0.138D+00 0.360D+00 0.557D+00
 Coeff-En:   0.000D+00 0.000D+00 0.154D+00 0.846D+00
 Coeff:     -0.530D-01 0.135D+00 0.355D+00 0.564D+00
 Gap=     0.365 Goal=   None    Shift=    0.000
 Gap=     0.278 Goal=   None    Shift=    0.000
 RMSDP=1.69D-04 MaxDP=1.46D-02 DE=-1.05D-02 OVMax= 9.00D-03

 Cycle   5  Pass 1  IDiag  1:
 RMSU=  1.24D-04    CP:  9.73D-01  1.13D+00  8.98D-01  7.19D-01
 E= -419.170624896232     Delta-E=       -0.002649478842 Rises=F Damp=F
 DIIS: error= 4.88D-04 at cycle   5 NSaved=   5.
 NSaved= 5 IEnMin= 5 EnMin= -419.170624896232     IErMin= 5 ErrMin= 4.88D-04
 ErrMax= 4.88D-04  0.00D+00 EMaxC= 1.00D-01 BMatC= 4.01D-04 BMatP= 1.57D-02
 IDIUse=3 WtCom= 9.95D-01 WtEn= 4.88D-03
 Coeff-Com: -0.689D-02 0.647D-02 0.929D-01 0.180D+00 0.728D+00
 Coeff-En:   0.000D+00 0.000D+00 0.000D+00 0.000D+00 0.100D+01
 Coeff:     -0.686D-02 0.644D-02 0.925D-01 0.179D+00 0.729D+00
 Gap=     0.363 Goal=   None    Shift=    0.000
 Gap=     0.279 Goal=   None    Shift=    0.000
 RMSDP=4.60D-05 MaxDP=2.20D-03 DE=-2.65D-03 OVMax= 4.54D-03

 Cycle   6  Pass 1  IDiag  1:
 RMSU=  3.74D-05    CP:  9.73D-01  1.12D+00  9.18D-01  7.53D-01  1.05D+00
 E= -419.170740734893     Delta-E=       -0.000115838661 Rises=F Damp=F
 DIIS: error= 2.70D-04 at cycle   6 NSaved=   6.
 NSaved= 6 IEnMin= 6 EnMin= -419.170740734893     IErMin= 6 ErrMin= 2.70D-04
 ErrMax= 2.70D-04  0.00D+00 EMaxC= 1.00D-01 BMatC= 1.66D-04 BMatP= 4.01D-04
 IDIUse=3 WtCom= 9.97D-01 WtEn= 2.70D-03
 Coeff-Com:  0.568D-02-0.180D-01-0.510D-02-0.212D-01 0.341D+00 0.698D+00
 Coeff-En:   0.000D+00 0.000D+00 0.000D+00 0.000D+00 0.000D+00 0.100D+01
 Coeff:      0.566D-02-0.180D-01-0.508D-02-0.211D-01 0.340D+00 0.699D+00
 Gap=     0.364 Goal=   None    Shift=    0.000
 Gap=     0.280 Goal=   None    Shift=    0.000
 RMSDP=3.36D-05 MaxDP=2.82D-03 DE=-1.16D-04 OVMax= 2.13D-03

 Cycle   7  Pass 1  IDiag  1:
 RMSU=  1.91D-05    CP:  9.73D-01  1.11D+00  9.28D-01  7.50D-01  1.22D+00
                    CP:  1.27D+00
 E= -419.170791661673     Delta-E=       -0.000050926780 Rises=F Damp=F
 DIIS: error= 1.30D-04 at cycle   7 NSaved=   7.
 NSaved= 7 IEnMin= 7 EnMin= -419.170791661673     IErMin= 7 ErrMin= 1.30D-04
 ErrMax= 1.30D-04  0.00D+00 EMaxC= 1.00D-01 BMatC= 3.99D-05 BMatP= 1.66D-04
 IDIUse=3 WtCom= 9.99D-01 WtEn= 1.30D-03
 Coeff-Com:  0.521D-02-0.102D-01-0.290D-01-0.851D-01-0.950D-01 0.245D+00
 Coeff-Com:  0.969D+00
 Coeff-En:   0.000D+00 0.000D+00 0.000D+00 0.000D+00 0.000D+00 0.000D+00
 Coeff-En:   0.100D+01
 Coeff:      0.521D-02-0.102D-01-0.289D-01-0.850D-01-0.949D-01 0.245D+00
 Coeff:      0.969D+00
 Gap=     0.364 Goal=   None    Shift=    0.000
 Gap=     0.280 Goal=   None    Shift=    0.000
 RMSDP=2.58D-05 MaxDP=1.97D-03 DE=-5.09D-05 OVMax= 2.39D-03

 Cycle   8  Pass 1  IDiag  1:
 RMSU=  1.12D-05    CP:  9.73D-01  1.10D+00  9.31D-01  7.53D-01  1.37D+00
                    CP:  1.56D+00  1.27D+00
 E= -419.170815700188     Delta-E=       -0.000024038515 Rises=F Damp=F
 DIIS: error= 7.73D-05 at cycle   8 NSaved=   8.
 NSaved= 8 IEnMin= 8 EnMin= -419.170815700188     IErMin= 8 ErrMin= 7.73D-05
 ErrMax= 7.73D-05  0.00D+00 EMaxC= 1.00D-01 BMatC= 1.09D-05 BMatP= 3.99D-05
 IDIUse=1 WtCom= 1.00D+00 WtEn= 0.00D+00
 Coeff-Com:  0.112D-02-0.738D-03-0.927D-02-0.368D-01-0.100D+00-0.615D-01
 Coeff-Com:  0.428D+00 0.780D+00
 Coeff:      0.112D-02-0.738D-03-0.927D-02-0.368D-01-0.100D+00-0.615D-01
 Coeff:      0.428D+00 0.780D+00
 Gap=     0.364 Goal=   None    Shift=    0.000
 Gap=     0.280 Goal=   None    Shift=    0.000
 RMSDP=9.78D-06 MaxDP=5.16D-04 DE=-2.40D-05 OVMax= 1.25D-03

 Cycle   9  Pass 1  IDiag  1:
 RMSU=  4.67D-06    CP:  9.73D-01  1.10D+00  9.32D-01  7.52D-01  1.41D+00
                    CP:  1.67D+00  1.50D+00  1.29D+00
 E= -419.170821586437     Delta-E=       -0.000005886249 Rises=F Damp=F
 DIIS: error= 3.18D-05 at cycle   9 NSaved=   9.
 NSaved= 9 IEnMin= 9 EnMin= -419.170821586437     IErMin= 9 ErrMin= 3.18D-05
 ErrMax= 3.18D-05  0.00D+00 EMaxC= 1.00D-01 BMatC= 2.06D-06 BMatP= 1.09D-05
 IDIUse=1 WtCom= 1.00D+00 WtEn= 0.00D+00
 Coeff-Com: -0.159D-02 0.333D-02 0.107D-01 0.230D-01 0.310D-01-0.116D+00
 Coeff-Com: -0.287D+00 0.996D-01 0.124D+01
 Coeff:     -0.159D-02 0.333D-02 0.107D-01 0.230D-01 0.310D-01-0.116D+00
 Coeff:     -0.287D+00 0.996D-01 0.124D+01
 Gap=     0.364 Goal=   None    Shift=    0.000
 Gap=     0.280 Goal=   None    Shift=    0.000
 RMSDP=8.00D-06 MaxDP=4.17D-04 DE=-5.89D-06 OVMax= 1.42D-03

 Cycle  10  Pass 1  IDiag  1:
 RMSU=  3.01D-06    CP:  9.73D-01  1.10D+00  9.32D-01  7.48D-01  1.43D+00
                    CP:  1.72D+00  1.67D+00  1.71D+00  1.64D+00
 E= -419.170823673768     Delta-E=       -0.000002087332 Rises=F Damp=F
 DIIS: error= 1.96D-05 at cycle  10 NSaved=  10.
 NSaved=10 IEnMin=10 EnMin= -419.170823673768     IErMin=10 ErrMin= 1.96D-05
 ErrMax= 1.96D-05  0.00D+00 EMaxC= 1.00D-01 BMatC= 1.81D-07 BMatP= 2.06D-06
 IDIUse=1 WtCom= 1.00D+00 WtEn= 0.00D+00
 Coeff-Com: -0.268D-03 0.421D-03 0.232D-02 0.614D-02 0.135D-01-0.877D-02
 Coeff-Com: -0.701D-01-0.598D-01 0.129D+00 0.987D+00
 Coeff:     -0.268D-03 0.421D-03 0.232D-02 0.614D-02 0.135D-01-0.877D-02
 Coeff:     -0.701D-01-0.598D-01 0.129D+00 0.987D+00
 Gap=     0.364 Goal=   None    Shift=    0.000
 Gap=     0.280 Goal=   None    Shift=    0.000
 RMSDP=2.24D-06 MaxDP=1.28D-04 DE=-2.09D-06 OVMax= 7.26D-04

 Cycle  11  Pass 1  IDiag  1:
 RMSU=  1.22D-06    CP:  9.73D-01  1.10D+00  9.32D-01  7.48D-01  1.43D+00
                    CP:  1.73D+00  1.68D+00  1.79D+00  1.88D+00  1.38D+00
 E= -419.170823992737     Delta-E=       -0.000000318969 Rises=F Damp=F
 DIIS: error= 1.64D-05 at cycle  11 NSaved=  11.
 NSaved=11 IEnMin=11 EnMin= -419.170823992737     IErMin=11 ErrMin= 1.64D-05
 ErrMax= 1.64D-05  0.00D+00 EMaxC= 1.00D-01 BMatC= 8.66D-08 BMatP= 1.81D-07
 IDIUse=1 WtCom= 1.00D+00 WtEn= 0.00D+00
 Coeff-Com:  0.245D-03-0.526D-03-0.148D-02-0.317D-02-0.387D-02 0.187D-01
 Coeff-Com:  0.431D-01-0.215D-01-0.203D+00 0.829D-01 0.109D+01
 Coeff:      0.245D-03-0.526D-03-0.148D-02-0.317D-02-0.387D-02 0.187D-01
 Coeff:      0.431D-01-0.215D-01-0.203D+00 0.829D-01 0.109D+01
 Gap=     0.363 Goal=   None    Shift=    0.000
 Gap=     0.280 Goal=   None    Shift=    0.000
 RMSDP=1.90D-06 MaxDP=9.15D-05 DE=-3.19D-07 OVMax= 6.82D-04

 Cycle  12  Pass 1  IDiag  1:
 RMSU=  6.64D-07    CP:  9.73D-01  1.10D+00  9.32D-01  7.48D-01  1.43D+00
                    CP:  1.73D+00  1.69D+00  1.82D+00  2.02D+00  1.75D+00
                    CP:  1.94D+00
 E= -419.170824215020     Delta-E=       -0.000000222283 Rises=F Damp=F
 DIIS: error= 1.40D-05 at cycle  12 NSaved=  12.
 NSaved=12 IEnMin=12 EnMin= -419.170824215020     IErMin=12 ErrMin= 1.40D-05
 ErrMax= 1.40D-05  0.00D+00 EMaxC= 1.00D-01 BMatC= 5.36D-08 BMatP= 8.66D-08
 IDIUse=1 WtCom= 1.00D+00 WtEn= 0.00D+00
 Coeff-Com:  0.856D-04-0.117D-03-0.915D-03-0.237D-02-0.602D-02 0.309D-02
 Coeff-Com:  0.275D-01 0.271D-01-0.421D-01-0.484D+00-0.370D-01 0.152D+01
 Coeff:      0.856D-04-0.117D-03-0.915D-03-0.237D-02-0.602D-02 0.309D-02
 Coeff:      0.275D-01 0.271D-01-0.421D-01-0.484D+00-0.370D-01 0.152D+01
 Gap=     0.363 Goal=   None    Shift=    0.000
 Gap=     0.280 Goal=   None    Shift=    0.000
 RMSDP=2.62D-06 MaxDP=1.24D-04 DE=-2.22D-07 OVMax= 9.79D-04

 Cycle  13  Pass 1  IDiag  1:
 RMSU=  6.78D-07    CP:  9.73D-01  1.10D+00  9.32D-01  7.48D-01  1.43D+00
                    CP:  1.73D+00  1.69D+00  1.85D+00  2.19D+00  2.19D+00
                    CP:  3.00D+00  2.34D+00
 E= -419.170824453786     Delta-E=       -0.000000238766 Rises=F Damp=F
 DIIS: error= 9.99D-06 at cycle  13 NSaved=  13.
 NSaved=13 IEnMin=13 EnMin= -419.170824453786     IErMin=13 ErrMin= 9.99D-06
 ErrMax= 9.99D-06  0.00D+00 EMaxC= 1.00D-01 BMatC= 2.70D-08 BMatP= 5.36D-08
 IDIUse=1 WtCom= 1.00D+00 WtEn= 0.00D+00
 Coeff-Com: -0.247D-03 0.512D-03 0.144D-02 0.352D-02 0.519D-02-0.170D-01
 Coeff-Com: -0.488D-01 0.117D-01 0.201D+00 0.419D-01-0.105D+01-0.335D+00
 Coeff-Com:  0.219D+01
 Coeff:     -0.247D-03 0.512D-03 0.144D-02 0.352D-02 0.519D-02-0.170D-01
 Coeff:     -0.488D-01 0.117D-01 0.201D+00 0.419D-01-0.105D+01-0.335D+00
 Coeff:      0.219D+01
 Gap=     0.363 Goal=   None    Shift=    0.000
 Gap=     0.280 Goal=   None    Shift=    0.000
 RMSDP=4.31D-06 MaxDP=2.01D-04 DE=-2.39D-07 OVMax= 1.60D-03

 Cycle  14  Pass 1  IDiag  1:
 RMSU=  2.36D-06    CP:  9.73D-01  1.10D+00  9.32D-01  7.49D-01  1.43D+00
                    CP:  1.73D+00  1.70D+00  1.91D+00  2.45D+00  2.86D+00
                    CP:  3.00D+00  3.00D+00  3.00D+00
 E= -419.170824663069     Delta-E=       -0.000000209283 Rises=F Damp=F
 DIIS: error= 3.30D-06 at cycle  14 NSaved=  14.
 NSaved=14 IEnMin=14 EnMin= -419.170824663069     IErMin=14 ErrMin= 3.30D-06
 ErrMax= 3.30D-06  0.00D+00 EMaxC= 1.00D-01 BMatC= 4.02D-09 BMatP= 2.70D-08
 IDIUse=1 WtCom= 1.00D+00 WtEn= 0.00D+00
 Coeff-Com: -0.534D-04 0.100D-03 0.430D-03 0.110D-02 0.212D-02-0.347D-02
 Coeff-Com: -0.128D-01-0.378D-02 0.361D-01 0.124D+00-0.109D+00-0.404D+00
 Coeff-Com:  0.208D+00 0.116D+01
 Coeff:     -0.534D-04 0.100D-03 0.430D-03 0.110D-02 0.212D-02-0.347D-02
 Coeff:     -0.128D-01-0.378D-02 0.361D-01 0.124D+00-0.109D+00-0.404D+00
 Coeff:      0.208D+00 0.116D+01
 Gap=     0.363 Goal=   None    Shift=    0.000
 Gap=     0.280 Goal=   None    Shift=    0.000
 RMSDP=1.40D-06 MaxDP=6.34D-05 DE=-2.09D-07 OVMax= 5.20D-04

 Cycle  15  Pass 1  IDiag  1:
 RMSU=  4.66D-07    CP:  9.73D-01  1.10D+00  9.32D-01  7.49D-01  1.43D+00
                    CP:  1.73D+00  1.71D+00  1.93D+00  2.53D+00  3.00D+00
                    CP:  3.00D+00  3.00D+00  3.00D+00  1.45D+00
 E= -419.170824683482     Delta-E=       -0.000000020413 Rises=F Damp=F
 DIIS: error= 8.74D-07 at cycle  15 NSaved=  15.
 NSaved=15 IEnMin=15 EnMin= -419.170824683482     IErMin=15 ErrMin= 8.74D-07
 ErrMax= 8.74D-07  0.00D+00 EMaxC= 1.00D-01 BMatC= 1.07D-09 BMatP= 4.02D-09
 IDIUse=1 WtCom= 1.00D+00 WtEn= 0.00D+00
 Coeff-Com:  0.381D-04-0.806D-04-0.168D-03-0.384D-03-0.416D-03 0.263D-02
 Coeff-Com:  0.649D-02-0.380D-02-0.337D-01 0.394D-01 0.206D+00-0.797D-01
 Coeff-Com: -0.433D+00 0.444D+00 0.852D+00
 Coeff:      0.381D-04-0.806D-04-0.168D-03-0.384D-03-0.416D-03 0.263D-02
 Coeff:      0.649D-02-0.380D-02-0.337D-01 0.394D-01 0.206D+00-0.797D-01
 Coeff:     -0.433D+00 0.444D+00 0.852D+00
 Gap=     0.363 Goal=   None    Shift=    0.000
 Gap=     0.280 Goal=   None    Shift=    0.000
 RMSDP=3.86D-07 MaxDP=1.88D-05 DE=-2.04D-08 OVMax= 1.38D-04

 Cycle  16  Pass 1  IDiag  1:
 RMSU=  1.31D-07    CP:  9.73D-01  1.10D+00  9.32D-01  7.49D-01  1.43D+00
                    CP:  1.73D+00  1.71D+00  1.94D+00  2.56D+00  3.00D+00
                    CP:  3.00D+00  3.00D+00  3.00D+00  1.58D+00  1.39D+00
 E= -419.170824685068     Delta-E=       -0.000000001586 Rises=F Damp=F
 DIIS: error= 2.21D-07 at cycle  16 NSaved=  16.
 NSaved=16 IEnMin=16 EnMin= -419.170824685068     IErMin=16 ErrMin= 2.21D-07
 ErrMax= 2.21D-07  0.00D+00 EMaxC= 1.00D-01 BMatC= 1.25D-10 BMatP= 1.07D-09
 IDIUse=1 WtCom= 1.00D+00 WtEn= 0.00D+00
 Coeff-Com:  0.153D-04-0.316D-04-0.985D-04-0.248D-03-0.457D-03 0.111D-02
 Coeff-Com:  0.356D-02-0.508D-04-0.136D-01-0.111D-01 0.680D-01 0.485D-01
 Coeff-Com: -0.147D+00-0.787D-01 0.243D+00 0.887D+00
 Coeff:      0.153D-04-0.316D-04-0.985D-04-0.248D-03-0.457D-03 0.111D-02
 Coeff:      0.356D-02-0.508D-04-0.136D-01-0.111D-01 0.680D-01 0.485D-01
 Coeff:     -0.147D+00-0.787D-01 0.243D+00 0.887D+00
 Gap=     0.363 Goal=   None    Shift=    0.000
 Gap=     0.280 Goal=   None    Shift=    0.000
 RMSDP=8.75D-08 MaxDP=3.95D-06 DE=-1.59D-09 OVMax= 2.91D-05

 Cycle  17  Pass 1  IDiag  1:
 RMSU=  3.09D-08    CP:  9.73D-01  1.10D+00  9.32D-01  7.49D-01  1.43D+00
                    CP:  1.73D+00  1.71D+00  1.94D+00  2.56D+00  3.00D+00
                    CP:  3.00D+00  3.00D+00  3.00D+00  1.60D+00  1.48D+00
                    CP:  1.18D+00
 E= -419.170824685174     Delta-E=       -0.000000000106 Rises=F Damp=F
 DIIS: error= 5.92D-08 at cycle  17 NSaved=  17.
 NSaved=17 IEnMin=17 EnMin= -419.170824685174     IErMin=17 ErrMin= 5.92D-08
 ErrMax= 5.92D-08  0.00D+00 EMaxC= 1.00D-01 BMatC= 1.12D-11 BMatP= 1.25D-10
 IDIUse=1 WtCom= 1.00D+00 WtEn= 0.00D+00
 Coeff-Com: -0.178D-05 0.388D-05 0.185D-05-0.221D-05-0.270D-04-0.979D-04
 Coeff-Com: -0.758D-04 0.351D-03 0.120D-02-0.623D-02-0.101D-01 0.165D-01
 Coeff-Com:  0.234D-01-0.661D-01-0.555D-01 0.145D+00 0.952D+00
 Coeff:     -0.178D-05 0.388D-05 0.185D-05-0.221D-05-0.270D-04-0.979D-04
 Coeff:     -0.758D-04 0.351D-03 0.120D-02-0.623D-02-0.101D-01 0.165D-01
 Coeff:      0.234D-01-0.661D-01-0.555D-01 0.145D+00 0.952D+00
 Gap=     0.363 Goal=   None    Shift=    0.000
 Gap=     0.280 Goal=   None    Shift=    0.000
 RMSDP=2.02D-08 MaxDP=8.09D-07 DE=-1.06D-10 OVMax= 4.75D-06

 Cycle  18  Pass 1  IDiag  1:
 RMSU=  1.16D-08    CP:  9.73D-01  1.10D+00  9.32D-01  7.49D-01  1.43D+00
                    CP:  1.73D+00  1.71D+00  1.94D+00  2.56D+00  3.00D+00
                    CP:  3.00D+00  3.00D+00  3.00D+00  1.60D+00  1.49D+00
                    CP:  1.23D+00  1.29D+00
 E= -419.170824685173     Delta-E=        0.000000000001 Rises=F Damp=F
 DIIS: error= 2.62D-08 at cycle  18 NSaved=  18.
 NSaved=18 IEnMin=17 EnMin= -419.170824685174     IErMin=18 ErrMin= 2.62D-08
 ErrMax= 2.62D-08  0.00D+00 EMaxC= 1.00D-01 BMatC= 2.00D-12 BMatP= 1.12D-11
 IDIUse=1 WtCom= 1.00D+00 WtEn= 0.00D+00
 Coeff-Com: -0.176D-05 0.370D-05 0.957D-05 0.216D-04 0.370D-04-0.137D-03
 Coeff-Com: -0.370D-03 0.822D-04 0.164D-02-0.318D-03-0.954D-02-0.170D-02
 Coeff-Com:  0.221D-01-0.685D-02-0.417D-01-0.703D-01 0.233D+00 0.875D+00
 Coeff:     -0.176D-05 0.370D-05 0.957D-05 0.216D-04 0.370D-04-0.137D-03
 Coeff:     -0.370D-03 0.822D-04 0.164D-02-0.318D-03-0.954D-02-0.170D-02
 Coeff:      0.221D-01-0.685D-02-0.417D-01-0.703D-01 0.233D+00 0.875D+00
 Gap=     0.363 Goal=   None    Shift=    0.000
 Gap=     0.280 Goal=   None    Shift=    0.000
 RMSDP=6.87D-09 MaxDP=3.23D-07 DE= 9.09D-13 OVMax= 8.29D-07

 SCF Done:  E(UM062X) =  -419.170824685     A.U. after   18 cycles
            NFock= 18  Conv=0.69D-08     -V/T= 2.0031
 <Sx>= 0.0000 <Sy>= 0.0000 <Sz>= 0.5000 <S**2>= 0.7555 S= 0.5027
 <L.S>= 0.000000000000E+00
 KE= 4.178669088295D+02 PE=-1.648519696502D+03 EE= 4.800138402461D+02
 Annihilation of the first spin contaminant:
 S**2 before annihilation     0.7555,   after     0.7500
 Leave Link  502 at Sun Apr 14 13:01:48 2019, MaxMem=   671088640 cpu:            1570.3 elap:              78.6
 (Enter /shared/centos7/gaussian/g16/l801.exe)
 DoSCS=F DFT=T ScalE2(SS,OS)=  1.000000  1.000000
 Range of M.O.s used for correlation:     1   301
 NBasis=   301 NAE=    29 NBE=    28 NFC=     0 NFV=     0
 NROrb=    301 NOA=    29 NOB=    28 NVA=   272 NVB=   273

 **** Warning!!: The largest alpha MO coefficient is  0.67770308D+02


 **** Warning!!: The largest beta MO coefficient is  0.66673643D+02

 Leave Link  801 at Sun Apr 14 13:01:48 2019, MaxMem=   671088640 cpu:               0.4 elap:               0.0
 (Enter /shared/centos7/gaussian/g16/l1101.exe)
 Using compressed storage, NAtomX=    14.
 Will process     15 centers per pass.
 Leave Link 1101 at Sun Apr 14 13:01:49 2019, MaxMem=   671088640 cpu:               7.2 elap:               0.4
 (Enter /shared/centos7/gaussian/g16/l1102.exe)
 Symmetrizing basis deriv contribution to polar:
 IMax=3 JMax=2 DiffMx= 0.00D+00
 Leave Link 1102 at Sun Apr 14 13:01:49 2019, MaxMem=   671088640 cpu:               0.5 elap:               0.1
 (Enter /shared/centos7/gaussian/g16/l1110.exe)
 Forming Gx(P) for the SCF density, NAtomX=    14.
 Integral derivatives from FoFJK, PRISM(SPDF).
 Do as many integral derivatives as possible in FoFJK.
 G2DrvN: MDV=     671087496.
 G2DrvN: will do    15 centers at a time, making    1 passes.
 Calling FoFCou, ICntrl=  3107 FMM=F I1Cent=   0 AccDes= 0.00D+00.
 FoFJK:  IHMeth= 1 ICntrl=    3107 DoSepK=F KAlg= 0 I1Cent=           0 FoldK=F
 IRaf=         0 NMat=       1 IRICut=       1 DoRegI=T DoRafI=F ISym2E= 0 IDoP0=0 IntGTp=1.
 FoFCou: FMM=F IPFlag=           0 FMFlag=      100000 FMFlg1=           0
         NFxFlg=           0 DoJE=F BraDBF=F KetDBF=F FulRan=T
         wScrn=  0.000000 ICntrl=      3107 IOpCl=  1 I1Cent=           0 NGrid=           0
         NMat0=    1 NMatS0=      1 NMatT0=    0 NMatD0=    1 NMtDS0=    0 NMtDT0=    0
 Symmetry not used in FoFCou.
 End of G2Drv F.D. properties file   721 does not exist.
 End of G2Drv F.D. properties file   722 does not exist.
 End of G2Drv F.D. properties file   788 does not exist.
 Leave Link 1110 at Sun Apr 14 13:03:41 2019, MaxMem=   671088640 cpu:            2242.8 elap:             112.2
 (Enter /shared/centos7/gaussian/g16/l1002.exe)
 Minotr:  UHF open shell wavefunction.
          IDoAtm=11111111111111
          Direct CPHF calculation.
          Differentiating once with respect to nuclear coordinates.
          Requested convergence is 1.0D-08 RMS, and 1.0D-07 maximum.
          Secondary convergence is 1.0D-12 RMS, and 1.0D-12 maximum.
          NewPWx=T KeepS1=F KeepF1=F KeepIn=T MapXYZ=F SortEE=F KeepMc=T.
         4257 words used for storage of precomputed grid.
 Two-electron integrals replicated using symmetry.
          MDV=     671088640 using IRadAn=       1.
          Solving linear equations simultaneously, MaxMat=     380.
 FoF2E skips out because all densities are zero.
 CalDSu exits because no D1Ps are significant.
 FoFJK:  IHMeth= 1 ICntrl=       0 DoSepK=F KAlg= 0 I1Cent=           0 FoldK=F
 IRaf= 960000000 NMat=      42 IRICut=     105 DoRegI=T DoRafI=T ISym2E= 2 IDoP0=3 IntGTp=3.
 FoFCou: FMM=F IPFlag=           0 FMFlag=      100000 FMFlg1=           0
         NFxFlg=           0 DoJE=F BraDBF=F KetDBF=F FulRan=T
         wScrn=  0.000000 ICntrl=         0 IOpCl=  1 I1Cent=           0 NGrid=           0
         NMat0=   42 NMatS0=     42 NMatT0=    0 NMatD0=   42 NMtDS0=    0 NMtDT0=    0
 Integrals replicated using symmetry in FoFCou.
 Raff kept on since  93.93% of shell-pairs survive, threshold=   0.20 IRatSp=94.
          There are    45 degrees of freedom in the 1st order CPHF.  IDoFFX=6 NUNeed=     0.
     39 vectors produced by pass  0 Test12= 3.45D-14 2.22D-09 XBig12= 1.70D-01 9.30D-02.
 AX will form    39 AO Fock derivatives at one time.
     39 vectors produced by pass  1 Test12= 3.45D-14 2.22D-09 XBig12= 2.09D-02 4.72D-02.
     39 vectors produced by pass  2 Test12= 3.45D-14 2.22D-09 XBig12= 1.58D-03 1.11D-02.
     39 vectors produced by pass  3 Test12= 3.45D-14 2.22D-09 XBig12= 2.25D-05 5.32D-04.
     39 vectors produced by pass  4 Test12= 3.45D-14 2.22D-09 XBig12= 3.03D-07 4.48D-05.
     39 vectors produced by pass  5 Test12= 3.45D-14 2.22D-09 XBig12= 4.03D-09 4.80D-06.
     39 vectors produced by pass  6 Test12= 3.45D-14 2.22D-09 XBig12= 4.64D-11 4.83D-07.
     21 vectors produced by pass  7 Test12= 3.45D-14 2.22D-09 XBig12= 5.21D-13 6.43D-08.
      3 vectors produced by pass  8 Test12= 3.45D-14 2.22D-09 XBig12= 4.94D-15 5.03D-09.
 InvSVY:  IOpt=1 It=  1 EMax= 2.33D-15
 Solved reduced A of dimension   297 with    39 vectors.
 End of Minotr F.D. properties file   721 does not exist.
 End of Minotr F.D. properties file   722 does not exist.
 End of Minotr F.D. properties file   788 does not exist.
 Leave Link 1002 at Sun Apr 14 13:06:53 2019, MaxMem=   671088640 cpu:            3837.4 elap:             191.9
 (Enter /shared/centos7/gaussian/g16/l601.exe)
 Copying SCF densities to generalized density rwf, IOpCl= 1 IROHF=0.

 **********************************************************************

            Population analysis using the SCF density.

 **********************************************************************

 Orbital symmetries:
 Alpha Orbitals:
       Occupied  (A) (A) (A) (A) (A) (A) (A) (A) (A) (A) (A) (A)
                 (A) (A) (A) (A) (A) (A) (A) (A) (A) (A) (A) (A)
                 (A) (A) (A) (A) (A)
       Virtual   (A) (A) (A) (A) (A) (A) (A) (A) (A) (A) (A) (A)
                 (A) (A) (A) (A) (A) (A) (A) (A) (A) (A) (A) (A)
                 (A) (A) (A) (A) (A) (A) (A) (A) (A) (A) (A) (A)
                 (A) (A) (A) (A) (A) (A) (A) (A) (A) (A) (A) (A)
                 (A) (A) (A) (A) (A) (A) (A) (A) (A) (A) (A) (A)
                 (A) (A) (A) (A) (A) (A) (A) (A) (A) (A) (A) (A)
                 (A) (A) (A) (A) (A) (A) (A) (A) (A) (A) (A) (A)
                 (A) (A) (A) (A) (A) (A) (A) (A) (A) (A) (A) (A)
                 (A) (A) (A) (A) (A) (A) (A) (A) (A) (A) (A) (A)
                 (A) (A) (A) (A) (A) (A) (A) (A) (A) (A) (A) (A)
                 (A) (A) (A) (A) (A) (A) (A) (A) (A) (A) (A) (A)
                 (A) (A) (A) (A) (A) (A) (A) (A) (A) (A) (A) (A)
                 (A) (A) (A) (A) (A) (A) (A) (A) (A) (A) (A) (A)
                 (A) (A) (A) (A) (A) (A) (A) (A) (A) (A) (A) (A)
                 (A) (A) (A) (A) (A) (A) (A) (A) (A) (A) (A) (A)
                 (A) (A) (A) (A) (A) (A) (A) (A) (A) (A) (A) (A)
                 (A) (A) (A) (A) (A) (A) (A) (A) (A) (A) (A) (A)
                 (A) (A) (A) (A) (A) (A) (A) (A) (A) (A) (A) (A)
                 (A) (A) (A) (A) (A) (A) (A) (A) (A) (A) (A) (A)
                 (A) (A) (A) (A) (A) (A) (A) (A) (A) (A) (A) (A)
                 (A) (A) (A) (A) (A) (A) (A) (A) (A) (A) (A) (A)
                 (A) (A) (A) (A) (A) (A) (A) (A) (A) (A) (A) (A)
                 (A) (A) (A) (A) (A) (A) (A) (A)
 Beta  Orbitals:
       Occupied  (A) (A) (A) (A) (A) (A) (A) (A) (A) (A) (A) (A)
                 (A) (A) (A) (A) (A) (A) (A) (A) (A) (A) (A) (A)
                 (A) (A) (A) (A)
       Virtual   (A) (A) (A) (A) (A) (A) (A) (A) (A) (A) (A) (A)
                 (A) (A) (A) (A) (A) (A) (A) (A) (A) (A) (A) (A)
                 (A) (A) (A) (A) (A) (A) (A) (A) (A) (A) (A) (A)
                 (A) (A) (A) (A) (A) (A) (A) (A) (A) (A) (A) (A)
                 (A) (A) (A) (A) (A) (A) (A) (A) (A) (A) (A) (A)
                 (A) (A) (A) (A) (A) (A) (A) (A) (A) (A) (A) (A)
                 (A) (A) (A) (A) (A) (A) (A) (A) (A) (A) (A) (A)
                 (A) (A) (A) (A) (A) (A) (A) (A) (A) (A) (A) (A)
                 (A) (A) (A) (A) (A) (A) (A) (A) (A) (A) (A) (A)
                 (A) (A) (A) (A) (A) (A) (A) (A) (A) (A) (A) (A)
                 (A) (A) (A) (A) (A) (A) (A) (A) (A) (A) (A) (A)
                 (A) (A) (A) (A) (A) (A) (A) (A) (A) (A) (A) (A)
                 (A) (A) (A) (A) (A) (A) (A) (A) (A) (A) (A) (A)
                 (A) (A) (A) (A) (A) (A) (A) (A) (A) (A) (A) (A)
                 (A) (A) (A) (A) (A) (A) (A) (A) (A) (A) (A) (A)
                 (A) (A) (A) (A) (A) (A) (A) (A) (A) (A) (A) (A)
                 (A) (A) (A) (A) (A) (A) (A) (A) (A) (A) (A) (A)
                 (A) (A) (A) (A) (A) (A) (A) (A) (A) (A) (A) (A)
                 (A) (A) (A) (A) (A) (A) (A) (A) (A) (A) (A) (A)
                 (A) (A) (A) (A) (A) (A) (A) (A) (A) (A) (A) (A)
                 (A) (A) (A) (A) (A) (A) (A) (A) (A) (A) (A) (A)
                 (A) (A) (A) (A) (A) (A) (A) (A) (A) (A) (A) (A)
                 (A) (A) (A) (A) (A) (A) (A) (A) (A)
 The electronic state is 2-A.
 Alpha  occ. eigenvalues --  -19.75022 -19.70429 -19.69800 -19.69765 -10.61147
 Alpha  occ. eigenvalues --  -10.60532 -10.53865  -1.34607  -1.28425  -1.05426
 Alpha  occ. eigenvalues --   -1.00717  -0.87030  -0.79554  -0.70108  -0.64187
 Alpha  occ. eigenvalues --   -0.62037  -0.60569  -0.59531  -0.56847  -0.55355
 Alpha  occ. eigenvalues --   -0.51458  -0.48496  -0.46641  -0.45368  -0.43024
 Alpha  occ. eigenvalues --   -0.40693  -0.37822  -0.36795  -0.35130
 Alpha virt. eigenvalues --    0.01216   0.02510   0.02882   0.04197   0.05660
 Alpha virt. eigenvalues --    0.06031   0.06745   0.07072   0.08681   0.09588
 Alpha virt. eigenvalues --    0.10881   0.11843   0.13678   0.15496   0.16743
 Alpha virt. eigenvalues --    0.17249   0.18615   0.18907   0.19054   0.19774
 Alpha virt. eigenvalues --    0.21696   0.22692   0.23453   0.24214   0.25491
 Alpha virt. eigenvalues --    0.25703   0.26324   0.28209   0.28563   0.29264
 Alpha virt. eigenvalues --    0.29864   0.30557   0.31152   0.33085   0.34550
 Alpha virt. eigenvalues --    0.35127   0.36019   0.36199   0.37203   0.38954
 Alpha virt. eigenvalues --    0.41072   0.43698   0.47435   0.49544   0.50940
 Alpha virt. eigenvalues --    0.52373   0.54131   0.56028   0.57045   0.57851
 Alpha virt. eigenvalues --    0.58982   0.59924   0.62644   0.63954   0.65036
 Alpha virt. eigenvalues --    0.67330   0.69486   0.70963   0.73449   0.75267
 Alpha virt. eigenvalues --    0.78654   0.79506   0.81544   0.84556   0.86438
 Alpha virt. eigenvalues --    0.91155   0.94737   0.97890   0.98603   1.00419
 Alpha virt. eigenvalues --    1.03224   1.04781   1.05653   1.08354   1.10203
 Alpha virt. eigenvalues --    1.10453   1.11483   1.11992   1.13622   1.14506
 Alpha virt. eigenvalues --    1.15109   1.15819   1.17012   1.19253   1.21625
 Alpha virt. eigenvalues --    1.22744   1.25005   1.25172   1.27486   1.29941
 Alpha virt. eigenvalues --    1.30614   1.31898   1.32892   1.34705   1.35647
 Alpha virt. eigenvalues --    1.40524   1.42776   1.43406   1.44390   1.46895
 Alpha virt. eigenvalues --    1.49585   1.50630   1.51673   1.53574   1.54715
 Alpha virt. eigenvalues --    1.57006   1.58347   1.60877   1.62920   1.63719
 Alpha virt. eigenvalues --    1.64900   1.65909   1.72138   1.73510   1.77815
 Alpha virt. eigenvalues --    1.79263   1.81681   1.82971   1.90862   1.96925
 Alpha virt. eigenvalues --    1.98429   2.07158   2.12976   2.16333   2.23263
 Alpha virt. eigenvalues --    2.24228   2.28105   2.32403   2.34564   2.37213
 Alpha virt. eigenvalues --    2.49410   2.52711   2.59043   2.61242   2.63220
 Alpha virt. eigenvalues --    2.64082   2.70327   2.74300   2.76626   2.79757
 Alpha virt. eigenvalues --    2.88721   2.89994   2.92006   2.95561   2.98579
 Alpha virt. eigenvalues --    3.03172   3.08006   3.10795   3.13374   3.16486
 Alpha virt. eigenvalues --    3.18970   3.24473   3.26232   3.29705   3.33493
 Alpha virt. eigenvalues --    3.37514   3.39813   3.41099   3.46802   3.47832
 Alpha virt. eigenvalues --    3.49727   3.55466   3.56565   3.60293   3.61283
 Alpha virt. eigenvalues --    3.65202   3.67283   3.70694   3.71137   3.73962
 Alpha virt. eigenvalues --    3.77282   3.79224   3.79721   3.85418   3.87538
 Alpha virt. eigenvalues --    3.92881   3.95825   3.98886   4.00287   4.07535
 Alpha virt. eigenvalues --    4.11949   4.13528   4.14326   4.18022   4.19359
 Alpha virt. eigenvalues --    4.21015   4.26759   4.27851   4.31145   4.35338
 Alpha virt. eigenvalues --    4.41718   4.43591   4.45320   4.51550   4.52667
 Alpha virt. eigenvalues --    4.53751   4.54580   4.56362   4.61545   4.66359
 Alpha virt. eigenvalues --    4.67179   4.68489   4.77591   4.79060   4.84835
 Alpha virt. eigenvalues --    4.87955   4.95151   4.96090   4.97519   5.03105
 Alpha virt. eigenvalues --    5.04615   5.07911   5.13162   5.13751   5.17837
 Alpha virt. eigenvalues --    5.20101   5.21228   5.24004   5.25214   5.26388
 Alpha virt. eigenvalues --    5.30493   5.34009   5.34602   5.39426   5.42368
 Alpha virt. eigenvalues --    5.45098   5.50593   5.52756   5.56218   5.58177
 Alpha virt. eigenvalues --    5.62081   5.65025   5.71149   5.74983   5.79786
 Alpha virt. eigenvalues --    5.84526   5.98179   6.13059   6.38324   6.40883
 Alpha virt. eigenvalues --    6.52623   6.54968   6.72549   6.77803   6.80322
 Alpha virt. eigenvalues --    6.88404   6.90399   6.91190   7.00240   7.01273
 Alpha virt. eigenvalues --    7.10587   7.15888   7.17183   7.18712   7.26554
 Alpha virt. eigenvalues --    7.28333   7.31127   7.33167   7.46729   7.62324
 Alpha virt. eigenvalues --    7.69277   7.77815   7.90771   7.96920   8.00385
 Alpha virt. eigenvalues --   24.29740  24.41646  24.50356  49.98374  50.01284
 Alpha virt. eigenvalues --   50.08534  50.10386
  Beta  occ. eigenvalues --  -19.74171 -19.70427 -19.69799 -19.68377 -10.61172
  Beta  occ. eigenvalues --  -10.60515 -10.53850  -1.31368  -1.28410  -1.05349
  Beta  occ. eigenvalues --   -0.97410  -0.85679  -0.79326  -0.69301  -0.63414
  Beta  occ. eigenvalues --   -0.60929  -0.59437  -0.56774  -0.55471  -0.52359
  Beta  occ. eigenvalues --   -0.50542  -0.46525  -0.46057  -0.44920  -0.42358
  Beta  occ. eigenvalues --   -0.40087  -0.36511  -0.34251
  Beta virt. eigenvalues --   -0.06232   0.01228   0.02532   0.02920   0.04263
  Beta virt. eigenvalues --    0.05677   0.06106   0.06817   0.07160   0.08820
  Beta virt. eigenvalues --    0.09661   0.10872   0.12005   0.13896   0.15756
  Beta virt. eigenvalues --    0.16815   0.17310   0.18703   0.19031   0.19185
  Beta virt. eigenvalues --    0.19818   0.21871   0.22821   0.23910   0.24398
  Beta virt. eigenvalues --    0.25629   0.25954   0.26486   0.28304   0.28844
  Beta virt. eigenvalues --    0.29480   0.30254   0.30864   0.31298   0.33185
  Beta virt. eigenvalues --    0.34622   0.35101   0.36103   0.36351   0.37115
  Beta virt. eigenvalues --    0.39119   0.40935   0.43779   0.47407   0.49545
  Beta virt. eigenvalues --    0.50950   0.52417   0.54142   0.56021   0.57064
  Beta virt. eigenvalues --    0.57868   0.58949   0.60015   0.62704   0.63933
  Beta virt. eigenvalues --    0.65077   0.67358   0.69516   0.71079   0.73514
  Beta virt. eigenvalues --    0.75359   0.78817   0.79609   0.81627   0.84631
  Beta virt. eigenvalues --    0.86504   0.91236   0.94865   0.98014   0.98830
  Beta virt. eigenvalues --    1.00673   1.03388   1.05017   1.05793   1.08712
  Beta virt. eigenvalues --    1.10333   1.11184   1.11787   1.12848   1.14333
  Beta virt. eigenvalues --    1.14968   1.15630   1.15932   1.18089   1.19426
  Beta virt. eigenvalues --    1.22035   1.23102   1.25111   1.25694   1.27764
  Beta virt. eigenvalues --    1.30021   1.30695   1.32021   1.33017   1.34795
  Beta virt. eigenvalues --    1.35744   1.40619   1.42886   1.43673   1.44476
  Beta virt. eigenvalues --    1.47193   1.49680   1.50741   1.52236   1.53787
  Beta virt. eigenvalues --    1.55520   1.57246   1.58700   1.61355   1.63575
  Beta virt. eigenvalues --    1.64499   1.66161   1.66585   1.72708   1.73916
  Beta virt. eigenvalues --    1.78055   1.79660   1.81853   1.83446   1.91119
  Beta virt. eigenvalues --    1.97001   1.98997   2.07251   2.13640   2.16669
  Beta virt. eigenvalues --    2.23576   2.24826   2.28997   2.32494   2.34660
  Beta virt. eigenvalues --    2.37475   2.49448   2.52798   2.59164   2.61292
  Beta virt. eigenvalues --    2.63266   2.64102   2.70299   2.74290   2.76616
  Beta virt. eigenvalues --    2.79729   2.88654   2.89972   2.92067   2.95548
  Beta virt. eigenvalues --    2.98613   3.03226   3.08034   3.10796   3.13379
  Beta virt. eigenvalues --    3.16510   3.19017   3.24481   3.26272   3.29743
  Beta virt. eigenvalues --    3.33489   3.37482   3.39840   3.41072   3.46790
  Beta virt. eigenvalues --    3.47818   3.49775   3.55488   3.56623   3.60337
  Beta virt. eigenvalues --    3.61278   3.65134   3.67080   3.70634   3.71066
  Beta virt. eigenvalues --    3.73944   3.77270   3.79154   3.79709   3.85435
  Beta virt. eigenvalues --    3.87534   3.92875   3.95846   3.98901   4.00284
  Beta virt. eigenvalues --    4.07561   4.11973   4.13554   4.14322   4.18047
  Beta virt. eigenvalues --    4.19353   4.21020   4.26790   4.27874   4.31166
  Beta virt. eigenvalues --    4.35306   4.41756   4.43615   4.45549   4.52069
  Beta virt. eigenvalues --    4.53071   4.54613   4.54656   4.56985   4.61575
  Beta virt. eigenvalues --    4.66465   4.67498   4.68898   4.77850   4.79464
  Beta virt. eigenvalues --    4.84810   4.88595   4.95337   4.96621   4.97675
  Beta virt. eigenvalues --    5.06144   5.07035   5.13143   5.13961   5.14441
  Beta virt. eigenvalues --    5.18364   5.20997   5.23570   5.24449   5.25382
  Beta virt. eigenvalues --    5.26972   5.30928   5.34133   5.35189   5.39537
  Beta virt. eigenvalues --    5.42634   5.45956   5.50797   5.52785   5.56275
  Beta virt. eigenvalues --    5.58321   5.62334   5.65184   5.71320   5.75111
  Beta virt. eigenvalues --    5.80535   5.84753   5.98185   6.13078   6.38669
  Beta virt. eigenvalues --    6.43959   6.52966   6.55301   6.72560   6.87262
  Beta virt. eigenvalues --    6.88342   6.89852   6.90775   6.95717   7.01280
  Beta virt. eigenvalues --    7.03606   7.12477   7.16284   7.18362   7.20841
  Beta virt. eigenvalues --    7.26673   7.29445   7.31235   7.37162   7.46739
  Beta virt. eigenvalues --    7.62323   7.69118   7.77807   7.90936   7.98191
  Beta virt. eigenvalues --    8.00496  24.29695  24.41654  24.50311  49.97847
  Beta virt. eigenvalues --   50.01278  50.08512  50.09817
          Condensed to atoms (all electrons):
               1          2          3          4          5          6
     1  O    8.014534   0.005293   0.119743  -0.001082  -0.030815   0.143060
     2  O    0.005293   7.714410  -0.003776   0.174048   0.244099  -0.065529
     3  O    0.119743  -0.003776   7.993196  -0.000242   0.028502  -0.041694
     4  O   -0.001082   0.174048  -0.000242   8.025636  -0.031301   0.012453
     5  C   -0.030815   0.244099   0.028502  -0.031301   6.303114  -0.353261
     6  C    0.143060  -0.065529  -0.041694   0.012453  -0.353261   5.706087
     7  C   -0.010885  -0.063821  -0.026180  -0.004964  -0.231317  -0.019709
     8  H   -0.002090  -0.045417  -0.006593   0.005704   0.467695  -0.041730
     9  H   -0.027893   0.004867  -0.007794  -0.002408  -0.042973   0.437401
    10  H   -0.044196  -0.007228   0.008951   0.000049  -0.032604   0.427202
    11  H   -0.001263  -0.014313  -0.000026   0.002137   0.010224  -0.020153
    12  H    0.001723   0.008205   0.002330  -0.000831  -0.056997  -0.002620
    13  H    0.000480   0.000943  -0.000388  -0.001443  -0.061229   0.030495
    14  H   -0.030526   0.000241   0.204032   0.000096  -0.037338   0.041827
               7          8          9         10         11         12
     1  O   -0.010885  -0.002090  -0.027893  -0.044196  -0.001263   0.001723
     2  O   -0.063821  -0.045417   0.004867  -0.007228  -0.014313   0.008205
     3  O   -0.026180  -0.006593  -0.007794   0.008951  -0.000026   0.002330
     4  O   -0.004964   0.005704  -0.002408   0.000049   0.002137  -0.000831
     5  C   -0.231317   0.467695  -0.042973  -0.032604   0.010224  -0.056997
     6  C   -0.019709  -0.041730   0.437401   0.427202  -0.020153  -0.002620
     7  C    5.547961  -0.031193   0.002575  -0.001673   0.390026   0.432047
     8  H   -0.031193   0.451287  -0.004282   0.003760   0.004362  -0.003193
     9  H    0.002575  -0.004282   0.474099  -0.017624   0.000113  -0.000044
    10  H   -0.001673   0.003760  -0.017624   0.455836   0.001000   0.000302
    11  H    0.390026   0.004362   0.000113   0.001000   0.503892  -0.027287
    12  H    0.432047  -0.003193  -0.000044   0.000302  -0.027287   0.505266
    13  H    0.414728  -0.003587  -0.000267  -0.000234  -0.022862  -0.021339
    14  H    0.004279   0.000573   0.003207  -0.000189   0.000006  -0.000047
              13         14
     1  O    0.000480  -0.030526
     2  O    0.000943   0.000241
     3  O   -0.000388   0.204032
     4  O   -0.001443   0.000096
     5  C   -0.061229  -0.037338
     6  C    0.030495   0.041827
     7  C    0.414728   0.004279
     8  H   -0.003587   0.000573
     9  H   -0.000267   0.003207
    10  H   -0.000234  -0.000189
    11  H   -0.022862   0.000006
    12  H   -0.021339  -0.000047
    13  H    0.511574   0.000011
    14  H    0.000011   0.528434
          Atomic-Atomic Spin Densities.
               1          2          3          4          5          6
     1  O    0.000879  -0.000432   0.000380  -0.000205   0.005523  -0.011828
     2  O   -0.000432   0.452256   0.000273  -0.167561   0.069515  -0.047361
     3  O    0.000380   0.000273  -0.000026   0.000021   0.000638  -0.001179
     4  O   -0.000205  -0.167561   0.000021   0.856579  -0.030599   0.025648
     5  C    0.005523   0.069515   0.000638  -0.030599  -0.072407  -0.003152
     6  C   -0.011828  -0.047361  -0.001179   0.025648  -0.003152   0.164732
     7  C    0.005183  -0.029626   0.000025   0.017568   0.011496  -0.109142
     8  H   -0.000024  -0.000481   0.000012   0.000233  -0.000391  -0.000150
     9  H   -0.000057   0.004715   0.000268  -0.002124   0.005003  -0.010884
    10  H    0.000810   0.003009  -0.000013  -0.002727   0.003764  -0.010326
    11  H   -0.000399   0.001775   0.000003  -0.001518   0.002331   0.002228
    12  H   -0.000119   0.000281  -0.000097  -0.000063   0.000109   0.007575
    13  H   -0.000125   0.002561   0.000003  -0.001201   0.002067   0.002410
    14  H   -0.000321   0.000011   0.000342  -0.000012   0.000849  -0.001378
               7          8          9         10         11         12
     1  O    0.005183  -0.000024  -0.000057   0.000810  -0.000399  -0.000119
     2  O   -0.029626  -0.000481   0.004715   0.003009   0.001775   0.000281
     3  O    0.000025   0.000012   0.000268  -0.000013   0.000003  -0.000097
     4  O    0.017568   0.000233  -0.002124  -0.002727  -0.001518  -0.000063
     5  C    0.011496  -0.000391   0.005003   0.003764   0.002331   0.000109
     6  C   -0.109142  -0.000150  -0.010884  -0.010326   0.002228   0.007575
     7  C    0.128406   0.001148   0.002786   0.004200  -0.004520  -0.009877
     8  H    0.001148   0.000016   0.000042  -0.000014  -0.000060   0.000002
     9  H    0.002786   0.000042   0.001976   0.000662  -0.000015  -0.000086
    10  H    0.004200  -0.000014   0.000662   0.002057   0.000049  -0.000269
    11  H   -0.004520  -0.000060  -0.000015   0.000049  -0.000976   0.000938
    12  H   -0.009877   0.000002  -0.000086  -0.000269   0.000938   0.000274
    13  H   -0.006415   0.000027  -0.000025  -0.000043   0.000201   0.000615
    14  H    0.000334  -0.000008   0.000104   0.000034  -0.000002  -0.000002
              13         14
     1  O   -0.000125  -0.000321
     2  O    0.002561   0.000011
     3  O    0.000003   0.000342
     4  O   -0.001201  -0.000012
     5  C    0.002067   0.000849
     6  C    0.002410  -0.001378
     7  C   -0.006415   0.000334
     8  H    0.000027  -0.000008
     9  H   -0.000025   0.000104
    10  H   -0.000043   0.000034
    11  H    0.000201  -0.000002
    12  H    0.000615  -0.000002
    13  H    0.000427  -0.000002
    14  H   -0.000002  -0.000062
 Mulliken charges and spin densities:
               1          2
     1  O   -0.136083  -0.000735
     2  O    0.047979   0.288936
     3  O   -0.270062   0.000648
     4  O   -0.177851   0.694039
     5  C   -0.175800  -0.005254
     6  C   -0.253826   0.007192
     7  C   -0.401872   0.011565
     8  H    0.204703   0.000352
     9  H    0.181022   0.002364
    10  H    0.206647   0.001194
    11  H    0.174145   0.000034
    12  H    0.162485  -0.000720
    13  H    0.153118   0.000500
    14  H    0.285395  -0.000114
 Sum of Mulliken charges =  -0.00000   1.00000
 Mulliken charges and spin densities with hydrogens summed into heavy atoms:
               1          2
     1  O   -0.136083  -0.000735
     2  O    0.047979   0.288936
     3  O    0.015333   0.000534
     4  O   -0.177851   0.694039
     5  C    0.028904  -0.004902
     6  C    0.133843   0.010750
     7  C    0.087875   0.011379
 APT charges:
               1
     1  O   -0.193124
     2  O   -0.072010
     3  O   -0.737695
     4  O   -0.125746
     5  C   -0.403057
     6  C   -0.562120
     7  C   -1.046799
     8  H    0.411334
     9  H    0.407001
    10  H    0.397466
    11  H    0.365868
    12  H    0.346577
    13  H    0.483245
    14  H    0.729060
 Sum of APT charges =  -0.00000
 APT charges with hydrogens summed into heavy atoms:
               1
     1  O   -0.193124
     2  O   -0.072010
     3  O   -0.008636
     4  O   -0.125746
     5  C    0.008278
     6  C    0.242347
     7  C    0.148891
 Electronic spatial extent (au):  <R**2>=            847.9286
 Charge=             -0.0000 electrons
 Dipole moment (field-independent basis, Debye):
    X=             -2.3695    Y=             -0.1853    Z=              0.3491  Tot=              2.4022
 Quadrupole moment (field-independent basis, Debye-Ang):
   XX=            -44.0771   YY=            -39.5819   ZZ=            -42.1604
   XY=              6.6573   XZ=             -1.5451   YZ=              0.1350
 Traceless Quadrupole moment (field-independent basis, Debye-Ang):
   XX=             -2.1373   YY=              2.3579   ZZ=             -0.2206
   XY=              6.6573   XZ=             -1.5451   YZ=              0.1350
 Octapole moment (field-independent basis, Debye-Ang**2):
  XXX=            -43.5861  YYY=             -5.0628  ZZZ=              0.6107  XYY=             -3.8819
  XXY=             -7.6735  XXZ=              5.5827  XZZ=              0.7484  YZZ=             -1.3195
  YYZ=              0.8547  XYZ=              2.2392
 Hexadecapole moment (field-independent basis, Debye-Ang**3):
 XXXX=           -586.0330 YYYY=           -218.5059 ZZZZ=           -118.4404 XXXY=             52.0921
 XXXZ=            -15.9732 YYYX=              0.3296 YYYZ=              0.6326 ZZZX=             -4.4364
 ZZZY=              2.5269 XXYY=           -141.3258 XXZZ=           -135.8649 YYZZ=            -57.6111
 XXYZ=             -6.3990 YYXZ=              0.3285 ZZXY=              0.2596
 N-N= 3.314681227413D+02 E-N=-1.648519696418D+03  KE= 4.178669088295D+02
  Exact polarizability:   0.000   0.000   0.000   0.000   0.000   0.000
 Approx polarizability:  68.566  -3.463  58.176  -8.496   2.211  66.901
                          Isotropic Fermi Contact Couplings
        Atom                 a.u.       MegaHertz       Gauss      10(-4) cm-1
     1  O(17)             -0.00060       0.36628       0.13070       0.12218
     2  O(17)              0.07129     -43.21805     -15.42127     -14.41599
     3  O(17)             -0.00023       0.14232       0.05078       0.04747
     4  O(17)              0.10640     -64.50134     -23.01568     -21.51533
     5  C(13)             -0.01368     -15.37860      -5.48747      -5.12975
     6  C(13)              0.00557       6.26301       2.23480       2.08911
     7  C(13)              0.00494       5.55433       1.98192       1.85272
     8  H(1)              -0.00038      -1.68308      -0.60057      -0.56142
     9  H(1)              -0.00025      -1.11082      -0.39637      -0.37053
    10  H(1)               0.00015       0.69057       0.24641       0.23035
    11  H(1)              -0.00005      -0.20632      -0.07362      -0.06882
    12  H(1)              -0.00043      -1.94269      -0.69320      -0.64801
    13  H(1)              -0.00032      -1.40961      -0.50298      -0.47020
    14  H(1)              -0.00002      -0.10373      -0.03701      -0.03460
 --------------------------------------------------------
       Center         ----  Spin Dipole Couplings  ----
                      3XX-RR        3YY-RR        3ZZ-RR
 --------------------------------------------------------
     1   Atom        0.005951     -0.001126     -0.004825
     2   Atom       -0.287315      1.175661     -0.888346
     3   Atom        0.001993     -0.002027      0.000034
     4   Atom       -0.560535      2.044709     -1.484174
     5   Atom        0.012693     -0.003210     -0.009483
     6   Atom        0.006192     -0.008700      0.002508
     7   Atom       -0.008962      0.011359     -0.002397
     8   Atom        0.008945     -0.003762     -0.005183
     9   Atom        0.007948     -0.002393     -0.005556
    10   Atom        0.009159     -0.008579     -0.000580
    11   Atom       -0.003179      0.005503     -0.002324
    12   Atom        0.001856      0.001260     -0.003116
    13   Atom       -0.004086      0.009046     -0.004960
    14   Atom        0.002174     -0.001093     -0.001081
 --------------------------------------------------------
                        XY            XZ            YZ
 --------------------------------------------------------
     1   Atom        0.007520      0.003292      0.002058
     2   Atom        1.022378      0.114362      0.164455
     3   Atom       -0.001717     -0.002028      0.002243
     4   Atom        1.816562      0.175405      0.277726
     5   Atom       -0.012110     -0.000270     -0.000289
     6   Atom        0.006023      0.012141      0.013046
     7   Atom       -0.006119     -0.001022     -0.015899
     8   Atom       -0.007347     -0.007949      0.003898
     9   Atom        0.006295      0.000506      0.000013
    10   Atom        0.000907      0.008338      0.000890
    11   Atom       -0.008198      0.002933     -0.006881
    12   Atom       -0.004694      0.000800     -0.001317
    13   Atom       -0.003431     -0.000017      0.001267
    14   Atom        0.000154     -0.000278      0.000005
 --------------------------------------------------------


 ---------------------------------------------------------------------------------
              Anisotropic Spin Dipole Couplings in Principal Axis System
 ---------------------------------------------------------------------------------

       Atom             a.u.   MegaHertz   Gauss  10(-4) cm-1        Axes

              Baa    -0.0059     0.427     0.152     0.142 -0.5593  0.8149  0.1524
     1 O(17)  Bbb    -0.0057     0.415     0.148     0.138 -0.1076 -0.2536  0.9613
              Bcc     0.0116    -0.842    -0.301    -0.281  0.8220  0.5212  0.2295
 
              Baa    -0.9106    65.893    23.512    21.979 -0.2658  0.0544  0.9625
     2 O(17)  Bbb    -0.8058    58.306    20.805    19.449  0.8490 -0.4597  0.2604
              Bcc     1.7164  -124.199   -44.317   -41.428  0.4566  0.8864  0.0760
 
              Baa    -0.0035     0.253     0.090     0.084  0.0854  0.8624 -0.4990
     3 O(17)  Bbb    -0.0009     0.065     0.023     0.022  0.6654  0.3235  0.6728
              Bcc     0.0044    -0.317    -0.113    -0.106  0.7416 -0.3895 -0.5462
 
              Baa    -1.5307   110.759    39.521    36.945 -0.5722  0.2296  0.7873
     4 O(17)  Bbb    -1.4706   106.412    37.971    35.495  0.6817 -0.4006  0.6122
              Bcc     3.0013  -217.171   -77.492   -72.440  0.4560  0.8870  0.0728
 
              Baa    -0.0100    -1.344    -0.480    -0.448  0.3882  0.7152  0.5812
     5 C(13)  Bbb    -0.0092    -1.236    -0.441    -0.412 -0.2735 -0.5128  0.8138
              Bcc     0.0192     2.580     0.921     0.861  0.8800 -0.4749 -0.0035
 
              Baa    -0.0175    -2.342    -0.836    -0.781  0.0948  0.8059 -0.5844
     6 C(13)  Bbb    -0.0049    -0.657    -0.234    -0.219  0.7615 -0.4368 -0.4789
              Bcc     0.0223     2.999     1.070     1.000  0.6412  0.3996  0.6551
 
              Baa    -0.0157    -2.108    -0.752    -0.703  0.5612  0.5098  0.6520
     7 C(13)  Bbb    -0.0068    -0.908    -0.324    -0.303  0.8148 -0.2017 -0.5436
              Bcc     0.0225     3.016     1.076     1.006 -0.1456  0.8363 -0.5286
 
              Baa    -0.0089    -4.753    -1.696    -1.585  0.2965 -0.2705  0.9159
     8 H(1)   Bbb    -0.0071    -3.786    -1.351    -1.263  0.4591  0.8814  0.1117
              Bcc     0.0160     8.538     3.047     2.848  0.8375 -0.3874 -0.3855
 
              Baa    -0.0057    -3.039    -1.084    -1.014 -0.2473  0.4678  0.8486
     9 H(1)   Bbb    -0.0052    -2.796    -0.998    -0.933 -0.3491  0.7739 -0.5284
              Bcc     0.0109     5.835     2.082     1.946  0.9039  0.4269  0.0280
 
              Baa    -0.0087    -4.630    -1.652    -1.544  0.0010  0.9939 -0.1103
    10 H(1)   Bbb    -0.0053    -2.847    -1.016    -0.950 -0.5009  0.0959  0.8602
              Bcc     0.0140     7.476     2.668     2.494  0.8655  0.0544  0.4979
 
              Baa    -0.0084    -4.508    -1.608    -1.504  0.7481  0.5897  0.3043
    11 H(1)   Bbb    -0.0054    -2.878    -1.027    -0.960 -0.4862  0.1749  0.8562
              Bcc     0.0138     7.386     2.635     2.464 -0.4517  0.7885 -0.4175
 
              Baa    -0.0037    -1.956    -0.698    -0.652  0.3375  0.5296  0.7782
    12 H(1)   Bbb    -0.0028    -1.508    -0.538    -0.503  0.6110  0.5057 -0.6091
              Bcc     0.0065     3.463     1.236     1.155  0.7161 -0.6810  0.1530
 
              Baa    -0.0053    -2.821    -1.007    -0.941 -0.5881 -0.2098  0.7811
    13 H(1)   Bbb    -0.0047    -2.509    -0.895    -0.837  0.7735  0.1360  0.6190
              Bcc     0.0100     5.330     1.902     1.778 -0.2361  0.9682  0.0823
 
              Baa    -0.0011    -0.598    -0.213    -0.199  0.0938 -0.6573  0.7478
    14 H(1)   Bbb    -0.0011    -0.579    -0.206    -0.193  0.0207  0.7522  0.6586
              Bcc     0.0022     1.176     0.420     0.392  0.9954  0.0463 -0.0841
 

 ---------------------------------------------------------------------------------

 No NMR shielding tensors so no spin-rotation constants.
 Leave Link  601 at Sun Apr 14 13:06:53 2019, MaxMem=   671088640 cpu:               8.2 elap:               0.4
 (Enter /shared/centos7/gaussian/g16/l701.exe)
 ... and contract with generalized density number  0.
 Compute integral second derivatives.
 Leave Link  701 at Sun Apr 14 13:06:54 2019, MaxMem=   671088640 cpu:               7.0 elap:               0.4
 (Enter /shared/centos7/gaussian/g16/l702.exe)
 L702 exits ... SP integral derivatives will be done elsewhere.
 Leave Link  702 at Sun Apr 14 13:06:54 2019, MaxMem=   671088640 cpu:               0.3 elap:               0.0
 (Enter /shared/centos7/gaussian/g16/l703.exe)
 Integral derivatives from FoFJK, PRISM(SPDF).
 Compute integral second derivatives, UseDBF=F ICtDFT=           0.
 Calling FoFJK, ICntrl=    100147 FMM=F ISym2X=0 I1Cent= 0 IOpClX= 1 NMat=1 NMatS=1 NMatT=0.
 FoFJK:  IHMeth= 1 ICntrl=  100147 DoSepK=F KAlg= 0 I1Cent=           0 FoldK=F
 IRaf=         0 NMat=       1 IRICut=       1 DoRegI=T DoRafI=F ISym2E= 0 IDoP0=0 IntGTp=1.
 FoFCou: FMM=F IPFlag=           0 FMFlag=      100000 FMFlg1=         800
         NFxFlg=           0 DoJE=F BraDBF=F KetDBF=F FulRan=T
         wScrn=  0.000000 ICntrl=    100147 IOpCl=  1 I1Cent=           0 NGrid=           0
         NMat0=    1 NMatS0=      1 NMatT0=    0 NMatD0=    1 NMtDS0=    0 NMtDT0=    0
 Symmetry not used in FoFCou.
 Leave Link  703 at Sun Apr 14 13:08:55 2019, MaxMem=   671088640 cpu:            2420.5 elap:             121.0
 (Enter /shared/centos7/gaussian/g16/l716.exe)
 Dipole        =-9.32228528D-01-7.28990689D-02 1.37330689D-01
 Polarizability= 0.00000000D+00 0.00000000D+00 0.00000000D+00
                 0.00000000D+00 0.00000000D+00 0.00000000D+00
 ***** Axes restored to original set *****
 -------------------------------------------------------------------
 Center     Atomic                   Forces (Hartrees/Bohr)
 Number     Number              X              Y              Z
 -------------------------------------------------------------------
      1        8          -0.000000466   -0.000000317   -0.000000378
      2        8           0.000000273   -0.000000093    0.000000502
      3        8          -0.000000829   -0.000000390   -0.000001141
      4        8           0.000000708   -0.000000070    0.000001387
      5        6           0.000000055    0.000000169    0.000000088
      6        6          -0.000000358   -0.000000502    0.000000114
      7        6           0.000000534    0.000000787    0.000000091
      8        1          -0.000000110    0.000000143   -0.000000446
      9        1          -0.000000517   -0.000001019    0.000000177
     10        1          -0.000000039   -0.000000678    0.000000643
     11        1           0.000000773    0.000000648    0.000000580
     12        1           0.000000381    0.000000889   -0.000000388
     13        1           0.000000801    0.000001221   -0.000000005
     14        1          -0.000001208   -0.000000790   -0.000001224
 -------------------------------------------------------------------
 Cartesian Forces:  Max     0.000001387 RMS     0.000000642
 FormGI is forming the generalized inverse of G from B-inverse, IUseBI=4.
 Leave Link  716 at Sun Apr 14 13:08:55 2019, MaxMem=   671088640 cpu:               0.5 elap:               0.0
 (Enter /shared/centos7/gaussian/g16/l103.exe)

 GradGradGradGradGradGradGradGradGradGradGradGradGradGradGradGradGradGrad
 Berny optimization.
 Red2BG is reusing G-inverse.
 Internal  Forces:  Max     0.000000137 RMS     0.000000039
 Search for a local minimum.
 Step number   1 out of a maximum of   69 on scan point     1 out of    37
 All quantities printed in internal units (Hartrees-Bohrs-Radians)
 RMS Force = .39391D-07 SwitMx=.10000D-02 MixMth= 2
 Mixed Optimization -- En-DIIS/RFO-DIIS
 Second derivative matrix not updated -- analytic derivatives used.
 ITU=  0
     Eigenvalues ---    0.00068   0.00249   0.00737   0.01010   0.03707
     Eigenvalues ---    0.04341   0.04490   0.04715   0.05651   0.05883
     Eigenvalues ---    0.06664   0.09897   0.12470   0.12497   0.13137
     Eigenvalues ---    0.14270   0.17981   0.18261   0.19243   0.23180
     Eigenvalues ---    0.27089   0.28597   0.29761   0.32266   0.33651
     Eigenvalues ---    0.34286   0.34612   0.34707   0.34824   0.35419
     Eigenvalues ---    0.37466   0.37944   0.46648   0.53135   0.55888
     Eigenvalues --- 1000.000001000.000001000.000001000.000001000.00000
     Eigenvalues --- 1000.000001000.000001000.000001000.000001000.00000
     Eigenvalues --- 1000.000001000.000001000.000001000.000001000.00000
     Eigenvalues --- 1000.000001000.000001000.000001000.000001000.00000
     Eigenvalues --- 1000.000001000.000001000.000001000.00000
 RFO step:  Lambda= 0.00000000D+00 EMin= 6.76318204D-04
 Linear search not attempted -- first point.
 Iteration  1 RMS(Cart)=  0.00000300 RMS(Int)=  0.00000000
 Iteration  2 RMS(Cart)=  0.00000000 RMS(Int)=  0.00000000
 Iteration  1 RMS(Cart)=  0.00000000 RMS(Int)=  0.00000000
 ITry= 1 IFail=0 DXMaxC= 1.38D-05 DCOld= 1.00D+10 DXMaxT= 3.00D-01 DXLimC= 3.00D+00 Rises=F
 Variable       Old X    -DE/DX   Delta X   Delta X   Delta X     New X
[...]
  Beta virt. eigenvalues --    4.07562   4.11973   4.13554   4.14323   4.18046
  Beta virt. eigenvalues --    4.19354   4.21017   4.26792   4.27875   4.31162
  Beta virt. eigenvalues --    4.35306   4.41757   4.43613   4.45549   4.52072
  Beta virt. eigenvalues --    4.53071   4.54614   4.54656   4.56983   4.61574
  Beta virt. eigenvalues --    4.66464   4.67500   4.68895   4.77850   4.79465
  Beta virt. eigenvalues --    4.84809   4.88595   4.95337   4.96621   4.97674
  Beta virt. eigenvalues --    5.06145   5.07035   5.13142   5.13961   5.14441
  Beta virt. eigenvalues --    5.18364   5.20996   5.23570   5.24449   5.25382
  Beta virt. eigenvalues --    5.26971   5.30928   5.34133   5.35189   5.39537
  Beta virt. eigenvalues --    5.42635   5.45955   5.50797   5.52786   5.56273
  Beta virt. eigenvalues --    5.58323   5.62332   5.65185   5.71320   5.75111
  Beta virt. eigenvalues --    5.80536   5.84751   5.98185   6.13079   6.38670
  Beta virt. eigenvalues --    6.43959   6.52966   6.55301   6.72561   6.87263
  Beta virt. eigenvalues --    6.88342   6.89853   6.90775   6.95718   7.01280
  Beta virt. eigenvalues --    7.03606   7.12478   7.16284   7.18363   7.20840
  Beta virt. eigenvalues --    7.26674   7.29446   7.31235   7.37163   7.46736
  Beta virt. eigenvalues --    7.62324   7.69118   7.77808   7.90936   7.98191
  Beta virt. eigenvalues --    8.00495  24.29695  24.41655  24.50312  49.97847
  Beta virt. eigenvalues --   50.01278  50.08513  50.09817
          Condensed to atoms (all electrons):
               1          2          3          4          5          6
     1  O    8.014510   0.005291   0.119753  -0.001079  -0.030821   0.143078
     2  O    0.005291   7.714402  -0.003777   0.174046   0.244092  -0.065496
     3  O    0.119753  -0.003777   7.993157  -0.000242   0.028555  -0.041709
     4  O   -0.001079   0.174046  -0.000242   8.025644  -0.031311   0.012426
     5  C   -0.030821   0.244092   0.028555  -0.031311   6.302976  -0.353071
     6  C    0.143078  -0.065496  -0.041709   0.012426  -0.353071   5.706062
     7  C   -0.010891  -0.063849  -0.026197  -0.004933  -0.231406  -0.019825
     8  H   -0.002095  -0.045412  -0.006594   0.005705   0.467673  -0.041744
     9  H   -0.027878   0.004872  -0.007798  -0.002410  -0.042976   0.437382
    10  H   -0.044190  -0.007223   0.008950   0.000044  -0.032581   0.427174
    11  H   -0.001259  -0.014313  -0.000027   0.002137   0.010224  -0.020176
    12  H    0.001724   0.008205   0.002326  -0.000832  -0.057002  -0.002605
    13  H    0.000478   0.000938  -0.000388  -0.001440  -0.061214   0.030499
    14  H   -0.030525   0.000241   0.204039   0.000096  -0.037337   0.041815
               7          8          9         10         11         12
     1  O   -0.010891  -0.002095  -0.027878  -0.044190  -0.001259   0.001724
     2  O   -0.063849  -0.045412   0.004872  -0.007223  -0.014313   0.008205
     3  O   -0.026197  -0.006594  -0.007798   0.008950  -0.000027   0.002326
     4  O   -0.004933   0.005705  -0.002410   0.000044   0.002137  -0.000832
     5  C   -0.231406   0.467673  -0.042976  -0.032581   0.010224  -0.057002
     6  C   -0.019825  -0.041744   0.437382   0.427174  -0.020176  -0.002605
     7  C    5.548150  -0.031161   0.002581  -0.001674   0.390048   0.432035
     8  H   -0.031161   0.451292  -0.004279   0.003761   0.004362  -0.003190
     9  H    0.002581  -0.004279   0.474088  -0.017624   0.000113  -0.000044
    10  H   -0.001674   0.003761  -0.017624   0.455843   0.001003   0.000301
    11  H    0.390048   0.004362   0.000113   0.001003   0.503891  -0.027290
    12  H    0.432035  -0.003190  -0.000044   0.000301  -0.027290   0.505277
    13  H    0.414711  -0.003589  -0.000267  -0.000234  -0.022862  -0.021339
    14  H    0.004283   0.000573   0.003208  -0.000189   0.000006  -0.000047
              13         14
     1  O    0.000478  -0.030525
     2  O    0.000938   0.000241
     3  O   -0.000388   0.204039
     4  O   -0.001440   0.000096
     5  C   -0.061214  -0.037337
     6  C    0.030499   0.041815
     7  C    0.414711   0.004283
     8  H   -0.003589   0.000573
     9  H   -0.000267   0.003208
    10  H   -0.000234  -0.000189
    11  H   -0.022862   0.000006
    12  H   -0.021339  -0.000047
    13  H    0.511584   0.000011
    14  H    0.000011   0.528432
          Atomic-Atomic Spin Densities.
               1          2          3          4          5          6
     1  O    0.000880  -0.000433   0.000381  -0.000205   0.005521  -0.011824
     2  O   -0.000433   0.452259   0.000273  -0.167561   0.069520  -0.047353
     3  O    0.000381   0.000273  -0.000026   0.000021   0.000637  -0.001178
     4  O   -0.000205  -0.167561   0.000021   0.856575  -0.030604   0.025650
     5  C    0.005521   0.069520   0.000637  -0.030604  -0.072377  -0.003182
     6  C   -0.011824  -0.047353  -0.001178   0.025650  -0.003182   0.164741
     7  C    0.005182  -0.029637   0.000024   0.017571   0.011501  -0.109132
     8  H   -0.000024  -0.000481   0.000012   0.000233  -0.000393  -0.000146
     9  H   -0.000059   0.004715   0.000268  -0.002125   0.005006  -0.010889
    10  H    0.000809   0.003008  -0.000013  -0.002727   0.003765  -0.010333
    11  H   -0.000399   0.001776   0.000003  -0.001518   0.002331   0.002226
    12  H   -0.000119   0.000282  -0.000097  -0.000063   0.000109   0.007578
    13  H   -0.000125   0.002560   0.000003  -0.001200   0.002064   0.002409
    14  H   -0.000321   0.000010   0.000342  -0.000011   0.000849  -0.001378
               7          8          9         10         11         12
     1  O    0.005182  -0.000024  -0.000059   0.000809  -0.000399  -0.000119
     2  O   -0.029637  -0.000481   0.004715   0.003008   0.001776   0.000282
     3  O    0.000024   0.000012   0.000268  -0.000013   0.000003  -0.000097
     4  O    0.017571   0.000233  -0.002125  -0.002727  -0.001518  -0.000063
     5  C    0.011501  -0.000393   0.005006   0.003765   0.002331   0.000109
     6  C   -0.109132  -0.000146  -0.010889  -0.010333   0.002226   0.007578
     7  C    0.128396   0.001146   0.002786   0.004204  -0.004517  -0.009880
     8  H    0.001146   0.000016   0.000042  -0.000014  -0.000060   0.000003
     9  H    0.002786   0.000042   0.001980   0.000663  -0.000015  -0.000086
    10  H    0.004204  -0.000014   0.000663   0.002064   0.000049  -0.000269
    11  H   -0.004517  -0.000060  -0.000015   0.000049  -0.000980   0.000938
    12  H   -0.009880   0.000003  -0.000086  -0.000269   0.000938   0.000274
    13  H   -0.006409   0.000028  -0.000025  -0.000043   0.000201   0.000615
    14  H    0.000334  -0.000008   0.000104   0.000034  -0.000002  -0.000002
              13         14
     1  O   -0.000125  -0.000321
     2  O    0.002560   0.000010
     3  O    0.000003   0.000342
     4  O   -0.001200  -0.000011
     5  C    0.002064   0.000849
     6  C    0.002409  -0.001378
     7  C   -0.006409   0.000334
     8  H    0.000028  -0.000008
     9  H   -0.000025   0.000104
    10  H   -0.000043   0.000034
    11  H    0.000201  -0.000002
    12  H    0.000615  -0.000002
    13  H    0.000424  -0.000002
    14  H   -0.000002  -0.000062
 Mulliken charges and spin densities:
               1          2
     1  O   -0.136095  -0.000736
     2  O    0.047982   0.288939
     3  O   -0.270050   0.000648
     4  O   -0.177852   0.694035
     5  C   -0.175802  -0.005254
     6  C   -0.253811   0.007189
     7  C   -0.401873   0.011568
     8  H    0.204699   0.000352
     9  H    0.181031   0.002366
    10  H    0.206639   0.001196
    11  H    0.174143   0.000032
    12  H    0.162482  -0.000720
    13  H    0.153112   0.000499
    14  H    0.285394  -0.000114
 Sum of Mulliken charges =  -0.00000   1.00000
 Mulliken charges and spin densities with hydrogens summed into heavy atoms:
               1          2
     1  O   -0.136095  -0.000736
     2  O    0.047982   0.288939
     3  O    0.015344   0.000534
     4  O   -0.177852   0.694035
     5  C    0.028897  -0.004902
     6  C    0.133860   0.010751
     7  C    0.087864   0.011380
 Electronic spatial extent (au):  <R**2>=            847.9434
 Charge=             -0.0000 electrons
 Dipole moment (field-independent basis, Debye):
    X=             -2.3692    Y=             -0.1850    Z=              0.3481  Tot=              2.4018
 Quadrupole moment (field-independent basis, Debye-Ang):
   XX=            -44.0769   YY=            -39.5823   ZZ=            -42.1605
   XY=              6.6593   XZ=             -1.5431   YZ=              0.1359
 Traceless Quadrupole moment (field-independent basis, Debye-Ang):
   XX=             -2.1370   YY=              2.3576   ZZ=             -0.2206
   XY=              6.6593   XZ=             -1.5431   YZ=              0.1359
 Octapole moment (field-independent basis, Debye-Ang**2):
  XXX=            -43.5813  YYY=             -5.0642  ZZZ=              0.6100  XYY=             -3.8860
  XXY=             -7.6760  XXZ=              5.5773  XZZ=              0.7497  YZZ=             -1.3191
  YYZ=              0.8548  XYZ=              2.2376
 Hexadecapole moment (field-independent basis, Debye-Ang**3):
 XXXX=           -586.0371 YYYY=           -218.5151 ZZZZ=           -118.4464 XXXY=             52.1056
 XXXZ=            -15.9577 YYYX=              0.3302 YYYZ=              0.6321 ZZZX=             -4.4348
 ZZZY=              2.5253 XXYY=           -141.3239 XXZZ=           -135.8704 YYZZ=            -57.6147
 XXYZ=             -6.3967 YYXZ=              0.3297 ZZXY=              0.2606
 N-N= 3.314666962081D+02 E-N=-1.648516829002D+03  KE= 4.178669312707D+02
                          Isotropic Fermi Contact Couplings
        Atom                 a.u.       MegaHertz       Gauss      10(-4) cm-1
     1  O(17)             -0.00060       0.36606       0.13062       0.12211
     2  O(17)              0.07129     -43.21860     -15.42147     -14.41617
     3  O(17)             -0.00023       0.14235       0.05079       0.04748
     4  O(17)              0.10640     -64.50097     -23.01555     -21.51521
     5  C(13)             -0.01368     -15.37915      -5.48766      -5.12993
     6  C(13)              0.00557       6.26194       2.23442       2.08876
     7  C(13)              0.00494       5.55579       1.98244       1.85321
     8  H(1)              -0.00038      -1.68273      -0.60044      -0.56130
     9  H(1)              -0.00025      -1.11080      -0.39636      -0.37052
    10  H(1)               0.00015       0.69219       0.24699       0.23089
    11  H(1)              -0.00005      -0.20740      -0.07400      -0.06918
    12  H(1)              -0.00043      -1.94218      -0.69302      -0.64784
    13  H(1)              -0.00032      -1.40958      -0.50297      -0.47019
    14  H(1)              -0.00002      -0.10373      -0.03701      -0.03460
 --------------------------------------------------------
       Center         ----  Spin Dipole Couplings  ----
                      3XX-RR        3YY-RR        3ZZ-RR
 --------------------------------------------------------
     1   Atom        0.005947     -0.001123     -0.004824
     2   Atom       -0.286974      1.175269     -0.888294
     3   Atom        0.001993     -0.002030      0.000037
     4   Atom       -0.559916      2.043994     -1.484077
     5   Atom        0.012690     -0.003206     -0.009484
     6   Atom        0.006196     -0.008708      0.002512
     7   Atom       -0.008966      0.011366     -0.002401
     8   Atom        0.008944     -0.003761     -0.005183
     9   Atom        0.007952     -0.002395     -0.005557
    10   Atom        0.009154     -0.008578     -0.000576
    11   Atom       -0.003184      0.005510     -0.002327
    12   Atom        0.001855      0.001261     -0.003117
    13   Atom       -0.004086      0.009045     -0.004959
    14   Atom        0.002174     -0.001093     -0.001081
 --------------------------------------------------------
                        XY            XZ            YZ
 --------------------------------------------------------
     1   Atom        0.007519      0.003294      0.002061
     2   Atom        1.022624      0.114564      0.164765
     3   Atom       -0.001716     -0.002028      0.002242
     4   Atom        1.816970      0.175738      0.278251
     5   Atom       -0.012113     -0.000270     -0.000290
     6   Atom        0.006017      0.012146      0.013039
     7   Atom       -0.006112     -0.001028     -0.015899
     8   Atom       -0.007348     -0.007948      0.003899
     9   Atom        0.006295      0.000509      0.000015
    10   Atom        0.000900      0.008338      0.000885
    11   Atom       -0.008197      0.002929     -0.006882
    12   Atom       -0.004694      0.000800     -0.001317
    13   Atom       -0.003429     -0.000017      0.001269
    14   Atom        0.000154     -0.000278      0.000005
 --------------------------------------------------------


 ---------------------------------------------------------------------------------
              Anisotropic Spin Dipole Couplings in Principal Axis System
 ---------------------------------------------------------------------------------

       Atom             a.u.   MegaHertz   Gauss  10(-4) cm-1        Axes

              Baa    -0.0059     0.427     0.152     0.142 -0.5594  0.8149  0.1517
     1 O(17)  Bbb    -0.0057     0.415     0.148     0.138 -0.1081 -0.2532  0.9614
              Bcc     0.0116    -0.842    -0.300    -0.281  0.8218  0.5214  0.2297
 
              Baa    -0.9106    65.893    23.512    21.980 -0.2658  0.0543  0.9625
     2 O(17)  Bbb    -0.8058    58.307    20.805    19.449  0.8489 -0.4599  0.2604
              Bcc     1.7164  -124.200   -44.318   -41.429  0.4568  0.8863  0.0762
 
              Baa    -0.0035     0.253     0.090     0.084  0.0855  0.8627 -0.4985
     3 O(17)  Bbb    -0.0009     0.065     0.023     0.022  0.6653  0.3230  0.6731
              Bcc     0.0044    -0.317    -0.113    -0.106  0.7417 -0.3892 -0.5463
 
              Baa    -1.5307   110.758    39.521    36.945 -0.5722  0.2296  0.7873
     4 O(17)  Bbb    -1.4706   106.412    37.970    35.495  0.6816 -0.4008  0.6122
              Bcc     3.0013  -217.170   -77.492   -72.440  0.4561  0.8869  0.0729
 
              Baa    -0.0100    -1.345    -0.480    -0.448  0.3881  0.7147  0.5818
     5 C(13)  Bbb    -0.0092    -1.236    -0.441    -0.412 -0.2739 -0.5133  0.8133
              Bcc     0.0192     2.581     0.921     0.861  0.8800 -0.4750 -0.0035
 
              Baa    -0.0175    -2.342    -0.836    -0.781  0.0950  0.8060 -0.5843
     6 C(13)  Bbb    -0.0049    -0.657    -0.235    -0.219  0.7613 -0.4370 -0.4790
              Bcc     0.0224     2.999     1.070     1.000  0.6414  0.3993  0.6551
 
              Baa    -0.0157    -2.108    -0.752    -0.703  0.5612  0.5096  0.6521
     7 C(13)  Bbb    -0.0068    -0.908    -0.324    -0.303  0.8148 -0.2019 -0.5435
              Bcc     0.0225     3.016     1.076     1.006 -0.1453  0.8364 -0.5286
 
              Baa    -0.0089    -4.753    -1.696    -1.585  0.2963 -0.2708  0.9159
     8 H(1)   Bbb    -0.0071    -3.785    -1.351    -1.263  0.4592  0.8812  0.1120
              Bcc     0.0160     8.538     3.047     2.848  0.8374 -0.3874 -0.3855
 
              Baa    -0.0057    -3.039    -1.085    -1.014 -0.2474  0.4677  0.8486
     9 H(1)   Bbb    -0.0052    -2.797    -0.998    -0.933 -0.3489  0.7741 -0.5283
              Bcc     0.0109     5.837     2.083     1.947  0.9039  0.4267  0.0283
 
              Baa    -0.0087    -4.628    -1.652    -1.544  0.0012  0.9939 -0.1099
    10 H(1)   Bbb    -0.0053    -2.846    -1.016    -0.949 -0.5010  0.0957  0.8602
              Bcc     0.0140     7.475     2.667     2.493  0.8655  0.0540  0.4981
 
              Baa    -0.0084    -4.508    -1.609    -1.504  0.7481  0.5895  0.3047
    11 H(1)   Bbb    -0.0054    -2.879    -1.027    -0.960 -0.4864  0.1747  0.8561
              Bcc     0.0138     7.387     2.636     2.464 -0.4514  0.7887 -0.4174
 
              Baa    -0.0037    -1.956    -0.698    -0.652  0.3373  0.5294  0.7784
    12 H(1)   Bbb    -0.0028    -1.508    -0.538    -0.503  0.6112  0.5057 -0.6088
              Bcc     0.0065     3.464     1.236     1.155  0.7160 -0.6811  0.1530
 
              Baa    -0.0053    -2.821    -1.007    -0.941 -0.5884 -0.2099  0.7809
    13 H(1)   Bbb    -0.0047    -2.509    -0.895    -0.837  0.7734  0.1357  0.6192
              Bcc     0.0100     5.330     1.902     1.778 -0.2360  0.9683  0.0825
 
              Baa    -0.0011    -0.598    -0.213    -0.199  0.0938 -0.6576  0.7475
    14 H(1)   Bbb    -0.0011    -0.579    -0.206    -0.193  0.0207  0.7519  0.6589
              Bcc     0.0022     1.176     0.420     0.392  0.9954  0.0463 -0.0841
 

 ---------------------------------------------------------------------------------

 No NMR shielding tensors so no spin-rotation constants.
 Leave Link  601 at Sun Apr 14 15:18:15 2019, MaxMem=   671088640 cpu:               8.7 elap:               0.5
 (Enter /shared/centos7/gaussian/g16/l9999.exe)
 1\1\GINC-C0221\Scan\UM062X\6-311+G(2df,2p)\C3H7O4(2)\UNDERKOFFLER.C\14
 -Apr-2019\0\\#p m062x/6-311+g(2df,2p) Opt=(CalcFC,ModRedun)\\Gaussian 
 Input Prepared from Scan Object\\0,2\O,1.5745470359,-0.3239786551,-3.3
 454841099\O,-1.3618052338,-0.8920622098,-1.2349251689\O,1.5848686667,1
 .0934295061,-3.2290969776\O,-1.5194745753,-2.1681327387,-1.3999986077\
 C,-0.0012468832,-0.4679054536,-1.5095916205\C,0.2888581594,-0.76414785
 8,-2.9768943773\C,0.9750303301,-1.1226918456,-0.5611575673\H,-0.047203
 0387,0.6083105971,-1.3533426919\H,-0.4743684151,-0.3124409659,-3.61534
 75293\H,0.3101382569,-1.8419201761,-3.1397459618\H,0.9603548075,-2.203
 3619308,-0.692463316\H,1.9765902564,-0.7546123374,-0.775958394\H,0.724
 0854275,-0.8849244366,0.4707867316\H,1.7231073764,1.3594235421,-4.1451
 973329\\Version=EM64L-G16RevA.03\State=2-A\HF=-419.1708247,-419.170750
 3,-419.1704886,-419.1699864,-419.1692072,-419.1681403,-419.1668102,-41
 9.165279,-419.1636498,-419.1620647,-419.1606917,-419.159688,-419.15916
 86,-419.1591811,-419.1596933,-419.1606064,-419.1617903,-419.1631261,-4
 19.1645263,-419.1658887,-419.1670737,-419.1680051,-419.1686708,-419.16
 91008,-419.1693477,-419.1694729,-419.1695331,-419.1695735,-419.1696318
 ,-419.1697261,-419.1698594,-419.1700294,-419.170226,-419.1704312,-419.
 1706213,-419.1707657,-419.1708247\S2=0.755471,0.755471,0.75547,0.75546
 8,0.755466,0.755463,0.75546,0.755457,0.755452,0.755445,0.755438,0.7554
 31,0.755425,0.755422,0.755419,0.75542,0.755423,0.755429,0.75543,0.7554
 3,0.755434,0.755441,0.755447,0.755453,0.755458,0.755463,0.755466,0.755
 467,0.755466,0.755465,0.755465,0.755466,0.755468,0.755469,0.75547,0.75
 5471,0.755471\S2-1=0.,0.,0.,0.,0.,0.,0.,0.,0.,0.,0.,0.,0.,0.,0.,0.,0.,
 0.,0.,0.,0.,0.,0.,0.,0.,0.,0.,0.,0.,0.,0.,0.,0.,0.,0.,0.,0.\S2A=0.7500
 17,0.750017,0.750017,0.750017,0.750017,0.750017,0.750017,0.750017,0.75
 0017,0.750017,0.750017,0.750017,0.750017,0.750017,0.750017,0.750017,0.
 750017,0.750017,0.750017,0.750017,0.750017,0.750017,0.750017,0.750017,
 0.750017,0.750017,0.750017,0.750017,0.750017,0.750017,0.750017,0.75001
 7,0.750017,0.750017,0.750017,0.750017,0.750017\RMSD=6.868e-09,2.342e-0
 9,5.588e-09,9.358e-09,8.566e-09,2.159e-09,7.906e-09,5.741e-09,9.434e-0
 9,4.720e-09,9.775e-09,7.709e-09,7.039e-09,9.735e-09,5.338e-09,8.580e-0
 9,4.240e-09,4.151e-09,4.380e-09,4.909e-09,4.375e-09,9.777e-09,7.716e-0
 9,4.201e-09,2.719e-09,1.061e-09,6.829e-09,1.784e-09,3.348e-09,2.033e-0
 9,7.910e-09,6.134e-09,6.985e-09,2.997e-09,6.352e-09,5.302e-09,4.271e-0
 9\PG=C01 [X(C3H7O4)]\\@


 UNDER MOST GREENE GRASSE LY MOST GREATE SNAKES.
 -- PROVERBS AND REASONS OF THE YEAR 1585
           AS REPRINTED IN PAISLEY MAGAZINE 1828.
 Job cpu time:       1 days 21 hours 40 minutes 59.6 seconds.
 Elapsed time:       0 days  2 hours 17 minutes 38.9 seconds.
 File lengths (MBytes):  RWF=   1408 Int=      0 D2E=      0 Chk=     32 Scr=     32
 Normal termination of Gaussian 16 at Sun Apr 14 15:18:15 2019.
