 Entering Gaussian System, Link 0=g16
 Input=NPWGWQRXHVJJRD-UHFFFAOYSA-N_tor03.com
 Output=NPWGWQRXHVJJRD-UHFFFAOYSA-N_tor03.log
 Initial command:
 /shared/centos7/gaussian/g16/l1.exe "/scratch/underkoffler.c/gaussian_scratch/Gau-45324.inp" -scrdir="/scratch/underkoffler.c/gaussian_scratch/"
 Entering Link 1 = /shared/centos7/gaussian/g16/l1.exe PID=     45325.
  
 Copyright (c) 1988,1990,1992,1993,1995,1998,2003,2009,2016,
            Gaussian, Inc.  All Rights Reserved.
  
 This is part of the Gaussian(R) 16 program.  It is based on
 the Gaussian(R) 09 system (copyright 2009, Gaussian, Inc.),
 the Gaussian(R) 03 system (copyright 2003, Gaussian, Inc.),
 the Gaussian(R) 98 system (copyright 1998, Gaussian, Inc.),
 the Gaussian(R) 94 system (copyright 1995, Gaussian, Inc.),
 the Gaussian 92(TM) system (copyright 1992, Gaussian, Inc.),
 the Gaussian 90(TM) system (copyright 1990, Gaussian, Inc.),
 the Gaussian 88(TM) system (copyright 1988, Gaussian, Inc.),
 the Gaussian 86(TM) system (copyright 1986, Carnegie Mellon
 University), and the Gaussian 82(TM) system (copyright 1983,
 Carnegie Mellon University). Gaussian is a federally registered
 trademark of Gaussian, Inc.
  
 This software contains proprietary and confidential information,
 including trade secrets, belonging to Gaussian, Inc.
  
 This software is provided under written license and may be
 used, copied, transmitted, or stored only in accord with that
 written license.
  
 The following legend is applicable only to US Government
 contracts under FAR:
  
                    RESTRICTED RIGHTS LEGEND
  
 Use, reproduction and disclosure by the US Government is
 subject to restrictions as set forth in subparagraphs (a)
 and (c) of the Commercial Computer Software - Restricted
 Rights clause in FAR 52.227-19.
  
 Gaussian, Inc.
 340 Quinnipiac St., Bldg. 40, Wallingford CT 06492
  
  
 ---------------------------------------------------------------
 Warning -- This program may not be used in any manner that
 competes with the business of Gaussian, Inc. or will provide
 assistance to any competitor of Gaussian, Inc.  The licensee
 of this program is prohibited from giving any competitor of
 Gaussian, Inc. access to this program.  By using this program,
 the user acknowledges that Gaussian, Inc. is engaged in the
 business of creating and licensing software in the field of
 computational chemistry and represents and warrants to the
 licensee that it is not a competitor of Gaussian, Inc. and that
 it will not use this program in any manner prohibited above.
 ---------------------------------------------------------------
  

 Cite this work as:
 Gaussian 16, Revision A.03,
 M. J. Frisch, G. W. Trucks, H. B. Schlegel, G. E. Scuseria, 
 M. A. Robb, J. R. Cheeseman, G. Scalmani, V. Barone, 
 G. A. Petersson, H. Nakatsuji, X. Li, M. Caricato, A. V. Marenich, 
 J. Bloino, B. G. Janesko, R. Gomperts, B. Mennucci, H. P. Hratchian, 
 J. V. Ortiz, A. F. Izmaylov, J. L. Sonnenberg, D. Williams-Young, 
 F. Ding, F. Lipparini, F. Egidi, J. Goings, B. Peng, A. Petrone, 
 T. Henderson, D. Ranasinghe, V. G. Zakrzewski, J. Gao, N. Rega, 
 G. Zheng, W. Liang, M. Hada, M. Ehara, K. Toyota, R. Fukuda, 
 J. Hasegawa, M. Ishida, T. Nakajima, Y. Honda, O. Kitao, H. Nakai, 
 T. Vreven, K. Throssell, J. A. Montgomery, Jr., J. E. Peralta, 
 F. Ogliaro, M. J. Bearpark, J. J. Heyd, E. N. Brothers, K. N. Kudin, 
 V. N. Staroverov, T. A. Keith, R. Kobayashi, J. Normand, 
 K. Raghavachari, A. P. Rendell, J. C. Burant, S. S. Iyengar, 
 J. Tomasi, M. Cossi, J. M. Millam, M. Klene, C. Adamo, R. Cammi, 
 J. W. Ochterski, R. L. Martin, K. Morokuma, O. Farkas, 
 J. B. Foresman, and D. J. Fox, Gaussian, Inc., Wallingford CT, 2016.
 
 ******************************************
 Gaussian 16:  EM64L-G16RevA.03 25-Dec-2016
                28-Feb-2019 
 ******************************************
 %nprocshared=20
 Will use up to   20 processors via shared memory.
 %mem=5GB
 ----------------------------------------------
 #p m062x/6-311+g(2df,2p) Opt=(CalcFC,ModRedun)
 ----------------------------------------------
 1/10=4,18=120,19=15,26=3,38=1/1,3;
 2/9=110,12=2,17=6,18=5,40=1/2;
 3/5=4,6=6,7=214,11=2,25=1,30=1,71=2,74=-55,140=1/1,2,3;
 4//1;
 5/5=2,38=5/2;
 8/6=4,10=90,11=11/1;
 11/6=1,8=1,9=11,15=111,16=1/1,2,10;
 10/6=1,13=1/2;
 6/7=2,8=2,9=2,10=2,28=1/1;
 7/10=1,18=20,25=1/1,2,3,16;
 1/10=4,18=20,19=15,26=3/3(2);
 2/9=110/2;
 99//99;
 2/9=110/2;
 3/5=4,6=6,7=214,11=2,25=1,30=1,71=1,74=-55/1,2,3;
 4/5=5,16=3,69=1/1;
 5/5=2,38=5/2;
 7//1,2,3,16;
 1/18=20,19=15,26=3/3(-5);
 2/9=110/2;
 6/7=2,8=2,9=2,10=2,19=2,28=1/1;
 99/9=1/99;
 Leave Link    1 at Thu Feb 28 14:34:34 2019, MaxMem=   671088640 cpu:              28.3 elap:               1.5
 (Enter /shared/centos7/gaussian/g16/l101.exe)
 ----------------------------------------
 Gaussian Input Prepared from Scan Object
 ----------------------------------------
 Symbolic Z-matrix:
 Charge =  0 Multiplicity = 1
 O                     1.95822   0.93172   0.0305 
 O                    -1.9554    0.72555   0.16231 
 O                    -2.11243  -1.40351  -0.44923 
 N                     0.67558   0.5829    0.4819 
 C                     0.07997  -0.46054  -0.33698 
 C                    -1.44029  -0.44886  -0.20628 
 H                     0.30728  -0.21758  -1.37617 
 H                     0.43573  -1.4733   -0.13348 
 H                     0.76196   0.28523   1.44919 
 H                     2.50985   0.13927   0.05147 
 H                    -1.22066   1.33901   0.32668 
 
 The following ModRedundant input section has been read:
 B       2      11 B                                                           
 B       2       6 B                                                           
 B       3       6 B                                                           
 B       1      10 B                                                           
 B       5       6 B                                                           
 B       4       9 B                                                           
 B       5       8 B                                                           
 B       1       4 B                                                           
 B       4       5 B                                                           
 B       5       7 B                                                           
 D      10       1       4       5 S  36 10.000                                
 
 ITRead=  0  0  0  0  0  0  0  0  0  0  0
 MicOpt= -1 -1 -1 -1 -1 -1 -1 -1 -1 -1 -1
 NAtoms=     11 NQM=       11 NQMF=       0 NMMI=      0 NMMIF=      0
                NMic=       0 NMicF=      0.
                    Isotopes and Nuclear Properties:
 (Nuclear quadrupole moments (NQMom) in fm**2, nuclear magnetic moments (NMagM)
  in nuclear magnetons)

  Atom         1           2           3           4           5           6           7           8           9          10
 IAtWgt=          16          16          16          14          12          12           1           1           1           1
 AtmWgt=  15.9949146  15.9949146  15.9949146  14.0030740  12.0000000  12.0000000   1.0078250   1.0078250   1.0078250   1.0078250
 NucSpn=           0           0           0           2           0           0           1           1           1           1
 AtZEff=  -0.0000000  -0.0000000  -0.0000000  -0.0000000  -0.0000000  -0.0000000  -0.0000000  -0.0000000  -0.0000000  -0.0000000
 NQMom=    0.0000000   0.0000000   0.0000000   2.0440000   0.0000000   0.0000000   0.0000000   0.0000000   0.0000000   0.0000000
 NMagM=    0.0000000   0.0000000   0.0000000   0.4037610   0.0000000   0.0000000   2.7928460   2.7928460   2.7928460   2.7928460
 AtZNuc=   8.0000000   8.0000000   8.0000000   7.0000000   6.0000000   6.0000000   1.0000000   1.0000000   1.0000000   1.0000000

  Atom        11
 IAtWgt=           1
 AtmWgt=   1.0078250
 NucSpn=           1
 AtZEff=  -0.0000000
 NQMom=    0.0000000
 NMagM=    2.7928460
 AtZNuc=   1.0000000
 Leave Link  101 at Thu Feb 28 14:34:34 2019, MaxMem=   671088640 cpu:               6.4 elap:               0.4
 (Enter /shared/centos7/gaussian/g16/l103.exe)

 GradGradGradGradGradGradGradGradGradGradGradGradGradGradGradGradGradGrad
 Berny optimization.
 Initialization pass.
                           ----------------------------
                           !    Initial Parameters    !
                           ! (Angstroms and Degrees)  !
 --------------------------                            --------------------------
 ! Name  Definition              Value          Derivative Info.                !
 --------------------------------------------------------------------------------
 ! R1    R(1,4)                  1.4038         calculate D2E/DX2 analytically  !
 ! R2    R(1,10)                 0.9658         calculate D2E/DX2 analytically  !
 ! R3    R(2,6)                  1.3343         calculate D2E/DX2 analytically  !
 ! R4    R(2,11)                 0.9712         calculate D2E/DX2 analytically  !
 ! R5    R(3,6)                  1.1925         calculate D2E/DX2 analytically  !
 ! R6    R(4,5)                  1.454          calculate D2E/DX2 analytically  !
 ! R7    R(4,9)                  1.0157         calculate D2E/DX2 analytically  !
 ! R8    R(5,6)                  1.5259         calculate D2E/DX2 analytically  !
 ! R9    R(5,7)                  1.0912         calculate D2E/DX2 analytically  !
 ! R10   R(5,8)                  1.0925         calculate D2E/DX2 analytically  !
 ! A1    A(4,1,10)             108.1205         calculate D2E/DX2 analytically  !
 ! A2    A(6,2,11)             108.0983         calculate D2E/DX2 analytically  !
 ! A3    A(1,4,5)              111.8084         calculate D2E/DX2 analytically  !
 ! A4    A(1,4,9)              107.5383         calculate D2E/DX2 analytically  !
 ! A5    A(5,4,9)              111.1535         calculate D2E/DX2 analytically  !
 ! A6    A(4,5,6)              110.7555         calculate D2E/DX2 analytically  !
 ! A7    A(4,5,7)              106.9324         calculate D2E/DX2 analytically  !
 ! A8    A(4,5,8)              115.2734         calculate D2E/DX2 analytically  !
 ! A9    A(6,5,7)              106.704          calculate D2E/DX2 analytically  !
 ! A10   A(6,5,8)              108.395          calculate D2E/DX2 analytically  !
 ! A11   A(7,5,8)              108.4189         calculate D2E/DX2 analytically  !
 ! A12   A(2,6,3)              122.9063         calculate D2E/DX2 analytically  !
 ! A13   A(2,6,5)              114.5203         calculate D2E/DX2 analytically  !
 ! A14   A(3,6,5)              122.5444         calculate D2E/DX2 analytically  !
 ! D1    D(10,1,4,5)           -58.7176         Scan                            !
 ! D2    D(10,1,4,9)            63.5647         calculate D2E/DX2 analytically  !
 ! D3    D(11,2,6,3)           178.5728         calculate D2E/DX2 analytically  !
 ! D4    D(11,2,6,5)            -3.3409         calculate D2E/DX2 analytically  !
 ! D5    D(1,4,5,6)           -157.8851         calculate D2E/DX2 analytically  !
 ! D6    D(1,4,5,7)            -41.9928         calculate D2E/DX2 analytically  !
 ! D7    D(1,4,5,8)             78.6028         calculate D2E/DX2 analytically  !
 ! D8    D(9,4,5,6)             81.926          calculate D2E/DX2 analytically  !
 ! D9    D(9,4,5,7)           -162.1818         calculate D2E/DX2 analytically  !
 ! D10   D(9,4,5,8)            -41.5862         calculate D2E/DX2 analytically  !
 ! D11   D(4,5,6,2)             24.1776         calculate D2E/DX2 analytically  !
 ! D12   D(4,5,6,3)           -157.7284         calculate D2E/DX2 analytically  !
 ! D13   D(7,5,6,2)            -91.8564         calculate D2E/DX2 analytically  !
 ! D14   D(7,5,6,3)             86.2376         calculate D2E/DX2 analytically  !
 ! D15   D(8,5,6,2)            151.5638         calculate D2E/DX2 analytically  !
 ! D16   D(8,5,6,3)            -30.3421         calculate D2E/DX2 analytically  !
 --------------------------------------------------------------------------------
 Trust Radius=3.00D-01 FncErr=1.00D-07 GrdErr=1.00D-06 EigMax=2.50D+02 EigMin=1.00D-04
 Number of optimizations in scan=  37
 Number of steps in this run=     50 maximum allowed number of steps=    100.
 GradGradGradGradGradGradGradGradGradGradGradGradGradGradGradGradGradGrad

 Leave Link  103 at Thu Feb 28 14:34:34 2019, MaxMem=   671088640 cpu:               0.2 elap:               0.0
 (Enter /shared/centos7/gaussian/g16/l202.exe)
                          Input orientation:                          
 ---------------------------------------------------------------------
 Center     Atomic      Atomic             Coordinates (Angstroms)
 Number     Number       Type             X           Y           Z
 ---------------------------------------------------------------------
      1          8           0        1.958218    0.931716    0.030496
      2          8           0       -1.955399    0.725553    0.162308
      3          8           0       -2.112435   -1.403508   -0.449229
      4          7           0        0.675576    0.582898    0.481901
      5          6           0        0.079969   -0.460542   -0.336984
      6          6           0       -1.440289   -0.448857   -0.206275
      7          1           0        0.307284   -0.217576   -1.376173
      8          1           0        0.435733   -1.473297   -0.133484
      9          1           0        0.761956    0.285235    1.449193
     10          1           0        2.509845    0.139270    0.051471
     11          1           0       -1.220657    1.339008    0.326676
 ---------------------------------------------------------------------
                    Distance matrix (angstroms):
                    1          2          3          4          5
     1  O    0.000000
     2  O    3.921259   0.000000
     3  O    4.717374   2.220706   0.000000
     4  N    1.403784   2.654152   3.547650   0.000000
     5  C    2.366694   2.408077   2.389229   1.453990   0.000000
     6  C    3.675853   1.334327   1.192545   2.452548   1.525912
     7  H    2.454622   2.894157   2.849684   2.056413   1.091155
     8  H    2.851129   3.261893   2.568603   2.159667   1.092544
     9  H    1.965116   3.038745   3.836402   1.015736   2.052247
    10  H    0.965766   4.504933   4.898605   1.935618   2.532779
    11  H    3.218518   0.971179   2.986417   2.047315   2.317424
                    6          7          8          9         10
     6  C    0.000000
     7  H    2.115694   0.000000
     8  H    2.138746   1.771330   0.000000
     9  H    2.851202   2.905553   2.388247   0.000000
    10  H    4.001986   2.648921   2.633728   2.242777   0.000000
    11  H    1.878493   2.767174   3.296125   2.510227   3.928328
                   11
    11  H    0.000000
 Stoichiometry    C2H5NO3
 Framework group  C1[X(C2H5NO3)]
 Deg. of freedom    27
 Full point group                 C1      NOp   1
 Largest Abelian subgroup         C1      NOp   1
 Largest concise Abelian subgroup C1      NOp   1
                         Standard orientation:                         
 ---------------------------------------------------------------------
 Center     Atomic      Atomic             Coordinates (Angstroms)
 Number     Number       Type             X           Y           Z
 ---------------------------------------------------------------------
      1          8           0        2.489568    0.001589   -0.207874
      2          8           0       -1.227273    1.247054   -0.106967
      3          8           0       -2.157277   -0.761642    0.071281
      4          7           0        1.218653    0.303079    0.306409
      5          6           0        0.223907   -0.674639   -0.104244
      6          6           0       -1.180649   -0.083826   -0.023208
      7          1           0        0.410958   -0.895677   -1.156277
      8          1           0        0.235423   -1.614175    0.453244
      9          1           0        1.299090    0.341365    1.318231
     10          1           0        2.739852   -0.876880    0.105740
     11          1           0       -0.315579    1.578597   -0.152599
 ---------------------------------------------------------------------
 Rotational constants (GHZ):           9.4500572           2.0136928           1.7248846
 Leave Link  202 at Thu Feb 28 14:34:34 2019, MaxMem=   671088640 cpu:               0.3 elap:               0.0
 (Enter /shared/centos7/gaussian/g16/l301.exe)
 Standard basis: 6-311+G(2df,2p) (5D, 7F)
 Ernie: Thresh=  0.10000D-02 Tol=  0.10000D-05 Strict=F.
 There are   279 symmetry adapted cartesian basis functions of A   symmetry.
 There are   249 symmetry adapted basis functions of A   symmetry.
   249 basis functions,   367 primitive gaussians,   279 cartesian basis functions
    24 alpha electrons       24 beta electrons
       nuclear repulsion energy       244.2112063277 Hartrees.
 IExCor= 4336 DFT=T Ex+Corr=M062X ExCW=0 ScaHFX=  0.540000
 ScaDFX=  1.000000  1.000000  1.000000  1.000000 ScalE2=  1.000000  1.000000
 IRadAn=      5 IRanWt=     -1 IRanGd=            0 ICorTp=0 IEmpDi=  4
 NAtoms=   11 NActive=   11 NUniq=   11 SFac= 1.00D+00 NAtFMM=   60 NAOKFM=F Big=F
 Integral buffers will be    131072 words long.
 Raffenetti 2 integral format.
 Two-electron integral symmetry is turned on.
 Leave Link  301 at Thu Feb 28 14:34:34 2019, MaxMem=   671088640 cpu:               1.3 elap:               0.1
 (Enter /shared/centos7/gaussian/g16/l302.exe)
 NPDir=0 NMtPBC=     1 NCelOv=     1 NCel=       1 NClECP=     1 NCelD=      1
         NCelK=      1 NCelE2=     1 NClLst=     1 CellRange=     0.0.
 One-electron integrals computed using PRISM.
 One-electron integral symmetry used in STVInt
 NBasis=   249 RedAO= T EigKep=  7.74D-05  NBF=   249
 NBsUse=   249 1.00D-06 EigRej= -1.00D+00 NBFU=   249
 Precomputing XC quadrature grid using
 IXCGrd= 4 IRadAn=           5 IRanWt=          -1 IRanGd=           0 AccXCQ= 0.00D+00.
 Generated NRdTot=       0 NPtTot=           0 NUsed=           0 NTot=          32
 NSgBfM=   279   279   279   279   279 MxSgAt=    11 MxSgA2=    11.
 Leave Link  302 at Thu Feb 28 14:34:35 2019, MaxMem=   671088640 cpu:               7.6 elap:               0.4
 (Enter /shared/centos7/gaussian/g16/l303.exe)
 DipDrv:  MaxL=1.
 Leave Link  303 at Thu Feb 28 14:34:35 2019, MaxMem=   671088640 cpu:               0.6 elap:               0.1
 (Enter /shared/centos7/gaussian/g16/l401.exe)
 ExpMin= 4.38D-02 ExpMax= 8.59D+03 ExpMxC= 1.30D+03 IAcc=3 IRadAn=         5 AccDes= 0.00D+00
 Harris functional with IExCor= 1009 and IRadAn=       5 diagonalized for initial guess.
 HarFok:  IExCor= 1009 AccDes= 0.00D+00 IRadAn=         5 IDoV= 1 UseB2=F ITyADJ=14
 ICtDFT=  3500011 ScaDFX=  1.000000  1.000000  1.000000  1.000000
 FoFCou: FMM=F IPFlag=           0 FMFlag=      100000 FMFlg1=           0
         NFxFlg=           0 DoJE=T BraDBF=F KetDBF=T FulRan=T
         wScrn=  0.000000 ICntrl=       500 IOpCl=  0 I1Cent=   200000004 NGrid=           0
         NMat0=    1 NMatS0=      1 NMatT0=    0 NMatD0=    1 NMtDS0=    0 NMtDT0=    0
 Petite list used in FoFCou.
 Harris En= -359.412546648492    
 JPrj=0 DoOrth=F DoCkMO=F.
 Leave Link  401 at Thu Feb 28 14:34:36 2019, MaxMem=   671088640 cpu:              25.0 elap:               1.3
 (Enter /shared/centos7/gaussian/g16/l502.exe)
 Keep R1 ints in memory in canonical form, NReq=506568544.
 FoFCou: FMM=F IPFlag=           0 FMFlag=           0 FMFlg1=           0
         NFxFlg=           0 DoJE=F BraDBF=F KetDBF=F FulRan=T
         wScrn=  0.000000 ICntrl=       600 IOpCl=  0 I1Cent=           0 NGrid=           0
         NMat0=    1 NMatS0=  31125 NMatT0=    0 NMatD0=    1 NMtDS0=    0 NMtDT0=    0
 Symmetry not used in FoFCou.
 Two-electron integral symmetry not used.
 Closed shell SCF:
 Using DIIS extrapolation, IDIIS=  1040.
 NGot=   671088640 LenX=   186526494 LenY=   186448212
 Requested convergence on RMS density matrix=1.00D-08 within 128 cycles.
 Requested convergence on MAX density matrix=1.00D-06.
 Requested convergence on             energy=1.00D-06.
 No special actions if energy rises.

 Cycle   1  Pass 1  IDiag  1:
 E= -359.427453040535    
 DIIS: error= 2.47D-02 at cycle   1 NSaved=   1.
 NSaved= 1 IEnMin= 1 EnMin= -359.427453040535     IErMin= 1 ErrMin= 2.47D-02
 ErrMax= 2.47D-02  0.00D+00 EMaxC= 1.00D-01 BMatC= 2.72D-01 BMatP= 2.72D-01
 IDIUse=3 WtCom= 7.53D-01 WtEn= 2.47D-01
 Coeff-Com:  0.100D+01
 Coeff-En:   0.100D+01
 Coeff:      0.100D+01
 Gap=     0.417 Goal=   None    Shift=    0.000
 GapD=    0.417 DampG=2.000 DampE=0.500 DampFc=1.0000 IDamp=-1.
 RMSDP=3.01D-03 MaxDP=9.14D-02              OVMax= 1.98D-01

 Cycle   2  Pass 1  IDiag  1:
 E= -359.400262054097     Delta-E=        0.027190986439 Rises=F Damp=F
 DIIS: error= 2.66D-02 at cycle   2 NSaved=   2.
 NSaved= 2 IEnMin= 1 EnMin= -359.427453040535     IErMin= 1 ErrMin= 2.47D-02
 ErrMax= 2.66D-02  0.00D+00 EMaxC= 1.00D-01 BMatC= 2.73D-01 BMatP= 2.72D-01
 IDIUse=3 WtCom= 7.34D-01 WtEn= 2.66D-01
 Coeff-Com:  0.500D+00 0.500D+00
 Coeff-En:   0.541D+00 0.459D+00
 Coeff:      0.511D+00 0.489D+00
 Gap=     0.363 Goal=   None    Shift=    0.000
 RMSDP=1.61D-03 MaxDP=6.94D-02 DE= 2.72D-02 OVMax= 1.12D-01

 Cycle   3  Pass 1  IDiag  1:
 E= -359.575478579336     Delta-E=       -0.175216525239 Rises=F Damp=F
 DIIS: error= 5.50D-03 at cycle   3 NSaved=   3.
 NSaved= 3 IEnMin= 3 EnMin= -359.575478579336     IErMin= 3 ErrMin= 5.50D-03
 ErrMax= 5.50D-03  0.00D+00 EMaxC= 1.00D-01 BMatC= 1.21D-02 BMatP= 2.72D-01
 IDIUse=3 WtCom= 9.45D-01 WtEn= 5.50D-02
 Coeff-Com:  0.121D+00 0.205D+00 0.674D+00
 Coeff-En:   0.000D+00 0.000D+00 0.100D+01
 Coeff:      0.115D+00 0.193D+00 0.692D+00
 Gap=     0.356 Goal=   None    Shift=    0.000
 RMSDP=3.53D-04 MaxDP=1.36D-02 DE=-1.75D-01 OVMax= 4.32D-02

 Cycle   4  Pass 1  IDiag  1:
 E= -359.582524459847     Delta-E=       -0.007045880511 Rises=F Damp=F
 DIIS: error= 2.07D-03 at cycle   4 NSaved=   4.
 NSaved= 4 IEnMin= 4 EnMin= -359.582524459847     IErMin= 4 ErrMin= 2.07D-03
 ErrMax= 2.07D-03  0.00D+00 EMaxC= 1.00D-01 BMatC= 2.52D-03 BMatP= 1.21D-02
 IDIUse=3 WtCom= 9.79D-01 WtEn= 2.07D-02
 Coeff-Com:  0.326D-02 0.413D-01 0.360D+00 0.595D+00
 Coeff-En:   0.000D+00 0.000D+00 0.153D+00 0.847D+00
 Coeff:      0.319D-02 0.405D-01 0.356D+00 0.600D+00
 Gap=     0.349 Goal=   None    Shift=    0.000
 RMSDP=1.27D-04 MaxDP=5.81D-03 DE=-7.05D-03 OVMax= 1.27D-02

 Cycle   5  Pass 1  IDiag  1:
 E= -359.584305106222     Delta-E=       -0.001780646375 Rises=F Damp=F
 DIIS: error= 5.97D-04 at cycle   5 NSaved=   5.
 NSaved= 5 IEnMin= 5 EnMin= -359.584305106222     IErMin= 5 ErrMin= 5.97D-04
 ErrMax= 5.97D-04  0.00D+00 EMaxC= 1.00D-01 BMatC= 9.88D-05 BMatP= 2.52D-03
 IDIUse=3 WtCom= 9.94D-01 WtEn= 5.97D-03
 Coeff-Com: -0.411D-02 0.822D-02 0.130D+00 0.274D+00 0.593D+00
 Coeff-En:   0.000D+00 0.000D+00 0.000D+00 0.000D+00 0.100D+01
 Coeff:     -0.409D-02 0.817D-02 0.129D+00 0.272D+00 0.595D+00
 Gap=     0.346 Goal=   None    Shift=    0.000
 RMSDP=2.78D-05 MaxDP=1.29D-03 DE=-1.78D-03 OVMax= 3.46D-03

 Cycle   6  Pass 1  IDiag  1:
 E= -359.584374513912     Delta-E=       -0.000069407690 Rises=F Damp=F
 DIIS: error= 1.08D-04 at cycle   6 NSaved=   6.
 NSaved= 6 IEnMin= 6 EnMin= -359.584374513912     IErMin= 6 ErrMin= 1.08D-04
 ErrMax= 1.08D-04  0.00D+00 EMaxC= 1.00D-01 BMatC= 7.45D-06 BMatP= 9.88D-05
 IDIUse=3 WtCom= 9.99D-01 WtEn= 1.08D-03
 Coeff-Com: -0.194D-02-0.134D-02 0.125D-01 0.372D-01 0.234D+00 0.719D+00
 Coeff-En:   0.000D+00 0.000D+00 0.000D+00 0.000D+00 0.000D+00 0.100D+01
 Coeff:     -0.193D-02-0.134D-02 0.125D-01 0.372D-01 0.234D+00 0.720D+00
 Gap=     0.347 Goal=   None    Shift=    0.000
 RMSDP=1.08D-05 MaxDP=3.80D-04 DE=-6.94D-05 OVMax= 5.69D-04

 Cycle   7  Pass 1  IDiag  1:
 E= -359.584380831261     Delta-E=       -0.000006317349 Rises=F Damp=F
 DIIS: error= 3.20D-05 at cycle   7 NSaved=   7.
 NSaved= 7 IEnMin= 7 EnMin= -359.584380831261     IErMin= 7 ErrMin= 3.20D-05
 ErrMax= 3.20D-05  0.00D+00 EMaxC= 1.00D-01 BMatC= 4.56D-07 BMatP= 7.45D-06
 IDIUse=1 WtCom= 1.00D+00 WtEn= 0.00D+00
 Coeff-Com:  0.397D-04-0.133D-02-0.882D-02-0.208D-01-0.748D-02 0.113D+00
 Coeff-Com:  0.926D+00
 Coeff:      0.397D-04-0.133D-02-0.882D-02-0.208D-01-0.748D-02 0.113D+00
 Coeff:      0.926D+00
 Gap=     0.347 Goal=   None    Shift=    0.000
 RMSDP=4.47D-06 MaxDP=1.16D-04 DE=-6.32D-06 OVMax= 3.55D-04

 Cycle   8  Pass 1  IDiag  1:
 E= -359.584381391463     Delta-E=       -0.000000560202 Rises=F Damp=F
 DIIS: error= 1.51D-05 at cycle   8 NSaved=   8.
 NSaved= 8 IEnMin= 8 EnMin= -359.584381391463     IErMin= 8 ErrMin= 1.51D-05
 ErrMax= 1.51D-05  0.00D+00 EMaxC= 1.00D-01 BMatC= 1.29D-07 BMatP= 4.56D-07
 IDIUse=1 WtCom= 1.00D+00 WtEn= 0.00D+00
 Coeff-Com:  0.206D-03-0.511D-03-0.466D-02-0.129D-01-0.250D-01-0.294D-01
 Coeff-Com:  0.413D+00 0.659D+00
 Coeff:      0.206D-03-0.511D-03-0.466D-02-0.129D-01-0.250D-01-0.294D-01
 Coeff:      0.413D+00 0.659D+00
 Gap=     0.347 Goal=   None    Shift=    0.000
 RMSDP=1.39D-06 MaxDP=5.47D-05 DE=-5.60D-07 OVMax= 9.26D-05

 Cycle   9  Pass 1  IDiag  1:
 E= -359.584381505130     Delta-E=       -0.000000113667 Rises=F Damp=F
 DIIS: error= 4.11D-06 at cycle   9 NSaved=   9.
 NSaved= 9 IEnMin= 9 EnMin= -359.584381505130     IErMin= 9 ErrMin= 4.11D-06
 ErrMax= 4.11D-06  0.00D+00 EMaxC= 1.00D-01 BMatC= 9.75D-09 BMatP= 1.29D-07
 IDIUse=1 WtCom= 1.00D+00 WtEn= 0.00D+00
 Coeff-Com:  0.429D-04 0.108D-04 0.130D-03-0.721D-03-0.484D-02-0.261D-01
 Coeff-Com: -0.123D-01 0.185D+00 0.859D+00
 Coeff:      0.429D-04 0.108D-04 0.130D-03-0.721D-03-0.484D-02-0.261D-01
 Coeff:     -0.123D-01 0.185D+00 0.859D+00
 Gap=     0.347 Goal=   None    Shift=    0.000
 RMSDP=5.66D-07 MaxDP=1.91D-05 DE=-1.14D-07 OVMax= 4.65D-05

 Cycle  10  Pass 1  IDiag  1:
 E= -359.584381514931     Delta-E=       -0.000000009801 Rises=F Damp=F
 DIIS: error= 1.50D-06 at cycle  10 NSaved=  10.
 NSaved=10 IEnMin=10 EnMin= -359.584381514931     IErMin=10 ErrMin= 1.50D-06
 ErrMax= 1.50D-06  0.00D+00 EMaxC= 1.00D-01 BMatC= 1.51D-09 BMatP= 9.75D-09
 IDIUse=1 WtCom= 1.00D+00 WtEn= 0.00D+00
 Coeff-Com: -0.875D-06 0.559D-04 0.557D-03 0.949D-03 0.641D-03-0.815D-02
 Coeff-Com: -0.461D-01 0.100D-01 0.369D+00 0.672D+00
 Coeff:     -0.875D-06 0.559D-04 0.557D-03 0.949D-03 0.641D-03-0.815D-02
 Coeff:     -0.461D-01 0.100D-01 0.369D+00 0.672D+00
 Gap=     0.347 Goal=   None    Shift=    0.000
 RMSDP=1.76D-07 MaxDP=6.31D-06 DE=-9.80D-09 OVMax= 1.09D-05

 Cycle  11  Pass 1  IDiag  1:
 E= -359.584381516230     Delta-E=       -0.000000001299 Rises=F Damp=F
 DIIS: error= 3.46D-07 at cycle  11 NSaved=  11.
 NSaved=11 IEnMin=11 EnMin= -359.584381516230     IErMin=11 ErrMin= 3.46D-07
 ErrMax= 3.46D-07  0.00D+00 EMaxC= 1.00D-01 BMatC= 6.93D-11 BMatP= 1.51D-09
 IDIUse=1 WtCom= 1.00D+00 WtEn= 0.00D+00
 Coeff-Com: -0.367D-05 0.125D-04 0.126D-03 0.251D-03 0.540D-03-0.183D-03
 Coeff-Com: -0.113D-01-0.143D-01 0.292D-01 0.181D+00 0.814D+00
 Coeff:     -0.367D-05 0.125D-04 0.126D-03 0.251D-03 0.540D-03-0.183D-03
 Coeff:     -0.113D-01-0.143D-01 0.292D-01 0.181D+00 0.814D+00
 Gap=     0.347 Goal=   None    Shift=    0.000
 RMSDP=4.31D-08 MaxDP=1.14D-06 DE=-1.30D-09 OVMax= 3.20D-06

 Cycle  12  Pass 1  IDiag  1:
 E= -359.584381516302     Delta-E=       -0.000000000073 Rises=F Damp=F
 DIIS: error= 1.16D-07 at cycle  12 NSaved=  12.
 NSaved=12 IEnMin=12 EnMin= -359.584381516302     IErMin=12 ErrMin= 1.16D-07
 ErrMax= 1.16D-07  0.00D+00 EMaxC= 1.00D-01 BMatC= 9.37D-12 BMatP= 6.93D-11
 IDIUse=1 WtCom= 1.00D+00 WtEn= 0.00D+00
 Coeff-Com: -0.128D-05 0.532D-06 0.397D-05 0.135D-04 0.160D-03 0.566D-03
 Coeff-Com: -0.418D-03-0.658D-02-0.206D-01 0.948D-02 0.303D+00 0.714D+00
 Coeff:     -0.128D-05 0.532D-06 0.397D-05 0.135D-04 0.160D-03 0.566D-03
 Coeff:     -0.418D-03-0.658D-02-0.206D-01 0.948D-02 0.303D+00 0.714D+00
 Gap=     0.347 Goal=   None    Shift=    0.000
 RMSDP=1.46D-08 MaxDP=4.19D-07 DE=-7.26D-11 OVMax= 9.11D-07

 Cycle  13  Pass 1  IDiag  1:
 E= -359.584381516310     Delta-E=       -0.000000000007 Rises=F Damp=F
 DIIS: error= 3.63D-08 at cycle  13 NSaved=  13.
 NSaved=13 IEnMin=13 EnMin= -359.584381516310     IErMin=13 ErrMin= 3.63D-08
 ErrMax= 3.63D-08  0.00D+00 EMaxC= 1.00D-01 BMatC= 9.21D-13 BMatP= 9.37D-12
 IDIUse=1 WtCom= 1.00D+00 WtEn= 0.00D+00
 Coeff-Com:  0.107D-06-0.127D-05-0.145D-04-0.278D-04-0.903D-05 0.206D-03
 Coeff-Com:  0.147D-02-0.119D-03-0.107D-01-0.234D-01-0.174D-01 0.229D+00
 Coeff-Com:  0.821D+00
 Coeff:      0.107D-06-0.127D-05-0.145D-04-0.278D-04-0.903D-05 0.206D-03
 Coeff:      0.147D-02-0.119D-03-0.107D-01-0.234D-01-0.174D-01 0.229D+00
 Coeff:      0.821D+00
 Gap=     0.347 Goal=   None    Shift=    0.000
 RMSDP=5.27D-09 MaxDP=1.78D-07 DE=-7.16D-12 OVMax= 4.52D-07

 SCF Done:  E(RM062X) =  -359.584381516     A.U. after   13 cycles
            NFock= 13  Conv=0.53D-08     -V/T= 2.0031
 KE= 3.584644767133D+02 PE=-1.333485542777D+03 EE= 3.712254782192D+02
 Leave Link  502 at Thu Feb 28 14:35:13 2019, MaxMem=   671088640 cpu:             517.7 elap:              37.1
 (Enter /shared/centos7/gaussian/g16/l801.exe)
 DoSCS=F DFT=T ScalE2(SS,OS)=  1.000000  1.000000
 Range of M.O.s used for correlation:     1   249
 NBasis=   249 NAE=    24 NBE=    24 NFC=     0 NFV=     0
 NROrb=    249 NOA=    24 NOB=    24 NVA=   225 NVB=   225

 **** Warning!!: The largest alpha MO coefficient is  0.35891818D+02

 Leave Link  801 at Thu Feb 28 14:35:13 2019, MaxMem=   671088640 cpu:               0.5 elap:               0.0
 (Enter /shared/centos7/gaussian/g16/l1101.exe)
 Using compressed storage, NAtomX=    11.
 Will process     12 centers per pass.
 Leave Link 1101 at Thu Feb 28 14:35:14 2019, MaxMem=   671088640 cpu:               8.2 elap:               0.4
 (Enter /shared/centos7/gaussian/g16/l1102.exe)
 Symmetrizing basis deriv contribution to polar:
 IMax=3 JMax=2 DiffMx= 0.00D+00
 Leave Link 1102 at Thu Feb 28 14:35:14 2019, MaxMem=   671088640 cpu:               0.9 elap:               0.1
 (Enter /shared/centos7/gaussian/g16/l1110.exe)
 Forming Gx(P) for the SCF density, NAtomX=    11.
 Integral derivatives from FoFJK, PRISM(SPDF).
 Do as many integral derivatives as possible in FoFJK.
 G2DrvN: MDV=     671087712.
 G2DrvN: will do    12 centers at a time, making    1 passes.
 Calling FoFCou, ICntrl=  3107 FMM=F I1Cent=   0 AccDes= 0.00D+00.
 FoFJK:  IHMeth= 1 ICntrl=    3107 DoSepK=F KAlg= 0 I1Cent=           0 FoldK=F
 IRaf=         0 NMat=       1 IRICut=       1 DoRegI=T DoRafI=F ISym2E= 0 IDoP0=0 IntGTp=1.
 FoFCou: FMM=F IPFlag=           0 FMFlag=      100000 FMFlg1=           0
         NFxFlg=           0 DoJE=F BraDBF=F KetDBF=F FulRan=T
         wScrn=  0.000000 ICntrl=      3107 IOpCl=  0 I1Cent=           0 NGrid=           0
         NMat0=    1 NMatS0=      1 NMatT0=    0 NMatD0=    1 NMtDS0=    0 NMtDT0=    0
 Symmetry not used in FoFCou.
 End of G2Drv F.D. properties file   721 does not exist.
 End of G2Drv F.D. properties file   722 does not exist.
 End of G2Drv F.D. properties file   788 does not exist.
 Leave Link 1110 at Thu Feb 28 14:36:17 2019, MaxMem=   671088640 cpu:            1259.7 elap:              63.0
 (Enter /shared/centos7/gaussian/g16/l1002.exe)
 Minotr:  Closed shell wavefunction.
          IDoAtm=11111111111
          Direct CPHF calculation.
          Differentiating once with respect to nuclear coordinates.
          Requested convergence is 1.0D-08 RMS, and 1.0D-07 maximum.
          Secondary convergence is 1.0D-12 RMS, and 1.0D-12 maximum.
          NewPWx=T KeepS1=F KeepF1=F KeepIn=T MapXYZ=F SortEE=F KeepMc=T.
         3349 words used for storage of precomputed grid.
 Keep R1 ints in memory in canonical form, NReq=506509632.
 FoFCou: FMM=F IPFlag=           0 FMFlag=           0 FMFlg1=           0
         NFxFlg=           0 DoJE=F BraDBF=F KetDBF=F FulRan=T
         wScrn=  0.000000 ICntrl=       600 IOpCl=  0 I1Cent=           0 NGrid=           0
         NMat0=    1 NMatS0=  31125 NMatT0=    0 NMatD0=    1 NMtDS0=    0 NMtDT0=    0
 Symmetry not used in FoFCou.
 Two-electron integral symmetry not used.
          MDV=     671088640 using IRadAn=       1.
          Solving linear equations simultaneously, MaxMat=       0.
          There are    36 degrees of freedom in the 1st order CPHF.  IDoFFX=6 NUNeed=     0.
     30 vectors produced by pass  0 Test12= 1.50D-14 2.78D-09 XBig12= 6.48D-02 7.26D-02.
 AX will form    30 AO Fock derivatives at one time.
     30 vectors produced by pass  1 Test12= 1.50D-14 2.78D-09 XBig12= 1.16D-02 2.39D-02.
     30 vectors produced by pass  2 Test12= 1.50D-14 2.78D-09 XBig12= 4.73D-04 4.43D-03.
     30 vectors produced by pass  3 Test12= 1.50D-14 2.78D-09 XBig12= 6.05D-06 4.03D-04.
     30 vectors produced by pass  4 Test12= 1.50D-14 2.78D-09 XBig12= 6.03D-08 3.43D-05.
     30 vectors produced by pass  5 Test12= 1.50D-14 2.78D-09 XBig12= 3.90D-10 2.62D-06.
     27 vectors produced by pass  6 Test12= 1.50D-14 2.78D-09 XBig12= 2.18D-12 2.13D-07.
      6 vectors produced by pass  7 Test12= 1.50D-14 2.78D-09 XBig12= 9.74D-15 1.49D-08.
 InvSVY:  IOpt=1 It=  1 EMax= 1.22D-15
 Solved reduced A of dimension   213 with    30 vectors.
 End of Minotr F.D. properties file   721 does not exist.
 End of Minotr F.D. properties file   722 does not exist.
 End of Minotr F.D. properties file   788 does not exist.
 Leave Link 1002 at Thu Feb 28 14:37:32 2019, MaxMem=   671088640 cpu:            1497.1 elap:              75.0
 (Enter /shared/centos7/gaussian/g16/l601.exe)
 Copying SCF densities to generalized density rwf, IOpCl= 0 IROHF=0.

 **********************************************************************

            Population analysis using the SCF density.

 **********************************************************************

 Orbital symmetries:
       Occupied  (A) (A) (A) (A) (A) (A) (A) (A) (A) (A) (A) (A)
                 (A) (A) (A) (A) (A) (A) (A) (A) (A) (A) (A) (A)
       Virtual   (A) (A) (A) (A) (A) (A) (A) (A) (A) (A) (A) (A)
                 (A) (A) (A) (A) (A) (A) (A) (A) (A) (A) (A) (A)
                 (A) (A) (A) (A) (A) (A) (A) (A) (A) (A) (A) (A)
                 (A) (A) (A) (A) (A) (A) (A) (A) (A) (A) (A) (A)
                 (A) (A) (A) (A) (A) (A) (A) (A) (A) (A) (A) (A)
                 (A) (A) (A) (A) (A) (A) (A) (A) (A) (A) (A) (A)
                 (A) (A) (A) (A) (A) (A) (A) (A) (A) (A) (A) (A)
                 (A) (A) (A) (A) (A) (A) (A) (A) (A) (A) (A) (A)
                 (A) (A) (A) (A) (A) (A) (A) (A) (A) (A) (A) (A)
                 (A) (A) (A) (A) (A) (A) (A) (A) (A) (A) (A) (A)
                 (A) (A) (A) (A) (A) (A) (A) (A) (A) (A) (A) (A)
                 (A) (A) (A) (A) (A) (A) (A) (A) (A) (A) (A) (A)
                 (A) (A) (A) (A) (A) (A) (A) (A) (A) (A) (A) (A)
                 (A) (A) (A) (A) (A) (A) (A) (A) (A) (A) (A) (A)
                 (A) (A) (A) (A) (A) (A) (A) (A) (A) (A) (A) (A)
                 (A) (A) (A) (A) (A) (A) (A) (A) (A) (A) (A) (A)
                 (A) (A) (A) (A) (A) (A) (A) (A) (A) (A) (A) (A)
                 (A) (A) (A) (A) (A) (A) (A) (A) (A) (A) (A) (A)
                 (A) (A) (A) (A) (A) (A) (A) (A) (A)
 The electronic state is 1-A.
 Alpha  occ. eigenvalues --  -19.68614 -19.67303 -19.61856 -14.83013 -10.68398
 Alpha  occ. eigenvalues --  -10.60280  -1.24474  -1.22955  -1.15567  -0.98375
 Alpha  occ. eigenvalues --   -0.82143  -0.70785  -0.66498  -0.63783  -0.60120
 Alpha  occ. eigenvalues --   -0.55979  -0.54095  -0.51664  -0.48819  -0.46972
 Alpha  occ. eigenvalues --   -0.42023  -0.40172  -0.36679  -0.35462
 Alpha virt. eigenvalues --   -0.00794   0.02023   0.02686   0.03873   0.04262
 Alpha virt. eigenvalues --    0.07034   0.07334   0.07895   0.09912   0.10708
 Alpha virt. eigenvalues --    0.12102   0.13325   0.15922   0.18184   0.19055
 Alpha virt. eigenvalues --    0.19259   0.20098   0.20550   0.22103   0.22569
 Alpha virt. eigenvalues --    0.23102   0.25325   0.26312   0.27011   0.28189
 Alpha virt. eigenvalues --    0.28957   0.29910   0.31198   0.33187   0.34144
 Alpha virt. eigenvalues --    0.34898   0.35957   0.36960   0.44015   0.45008
 Alpha virt. eigenvalues --    0.47461   0.51591   0.53975   0.54224   0.55850
 Alpha virt. eigenvalues --    0.57444   0.59325   0.60633   0.62916   0.64006
 Alpha virt. eigenvalues --    0.66793   0.67129   0.67984   0.70330   0.74320
 Alpha virt. eigenvalues --    0.77287   0.78321   0.80911   0.85604   0.87544
 Alpha virt. eigenvalues --    0.88491   0.89415   0.92170   0.93356   0.99196
 Alpha virt. eigenvalues --    1.02368   1.05040   1.06535   1.07827   1.10908
 Alpha virt. eigenvalues --    1.13650   1.13829   1.15864   1.16915   1.18846
 Alpha virt. eigenvalues --    1.20618   1.21990   1.23454   1.25747   1.27840
 Alpha virt. eigenvalues --    1.31102   1.32512   1.36828   1.40666   1.41366
 Alpha virt. eigenvalues --    1.43412   1.47418   1.48470   1.50978   1.53954
 Alpha virt. eigenvalues --    1.56154   1.58628   1.61260   1.64970   1.69121
 Alpha virt. eigenvalues --    1.70134   1.72606   1.78052   1.78377   1.82756
 Alpha virt. eigenvalues --    1.87341   1.92439   1.93558   2.05216   2.07896
 Alpha virt. eigenvalues --    2.10667   2.21483   2.25898   2.29134   2.31882
 Alpha virt. eigenvalues --    2.35163   2.37474   2.47660   2.51830   2.60956
 Alpha virt. eigenvalues --    2.62979   2.65974   2.74530   2.78966   2.81880
 Alpha virt. eigenvalues --    2.85131   2.88556   2.99001   3.02707   3.06266
 Alpha virt. eigenvalues --    3.09313   3.12284   3.14403   3.21517   3.23974
 Alpha virt. eigenvalues --    3.26693   3.31961   3.36831   3.38163   3.40427
 Alpha virt. eigenvalues --    3.48273   3.50283   3.51669   3.53234   3.54006
 Alpha virt. eigenvalues --    3.56667   3.62102   3.65663   3.66024   3.71287
 Alpha virt. eigenvalues --    3.72939   3.76506   3.82643   3.85969   3.90485
 Alpha virt. eigenvalues --    3.92183   3.95885   3.99823   4.04437   4.06567
 Alpha virt. eigenvalues --    4.08852   4.13648   4.17088   4.20174   4.22413
 Alpha virt. eigenvalues --    4.25709   4.28160   4.34400   4.39308   4.46051
 Alpha virt. eigenvalues --    4.60284   4.63582   4.67244   4.73552   4.84912
 Alpha virt. eigenvalues --    4.92609   5.05402   5.07366   5.07788   5.10421
 Alpha virt. eigenvalues --    5.11606   5.14591   5.15562   5.19272   5.21061
 Alpha virt. eigenvalues --    5.21875   5.23660   5.24146   5.31636   5.33425
 Alpha virt. eigenvalues --    5.39088   5.41369   5.44735   5.50013   5.53138
 Alpha virt. eigenvalues --    5.53967   5.56423   5.58574   5.61021   5.67304
 Alpha virt. eigenvalues --    5.68488   5.83437   5.92638   5.98764   6.01809
 Alpha virt. eigenvalues --    6.06382   6.22737   6.38722   6.59325   6.79265
 Alpha virt. eigenvalues --    6.82744   6.88668   6.91263   6.92856   6.97900
 Alpha virt. eigenvalues --    7.10271   7.12231   7.14692   7.14890   7.17921
 Alpha virt. eigenvalues --    7.26176   7.27457   7.36143   7.41062   7.45078
 Alpha virt. eigenvalues --    7.61471   7.64713   7.66296   7.73116  24.41605
 Alpha virt. eigenvalues --   24.83469  35.74475  50.07092  50.13030  50.30724
          Condensed to atoms (all electrons):
               1          2          3          4          5          6
     1  O    7.933589  -0.004426   0.000408   0.071383  -0.013096   0.022242
     2  O   -0.004426   7.940879  -0.062217   0.035648  -0.081384   0.221550
     3  O    0.000408  -0.062217   8.135639   0.005609  -0.072269   0.376848
     4  N    0.071383   0.035648   0.005609   7.094564   0.040625  -0.109955
     5  C   -0.013096  -0.081384  -0.072269   0.040625   5.249143   0.157181
     6  C    0.022242   0.221550   0.376848  -0.109955   0.157181   5.177544
     7  H    0.007737  -0.000942   0.000104  -0.047783   0.432693  -0.041358
     8  H   -0.005497   0.006780  -0.003291  -0.034055   0.444247  -0.046876
     9  H   -0.027242  -0.006311   0.000108   0.316623  -0.013672   0.006369
    10  H    0.217199  -0.000354   0.000149  -0.039755  -0.007123   0.002547
    11  H   -0.003354   0.230298  -0.003972   0.016103  -0.025047   0.038997
               7          8          9         10         11
     1  O    0.007737  -0.005497  -0.027242   0.217199  -0.003354
     2  O   -0.000942   0.006780  -0.006311  -0.000354   0.230298
     3  O    0.000104  -0.003291   0.000108   0.000149  -0.003972
     4  N   -0.047783  -0.034055   0.316623  -0.039755   0.016103
     5  C    0.432693   0.444247  -0.013672  -0.007123  -0.025047
     6  C   -0.041358  -0.046876   0.006369   0.002547   0.038997
     7  H    0.496857  -0.031278   0.005177  -0.003681  -0.001570
     8  H   -0.031278   0.511612  -0.010905   0.008569   0.000965
     9  H    0.005177  -0.010905   0.499254  -0.013814  -0.002188
    10  H   -0.003681   0.008569  -0.013814   0.588229   0.000793
    11  H   -0.001570   0.000965  -0.002188   0.000793   0.465627
 Mulliken charges:
               1
     1  O   -0.198943
     2  O   -0.279520
     3  O   -0.377114
     4  N   -0.349007
     5  C   -0.111297
     6  C    0.194912
     7  H    0.184045
     8  H    0.159730
     9  H    0.246602
    10  H    0.247241
    11  H    0.283350
 Sum of Mulliken charges =  -0.00000
 Mulliken charges with hydrogens summed into heavy atoms:
               1
     1  O    0.048298
     2  O    0.003830
     3  O   -0.377114
     4  N   -0.102405
     5  C    0.232479
     6  C    0.194912
 APT charges:
               1
     1  O   -0.707278
     2  O   -0.432037
     3  O   -0.214031
     4  N   -0.434483
     5  C   -0.569715
     6  C    0.120463
     7  H    0.381212
     8  H    0.384662
     9  H    0.487046
    10  H    0.551140
    11  H    0.433021
 Sum of APT charges =  -0.00000
 APT charges with hydrogens summed into heavy atoms:
               1
     1  O   -0.156138
     2  O    0.000983
     3  O   -0.214031
     4  N    0.052564
     5  C    0.196159
     6  C    0.120463
 Electronic spatial extent (au):  <R**2>=            652.5608
 Charge=              0.0000 electrons
 Dipole moment (field-independent basis, Debye):
    X=              3.9633    Y=             -1.1947    Z=              1.2397  Tot=              4.3211
 Quadrupole moment (field-independent basis, Debye-Ang):
   XX=            -45.6354   YY=            -34.6021   ZZ=            -32.5988
   XY=             -5.7079   XZ=              3.4853   YZ=              0.2865
 Traceless Quadrupole moment (field-independent basis, Debye-Ang):
   XX=             -8.0233   YY=              3.0100   ZZ=              5.0133
   XY=             -5.7079   XZ=              3.4853   YZ=              0.2865
 Octapole moment (field-independent basis, Debye-Ang**2):
  XXX=             24.0943  YYY=              2.9153  ZZZ=              2.6856  XYY=             10.4732
  XXY=             -8.5434  XXZ=              6.2139  XZZ=              2.3907  YZZ=              0.4282
  YYZ=              0.0026  XYZ=             -0.6035
 Hexadecapole moment (field-independent basis, Debye-Ang**3):
 XXXX=           -615.2911 YYYY=           -140.5714 ZZZZ=            -43.3424 XXXY=            -48.9548
 XXXZ=             15.6724 YYYX=             -6.1211 YYYZ=             -2.8528 ZZZX=              5.1069
 ZZZY=              1.9344 XXYY=           -122.7769 XXZZ=           -101.7521 YYZZ=            -32.2393
 XXYZ=              0.1767 YYXZ=              0.8163 ZZXY=              0.4005
 N-N= 2.442112063277D+02 E-N=-1.333485548237D+03  KE= 3.584644767133D+02
  Exact polarizability:   0.000   0.000   0.000   0.000   0.000   0.000
 Approx polarizability:  58.914   3.988  55.254  -2.237  -0.599  43.395
 No NMR shielding tensors so no spin-rotation constants.
 Leave Link  601 at Thu Feb 28 14:37:32 2019, MaxMem=   671088640 cpu:               6.3 elap:               0.4
 (Enter /shared/centos7/gaussian/g16/l701.exe)
 ... and contract with generalized density number  0.
 Compute integral second derivatives.
 Leave Link  701 at Thu Feb 28 14:37:33 2019, MaxMem=   671088640 cpu:               7.9 elap:               0.4
 (Enter /shared/centos7/gaussian/g16/l702.exe)
 L702 exits ... SP integral derivatives will be done elsewhere.
 Leave Link  702 at Thu Feb 28 14:37:33 2019, MaxMem=   671088640 cpu:               0.5 elap:               0.1
 (Enter /shared/centos7/gaussian/g16/l703.exe)
 Integral derivatives from FoFJK, PRISM(SPDF).
 Compute integral second derivatives, UseDBF=F ICtDFT=           0.
 Calling FoFJK, ICntrl=    100147 FMM=F ISym2X=0 I1Cent= 0 IOpClX= 0 NMat=1 NMatS=1 NMatT=0.
 FoFJK:  IHMeth= 1 ICntrl=  100147 DoSepK=F KAlg= 0 I1Cent=           0 FoldK=F
 IRaf=         0 NMat=       1 IRICut=       1 DoRegI=T DoRafI=F ISym2E= 0 IDoP0=0 IntGTp=1.
 FoFCou: FMM=F IPFlag=           0 FMFlag=      100000 FMFlg1=         800
         NFxFlg=           0 DoJE=F BraDBF=F KetDBF=F FulRan=T
         wScrn=  0.000000 ICntrl=    100147 IOpCl=  0 I1Cent=           0 NGrid=           0
         NMat0=    1 NMatS0=      1 NMatT0=    0 NMatD0=    1 NMtDS0=    0 NMtDT0=    0
 Symmetry not used in FoFCou.
 Leave Link  703 at Thu Feb 28 14:39:14 2019, MaxMem=   671088640 cpu:            2023.0 elap:             101.2
 (Enter /shared/centos7/gaussian/g16/l716.exe)
 Dipole        = 1.55929186D+00-4.70011808D-01 4.87746209D-01
 Polarizability= 0.00000000D+00 0.00000000D+00 0.00000000D+00
                 0.00000000D+00 0.00000000D+00 0.00000000D+00
 ***** Axes restored to original set *****
 -------------------------------------------------------------------
 Center     Atomic                   Forces (Hartrees/Bohr)
 Number     Number              X              Y              Z
 -------------------------------------------------------------------
      1        8           0.000000066   -0.000000087    0.000000542
      2        8          -0.000000199    0.000000717   -0.000004234
      3        8           0.000000523   -0.000000714    0.000000209
      4        7          -0.000000603    0.000000949   -0.000000312
      5        6           0.000000433   -0.000000680    0.000001103
      6        6           0.000000184   -0.000000639   -0.000001117
      7        1           0.000001904   -0.000003129    0.000000892
      8        1           0.000000022   -0.000000344    0.000003934
      9        1          -0.000002024    0.000003186    0.000000443
     10        1          -0.000000054   -0.000000169    0.000003230
     11        1          -0.000000251    0.000000912   -0.000004690
 -------------------------------------------------------------------
 Cartesian Forces:  Max     0.000004690 RMS     0.000001759
 Force constants in Cartesian coordinates: 
                1             2             3             4             5 
      1  0.453921D+00
      2 -0.131420D+00  0.477687D+00
      3 -0.870980D-01 -0.542945D-01  0.970526D-01
      4 -0.260040D-02  0.176616D-02 -0.800564D-03  0.491087D+00
      5  0.565673D-03  0.456871D-02  0.133134D-02  0.113011D+00  0.550424D+00
      6 -0.614590D-03  0.283921D-02  0.645332D-03  0.200002D-01  0.152815D+00
      7 -0.637088D-02 -0.356809D-02 -0.219822D-02  0.381081D-01 -0.114886D-01
      8 -0.305726D-02  0.863212D-03 -0.505171D-03 -0.273545D-01 -0.101193D+00
      9 -0.391186D-03  0.377601D-03 -0.172556D-03 -0.877106D-02 -0.336240D-01
     10 -0.228801D+00  0.153614D-02  0.570684D-01 -0.819937D-02 -0.656587D-02
     11 -0.893220D-01 -0.762173D-01  0.308582D-01  0.117490D-02  0.138424D-02
     12  0.760428D-01  0.417972D-02 -0.921103D-01 -0.520388D-05 -0.209388D-02
     13 -0.388188D-01 -0.393438D-01 -0.170337D-01 -0.197462D-01  0.988505D-02
     14  0.735664D-03 -0.125792D-01 -0.384537D-02  0.343760D-01 -0.127315D-01
     15  0.994485D-02  0.768208D-02  0.976009D-02  0.103605D-01 -0.112963D-01
     16  0.685779D-02  0.677744D-02  0.941658D-03 -0.181550D+00  0.115176D+00
     17 -0.515412D-02 -0.889718D-02 -0.348302D-02  0.582585D-01 -0.236002D+00
     18 -0.240825D-02 -0.317259D-02 -0.949456D-03  0.229924D-01 -0.578438D-01
     19  0.176715D-02  0.149046D-02 -0.830532D-03 -0.173753D-02  0.259278D-02
     20  0.206912D-02  0.198511D-02  0.440596D-03  0.828842D-03 -0.585287D-03
     21  0.195203D-02  0.246972D-02  0.325567D-02 -0.226228D-04  0.613868D-03
     22  0.378577D-02  0.140217D-03 -0.605491D-03 -0.652943D-02  0.101268D-02
     23 -0.108171D-02  0.153432D-02  0.451156D-03 -0.284381D-04  0.179352D-02
     24  0.151991D-02  0.618100D-03 -0.406264D-03  0.111759D-02  0.245422D-03
     25 -0.201831D-01 -0.190001D-01  0.454815D-01 -0.120469D-02  0.379487D-03
     26 -0.313666D-02 -0.541075D-02  0.913940D-02  0.111920D-02 -0.955112D-04
     27  0.587952D-02  0.712531D-02 -0.516211D-02  0.281435D-03  0.396770D-03
     28 -0.171116D+00  0.185477D+00  0.559707D-02  0.983540D-04 -0.147722D-02
     29  0.232049D+00 -0.384835D+00  0.201934D-01 -0.202017D-03 -0.631424D-03
     30 -0.575570D-02  0.339250D-01 -0.112645D-01  0.580661D-03 -0.229053D-03
     31  0.155829D-02 -0.385581D-02 -0.522114D-03 -0.307725D+00 -0.223092D+00
     32 -0.224768D-02  0.130104D-02 -0.286040D-03 -0.182950D+00 -0.206931D+00
     33  0.928666D-03 -0.174961D-02 -0.648581D-03 -0.457334D-01 -0.503158D-01
                6             7             8             9            10 
      6  0.782349D-01
      7 -0.380855D-02  0.363707D+00
      8 -0.333589D-01  0.373651D+00  0.630150D+00
      9  0.590939D-02  0.926032D-01  0.154301D+00  0.730094D-01
     10 -0.301834D-02 -0.569377D-02 -0.347990D-02  0.133266D-02  0.441023D+00
     11 -0.673287D-03  0.119417D-02  0.284333D-02 -0.118570D-03  0.999713D-01
     12  0.221228D-02  0.560820D-02  0.131152D-02  0.144619D-02  0.118291D-01
     13  0.604944D-02 -0.278802D-01 -0.178972D-01 -0.236808D-02 -0.904306D-01
     14 -0.152265D-01 -0.410845D-01 -0.620182D-02 -0.456389D-02 -0.633750D-01
     15  0.157806D-01 -0.108571D-01 -0.557866D-02  0.215726D-01 -0.352148D-01
     16  0.392921D-01 -0.361913D+00 -0.332367D+00 -0.834549D-01 -0.220935D-01
     17 -0.540595D-01 -0.321557D+00 -0.524516D+00 -0.112867D+00 -0.183253D-01
     18 -0.741779D-01 -0.807050D-01 -0.112133D+00 -0.107412D+00 -0.194218D-01
     19 -0.423730D-02 -0.137170D-02  0.127798D-02 -0.503282D-02  0.119287D-02
     20  0.105941D-02 -0.987496D-03  0.249536D-03 -0.433693D-03  0.468589D-02
     21  0.464402D-03 -0.662997D-03 -0.986414D-03  0.242128D-03  0.265377D-02
     22  0.328465D-02  0.204355D-02 -0.278766D-02  0.182744D-02  0.471897D-02
     23  0.877783D-03 -0.107855D-02  0.176363D-02 -0.113317D-03  0.411692D-02
     24  0.676406D-03 -0.158466D-02 -0.434521D-03 -0.731336D-03  0.561993D-02
     25  0.175437D-02 -0.549266D-03  0.175332D-03  0.440858D-03 -0.520877D-01
     26 -0.121583D-02  0.103051D-03 -0.609422D-03  0.186705D-03 -0.160452D-02
     27 -0.474509D-04 -0.185412D-03 -0.933614D-04  0.264003D-03 -0.353095D-01
     28 -0.851236D-03  0.772495D-03 -0.314869D-03 -0.795467D-04 -0.387352D-01
     29 -0.438008D-03 -0.197661D-03 -0.305019D-03 -0.909349D-05 -0.176908D-01
     30  0.106515D-03  0.286872D-03  0.176542D-03  0.727232D-05  0.147743D-01
     31 -0.578508D-01 -0.851772D-03  0.121541D-01  0.389341D-02 -0.894131D-03
     32 -0.526198D-01  0.501319D-02 -0.304477D-02 -0.313581D-02  0.731119D-03
     33 -0.298045D-01  0.150363D-02 -0.269924D-02  0.586491D-02 -0.313778D-03
               11            12            13            14            15 
     11  0.311975D+00
     12 -0.334359D-01  0.648864D+00
     13 -0.143758D-01 -0.826491D-02  0.485928D+00
     14 -0.156444D+00 -0.765738D-01 -0.267044D-01  0.586869D+00
     15 -0.481305D-01 -0.146745D+00 -0.155076D-01 -0.301009D-01  0.551317D+00
     16 -0.122232D-01 -0.547893D-02 -0.172473D+00  0.106718D-01  0.745313D-02
     17 -0.344042D-02  0.631646D-02  0.223406D-01 -0.782871D-01  0.251800D-03
     18 -0.288567D-02  0.198526D-02  0.143856D-01  0.638756D-02 -0.889468D-01
     19 -0.564425D-03 -0.181171D-01 -0.573694D-01 -0.120414D-01  0.648623D-01
     20  0.296422D-02 -0.299409D-01 -0.140992D-01 -0.627293D-01  0.664904D-01
     21 -0.190140D-03 -0.260872D-01  0.510097D-01  0.587118D-01 -0.284808D+00
     22 -0.200881D-01  0.180231D-02 -0.807102D-01  0.782868D-01 -0.219289D-01
     23 -0.249586D-01 -0.560447D-02  0.827564D-01 -0.265550D+00  0.533586D-01
     24 -0.272942D-01  0.191508D-02 -0.228056D-01  0.542336D-01 -0.621654D-01
     25  0.658117D-02 -0.705764D-01  0.165631D-02  0.891655D-02 -0.127081D-01
     26 -0.691402D-01  0.135292D+00 -0.318716D-02  0.209545D-02 -0.340352D-01
     27  0.921306D-01 -0.384336D+00 -0.533992D-02  0.978076D-02 -0.164225D-01
     28  0.260284D-01  0.562875D-02  0.123672D-02  0.227237D-02 -0.144247D-03
     29  0.146273D-01 -0.588885D-03 -0.165160D-02  0.733069D-02  0.136415D-02
     30 -0.116031D-01 -0.333261D-02 -0.149300D-02  0.157731D-02  0.616850D-03
     31  0.162367D-02  0.153139D-02 -0.139244D-02  0.794612D-02  0.373990D-02
     32 -0.359417D-02  0.113787D-02  0.227721D-02 -0.177277D-02 -0.543616D-05
     33  0.134259D-02 -0.381194D-02  0.136796D-02 -0.380513D-03  0.403390D-04
               16            17            18            19            20 
     16  0.725294D+00
     17  0.244729D+00  0.892123D+00
     18  0.427254D-01  0.180360D+00  0.280736D+00
     19 -0.644148D-02 -0.976668D-02  0.354295D-01  0.630530D-01
     20  0.418806D-03 -0.808189D-03 -0.245947D-02  0.169314D-01  0.673030D-01
     21  0.409054D-02  0.857217D-03 -0.217777D-02 -0.581012D-01 -0.598424D-01
     22 -0.933334D-02  0.338389D-01 -0.923923D-02  0.324370D-02 -0.688217D-02
     23  0.444118D-03 -0.312319D-02 -0.783166D-04  0.315635D-02 -0.531828D-02
     24  0.607396D-02 -0.438318D-02  0.448063D-03 -0.121470D-01  0.273911D-01
     25  0.130589D-02 -0.131830D-02 -0.162091D-02 -0.147273D-02 -0.254994D-02
     26  0.149381D-03  0.154135D-02  0.555466D-03 -0.282426D-02 -0.321118D-02
     27 -0.589992D-03 -0.104351D-02 -0.180233D-02 -0.190336D-02 -0.259310D-02
     28 -0.232799D-02  0.129018D-02  0.456312D-03 -0.431256D-03 -0.224791D-03
     29 -0.763984D-03 -0.381957D-03 -0.861873D-04  0.408870D-04  0.126592D-04
     30 -0.925805D-03 -0.405084D-03 -0.332127D-03 -0.673306D-03  0.374050D-03
     31  0.226753D-01 -0.433633D-02 -0.259408D-02 -0.432626D-03 -0.190467D-03
     32 -0.330126D-01 -0.382084D-01 -0.864451D-02 -0.293152D-03  0.137705D-03
     33 -0.101272D-01 -0.115446D-01 -0.737120D-02  0.750757D-03 -0.486030D-03
               21            22            23            24            25 
     21  0.315320D+00
     22  0.135734D-02  0.835353D-01
     23  0.182294D-02 -0.851509D-01  0.293515D+00
     24 -0.487700D-02  0.226697D-01 -0.510479D-01  0.631349D-01
     25 -0.130160D-02  0.336510D-03 -0.842277D-03  0.832351D-03  0.699002D-01
     26 -0.347624D-02  0.838928D-03  0.157221D-02 -0.180442D-03  0.803931D-02
     27 -0.285793D-03  0.148027D-02  0.468520D-03  0.207040D-02  0.369070D-01
     28 -0.671194D-03 -0.538131D-03 -0.909105D-03 -0.367805D-03  0.163157D-02
     29 -0.629434D-05  0.181868D-02 -0.106805D-02  0.129408D-02 -0.103627D-02
     30 -0.574513D-03  0.183449D-03  0.248545D-03  0.491853D-03  0.308247D-02
     31 -0.303797D-03 -0.552644D-03 -0.138279D-02 -0.928369D-03  0.667060D-03
     32  0.259720D-04 -0.102734D-02 -0.160621D-03 -0.442112D-03  0.655000D-03
     33 -0.472485D-03 -0.831475D-03 -0.383576D-03 -0.556730D-03 -0.229158D-02
               26            27            28            29            30 
     26  0.727911D-01
     27 -0.105496D+00  0.405924D+00
     28  0.954584D-03 -0.219509D-03  0.208253D+00
     29  0.713149D-03 -0.617696D-03 -0.212788D+00  0.364743D+00
     30 -0.305433D-02 -0.104552D-03 -0.986959D-02 -0.212778D-01  0.144928D-01
     31 -0.451852D-03 -0.100060D-02  0.115634D-02  0.422482D-03 -0.190324D-03
     32 -0.246219D-03 -0.578143D-04 -0.308162D-03 -0.204906D-03  0.267905D-03
     33  0.228467D-02 -0.975956D-04  0.521003D-03  0.172310D-03 -0.107010D-03
               31            32            33 
     31  0.285792D+00
     32  0.211162D+00  0.252725D+00
     33  0.542254D-01  0.637597D-01  0.369648D-01
 FormGI is forming the generalized inverse of G from B-inverse, IUseBI=4.
 Force constants in internal coordinates: 
                1             2             3             4             5 
      1  0.374601D+00
      2  0.540004D-02  0.513484D+00
      3 -0.194660D-02 -0.491278D-03  0.447035D+00
      4  0.310675D-03  0.256652D-03  0.200202D-01  0.494814D+00
      5  0.539210D-02 -0.413521D-03  0.939178D-01 -0.743757D-02  0.931172D+00
      6  0.142566D-01  0.391765D-02 -0.323742D-03 -0.197992D-02  0.248757D-02
      7  0.638645D-02  0.543559D-03  0.673552D-03 -0.697083D-03  0.562633D-05
      8 -0.473712D-03 -0.407175D-03  0.225478D-01 -0.138699D-03  0.429001D-01
      9 -0.193444D-04  0.278605D-03 -0.369915D-03  0.163311D-03 -0.800518D-03
     10  0.323768D-02 -0.115913D-02 -0.901824D-03  0.527788D-03  0.121806D-02
     11  0.605146D-01 -0.524698D-03 -0.384493D-02  0.128281D-02  0.326418D-03
     12 -0.445102D-02 -0.310561D-03  0.510850D-01  0.435915D-01  0.124254D-01
     13  0.335578D-01 -0.110377D-03  0.785839D-02 -0.379848D-02  0.537214D-02
     14  0.175600D-01 -0.125200D-02 -0.143506D-02  0.560902D-03 -0.256115D-02
     15 -0.256838D-01  0.121511D-02 -0.170328D-02  0.810082D-03 -0.966812D-03
     16  0.149939D-01 -0.274672D-02 -0.180045D-01  0.781902D-02  0.183825D-01
     17 -0.625478D-02  0.496516D-03  0.319936D-02 -0.822254D-03 -0.515239D-02
     18 -0.571867D-02  0.258986D-02  0.293945D-02 -0.152604D-02 -0.601280D-02
     19 -0.421899D-03  0.306142D-03  0.391401D-02 -0.195699D-02 -0.280761D-02
     20 -0.453150D-02 -0.217180D-03  0.107667D-01 -0.416294D-02 -0.683685D-02
     21  0.207020D-02 -0.520131D-03 -0.258803D-02  0.518971D-03  0.237177D-02
     22 -0.141349D-02  0.774227D-03  0.397386D-01 -0.628085D-02  0.235072D-01
     23 -0.369333D-02 -0.461718D-03  0.864592D-02  0.860267D-02 -0.418370D-01
     24  0.511838D-02 -0.310995D-03 -0.483835D-01 -0.233287D-02  0.183141D-01
     25  0.355412D-03 -0.112299D-02 -0.149595D-03  0.270206D-03 -0.317508D-05
     26  0.119551D-02 -0.520554D-03  0.168632D-02 -0.723029D-03  0.434747D-03
     27 -0.177839D-02 -0.142322D-03 -0.366866D-04  0.183178D-02  0.327564D-03
     28 -0.129874D-02 -0.100462D-03 -0.101635D-02  0.144430D-02  0.672397D-04
     29  0.114237D-01 -0.188142D-03  0.444318D-02 -0.144328D-02 -0.163580D-02
     30  0.151946D-01 -0.976043D-03  0.151710D-02 -0.155908D-03  0.169319D-02
     31  0.965664D-02  0.361945D-03  0.241059D-02 -0.105944D-02 -0.284360D-02
     32 -0.161108D-01  0.645994D-03  0.209621D-02 -0.130608D-03 -0.136308D-02
     33 -0.123399D-01 -0.141907D-03 -0.829871D-03  0.115677D-02  0.196591D-02
     34 -0.178778D-01  0.119608D-02  0.636167D-04  0.253239D-03 -0.257088D-02
     35 -0.785105D-03 -0.751357D-03 -0.140824D-02  0.166164D-02  0.287159D-03
     36 -0.446535D-03 -0.686391D-03 -0.500726D-03  0.119003D-02  0.145155D-03
     37 -0.893304D-03 -0.897706D-04  0.191006D-02 -0.307467D-03 -0.153457D-02
     38 -0.554734D-03 -0.248048D-04  0.281758D-02 -0.779083D-03 -0.167657D-02
     39 -0.815030D-03  0.466572D-03 -0.251637D-02  0.219784D-02  0.594187D-03
     40 -0.476460D-03  0.531538D-03 -0.160885D-02  0.172623D-02  0.452183D-03
                6             7             8             9            10 
      6  0.334428D+00
      7  0.102133D-02  0.439374D+00
      8  0.204878D-01  0.147034D-02  0.284466D+00
      9  0.645858D-02 -0.120450D-02  0.558251D-02  0.342090D+00
     10  0.122699D-01  0.839940D-03  0.180384D-02  0.292045D-02  0.335048D+00
     11 -0.332924D-02 -0.200169D-02  0.986800D-03  0.415977D-03  0.266290D-02
     12 -0.228445D-02  0.619954D-03  0.100004D-03 -0.355567D-04 -0.148341D-02
     13  0.223825D-01  0.245358D-02  0.415462D-02 -0.693102D-02  0.164083D-02
     14 -0.173362D-01 -0.328649D-02 -0.174328D-02  0.144327D-02 -0.500515D-03
     15  0.199479D-01  0.905232D-02 -0.142623D-02  0.393674D-02 -0.809764D-03
     16  0.287265D-01  0.563352D-02  0.424012D-01 -0.407234D-02 -0.513228D-02
     17  0.100934D-01  0.128657D-02 -0.143690D-01  0.240211D-02 -0.367329D-03
     18  0.445760D-02 -0.444852D-02 -0.198748D-01 -0.150777D-02 -0.531738D-03
     19 -0.195521D-01 -0.280802D-02 -0.285055D-02  0.362547D-02 -0.317497D-02
     20 -0.210483D-01 -0.405280D-03 -0.486288D-02 -0.174224D-02  0.525229D-02
     21 -0.488150D-02  0.706008D-03 -0.308227D-03  0.194587D-02  0.377186D-02
     22 -0.493115D-02 -0.102373D-02 -0.417935D-01 -0.279618D-03  0.104188D-02
     23  0.606102D-03  0.128691D-02  0.466245D-01 -0.273832D-05  0.330388D-02
     24  0.434289D-02 -0.267161D-03 -0.488266D-02  0.247847D-03 -0.431377D-02
     25 -0.123431D-01 -0.590743D-02 -0.185746D-03 -0.129475D-02 -0.254572D-03
     26  0.148723D-01  0.469835D-02 -0.532815D-03  0.239052D-03 -0.572291D-03
     27  0.548154D-03  0.853460D-03  0.245220D-03  0.122084D-03 -0.548515D-03
     28  0.123250D-02  0.720393D-03 -0.141687D-02 -0.101231D-02  0.425898D-03
     29  0.212291D-02  0.260804D-02 -0.348712D-03 -0.337640D-02  0.352085D-02
     30 -0.397977D-03  0.294092D-02  0.102312D-01  0.178145D-03 -0.314785D-02
     31  0.355643D-02  0.196250D-02 -0.132072D-01  0.345319D-02  0.105387D-02
     32 -0.474532D-02 -0.110274D-02  0.265716D-04 -0.320761D-02  0.359918D-02
     33 -0.726620D-02 -0.769861D-03  0.106065D-01  0.346935D-03 -0.306953D-02
     34 -0.331179D-02 -0.174828D-02 -0.128319D-01  0.362198D-02  0.113220D-02
     35  0.230056D-02  0.216591D-02  0.293759D-02  0.308386D-02 -0.184505D-02
     36  0.278371D-02  0.201701D-02  0.485966D-03  0.194278D-02 -0.760540D-03
     37 -0.134970D-01 -0.691858D-03 -0.371667D-03  0.281774D-03  0.306027D-02
     38 -0.130139D-01 -0.840756D-03 -0.282329D-02 -0.859300D-03  0.414477D-02
     39  0.129723D-01  0.153250D-03  0.391699D-02 -0.300760D-02 -0.232155D-02
     40  0.134554D-01  0.435163D-05  0.146536D-02 -0.414867D-02 -0.123704D-02
               11            12            13            14            15 
     11  0.224793D+00
     12 -0.324387D-02  0.206353D+00
     13 -0.385111D-02  0.627246D-02  0.230994D+00
     14  0.150522D-03 -0.207574D-03 -0.846258D-01  0.785280D-01
     15  0.391337D-02 -0.372165D-04 -0.568570D-01 -0.294134D-01  0.890067D-01
     16  0.336616D-02 -0.147668D-01  0.270695D-01 -0.863065D-02 -0.863923D-02
     17 -0.506145D-03  0.265070D-02 -0.113209D-01 -0.137844D-03  0.101651D-01
     18 -0.808104D-03  0.484399D-02 -0.111354D-01  0.473513D-02 -0.963464D-04
     19 -0.554552D-03  0.288774D-02 -0.243118D-02  0.300270D-02 -0.269703D-02
     20 -0.166582D-02  0.576995D-02 -0.799319D-02  0.239500D-02  0.384187D-02
     21  0.141979D-03 -0.128901D-02  0.601897D-02 -0.132333D-02 -0.270206D-02
     22  0.209661D-02  0.244094D-01 -0.772398D-02  0.198509D-02  0.196948D-02
     23 -0.171340D-02 -0.695798D-02 -0.119420D-02  0.119011D-02  0.369328D-03
     24 -0.379517D-03 -0.174600D-01  0.890019D-02 -0.317781D-02 -0.231701D-02
     25 -0.257819D-03 -0.182555D-02 -0.129131D-01  0.218667D-01 -0.281288D-01
     26  0.230677D-02  0.191872D-02  0.403015D-02 -0.149660D-01  0.273612D-01
     27 -0.113310D-02 -0.860117D-03  0.315432D-02 -0.607645D-03 -0.210673D-02
     28 -0.102475D-02 -0.153972D-02  0.274752D-02 -0.758261D-03 -0.143538D-02
     29 -0.729306D-03  0.409435D-02  0.290481D-02  0.123740D-01 -0.805308D-02
     30  0.810466D-04  0.132586D-02  0.770951D-02  0.113609D-01 -0.999147D-02
     31 -0.618189D-03  0.468004D-02  0.841375D-04  0.125710D-01 -0.608986D-02
     32 -0.993146D-03  0.116371D-03 -0.733913D-02 -0.985165D-02  0.686818D-02
     33 -0.182793D-03 -0.265212D-02 -0.253443D-02 -0.108648D-01  0.492979D-02
     34 -0.882029D-03  0.702064D-03 -0.101598D-01 -0.965467D-02  0.883139D-02
     35 -0.206869D-03 -0.136108D-02  0.159652D-02 -0.180974D-02  0.212869D-02
     36 -0.457593D-04 -0.114152D-02  0.836044D-03 -0.184952D-02  0.288893D-02
     37 -0.103738D-02  0.151209D-02  0.238414D-02  0.112764D-02 -0.393748D-02
     38 -0.876266D-03  0.173165D-02  0.162366D-02  0.108787D-02 -0.317725D-02
     39 -0.774859D-04 -0.138685D-02  0.639507D-03 -0.972138D-04 -0.130396D-02
     40  0.836240D-04 -0.116729D-02 -0.120972D-03 -0.136987D-03 -0.543729D-03
               16            17            18            19            20 
     16  0.190611D+00
     17 -0.471946D-01  0.572666D-01
     18 -0.643033D-01 -0.216870D-02  0.700138D-01
     19 -0.456782D-01 -0.196993D-01  0.254060D-01  0.506139D-01
     20 -0.686802D-01  0.264751D-01 -0.137591D-01  0.428915D-02  0.665702D-01
     21  0.335332D-01 -0.158824D-01 -0.163139D-01 -0.116394D-01 -0.139615D-01
     22 -0.160184D-01  0.442139D-02  0.762731D-02  0.351126D-02  0.211758D-02
     23  0.181400D-01 -0.204354D-02 -0.146369D-01 -0.532949D-02  0.402896D-02
     24 -0.208874D-02 -0.232362D-02  0.696667D-02  0.166325D-02 -0.606668D-02
     25 -0.140515D-02 -0.287087D-02  0.273576D-02  0.213801D-02 -0.416161D-03
     26 -0.101667D-02  0.260939D-02 -0.117524D-02 -0.725436D-03  0.974332D-03
     27 -0.189028D-02  0.235253D-02 -0.219478D-02  0.122090D-02  0.990013D-03
     28 -0.792153D-03  0.408689D-02 -0.350946D-02 -0.387868D-02  0.350976D-02
     29 -0.250257D-02  0.407666D-02 -0.529900D-02 -0.118976D-01  0.141323D-01
     30  0.158464D-01 -0.114347D-01 -0.988577D-02  0.132707D-01 -0.157391D-02
     31 -0.165037D-01  0.867554D-02  0.120564D-01  0.167700D-03 -0.878289D-02
     32 -0.398208D-02  0.496149D-02 -0.368835D-02 -0.122131D-01  0.138765D-01
     33  0.143669D-01 -0.105499D-01 -0.827512D-02  0.129551D-01 -0.182962D-02
     34 -0.179832D-01  0.956038D-02  0.136670D-01 -0.147865D-03 -0.903859D-02
     35  0.657294D-02  0.166812D-01 -0.200552D-01 -0.594304D-02  0.395399D-02
     36  0.736604D-02  0.185531D-01 -0.213482D-01 -0.109816D-01  0.663796D-02
     37 -0.103092D-01 -0.156988D-01  0.146274D-02  0.124188D-01  0.569602D-02
     38 -0.951606D-02 -0.138269D-01  0.169694D-03  0.738024D-02  0.837998D-02
     39  0.886572D-02 -0.165379D-03  0.141499D-01 -0.256813D-02 -0.136602D-01
     40  0.965882D-02  0.170651D-02  0.128569D-01 -0.760673D-02 -0.109763D-01
               21            22            23            24            25 
     21  0.244647D-01
     22 -0.155906D-02  0.191784D+00
     23 -0.185270D-03 -0.111236D+00  0.198571D+00
     24  0.176215D-02 -0.805583D-01 -0.873279D-01  0.167912D+00
     25 -0.162608D-03 -0.423605D-04  0.186409D-03 -0.152394D-03  0.195742D-01
     26 -0.648667D-03 -0.109219D-02  0.699227D-03  0.398753D-03 -0.885299D-02
     27 -0.182959D-03  0.251579D-02 -0.123558D-02 -0.173823D-02  0.603350D-03
     28  0.442655D-03  0.867698D-04 -0.222572D-02  0.245012D-02  0.325062D-03
     29  0.487276D-03 -0.206352D-02  0.296886D-02 -0.830599D-03  0.708623D-03
     30 -0.488660D-02 -0.373608D-02  0.493879D-02 -0.126439D-02  0.885557D-03
     31  0.438997D-02  0.232540D-02 -0.604893D-02  0.369689D-02  0.318247D-03
     32 -0.632209D-04 -0.691911D-03  0.201111D-02 -0.124389D-02  0.990262D-03
     33 -0.543710D-02 -0.236448D-02  0.398104D-02 -0.167768D-02  0.116720D-02
     34  0.383947D-02  0.369700D-02 -0.700668D-02  0.328360D-02  0.599886D-03
     35 -0.486951D-03 -0.213178D-02  0.498466D-02 -0.325292D-02 -0.138337D-02
     36  0.651325D-04  0.128959D-02  0.345777D-02 -0.438212D-02 -0.165820D-02
     37  0.760141D-02 -0.106820D-02  0.102654D-02 -0.351817D-03  0.154359D-02
     38  0.815349D-02  0.235317D-02 -0.500341D-03 -0.148102D-02  0.126875D-02
     39 -0.787214D-02 -0.214412D-02  0.200251D-02 -0.231838D-03  0.826243D-03
     40 -0.732006D-02  0.127725D-02  0.475624D-03 -0.136104D-02  0.551407D-03
               26            27            28            29            30 
     26  0.176954D-01
     27 -0.454240D-03  0.235709D-01
     28 -0.252231D-03  0.840325D-02  0.187253D-01
     29  0.821040D-03  0.754668D-04  0.253571D-02  0.154333D-01
     30  0.911421D-03  0.187979D-02 -0.168739D-03  0.228576D-02  0.198509D-01
     31  0.124214D-02  0.197154D-02  0.115163D-02  0.252302D-02 -0.961681D-03
     32 -0.167978D-02  0.152789D-03  0.261982D-02  0.323288D-02 -0.105596D-01
     33 -0.158940D-02  0.195711D-02 -0.846359D-04 -0.991467D-02  0.700557D-02
     34 -0.125868D-02  0.204886D-02  0.123573D-02 -0.967741D-02 -0.138070D-01
     35  0.105169D-02  0.124339D-01 -0.831728D-03 -0.239905D-02  0.345352D-02
     36  0.122089D-02 -0.258118D-02  0.939830D-02  0.244235D-04  0.135969D-02
     37 -0.111012D-02  0.992469D-02 -0.307427D-02  0.816023D-03  0.127807D-02
     38 -0.940913D-03 -0.509037D-02  0.715576D-02  0.323950D-02 -0.815748D-03
     39 -0.463319D-03  0.900401D-02 -0.332799D-02 -0.635771D-03  0.844794D-03
     40 -0.294116D-03 -0.601104D-02  0.690204D-02  0.178770D-02 -0.124903D-02
               31            32            33            34            35 
     31  0.185817D-01
     32 -0.935983D-02  0.160523D-01
     33 -0.128445D-01  0.225987D-02  0.191801D-01
     34  0.669886D-02  0.345962D-02 -0.669989D-03  0.198359D-01
     35  0.229353D-02 -0.264436D-02  0.320821D-02  0.204822D-02  0.218498D-01
     36  0.144850D-02 -0.175819D-03  0.115945D-02  0.124826D-02  0.866115D-02
     37  0.452328D-03  0.466242D-03  0.928294D-03  0.102547D-03  0.198612D-02
     38 -0.392698D-03  0.293478D-02 -0.112046D-02 -0.697412D-03 -0.112025D-01
     39 -0.351045D-03 -0.498960D-04  0.143067D-02  0.234831D-03  0.367213D-02
     40 -0.119607D-02  0.241864D-02 -0.618087D-03 -0.565129D-03 -0.951650D-02
               36            37            38            39            40 
     36  0.207129D-01
     37 -0.109757D-01  0.189408D-01
     38  0.107608D-02  0.597907D-02  0.182577D-01
     39 -0.865112D-02  0.726175D-03 -0.115971D-01  0.181123D-01
     40  0.340062D-02 -0.122356D-01  0.681520D-03  0.578910D-02  0.187062D-01
 Leave Link  716 at Thu Feb 28 14:39:14 2019, MaxMem=   671088640 cpu:               1.0 elap:               0.1
 (Enter /shared/centos7/gaussian/g16/l103.exe)

 GradGradGradGradGradGradGradGradGradGradGradGradGradGradGradGradGradGrad
 Berny optimization.
 Red2BG is reusing G-inverse.
 Internal  Forces:  Max     0.000000202 RMS     0.000000054
 Search for a local minimum.
 Step number   1 out of a maximum of   50 on scan point     1 out of    37
 All quantities printed in internal units (Hartrees-Bohrs-Radians)
 RMS Force = .53877D-07 SwitMx=.10000D-02 MixMth= 2
 Mixed Optimization -- En-DIIS/RFO-DIIS
 Second derivative matrix not updated -- analytic derivatives used.
 ITU=  0
     Eigenvalues ---    0.00214   0.00541   0.03069   0.03522   0.04181
     Eigenvalues ---    0.05050   0.05971   0.08208   0.11186   0.13220
     Eigenvalues ---    0.17876   0.20381   0.21356   0.23049   0.24584
     Eigenvalues ---    0.27751   0.33088   0.34019   0.34875   0.39261
     Eigenvalues ---    0.42052   0.44236   0.45652   0.51387   0.51558
     Eigenvalues ---    0.956721000.000001000.000001000.000001000.00000
     Eigenvalues --- 1000.000001000.000001000.000001000.000001000.00000
     Eigenvalues --- 1000.000001000.000001000.000001000.000001000.00000
 RFO step:  Lambda= 0.00000000D+00 EMin= 2.14031997D-03
 Linear search not attempted -- first point.
 Iteration  1 RMS(Cart)=  0.00000240 RMS(Int)=  0.00000000
 Iteration  2 RMS(Cart)=  0.00000000 RMS(Int)=  0.00000000
 Iteration  1 RMS(Cart)=  0.00000000 RMS(Int)=  0.00000000
 ITry= 1 IFail=0 DXMaxC= 7.22D-06 DCOld= 1.00D+10 DXMaxT= 3.00D-01 DXLimC= 3.00D+00 Rises=F
 Variable       Old X    -DE/DX   Delta X   Delta X   Delta X     New X
                                 (Linear)    (Quad)   (Total)
    R1        2.65277   0.00000   0.00000   0.00000   0.00000   2.65277
    R2        1.82503   0.00000   0.00000   0.00000   0.00000   1.82503
    R3        2.52151   0.00000   0.00000   0.00000   0.00000   2.52151
    R4        1.83526   0.00000   0.00000   0.00000   0.00000   1.83526
    R5        2.25358  -0.00000   0.00000  -0.00000  -0.00000   2.25358
    R6        2.74764   0.00000   0.00000   0.00000   0.00000   2.74764
    R7        1.91946   0.00000   0.00000   0.00000   0.00000   1.91946
    R8        2.88356  -0.00000   0.00000   0.00000   0.00000   2.88356
    R9        2.06198   0.00000   0.00000  -0.00000  -0.00000   2.06198
   R10        2.06461   0.00000   0.00000   0.00000   0.00000   2.06461
    A1        1.88706  -0.00000   0.00000  -0.00000  -0.00000   1.88706
    A2        1.88667  -0.00000   0.00000  -0.00000  -0.00000   1.88667
    A3        1.95142  -0.00000   0.00000   0.00000   0.00000   1.95142
    A4        1.87690   0.00000   0.00000   0.00000   0.00000   1.87690
    A5        1.93999   0.00000   0.00000   0.00000   0.00000   1.93999
    A6        1.93305  -0.00000   0.00000  -0.00000  -0.00000   1.93305
    A7        1.86632   0.00000   0.00000   0.00000   0.00000   1.86632
    A8        2.01190   0.00000   0.00000  -0.00000  -0.00000   2.01190
    A9        1.86234   0.00000   0.00000   0.00000   0.00000   1.86234
   A10        1.89185   0.00000   0.00000  -0.00000  -0.00000   1.89185
   A11        1.89227  -0.00000   0.00000  -0.00000  -0.00000   1.89227
   A12        2.14512   0.00000   0.00000   0.00000   0.00000   2.14512
   A13        1.99876  -0.00000   0.00000  -0.00000  -0.00000   1.99876
   A14        2.13880   0.00000   0.00000   0.00000   0.00000   2.13880
    D1       -1.02482  -0.00000   0.00000   0.00000  -0.00000  -1.02482
    D2        1.10941  -0.00000   0.00000   0.00000   0.00000   1.10941
    D3        3.11668  -0.00000   0.00000   0.00000   0.00000   3.11669
    D4       -0.05831   0.00000   0.00000   0.00000   0.00000  -0.05831
    D5       -2.75561  -0.00000   0.00000  -0.00000  -0.00000  -2.75561
    D6       -0.73291   0.00000   0.00000   0.00000   0.00000  -0.73291
    D7        1.37188   0.00000   0.00000   0.00000   0.00000   1.37188
    D8        1.42988  -0.00000   0.00000  -0.00000  -0.00000   1.42988
    D9       -2.83061  -0.00000   0.00000   0.00000   0.00000  -2.83061
   D10       -0.72582  -0.00000   0.00000   0.00000   0.00000  -0.72582
   D11        0.42198  -0.00000   0.00000  -0.00001  -0.00001   0.42197
   D12       -2.75288  -0.00000   0.00000  -0.00000  -0.00000  -2.75288
   D13       -1.60320  -0.00000   0.00000  -0.00001  -0.00001  -1.60320
   D14        1.50513  -0.00000   0.00000  -0.00000  -0.00000   1.50513
   D15        2.64529  -0.00000   0.00000  -0.00001  -0.00001   2.64528
   D16       -0.52957  -0.00000   0.00000  -0.00000  -0.00000  -0.52957
         Item               Value     Threshold  Converged?
 Maximum Force            0.000000     0.000450     YES
 RMS     Force            0.000000     0.000300     YES
 Maximum Displacement     0.000007     0.001800     YES
 RMS     Displacement     0.000002     0.001200     YES
 Predicted change in Energy=-5.925259D-13
 Optimization completed.
    -- Stationary point found.
                           ----------------------------
                           !   Optimized Parameters   !
                           ! (Angstroms and Degrees)  !
 --------------------------                            --------------------------
 ! Name  Definition              Value          Derivative Info.                !
 --------------------------------------------------------------------------------
 ! R1    R(1,4)                  1.4038         -DE/DX =    0.0                 !
 ! R2    R(1,10)                 0.9658         -DE/DX =    0.0                 !
 ! R3    R(2,6)                  1.3343         -DE/DX =    0.0                 !
 ! R4    R(2,11)                 0.9712         -DE/DX =    0.0                 !
 ! R5    R(3,6)                  1.1925         -DE/DX =    0.0                 !
 ! R6    R(4,5)                  1.454          -DE/DX =    0.0                 !
 ! R7    R(4,9)                  1.0157         -DE/DX =    0.0                 !
 ! R8    R(5,6)                  1.5259         -DE/DX =    0.0                 !
 ! R9    R(5,7)                  1.0912         -DE/DX =    0.0                 !
 ! R10   R(5,8)                  1.0925         -DE/DX =    0.0                 !
 ! A1    A(4,1,10)             108.1205         -DE/DX =    0.0                 !
 ! A2    A(6,2,11)             108.0983         -DE/DX =    0.0                 !
 ! A3    A(1,4,5)              111.8084         -DE/DX =    0.0                 !
 ! A4    A(1,4,9)              107.5383         -DE/DX =    0.0                 !
 ! A5    A(5,4,9)              111.1535         -DE/DX =    0.0                 !
 ! A6    A(4,5,6)              110.7555         -DE/DX =    0.0                 !
 ! A7    A(4,5,7)              106.9324         -DE/DX =    0.0                 !
 ! A8    A(4,5,8)              115.2734         -DE/DX =    0.0                 !
 ! A9    A(6,5,7)              106.704          -DE/DX =    0.0                 !
 ! A10   A(6,5,8)              108.395          -DE/DX =    0.0                 !
 ! A11   A(7,5,8)              108.4189         -DE/DX =    0.0                 !
 ! A12   A(2,6,3)              122.9063         -DE/DX =    0.0                 !
 ! A13   A(2,6,5)              114.5203         -DE/DX =    0.0                 !
 ! A14   A(3,6,5)              122.5444         -DE/DX =    0.0                 !
 ! D1    D(10,1,4,5)           -58.7176         -DE/DX =    0.0                 !
 ! D2    D(10,1,4,9)            63.5647         -DE/DX =    0.0                 !
 ! D3    D(11,2,6,3)           178.5728         -DE/DX =    0.0                 !
 ! D4    D(11,2,6,5)            -3.3409         -DE/DX =    0.0                 !
 ! D5    D(1,4,5,6)           -157.8851         -DE/DX =    0.0                 !
 ! D6    D(1,4,5,7)            -41.9928         -DE/DX =    0.0                 !
 ! D7    D(1,4,5,8)             78.6028         -DE/DX =    0.0                 !
 ! D8    D(9,4,5,6)             81.926          -DE/DX =    0.0                 !
 ! D9    D(9,4,5,7)           -162.1818         -DE/DX =    0.0                 !
 ! D10   D(9,4,5,8)            -41.5862         -DE/DX =    0.0                 !
 ! D11   D(4,5,6,2)             24.1776         -DE/DX =    0.0                 !
 ! D12   D(4,5,6,3)           -157.7284         -DE/DX =    0.0                 !
 ! D13   D(7,5,6,2)            -91.8564         -DE/DX =    0.0                 !
 ! D14   D(7,5,6,3)             86.2376         -DE/DX =    0.0                 !
 ! D15   D(8,5,6,2)            151.5638         -DE/DX =    0.0                 !
 ! D16   D(8,5,6,3)            -30.3421         -DE/DX =    0.0                 !
 --------------------------------------------------------------------------------
 Lowest energy point so far.  Saving SCF results.
 Iteration  1 RMS(Cart)=  0.02896515 RMS(Int)=  0.01600307
 Iteration  2 RMS(Cart)=  0.00132772 RMS(Int)=  0.01593560
 Iteration  3 RMS(Cart)=  0.00002618 RMS(Int)=  0.01593560
 Iteration  4 RMS(Cart)=  0.00000115 RMS(Int)=  0.01593560
 Iteration  5 RMS(Cart)=  0.00000004 RMS(Int)=  0.01593560
 Iteration  1 RMS(Cart)=  0.00979600 RMS(Int)=  0.00527191
 Iteration  2 RMS(Cart)=  0.00326870 RMS(Int)=  0.00582129
 Iteration  3 RMS(Cart)=  0.00107973 RMS(Int)=  0.00621396
 Iteration  4 RMS(Cart)=  0.00035555 RMS(Int)=  0.00636110
 Iteration  5 RMS(Cart)=  0.00011696 RMS(Int)=  0.00641125
 Iteration  6 RMS(Cart)=  0.00003846 RMS(Int)=  0.00642792
 Iteration  7 RMS(Cart)=  0.00001265 RMS(Int)=  0.00643343
 Iteration  8 RMS(Cart)=  0.00000416 RMS(Int)=  0.00643524
 Iteration  9 RMS(Cart)=  0.00000137 RMS(Int)=  0.00643583
 Iteration 10 RMS(Cart)=  0.00000045 RMS(Int)=  0.00643603
 GradGradGradGradGradGradGradGradGradGradGradGradGradGradGradGradGradGrad

 Leave Link  103 at Thu Feb 28 14:39:14 2019, MaxMem=   671088640 cpu:               1.6 elap:               0.2
 (Enter /shared/centos7/gaussian/g16/l202.exe)
                          Input orientation:                          
 ---------------------------------------------------------------------
 Center     Atomic      Atomic             Coordinates (Angstroms)
 Number     Number       Type             X           Y           Z
 ---------------------------------------------------------------------
      1          8           0        1.963748    0.928909    0.060836
[...]
           A3         108.70034 109.78552 110.72178 111.32296 111.66922
           A4         108.14803 108.59758 108.83443 108.78180 108.51512
           A5         110.11948 111.16794 111.92713 112.20686 112.11504
           A6         110.60574 110.68435 110.75153 110.78184 110.78379
           A7         106.71978 106.67399 106.65350 106.66416 106.71556
           A8         115.36338 115.51464 115.59723 115.60065 115.53170
           A9         106.81718 106.79556 106.77418 106.76246 106.74730
           A10        108.85072 108.66130 108.51029 108.42408 108.39086
           A11        108.10478 108.12326 108.16257 108.21849 108.28955
           A12        122.81213 122.86703 122.90278 122.91427 122.91096
           A13        114.67490 114.65873 114.63987 114.61389 114.58260
           A14        122.48408 122.44523 122.42832 122.44281 122.47737
           D1        -118.71753-108.71758 -98.71771 -88.71762 -78.71771
           D2           0.82766  13.01454  24.70977  35.42749  45.35658
           D3         178.25605 178.28629 178.33469 178.39326 178.45714
           D4          -3.65608  -3.63057  -3.58326  -3.52462  -3.46132
           D5        -154.69705-152.80348-151.86151-152.27504-153.73361
           D6         -38.86839 -36.98575 -36.04611 -36.45188 -37.89833
           D7          81.23001  83.19722  84.22358  83.89898  82.53730
           D8          86.99551  87.01428  86.51300  85.53916  84.24086
           D9        -157.17583-157.16799-157.67159-158.63768-159.92386
           D10        -37.07743 -36.98502 -37.40190 -38.28682 -39.48823
           D11         22.89752  22.51145  22.39905  22.63673  23.13414
           D12       -159.00761-159.39639-159.50874-159.27105-158.77502
           D13        -92.87042 -93.23059 -93.34132 -93.12535 -92.68143
           D14         85.22445  84.86157  84.75090  84.96687  85.40941
           D15        150.62751 150.35305 150.28366 150.48372 150.86926
           D16        -31.27762 -31.55479 -31.62413 -31.42406 -31.03990
                          36        37
     Eigenvalues --    -0.58413  -0.58438
           R1           1.40393   1.40382
           R2           0.96527   0.96578
           R3           1.33427   1.33433
           R4           0.97133   0.97117
           R5           1.19271   1.19254
           R6           1.45433   1.45402
           R7           1.01505   1.01575
           R8           1.52595   1.52591
           R9           1.09081   1.09116
           R10          1.09222   1.09252
           A1         108.21886 108.12372
           A2         107.98273 108.10136
           A3         111.78801 111.81062
           A4         108.08473 107.52452
           A5         111.71532 111.15664
           A6         110.77458 110.75417
           A7         106.80388 106.92970
           A8         115.42123 115.27785
           A9         106.74141 106.69968
           A10        108.37758 108.39744
           A11        108.35054 108.41951
           A12        122.90432 122.90454
           A13        114.55223 114.52185
           A14        122.51442 122.54459
           D1         -68.71763 -58.71769
           D2          54.62887  63.56072
           D3         178.51245 178.57117
           D4          -3.40420  -3.34447
           D5        -155.71036-157.89820
           D6         -39.83672 -42.01331
           D7          80.67153  78.58398
           D8          83.02199  81.92665
           D9        -161.10436-162.18846
           D10        -40.59612 -41.59117
           D11         23.68187  24.18945
           D12       -158.22642-157.71847
           D13        -92.23056 -91.83823
           D14         85.86115  86.25384
           D15        151.25868 151.58230
           D16        -30.64961 -30.32562
 Largest change from initial coordinates is atom    8       0.000 Angstoms.
 GradGradGradGradGradGradGradGradGradGradGradGradGradGradGradGradGradGrad

 Leave Link  103 at Thu Feb 28 15:52:52 2019, MaxMem=   671088640 cpu:               0.6 elap:               0.1
 (Enter /shared/centos7/gaussian/g16/l202.exe)
                          Input orientation:                          
 ---------------------------------------------------------------------
 Center     Atomic      Atomic             Coordinates (Angstroms)
 Number     Number       Type             X           Y           Z
 ---------------------------------------------------------------------
      1          8           0        1.946442    0.952092   -0.094082
      2          8           0       -1.967304    0.707421   -0.076385
      3          8           0       -2.078104   -1.505981   -0.217992
      4          7           0        0.648901    0.685502    0.370702
      5          6           0        0.098574   -0.520886   -0.225918
      6          6           0       -1.425913   -0.509199   -0.161141
      7          1           0        0.367622   -0.503683   -1.283250
      8          1           0        0.454850   -1.459158    0.205725
      9          1           0        0.696773    0.605309    1.382148
     10          1           0        2.504046    0.193130    0.119871
     11          1           0       -1.246087    1.355353   -0.019779
 ---------------------------------------------------------------------
                    Distance matrix (angstroms):
                    1          2          3          4          5
     1  O    0.000000
     2  O    3.921426   0.000000
     3  O    4.717462   2.220693   0.000000
     4  N    1.403819   2.654222   3.547635   0.000000
     5  C    2.366783   2.408101   2.389227   1.454024   0.000000
     6  C    3.675955   1.334335   1.192544   2.452554   1.525908
     7  H    2.454806   2.893989   2.849729   2.056413   1.091161
     8  H    2.851115   3.261975   2.568577   2.159731   1.092521
     9  H    1.964990   3.038923   3.836396   1.015748   2.052323
    10  H    0.965776   4.505106   4.898697   1.935694   2.532920
    11  H    3.218755   0.971171   2.986431   2.047475   2.317516
                    6          7          8          9         10
     6  C    0.000000
     7  H    2.115639   0.000000
     8  H    2.138758   1.771324   0.000000
     9  H    2.851257   2.905606   2.388413   0.000000
    10  H    4.002102   2.649265   2.633748   2.242648   0.000000
    11  H    1.878529   2.767025   3.296287   2.510512   3.928583
                   11
    11  H    0.000000
 Stoichiometry    C2H5NO3
 Framework group  C1[X(C2H5NO3)]
 Deg. of freedom    27
 Full point group                 C1      NOp   1
 RotChk:  IX=0 Diff= 1.40D-15
 Largest Abelian subgroup         C1      NOp   1
 Largest concise Abelian subgroup C1      NOp   1
                         Standard orientation:                         
 ---------------------------------------------------------------------
 Center     Atomic      Atomic             Coordinates (Angstroms)
 Number     Number       Type             X           Y           Z
 ---------------------------------------------------------------------
      1          8           0        2.489664    0.001607   -0.207759
      2          8           0       -1.227366    1.247041   -0.106966
      3          8           0       -2.157262   -0.761680    0.071396
      4          7           0        1.218649    0.303087    0.306378
      5          6           0        0.223897   -0.674618   -0.104411
      6          6           0       -1.180661   -0.083842   -0.023197
      7          1           0        0.410866   -0.895335   -1.156533
      8          1           0        0.235471   -1.614298    0.452789
      9          1           0        1.299178    0.341231    1.318211
     10          1           0        2.739960   -0.876874    0.105842
     11          1           0       -0.315720    1.578682   -0.152669
 ---------------------------------------------------------------------
 Rotational constants (GHZ):           9.4500629           2.0136038           1.7248174
 Leave Link  202 at Thu Feb 28 15:52:52 2019, MaxMem=   671088640 cpu:               0.3 elap:               0.0
 (Enter /shared/centos7/gaussian/g16/l601.exe)
 Copying SCF densities to generalized density rwf, IOpCl= 0 IROHF=0.

 **********************************************************************

            Population analysis using the SCF density.

 **********************************************************************

 Orbital symmetries:
       Occupied  (A) (A) (A) (A) (A) (A) (A) (A) (A) (A) (A) (A)
                 (A) (A) (A) (A) (A) (A) (A) (A) (A) (A) (A) (A)
       Virtual   (A) (A) (A) (A) (A) (A) (A) (A) (A) (A) (A) (A)
                 (A) (A) (A) (A) (A) (A) (A) (A) (A) (A) (A) (A)
                 (A) (A) (A) (A) (A) (A) (A) (A) (A) (A) (A) (A)
                 (A) (A) (A) (A) (A) (A) (A) (A) (A) (A) (A) (A)
                 (A) (A) (A) (A) (A) (A) (A) (A) (A) (A) (A) (A)
                 (A) (A) (A) (A) (A) (A) (A) (A) (A) (A) (A) (A)
                 (A) (A) (A) (A) (A) (A) (A) (A) (A) (A) (A) (A)
                 (A) (A) (A) (A) (A) (A) (A) (A) (A) (A) (A) (A)
                 (A) (A) (A) (A) (A) (A) (A) (A) (A) (A) (A) (A)
                 (A) (A) (A) (A) (A) (A) (A) (A) (A) (A) (A) (A)
                 (A) (A) (A) (A) (A) (A) (A) (A) (A) (A) (A) (A)
                 (A) (A) (A) (A) (A) (A) (A) (A) (A) (A) (A) (A)
                 (A) (A) (A) (A) (A) (A) (A) (A) (A) (A) (A) (A)
                 (A) (A) (A) (A) (A) (A) (A) (A) (A) (A) (A) (A)
                 (A) (A) (A) (A) (A) (A) (A) (A) (A) (A) (A) (A)
                 (A) (A) (A) (A) (A) (A) (A) (A) (A) (A) (A) (A)
                 (A) (A) (A) (A) (A) (A) (A) (A) (A) (A) (A) (A)
                 (A) (A) (A) (A) (A) (A) (A) (A) (A) (A) (A) (A)
                 (A) (A) (A) (A) (A) (A) (A) (A) (A)
 The electronic state is 1-A.
 Alpha  occ. eigenvalues --  -19.68613 -19.67304 -19.61857 -14.83013 -10.68398
 Alpha  occ. eigenvalues --  -10.60281  -1.24474  -1.22954  -1.15567  -0.98374
 Alpha  occ. eigenvalues --   -0.82144  -0.70785  -0.66496  -0.63782  -0.60120
 Alpha  occ. eigenvalues --   -0.55979  -0.54095  -0.51662  -0.48819  -0.46972
 Alpha  occ. eigenvalues --   -0.42022  -0.40172  -0.36679  -0.35464
 Alpha virt. eigenvalues --   -0.00794   0.02023   0.02686   0.03873   0.04262
 Alpha virt. eigenvalues --    0.07034   0.07334   0.07895   0.09912   0.10708
 Alpha virt. eigenvalues --    0.12102   0.13324   0.15922   0.18183   0.19055
 Alpha virt. eigenvalues --    0.19259   0.20099   0.20550   0.22103   0.22569
 Alpha virt. eigenvalues --    0.23102   0.25325   0.26311   0.27011   0.28189
 Alpha virt. eigenvalues --    0.28956   0.29910   0.31198   0.33187   0.34143
 Alpha virt. eigenvalues --    0.34898   0.35956   0.36960   0.44014   0.45009
 Alpha virt. eigenvalues --    0.47460   0.51593   0.53973   0.54226   0.55850
 Alpha virt. eigenvalues --    0.57442   0.59324   0.60634   0.62917   0.64005
 Alpha virt. eigenvalues --    0.66793   0.67128   0.67983   0.70330   0.74320
 Alpha virt. eigenvalues --    0.77287   0.78321   0.80910   0.85602   0.87541
 Alpha virt. eigenvalues --    0.88491   0.89415   0.92169   0.93354   0.99199
 Alpha virt. eigenvalues --    1.02365   1.05040   1.06534   1.07827   1.10908
 Alpha virt. eigenvalues --    1.13650   1.13827   1.15862   1.16915   1.18845
 Alpha virt. eigenvalues --    1.20615   1.21990   1.23454   1.25749   1.27838
 Alpha virt. eigenvalues --    1.31102   1.32512   1.36831   1.40665   1.41362
 Alpha virt. eigenvalues --    1.43411   1.47420   1.48468   1.50978   1.53952
 Alpha virt. eigenvalues --    1.56151   1.58630   1.61257   1.64966   1.69120
 Alpha virt. eigenvalues --    1.70133   1.72606   1.78052   1.78376   1.82755
 Alpha virt. eigenvalues --    1.87338   1.92436   1.93556   2.05214   2.07891
 Alpha virt. eigenvalues --    2.10667   2.21483   2.25896   2.29138   2.31882
 Alpha virt. eigenvalues --    2.35161   2.37473   2.47657   2.51828   2.60952
 Alpha virt. eigenvalues --    2.62976   2.65972   2.74527   2.78963   2.81879
 Alpha virt. eigenvalues --    2.85130   2.88559   2.98998   3.02706   3.06265
 Alpha virt. eigenvalues --    3.09313   3.12285   3.14400   3.21518   3.23972
 Alpha virt. eigenvalues --    3.26689   3.31959   3.36830   3.38160   3.40426
 Alpha virt. eigenvalues --    3.48273   3.50279   3.51668   3.53233   3.54006
 Alpha virt. eigenvalues --    3.56666   3.62103   3.65663   3.66026   3.71284
 Alpha virt. eigenvalues --    3.72939   3.76503   3.82643   3.85965   3.90482
 Alpha virt. eigenvalues --    3.92182   3.95883   3.99822   4.04435   4.06563
 Alpha virt. eigenvalues --    4.08853   4.13651   4.17086   4.20170   4.22416
 Alpha virt. eigenvalues --    4.25706   4.28156   4.34400   4.39304   4.46052
 Alpha virt. eigenvalues --    4.60279   4.63583   4.67240   4.73547   4.84908
 Alpha virt. eigenvalues --    4.92613   5.05400   5.07366   5.07789   5.10420
 Alpha virt. eigenvalues --    5.11605   5.14591   5.15562   5.19266   5.21060
 Alpha virt. eigenvalues --    5.21874   5.23660   5.24145   5.31632   5.33426
 Alpha virt. eigenvalues --    5.39086   5.41369   5.44730   5.50011   5.53136
 Alpha virt. eigenvalues --    5.53965   5.56427   5.58573   5.61021   5.67299
 Alpha virt. eigenvalues --    5.68488   5.83436   5.92632   5.98761   6.01810
 Alpha virt. eigenvalues --    6.06374   6.22731   6.38722   6.59322   6.79260
 Alpha virt. eigenvalues --    6.82744   6.88667   6.91263   6.92855   6.97899
 Alpha virt. eigenvalues --    7.10272   7.12227   7.14690   7.14890   7.17914
 Alpha virt. eigenvalues --    7.26176   7.27456   7.36142   7.41058   7.45080
 Alpha virt. eigenvalues --    7.61471   7.64710   7.66294   7.73116  24.41601
 Alpha virt. eigenvalues --   24.83467  35.74466  50.07090  50.13030  50.30724
          Condensed to atoms (all electrons):
               1          2          3          4          5          6
     1  O    7.933568  -0.004425   0.000408   0.071448  -0.013120   0.022256
     2  O   -0.004425   7.940869  -0.062217   0.035644  -0.081375   0.221548
     3  O    0.000408  -0.062217   8.135644   0.005604  -0.072253   0.376824
     4  N    0.071448   0.035644   0.005604   7.094400   0.040689  -0.109944
     5  C   -0.013120  -0.081375  -0.072253   0.040689   5.249137   0.157125
     6  C    0.022256   0.221548   0.376824  -0.109944   0.157125   5.177613
     7  H    0.007731  -0.000943   0.000106  -0.047779   0.432704  -0.041385
     8  H   -0.005499   0.006780  -0.003291  -0.034040   0.444233  -0.046866
     9  H   -0.027264  -0.006309   0.000108   0.316653  -0.013684   0.006372
    10  H    0.217193  -0.000353   0.000149  -0.039744  -0.007123   0.002544
    11  H   -0.003353   0.230300  -0.003972   0.016094  -0.025045   0.038993
               7          8          9         10         11
     1  O    0.007731  -0.005499  -0.027264   0.217193  -0.003353
     2  O   -0.000943   0.006780  -0.006309  -0.000353   0.230300
     3  O    0.000106  -0.003291   0.000108   0.000149  -0.003972
     4  N   -0.047779  -0.034040   0.316653  -0.039744   0.016094
     5  C    0.432704   0.444233  -0.013684  -0.007123  -0.025045
     6  C   -0.041385  -0.046866   0.006372   0.002544   0.038993
     7  H    0.496863  -0.031275   0.005176  -0.003679  -0.001572
     8  H   -0.031275   0.511592  -0.010901   0.008569   0.000964
     9  H    0.005176  -0.010901   0.499259  -0.013816  -0.002187
    10  H   -0.003679   0.008569  -0.013816   0.588226   0.000793
    11  H   -0.001572   0.000964  -0.002187   0.000793   0.465641
 Mulliken charges:
               1
     1  O   -0.198945
     2  O   -0.279520
     3  O   -0.377108
     4  N   -0.349025
     5  C   -0.111288
     6  C    0.194921
     7  H    0.184053
     8  H    0.159734
     9  H    0.246592
    10  H    0.247242
    11  H    0.283343
 Sum of Mulliken charges =  -0.00000
 Mulliken charges with hydrogens summed into heavy atoms:
               1
     1  O    0.048298
     2  O    0.003823
     3  O   -0.377108
     4  N   -0.102433
     5  C    0.232500
     6  C    0.194921
 Electronic spatial extent (au):  <R**2>=            652.5827
 Charge=             -0.0000 electrons
 Dipole moment (field-independent basis, Debye):
    X=              3.9629    Y=             -1.1946    Z=              1.2391  Tot=              4.3206
 Quadrupole moment (field-independent basis, Debye-Ang):
   XX=            -45.6360   YY=            -34.6018   ZZ=            -32.5988
   XY=             -5.7086   XZ=              3.4860   YZ=              0.2860
 Traceless Quadrupole moment (field-independent basis, Debye-Ang):
   XX=             -8.0238   YY=              3.0104   ZZ=              5.0134
   XY=             -5.7086   XZ=              3.4860   YZ=              0.2860
 Octapole moment (field-independent basis, Debye-Ang**2):
  XXX=             24.0928  YYY=              2.9160  ZZZ=              2.6853  XYY=             10.4724
  XXY=             -8.5453  XXZ=              6.2139  XZZ=              2.3909  YZZ=              0.4283
  YYZ=              0.0023  XYZ=             -0.6049
 Hexadecapole moment (field-independent basis, Debye-Ang**3):
 XXXX=           -615.3172 YYYY=           -140.5650 ZZZZ=            -43.3418 XXXY=            -48.9586
 XXXZ=             15.6787 YYYX=             -6.1235 YYYZ=             -2.8548 ZZZX=              5.1075
 ZZZY=              1.9333 XXYY=           -122.7818 XXZZ=           -101.7562 YYZZ=            -32.2408
 XXYZ=              0.1753 YYXZ=              0.8176 ZZXY=              0.4001
 N-N= 2.442081446683D+02 E-N=-1.333479386223D+03  KE= 3.584643386539D+02
 No NMR shielding tensors so no spin-rotation constants.
 Leave Link  601 at Thu Feb 28 15:52:52 2019, MaxMem=   671088640 cpu:               6.3 elap:               0.4
 (Enter /shared/centos7/gaussian/g16/l9999.exe)
 1\1\GINC-C0180\Scan\RM062X\6-311+G(2df,2p)\C2H5N1O3\UNDERKOFFLER.C\28-
 Feb-2019\0\\#p m062x/6-311+g(2df,2p) Opt=(CalcFC,ModRedun)\\Gaussian I
 nput Prepared from Scan Object\\0,1\O,1.9464418002,0.9520923347,-0.094
 0823051\O,-1.9673036782,0.7074206401,-0.0763849762\O,-2.0781042882,-1.
 5059813261,-0.2179916038\N,0.6489007442,0.6855022843,0.3707021726\C,0.
 098574319,-0.5208858871,-0.2259179079\C,-1.4259134409,-0.5091986501,-0
 .1611406496\H,0.3676218997,-0.5036827257,-1.2832497267\H,0.4548504797,
 -1.4591577717,0.2057249793\H,0.6967732648,0.6053085912,1.3821477667\H,
 2.5040462758,0.1931299157,0.1198711627\H,-1.2460873761,1.3553525946,-0
 .019778912\\Version=EM64L-G16RevA.03\State=1-A\HF=-359.5843815,-359.58
 41297,-359.5834125,-359.5823487,-359.5811217,-359.579955,-359.5790576,
 -359.5785881,-359.5786237,-359.5791484,-359.5800889,-359.5813259,-359.
 5827231,-359.5841469,-359.5854836,-359.5866401,-359.5875524,-359.58817
 45,-359.5884773,-359.5884511,-359.5881038,-359.5874571,-359.5865413,-3
 59.5853961,-359.5840798,-359.5826774,-359.5813052,-359.5801128,-359.57
 92677,-359.578927,-359.5791737,-359.5799631,-359.5811084,-359.5823425,
 -359.5834121,-359.5841294,-359.5843815\RMSD=5.269e-09,6.440e-09,9.244e
 -09,8.622e-09,3.884e-09,7.473e-09,6.004e-09,6.090e-09,3.557e-09,8.537e
 -09,8.015e-09,6.458e-09,4.759e-09,6.904e-09,7.151e-09,9.826e-09,7.416e
 -09,8.743e-09,8.692e-09,5.721e-09,5.905e-09,8.244e-09,7.937e-09,4.622e
 -09,2.880e-09,9.500e-09,5.305e-09,7.837e-09,8.112e-09,3.396e-09,6.974e
 -09,4.677e-09,4.704e-09,4.091e-09,5.231e-09,3.377e-09,9.109e-09\PG=C01
  [X(C2H5N1O3)]\\@


 SCIENCE IS A VERY HUMAN FORM OF KNOWLEDGE.
 WE ARE ALWAYS AT THE BRINK OF THE KNOWN,
 WE ALWAYS FEEL FORWARD FOR WHAT IS HOPED.
 EVERY JUDGEMENT IN SCIENCE STANDS ON THE EDGE OF ERROR, AND IS PERSONAL.
 SCIENCE IS A TRIBUTE TO WHAT WE CAN KNOW ALTHOUGH WE ARE FALLIBLE.

                     -- J. BRONOWSKI
 Job cpu time:       0 days 20 hours 14 minutes 44.8 seconds.
 Elapsed time:       0 days  1 hours 18 minutes  6.4 seconds.
 File lengths (MBytes):  RWF=    288 Int=      0 D2E=      0 Chk=     32 Scr=     32
 Normal termination of Gaussian 16 at Thu Feb 28 15:52:52 2019.
