 Entering Gaussian System, Link 0=g16
 Input=NPWGWQRXHVJJRD-UHFFFAOYSA-N_GeoFreq.com
 Output=NPWGWQRXHVJJRD-UHFFFAOYSA-N_GeoFreq.log
 Initial command:
 /shared/centos7/gaussian/g16/l1.exe "/scratch/underkoffler.c/gaussian_scratch/Gau-25864.inp" -scrdir="/scratch/underkoffler.c/gaussian_scratch/"
 Entering Link 1 = /shared/centos7/gaussian/g16/l1.exe PID=     25865.
  
 Copyright (c) 1988,1990,1992,1993,1995,1998,2003,2009,2016,
            Gaussian, Inc.  All Rights Reserved.
  
 This is part of the Gaussian(R) 16 program.  It is based on
 the Gaussian(R) 09 system (copyright 2009, Gaussian, Inc.),
 the Gaussian(R) 03 system (copyright 2003, Gaussian, Inc.),
 the Gaussian(R) 98 system (copyright 1998, Gaussian, Inc.),
 the Gaussian(R) 94 system (copyright 1995, Gaussian, Inc.),
 the Gaussian 92(TM) system (copyright 1992, Gaussian, Inc.),
 the Gaussian 90(TM) system (copyright 1990, Gaussian, Inc.),
 the Gaussian 88(TM) system (copyright 1988, Gaussian, Inc.),
 the Gaussian 86(TM) system (copyright 1986, Carnegie Mellon
 University), and the Gaussian 82(TM) system (copyright 1983,
 Carnegie Mellon University). Gaussian is a federally registered
 trademark of Gaussian, Inc.
  
 This software contains proprietary and confidential information,
 including trade secrets, belonging to Gaussian, Inc.
  
 This software is provided under written license and may be
 used, copied, transmitted, or stored only in accord with that
 written license.
  
 The following legend is applicable only to US Government
 contracts under FAR:
  
                    RESTRICTED RIGHTS LEGEND
  
 Use, reproduction and disclosure by the US Government is
 subject to restrictions as set forth in subparagraphs (a)
 and (c) of the Commercial Computer Software - Restricted
 Rights clause in FAR 52.227-19.
  
 Gaussian, Inc.
 340 Quinnipiac St., Bldg. 40, Wallingford CT 06492
  
  
 ---------------------------------------------------------------
 Warning -- This program may not be used in any manner that
 competes with the business of Gaussian, Inc. or will provide
 assistance to any competitor of Gaussian, Inc.  The licensee
 of this program is prohibited from giving any competitor of
 Gaussian, Inc. access to this program.  By using this program,
 the user acknowledges that Gaussian, Inc. is engaged in the
 business of creating and licensing software in the field of
 computational chemistry and represents and warrants to the
 licensee that it is not a competitor of Gaussian, Inc. and that
 it will not use this program in any manner prohibited above.
 ---------------------------------------------------------------
  

 Cite this work as:
 Gaussian 16, Revision A.03,
 M. J. Frisch, G. W. Trucks, H. B. Schlegel, G. E. Scuseria, 
 M. A. Robb, J. R. Cheeseman, G. Scalmani, V. Barone, 
 G. A. Petersson, H. Nakatsuji, X. Li, M. Caricato, A. V. Marenich, 
 J. Bloino, B. G. Janesko, R. Gomperts, B. Mennucci, H. P. Hratchian, 
 J. V. Ortiz, A. F. Izmaylov, J. L. Sonnenberg, D. Williams-Young, 
 F. Ding, F. Lipparini, F. Egidi, J. Goings, B. Peng, A. Petrone, 
 T. Henderson, D. Ranasinghe, V. G. Zakrzewski, J. Gao, N. Rega, 
 G. Zheng, W. Liang, M. Hada, M. Ehara, K. Toyota, R. Fukuda, 
 J. Hasegawa, M. Ishida, T. Nakajima, Y. Honda, O. Kitao, H. Nakai, 
 T. Vreven, K. Throssell, J. A. Montgomery, Jr., J. E. Peralta, 
 F. Ogliaro, M. J. Bearpark, J. J. Heyd, E. N. Brothers, K. N. Kudin, 
 V. N. Staroverov, T. A. Keith, R. Kobayashi, J. Normand, 
 K. Raghavachari, A. P. Rendell, J. C. Burant, S. S. Iyengar, 
 J. Tomasi, M. Cossi, J. M. Millam, M. Klene, C. Adamo, R. Cammi, 
 J. W. Ochterski, R. L. Martin, K. Morokuma, O. Farkas, 
 J. B. Foresman, and D. J. Fox, Gaussian, Inc., Wallingford CT, 2016.
 
 ******************************************
 Gaussian 16:  EM64L-G16RevA.03 25-Dec-2016
                28-Feb-2019 
 ******************************************
 ----------------------------------------------------------------------
 #p m062x/6-311+g(2df,2p) opt=(calcfc,verytight,gdiis,maxcycles=900) fr
 eq IOP(2/16=3)
 ----------------------------------------------------------------------

 Warning!  Use of Opt=GDIIS is deprecated since it is seldom a good choice.

 1/6=900,7=1,10=4,18=20,19=11,26=3,38=1/1,3;
 2/9=110,12=2,16=3,17=6,18=5,40=1/2;
 3/5=4,6=6,7=214,11=2,25=1,30=1,71=2,74=-55,140=1/1,2,3;
 4//1;
 5/5=2,38=5/2;
 8/6=4,10=90,11=11/1;
 11/6=1,8=1,9=11,15=111,16=1/1,2,10;
 10/6=1,13=1/2;
 6/7=2,8=2,9=2,10=2,28=1/1;
 7/10=1,18=20,25=1/1,2,3,16;
 1/6=900,7=1,10=4,18=20,19=11,26=3/3(2);
 2/9=110,16=3/2;
 99//99;
 2/9=110,16=3/2;
 3/5=4,6=6,7=214,11=2,25=1,30=1,71=1,74=-55/1,2,3;
 4/5=5,16=3,69=1/1;
 5/5=2,38=5/2;
 7//1,2,3,16;
 1/6=900,7=1,18=20,19=11,26=3/3(-5);
 2/9=110,16=3/2;
 6/7=2,8=2,9=2,10=2,19=2,28=1/1;
 99/9=1/99;
 Leave Link    1 at Thu Feb 28 09:15:24 2019, MaxMem=           0 cpu:               0.2 elap:               3.7
 (Enter /shared/centos7/gaussian/g16/l101.exe)
 ------------------------------
 Gaussian input prepared by ASE
 ------------------------------
 Symbolic Z-matrix:
 Charge =  0 Multiplicity = 1
 O                    -1.1207    0.4913    1.2598 
 O                     2.1701    0.0407    0.2661 
 O                     0.808    -1.7097    0.6803 
 N                    -0.9868    0.7708   -0.0428 
 C                    -0.1369   -0.135    -0.7644 
 C                     0.9548   -0.581     0.1211 
 H                     0.2352    0.406    -1.6681 
 H                    -0.7006   -1.0149   -1.1658 
 H                    -1.8671    1.0135   -0.5251 
 H                    -1.6893   -0.3015    1.4487 
 H                     2.3333    1.0199    0.3902 
 
 ITRead=  0  0  0  0  0  0  0  0  0  0  0
 MicOpt= -1 -1 -1 -1 -1 -1 -1 -1 -1 -1 -1
 NAtoms=     11 NQM=       11 NQMF=       0 NMMI=      0 NMMIF=      0
                NMic=       0 NMicF=      0.
                    Isotopes and Nuclear Properties:
 (Nuclear quadrupole moments (NQMom) in fm**2, nuclear magnetic moments (NMagM)
  in nuclear magnetons)

  Atom         1           2           3           4           5           6           7           8           9          10
 IAtWgt=          16          16          16          14          12          12           1           1           1           1
 AtmWgt=  15.9949146  15.9949146  15.9949146  14.0030740  12.0000000  12.0000000   1.0078250   1.0078250   1.0078250   1.0078250
 NucSpn=           0           0           0           2           0           0           1           1           1           1
 AtZEff=  -0.0000000  -0.0000000  -0.0000000  -0.0000000  -0.0000000  -0.0000000  -0.0000000  -0.0000000  -0.0000000  -0.0000000
 NQMom=    0.0000000   0.0000000   0.0000000   2.0440000   0.0000000   0.0000000   0.0000000   0.0000000   0.0000000   0.0000000
 NMagM=    0.0000000   0.0000000   0.0000000   0.4037610   0.0000000   0.0000000   2.7928460   2.7928460   2.7928460   2.7928460
 AtZNuc=   8.0000000   8.0000000   8.0000000   7.0000000   6.0000000   6.0000000   1.0000000   1.0000000   1.0000000   1.0000000

  Atom        11
 IAtWgt=           1
 AtmWgt=   1.0078250
 NucSpn=           1
 AtZEff=  -0.0000000
 NQMom=    0.0000000
 NMagM=    2.7928460
 AtZNuc=   1.0000000
 Leave Link  101 at Thu Feb 28 09:15:25 2019, MaxMem=   104857600 cpu:               0.2 elap:               1.3
 (Enter /shared/centos7/gaussian/g16/l103.exe)

 GradGradGradGradGradGradGradGradGradGradGradGradGradGradGradGradGradGrad
 Berny optimization.
 Initialization pass.
                           ----------------------------
                           !    Initial Parameters    !
                           ! (Angstroms and Degrees)  !
 --------------------------                            --------------------------
 ! Name  Definition              Value          Derivative Info.                !
 --------------------------------------------------------------------------------
 ! R1    R(1,4)                  1.339          calculate D2E/DX2 analytically  !
 ! R2    R(1,10)                 0.9937         calculate D2E/DX2 analytically  !
 ! R3    R(2,6)                  1.3728         calculate D2E/DX2 analytically  !
 ! R4    R(2,11)                 1.0004         calculate D2E/DX2 analytically  !
 ! R5    R(3,6)                  1.2682         calculate D2E/DX2 analytically  !
 ! R6    R(4,5)                  1.4365         calculate D2E/DX2 analytically  !
 ! R7    R(4,9)                  1.0327         calculate D2E/DX2 analytically  !
 ! R8    R(5,6)                  1.4747         calculate D2E/DX2 analytically  !
 ! R9    R(5,7)                  1.1171         calculate D2E/DX2 analytically  !
 ! R10   R(5,8)                  1.1194         calculate D2E/DX2 analytically  !
 ! A1    A(4,1,10)             114.1221         calculate D2E/DX2 analytically  !
 ! A2    A(6,2,11)             126.9264         calculate D2E/DX2 analytically  !
 ! A3    A(1,4,5)              114.597          calculate D2E/DX2 analytically  !
 ! A4    A(1,4,9)              114.7187         calculate D2E/DX2 analytically  !
 ! A5    A(5,4,9)              114.7039         calculate D2E/DX2 analytically  !
 ! A6    A(4,5,6)              109.0901         calculate D2E/DX2 analytically  !
 ! A7    A(4,5,7)              107.3426         calculate D2E/DX2 analytically  !
 ! A8    A(4,5,8)              112.1997         calculate D2E/DX2 analytically  !
 ! A9    A(6,5,7)              112.6836         calculate D2E/DX2 analytically  !
 ! A10   A(6,5,8)              110.5095         calculate D2E/DX2 analytically  !
 ! A11   A(7,5,8)              104.9711         calculate D2E/DX2 analytically  !
 ! A12   A(2,6,3)              117.3215         calculate D2E/DX2 analytically  !
 ! A13   A(2,6,5)              125.5783         calculate D2E/DX2 analytically  !
 ! A14   A(3,6,5)              116.6314         calculate D2E/DX2 analytically  !
 ! D1    D(10,1,4,5)           -73.2511         calculate D2E/DX2 analytically  !
 ! D2    D(10,1,4,9)            62.5345         calculate D2E/DX2 analytically  !
 ! D3    D(11,2,6,3)          -141.9877         calculate D2E/DX2 analytically  !
 ! D4    D(11,2,6,5)            46.1636         calculate D2E/DX2 analytically  !
 ! D5    D(1,4,5,6)            -34.3537         calculate D2E/DX2 analytically  !
 ! D6    D(1,4,5,7)           -156.7381         calculate D2E/DX2 analytically  !
 ! D7    D(1,4,5,8)             88.4437         calculate D2E/DX2 analytically  !
 ! D8    D(9,4,5,6)           -170.1458         calculate D2E/DX2 analytically  !
 ! D9    D(9,4,5,7)             67.4698         calculate D2E/DX2 analytically  !
 ! D10   D(9,4,5,8)            -47.3485         calculate D2E/DX2 analytically  !
 ! D11   D(4,5,6,2)            -89.6174         calculate D2E/DX2 analytically  !
 ! D12   D(4,5,6,3)             98.4838         calculate D2E/DX2 analytically  !
 ! D13   D(7,5,6,2)             29.4955         calculate D2E/DX2 analytically  !
 ! D14   D(7,5,6,3)           -142.4033         calculate D2E/DX2 analytically  !
 ! D15   D(8,5,6,2)            146.5792         calculate D2E/DX2 analytically  !
 ! D16   D(8,5,6,3)            -25.3196         calculate D2E/DX2 analytically  !
 --------------------------------------------------------------------------------
 Trust Radius=3.00D-01 FncErr=1.00D-07 GrdErr=1.00D-06 EigMax=2.50D+02 EigMin=1.00D-04
 Number of steps in this run=    100 maximum allowed number of steps=    100.
 GradGradGradGradGradGradGradGradGradGradGradGradGradGradGradGradGradGrad

 Leave Link  103 at Thu Feb 28 09:15:26 2019, MaxMem=   104857600 cpu:               0.1 elap:               0.1
 (Enter /shared/centos7/gaussian/g16/l202.exe)
                          Input orientation:                          
 ---------------------------------------------------------------------
 Center     Atomic      Atomic             Coordinates (Angstroms)
 Number     Number       Type             X           Y           Z
 ---------------------------------------------------------------------
      1          8           0       -1.120700    0.491300    1.259800
      2          8           0        2.170100    0.040700    0.266100
      3          8           0        0.808000   -1.709700    0.680300
      4          7           0       -0.986800    0.770800   -0.042800
      5          6           0       -0.136900   -0.135000   -0.764400
      6          6           0        0.954800   -0.581000    0.121100
      7          1           0        0.235200    0.406000   -1.668100
      8          1           0       -0.700600   -1.014900   -1.165800
      9          1           0       -1.867100    1.013500   -0.525100
     10          1           0       -1.689300   -0.301500    1.448700
     11          1           0        2.333300    1.019900    0.390200
 ---------------------------------------------------------------------
                    Distance matrix (angstroms):
                    1          2          3          4          5
     1  O    0.000000
     2  O    3.466965   0.000000
     3  O    2.983304   2.256275   0.000000
     4  N    1.338961   3.254917   3.145959   0.000000
     5  C    2.336129   2.532795   2.336595   1.436492   0.000000
     6  C    2.598878   1.372767   1.268156   2.371505   1.474732
     7  H    3.227745   2.760147   3.212362   2.065905   1.117056
     8  H    2.885941   3.377210   2.483285   2.128794   1.119421
     9  H    2.003915   4.227449   4.003120   1.032688   2.090433
    10  H    0.993741   4.051001   2.968160   1.966699   2.708409
    11  H    3.600797   1.000434   3.140289   3.357470   2.961213
                    6          7          8          9         10
     6  C    0.000000
     7  H    2.166386   0.000000
     8  H    2.141198   1.773974   0.000000
     9  H    3.305015   2.468840   2.426031   0.000000
    10  H    2.971852   3.730777   2.884801   2.378387   0.000000
    11  H    2.129685   3.002582   3.970654   4.298974   4.364382
                   11
    11  H    0.000000
 Stoichiometry    C2H5NO3
 Framework group  C1[X(C2H5NO3)]
 Deg. of freedom    27
 Full point group                 C1      NOp   1
 Largest Abelian subgroup         C1      NOp   1
 Largest concise Abelian subgroup C1      NOp   1
                         Standard orientation:                         
 ---------------------------------------------------------------------
 Center     Atomic      Atomic             Coordinates (Angstroms)
 Number     Number       Type             X           Y           Z
 ---------------------------------------------------------------------
      1          8           0       -1.534159    0.516740   -0.802043
      2          8           0        1.725955   -0.649377   -0.624077
      3          8           0        1.095160    1.262902    0.393796
      4          7           0       -1.461327   -0.533189    0.025702
      5          6           0       -0.307748   -0.540840    0.881685
      6          6           0        0.834991    0.044654    0.156304
      7          1           0       -0.126985   -1.599931    1.187406
      8          1           0       -0.488091    0.009860    1.839448
      9          1           0       -2.348700   -0.775363    0.495133
     10          1           0       -1.775077    1.370713   -0.354595
     11          1           0        1.509031   -1.337960   -1.316655
 ---------------------------------------------------------------------
 Rotational constants (GHZ):           5.8595111           2.6515414           2.4521941
 Leave Link  202 at Thu Feb 28 09:15:26 2019, MaxMem=   104857600 cpu:               0.0 elap:               0.0
 (Enter /shared/centos7/gaussian/g16/l301.exe)
 Standard basis: 6-311+G(2df,2p) (5D, 7F)
 Ernie: Thresh=  0.10000D-02 Tol=  0.10000D-05 Strict=F.
 There are   279 symmetry adapted cartesian basis functions of A   symmetry.
 There are   249 symmetry adapted basis functions of A   symmetry.
   249 basis functions,   367 primitive gaussians,   279 cartesian basis functions
    24 alpha electrons       24 beta electrons
       nuclear repulsion energy       248.7238848936 Hartrees.
 IExCor= 4336 DFT=T Ex+Corr=M062X ExCW=0 ScaHFX=  0.540000
 ScaDFX=  1.000000  1.000000  1.000000  1.000000 ScalE2=  1.000000  1.000000
 IRadAn=      5 IRanWt=     -1 IRanGd=            0 ICorTp=0 IEmpDi=  4
 NAtoms=   11 NActive=   11 NUniq=   11 SFac= 1.00D+00 NAtFMM=   60 NAOKFM=F Big=F
 Integral buffers will be    131072 words long.
 Raffenetti 2 integral format.
 Two-electron integral symmetry is turned on.
 Leave Link  301 at Thu Feb 28 09:15:26 2019, MaxMem=   104857600 cpu:               0.1 elap:               0.1
 (Enter /shared/centos7/gaussian/g16/l302.exe)
 NPDir=0 NMtPBC=     1 NCelOv=     1 NCel=       1 NClECP=     1 NCelD=      1
         NCelK=      1 NCelE2=     1 NClLst=     1 CellRange=     0.0.
 One-electron integrals computed using PRISM.
 One-electron integral symmetry used in STVInt
 NBasis=   249 RedAO= T EigKep=  7.63D-05  NBF=   249
 NBsUse=   249 1.00D-06 EigRej= -1.00D+00 NBFU=   249
 Precomputing XC quadrature grid using
 IXCGrd= 4 IRadAn=           5 IRanWt=          -1 IRanGd=           0 AccXCQ= 0.00D+00.
 Generated NRdTot=       0 NPtTot=           0 NUsed=           0 NTot=          32
 NSgBfM=   279   279   279   279   279 MxSgAt=    11 MxSgA2=    11.
 Leave Link  302 at Thu Feb 28 09:15:27 2019, MaxMem=   104857600 cpu:               0.5 elap:               0.5
 (Enter /shared/centos7/gaussian/g16/l303.exe)
 DipDrv:  MaxL=1.
 Leave Link  303 at Thu Feb 28 09:15:27 2019, MaxMem=   104857600 cpu:               0.1 elap:               0.1
 (Enter /shared/centos7/gaussian/g16/l401.exe)
 ExpMin= 4.38D-02 ExpMax= 8.59D+03 ExpMxC= 1.30D+03 IAcc=3 IRadAn=         5 AccDes= 0.00D+00
 Harris functional with IExCor= 1009 and IRadAn=       5 diagonalized for initial guess.
 HarFok:  IExCor= 1009 AccDes= 0.00D+00 IRadAn=         5 IDoV= 1 UseB2=F ITyADJ=14
 ICtDFT=  3500011 ScaDFX=  1.000000  1.000000  1.000000  1.000000
 FoFCou: FMM=F IPFlag=           0 FMFlag=      100000 FMFlg1=           0
         NFxFlg=           0 DoJE=T BraDBF=F KetDBF=T FulRan=T
         wScrn=  0.000000 ICntrl=       500 IOpCl=  0 I1Cent=   200000004 NGrid=           0
         NMat0=    1 NMatS0=      1 NMatT0=    0 NMatD0=    1 NMtDS0=    0 NMtDT0=    0
 Petite list used in FoFCou.
 Harris En= -359.373620397097    
 JPrj=0 DoOrth=F DoCkMO=F.
 Leave Link  401 at Thu Feb 28 09:15:33 2019, MaxMem=   104857600 cpu:               6.1 elap:               6.1
 (Enter /shared/centos7/gaussian/g16/l502.exe)
 Integral symmetry usage will be decided dynamically.
 Closed shell SCF:
 Using DIIS extrapolation, IDIIS=  1040.
 NGot=   104857600 LenX=   104697735 LenY=   104619453
 Requested convergence on RMS density matrix=1.00D-08 within 128 cycles.
 Requested convergence on MAX density matrix=1.00D-06.
 Requested convergence on             energy=1.00D-06.
 No special actions if energy rises.
 Fock matrices will be formed incrementally for  20 cycles.

 Cycle   1  Pass 1  IDiag  1:
 FoFJK:  IHMeth= 1 ICntrl=       0 DoSepK=F KAlg= 0 I1Cent=           0 FoldK=F
 IRaf= 980000000 NMat=       1 IRICut=       1 DoRegI=T DoRafI=F ISym2E= 0 IDoP0=0 IntGTp=1.
 FoFCou: FMM=F IPFlag=           0 FMFlag=      100000 FMFlg1=           0
         NFxFlg=           0 DoJE=F BraDBF=F KetDBF=F FulRan=T
         wScrn=  0.000000 ICntrl=         0 IOpCl=  0 I1Cent=           0 NGrid=           0
         NMat0=    1 NMatS0=      1 NMatT0=    0 NMatD0=    1 NMtDS0=    0 NMtDT0=    0
 Symmetry not used in FoFCou.
 E= -359.373351144766    
 DIIS: error= 1.65D-02 at cycle   1 NSaved=   1.
 NSaved= 1 IEnMin= 1 EnMin= -359.373351144766     IErMin= 1 ErrMin= 1.65D-02
 ErrMax= 1.65D-02  0.00D+00 EMaxC= 1.00D-01 BMatC= 2.77D-01 BMatP= 2.77D-01
 IDIUse=3 WtCom= 8.35D-01 WtEn= 1.65D-01
 Coeff-Com:  0.100D+01
 Coeff-En:   0.100D+01
 Coeff:      0.100D+01
 Gap=     0.302 Goal=   None    Shift=    0.000
 GapD=    0.302 DampG=1.000 DampE=0.500 DampFc=0.5000 IDamp=-1.
 Damping current iteration by 5.00D-01
 RMSDP=4.07D-03 MaxDP=1.98D-01              OVMax= 2.32D-01

 Cycle   2  Pass 1  IDiag  1:
 RMSU=  2.04D-03    CP:  1.00D+00
 E= -359.439870501053     Delta-E=       -0.066519356287 Rises=F Damp=T
 DIIS: error= 6.45D-03 at cycle   2 NSaved=   2.
 NSaved= 2 IEnMin= 2 EnMin= -359.439870501053     IErMin= 2 ErrMin= 6.45D-03
 ErrMax= 6.45D-03  0.00D+00 EMaxC= 1.00D-01 BMatC= 2.98D-02 BMatP= 2.77D-01
 IDIUse=3 WtCom= 9.35D-01 WtEn= 6.45D-02
 Coeff-Com:  0.545D-01 0.946D+00
 Coeff-En:   0.173D+00 0.827D+00
 Coeff:      0.621D-01 0.938D+00
 Gap=     0.366 Goal=   None    Shift=    0.000
 RMSDP=9.49D-04 MaxDP=4.11D-02 DE=-6.65D-02 OVMax= 1.20D-01

 Cycle   3  Pass 1  IDiag  1:
 RMSU=  9.43D-04    CP:  9.93D-01  9.67D-01
 E= -359.524748132632     Delta-E=       -0.084877631579 Rises=F Damp=F
 DIIS: error= 7.73D-03 at cycle   3 NSaved=   3.
 NSaved= 3 IEnMin= 3 EnMin= -359.524748132632     IErMin= 2 ErrMin= 6.45D-03
 ErrMax= 7.73D-03  0.00D+00 EMaxC= 1.00D-01 BMatC= 1.99D-02 BMatP= 2.98D-02
 IDIUse=3 WtCom= 9.23D-01 WtEn= 7.73D-02
 Coeff-Com: -0.675D-01 0.458D+00 0.610D+00
 Coeff-En:   0.000D+00 0.000D+00 0.100D+01
 Coeff:     -0.623D-01 0.422D+00 0.640D+00
 Gap=     0.305 Goal=   None    Shift=    0.000
 RMSDP=4.91D-04 MaxDP=1.66D-02 DE=-8.49D-02 OVMax= 6.02D-02

 Cycle   4  Pass 1  IDiag  1:
 RMSU=  4.37D-04    CP:  9.91D-01  9.88D-01  7.68D-01
 E= -359.536632225448     Delta-E=       -0.011884092816 Rises=F Damp=F
 DIIS: error= 3.09D-03 at cycle   4 NSaved=   4.
 NSaved= 4 IEnMin= 4 EnMin= -359.536632225448     IErMin= 4 ErrMin= 3.09D-03
 ErrMax= 3.09D-03  0.00D+00 EMaxC= 1.00D-01 BMatC= 4.29D-03 BMatP= 1.99D-02
 IDIUse=3 WtCom= 9.69D-01 WtEn= 3.09D-02
 Coeff-Com: -0.364D-01 0.979D-01 0.358D+00 0.580D+00
 Coeff-En:   0.000D+00 0.000D+00 0.175D+00 0.825D+00
 Coeff:     -0.352D-01 0.949D-01 0.353D+00 0.588D+00
 Gap=     0.299 Goal=   None    Shift=    0.000
 RMSDP=1.82D-04 MaxDP=6.72D-03 DE=-1.19D-02 OVMax= 1.40D-02

 Cycle   5  Pass 1  IDiag  1:
 RMSU=  8.26D-05    CP:  9.91D-01  1.00D+00  8.55D-01  6.90D-01
 E= -359.539636939197     Delta-E=       -0.003004713749 Rises=F Damp=F
 DIIS: error= 4.89D-04 at cycle   5 NSaved=   5.
 NSaved= 5 IEnMin= 5 EnMin= -359.539636939197     IErMin= 5 ErrMin= 4.89D-04
 ErrMax= 4.89D-04  0.00D+00 EMaxC= 1.00D-01 BMatC= 1.11D-04 BMatP= 4.29D-03
 IDIUse=3 WtCom= 9.95D-01 WtEn= 4.89D-03
 Coeff-Com: -0.108D-01 0.188D-01 0.123D+00 0.253D+00 0.616D+00
 Coeff-En:   0.000D+00 0.000D+00 0.000D+00 0.000D+00 0.100D+01
 Coeff:     -0.108D-01 0.187D-01 0.122D+00 0.252D+00 0.618D+00
 Gap=     0.299 Goal=   None    Shift=    0.000
 RMSDP=3.43D-05 MaxDP=1.47D-03 DE=-3.00D-03 OVMax= 2.83D-03

 Cycle   6  Pass 1  IDiag  1:
 RMSU=  2.70D-05    CP:  9.91D-01  1.00D+00  8.54D-01  7.03D-01  7.76D-01
 E= -359.539719342263     Delta-E=       -0.000082403066 Rises=F Damp=F
 DIIS: error= 1.18D-04 at cycle   6 NSaved=   6.
 NSaved= 6 IEnMin= 6 EnMin= -359.539719342263     IErMin= 6 ErrMin= 1.18D-04
 ErrMax= 1.18D-04  0.00D+00 EMaxC= 1.00D-01 BMatC= 9.06D-06 BMatP= 1.11D-04
 IDIUse=3 WtCom= 9.99D-01 WtEn= 1.18D-03
 Coeff-Com: -0.289D-03-0.300D-02 0.126D-01 0.349D-01 0.238D+00 0.718D+00
 Coeff-En:   0.000D+00 0.000D+00 0.000D+00 0.000D+00 0.000D+00 0.100D+01
 Coeff:     -0.288D-03-0.300D-02 0.126D-01 0.349D-01 0.238D+00 0.718D+00
 Gap=     0.299 Goal=   None    Shift=    0.000
 RMSDP=1.33D-05 MaxDP=4.70D-04 DE=-8.24D-05 OVMax= 9.50D-04

 Cycle   7  Pass 1  IDiag  1:
 RMSU=  1.10D-05    CP:  9.91D-01  1.00D+00  8.56D-01  7.02D-01  8.61D-01
                    CP:  9.68D-01
 E= -359.539727920548     Delta-E=       -0.000008578285 Rises=F Damp=F
 DIIS: error= 3.37D-05 at cycle   7 NSaved=   7.
 NSaved= 7 IEnMin= 7 EnMin= -359.539727920548     IErMin= 7 ErrMin= 3.37D-05
 ErrMax= 3.37D-05  0.00D+00 EMaxC= 1.00D-01 BMatC= 7.83D-07 BMatP= 9.06D-06
 IDIUse=1 WtCom= 1.00D+00 WtEn= 0.00D+00
 Coeff-Com:  0.169D-02-0.365D-02-0.116D-01-0.275D-01-0.281D-01 0.111D+00
 Coeff-Com:  0.958D+00
 Coeff:      0.169D-02-0.365D-02-0.116D-01-0.275D-01-0.281D-01 0.111D+00
 Coeff:      0.958D+00
 Gap=     0.299 Goal=   None    Shift=    0.000
 RMSDP=7.58D-06 MaxDP=2.39D-04 DE=-8.58D-06 OVMax= 4.84D-04

 Cycle   8  Pass 1  IDiag  1:
 RMSU=  4.62D-06    CP:  9.91D-01  9.99D-01  8.56D-01  7.00D-01  8.91D-01
                    CP:  1.11D+00  1.13D+00
 E= -359.539728987738     Delta-E=       -0.000001067190 Rises=F Damp=F
 DIIS: error= 1.67D-05 at cycle   8 NSaved=   8.
 NSaved= 8 IEnMin= 8 EnMin= -359.539728987738     IErMin= 8 ErrMin= 1.67D-05
 ErrMax= 1.67D-05  0.00D+00 EMaxC= 1.00D-01 BMatC= 1.68D-07 BMatP= 7.83D-07
 IDIUse=1 WtCom= 1.00D+00 WtEn= 0.00D+00
 Coeff-Com:  0.781D-03-0.137D-02-0.548D-02-0.149D-01-0.322D-01-0.228D-01
 Coeff-Com:  0.401D+00 0.675D+00
 Coeff:      0.781D-03-0.137D-02-0.548D-02-0.149D-01-0.322D-01-0.228D-01
 Coeff:      0.401D+00 0.675D+00
 Gap=     0.299 Goal=   None    Shift=    0.000
 RMSDP=1.83D-06 MaxDP=5.93D-05 DE=-1.07D-06 OVMax= 1.29D-04

 Cycle   9  Pass 1  IDiag  1:
 RMSU=  1.22D-06    CP:  9.91D-01  9.98D-01  8.56D-01  7.00D-01  8.98D-01
                    CP:  1.13D+00  1.21D+00  1.00D+00
 E= -359.539729148199     Delta-E=       -0.000000160461 Rises=F Damp=F
 DIIS: error= 4.78D-06 at cycle   9 NSaved=   9.
 NSaved= 9 IEnMin= 9 EnMin= -359.539729148199     IErMin= 9 ErrMin= 4.78D-06
 ErrMax= 4.78D-06  0.00D+00 EMaxC= 1.00D-01 BMatC= 1.44D-08 BMatP= 1.68D-07
 IDIUse=1 WtCom= 1.00D+00 WtEn= 0.00D+00
 Coeff-Com: -0.408D-04 0.139D-03 0.708D-03 0.505D-03-0.217D-02-0.207D-01
 Coeff-Com: -0.521D-01 0.166D+00 0.908D+00
 Coeff:     -0.408D-04 0.139D-03 0.708D-03 0.505D-03-0.217D-02-0.207D-01
 Coeff:     -0.521D-01 0.166D+00 0.908D+00
 Gap=     0.299 Goal=   None    Shift=    0.000
 RMSDP=8.80D-07 MaxDP=1.78D-05 DE=-1.60D-07 OVMax= 5.47D-05

 Cycle  10  Pass 1  IDiag  1:
 RMSU=  3.70D-07    CP:  9.91D-01  9.98D-01  8.56D-01  6.99D-01  8.99D-01
                    CP:  1.14D+00  1.24D+00  1.12D+00  1.00D+00
 E= -359.539729166242     Delta-E=       -0.000000018043 Rises=F Damp=F
 DIIS: error= 1.12D-06 at cycle  10 NSaved=  10.
 NSaved=10 IEnMin=10 EnMin= -359.539729166242     IErMin=10 ErrMin= 1.12D-06
 ErrMax= 1.12D-06  0.00D+00 EMaxC= 1.00D-01 BMatC= 8.25D-10 BMatP= 1.44D-08
 IDIUse=1 WtCom= 1.00D+00 WtEn= 0.00D+00
 Coeff-Com: -0.639D-04 0.125D-03 0.613D-03 0.124D-02 0.217D-02-0.232D-02
 Coeff-Com: -0.459D-01-0.232D-01 0.209D+00 0.859D+00
 Coeff:     -0.639D-04 0.125D-03 0.613D-03 0.124D-02 0.217D-02-0.232D-02
 Coeff:     -0.459D-01-0.232D-01 0.209D+00 0.859D+00
 Gap=     0.299 Goal=   None    Shift=    0.000
 RMSDP=2.42D-07 MaxDP=8.66D-06 DE=-1.80D-08 OVMax= 1.56D-05

 Cycle  11  Pass 1  IDiag  1:
 RMSU=  1.07D-07    CP:  9.91D-01  9.98D-01  8.56D-01  6.99D-01  9.00D-01
                    CP:  1.14D+00  1.24D+00  1.15D+00  1.09D+00  9.41D-01
 E= -359.539729167322     Delta-E=       -0.000000001080 Rises=F Damp=F
 DIIS: error= 2.85D-07 at cycle  11 NSaved=  11.
 NSaved=11 IEnMin=11 EnMin= -359.539729167322     IErMin=11 ErrMin= 2.85D-07
 ErrMax= 2.85D-07  0.00D+00 EMaxC= 1.00D-01 BMatC= 5.44D-11 BMatP= 8.25D-10
 IDIUse=1 WtCom= 1.00D+00 WtEn= 0.00D+00
 Coeff-Com: -0.101D-04 0.181D-04 0.106D-03 0.233D-03 0.612D-03 0.395D-03
 Coeff-Com: -0.760D-02-0.149D-01 0.600D-03 0.172D+00 0.848D+00
 Coeff:     -0.101D-04 0.181D-04 0.106D-03 0.233D-03 0.612D-03 0.395D-03
 Coeff:     -0.760D-02-0.149D-01 0.600D-03 0.172D+00 0.848D+00
 Gap=     0.299 Goal=   None    Shift=    0.000
 RMSDP=4.24D-08 MaxDP=1.48D-06 DE=-1.08D-09 OVMax= 4.64D-06

 Cycle  12  Pass 1  IDiag  1:
 RMSU=  2.72D-08    CP:  9.91D-01  9.98D-01  8.56D-01  6.99D-01  9.00D-01
                    CP:  1.14D+00  1.24D+00  1.15D+00  1.10D+00  9.84D-01
                    CP:  1.15D+00
 E= -359.539729167395     Delta-E=       -0.000000000072 Rises=F Damp=F
 DIIS: error= 1.68D-07 at cycle  12 NSaved=  12.
 NSaved=12 IEnMin=12 EnMin= -359.539729167395     IErMin=12 ErrMin= 1.68D-07
 ErrMax= 1.68D-07  0.00D+00 EMaxC= 1.00D-01 BMatC= 1.76D-11 BMatP= 5.44D-11
 IDIUse=1 WtCom= 1.00D+00 WtEn= 0.00D+00
 Coeff-Com:  0.363D-05-0.773D-05-0.263D-04-0.505D-04 0.295D-04 0.418D-03
 Coeff-Com:  0.222D-02-0.407D-02-0.256D-01-0.343D-01 0.418D+00 0.643D+00
 Coeff:      0.363D-05-0.773D-05-0.263D-04-0.505D-04 0.295D-04 0.418D-03
 Coeff:      0.222D-02-0.407D-02-0.256D-01-0.343D-01 0.418D+00 0.643D+00
 Gap=     0.299 Goal=   None    Shift=    0.000
 RMSDP=1.73D-08 MaxDP=5.04D-07 DE=-7.22D-11 OVMax= 2.10D-06

 Cycle  13  Pass 1  IDiag  1:
 RMSU=  1.20D-08    CP:  9.91D-01  9.98D-01  8.56D-01  6.99D-01  9.00D-01
                    CP:  1.14D+00  1.24D+00  1.15D+00  1.11D+00  1.00D+00
                    CP:  1.22D+00  9.13D-01
 E= -359.539729167430     Delta-E=       -0.000000000035 Rises=F Damp=F
 DIIS: error= 4.39D-08 at cycle  13 NSaved=  13.
 NSaved=13 IEnMin=13 EnMin= -359.539729167430     IErMin=13 ErrMin= 4.39D-08
 ErrMax= 4.39D-08  0.00D+00 EMaxC= 1.00D-01 BMatC= 1.08D-12 BMatP= 1.76D-11
 IDIUse=1 WtCom= 1.00D+00 WtEn= 0.00D+00
 Coeff-Com:  0.203D-05-0.383D-05-0.207D-04-0.443D-04-0.758D-04-0.705D-05
 Coeff-Com:  0.162D-02 0.207D-02-0.376D-02-0.368D-01-0.818D-01 0.818D-01
 Coeff-Com:  0.104D+01
 Coeff:      0.203D-05-0.383D-05-0.207D-04-0.443D-04-0.758D-04-0.705D-05
 Coeff:      0.162D-02 0.207D-02-0.376D-02-0.368D-01-0.818D-01 0.818D-01
 Coeff:      0.104D+01
 Gap=     0.299 Goal=   None    Shift=    0.000
 RMSDP=9.73D-09 MaxDP=2.70D-07 DE=-3.50D-11 OVMax= 1.87D-06

 SCF Done:  E(RM062X) =  -359.539729167     A.U. after   13 cycles
            NFock= 13  Conv=0.97D-08     -V/T= 2.0041
 KE= 3.580749201293D+02 PE=-1.342711655081D+03 EE= 3.763731208905D+02
 Leave Link  502 at Thu Feb 28 09:20:35 2019, MaxMem=   104857600 cpu:             299.1 elap:             301.9
 (Enter /shared/centos7/gaussian/g16/l801.exe)
 DoSCS=F DFT=T ScalE2(SS,OS)=  1.000000  1.000000
 Range of M.O.s used for correlation:     1   249
 NBasis=   249 NAE=    24 NBE=    24 NFC=     0 NFV=     0
 NROrb=    249 NOA=    24 NOB=    24 NVA=   225 NVB=   225

 **** Warning!!: The largest alpha MO coefficient is  0.35191963D+02

 Leave Link  801 at Thu Feb 28 09:20:35 2019, MaxMem=   104857600 cpu:               0.1 elap:               0.0
 (Enter /shared/centos7/gaussian/g16/l1101.exe)
 Using compressed storage, NAtomX=    11.
 Will process     12 centers per pass.
 Leave Link 1101 at Thu Feb 28 09:20:35 2019, MaxMem=   104857600 cpu:               0.3 elap:               0.3
 (Enter /shared/centos7/gaussian/g16/l1102.exe)
 Symmetrizing basis deriv contribution to polar:
 IMax=3 JMax=2 DiffMx= 0.00D+00
 Leave Link 1102 at Thu Feb 28 09:20:35 2019, MaxMem=   104857600 cpu:               0.1 elap:               0.1
 (Enter /shared/centos7/gaussian/g16/l1110.exe)
 Forming Gx(P) for the SCF density, NAtomX=    11.
 Integral derivatives from FoFJK, PRISM(SPDF).
 Do as many integral derivatives as possible in FoFJK.
 G2DrvN: MDV=     104856672.
 G2DrvN: will do    12 centers at a time, making    1 passes.
 Calling FoFCou, ICntrl=  3107 FMM=F I1Cent=   0 AccDes= 0.00D+00.
 FoFJK:  IHMeth= 1 ICntrl=    3107 DoSepK=F KAlg= 0 I1Cent=           0 FoldK=F
 IRaf=         0 NMat=       1 IRICut=       1 DoRegI=T DoRafI=F ISym2E= 0 IDoP0=0 IntGTp=1.
 FoFCou: FMM=F IPFlag=           0 FMFlag=      100000 FMFlg1=           0
         NFxFlg=           0 DoJE=F BraDBF=F KetDBF=F FulRan=T
         wScrn=  0.000000 ICntrl=      3107 IOpCl=  0 I1Cent=           0 NGrid=           0
         NMat0=    1 NMatS0=      1 NMatT0=    0 NMatD0=    1 NMtDS0=    0 NMtDT0=    0
 Symmetry not used in FoFCou.
 End of G2Drv F.D. properties file   721 does not exist.
 End of G2Drv F.D. properties file   722 does not exist.
 End of G2Drv F.D. properties file   788 does not exist.
 Leave Link 1110 at Thu Feb 28 09:29:04 2019, MaxMem=   104857600 cpu:             508.3 elap:             508.3
 (Enter /shared/centos7/gaussian/g16/l1002.exe)
 Minotr:  Closed shell wavefunction.
          IDoAtm=11111111111
          Direct CPHF calculation.
          Differentiating once with respect to nuclear coordinates.
          Requested convergence is 1.0D-08 RMS, and 1.0D-07 maximum.
          Secondary convergence is 1.0D-12 RMS, and 1.0D-12 maximum.
          NewPWx=T KeepS1=F KeepF1=F KeepIn=T MapXYZ=F SortEE=F KeepMc=T.
         3342 words used for storage of precomputed grid.
 Two-electron integrals replicated using symmetry.
          MDV=     104857600 using IRadAn=       1.
          Solving linear equations simultaneously, MaxMat=     384.
 FoF2E skips out because all densities are zero.
 CalDSu exits because no D1Ps are significant.
 FoFJK:  IHMeth= 1 ICntrl=       0 DoSepK=F KAlg= 0 I1Cent=           0 FoldK=F
 IRaf= 970000000 NMat=      33 IRICut=      82 DoRegI=T DoRafI=T ISym2E= 2 IDoP0=3 IntGTp=3.
 FoFCou: FMM=F IPFlag=           0 FMFlag=      100000 FMFlg1=           0
         NFxFlg=           0 DoJE=F BraDBF=F KetDBF=F FulRan=T
         wScrn=  0.000000 ICntrl=         0 IOpCl=  0 I1Cent=           0 NGrid=           0
         NMat0=   33 NMatS0=     33 NMatT0=    0 NMatD0=   33 NMtDS0=    0 NMtDT0=    0
 Integrals replicated using symmetry in FoFCou.
 Raff kept on since  95.52% of shell-pairs survive, threshold=   0.20 IRatSp=96.
          There are    36 degrees of freedom in the 1st order CPHF.  IDoFFX=6 NUNeed=     0.
     30 vectors produced by pass  0 Test12= 1.50D-14 2.78D-09 XBig12= 7.99D-02 6.60D-02.
 AX will form    30 AO Fock derivatives at one time.
     30 vectors produced by pass  1 Test12= 1.50D-14 2.78D-09 XBig12= 6.50D-03 1.44D-02.
     30 vectors produced by pass  2 Test12= 1.50D-14 2.78D-09 XBig12= 2.14D-04 2.88D-03.
     30 vectors produced by pass  3 Test12= 1.50D-14 2.78D-09 XBig12= 3.34D-06 2.93D-04.
     30 vectors produced by pass  4 Test12= 1.50D-14 2.78D-09 XBig12= 3.23D-08 2.31D-05.
     30 vectors produced by pass  5 Test12= 1.50D-14 2.78D-09 XBig12= 2.52D-10 1.59D-06.
     27 vectors produced by pass  6 Test12= 1.50D-14 2.78D-09 XBig12= 1.14D-12 1.32D-07.
      8 vectors produced by pass  7 Test12= 1.50D-14 2.78D-09 XBig12= 4.32D-15 9.29D-09.
 InvSVY:  IOpt=1 It=  1 EMax= 1.55D-15
 Solved reduced A of dimension   215 with    30 vectors.
 End of Minotr F.D. properties file   721 does not exist.
 End of Minotr F.D. properties file   722 does not exist.
 End of Minotr F.D. properties file   788 does not exist.
 Leave Link 1002 at Thu Feb 28 09:41:32 2019, MaxMem=   104857600 cpu:             748.2 elap:             748.8
 (Enter /shared/centos7/gaussian/g16/l601.exe)
 Copying SCF densities to generalized density rwf, IOpCl= 0 IROHF=0.

 **********************************************************************

            Population analysis using the SCF density.

 **********************************************************************

 Orbital symmetries:
       Occupied  (A) (A) (A) (A) (A) (A) (A) (A) (A) (A) (A) (A)
                 (A) (A) (A) (A) (A) (A) (A) (A) (A) (A) (A) (A)
       Virtual   (A) (A) (A) (A) (A) (A) (A) (A) (A) (A) (A) (A)
                 (A) (A) (A) (A) (A) (A) (A) (A) (A) (A) (A) (A)
                 (A) (A) (A) (A) (A) (A) (A) (A) (A) (A) (A) (A)
                 (A) (A) (A) (A) (A) (A) (A) (A) (A) (A) (A) (A)
                 (A) (A) (A) (A) (A) (A) (A) (A) (A) (A) (A) (A)
                 (A) (A) (A) (A) (A) (A) (A) (A) (A) (A) (A) (A)
                 (A) (A) (A) (A) (A) (A) (A) (A) (A) (A) (A) (A)
                 (A) (A) (A) (A) (A) (A) (A) (A) (A) (A) (A) (A)
                 (A) (A) (A) (A) (A) (A) (A) (A) (A) (A) (A) (A)
                 (A) (A) (A) (A) (A) (A) (A) (A) (A) (A) (A) (A)
                 (A) (A) (A) (A) (A) (A) (A) (A) (A) (A) (A) (A)
                 (A) (A) (A) (A) (A) (A) (A) (A) (A) (A) (A) (A)
                 (A) (A) (A) (A) (A) (A) (A) (A) (A) (A) (A) (A)
                 (A) (A) (A) (A) (A) (A) (A) (A) (A) (A) (A) (A)
                 (A) (A) (A) (A) (A) (A) (A) (A) (A) (A) (A) (A)
                 (A) (A) (A) (A) (A) (A) (A) (A) (A) (A) (A) (A)
                 (A) (A) (A) (A) (A) (A) (A) (A) (A) (A) (A) (A)
                 (A) (A) (A) (A) (A) (A) (A) (A) (A) (A) (A) (A)
                 (A) (A) (A) (A) (A) (A) (A) (A) (A)
 The electronic state is 1-A.
 Alpha  occ. eigenvalues --  -19.67543 -19.66918 -19.61969 -14.80345 -10.69722
 Alpha  occ. eigenvalues --  -10.59716  -1.23443  -1.20800  -1.11789  -0.96326
 Alpha  occ. eigenvalues --   -0.81511  -0.72022  -0.66970  -0.60256  -0.58441
 Alpha  occ. eigenvalues --   -0.55994  -0.52782  -0.50446  -0.47259  -0.43757
 Alpha  occ. eigenvalues --   -0.40285  -0.38887  -0.35798  -0.30846
 Alpha virt. eigenvalues --   -0.00934   0.00949   0.02711   0.03320   0.04090
 Alpha virt. eigenvalues --    0.05943   0.07815   0.08075   0.09285   0.11569
 Alpha virt. eigenvalues --    0.12487   0.14833   0.16586   0.17170   0.19016
 Alpha virt. eigenvalues --    0.19585   0.20493   0.21860   0.22452   0.23381
 Alpha virt. eigenvalues --    0.24977   0.26148   0.27501   0.27702   0.28346
 Alpha virt. eigenvalues --    0.29963   0.30822   0.32625   0.32750   0.33172
 Alpha virt. eigenvalues --    0.33800   0.34375   0.40580   0.42388   0.42868
 Alpha virt. eigenvalues --    0.50672   0.51315   0.52991   0.54841   0.56595
 Alpha virt. eigenvalues --    0.57416   0.59135   0.62632   0.63529   0.64600
 Alpha virt. eigenvalues --    0.67993   0.68522   0.71081   0.73662   0.75059
 Alpha virt. eigenvalues --    0.77116   0.79676   0.80673   0.81634   0.85899
 Alpha virt. eigenvalues --    0.88284   0.90277   0.94216   0.96960   1.01975
 Alpha virt. eigenvalues --    1.02674   1.05564   1.07892   1.08699   1.09840
 Alpha virt. eigenvalues --    1.12671   1.14194   1.15823   1.20124   1.20665
 Alpha virt. eigenvalues --    1.21101   1.22884   1.24751   1.25870   1.27401
 Alpha virt. eigenvalues --    1.29876   1.30353   1.31707   1.37030   1.39681
 Alpha virt. eigenvalues --    1.41725   1.43955   1.47831   1.51011   1.53140
 Alpha virt. eigenvalues --    1.55873   1.57203   1.59846   1.63505   1.64577
 Alpha virt. eigenvalues --    1.71460   1.75174   1.78654   1.81370   1.83978
 Alpha virt. eigenvalues --    1.86166   1.93170   1.96674   1.98342   2.08962
 Alpha virt. eigenvalues --    2.13909   2.20380   2.22108   2.24784   2.30455
 Alpha virt. eigenvalues --    2.35419   2.36593   2.46502   2.48641   2.52331
 Alpha virt. eigenvalues --    2.62767   2.68573   2.71474   2.80082   2.83745
 Alpha virt. eigenvalues --    2.89467   2.93473   2.99341   3.04023   3.06765
 Alpha virt. eigenvalues --    3.09147   3.13116   3.17738   3.21860   3.23298
 Alpha virt. eigenvalues --    3.26446   3.28652   3.31403   3.41764   3.44162
 Alpha virt. eigenvalues --    3.46202   3.50875   3.51663   3.56593   3.58672
 Alpha virt. eigenvalues --    3.59102   3.63621   3.66882   3.69520   3.71864
 Alpha virt. eigenvalues --    3.75250   3.79444   3.83359   3.85971   3.90713
 Alpha virt. eigenvalues --    3.91401   3.96540   4.01821   4.05472   4.06896
 Alpha virt. eigenvalues --    4.10293   4.11916   4.13716   4.16003   4.22617
 Alpha virt. eigenvalues --    4.26501   4.29491   4.35484   4.40475   4.47505
 Alpha virt. eigenvalues --    4.52854   4.62884   4.63956   4.73173   4.84602
 Alpha virt. eigenvalues --    4.90851   5.05831   5.07572   5.09069   5.10430
 Alpha virt. eigenvalues --    5.10964   5.14087   5.14940   5.17758   5.18984
 Alpha virt. eigenvalues --    5.19673   5.21933   5.23445   5.26230   5.29174
 Alpha virt. eigenvalues --    5.31971   5.38931   5.42040   5.45010   5.47413
 Alpha virt. eigenvalues --    5.51285   5.53523   5.53743   5.58931   5.60649
 Alpha virt. eigenvalues --    5.71736   5.77908   5.88418   5.92874   6.09964
 Alpha virt. eigenvalues --    6.11957   6.19341   6.24145   6.46092   6.67785
 Alpha virt. eigenvalues --    6.83239   6.84962   6.88653   6.89213   6.91008
 Alpha virt. eigenvalues --    6.94142   7.01206   7.08997   7.12486   7.18153
 Alpha virt. eigenvalues --    7.19142   7.20390   7.28075   7.43015   7.53486
 Alpha virt. eigenvalues --    7.55947   7.67810   7.69674   7.73512  24.37951
 Alpha virt. eigenvalues --   24.67362  35.82910  50.06732  50.12242  50.20509
          Condensed to atoms (all electrons):
               1          2          3          4          5          6
     1  O    7.995492  -0.005014   0.032082   0.057228  -0.060690   0.017441
     2  O   -0.005014   7.945960  -0.057214   0.006106  -0.013858   0.224449
     3  O    0.032082  -0.057214   8.155895  -0.037154  -0.024882   0.320022
     4  N    0.057228   0.006106  -0.037154   6.946718   0.112251  -0.060352
     5  C   -0.060690  -0.013858  -0.024882   0.112251   5.530722  -0.260869
     6  C    0.017441   0.224449   0.320022  -0.060352  -0.260869   5.576625
     7  H    0.012941  -0.003935   0.010194  -0.071298   0.471571  -0.064305
     8  H   -0.003157   0.004050  -0.021863  -0.053638   0.476231  -0.054151
     9  H   -0.038353  -0.000673  -0.000111   0.382189  -0.060255   0.029512
    10  H    0.234102  -0.000738  -0.000306  -0.075087   0.050574  -0.038165
    11  H   -0.001062   0.241713  -0.001021   0.006531  -0.001544  -0.001508
               7          8          9         10         11
     1  O    0.012941  -0.003157  -0.038353   0.234102  -0.001062
     2  O   -0.003935   0.004050  -0.000673  -0.000738   0.241713
     3  O    0.010194  -0.021863  -0.000111  -0.000306  -0.001021
     4  N   -0.071298  -0.053638   0.382189  -0.075087   0.006531
     5  C    0.471571   0.476231  -0.060255   0.050574  -0.001544
     6  C   -0.064305  -0.054151   0.029512  -0.038165  -0.001508
     7  H    0.540375  -0.045879  -0.000479  -0.001283  -0.002573
     8  H   -0.045879   0.533175  -0.005873   0.005366   0.000450
     9  H   -0.000479  -0.005873   0.498423  -0.010512   0.000152
    10  H   -0.001283   0.005366  -0.010512   0.575296   0.000062
    11  H   -0.002573   0.000450   0.000152   0.000062   0.466485
 Mulliken charges:
               1
     1  O   -0.241009
     2  O   -0.340847
     3  O   -0.375643
     4  N   -0.213494
     5  C   -0.219250
     6  C    0.311300
     7  H    0.154670
     8  H    0.165289
     9  H    0.205979
    10  H    0.260691
    11  H    0.292315
 Sum of Mulliken charges =  -0.00000
 Mulliken charges with hydrogens summed into heavy atoms:
               1
     1  O    0.019682
     2  O   -0.048531
     3  O   -0.375643
     4  N   -0.007516
     5  C    0.100709
     6  C    0.311300
 APT charges:
               1
     1  O   -0.610277
     2  O   -0.640362
     3  O   -0.297420
     4  N   -0.576066
     5  C   -0.848232
     6  C    0.241673
     7  H    0.432542
     8  H    0.427674
     9  H    0.632831
    10  H    0.544471
    11  H    0.693167
 Sum of APT charges =  -0.00000
 APT charges with hydrogens summed into heavy atoms:
               1
     1  O   -0.065806
     2  O    0.052805
     3  O   -0.297420
     4  N    0.056765
     5  C    0.011984
     6  C    0.241673
 Electronic spatial extent (au):  <R**2>=            552.4385
 Charge=              0.0000 electrons
 Dipole moment (field-independent basis, Debye):
    X=             -2.6685    Y=             -2.7378    Z=              1.1824  Tot=              4.0019
 Quadrupole moment (field-independent basis, Debye-Ang):
   XX=            -35.4399   YY=            -34.0906   ZZ=            -33.6050
   XY=             -6.1405   XZ=             -5.5673   YZ=              0.2266
 Traceless Quadrupole moment (field-independent basis, Debye-Ang):
   XX=             -1.0614   YY=              0.2879   ZZ=              0.7735
   XY=             -6.1405   XZ=             -5.5673   YZ=              0.2266
 Octapole moment (field-independent basis, Debye-Ang**2):
  XXX=            -20.7276  YYY=             -2.2197  ZZZ=             -4.6239  XYY=             -5.1407
  XXY=             -1.8211  XXZ=              4.1966  XZZ=              5.2300  YZZ=             -5.8727
  YYZ=             -5.8912  XYZ=              4.7105
 Hexadecapole moment (field-independent basis, Debye-Ang**3):
 XXXX=           -369.2951 YYYY=           -146.3066 ZZZZ=           -118.3597 XXXY=             -8.9575
 XXXZ=            -15.3983 YYYX=            -26.0179 YYYZ=              1.1012 ZZZX=            -12.0349
 ZZZY=              9.0053 XXYY=            -80.0545 XXZZ=            -83.2151 YYZZ=            -39.4180
 XXYZ=              1.9849 YYXZ=             -9.3024 ZZXY=             -8.1793
 N-N= 2.487238848936D+02 E-N=-1.342711658599D+03  KE= 3.580749201293D+02
  Exact polarizability:   0.000   0.000   0.000   0.000   0.000   0.000
 Approx polarizability:  48.614  -0.073  65.352  -1.533   4.392  50.184
 No NMR shielding tensors so no spin-rotation constants.
 Leave Link  601 at Thu Feb 28 09:41:33 2019, MaxMem=   104857600 cpu:               0.3 elap:               0.3
 (Enter /shared/centos7/gaussian/g16/l701.exe)
 ... and contract with generalized density number  0.
 Compute integral second derivatives.
 Leave Link  701 at Thu Feb 28 09:41:33 2019, MaxMem=   104857600 cpu:               0.5 elap:               0.5
 (Enter /shared/centos7/gaussian/g16/l702.exe)
 L702 exits ... SP integral derivatives will be done elsewhere.
 Leave Link  702 at Thu Feb 28 09:41:33 2019, MaxMem=   104857600 cpu:               0.1 elap:               0.1
 (Enter /shared/centos7/gaussian/g16/l703.exe)
 Integral derivatives from FoFJK, PRISM(SPDF).
 Compute integral second derivatives, UseDBF=F ICtDFT=           0.
 Calling FoFJK, ICntrl=    100147 FMM=F ISym2X=0 I1Cent= 0 IOpClX= 0 NMat=1 NMatS=1 NMatT=0.
 FoFJK:  IHMeth= 1 ICntrl=  100147 DoSepK=F KAlg= 0 I1Cent=           0 FoldK=F
 IRaf=         0 NMat=       1 IRICut=       1 DoRegI=T DoRafI=F ISym2E= 0 IDoP0=0 IntGTp=1.
 FoFCou: FMM=F IPFlag=           0 FMFlag=      100000 FMFlg1=         800
         NFxFlg=           0 DoJE=F BraDBF=F KetDBF=F FulRan=T
         wScrn=  0.000000 ICntrl=    100147 IOpCl=  0 I1Cent=           0 NGrid=           0
         NMat0=    1 NMatS0=      1 NMatT0=    0 NMatD0=    1 NMtDS0=    0 NMtDT0=    0
 Symmetry not used in FoFCou.
 Leave Link  703 at Thu Feb 28 09:54:13 2019, MaxMem=   104857600 cpu:             759.2 elap:             759.3
 (Enter /shared/centos7/gaussian/g16/l716.exe)
 Dipole        =-1.04988663D+00-1.07714788D+00 4.65193901D-01
 Polarizability= 0.00000000D+00 0.00000000D+00 0.00000000D+00
                 0.00000000D+00 0.00000000D+00 0.00000000D+00
 ***** Axes restored to original set *****
 -------------------------------------------------------------------
 Center     Atomic                   Forces (Hartrees/Bohr)
 Number     Number              X              Y              Z
 -------------------------------------------------------------------
      1        8          -0.024160479   -0.019661721    0.047295235
      2        8          -0.008904926    0.013799419    0.004016398
      3        8           0.017353710    0.088519908   -0.041017637
      4        7          -0.004015966    0.032305160   -0.038107606
      5        6          -0.018970005    0.009862689   -0.042828067
      6        6           0.023885486   -0.096875255    0.056366997
      7        1          -0.001553735   -0.005122696    0.013854587
      8        1           0.014270750    0.004091368    0.012141115
      9        1           0.012885350   -0.008338528    0.011129864
     10        1           0.014751063    0.013614921   -0.011600950
     11        1          -0.025541247   -0.032195265   -0.011249936
 -------------------------------------------------------------------
 Cartesian Forces:  Max     0.096875255 RMS     0.032356490
 Force constants in Cartesian coordinates: 
                1             2             3             4             5 
      1  0.207871D+00
      2  0.189072D+00  0.330365D+00
      3 -0.555577D-01 -0.893561D-01  0.529649D+00
      4 -0.799378D-03  0.117935D-02  0.130309D-02  0.304219D+00
      5 -0.529523D-03  0.131257D-02  0.347225D-04  0.157468D+00  0.546392D+00
      6  0.263852D-03 -0.327252D-03  0.995686D-03  0.500812D-01  0.478609D-01
      7 -0.373739D-02  0.379548D-02  0.962700D-03 -0.166666D-01 -0.616487D-01
      8  0.117072D-02 -0.337504D-03 -0.131017D-02 -0.600249D-01 -0.587505D-01
      9  0.379228D-02 -0.494103D-02  0.212589D-02  0.181474D-01  0.129338D-01
     10 -0.609038D-01  0.380234D-03  0.974800D-02  0.507035D-03 -0.215619D-02
     11 -0.233249D-02 -0.565376D-01  0.414149D-01  0.142123D-02  0.154657D-02
     12  0.495304D-01  0.102098D+00 -0.386222D+00 -0.174280D-02 -0.205780D-02
     13 -0.122593D-02 -0.130451D-02  0.129758D-01 -0.157333D-01 -0.397924D-03
     14 -0.131225D-01  0.180149D-02  0.101328D-01 -0.205310D-01  0.968819D-02
     15  0.265673D-01 -0.249646D-01 -0.406146D-01 -0.233420D-02  0.681253D-02
     16  0.136466D-02 -0.724954D-03 -0.348383D-02 -0.218794D+00 -0.641131D-01
     17  0.352980D-02 -0.362709D-02  0.168804D-02 -0.200861D-01 -0.108587D+00
     18 -0.975018D-03  0.247396D-02 -0.285606D-02 -0.479656D-01 -0.149147D-01
     19 -0.332858D-02  0.367236D-03  0.117638D-02  0.478276D-04 -0.278965D-03
     20  0.473742D-02  0.134289D-03 -0.516810D-02  0.746247D-03  0.764507D-03
     21  0.442882D-02 -0.433862D-03 -0.192811D-02 -0.683517D-03 -0.105641D-02
     22  0.953636D-03  0.142665D-02 -0.272350D-02 -0.361346D-02  0.183081D-02
     23  0.410909D-03  0.151216D-02 -0.156556D-02  0.275467D-02  0.103909D-03
     24 -0.684274D-03 -0.288090D-03  0.171380D-02 -0.213774D-02  0.837707D-03
     25  0.117300D-01 -0.750947D-02  0.773329D-02 -0.563046D-03 -0.604776D-03
     26  0.140359D-02 -0.467924D-02  0.843413D-02 -0.995102D-04 -0.345708D-04
     27 -0.299550D-01  0.809226D-02 -0.365495D-01  0.101848D-02  0.662718D-03
     28 -0.152076D+00 -0.186583D+00  0.277971D-01  0.132040D-02  0.128747D-02
     29 -0.184552D+00 -0.269784D+00  0.358136D-01 -0.729431D-03 -0.624205D-03
     30  0.251384D-02  0.744821D-02 -0.657408D-01 -0.528736D-03 -0.138965D-03
     31  0.151114D-03 -0.989508D-04  0.687292D-04 -0.499242D-01 -0.308568D-01
     32  0.211763D-03 -0.160516D-03 -0.118201D-03 -0.620983D-01 -0.391812D+00
     33  0.755078D-04  0.198849D-03 -0.573424D-03 -0.151576D-01 -0.509746D-01
                6             7             8             9            10 
      6  0.478419D-01
      7  0.150516D-01  0.131854D+00
      8  0.115705D-01  0.519968D-01  0.452083D+00
      9  0.151934D-01  0.633044D-02 -0.195433D+00  0.180403D+00
     10 -0.219605D-02  0.158341D-02 -0.225597D-02 -0.167342D-02  0.519386D+00
     11  0.118718D-02  0.732869D-03  0.383840D-02  0.251961D-02 -0.202676D+00
     12 -0.315551D-02  0.245544D-02  0.211635D-02 -0.106653D-01  0.142988D-01
     13 -0.158842D-01  0.112852D-01 -0.225158D-02 -0.116464D-01 -0.132791D+00
     14 -0.647715D-02  0.183813D-01 -0.258350D-01  0.389028D-01  0.111430D+00
     15  0.643025D-02 -0.227760D-01  0.282530D-01 -0.427212D-02  0.416945D-01
     16 -0.369261D-01 -0.120353D+00  0.660368D-02 -0.108870D-01 -0.308584D-01
     17 -0.481129D-02 -0.170176D-01 -0.373761D+00  0.142558D+00  0.282838D-01
     18 -0.591146D-01 -0.715713D-03  0.150499D+00 -0.187321D+00  0.148583D-01
     19  0.171447D-02 -0.410875D-02  0.567429D-02 -0.203671D-02 -0.368956D-02
     20 -0.138899D-02  0.409482D-02 -0.108084D-02  0.242236D-02  0.575517D-02
     21  0.240713D-02 -0.288608D-02  0.183366D-02 -0.145924D-02  0.597787D-02
     22 -0.377218D-02  0.165535D-02  0.127461D-02  0.162370D-02  0.124400D-01
     23  0.625038D-03  0.267175D-02  0.674273D-03  0.172848D-02  0.323630D-02
     24 -0.894880D-03  0.120184D-03  0.979680D-03  0.856537D-03 -0.194692D-02
     25 -0.558752D-03  0.188187D-04  0.615659D-04 -0.792780D-03 -0.306894D+00
     26  0.364259D-03 -0.588372D-03 -0.182283D-03  0.113522D-02  0.532631D-01
     27  0.971904D-03 -0.898865D-04 -0.775270D-03  0.203375D-02 -0.107619D+00
     28 -0.203780D-03  0.149638D-02  0.136671D-02 -0.205444D-02  0.111725D-02
     29 -0.175161D-03 -0.604325D-03 -0.791888D-03  0.527198D-03  0.495433D-02
     30  0.648989D-04 -0.464640D-03 -0.546002D-04  0.283381D-04  0.272589D-01
     31 -0.757011D-02 -0.302768D-02 -0.361590D-02 -0.803091D-03  0.102424D-03
     32 -0.484280D-01 -0.181389D-02  0.414318D-02 -0.235406D-02 -0.215303D-03
     33 -0.107402D-01  0.201195D-02  0.232051D-02  0.307610D-02 -0.400746D-03
               11            12            13            14            15 
     11  0.265097D+00
     12 -0.544346D-01  0.664801D+00
     13  0.631324D-01  0.241738D-01  0.526246D+00
     14 -0.143532D+00 -0.593274D-01 -0.847652D-03  0.526019D+00
     15 -0.408812D-01 -0.127093D+00  0.423428D-01 -0.405521D-01  0.564637D+00
     16  0.173654D-01 -0.535974D-02 -0.177872D+00  0.359353D-01 -0.880239D-01
     17 -0.185555D-01  0.135971D-01  0.432974D-01 -0.809872D-01  0.221094D-01
     18 -0.514362D-02  0.280479D-01 -0.833474D-01  0.223523D-01 -0.150599D+00
     19 -0.429808D-02  0.212603D-01 -0.796534D-01 -0.381088D-01  0.489145D-01
     20  0.105465D-01 -0.227301D-01 -0.383152D-01 -0.108372D+00  0.925158D-01
     21  0.284032D-02 -0.176726D-01  0.487474D-01  0.828673D-01 -0.183590D+00
     22  0.251696D-01  0.120710D-01 -0.114440D+00 -0.844941D-01 -0.371049D-01
     23 -0.270388D-01 -0.124282D-01 -0.901321D-01 -0.173511D+00 -0.503504D-01
     24 -0.235122D-01 -0.607414D-02 -0.348516D-01 -0.452603D-01 -0.798195D-01
     25  0.962216D-01 -0.121465D+00 -0.133668D-01 -0.643877D-02 -0.112633D-01
     26 -0.318993D-01  0.188096D-01  0.245590D-01 -0.117390D-01  0.687535D-02
     27  0.373074D-01 -0.120776D+00  0.175844D-01 -0.784739D-02  0.122943D-01
     28  0.450883D-02  0.488743D-02 -0.162548D-02 -0.221830D-02  0.114384D-02
     29 -0.301369D-02  0.141223D-01  0.172930D-02  0.557921D-02  0.322487D-03
     30  0.387493D-01 -0.212635D-01  0.750582D-03  0.408180D-02  0.102408D-02
     31  0.754367D-03 -0.109378D-03 -0.823831D-03  0.144187D-04  0.839386D-03
     32 -0.451507D-03  0.235093D-03  0.530887D-03  0.888282D-03 -0.140312D-03
     33 -0.470645D-04  0.732261D-04 -0.845188D-03  0.112733D-02  0.160288D-02
               16            17            18            19            20 
     16  0.547187D+00
     17 -0.222984D-03  0.595274D+00
     18  0.135205D+00 -0.168420D+00  0.409753D+00
     19  0.148017D-01  0.958371D-02 -0.182399D-01  0.821447D-01
     20 -0.660409D-02 -0.719688D-02  0.623245D-02  0.382118D-01  0.118411D+00
     21  0.108702D-01  0.911533D-02 -0.128828D-01 -0.647355D-01 -0.914605D-01
     22 -0.131738D-01 -0.213249D-01 -0.479803D-02 -0.492763D-02 -0.970598D-02
     23  0.440253D-02  0.629241D-02  0.545076D-02 -0.107921D-01 -0.130751D-01
     24 -0.100248D-01 -0.152807D-01 -0.587169D-02  0.128576D-01  0.191493D-01
     25 -0.115552D-03  0.157026D-02  0.404997D-02 -0.101390D-02  0.747616D-03
     26  0.126942D-02 -0.139736D-02 -0.379503D-02 -0.345123D-03  0.465710D-03
     27  0.979327D-03 -0.220776D-02 -0.512198D-02 -0.103602D-02  0.145873D-02
     28 -0.257370D-02 -0.371053D-02  0.198042D-02 -0.200399D-03  0.340634D-03
     29  0.662788D-03  0.144714D-02  0.146681D-03 -0.183151D-04 -0.677389D-03
     30  0.122599D-02 -0.242789D-04 -0.866414D-03  0.445732D-03 -0.110197D-02
     31  0.386793D-03 -0.239029D-01 -0.519412D-04 -0.719951D-04 -0.848363D-05
     32  0.542602D-02 -0.890212D-02  0.511760D-02  0.434632D-05  0.792962D-04
     33  0.642488D-02  0.167533D-02 -0.131673D-01 -0.320706D-03  0.709854D-04
               21            22            23            24            25 
     21  0.208223D+00
     22 -0.244002D-02  0.119625D+00
     23 -0.327465D-02  0.876400D-01  0.204045D+00
     24  0.823408D-02  0.367683D-01  0.612248D-01  0.819704D-01
     25  0.730175D-03  0.197148D-02  0.729990D-04 -0.142676D-03  0.305156D+00
     26  0.432707D-03 -0.310319D-03  0.116342D-02  0.120422D-02 -0.833891D-01
     27 -0.397682D-04  0.297400D-03 -0.484452D-03  0.270438D-03  0.120393D+00
     28  0.279680D-03 -0.694691D-03 -0.281035D-03 -0.546878D-04  0.309992D-02
     29 -0.773658D-03 -0.199500D-02 -0.114116D-04  0.736202D-03 -0.914561D-03
     30 -0.519087D-03 -0.432607D-03 -0.930366D-03 -0.257752D-03  0.142052D-02
     31 -0.289009D-03  0.203365D-03  0.160877D-04  0.966375D-04 -0.229749D-04
     32 -0.903008D-04  0.488594D-03 -0.153961D-03  0.209361D-03  0.182697D-03
     33 -0.772653D-03  0.510873D-03  0.446396D-05 -0.127325D-03 -0.104437D-03
               26            27            28            29            30 
     26  0.492474D-01
     27 -0.351389D-01  0.145539D+00
     28  0.396716D-02 -0.161004D-02  0.150116D+00
     29 -0.103970D-02 -0.930040D-03  0.181479D+00  0.268819D+00
     30  0.170742D-02  0.143476D-02 -0.323199D-01 -0.497939D-01  0.861836D-01
     31  0.270229D-03  0.373450D-04  0.198329D-04 -0.123913D-04  0.130370D-03
     32  0.948815D-04 -0.137320D-03 -0.157150D-03  0.969615D-04  0.572848D-04
     33 -0.289165D-04 -0.571578D-04  0.154408D-03  0.422983D-05 -0.881696D-04
               31            32            33 
     31  0.530072D-01
     32  0.574403D-01  0.396177D+00
     33  0.765107D-02  0.456489D-01  0.207741D-01
 FormGI is forming the generalized inverse of G from B-inverse, IUseBI=4.
 Force constants in internal coordinates: 
                1             2             3             4             5 
      1  0.511639D+00
      2  0.182547D-01  0.411201D+00
      3  0.589952D-03 -0.320353D-03  0.338625D+00
      4 -0.108397D-03  0.000000D+00 -0.968000D-03  0.410979D+00
      5  0.244313D-02  0.529013D-03  0.857160D-01 -0.401142D-02  0.558441D+00
      6  0.227889D-01  0.316062D-02  0.207471D-02 -0.164238D-03 -0.313375D-02
      7  0.981753D-02 -0.511452D-03  0.126411D-03 -0.433922D-04 -0.225922D-03
      8 -0.159185D-02 -0.104391D-03  0.125322D-01 -0.501350D-03  0.372494D-01
      9 -0.433246D-03 -0.140601D-03  0.140436D-02  0.205693D-03  0.504164D-03
     10  0.317017D-02 -0.759171D-03 -0.285278D-03 -0.262080D-03  0.611114D-03
     11  0.543743D-01  0.547409D-03 -0.460169D-03  0.140455D-03 -0.189277D-03
     12  0.335786D-03  0.116231D-04  0.276788D-01  0.174940D-01  0.737746D-02
     13  0.341996D-01  0.105202D-02 -0.205408D-02 -0.469408D-05  0.300379D-03
     14  0.132542D-01 -0.248887D-02  0.418331D-03  0.935314D-04 -0.236807D-02
     15 -0.341997D-01  0.202575D-02  0.143052D-02  0.438147D-04  0.263322D-02
     16 -0.347500D-02 -0.100909D-02 -0.181733D-02  0.448340D-04 -0.860534D-05
     17  0.877204D-02  0.264132D-04 -0.714216D-03 -0.515799D-04 -0.289352D-02
     18 -0.338858D-02  0.188632D-02 -0.692788D-03  0.368763D-03 -0.735040D-03
     19 -0.226555D-02 -0.118863D-03  0.105489D-02  0.135519D-03  0.470737D-02
     20  0.188065D-02 -0.392787D-03  0.293912D-02 -0.482417D-03 -0.534874D-04
     21 -0.132249D-02 -0.295320D-03 -0.803062D-03  0.726127D-05 -0.104380D-02
     22 -0.147711D-02 -0.769528D-04  0.457837D-01  0.448899D-02  0.181877D-01
     23  0.203207D-03  0.465442D-03 -0.960240D-03 -0.331693D-02 -0.498232D-01
     24  0.137204D-02 -0.335946D-03 -0.445515D-01 -0.115259D-02  0.316098D-01
     25  0.339930D-02 -0.388948D-02  0.143806D-02 -0.246574D-03 -0.300749D-02
     26  0.309513D-02 -0.231622D-02  0.184456D-02 -0.771192D-04 -0.118943D-02
     27 -0.632093D-04  0.141561D-03 -0.688316D-02  0.583961D-03  0.940396D-03
     28 -0.100949D-02 -0.281962D-03 -0.600134D-02  0.452610D-03 -0.184694D-02
     29  0.972186D-02 -0.576451D-03  0.176359D-03  0.188819D-03  0.490203D-03
     30  0.918134D-02  0.146111D-03  0.403769D-03  0.296107D-04 -0.344743D-02
     31  0.736859D-02 -0.518909D-03  0.216428D-02 -0.144963D-03 -0.799293D-04
     32 -0.112129D-01 -0.128373D-03  0.222768D-03 -0.287243D-05  0.911277D-03
     33 -0.117534D-01  0.594189D-03  0.450178D-03 -0.162081D-03 -0.302636D-02
     34 -0.135662D-01 -0.708311D-04  0.221069D-02 -0.336655D-03  0.341145D-03
     35 -0.468806D-02  0.690220D-03  0.429514D-02  0.252307D-03  0.133743D-03
     36 -0.542189D-02  0.251018D-03 -0.137522D-02 -0.290594D-03 -0.171744D-02
     37  0.254698D-02 -0.286786D-04  0.284389D-02  0.302991D-03 -0.537400D-03
     38  0.181316D-02 -0.467881D-03 -0.282647D-02 -0.239910D-03 -0.238859D-02
     39  0.692996D-03 -0.734357D-03  0.444625D-02  0.792577D-04  0.110060D-02
     40 -0.408336D-04 -0.117356D-02 -0.122412D-02 -0.463643D-03 -0.750585D-03
                6             7             8             9            10 
      6  0.376685D+00
      7 -0.309759D-03  0.393198D+00
      8  0.261773D-01 -0.106408D-02  0.347339D+00
      9  0.101582D-01  0.240396D-03  0.432001D-02  0.292065D+00
     10  0.192399D-01  0.506734D-03  0.662871D-04  0.544069D-02  0.284117D+00
     11 -0.140095D-02 -0.275794D-02 -0.286730D-03  0.884063D-04  0.227248D-02
     12  0.102948D-02  0.140822D-03  0.578286D-03  0.392482D-03 -0.208755D-03
     13  0.336512D-01 -0.411401D-03  0.371388D-02  0.393877D-02 -0.352500D-03
     14 -0.261099D-01 -0.269230D-02 -0.168413D-02 -0.245172D-02  0.318889D-03
     15  0.995527D-02  0.940586D-02 -0.113259D-02 -0.100568D-02 -0.235610D-03
     16  0.383726D-01  0.240829D-02  0.190165D-01 -0.418727D-02 -0.150546D-02
     17  0.164737D-02  0.129432D-02 -0.131794D-01  0.166299D-02 -0.187199D-02
     18  0.789643D-02 -0.284506D-02 -0.130337D-01 -0.143226D-02 -0.242094D-03
     19 -0.228682D-01 -0.172906D-02  0.527283D-03  0.353139D-02 -0.292501D-02
     20 -0.235817D-01  0.437477D-03  0.696237D-02 -0.248567D-02  0.249660D-02
     21 -0.297683D-02  0.241923D-03 -0.216407D-02  0.336536D-02  0.403508D-02
     22 -0.232094D-02 -0.491282D-04 -0.278853D-01 -0.159669D-02  0.132529D-02
     23 -0.671570D-03  0.304926D-03 -0.117373D-02 -0.483227D-02  0.660600D-02
     24  0.286195D-02 -0.231726D-03  0.296945D-01  0.636554D-02 -0.798631D-02
     25 -0.988213D-02 -0.676822D-02  0.218146D-03 -0.296531D-03  0.198861D-03
     26  0.143742D-01  0.456136D-02  0.728386D-03 -0.198922D-03 -0.211105D-03
     27 -0.509716D-03  0.181038D-03  0.468399D-02  0.396911D-03 -0.718564D-03
     28  0.401719D-03 -0.602000D-05 -0.299588D-02  0.413068D-03  0.433314D-03
     29 -0.149530D-02  0.307806D-02 -0.296321D-02  0.255177D-02 -0.181160D-02
     30  0.258879D-02  0.296633D-02 -0.679663D-02 -0.268878D-03  0.375635D-02
     31  0.988230D-03  0.342190D-02  0.105826D-01 -0.454663D-02  0.137817D-03
     32 -0.959952D-02 -0.283437D-02 -0.322601D-02  0.310201D-02 -0.164995D-02
     33 -0.551543D-02 -0.294610D-02 -0.705944D-02  0.281356D-03  0.391799D-02
     34 -0.711599D-02 -0.249053D-02  0.103198D-01 -0.399639D-02  0.299462D-03
     35  0.343199D-02 -0.113384D-02  0.390360D-02 -0.306413D-02  0.207947D-02
     36  0.471269D-02 -0.133266D-02  0.441687D-03 -0.247631D-02  0.255667D-02
     37  0.168682D-01  0.101696D-02  0.483208D-03 -0.156965D-02 -0.311621D-02
     38  0.181489D-01  0.818144D-03 -0.297871D-02 -0.981824D-03 -0.263901D-02
     39 -0.169467D-01  0.513753D-03  0.270059D-02  0.325197D-02  0.174569D-02
     40 -0.156660D-01  0.314935D-03 -0.761327D-03  0.383979D-02  0.222289D-02
               11            12            13            14            15 
     11  0.226007D+00
     12  0.396945D-03  0.859127D-01
     13  0.433716D-02 -0.618061D-03  0.225547D+00
     14 -0.213626D-02  0.167915D-03 -0.989602D-01  0.980014D-01
     15  0.854420D-03  0.614406D-03 -0.810001D-01 -0.229082D-01  0.958662D-01
     16  0.229927D-02 -0.142773D-02  0.235176D-01 -0.151428D-01  0.566765D-03
     17  0.153579D-02 -0.418829D-03  0.778175D-03  0.728999D-03 -0.299080D-02
     18 -0.169464D-02  0.137432D-02 -0.907829D-02  0.625344D-02 -0.113360D-02
     19 -0.155197D-02  0.718291D-03 -0.123282D-01  0.637280D-02  0.267463D-02
     20 -0.540772D-03  0.129566D-03 -0.446972D-02  0.351535D-02 -0.585750D-03
     21 -0.178693D-03 -0.280792D-03  0.107780D-03 -0.805775D-03  0.144007D-02
     22  0.669448D-03  0.868122D-02 -0.947302D-03  0.131801D-02 -0.604869D-03
     23  0.243842D-03 -0.469853D-02 -0.287235D-02  0.304626D-03  0.213468D-02
     24 -0.914285D-03 -0.388357D-02  0.302764D-02 -0.145326D-02 -0.105405D-02
     25  0.705834D-03 -0.134564D-03 -0.995553D-02  0.215999D-01 -0.179685D-01
     26  0.454417D-02  0.325415D-03  0.550956D-02 -0.157198D-01  0.157832D-01
     27 -0.118727D-03 -0.434087D-02 -0.335464D-02  0.754189D-03  0.195195D-02
     28 -0.400018D-04 -0.498183D-02  0.323640D-02 -0.601039D-03 -0.205723D-02
     29  0.115349D-02  0.125035D-03  0.374488D-03  0.967704D-02 -0.865595D-02
     30  0.744720D-03  0.350985D-03  0.974747D-03  0.104386D-01 -0.104114D-01
     31  0.950489D-03  0.205736D-03  0.521940D-02  0.764432D-02 -0.976516D-02
     32 -0.134504D-02 -0.135092D-03 -0.702020D-02 -0.714666D-02  0.107568D-01
     33 -0.175381D-02  0.908581D-04 -0.641994D-02 -0.638506D-02  0.900131D-02
     34 -0.154804D-02 -0.543908D-04 -0.217528D-02 -0.917938D-02  0.964758D-02
     35 -0.110123D-02  0.227233D-02 -0.182978D-02  0.134771D-02  0.349532D-04
     36 -0.113748D-02  0.719785D-03  0.500592D-02 -0.199719D-03 -0.397998D-02
     37  0.139036D-02  0.124102D-02  0.717591D-02 -0.389400D-02 -0.165031D-02
     38  0.135411D-02 -0.311526D-03  0.140116D-01 -0.544142D-02 -0.566524D-02
     39 -0.175082D-03  0.142938D-02 -0.345674D-02  0.145663D-02  0.146620D-02
     40 -0.211335D-03 -0.123163D-03  0.337895D-02 -0.907987D-04 -0.254873D-02
               16            17            18            19            20 
     16  0.164765D+00
     17 -0.619399D-01  0.669719D-01
     18 -0.531706D-01  0.250070D-02  0.675357D-01
     19 -0.417035D-01 -0.161395D-01  0.229166D-01  0.518709D-01
     20 -0.483115D-01  0.282113D-01 -0.214406D-01 -0.117728D-02  0.578736D-01
     21  0.306015D-01 -0.161976D-01 -0.132867D-01 -0.128522D-01 -0.146102D-01
     22  0.154199D-02  0.272160D-02  0.120621D-02 -0.243003D-02 -0.380126D-02
     23 -0.367476D-02  0.612204D-02 -0.445957D-02 -0.738515D-02  0.981066D-02
     24  0.251611D-02 -0.876826D-02  0.307277D-02  0.947790D-02 -0.608121D-02
     25 -0.258552D-02 -0.617428D-03  0.305887D-02  0.696273D-03 -0.319514D-04
     26  0.779309D-02 -0.363153D-02 -0.192958D-02 -0.182507D-02 -0.203858D-02
     27  0.276294D-02 -0.452169D-03 -0.674735D-03 -0.906274D-03 -0.124393D-02
     28 -0.789191D-03 -0.378404D-03  0.600541D-03  0.121629D-02 -0.403169D-04
     29 -0.100400D-02 -0.517439D-02  0.499337D-02  0.145262D-01 -0.126589D-01
     30 -0.993478D-02  0.101637D-01  0.704942D-02 -0.139140D-01  0.875224D-04
     31  0.183333D-01 -0.114446D-01 -0.144161D-01 -0.105803D-02  0.123477D-01
     32 -0.434585D-02 -0.382576D-02  0.667320D-02  0.153901D-01 -0.124890D-01
     33 -0.132766D-01  0.115123D-01  0.872925D-02 -0.130500D-01  0.257445D-03
     34  0.149914D-01 -0.100960D-01 -0.127363D-01 -0.194075D-03  0.125176D-01
     35  0.683783D-02 -0.183594D-01  0.159973D-01  0.367943D-02 -0.962848D-02
     36  0.337406D-02 -0.191121D-01  0.173953D-01  0.664395D-02 -0.858690D-02
     37  0.135761D-01  0.138410D-01 -0.214214D-02 -0.119124D-01 -0.744190D-02
     38  0.101124D-01  0.130883D-01 -0.744189D-03 -0.894788D-02 -0.640032D-02
     39 -0.635751D-02  0.191322D-02 -0.184650D-01  0.405275D-02  0.117069D-01
     40 -0.982128D-02  0.116054D-02 -0.170670D-01  0.701728D-02  0.127485D-01
               21            22            23            24            25 
     21  0.248851D-01
     22  0.876303D-03  0.185287D+00
     23 -0.625199D-03 -0.747136D-01  0.127155D+00
     24 -0.143215D-03 -0.112133D+00 -0.510701D-01  0.163686D+00
     25 -0.330951D-03 -0.123734D-04 -0.119620D-02  0.110745D-02  0.144219D-01
     26  0.115214D-02 -0.548674D-03 -0.732640D-03  0.122646D-02 -0.776825D-03
     27  0.377214D-03 -0.147661D-01  0.568927D-02  0.105256D-01 -0.281852D-03
     28 -0.554647D-03  0.584724D-02 -0.651812D-03 -0.630503D-02  0.495423D-03
     29  0.160164D-04  0.984024D-03 -0.519793D-02  0.409702D-02  0.127318D-02
     30  0.739576D-02  0.136420D-02  0.219110D-02 -0.353540D-02  0.232881D-02
     31 -0.587318D-02 -0.195049D-02  0.168335D-02  0.208550D-03  0.146445D-02
     32 -0.461510D-03  0.659343D-03 -0.484256D-02  0.415711D-02 -0.124435D-02
     33  0.691823D-02  0.103952D-02  0.254647D-02 -0.347531D-02 -0.188729D-03
     34 -0.635070D-02 -0.227517D-02  0.203872D-02  0.268640D-03 -0.105309D-02
     35  0.139602D-02 -0.844516D-03  0.307134D-02 -0.111900D-02  0.144365D-02
     36  0.395304D-03 -0.198865D-02 -0.138131D-02  0.208449D-02  0.229604D-02
     37 -0.644551D-02  0.207253D-02  0.363195D-02 -0.445704D-02 -0.627413D-03
     38 -0.744622D-02  0.928397D-03 -0.820698D-03 -0.125355D-02  0.224971D-03
     39  0.699960D-02 -0.879197D-03  0.464794D-02 -0.264708D-02 -0.622708D-03
     40  0.599889D-02 -0.202333D-02  0.195287D-03  0.556407D-03  0.229677D-03
               26            27            28            29            30 
     26  0.125904D-01
     27 -0.143975D-03  0.952057D-02
     28  0.230810D-03 -0.370117D-02  0.634957D-02
     29 -0.102537D-02 -0.337177D-04  0.605322D-03  0.116997D-01
     30 -0.119969D-02 -0.289344D-03 -0.172778D-03 -0.215756D-02  0.143715D-01
     31  0.598024D-03 -0.115546D-03  0.400021D-03 -0.176349D-02 -0.432866D-02
     32 -0.287720D-03  0.364188D-03  0.218436D-03  0.579106D-02 -0.796311D-02
     33 -0.462044D-03  0.108562D-03 -0.559664D-03 -0.806619D-02  0.856591D-02
     34  0.133567D-02  0.282359D-03  0.131360D-04 -0.767212D-02 -0.101342D-01
     35  0.952334D-03  0.528380D-02 -0.417600D-02 -0.120583D-02  0.146854D-02
     36  0.145267D-02 -0.601836D-02  0.493205D-02 -0.350707D-03  0.123172D-02
     37  0.484257D-03  0.600158D-02 -0.441491D-02  0.771882D-03 -0.121372D-02
     38  0.984593D-03 -0.530059D-02  0.469314D-02  0.162701D-02 -0.145055D-02
     39 -0.572981D-03  0.507882D-02 -0.436697D-02  0.163563D-02 -0.689700D-03
     40 -0.726446D-04 -0.622335D-02  0.474108D-02  0.249076D-02 -0.926525D-03
               31            32            33            34            35 
     31  0.172235D-01
     32 -0.869004D-02  0.128483D-01
     33 -0.112552D-01 -0.905855D-03  0.157262D-01
     34  0.102970D-01 -0.163278D-02 -0.409487D-02  0.163363D-01
     35  0.217026D-02 -0.130247D-02  0.137190D-02  0.207362D-02  0.159706D-01
     36  0.284093D-02 -0.119908D-02  0.383346D-03  0.199256D-02  0.655197D-02
     37 -0.531888D-03  0.665663D-03 -0.131994D-02 -0.638106D-03 -0.132162D-03
     38  0.138781D-03  0.769057D-03 -0.230850D-02 -0.719170D-03 -0.955074D-02
     39 -0.418238D-03  0.158976D-02 -0.735573D-03 -0.464112D-03 -0.240894D-02
     40  0.252430D-03  0.169315D-02 -0.172413D-02 -0.545175D-03 -0.118275D-01
               36            37            38            39            40 
     36  0.177291D-01
     37 -0.109542D-01  0.188316D-01
     38  0.222915D-03  0.800955D-02  0.177832D-01
     39 -0.119201D-01 -0.172957D-02 -0.112407D-01  0.173633D-01
     40 -0.742969D-03 -0.125516D-01 -0.146709D-02  0.785210D-02  0.189366D-01
 Leave Link  716 at Thu Feb 28 09:54:13 2019, MaxMem=   104857600 cpu:               0.1 elap:               0.1
 (Enter /shared/centos7/gaussian/g16/l103.exe)

 GradGradGradGradGradGradGradGradGradGradGradGradGradGradGradGradGradGrad
 Berny optimization.
 Red2BG is reusing G-inverse.
 Internal  Forces:  Max     0.098880896 RMS     0.022027743
 Search for a local minimum.
 Step number   1 out of a maximum of  100
 All quantities printed in internal units (Hartrees-Bohrs-Radians)
 Swapping is turned off.
 Second derivative matrix not updated -- analytic derivatives used.
 ITU=  0
     Eigenvalues ---   -0.00215   0.00047   0.00322   0.01210   0.01337
     Eigenvalues ---    0.03936   0.05188   0.05369   0.08215   0.08419
     Eigenvalues ---    0.12192   0.13113   0.17711   0.21466   0.22470
     Eigenvalues ---    0.23814   0.27625   0.29027   0.29697   0.32930
     Eigenvalues ---    0.37912   0.39353   0.40906   0.41237   0.42674
     Eigenvalues ---    0.54030   0.60349
 Eigenvalue     1 is  -2.15D-03 should be greater than     0.000000 Eigenvector:
                          D11       D12       D15       D5        D16
   1                   -0.33578  -0.32674  -0.30805   0.30553  -0.29900
                          D13       D14       D8        D7        D6
   1                   -0.29353  -0.28449   0.27192   0.27002   0.26097
 Quadratic step=5.810D+00 exceeds max=3.000D-01 adjusted using Lamda=-1.615D-01.
 Angle between NR and scaled steps=  72.13 degrees.
 Angle between quadratic step and forces=  26.27 degrees.
 Linear search not attempted -- option 19 set.
 Iteration  1 RMS(Cart)=  0.09004150 RMS(Int)=  0.00640417
 Iteration  2 RMS(Cart)=  0.00587809 RMS(Int)=  0.00011457
 Iteration  3 RMS(Cart)=  0.00002592 RMS(Int)=  0.00011155
 Iteration  4 RMS(Cart)=  0.00000000 RMS(Int)=  0.00011155
 ITry= 1 IFail=0 DXMaxC= 4.33D-01 DCOld= 1.00D+10 DXMaxT= 3.00D-01 DXLimC= 3.00D+00 Rises=F
 Variable       Old X    -DE/DX   Delta X   Delta X   Delta X     New X
                                 (Linear)    (Quad)   (Total)
    R1        2.53027   0.03693   0.00000   0.06279   0.06279   2.59306
    R2        1.87790  -0.02151   0.00000  -0.03953  -0.03953   1.83837
    R3        2.59415  -0.03959   0.00000  -0.04679  -0.04679   2.54736
    R4        1.89055  -0.03708   0.00000  -0.06214  -0.06214   1.82840
    R5        2.39647  -0.09888   0.00000  -0.14398  -0.14398   2.25249
    R6        2.71458   0.01600   0.00000   0.02442   0.02442   2.73900
    R7        1.95150  -0.01814   0.00000  -0.03249  -0.03249   1.91901
    R8        2.78684   0.01799   0.00000   0.04584   0.04584   2.83268
    R9        2.11093  -0.01421   0.00000  -0.03358  -0.03358   2.07735
   R10        2.11540  -0.01476   0.00000  -0.03178  -0.03178   2.08362
    A1        1.99181  -0.01402   0.00000  -0.04419  -0.04419   1.94762
    A2        2.21528  -0.03809   0.00000  -0.14417  -0.14417   2.07111
    A3        2.00010   0.00174   0.00000  -0.00806  -0.00834   1.99175
    A4        2.00222  -0.00400   0.00000  -0.02015  -0.02046   1.98175
    A5        2.00196  -0.00258   0.00000  -0.00461  -0.00499   1.99698
    A6        1.90398   0.00486   0.00000   0.00464   0.00468   1.90866
    A7        1.87348  -0.00298   0.00000  -0.00634  -0.00639   1.86709
    A8        1.95825   0.00672   0.00000   0.02380   0.02382   1.98207
    A9        1.96670  -0.00277   0.00000  -0.01177  -0.01183   1.95487
   A10        1.92876  -0.01023   0.00000  -0.02945  -0.02948   1.89927
   A11        1.83209   0.00461   0.00000   0.02044   0.02020   1.85229
   A12        2.04765   0.00654   0.00000   0.03945   0.03945   2.08710
   A13        2.19175  -0.02856   0.00000  -0.10374  -0.10374   2.08801
   A14        2.03560   0.02229   0.00000   0.06632   0.06632   2.10192
    D1       -1.27847   0.00707   0.00000   0.03702   0.03683  -1.24164
    D2        1.09143   0.00045   0.00000  -0.00212  -0.00192   1.08951
    D3       -2.47815  -0.00229   0.00000  -0.01975  -0.01978  -2.49793
    D4        0.80571  -0.00666   0.00000  -0.04361  -0.04358   0.76213
    D5       -0.59958  -0.00384   0.00000  -0.02864  -0.02862  -0.62820
    D6       -2.73560  -0.00153   0.00000  -0.01327  -0.01319  -2.74879
    D7        1.54363  -0.00889   0.00000  -0.04680  -0.04682   1.49681
    D8       -2.96961   0.00342   0.00000   0.01745   0.01742  -2.95218
    D9        1.17757   0.00573   0.00000   0.03282   0.03285   1.21042
   D10       -0.82639  -0.00163   0.00000  -0.00071  -0.00078  -0.82717
   D11       -1.56412   0.00542   0.00000   0.03001   0.03000  -1.53412
   D12        1.71887   0.00218   0.00000   0.00813   0.00810   1.72696
   D13        0.51479   0.00319   0.00000   0.01778   0.01774   0.53253
   D14       -2.48541  -0.00004   0.00000  -0.00409  -0.00416  -2.48956
   D15        2.55829   0.00046   0.00000   0.01652   0.01661   2.57490
   D16       -0.44191  -0.00277   0.00000  -0.00535  -0.00529  -0.44720
         Item               Value     Threshold  Converged?
 Maximum Force            0.098881     0.000002     NO 
 RMS     Force            0.022028     0.000001     NO 
 Maximum Displacement     0.433016     0.000006     NO 
 RMS     Displacement     0.090264     0.000004     NO 
 Predicted change in Energy=-2.601241D-02
 Lowest energy point so far.  Saving SCF results.
 GradGradGradGradGradGradGradGradGradGradGradGradGradGradGradGradGradGrad

 Leave Link  103 at Thu Feb 28 09:54:13 2019, MaxMem=   104857600 cpu:               0.0 elap:               0.0
 (Enter /shared/centos7/gaussian/g16/l202.exe)
                          Input orientation:                          
 ---------------------------------------------------------------------
 Center     Atomic      Atomic             Coordinates (Angstroms)
 Number     Number       Type             X           Y           Z
 ---------------------------------------------------------------------
      1          8           0       -1.125197    0.481798    1.295576
      2          8           0        2.133693    0.033929    0.233670
      3          8           0        0.864059   -1.700051    0.687162
      4          7           0       -0.943492    0.801930   -0.026315
      5          6           0       -0.114792   -0.137923   -0.754830
      6          6           0        0.971821   -0.643838    0.145332
      7          1           0        0.288155    0.397741   -1.626110
      8          1           0       -0.673798   -0.999279   -1.156471
      9          1           0       -1.801992    1.061526   -0.502567
     10          1           0       -1.702615   -0.294150    1.399877
     11          1           0        2.104158    0.998417    0.304677
 ---------------------------------------------------------------------
                    Distance matrix (angstroms):
                    1          2          3          4          5
     1  O    0.000000
     2  O    3.456674   0.000000
     3  O    3.014594   2.196432   0.000000
     4  N    1.372187   3.182214   3.167996   0.000000
     5  C    2.368361   2.462184   2.340456   1.449414   0.000000
     6  C    2.643407   1.348006   1.191964   2.405854   1.498989
     7  H    3.246672   2.645213   3.175473   2.059046   1.099287
     8  H    2.899980   3.298790   2.501014   2.143441   1.102605
     9  H    2.006852   4.133717   4.018655   1.015494   2.085415
    10  H    0.972824   4.023050   3.012032   1.952353   2.681109
    11  H    3.417237   0.967549   2.994307   3.071862   2.708794
                    6          7          8          9         10
     6  C    0.000000
     7  H    2.165709   0.000000
     8  H    2.128166   1.759994   0.000000
     9  H    3.319951   2.464077   2.438715   0.000000
    10  H    2.974688   3.687611   2.844396   2.338167   0.000000
    11  H    2.001145   2.717833   3.720589   3.989189   4.166739
                   11
    11  H    0.000000
 Stoichiometry    C2H5NO3
 Framework group  C1[X(C2H5NO3)]
 Deg. of freedom    27
 Full point group                 C1      NOp   1
 RotChk:  IX=0 Diff= 1.09D-01
 Largest Abelian subgroup         C1      NOp   1
 Largest concise Abelian subgroup C1      NOp   1
                         Standard orientation:                         
 ---------------------------------------------------------------------
 Center     Atomic      Atomic             Coordinates (Angstroms)
 Number     Number       Type             X           Y           Z
 ---------------------------------------------------------------------
      1          8           0       -1.568745    0.613336   -0.722916
      2          8           0        1.653891   -0.636274   -0.681880
      3          8           0        1.159828    1.200653    0.416261
      4          7           0       -1.452047   -0.544283    0.004543
      5          6           0       -0.274714   -0.597458    0.848260
      6          6           0        0.867893    0.076111    0.149886
      7          1           0       -0.068766   -1.659141    1.045357
      8          1           0       -0.417281   -0.124930    1.834227
      9          1           0       -2.312688   -0.821391    0.466857
     10          1           0       -1.792438    1.371467   -0.155830
     11          1           0        1.236645   -1.249666   -1.303014
 ---------------------------------------------------------------------
 Rotational constants (GHZ):           5.9679391           2.6854154           2.4605448
[...]
    R1        2.65701  -0.00000   0.00000  -0.00000  -0.00000   2.65701
    R2        1.82699  -0.00000   0.00000  -0.00000  -0.00000   1.82699
    R3        2.51488   0.00000   0.00000   0.00000   0.00000   2.51488
    R4        1.83363   0.00000   0.00000   0.00000   0.00000   1.83363
    R5        2.25566  -0.00000   0.00000  -0.00000  -0.00000   2.25566
    R6        2.73400   0.00000   0.00000   0.00000   0.00000   2.73400
    R7        1.91575   0.00000   0.00000   0.00000   0.00000   1.91575
    R8        2.88557  -0.00000   0.00000   0.00000   0.00000   2.88557
    R9        2.06275   0.00000   0.00000   0.00000   0.00000   2.06275
   R10        2.06911   0.00000   0.00000   0.00000   0.00000   2.06911
    A1        1.88799  -0.00000   0.00000  -0.00000  -0.00000   1.88799
    A2        1.89285   0.00000   0.00000   0.00000   0.00000   1.89285
    A3        1.93373   0.00000   0.00000   0.00000   0.00000   1.93373
    A4        1.88713  -0.00000   0.00000   0.00000   0.00000   1.88713
    A5        1.95157  -0.00000   0.00000  -0.00000  -0.00000   1.95157
    A6        1.94721  -0.00000   0.00000   0.00000   0.00000   1.94721
    A7        1.88528  -0.00000   0.00000   0.00000   0.00000   1.88528
    A8        1.99112   0.00000   0.00000  -0.00000  -0.00000   1.99112
    A9        1.87012  -0.00000   0.00000  -0.00000  -0.00000   1.87012
   A10        1.88080   0.00000   0.00000   0.00000   0.00000   1.88080
   A11        1.88477  -0.00000   0.00000  -0.00000  -0.00000   1.88477
   A12        2.14744   0.00000   0.00000   0.00000   0.00000   2.14744
   A13        2.00838  -0.00000   0.00000  -0.00000  -0.00000   2.00838
   A14        2.12670   0.00000   0.00000   0.00000   0.00000   2.12670
    D1       -0.94647  -0.00000   0.00000  -0.00000  -0.00000  -0.94647
    D2        1.19785  -0.00000   0.00000  -0.00000  -0.00000   1.19785
    D3       -3.08917  -0.00000   0.00000  -0.00000  -0.00000  -3.08917
    D4        0.09106  -0.00000   0.00000  -0.00000  -0.00000   0.09106
    D5       -1.30057  -0.00000   0.00000  -0.00000  -0.00000  -1.30057
    D6        2.93158   0.00000   0.00000  -0.00000  -0.00000   2.93158
    D7        0.83589   0.00000   0.00000  -0.00000  -0.00000   0.83589
    D8        2.87610  -0.00000   0.00000  -0.00000  -0.00000   2.87610
    D9        0.82507  -0.00000   0.00000  -0.00000  -0.00000   0.82506
   D10       -1.27062  -0.00000   0.00000  -0.00000  -0.00000  -1.27063
   D11       -0.33630   0.00000   0.00000   0.00000   0.00000  -0.33629
   D12        2.84343   0.00000   0.00000   0.00000   0.00000   2.84343
   D13        1.72386   0.00000   0.00000   0.00000   0.00000   1.72387
   D14       -1.37960   0.00000   0.00000   0.00000   0.00000  -1.37959
   D15       -2.53488   0.00000   0.00000   0.00000   0.00000  -2.53488
   D16        0.64484   0.00000   0.00000   0.00000   0.00000   0.64485
         Item               Value     Threshold  Converged?
 Maximum Force            0.000000     0.000002     YES
 RMS     Force            0.000000     0.000001     YES
 Maximum Displacement     0.000009     0.000006     NO 
 RMS     Displacement     0.000003     0.000004     YES
 Predicted change in Energy=-6.583239D-13
                           ----------------------------
                           ! Non-Optimized Parameters !
                           ! (Angstroms and Degrees)  !
 --------------------------                            --------------------------
 ! Name  Definition              Value          Derivative Info.                !
 --------------------------------------------------------------------------------
 ! R1    R(1,4)                  1.406          -DE/DX =    0.0                 !
 ! R2    R(1,10)                 0.9668         -DE/DX =    0.0                 !
 ! R3    R(2,6)                  1.3308         -DE/DX =    0.0                 !
 ! R4    R(2,11)                 0.9703         -DE/DX =    0.0                 !
 ! R5    R(3,6)                  1.1936         -DE/DX =    0.0                 !
 ! R6    R(4,5)                  1.4468         -DE/DX =    0.0                 !
 ! R7    R(4,9)                  1.0138         -DE/DX =    0.0                 !
 ! R8    R(5,6)                  1.527          -DE/DX =    0.0                 !
 ! R9    R(5,7)                  1.0916         -DE/DX =    0.0                 !
 ! R10   R(5,8)                  1.0949         -DE/DX =    0.0                 !
 ! A1    A(4,1,10)             108.174          -DE/DX =    0.0                 !
 ! A2    A(6,2,11)             108.4521         -DE/DX =    0.0                 !
 ! A3    A(1,4,5)              110.7945         -DE/DX =    0.0                 !
 ! A4    A(1,4,9)              108.1248         -DE/DX =    0.0                 !
 ! A5    A(5,4,9)              111.817          -DE/DX =    0.0                 !
 ! A6    A(4,5,6)              111.5671         -DE/DX =    0.0                 !
 ! A7    A(4,5,7)              108.0185         -DE/DX =    0.0                 !
 ! A8    A(4,5,8)              114.0828         -DE/DX =    0.0                 !
 ! A9    A(6,5,7)              107.1497         -DE/DX =    0.0                 !
 ! A10   A(6,5,8)              107.7622         -DE/DX =    0.0                 !
 ! A11   A(7,5,8)              107.9895         -DE/DX =    0.0                 !
 ! A12   A(2,6,3)              123.0393         -DE/DX =    0.0                 !
 ! A13   A(2,6,5)              115.0716         -DE/DX =    0.0                 !
 ! A14   A(3,6,5)              121.8509         -DE/DX =    0.0                 !
 ! D1    D(10,1,4,5)           -54.229          -DE/DX =    0.0                 !
 ! D2    D(10,1,4,9)            68.6318         -DE/DX =    0.0                 !
 ! D3    D(11,2,6,3)          -176.9965         -DE/DX =    0.0                 !
 ! D4    D(11,2,6,5)             5.2173         -DE/DX =    0.0                 !
 ! D5    D(1,4,5,6)            -74.5174         -DE/DX =    0.0                 !
 ! D6    D(1,4,5,7)            167.967          -DE/DX =    0.0                 !
 ! D7    D(1,4,5,8)             47.8928         -DE/DX =    0.0                 !
 ! D8    D(9,4,5,6)            164.7882         -DE/DX =    0.0                 !
 ! D9    D(9,4,5,7)             47.2725         -DE/DX =    0.0                 !
 ! D10   D(9,4,5,8)            -72.8017         -DE/DX =    0.0                 !
 ! D11   D(4,5,6,2)            -19.268          -DE/DX =    0.0                 !
 ! D12   D(4,5,6,3)            162.9168         -DE/DX =    0.0                 !
 ! D13   D(7,5,6,2)             98.7703         -DE/DX =    0.0                 !
 ! D14   D(7,5,6,3)            -79.0449         -DE/DX =    0.0                 !
 ! D15   D(8,5,6,2)           -145.2377         -DE/DX =    0.0                 !
 ! D16   D(8,5,6,3)             36.9471         -DE/DX =    0.0                 !
 --------------------------------------------------------------------------------
 GradGradGradGradGradGradGradGradGradGradGradGradGradGradGradGradGradGrad

 Leave Link  103 at Thu Feb 28 12:26:04 2019, MaxMem=   104857600 cpu:               0.0 elap:               0.1
 (Enter /shared/centos7/gaussian/g16/l9999.exe)

 ----------------------------------------------------------------------

 Electric dipole moment (input orientation):
 (Debye = 10**-18 statcoulomb cm , SI units = C m)
                  (au)            (Debye)         (10**-30 SI)
   Tot        0.209820D+01      0.533309D+01      0.177893D+02
   x         -0.174814D+01     -0.444333D+01     -0.148214D+02
   y          0.838898D+00      0.213227D+01      0.711248D+01
   z         -0.801683D+00     -0.203768D+01     -0.679695D+01

 Dipole polarizability, Alpha (input orientation).
 (esu units = cm**3 , SI units = C**2 m**2 J**-1)
 Alpha(0;0):
               (au)            (10**-24 esu)      (10**-40 SI)
   iso        0.449173D+02      0.665606D+01      0.740586D+01
   aniso      0.107990D+02      0.160025D+01      0.178052D+01
   xx         0.452193D+02      0.670081D+01      0.745565D+01
   yx        -0.388911D+01     -0.576307D+00     -0.641228D+00
   yy         0.486911D+02      0.721528D+01      0.802808D+01
   zx         0.126540D+00      0.187513D-01      0.208636D-01
   zy         0.287388D+01      0.425864D+00      0.473838D+00
   zz         0.408415D+02      0.605208D+01      0.673385D+01

 ----------------------------------------------------------------------

 Dipole orientation:
     8         -2.71739001         -1.56627771          1.43860806
     8          0.77675258         -1.60472532         -3.24488523
     8          0.82811128          2.55710094         -3.76912446
     7         -0.09088779         -1.25798722          1.69578262
     6          0.74122279          1.04011607          0.47059890
     6          0.75827412          0.76452300         -2.40172547
     1          2.68394697          1.40881933          1.05780219
     1         -0.39463336          2.70515995          0.93822447
     1          0.32930422         -1.26068407          3.56488049
     1         -3.53216037         -0.05301307          2.05835504
     1          0.61750512         -2.73319900         -1.80844107

 Electric dipole moment (dipole orientation):
 (Debye = 10**-18 statcoulomb cm , SI units = C m)
                  (au)            (Debye)         (10**-30 SI)
   Tot        0.209820D+01      0.533309D+01      0.177893D+02
   x          0.000000D+00      0.000000D+00      0.000000D+00
   y          0.000000D+00      0.000000D+00      0.000000D+00
   z          0.209820D+01      0.533309D+01      0.177893D+02

 Dipole polarizability, Alpha (dipole orientation).
 (esu units = cm**3 , SI units = C**2 m**2 J**-1)
 Alpha(0;0):
               (au)            (10**-24 esu)      (10**-40 SI)
   iso        0.449173D+02      0.665606D+01      0.740586D+01
   aniso      0.107990D+02      0.160025D+01      0.178052D+01
   xx         0.401898D+02      0.595551D+01      0.662640D+01
   yx         0.158024D+01      0.234167D+00      0.260546D+00
   yy         0.476334D+02      0.705854D+01      0.785369D+01
   zx        -0.221025D+01     -0.327525D+00     -0.364420D+00
   zy        -0.382158D+01     -0.566300D+00     -0.630093D+00
   zz         0.469287D+02      0.695412D+01      0.773750D+01

 ----------------------------------------------------------------------

 Test job not archived.
 1\1\GINC-C0266\Freq\RM062X\6-311+G(2df,2p)\C2H5N1O3\UNDERKOFFLER.C\28-
 Feb-2019\0\\#P Geom=AllCheck Guess=TCheck SCRF=Check Test GenChk RM062
 X/6-311+G(2df,2p) Freq\\Gaussian input prepared by ASE\\0,1\O,-1.15024
 52255,0.69075979,1.238585534\O,1.8399041624,0.1635001332,0.65313582\O,
 1.5537484382,-1.8884808537,-0.1440494075\N,-0.6111451508,0.9358945122,
 -0.036638456\C,-0.1449089139,-0.2926393747,-0.6420100618\C,1.161112874
 7,-0.7692059417,-0.0104675467\H,0.0608759423,-0.0931620867,-1.69527276
 62\H,-0.8626250353,-1.1177660821,-0.5880516758\H,-1.324192273,1.386203
 208,-0.5992371358\H,-1.831099454,0.00979899,1.1523356599\H,1.308574634
 9,0.9751977055,0.671670036\\Version=EM64L-G16RevA.03\State=1-A\HF=-359
 .5876711\RMSD=5.712e-09\RMSF=8.224e-07\ZeroPoint=0.0856325\Thermal=0.0
 917789\Dipole=-1.7481409,0.8388985,-0.8016833\DipoleDeriv=-0.3929055,0
 .1999437,0.254152,0.1452845,-0.3028506,0.1153214,0.0809089,-0.0337944,
 -0.4150431,-0.6713679,-0.3713114,-0.2615863,-0.0937592,-1.0246812,-0.2
 956268,-0.2017265,-0.3985745,-0.5641003,-0.6679147,0.344341,-0.0132833
 ,0.2526694,-1.2064558,-0.1587849,-0.0762334,-0.0781707,-0.4420001,-0.2
 197929,-0.0416792,-0.2165225,-0.0123791,-0.401275,-0.1054524,-0.136057
 6,-0.0423857,0.1252997,0.1184995,-0.0461008,-0.1645773,0.0414773,0.337
 0827,0.0473542,-0.1449582,0.1226876,0.0527536,1.0525922,-0.0414791,0.3
 758008,-0.2198565,1.8047566,0.384794,0.3687593,0.4446074,0.618926,0.05
 1024,0.0262038,0.035372,0.0445475,0.0384945,0.0313281,0.0297323,0.0042
 021,-0.0057423,-0.0690502,-0.0590855,0.0168871,-0.0232708,-0.068083,-0
 .0399201,0.0520573,0.0173023,0.0675584,0.0815014,0.1115205,-0.0279641,
 0.015218,0.2540183,-0.0086747,0.0268857,0.0074676,0.0578595,0.2630658,
 -0.0978656,-0.0135924,-0.1309568,0.2064061,-0.0002266,-0.050328,-0.049
 1307,0.2040332,0.4543483,-0.0244875,0.0153139,-0.0189742,0.3625875,0.0
 298876,0.0509603,0.0057891,0.3004552\Polar=45.2192895,-3.8891126,48.69
 11309,0.12654,2.8738757,40.8414647\Quadrupole=1.7543429,-3.091299,1.33
 6956,3.4905088,0.9424951,-2.3711643\PG=C01 [X(C2H5N1O3)]\NImag=0\\0.33
 070968,0.26580958,0.32719675,-0.04148329,0.02526034,0.36434660,-0.0014
 5776,0.00075393,0.00137894,0.37020577,-0.00072326,0.00111359,0.0010994
 7,-0.12484202,0.61156051,-0.00006344,-0.00082253,0.00214416,0.12919700
 ,0.13891648,0.14881830,-0.00063449,-0.00042332,0.00124873,0.03529401,-
 0.02046361,0.00350286,0.17580472,0.00036283,0.00056479,-0.00045888,-0.
 00748727,-0.09799013,-0.03920351,-0.26091499,0.82330295,-0.00058657,-0
 .00047603,0.00083881,0.00776967,-0.04693515,0.00452488,-0.00309050,0.1
 0233144,0.06287447,-0.08662225,-0.02292843,0.02662977,-0.00472608,0.01
 033610,0.00036691,-0.00469873,0.00769260,-0.00222751,0.45493137,-0.006
 34258,-0.07767168,0.00042938,0.00193211,-0.00020315,0.00137175,0.00557
 108,-0.00216398,0.00241340,-0.19270815,0.44463272,0.10127795,0.0710959
 8,-0.22972061,-0.00482738,0.00498333,-0.00107398,-0.00696457,0.0058532
 2,-0.00136953,0.04439760,-0.08139021,0.51611931,-0.00749294,0.01041068
 ,0.02113359,-0.01789963,0.00049728,-0.02306415,-0.00560161,0.01847650,
 -0.00912680,-0.09047462,0.02456937,-0.00180494,0.51405232,-0.01363233,
 0.00129259,0.00884277,-0.02117749,-0.00033797,-0.02152160,0.03933116,-
 0.02469720,0.00881786,0.07419868,-0.20727043,-0.05506936,0.04613948,0.
 55798002,0.01845312,-0.03664181,-0.03946476,-0.02693421,-0.00824218,0.
 00221418,-0.00205434,-0.00171418,0.02039767,0.02312585,-0.03012937,-0.
 10671057,-0.02494864,-0.01491703,0.56294435,0.00275922,-0.00238045,-0.
 00410027,-0.18976990,-0.09128191,-0.10212681,-0.19760053,0.24706212,0.
 01281192,-0.01429617,0.01264495,0.00129466,-0.15923637,0.01783496,-0.0
 3129842,0.54854355,-0.00105117,0.00179987,-0.00092105,-0.03816602,-0.1
 7820485,-0.06188998,0.23547290,-0.70107730,-0.06381923,0.02283329,-0.0
 2238110,0.01145430,0.00731942,-0.07658510,0.00705975,-0.19574793,1.020
 99973,0.00082544,0.00119433,-0.00137764,-0.08411960,-0.08866982,-0.130
 83327,0.00968270,-0.05854457,-0.09095233,0.00976340,-0.00805656,0.0084
 2498,-0.03860865,0.02033813,-0.10744034,0.11816956,0.13874361,0.339510
 67,-0.00063959,0.00359387,0.00358928,-0.00417747,-0.00186448,0.0021843
 1,-0.00217817,-0.00042337,0.00346800,-0.00352674,-0.00385233,0.0124826
 7,-0.05337542,-0.00657954,0.04231114,0.00858827,0.00622441,-0.03018840
 ,0.05813256,0.00310012,-0.00396815,-0.00600582,0.00024705,0.00034120,0
 .00000060,0.00214544,-0.00025265,-0.00132169,0.00410757,0.00686322,-0.
 02977565,-0.00996797,-0.05991699,0.05758169,-0.00372930,-0.00265452,0.
 00801980,0.00641086,0.06205568,0.00123455,-0.00346972,-0.00038784,-0.0
 0163544,-0.00020274,0.00108899,-0.00088370,-0.00103571,0.00195059,0.00
 238614,0.00372762,-0.01450724,0.05043211,0.04751972,-0.29540554,0.0016
 6047,0.00389018,-0.01475029,-0.05351034,-0.05107290,0.32200787,0.00356
 068,0.00263204,-0.00434814,-0.00382117,0.00138457,-0.00447210,0.002806
 86,0.00273693,-0.00083612,0.01122238,0.01276161,0.00267671,-0.16869334
 ,-0.12390868,0.01498777,-0.01854572,-0.02526491,0.00401820,-0.00350872
 ,-0.00330027,-0.00006667,0.17697139,0.00111620,0.00501438,0.00346216,0
 .00149540,0.00106531,0.00234010,0.00048017,0.00041979,0.00068299,-0.01
 469873,-0.03447411,-0.00399571,-0.12667976,-0.18333888,0.01150822,0.00
 492269,0.00579759,-0.00186868,-0.00381153,-0.00306614,0.00063298,0.135
 17619,0.20977150,-0.00424982,-0.00153064,0.00343420,-0.00248110,0.0006
 7821,-0.00210024,0.00242268,-0.00013736,-0.00050230,-0.00611619,-0.015
 55049,-0.00260411,0.01337674,0.01374841,-0.04776741,-0.01381768,-0.011
 15434,0.00034512,0.02089106,0.02221110,-0.00029376,-0.01157490,-0.0100
 6833,0.04921880,0.01090339,-0.01495145,0.02269652,-0.00085014,0.001047
 80,0.00006205,-0.00119804,0.00207409,-0.00026952,-0.24963410,0.1582551
 4,-0.15912795,-0.00874858,-0.00644560,-0.00746457,0.00034773,0.0005553
 8,0.00126202,-0.00014150,0.00062145,0.00062258,0.00106200,-0.00050199,
 -0.00001946,0.24375330,-0.00064280,-0.00032577,0.00577647,-0.00186600,
 0.00267151,0.00046099,0.00183145,-0.00050657,0.00125502,0.11393150,-0.
 10072011,0.07500770,0.02597781,-0.01730795,0.01495451,-0.00292240,-0.0
 0454868,-0.00531821,-0.00038390,0.00161516,0.00003598,-0.00029628,0.00
 015333,0.00097542,-0.14009941,0.12101231,-0.01457909,0.01512178,-0.039
 29821,0.00046967,0.00020607,0.00051464,0.00202493,-0.00160687,0.000529
 60,-0.13769568,0.09550062,-0.15749413,0.01319786,-0.01066302,0.0114452
 3,-0.00120899,-0.00302543,-0.00157878,-0.00008415,0.00055782,0.0005654
 9,0.00005274,-0.00050911,-0.00027699,0.13953998,-0.09571966,0.18549130
 ,-0.24845810,-0.24221850,-0.02765480,0.00042959,0.00061237,0.00023705,
 0.00051760,0.00002496,-0.00006584,-0.01214826,-0.01009317,0.00756119,0
 .00017989,0.00046183,-0.00149366,-0.00212966,-0.00039650,-0.00016982,0
 .00083834,0.00007296,-0.00052803,-0.00076939,0.00121066,0.00138464,0.0
 0271404,0.00158452,-0.00153656,0.25853641,-0.24870758,-0.25390503,-0.0
 3755631,-0.00015814,-0.00056768,-0.00053094,-0.00011266,-0.00050331,0.
 00003257,-0.00118384,-0.00573882,0.00332227,0.00463441,0.00887277,-0.0
 0064658,0.00055462,0.00016382,0.00063279,0.00013464,-0.00088470,-0.000
 31303,-0.00284248,-0.00038253,0.00093784,-0.00138158,-0.00184317,0.000
 01177,0.24927420,0.25476813,-0.06203025,-0.07138786,-0.05917987,-0.000
 50089,-0.00039660,-0.00005816,-0.00030814,0.00039281,-0.00017729,0.038
 14687,0.03338158,-0.01310458,0.00130573,0.00543259,0.00244697,0.000887
 25,-0.00114946,0.00042445,-0.00061742,-0.00007943,0.00021151,-0.001279
 06,-0.00225454,0.00043747,0.00211863,0.00181700,0.00048624,0.02205872,
 0.03391274,0.06937493,-0.00262785,-0.00029795,0.00090967,-0.18322723,0
 .22529716,-0.00582368,-0.00251162,-0.00960441,-0.00784673,-0.00002681,
 -0.00273803,0.00303407,-0.00270969,-0.00622246,-0.00468403,0.02133959,
 -0.01177888,0.00936514,-0.00001157,0.00029210,0.00028834,-0.00028495,0
 .00129069,0.00018403,0.00179189,0.00288552,-0.00018070,0.00028954,-0.0
 0021159,0.00021857,0.16797867,0.00071098,-0.00111135,0.00007148,0.1892
 6845,-0.33944835,-0.01912135,-0.00291761,0.00290363,-0.00298118,-0.001
 58057,-0.00087257,-0.00148588,-0.00137723,0.00130915,0.00118698,0.0130
 4263,-0.04330946,-0.00647081,0.00055139,-0.00013211,0.00028764,0.00092
 127,-0.00096022,-0.00010982,0.00082617,-0.00020006,0.00012603,-0.00053
 331,0.00002053,0.00033117,-0.19891216,0.38180081,0.00120142,0.00165616
 ,-0.00133484,-0.01831665,-0.00143707,-0.02523950,-0.00558064,-0.005876
 38,0.00188544,0.00122283,-0.00169774,0.00204045,-0.00189284,-0.0025284
 6,-0.00265978,0.01772831,-0.01918832,-0.00177258,-0.00052616,-0.000115
 53,-0.00047978,0.00084158,0.00006992,0.00010923,0.00057971,0.00075479,
 -0.00038439,0.00020711,0.00019689,-0.00086167,0.00453533,0.02816575,0.
 02869742\\0.00000075,0.00000061,0.00000032,0.00000041,0.00000092,-0.00
 000170,0.00000050,0.00000016,0.00000026,-0.00000028,-0.00000019,-0.000
 00034,-0.00000045,-0.00000056,0.00000031,0.00000024,0.00000085,-0.0000
 0012,-0.00000132,-0.00000132,0.00000005,-0.00000012,-0.00000073,0.0000
 0156,-0.00000090,-0.00000090,0.,0.00000092,0.00000034,0.00000149,0.000
 00024,0.00000083,-0.00000183\\\@


 NOTHING WILL BE ATTEMPTED IF ALL POSSIBLE OBJECTIONS
 MUST FIRST BE OVERCOME.

                               -- THE GOLDEN PRINCIPLE,
                    PAUL DICKSON'S "THE OFFICIAL RULES"
 Job cpu time:       0 days  0 hours 38 minutes 24.8 seconds.
 Elapsed time:       0 days  0 hours 38 minutes 24.9 seconds.
 File lengths (MBytes):  RWF=   1328 Int=      0 D2E=      0 Chk=     32 Scr=     32
 Normal termination of Gaussian 16 at Thu Feb 28 12:26:04 2019.
