 Entering Gaussian System, Link 0=g16
 Input=NPWGWQRXHVJJRD-UHFFFAOYSA-N_GeoFreqV3.com
 Output=NPWGWQRXHVJJRD-UHFFFAOYSA-N_GeoFreqV3.log
 Initial command:
 /shared/centos7/gaussian/g16/l1.exe "/scratch/underkoffler.c/gaussian_scratch/Gau-16991.inp" -scrdir="/scratch/underkoffler.c/gaussian_scratch/"
 Entering Link 1 = /shared/centos7/gaussian/g16/l1.exe PID=     16992.
  
 Copyright (c) 1988,1990,1992,1993,1995,1998,2003,2009,2016,
            Gaussian, Inc.  All Rights Reserved.
  
 This is part of the Gaussian(R) 16 program.  It is based on
 the Gaussian(R) 09 system (copyright 2009, Gaussian, Inc.),
 the Gaussian(R) 03 system (copyright 2003, Gaussian, Inc.),
 the Gaussian(R) 98 system (copyright 1998, Gaussian, Inc.),
 the Gaussian(R) 94 system (copyright 1995, Gaussian, Inc.),
 the Gaussian 92(TM) system (copyright 1992, Gaussian, Inc.),
 the Gaussian 90(TM) system (copyright 1990, Gaussian, Inc.),
 the Gaussian 88(TM) system (copyright 1988, Gaussian, Inc.),
 the Gaussian 86(TM) system (copyright 1986, Carnegie Mellon
 University), and the Gaussian 82(TM) system (copyright 1983,
 Carnegie Mellon University). Gaussian is a federally registered
 trademark of Gaussian, Inc.
  
 This software contains proprietary and confidential information,
 including trade secrets, belonging to Gaussian, Inc.
  
 This software is provided under written license and may be
 used, copied, transmitted, or stored only in accord with that
 written license.
  
 The following legend is applicable only to US Government
 contracts under FAR:
  
                    RESTRICTED RIGHTS LEGEND
  
 Use, reproduction and disclosure by the US Government is
 subject to restrictions as set forth in subparagraphs (a)
 and (c) of the Commercial Computer Software - Restricted
 Rights clause in FAR 52.227-19.
  
 Gaussian, Inc.
 340 Quinnipiac St., Bldg. 40, Wallingford CT 06492
  
  
 ---------------------------------------------------------------
 Warning -- This program may not be used in any manner that
 competes with the business of Gaussian, Inc. or will provide
 assistance to any competitor of Gaussian, Inc.  The licensee
 of this program is prohibited from giving any competitor of
 Gaussian, Inc. access to this program.  By using this program,
 the user acknowledges that Gaussian, Inc. is engaged in the
 business of creating and licensing software in the field of
 computational chemistry and represents and warrants to the
 licensee that it is not a competitor of Gaussian, Inc. and that
 it will not use this program in any manner prohibited above.
 ---------------------------------------------------------------
  

 Cite this work as:
 Gaussian 16, Revision A.03,
 M. J. Frisch, G. W. Trucks, H. B. Schlegel, G. E. Scuseria, 
 M. A. Robb, J. R. Cheeseman, G. Scalmani, V. Barone, 
 G. A. Petersson, H. Nakatsuji, X. Li, M. Caricato, A. V. Marenich, 
 J. Bloino, B. G. Janesko, R. Gomperts, B. Mennucci, H. P. Hratchian, 
 J. V. Ortiz, A. F. Izmaylov, J. L. Sonnenberg, D. Williams-Young, 
 F. Ding, F. Lipparini, F. Egidi, J. Goings, B. Peng, A. Petrone, 
 T. Henderson, D. Ranasinghe, V. G. Zakrzewski, J. Gao, N. Rega, 
 G. Zheng, W. Liang, M. Hada, M. Ehara, K. Toyota, R. Fukuda, 
 J. Hasegawa, M. Ishida, T. Nakajima, Y. Honda, O. Kitao, H. Nakai, 
 T. Vreven, K. Throssell, J. A. Montgomery, Jr., J. E. Peralta, 
 F. Ogliaro, M. J. Bearpark, J. J. Heyd, E. N. Brothers, K. N. Kudin, 
 V. N. Staroverov, T. A. Keith, R. Kobayashi, J. Normand, 
 K. Raghavachari, A. P. Rendell, J. C. Burant, S. S. Iyengar, 
 J. Tomasi, M. Cossi, J. M. Millam, M. Klene, C. Adamo, R. Cammi, 
 J. W. Ochterski, R. L. Martin, K. Morokuma, O. Farkas, 
 J. B. Foresman, and D. J. Fox, Gaussian, Inc., Wallingford CT, 2016.
 
 ******************************************
 Gaussian 16:  EM64L-G16RevA.03 25-Dec-2016
                28-Feb-2019 
 ******************************************
 ----------------------------------------------------------------------
 #p m062x/6-311+g(2df,2p) opt=(calcfc,verytight,gdiis,maxcycles=900) fr
 eq iop(7/33=1)
 ----------------------------------------------------------------------

 Warning!  Use of Opt=GDIIS is deprecated since it is seldom a good choice.

 1/6=900,7=1,10=4,18=20,19=11,26=3,38=1/1,3;
 2/9=110,12=2,17=6,18=5,40=1/2;
 3/5=4,6=6,7=214,11=2,25=1,30=1,71=2,74=-55,140=1/1,2,3;
 4//1;
 5/5=2,38=5/2;
 8/6=4,10=90,11=11/1;
 11/6=1,8=1,9=11,15=111,16=1/1,2,10;
 10/6=1,13=1/2;
 6/7=2,8=2,9=2,10=2,28=1/1;
 7/10=1,18=20,25=1,33=1/1,2,3,16;
 1/6=900,7=1,10=4,18=20,19=11,26=3/3(2);
 2/9=110/2;
 99//99;
 2/9=110/2;
 3/5=4,6=6,7=214,11=2,25=1,30=1,71=1,74=-55/1,2,3;
 4/5=5,16=3,69=1/1;
 5/5=2,38=5/2;
 7/33=1/1,2,3,16;
 1/6=900,7=1,18=20,19=11,26=3/3(-5);
 2/9=110/2;
 6/7=2,8=2,9=2,10=2,19=2,28=1/1;
 99/9=1/99;
 Leave Link    1 at Thu Feb 28 14:50:31 2019, MaxMem=           0 cpu:               0.1 elap:               1.2
 (Enter /shared/centos7/gaussian/g16/l101.exe)
 ------------------------------
 Gaussian input prepared by ASE
 ------------------------------
 Symbolic Z-matrix:
 Charge =  0 Multiplicity = 1
 O                     2.182     0.4825   -0.3119 
 O                    -2.1159    0.1599   -0.1618 
 O                    -1.0099   -0.9035    1.5062 
 N                     0.9517    0.3051    0.1731 
 C                     0.1596   -0.6786   -0.4986 
 C                    -1.134    -0.7464    0.2535 
 H                     0.705    -1.6532   -0.4059 
 H                    -0.0674   -0.4396   -1.5558 
 H                     0.456     1.1739    0.4343 
 H                     2.3873    1.4568   -0.2081 
 H                    -2.5143    0.8432    0.4701 
 
 ITRead=  0  0  0  0  0  0  0  0  0  0  0
 MicOpt= -1 -1 -1 -1 -1 -1 -1 -1 -1 -1 -1
 NAtoms=     11 NQM=       11 NQMF=       0 NMMI=      0 NMMIF=      0
                NMic=       0 NMicF=      0.
                    Isotopes and Nuclear Properties:
 (Nuclear quadrupole moments (NQMom) in fm**2, nuclear magnetic moments (NMagM)
  in nuclear magnetons)

  Atom         1           2           3           4           5           6           7           8           9          10
 IAtWgt=          16          16          16          14          12          12           1           1           1           1
 AtmWgt=  15.9949146  15.9949146  15.9949146  14.0030740  12.0000000  12.0000000   1.0078250   1.0078250   1.0078250   1.0078250
 NucSpn=           0           0           0           2           0           0           1           1           1           1
 AtZEff=  -0.0000000  -0.0000000  -0.0000000  -0.0000000  -0.0000000  -0.0000000  -0.0000000  -0.0000000  -0.0000000  -0.0000000
 NQMom=    0.0000000   0.0000000   0.0000000   2.0440000   0.0000000   0.0000000   0.0000000   0.0000000   0.0000000   0.0000000
 NMagM=    0.0000000   0.0000000   0.0000000   0.4037610   0.0000000   0.0000000   2.7928460   2.7928460   2.7928460   2.7928460
 AtZNuc=   8.0000000   8.0000000   8.0000000   7.0000000   6.0000000   6.0000000   1.0000000   1.0000000   1.0000000   1.0000000

  Atom        11
 IAtWgt=           1
 AtmWgt=   1.0078250
 NucSpn=           1
 AtZEff=  -0.0000000
 NQMom=    0.0000000
 NMagM=    2.7928460
 AtZNuc=   1.0000000
 Leave Link  101 at Thu Feb 28 14:50:31 2019, MaxMem=   104857600 cpu:               0.2 elap:               0.3
 (Enter /shared/centos7/gaussian/g16/l103.exe)

 GradGradGradGradGradGradGradGradGradGradGradGradGradGradGradGradGradGrad
 Berny optimization.
 Initialization pass.
                           ----------------------------
                           !    Initial Parameters    !
                           ! (Angstroms and Degrees)  !
 --------------------------                            --------------------------
 ! Name  Definition              Value          Derivative Info.                !
 --------------------------------------------------------------------------------
 ! R1    R(1,4)                  1.3343         calculate D2E/DX2 analytically  !
 ! R2    R(1,10)                 1.0011         calculate D2E/DX2 analytically  !
 ! R3    R(2,6)                  1.3993         calculate D2E/DX2 analytically  !
 ! R4    R(2,11)                 1.0124         calculate D2E/DX2 analytically  !
 ! R5    R(3,6)                  1.2686         calculate D2E/DX2 analytically  !
 ! R6    R(4,5)                  1.4305         calculate D2E/DX2 analytically  !
 ! R7    R(4,9)                  1.0338         calculate D2E/DX2 analytically  !
 ! R8    R(5,6)                  1.4979         calculate D2E/DX2 analytically  !
 ! R9    R(5,7)                  1.1207         calculate D2E/DX2 analytically  !
 ! R10   R(5,8)                  1.1074         calculate D2E/DX2 analytically  !
 ! A1    A(4,1,10)             106.308          calculate D2E/DX2 analytically  !
 ! A2    A(6,2,11)             121.8736         calculate D2E/DX2 analytically  !
 ! A3    A(1,4,5)              115.5515         calculate D2E/DX2 analytically  !
 ! A4    A(1,4,9)              114.9751         calculate D2E/DX2 analytically  !
 ! A5    A(5,4,9)              115.5337         calculate D2E/DX2 analytically  !
 ! A6    A(4,5,6)              105.8767         calculate D2E/DX2 analytically  !
 ! A7    A(4,5,7)              106.8407         calculate D2E/DX2 analytically  !
 ! A8    A(4,5,8)              114.4168         calculate D2E/DX2 analytically  !
 ! A9    A(6,5,7)              109.8405         calculate D2E/DX2 analytically  !
 ! A10   A(6,5,8)              108.1852         calculate D2E/DX2 analytically  !
 ! A11   A(7,5,8)              111.4951         calculate D2E/DX2 analytically  !
 ! A12   A(2,6,3)              116.2271         calculate D2E/DX2 analytically  !
 ! A13   A(2,6,5)              115.3202         calculate D2E/DX2 analytically  !
 ! A14   A(3,6,5)              114.6415         calculate D2E/DX2 analytically  !
 ! D1    D(10,1,4,5)           145.1265         calculate D2E/DX2 analytically  !
 ! D2    D(10,1,4,9)             6.5592         calculate D2E/DX2 analytically  !
 ! D3    D(11,2,6,3)            17.2227         calculate D2E/DX2 analytically  !
 ! D4    D(11,2,6,5)          -121.132          calculate D2E/DX2 analytically  !
 ! D5    D(1,4,5,6)            177.3362         calculate D2E/DX2 analytically  !
 ! D6    D(1,4,5,7)             60.2863         calculate D2E/DX2 analytically  !
 ! D7    D(1,4,5,8)            -63.6215         calculate D2E/DX2 analytically  !
 ! D8    D(9,4,5,6)            -44.3301         calculate D2E/DX2 analytically  !
 ! D9    D(9,4,5,7)           -161.38           calculate D2E/DX2 analytically  !
 ! D10   D(9,4,5,8)             74.7122         calculate D2E/DX2 analytically  !
 ! D11   D(4,5,6,2)             87.7279         calculate D2E/DX2 analytically  !
 ! D12   D(4,5,6,3)            -51.2896         calculate D2E/DX2 analytically  !
 ! D13   D(7,5,6,2)           -157.2585         calculate D2E/DX2 analytically  !
 ! D14   D(7,5,6,3)             63.7239         calculate D2E/DX2 analytically  !
 ! D15   D(8,5,6,2)            -35.3508         calculate D2E/DX2 analytically  !
 ! D16   D(8,5,6,3)           -174.3683         calculate D2E/DX2 analytically  !
 --------------------------------------------------------------------------------
 Trust Radius=3.00D-01 FncErr=1.00D-07 GrdErr=1.00D-06 EigMax=2.50D+02 EigMin=1.00D-04
 Number of steps in this run=    100 maximum allowed number of steps=    100.
 GradGradGradGradGradGradGradGradGradGradGradGradGradGradGradGradGradGrad

 Leave Link  103 at Thu Feb 28 14:50:32 2019, MaxMem=   104857600 cpu:               0.0 elap:               0.0
 (Enter /shared/centos7/gaussian/g16/l202.exe)
                          Input orientation:                          
 ---------------------------------------------------------------------
 Center     Atomic      Atomic             Coordinates (Angstroms)
 Number     Number       Type             X           Y           Z
 ---------------------------------------------------------------------
      1          8           0        2.182000    0.482500   -0.311900
      2          8           0       -2.115900    0.159900   -0.161800
      3          8           0       -1.009900   -0.903500    1.506200
      4          7           0        0.951700    0.305100    0.173100
      5          6           0        0.159600   -0.678600   -0.498600
      6          6           0       -1.134000   -0.746400    0.253500
      7          1           0        0.705000   -1.653200   -0.405900
      8          1           0       -0.067400   -0.439600   -1.555800
      9          1           0        0.456000    1.173900    0.434300
     10          1           0        2.387300    1.456800   -0.208100
     11          1           0       -2.514300    0.843200    0.470100
 ---------------------------------------------------------------------
                    Distance matrix (angstroms):
                    1          2          3          4          5
     1  O    0.000000
     2  O    4.312603   0.000000
     3  O    3.926157   2.266336   0.000000
     4  N    1.334292   3.089241   2.661906   0.000000
     5  C    2.339468   2.448350   2.331852   1.430479   0.000000
     6  C    3.581303   1.399279   1.268597   2.337148   1.497883
     7  H    2.598380   3.362201   2.675642   2.056949   1.120669
     8  H    2.730816   2.549311   3.237183   2.140616   1.107394
     9  H    2.003478   2.828109   2.759243   1.033807   2.095212
    10  H    1.001091   4.686460   4.477813   1.879541   3.099511
    11  H    4.774606   1.012383   2.527387   3.520073   3.225523
                    6          7          8          9         10
     6  C    0.000000
     7  H    2.153837   0.000000
     8  H    2.122576   1.841656   0.000000
     9  H    2.499668   2.959803   2.614924   0.000000
    10  H    4.179320   3.541378   3.382038   2.054904   0.000000
    11  H    2.116358   4.166927   3.425955   2.988867   4.986195
                   11
    11  H    0.000000
 Stoichiometry    C2H5NO3
 Framework group  C1[X(C2H5NO3)]
 Deg. of freedom    27
 Full point group                 C1      NOp   1
 Largest Abelian subgroup         C1      NOp   1
 Largest concise Abelian subgroup C1      NOp   1
                         Standard orientation:                         
 ---------------------------------------------------------------------
 Center     Atomic      Atomic             Coordinates (Angstroms)
 Number     Number       Type             X           Y           Z
 ---------------------------------------------------------------------
      1          8           0        2.426662   -0.059262   -0.101547
      2          8           0       -1.788408   -0.967089   -0.188619
      3          8           0       -1.275326    1.239417   -0.254610
      4          7           0        1.117104    0.074175   -0.319690
      5          6           0        0.277895   -0.127286    0.821104
      6          6           0       -1.120272    0.136644    0.352998
      7          1           0        0.575249    0.639489    1.582376
      8          1           0        0.314255   -1.151335    1.241014
      9          1           0        0.776904   -0.342838   -1.202368
     10          1           0        2.810725   -0.461641   -0.933875
     11          1           0       -2.146034   -0.963577   -1.135725
 ---------------------------------------------------------------------
 Rotational constants (GHZ):           7.9538818           2.1162691           1.9322090
 Leave Link  202 at Thu Feb 28 14:50:32 2019, MaxMem=   104857600 cpu:               0.0 elap:               0.0
 (Enter /shared/centos7/gaussian/g16/l301.exe)
 Standard basis: 6-311+G(2df,2p) (5D, 7F)
 Ernie: Thresh=  0.10000D-02 Tol=  0.10000D-05 Strict=F.
 There are   279 symmetry adapted cartesian basis functions of A   symmetry.
 There are   249 symmetry adapted basis functions of A   symmetry.
   249 basis functions,   367 primitive gaussians,   279 cartesian basis functions
    24 alpha electrons       24 beta electrons
       nuclear repulsion energy       244.1277865336 Hartrees.
 IExCor= 4336 DFT=T Ex+Corr=M062X ExCW=0 ScaHFX=  0.540000
 ScaDFX=  1.000000  1.000000  1.000000  1.000000 ScalE2=  1.000000  1.000000
 IRadAn=      5 IRanWt=     -1 IRanGd=            0 ICorTp=0 IEmpDi=  4
 NAtoms=   11 NActive=   11 NUniq=   11 SFac= 1.00D+00 NAtFMM=   60 NAOKFM=F Big=F
 Integral buffers will be    131072 words long.
 Raffenetti 2 integral format.
 Two-electron integral symmetry is turned on.
 Leave Link  301 at Thu Feb 28 14:50:32 2019, MaxMem=   104857600 cpu:               0.1 elap:               0.1
 (Enter /shared/centos7/gaussian/g16/l302.exe)
 NPDir=0 NMtPBC=     1 NCelOv=     1 NCel=       1 NClECP=     1 NCelD=      1
         NCelK=      1 NCelE2=     1 NClLst=     1 CellRange=     0.0.
 One-electron integrals computed using PRISM.
 One-electron integral symmetry used in STVInt
 NBasis=   249 RedAO= T EigKep=  7.03D-05  NBF=   249
 NBsUse=   249 1.00D-06 EigRej= -1.00D+00 NBFU=   249
 Precomputing XC quadrature grid using
 IXCGrd= 4 IRadAn=           5 IRanWt=          -1 IRanGd=           0 AccXCQ= 0.00D+00.
 Generated NRdTot=       0 NPtTot=           0 NUsed=           0 NTot=          32
 NSgBfM=   279   279   279   279   279 MxSgAt=    11 MxSgA2=    11.
 Leave Link  302 at Thu Feb 28 14:50:32 2019, MaxMem=   104857600 cpu:               0.5 elap:               0.5
 (Enter /shared/centos7/gaussian/g16/l303.exe)
 DipDrv:  MaxL=1.
 Leave Link  303 at Thu Feb 28 14:50:32 2019, MaxMem=   104857600 cpu:               0.1 elap:               0.1
 (Enter /shared/centos7/gaussian/g16/l401.exe)
 ExpMin= 4.38D-02 ExpMax= 8.59D+03 ExpMxC= 1.30D+03 IAcc=3 IRadAn=         5 AccDes= 0.00D+00
 Harris functional with IExCor= 1009 and IRadAn=       5 diagonalized for initial guess.
 HarFok:  IExCor= 1009 AccDes= 0.00D+00 IRadAn=         5 IDoV= 1 UseB2=F ITyADJ=14
 ICtDFT=  3500011 ScaDFX=  1.000000  1.000000  1.000000  1.000000
 FoFCou: FMM=F IPFlag=           0 FMFlag=      100000 FMFlg1=           0
         NFxFlg=           0 DoJE=T BraDBF=F KetDBF=T FulRan=T
         wScrn=  0.000000 ICntrl=       500 IOpCl=  0 I1Cent=   200000004 NGrid=           0
         NMat0=    1 NMatS0=      1 NMatT0=    0 NMatD0=    1 NMtDS0=    0 NMtDT0=    0
 Petite list used in FoFCou.
 Harris En= -359.342830449782    
 JPrj=0 DoOrth=F DoCkMO=F.
 Leave Link  401 at Thu Feb 28 14:50:40 2019, MaxMem=   104857600 cpu:               7.5 elap:               7.5
 (Enter /shared/centos7/gaussian/g16/l502.exe)
 Integral symmetry usage will be decided dynamically.
 Closed shell SCF:
 Using DIIS extrapolation, IDIIS=  1040.
 NGot=   104857600 LenX=   104697735 LenY=   104619453
 Requested convergence on RMS density matrix=1.00D-08 within 128 cycles.
 Requested convergence on MAX density matrix=1.00D-06.
 Requested convergence on             energy=1.00D-06.
 No special actions if energy rises.
 Fock matrices will be formed incrementally for  20 cycles.

 Cycle   1  Pass 1  IDiag  1:
 FoFJK:  IHMeth= 1 ICntrl=       0 DoSepK=F KAlg= 0 I1Cent=           0 FoldK=F
 IRaf= 970000000 NMat=       1 IRICut=       1 DoRegI=T DoRafI=F ISym2E= 0 IDoP0=0 IntGTp=1.
 FoFCou: FMM=F IPFlag=           0 FMFlag=      100000 FMFlg1=           0
         NFxFlg=           0 DoJE=F BraDBF=F KetDBF=F FulRan=T
         wScrn=  0.000000 ICntrl=         0 IOpCl=  0 I1Cent=           0 NGrid=           0
         NMat0=    1 NMatS0=      1 NMatT0=    0 NMatD0=    1 NMtDS0=    0 NMtDT0=    0
 Symmetry not used in FoFCou.
 E= -359.328977961201    
 DIIS: error= 1.86D-02 at cycle   1 NSaved=   1.
 NSaved= 1 IEnMin= 1 EnMin= -359.328977961201     IErMin= 1 ErrMin= 1.86D-02
 ErrMax= 1.86D-02  0.00D+00 EMaxC= 1.00D-01 BMatC= 2.87D-01 BMatP= 2.87D-01
 IDIUse=3 WtCom= 8.14D-01 WtEn= 1.86D-01
 Coeff-Com:  0.100D+01
 Coeff-En:   0.100D+01
 Coeff:      0.100D+01
 Gap=     0.173 Goal=   None    Shift=    0.000
 GapD=    0.173 DampG=1.000 DampE=0.500 DampFc=0.5000 IDamp=-1.
 Damping current iteration by 5.00D-01
 RMSDP=3.19D-03 MaxDP=8.60D-02              OVMax= 2.56D-01

 Cycle   2  Pass 1  IDiag  1:
 RMSU=  1.59D-03    CP:  9.86D-01
 E= -359.394445608718     Delta-E=       -0.065467647518 Rises=F Damp=T
 DIIS: error= 6.46D-03 at cycle   2 NSaved=   2.
 NSaved= 2 IEnMin= 2 EnMin= -359.394445608718     IErMin= 2 ErrMin= 6.46D-03
 ErrMax= 6.46D-03  0.00D+00 EMaxC= 1.00D-01 BMatC= 3.36D-02 BMatP= 2.87D-01
 IDIUse=3 WtCom= 9.35D-01 WtEn= 6.46D-02
 Coeff-Com:  0.850D-01 0.915D+00
 Coeff-En:   0.222D+00 0.778D+00
 Coeff:      0.938D-01 0.906D+00
 Gap=     0.235 Goal=   None    Shift=    0.000
 RMSDP=9.19D-04 MaxDP=3.08D-02 DE=-6.55D-02 OVMax= 1.43D-01

 Cycle   3  Pass 1  IDiag  1:
 RMSU=  9.04D-04    CP:  9.80D-01  9.08D-01
 E= -359.486906374320     Delta-E=       -0.092460765602 Rises=F Damp=F
 DIIS: error= 7.16D-03 at cycle   3 NSaved=   3.
 NSaved= 3 IEnMin= 3 EnMin= -359.486906374320     IErMin= 2 ErrMin= 6.46D-03
 ErrMax= 7.16D-03  0.00D+00 EMaxC= 1.00D-01 BMatC= 2.36D-02 BMatP= 3.36D-02
 IDIUse=3 WtCom= 9.28D-01 WtEn= 7.16D-02
 Coeff-Com: -0.506D-01 0.459D+00 0.592D+00
 Coeff-En:   0.000D+00 0.000D+00 0.100D+01
 Coeff:     -0.470D-01 0.426D+00 0.621D+00
 Gap=     0.230 Goal=   None    Shift=    0.000
 RMSDP=5.53D-04 MaxDP=1.77D-02 DE=-9.25D-02 OVMax= 7.48D-02

 Cycle   4  Pass 1  IDiag  1:
 RMSU=  4.80D-04    CP:  9.76D-01  9.69D-01  7.20D-01
 E= -359.501045778266     Delta-E=       -0.014139403945 Rises=F Damp=F
 DIIS: error= 3.04D-03 at cycle   4 NSaved=   4.
 NSaved= 4 IEnMin= 4 EnMin= -359.501045778266     IErMin= 4 ErrMin= 3.04D-03
 ErrMax= 3.04D-03  0.00D+00 EMaxC= 1.00D-01 BMatC= 5.55D-03 BMatP= 2.36D-02
 IDIUse=3 WtCom= 9.70D-01 WtEn= 3.04D-02
 Coeff-Com: -0.347D-01 0.970D-01 0.362D+00 0.575D+00
 Coeff-En:   0.000D+00 0.000D+00 0.190D+00 0.810D+00
 Coeff:     -0.336D-01 0.940D-01 0.357D+00 0.583D+00
 Gap=     0.228 Goal=   None    Shift=    0.000
 RMSDP=1.96D-04 MaxDP=7.84D-03 DE=-1.41D-02 OVMax= 2.00D-02

 Cycle   5  Pass 1  IDiag  1:
 RMSU=  8.59D-05    CP:  9.76D-01  9.59D-01  8.28D-01  6.97D-01
 E= -359.504863553624     Delta-E=       -0.003817775359 Rises=F Damp=F
 DIIS: error= 5.25D-04 at cycle   5 NSaved=   5.
 NSaved= 5 IEnMin= 5 EnMin= -359.504863553624     IErMin= 5 ErrMin= 5.25D-04
 ErrMax= 5.25D-04  0.00D+00 EMaxC= 1.00D-01 BMatC= 1.28D-04 BMatP= 5.55D-03
 IDIUse=3 WtCom= 9.95D-01 WtEn= 5.25D-03
 Coeff-Com: -0.104D-01 0.176D-01 0.126D+00 0.248D+00 0.619D+00
 Coeff-En:   0.000D+00 0.000D+00 0.000D+00 0.000D+00 0.100D+01
 Coeff:     -0.103D-01 0.175D-01 0.125D+00 0.247D+00 0.621D+00
 Gap=     0.230 Goal=   None    Shift=    0.000
 RMSDP=3.72D-05 MaxDP=1.45D-03 DE=-3.82D-03 OVMax= 3.82D-03

 Cycle   6  Pass 1  IDiag  1:
 RMSU=  3.14D-05    CP:  9.76D-01  9.61D-01  8.29D-01  7.17D-01  7.99D-01
 E= -359.504965724070     Delta-E=       -0.000102170445 Rises=F Damp=F
 DIIS: error= 1.35D-04 at cycle   6 NSaved=   6.
 NSaved= 6 IEnMin= 6 EnMin= -359.504965724070     IErMin= 6 ErrMin= 1.35D-04
 ErrMax= 1.35D-04  0.00D+00 EMaxC= 1.00D-01 BMatC= 1.05D-05 BMatP= 1.28D-04
 IDIUse=3 WtCom= 9.99D-01 WtEn= 1.35D-03
 Coeff-Com:  0.675D-03-0.512D-02 0.599D-02 0.165D-01 0.215D+00 0.767D+00
 Coeff-En:   0.000D+00 0.000D+00 0.000D+00 0.000D+00 0.000D+00 0.100D+01
 Coeff:      0.674D-03-0.512D-02 0.598D-02 0.165D-01 0.214D+00 0.768D+00
 Gap=     0.231 Goal=   None    Shift=    0.000
 RMSDP=1.73D-05 MaxDP=5.03D-04 DE=-1.02D-04 OVMax= 1.12D-03

 Cycle   7  Pass 1  IDiag  1:
 RMSU=  1.21D-05    CP:  9.76D-01  9.58D-01  8.36D-01  7.19D-01  9.05D-01
                    CP:  1.07D+00
 E= -359.504976521354     Delta-E=       -0.000010797284 Rises=F Damp=F
 DIIS: error= 4.15D-05 at cycle   7 NSaved=   7.
 NSaved= 7 IEnMin= 7 EnMin= -359.504976521354     IErMin= 7 ErrMin= 4.15D-05
 ErrMax= 4.15D-05  0.00D+00 EMaxC= 1.00D-01 BMatC= 1.05D-06 BMatP= 1.05D-05
 IDIUse=1 WtCom= 1.00D+00 WtEn= 0.00D+00
 Coeff-Com:  0.174D-02-0.382D-02-0.117D-01-0.272D-01-0.219D-01 0.136D+00
 Coeff-Com:  0.927D+00
 Coeff:      0.174D-02-0.382D-02-0.117D-01-0.272D-01-0.219D-01 0.136D+00
 Coeff:      0.927D+00
 Gap=     0.230 Goal=   None    Shift=    0.000
 RMSDP=7.87D-06 MaxDP=2.55D-04 DE=-1.08D-05 OVMax= 5.90D-04

 Cycle   8  Pass 1  IDiag  1:
 RMSU=  4.41D-06    CP:  9.76D-01  9.56D-01  8.38D-01  7.18D-01  9.45D-01
                    CP:  1.21D+00  1.15D+00
 E= -359.504977964726     Delta-E=       -0.000001443372 Rises=F Damp=F
 DIIS: error= 2.49D-05 at cycle   8 NSaved=   8.
 NSaved= 8 IEnMin= 8 EnMin= -359.504977964726     IErMin= 8 ErrMin= 2.49D-05
 ErrMax= 2.49D-05  0.00D+00 EMaxC= 1.00D-01 BMatC= 2.29D-07 BMatP= 1.05D-06
 IDIUse=1 WtCom= 1.00D+00 WtEn= 0.00D+00
 Coeff-Com:  0.713D-03-0.119D-02-0.481D-02-0.132D-01-0.312D-01-0.305D-01
 Coeff-Com:  0.389D+00 0.692D+00
 Coeff:      0.713D-03-0.119D-02-0.481D-02-0.132D-01-0.312D-01-0.305D-01
 Coeff:      0.389D+00 0.692D+00
 Gap=     0.230 Goal=   None    Shift=    0.000
 RMSDP=2.78D-06 MaxDP=7.39D-05 DE=-1.44D-06 OVMax= 2.20D-04

 Cycle   9  Pass 1  IDiag  1:
 RMSU=  1.53D-06    CP:  9.76D-01  9.55D-01  8.38D-01  7.18D-01  9.54D-01
                    CP:  1.23D+00  1.27D+00  1.05D+00
 E= -359.504978219497     Delta-E=       -0.000000254771 Rises=F Damp=F
 DIIS: error= 4.90D-06 at cycle   9 NSaved=   9.
 NSaved= 9 IEnMin= 9 EnMin= -359.504978219497     IErMin= 9 ErrMin= 4.90D-06
 ErrMax= 4.90D-06  0.00D+00 EMaxC= 1.00D-01 BMatC= 1.82D-08 BMatP= 2.29D-07
 IDIUse=1 WtCom= 1.00D+00 WtEn= 0.00D+00
 Coeff-Com: -0.681D-04 0.198D-03 0.878D-03 0.965D-03-0.278D-02-0.254D-01
 Coeff-Com: -0.617D-01 0.138D+00 0.950D+00
 Coeff:     -0.681D-04 0.198D-03 0.878D-03 0.965D-03-0.278D-02-0.254D-01
 Coeff:     -0.617D-01 0.138D+00 0.950D+00
 Gap=     0.230 Goal=   None    Shift=    0.000
 RMSDP=1.35D-06 MaxDP=4.46D-05 DE=-2.55D-07 OVMax= 9.40D-05

 Cycle  10  Pass 1  IDiag  1:
 RMSU=  5.62D-07    CP:  9.76D-01  9.55D-01  8.39D-01  7.17D-01  9.57D-01
                    CP:  1.25D+00  1.32D+00  1.21D+00  1.15D+00
 E= -359.504978247219     Delta-E=       -0.000000027722 Rises=F Damp=F
 DIIS: error= 1.46D-06 at cycle  10 NSaved=  10.
 NSaved=10 IEnMin=10 EnMin= -359.504978247219     IErMin=10 ErrMin= 1.46D-06
 ErrMax= 1.46D-06  0.00D+00 EMaxC= 1.00D-01 BMatC= 1.89D-09 BMatP= 1.82D-08
 IDIUse=1 WtCom= 1.00D+00 WtEn= 0.00D+00
 Coeff-Com: -0.872D-04 0.177D-03 0.793D-03 0.153D-02 0.221D-02-0.526D-02
 Coeff-Com: -0.587D-01-0.150D-01 0.343D+00 0.731D+00
 Coeff:     -0.872D-04 0.177D-03 0.793D-03 0.153D-02 0.221D-02-0.526D-02
 Coeff:     -0.587D-01-0.150D-01 0.343D+00 0.731D+00
 Gap=     0.230 Goal=   None    Shift=    0.000
 RMSDP=3.15D-07 MaxDP=9.46D-06 DE=-2.77D-08 OVMax= 2.17D-05

 Cycle  11  Pass 1  IDiag  1:
 RMSU=  1.24D-07    CP:  9.76D-01  9.55D-01  8.39D-01  7.17D-01  9.58D-01
                    CP:  1.25D+00  1.33D+00  1.26D+00  1.26D+00  1.02D+00
 E= -359.504978249496     Delta-E=       -0.000000002277 Rises=F Damp=F
 DIIS: error= 3.85D-07 at cycle  11 NSaved=  11.
 NSaved=11 IEnMin=11 EnMin= -359.504978249496     IErMin=11 ErrMin= 3.85D-07
 ErrMax= 3.85D-07  0.00D+00 EMaxC= 1.00D-01 BMatC= 9.94D-11 BMatP= 1.89D-09
 IDIUse=1 WtCom= 1.00D+00 WtEn= 0.00D+00
 Coeff-Com: -0.144D-04 0.230D-04 0.121D-03 0.288D-03 0.915D-03 0.109D-02
 Coeff-Com: -0.999D-02-0.166D-01-0.412D-02 0.147D+00 0.881D+00
 Coeff:     -0.144D-04 0.230D-04 0.121D-03 0.288D-03 0.915D-03 0.109D-02
 Coeff:     -0.999D-02-0.166D-01-0.412D-02 0.147D+00 0.881D+00
 Gap=     0.230 Goal=   None    Shift=    0.000
 RMSDP=1.11D-07 MaxDP=3.35D-06 DE=-2.28D-09 OVMax= 9.23D-06

 Cycle  12  Pass 1  IDiag  1:
 RMSU=  4.16D-08    CP:  9.76D-01  9.55D-01  8.39D-01  7.17D-01  9.58D-01
                    CP:  1.25D+00  1.33D+00  1.27D+00  1.29D+00  1.11D+00
                    CP:  1.14D+00
 E= -359.504978249688     Delta-E=       -0.000000000192 Rises=F Damp=F
 DIIS: error= 1.04D-07 at cycle  12 NSaved=  12.
 NSaved=12 IEnMin=12 EnMin= -359.504978249688     IErMin=12 ErrMin= 1.04D-07
 ErrMax= 1.04D-07  0.00D+00 EMaxC= 1.00D-01 BMatC= 7.24D-12 BMatP= 9.94D-11
 IDIUse=1 WtCom= 1.00D+00 WtEn= 0.00D+00
 Coeff-Com:  0.466D-05-0.964D-05-0.431D-04-0.777D-04-0.230D-04 0.392D-03
 Coeff-Com:  0.289D-02-0.310D-04-0.263D-01-0.485D-01 0.135D+00 0.937D+00
 Coeff:      0.466D-05-0.964D-05-0.431D-04-0.777D-04-0.230D-04 0.392D-03
 Coeff:      0.289D-02-0.310D-04-0.263D-01-0.485D-01 0.135D+00 0.937D+00
 Gap=     0.230 Goal=   None    Shift=    0.000
 RMSDP=4.06D-08 MaxDP=1.40D-06 DE=-1.92D-10 OVMax= 3.74D-06

 Cycle  13  Pass 1  IDiag  1:
 RMSU=  1.62D-08    CP:  9.76D-01  9.55D-01  8.39D-01  7.17D-01  9.59D-01
                    CP:  1.25D+00  1.33D+00  1.27D+00  1.29D+00  1.14D+00
                    CP:  1.26D+00  1.16D+00
 E= -359.504978249696     Delta-E=       -0.000000000008 Rises=F Damp=F
 DIIS: error= 3.52D-08 at cycle  13 NSaved=  13.
 NSaved=13 IEnMin=13 EnMin= -359.504978249696     IErMin=13 ErrMin= 3.52D-08
 ErrMax= 3.52D-08  0.00D+00 EMaxC= 1.00D-01 BMatC= 6.48D-13 BMatP= 7.24D-12
 IDIUse=1 WtCom= 1.00D+00 WtEn= 0.00D+00
 Coeff-Com:  0.118D-05-0.220D-05-0.122D-04-0.236D-04-0.450D-04-0.424D-04
 Coeff-Com:  0.968D-03 0.137D-02-0.278D-02-0.180D-01-0.496D-01 0.112D+00
 Coeff-Com:  0.956D+00
 Coeff:      0.118D-05-0.220D-05-0.122D-04-0.236D-04-0.450D-04-0.424D-04
 Coeff:      0.968D-03 0.137D-02-0.278D-02-0.180D-01-0.496D-01 0.112D+00
 Coeff:      0.956D+00
 Gap=     0.230 Goal=   None    Shift=    0.000
 RMSDP=1.19D-08 MaxDP=4.06D-07 DE=-7.84D-12 OVMax= 1.31D-06

 Cycle  14  Pass 1  IDiag  1:
 RMSU=  4.25D-09    CP:  9.76D-01  9.55D-01  8.39D-01  7.17D-01  9.59D-01
                    CP:  1.25D+00  1.33D+00  1.27D+00  1.30D+00  1.15D+00
                    CP:  1.29D+00  1.28D+00  1.27D+00
 E= -359.504978249706     Delta-E=       -0.000000000011 Rises=F Damp=F
 DIIS: error= 1.40D-08 at cycle  14 NSaved=  14.
 NSaved=14 IEnMin=14 EnMin= -359.504978249706     IErMin=14 ErrMin= 1.40D-08
 ErrMax= 1.40D-08  0.00D+00 EMaxC= 1.00D-01 BMatC= 9.52D-14 BMatP= 6.48D-13
 IDIUse=1 WtCom= 1.00D+00 WtEn= 0.00D+00
 Coeff-Com: -0.307D-06 0.647D-06 0.125D-05 0.336D-05-0.564D-05-0.488D-04
 Coeff-Com: -0.112D-03 0.328D-03 0.213D-02 0.147D-02-0.224D-01-0.608D-01
 Coeff-Com:  0.120D+00 0.959D+00
 Coeff:     -0.307D-06 0.647D-06 0.125D-05 0.336D-05-0.564D-05-0.488D-04
 Coeff:     -0.112D-03 0.328D-03 0.213D-02 0.147D-02-0.224D-01-0.608D-01
 Coeff:      0.120D+00 0.959D+00
 Gap=     0.230 Goal=   None    Shift=    0.000
 RMSDP=5.28D-09 MaxDP=2.06D-07 DE=-1.07D-11 OVMax= 5.27D-07

 SCF Done:  E(RM062X) =  -359.504978250     A.U. after   14 cycles
            NFock= 14  Conv=0.53D-08     -V/T= 2.0040
 KE= 3.580557639468D+02 PE=-1.333501762246D+03 EE= 3.718132335155D+02
 Leave Link  502 at Thu Feb 28 14:57:37 2019, MaxMem=   104857600 cpu:             417.4 elap:             417.6
 (Enter /shared/centos7/gaussian/g16/l801.exe)
 DoSCS=F DFT=T ScalE2(SS,OS)=  1.000000  1.000000
 Range of M.O.s used for correlation:     1   249
 NBasis=   249 NAE=    24 NBE=    24 NFC=     0 NFV=     0
 NROrb=    249 NOA=    24 NOB=    24 NVA=   225 NVB=   225

 **** Warning!!: The largest alpha MO coefficient is  0.33933331D+02

 Leave Link  801 at Thu Feb 28 14:57:37 2019, MaxMem=   104857600 cpu:               0.0 elap:               0.0
 (Enter /shared/centos7/gaussian/g16/l1101.exe)
 Using compressed storage, NAtomX=    11.
 Will process     12 centers per pass.
 Leave Link 1101 at Thu Feb 28 14:57:38 2019, MaxMem=   104857600 cpu:               0.4 elap:               0.4
 (Enter /shared/centos7/gaussian/g16/l1102.exe)
 Symmetrizing basis deriv contribution to polar:
 IMax=3 JMax=2 DiffMx= 0.00D+00
 Leave Link 1102 at Thu Feb 28 14:57:38 2019, MaxMem=   104857600 cpu:               0.1 elap:               0.1
 (Enter /shared/centos7/gaussian/g16/l1110.exe)
 Forming Gx(P) for the SCF density, NAtomX=    11.
 Integral derivatives from FoFJK, PRISM(SPDF).
 Do as many integral derivatives as possible in FoFJK.
 G2DrvN: MDV=     104856672.
 G2DrvN: will do    12 centers at a time, making    1 passes.
 Calling FoFCou, ICntrl=  3107 FMM=F I1Cent=   0 AccDes= 0.00D+00.
 FoFJK:  IHMeth= 1 ICntrl=    3107 DoSepK=F KAlg= 0 I1Cent=           0 FoldK=F
 IRaf=         0 NMat=       1 IRICut=       1 DoRegI=T DoRafI=F ISym2E= 0 IDoP0=0 IntGTp=1.
 FoFCou: FMM=F IPFlag=           0 FMFlag=      100000 FMFlg1=           0
         NFxFlg=           0 DoJE=F BraDBF=F KetDBF=F FulRan=T
         wScrn=  0.000000 ICntrl=      3107 IOpCl=  0 I1Cent=           0 NGrid=           0
         NMat0=    1 NMatS0=      1 NMatT0=    0 NMatD0=    1 NMtDS0=    0 NMtDT0=    0
 Symmetry not used in FoFCou.
 End of G2Drv F.D. properties file   721 does not exist.
 End of G2Drv F.D. properties file   722 does not exist.
 End of G2Drv F.D. properties file   788 does not exist.
 Leave Link 1110 at Thu Feb 28 15:08:45 2019, MaxMem=   104857600 cpu:             667.0 elap:             667.1
 (Enter /shared/centos7/gaussian/g16/l1002.exe)
 Minotr:  Closed shell wavefunction.
          IDoAtm=11111111111
          Direct CPHF calculation.
          Differentiating once with respect to nuclear coordinates.
          Requested convergence is 1.0D-08 RMS, and 1.0D-07 maximum.
          Secondary convergence is 1.0D-12 RMS, and 1.0D-12 maximum.
          NewPWx=T KeepS1=F KeepF1=F KeepIn=T MapXYZ=F SortEE=F KeepMc=T.
         3349 words used for storage of precomputed grid.
 Two-electron integrals replicated using symmetry.
          MDV=     104857600 using IRadAn=       1.
          Solving linear equations simultaneously, MaxMat=     384.
 FoF2E skips out because all densities are zero.
 CalDSu exits because no D1Ps are significant.
 FoFJK:  IHMeth= 1 ICntrl=       0 DoSepK=F KAlg= 0 I1Cent=           0 FoldK=F
 IRaf= 960000000 NMat=      33 IRICut=      82 DoRegI=T DoRafI=T ISym2E= 2 IDoP0=3 IntGTp=3.
 FoFCou: FMM=F IPFlag=           0 FMFlag=      100000 FMFlg1=           0
         NFxFlg=           0 DoJE=F BraDBF=F KetDBF=F FulRan=T
         wScrn=  0.000000 ICntrl=         0 IOpCl=  0 I1Cent=           0 NGrid=           0
         NMat0=   33 NMatS0=     33 NMatT0=    0 NMatD0=   33 NMtDS0=    0 NMtDT0=    0
 Integrals replicated using symmetry in FoFCou.
 Raff kept on since  94.59% of shell-pairs survive, threshold=   0.20 IRatSp=95.
          There are    36 degrees of freedom in the 1st order CPHF.  IDoFFX=6 NUNeed=     0.
     30 vectors produced by pass  0 Test12= 1.50D-14 2.78D-09 XBig12= 6.51D-02 7.46D-02.
 AX will form    30 AO Fock derivatives at one time.
     30 vectors produced by pass  1 Test12= 1.50D-14 2.78D-09 XBig12= 7.03D-03 3.26D-02.
     30 vectors produced by pass  2 Test12= 1.50D-14 2.78D-09 XBig12= 3.04D-04 2.35D-03.
     30 vectors produced by pass  3 Test12= 1.50D-14 2.78D-09 XBig12= 4.51D-06 2.69D-04.
     30 vectors produced by pass  4 Test12= 1.50D-14 2.78D-09 XBig12= 4.02D-08 2.79D-05.
     30 vectors produced by pass  5 Test12= 1.50D-14 2.78D-09 XBig12= 2.64D-10 1.83D-06.
     28 vectors produced by pass  6 Test12= 1.50D-14 2.78D-09 XBig12= 1.58D-12 1.52D-07.
     11 vectors produced by pass  7 Test12= 1.50D-14 2.78D-09 XBig12= 7.19D-15 1.05D-08.
 InvSVY:  IOpt=1 It=  1 EMax= 1.89D-15
 Solved reduced A of dimension   219 with    30 vectors.
 End of Minotr F.D. properties file   721 does not exist.
 End of Minotr F.D. properties file   722 does not exist.
 End of Minotr F.D. properties file   788 does not exist.
 Leave Link 1002 at Thu Feb 28 15:25:05 2019, MaxMem=   104857600 cpu:             979.8 elap:             980.0
 (Enter /shared/centos7/gaussian/g16/l601.exe)
 Copying SCF densities to generalized density rwf, IOpCl= 0 IROHF=0.

 **********************************************************************

            Population analysis using the SCF density.

 **********************************************************************

 Orbital symmetries:
       Occupied  (A) (A) (A) (A) (A) (A) (A) (A) (A) (A) (A) (A)
                 (A) (A) (A) (A) (A) (A) (A) (A) (A) (A) (A) (A)
       Virtual   (A) (A) (A) (A) (A) (A) (A) (A) (A) (A) (A) (A)
                 (A) (A) (A) (A) (A) (A) (A) (A) (A) (A) (A) (A)
                 (A) (A) (A) (A) (A) (A) (A) (A) (A) (A) (A) (A)
                 (A) (A) (A) (A) (A) (A) (A) (A) (A) (A) (A) (A)
                 (A) (A) (A) (A) (A) (A) (A) (A) (A) (A) (A) (A)
                 (A) (A) (A) (A) (A) (A) (A) (A) (A) (A) (A) (A)
                 (A) (A) (A) (A) (A) (A) (A) (A) (A) (A) (A) (A)
                 (A) (A) (A) (A) (A) (A) (A) (A) (A) (A) (A) (A)
                 (A) (A) (A) (A) (A) (A) (A) (A) (A) (A) (A) (A)
                 (A) (A) (A) (A) (A) (A) (A) (A) (A) (A) (A) (A)
                 (A) (A) (A) (A) (A) (A) (A) (A) (A) (A) (A) (A)
                 (A) (A) (A) (A) (A) (A) (A) (A) (A) (A) (A) (A)
                 (A) (A) (A) (A) (A) (A) (A) (A) (A) (A) (A) (A)
                 (A) (A) (A) (A) (A) (A) (A) (A) (A) (A) (A) (A)
                 (A) (A) (A) (A) (A) (A) (A) (A) (A) (A) (A) (A)
                 (A) (A) (A) (A) (A) (A) (A) (A) (A) (A) (A) (A)
                 (A) (A) (A) (A) (A) (A) (A) (A) (A) (A) (A) (A)
                 (A) (A) (A) (A) (A) (A) (A) (A) (A) (A) (A) (A)
                 (A) (A) (A) (A) (A) (A) (A) (A) (A)
 The electronic state is 1-A.
 Alpha  occ. eigenvalues --  -19.67284 -19.66860 -19.63310 -14.79102 -10.70044
 Alpha  occ. eigenvalues --  -10.59836  -1.23479  -1.21015  -1.11935  -0.96067
 Alpha  occ. eigenvalues --   -0.80380  -0.70981  -0.66736  -0.58997  -0.57416
 Alpha  occ. eigenvalues --   -0.54746  -0.53258  -0.50742  -0.47177  -0.44597
 Alpha  occ. eigenvalues --   -0.43898  -0.39700  -0.36050  -0.26953
 Alpha virt. eigenvalues --   -0.03909   0.00526   0.02631   0.03336   0.05058
 Alpha virt. eigenvalues --    0.06497   0.07461   0.08336   0.08904   0.11636
 Alpha virt. eigenvalues --    0.13103   0.13688   0.16923   0.18084   0.18846
 Alpha virt. eigenvalues --    0.20883   0.21081   0.22473   0.23053   0.23660
 Alpha virt. eigenvalues --    0.25125   0.25824   0.27397   0.28413   0.29045
 Alpha virt. eigenvalues --    0.29383   0.30162   0.30866   0.30984   0.32378
 Alpha virt. eigenvalues --    0.35816   0.36929   0.38486   0.39563   0.44167
 Alpha virt. eigenvalues --    0.49271   0.50360   0.52849   0.53866   0.55628
 Alpha virt. eigenvalues --    0.56729   0.59610   0.60171   0.63196   0.63800
 Alpha virt. eigenvalues --    0.67070   0.69262   0.69376   0.73706   0.74087
 Alpha virt. eigenvalues --    0.76744   0.77183   0.81444   0.84861   0.86113
 Alpha virt. eigenvalues --    0.89897   0.94105   0.96980   0.97752   0.98719
 Alpha virt. eigenvalues --    1.03158   1.04340   1.07119   1.08982   1.10773
 Alpha virt. eigenvalues --    1.10992   1.12795   1.14992   1.16664   1.17554
 Alpha virt. eigenvalues --    1.20939   1.21560   1.21767   1.24997   1.26041
 Alpha virt. eigenvalues --    1.28203   1.31369   1.33217   1.35187   1.38526
 Alpha virt. eigenvalues --    1.39720   1.42050   1.48754   1.49240   1.51707
 Alpha virt. eigenvalues --    1.53684   1.59102   1.60723   1.64684   1.67657
 Alpha virt. eigenvalues --    1.68326   1.75015   1.76307   1.79286   1.85181
 Alpha virt. eigenvalues --    1.86139   1.88994   1.95645   2.00562   2.04354
 Alpha virt. eigenvalues --    2.09459   2.17767   2.20303   2.24889   2.27768
 Alpha virt. eigenvalues --    2.30161   2.39649   2.44758   2.48335   2.57315
 Alpha virt. eigenvalues --    2.61157   2.62588   2.73640   2.77595   2.81686
 Alpha virt. eigenvalues --    2.86577   2.92658   2.96275   3.01383   3.06324
 Alpha virt. eigenvalues --    3.12420   3.16405   3.18946   3.22891   3.26018
 Alpha virt. eigenvalues --    3.29472   3.29721   3.38157   3.42210   3.46742
 Alpha virt. eigenvalues --    3.49323   3.49876   3.53188   3.54007   3.55658
 Alpha virt. eigenvalues --    3.56828   3.61973   3.65909   3.68425   3.70300
 Alpha virt. eigenvalues --    3.73870   3.79880   3.83712   3.85480   3.89581
 Alpha virt. eigenvalues --    3.92659   3.98209   3.99395   4.03137   4.07082
 Alpha virt. eigenvalues --    4.09098   4.10602   4.14476   4.15751   4.19856
 Alpha virt. eigenvalues --    4.22026   4.28516   4.31957   4.41504   4.41858
 Alpha virt. eigenvalues --    4.55253   4.59440   4.63330   4.80489   4.82818
 Alpha virt. eigenvalues --    4.87929   5.02044   5.06118   5.07781   5.08337
 Alpha virt. eigenvalues --    5.10020   5.14600   5.15430   5.18510   5.19477
 Alpha virt. eigenvalues --    5.19830   5.24128   5.26587   5.30685   5.31217
 Alpha virt. eigenvalues --    5.34118   5.34821   5.38753   5.41069   5.44703
 Alpha virt. eigenvalues --    5.45764   5.51103   5.54261   5.57973   5.64541
 Alpha virt. eigenvalues --    5.70699   5.77678   5.84297   5.90340   6.07354
 Alpha virt. eigenvalues --    6.14053   6.21396   6.26476   6.38924   6.47478
 Alpha virt. eigenvalues --    6.81354   6.83434   6.85787   6.89710   6.91226
 Alpha virt. eigenvalues --    6.91941   6.99833   7.02923   7.13596   7.14937
 Alpha virt. eigenvalues --    7.18788   7.23881   7.28925   7.38647   7.52647
 Alpha virt. eigenvalues --    7.55998   7.62203   7.65476   7.73216  24.38452
 Alpha virt. eigenvalues --   24.64596  35.84266  50.05483  50.11929  50.18424
          Condensed to atoms (all electrons):
               1          2          3          4          5          6
     1  O    7.971004  -0.003765  -0.001708   0.043676  -0.085059   0.057061
     2  O   -0.003765   8.050583  -0.063799   0.015901  -0.090460   0.218571
     3  O   -0.001708  -0.063799   8.072044  -0.007308  -0.069913   0.406556
     4  N    0.043676   0.015901  -0.007308   6.857121   0.163823  -0.057045
     5  C   -0.085059  -0.090460  -0.069913   0.163823   5.483852  -0.108660
     6  C    0.057061   0.218571   0.406556  -0.057045  -0.108660   5.324964
     7  H   -0.002975   0.006784  -0.011704  -0.042369   0.427228  -0.015564
     8  H    0.016059  -0.005536   0.010402  -0.089577   0.502868  -0.085177
     9  H   -0.030686   0.004136  -0.005150   0.391452  -0.081562   0.043398
    10  H    0.223818   0.000078   0.000864   0.008650   0.012026  -0.013262
    11  H    0.000719   0.250121   0.004999  -0.004406   0.020717  -0.034151
               7          8          9         10         11
     1  O   -0.002975   0.016059  -0.030686   0.223818   0.000719
     2  O    0.006784  -0.005536   0.004136   0.000078   0.250121
     3  O   -0.011704   0.010402  -0.005150   0.000864   0.004999
     4  N   -0.042369  -0.089577   0.391452   0.008650  -0.004406
     5  C    0.427228   0.502868  -0.081562   0.012026   0.020717
     6  C   -0.015564  -0.085177   0.043398  -0.013262  -0.034151
     7  H    0.497972  -0.033030   0.004505  -0.000600  -0.000497
     8  H   -0.033030   0.528708  -0.001162   0.001801   0.001325
     9  H    0.004505  -0.001162   0.518131  -0.020207  -0.001423
    10  H   -0.000600   0.001801  -0.020207   0.511780   0.000038
    11  H   -0.000497   0.001325  -0.001423   0.000038   0.442205
 Mulliken charges:
               1
     1  O   -0.188142
     2  O   -0.382614
     3  O   -0.335281
     4  N   -0.279920
     5  C   -0.174860
     6  C    0.263309
     7  H    0.170250
     8  H    0.153319
     9  H    0.178569
    10  H    0.275015
    11  H    0.320355
 Sum of Mulliken charges =  -0.00000
 Mulliken charges with hydrogens summed into heavy atoms:
               1
     1  O    0.086873
     2  O   -0.062260
     3  O   -0.335281
     4  N   -0.101350
     5  C    0.148710
     6  C    0.263309
 APT charges:
               1
     1  O   -0.867442
     2  O   -0.722255
     3  O   -0.396320
     4  N   -0.100275
     5  C   -0.805233
     6  C    0.440643
     7  H    0.418377
     8  H    0.354940
     9  H    0.335545
    10  H    0.666539
    11  H    0.675482
 Sum of APT charges =  -0.00000
 APT charges with hydrogens summed into heavy atoms:
               1
     1  O   -0.200903
     2  O   -0.046773
     3  O   -0.396320
     4  N    0.235269
     5  C   -0.031916
     6  C    0.440643
 Electronic spatial extent (au):  <R**2>=            623.7816
 Charge=             -0.0000 electrons
 Dipole moment (field-independent basis, Debye):
    X=              0.5329    Y=             -3.0360    Z=             -1.7171  Tot=              3.5284
 Quadrupole moment (field-independent basis, Debye-Ang):
   XX=            -35.0267   YY=            -40.3586   ZZ=            -28.4309
   XY=             -0.0009   XZ=             -2.2000   YZ=              4.6562
 Traceless Quadrupole moment (field-independent basis, Debye-Ang):
   XX=             -0.4213   YY=             -5.7532   ZZ=              6.1745
   XY=             -0.0009   XZ=             -2.2000   YZ=              4.6562
 Octapole moment (field-independent basis, Debye-Ang**2):
  XXX=              4.5938  YYY=             -4.3304  ZZZ=            -10.1177  XYY=              5.5728
  XXY=            -11.0927  XXZ=            -21.6991  XZZ=              0.3723  YZZ=             -4.3355
  YYZ=             -1.7571  XYZ=             -1.4342
 Hexadecapole moment (field-independent basis, Debye-Ang**3):
 XXXX=           -483.2419 YYYY=           -141.2736 ZZZZ=            -82.4157 XXXY=             -8.1242
 XXXZ=            -22.2649 YYYX=              3.2191 YYYZ=              4.9466 ZZZX=              0.3995
 ZZZY=              9.4979 XXYY=           -115.2359 XXZZ=            -73.9080 YYZZ=            -33.4862
 XXYZ=             21.6502 YYXZ=              3.1904 ZZXY=              4.3910
 N-N= 2.441277865336D+02 E-N=-1.333501762231D+03  KE= 3.580557639468D+02
  Exact polarizability:   0.000   0.000   0.000   0.000   0.000   0.000
 Approx polarizability:  53.900   2.146  58.668   1.114  -2.949  54.540
 No NMR shielding tensors so no spin-rotation constants.
 Leave Link  601 at Thu Feb 28 15:25:05 2019, MaxMem=   104857600 cpu:               0.4 elap:               0.4
 (Enter /shared/centos7/gaussian/g16/l701.exe)
 SCFChk:  SCF convergence  5.28D-09 required  1.00D-08
 ... and contract with generalized density number  0.
 Compute integral second derivatives.
 Entering OneElI...
 Calculate overlap and kinetic energy integrals
    NBasis = 279  MinDer = 2  MaxDer = 2
 Requested accuracy = 0.1000D-12
 PrmmSu-InSpLW:  IPartL=    0 NPrtUS=    1 NPrtUL=    1 DoSpLW=F IThBeg=    0 IThEnd=    0 NThAct=    1.
 PrsmSu:  NPrtUS=   1 ThrOK=F IAlg=1 NPAlg=1 LenDen=           0 ISkipM=0 DoSpLW=F IThBeg=    0 IThEnd=    0.
 Prism:   IPart=     0 DynPar=F LinDyn=F Incr=          26.
 PRISM was handed   104362550 working-precision words and  2680 shell-pairs
 IPart=  0 NShTot=        2680 NBatch=         181 AvBLen=        14.8
 PrSmSu:  NxtVal=             27.
 Entering OneElI...
 Calculate potential energy integrals
    NBasis = 279  MinDer = 2  MaxDer = 2
 Requested accuracy = 0.1000D-12
 PrmmSu-InSpLW:  IPartL=    0 NPrtUS=    1 NPrtUL=    1 DoSpLW=F IThBeg=    0 IThEnd=    0 NThAct=    1.
 PrsmSu:  NPrtUS=   1 ThrOK=F IAlg=1 NPAlg=1 LenDen=           0 ISkipM=0 DoSpLW=F IThBeg=    0 IThEnd=    0.
 Prism:   IPart=     0 DynPar=F LinDyn=F Incr=         280.
 PRISM was handed   104453974 working-precision words and  2546 shell-pairs
 IPart=  0 NShTot=       28006 NBatch=        2546 AvBLen=        11.0
 PrSmSu:  NxtVal=            281.
 Polarizability after L701:
                1             2             3 
      1  0.000000D+00
      2  0.000000D+00  0.000000D+00
      3  0.000000D+00  0.000000D+00  0.000000D+00
 Dipole Derivatives after L701:
                 1             2             3             4             5 
      1  -0.144312D+01  0.499844D+00  0.538411D+00 -0.668103D+00 -0.228682D+00
      2   0.121609D+00 -0.455932D+00 -0.135713D+00 -0.133756D+00 -0.521997D+00
      3   0.280037D+00 -0.171099D+00 -0.703271D+00 -0.152626D+00 -0.194032D+00
                 6             7             8             9            10 
      1  -0.494996D+00 -0.540536D+00 -0.525536D+00  0.512283D+00  0.465912D+00
      2  -0.338053D+00  0.857059D-01 -0.167567D+00 -0.240354D+00 -0.996255D-01
      3  -0.976666D+00  0.310881D-01  0.115908D+00 -0.480858D+00 -0.344917D+00
                11            12            13            14            15 
      1   0.881172D-01  0.844207D+00 -0.499343D+00 -0.646748D-01 -0.153339D+00
      2  -0.136301D+00 -0.315934D+00 -0.786048D-01 -0.826091D+00  0.988287D-01
      3  -0.290266D+00 -0.630436D+00  0.784577D-01  0.151370D+00 -0.109027D+01
                16            17            18            19            20 
      1   0.736609D+00  0.493483D+00 -0.112506D+01  0.216585D+00  0.198354D+00
      2  -0.722939D-01  0.587533D-02  0.148386D+00  0.903188D-01  0.379988D+00
      3  -0.269361D+00 -0.785299D-01  0.579445D+00  0.203378D+00  0.494158D+00
                21            22            23            24            25 
      1   0.172659D+00  0.112625D+00 -0.154832D+00  0.473067D-01  0.607681D-01
      2   0.170710D+00 -0.217660D-01  0.606793D+00 -0.140450D+00  0.472522D-01
      3   0.658559D+00  0.424249D-02 -0.509003D+00  0.345402D+00  0.161900D+00
                26            27            28            29            30 
      1  -0.115597D+00 -0.408130D+00  0.897127D+00 -0.453476D+00 -0.920949D+00
      2   0.235173D+00  0.169027D+00 -0.631612D-01  0.392433D+00  0.196354D+00
      3   0.188059D+00  0.710693D+00 -0.169587D+00  0.203461D+00  0.710057D+00
                31            32            33 
      1   0.661478D+00  0.263000D+00  0.987612D+00
      2   0.124321D+00  0.487627D+00  0.387198D+00
      3   0.177388D+00  0.899741D-01  0.877342D+00
 Hessian after L701:
                1             2             3             4             5 
      1  0.226589D+01
      2  0.127335D+01  0.110681D+02
      3  0.158352D+01 -0.853554D+00  0.103373D+02
      4  0.164588D+00  0.102618D+00 -0.120461D-02  0.957143D+01
      5  0.758918D-01 -0.961219D-01 -0.386393D-02 -0.491053D+01  0.732736D+01
      6 -0.226519D-02 -0.265081D-02 -0.128597D+00 -0.404467D+01 -0.444855D+01
      7  0.225441D+00 -0.156072D+00  0.193124D-01  0.573739D-01  0.631671D+00
      8 -0.164357D+00 -0.107444D+00 -0.267215D-02  0.518762D+00  0.732328D+00
      9  0.421175D-01 -0.120518D-01 -0.164224D+00 -0.118841D+00  0.114471D+00
     10  0.413780D+00 -0.838962D+00  0.764991D+00  0.536962D+00  0.258862D+00
     11 -0.832446D+00 -0.586584D+01 -0.426654D+00  0.256606D+00 -0.234225D+00
     12  0.497446D+00 -0.382671D+00 -0.794245D+01  0.720153D-01 -0.273909D-02
     13  0.498168D-01  0.338193D+00 -0.524112D+00  0.528916D+00  0.165503D+00
     14  0.302579D+00 -0.213020D+00 -0.126065D+00  0.217422D+00 -0.388718D-02
     15 -0.321828D+00 -0.143919D+00  0.119245D+00 -0.648727D-02 -0.878132D-01
     16  0.625584D+00 -0.124915D-01 -0.393690D-01 -0.663625D+01  0.338886D+01
     17  0.724292D-02 -0.263653D+00 -0.373487D-02  0.351532D+01 -0.274313D+01
     18 -0.111366D+00  0.237803D-03 -0.266625D+00  0.262191D+01  0.380916D+01
     19  0.452403D-01  0.205540D-01 -0.800326D-01  0.431460D-01  0.731685D-01
     20 -0.314955D-01 -0.648438D-01  0.339429D-01  0.884468D-01  0.180464D-01
     21 -0.122062D+00 -0.172975D-01  0.628824D-01  0.999574D-01  0.726616D-01
     22  0.619020D-01  0.247110D-01 -0.946565D-01  0.461771D-01 -0.337671D-02
     23  0.924934D-01 -0.685814D-01 -0.639827D-01 -0.620386D-01 -0.402757D-01
     24 -0.110061D+00 -0.206831D-01 -0.118790D-01  0.607414D-01 -0.220090D-02
     25 -0.859348D-02  0.418926D-01  0.210188D-01  0.715063D-01  0.177861D-01
     26  0.386135D-01  0.132133D+00  0.724894D-01  0.257311D-02 -0.617927D-01
     27  0.463284D-01  0.823013D-01  0.216204D+00 -0.123554D+00 -0.205133D-01
     28 -0.387012D+01 -0.799524D+00 -0.165980D+01  0.272798D-01  0.416968D-02
     29 -0.771436D+00 -0.451402D+01  0.137157D+01 -0.616508D-02 -0.943718D-02
     30 -0.152655D+01  0.134365D+01 -0.222151D+01 -0.230271D-01 -0.116939D-02
     31  0.264675D-01  0.572759D-02  0.103379D-01 -0.441113D+01  0.297995D+00
     32  0.956212D-02 -0.673193D-02  0.252671D-02  0.276986D+00 -0.488887D+01
     33  0.247250D-01  0.663414D-02 -0.342926D-03  0.146315D+01  0.570548D+00
                6             7             8             9            10 
      6  0.752648D+01
      7 -0.103391D+00  0.134987D+02
      8  0.219979D+00  0.146272D+01  0.163933D+01
      9 -0.309614D+00 -0.204189D+01  0.738798D+01  0.117657D+02
     10 -0.554505D-01  0.452845D+00 -0.339754D+00 -0.421511D-01  0.662519D+01
     11 -0.397859D-01 -0.216647D+00 -0.277869D+00  0.156173D-01  0.244519D+00
     12 -0.381082D+00  0.195445D-01 -0.456778D-01 -0.398183D+00  0.135653D+01
     13  0.234152D+00  0.375929D+00 -0.451908D+00  0.432727D+00 -0.370750D+01
     14  0.597210D-01 -0.320147D+00  0.272363D-01 -0.204991D+00  0.304542D+00
     15 -0.160130D+00  0.167529D+00 -0.174678D-01  0.330854D-01 -0.343804D+01
     16  0.229728D+01 -0.145825D+02 -0.929433D+00  0.163558D+01  0.413333D+00
     17  0.348825D+01 -0.127487D+01 -0.223828D+01 -0.730008D+01 -0.546315D-01
     18 -0.579767D+01  0.187240D+01 -0.764366D+01 -0.109550D+02 -0.411832D+00
     19  0.695071D-01  0.524753D-02 -0.121933D-01  0.576926D-01  0.841345D-01
     20  0.653136D-01  0.342987D-01 -0.397961D-01  0.353822D-01 -0.497129D-01
     21  0.256521D-01  0.512661D-01 -0.278724D-01  0.734713D-01  0.519673D-01
     22  0.434213D-01 -0.263809D-01 -0.868974D-01  0.434953D-01  0.113215D+00
     23 -0.369547D-01 -0.108555D+00  0.136411D+00 -0.112209D+00  0.538967D-02
     24 -0.183684D-01  0.604147D-01 -0.107161D+00 -0.545611D-03  0.151046D+00
     25 -0.489845D-01 -0.571986D-03 -0.389135D-01 -0.195963D-01 -0.475560D+01
     26 -0.424987D-03 -0.660027D-01  0.249965D-01  0.296470D-01  0.589008D+00
     27 -0.109072D-01 -0.700200D-01  0.731987D-01 -0.133328D-01  0.165403D+01
     28 -0.801653D-02  0.350842D-01 -0.227469D-01 -0.450961D-02 -0.173801D+00
     29  0.176184D-02 -0.242852D-01  0.173274D-02  0.270051D-02 -0.144191D+00
     30 -0.182215D-02 -0.247496D-01  0.160623D-01 -0.930873D-02 -0.647867D-01
     31  0.161841D+01 -0.412190D-01  0.647255D-01  0.153666D-01 -0.255294D-02
     32  0.693338D+00  0.378949D-01  0.101359D+00  0.435338D-01  0.249305D-01
     33 -0.743947D+00  0.495814D-01  0.147289D+00 -0.220518D-01  0.336954D-01
               11            12            13            14            15 
     11  0.185431D+02
     12 -0.777701D+00  0.146174D+02
     13  0.365139D+00 -0.341191D+01  0.112801D+02
     14 -0.730983D+01 -0.185273D+00 -0.406984D+00  0.183851D+02
     15 -0.158051D+00 -0.346893D+01  0.189036D+01  0.221141D+00  0.160019D+02
     16 -0.171022D+00 -0.190822D+00 -0.364554D+00 -0.639940D+00  0.929836D+00
     17 -0.218418D+00  0.198521D-01 -0.603191D+00 -0.623655D+01 -0.146703D-01
     18  0.686798D-02 -0.138141D+00  0.637377D+00 -0.584963D-02 -0.581818D+01
     19 -0.101545D-01  0.103076D+00 -0.405877D+01  0.533076D+00  0.561108D+00
     20  0.251282D+00  0.139867D+00  0.514018D+00 -0.297751D+01  0.147112D+01
     21  0.164222D+00 -0.223580D+00  0.581073D+00  0.158234D+01 -0.263798D+01
     22  0.237808D-02  0.147186D+00 -0.447816D+01 -0.480379D-01  0.199797D-01
     23  0.504849D+00 -0.220614D-01  0.286479D-01 -0.178378D+01 -0.124284D+01
     24 -0.752028D-01 -0.822571D-01 -0.139180D-01 -0.133695D+01 -0.385650D+01
     25  0.509443D+00  0.138106D+01  0.194107D+00  0.380009D-01  0.192297D+00
     26 -0.548388D+01  0.117086D+01  0.308611D-01  0.200803D+00 -0.733377D-01
     27  0.115722D+01 -0.203110D+01  0.134718D+00 -0.570916D-01 -0.258326D+00
     28 -0.170488D+00  0.153411D-01  0.116135D+00 -0.743115D-02 -0.860856D-01
     29  0.787032D-01  0.769571D-01 -0.305606D-01 -0.437963D-01  0.142237D-01
     30  0.115862D+00  0.284071D-01 -0.103366D+00  0.132870D-01  0.696602D-02
     31  0.226717D-01  0.105331D-01  0.639795D-01  0.269204D-01  0.913360D-01
     32  0.121313D-01  0.858757D-02  0.502819D-01 -0.447641D-01  0.316230D-01
     33  0.176029D-01  0.199232D-01  0.142906D+00  0.397330D-01  0.388878D-01
               16            17            18            19            20 
     16  0.204048D+02
     17 -0.157094D+01  0.118069D+02
     18 -0.437060D+01  0.376471D+01  0.228200D+02
     19  0.232114D-01 -0.695555D-01 -0.816082D-02  0.378772D+01
     20 -0.987749D-02 -0.980832D-02 -0.156470D-01 -0.506008D+00  0.297301D+01
     21  0.504581D-01 -0.237069D-01  0.153564D-01 -0.708810D+00 -0.174299D+01
     22  0.129035D+00  0.148603D+00 -0.715013D-01  0.973869D-01 -0.379167D-01
     23  0.756811D-01 -0.160165D-01  0.105276D+00 -0.302474D-01 -0.152707D+00
     24 -0.642660D-01  0.120358D+00  0.762265D-01 -0.996544D-03 -0.512484D-01
     25  0.166313D-01 -0.481259D-01 -0.983681D-01 -0.226245D-01  0.119225D-02
     26 -0.781856D-01 -0.106563D+00  0.661324D-01  0.150165D-02 -0.238877D-02
     27 -0.202674D+00  0.418679D-01  0.402475D-01  0.322306D-02  0.519300D-01
     28 -0.391732D-01  0.103307D-01  0.121217D-01 -0.164817D-02 -0.413081D-02
     29 -0.376767D-03  0.776625D-02  0.796866D-02  0.703421D-03  0.253404D-02
     30  0.100096D-01 -0.491024D-02  0.181359D-01  0.169259D-02  0.663247D-02
     31  0.987577D-02 -0.601820D-01 -0.719806D-01 -0.304361D-02  0.118571D-02
     32 -0.522761D-01  0.177664D-01 -0.952077D-01 -0.845240D-03  0.217925D-02
     33 -0.554356D-01 -0.879398D-01  0.568648D-02  0.170106D-02  0.570327D-02
               21            22            23            24            25 
     21  0.248369D+01
     22 -0.226260D-02  0.403531D+01
     23 -0.464754D-01 -0.364909D-02  0.143668D+01
     24  0.101202D+00 -0.817861D-01  0.147359D+01  0.375035D+01
     25  0.313019D-02 -0.143042D-02 -0.349366D-02  0.253392D-02  0.462284D+01
     26  0.352520D-01  0.914619D-03  0.524221D-03 -0.174509D-02 -0.518454D+00
     27  0.866188D-01 -0.324902D-02 -0.260113D-01  0.133862D-01 -0.141157D+01
     28 -0.472160D-02  0.131790D-01  0.139058D-01 -0.208941D-01 -0.105035D+00
     29  0.315241D-02  0.219144D-02 -0.894575D-02 -0.609930D-03  0.279362D-02
     30  0.698521D-02 -0.176460D-01 -0.148482D-01  0.132697D-01 -0.234887D-01
     31  0.320468D-05  0.977043D-02 -0.813429D-02  0.171860D-01 -0.112247D-01
     32  0.713190D-03  0.107937D-02 -0.816371D-02  0.185346D-02 -0.212140D-02
     33  0.569902D-02  0.170194D-01 -0.134817D-01  0.151147D-01  0.196481D-02
               26            27            28            29            30 
     26  0.523472D+01
     27 -0.129512D+01  0.191707D+01
     28  0.177321D-02 -0.224623D-01  0.399462D+01
     29  0.607772D-01 -0.411368D-02  0.972495D+00  0.442597D+01
     30 -0.184054D-02  0.485570D-01  0.177443D+01 -0.147132D+01  0.211524D+01
     31 -0.260308D-02 -0.477109D-02  0.347465D-02 -0.116876D-02 -0.252036D-02
     32  0.671889D-03 -0.367092D-02  0.164559D-02 -0.128339D-02 -0.141207D-02
     33 -0.191321D-02 -0.841823D-02  0.459535D-02 -0.229100D-02 -0.491215D-02
               31            32            33 
     31  0.435561D+01
     32 -0.347138D+00  0.481570D+01
     33 -0.168390D+01 -0.681884D+00  0.694361D+00
 Leave Link  701 at Thu Feb 28 15:25:06 2019, MaxMem=   104857600 cpu:               0.5 elap:               0.5
 (Enter /shared/centos7/gaussian/g16/l702.exe)
 L702 exits ... SP integral derivatives will be done elsewhere.
 Leave Link  702 at Thu Feb 28 15:25:06 2019, MaxMem=   104857600 cpu:               0.1 elap:               0.1
 (Enter /shared/centos7/gaussian/g16/l703.exe)
 Integral derivatives from FoFJK, PRISM(SPDF).
 Compute integral second derivatives, UseDBF=F ICtDFT=           0.
 ICntrl=    100147.
 Calling FoFJK, ICntrl=    100147 FMM=F ISym2X=0 I1Cent= 0 IOpClX= 0 NMat=1 NMatS=1 NMatT=0.
 FoFJK:  IHMeth= 1 ICntrl=  100147 DoSepK=F KAlg= 0 I1Cent=           0 FoldK=F
 IRaf=         0 NMat=       1 IRICut=       1 DoRegI=T DoRafI=F ISym2E= 0 IDoP0=0 IntGTp=1.
 FoFCou: FMM=F IPFlag=           0 FMFlag=      100000 FMFlg1=         800
         NFxFlg=           0 DoJE=F BraDBF=F KetDBF=F FulRan=T
         wScrn=  0.000000 ICntrl=    100147 IOpCl=  0 I1Cent=           0 NGrid=           0
         NMat0=    1 NMatS0=      1 NMatT0=    0 NMatD0=    1 NMtDS0=    0 NMtDT0=    0
 Symmetry not used in FoFCou.
 FoFCou:  KetSym=F NOpSet=  1 NOpAb=1 NOp=  1.
 FoFCou:  CnvScl= 1.00D+00 Thresh= 1.00D-08 IAcrcy=      12.
 PrismS was handed   104564309 working-precision words and  2604 shell-pairs
 FoFCou: LinMIO=F DoNuc=F BraDBF=F KetDBF=F HaveP=T PDBF=F HaveZ=T HaveW=F
         NIJTC =      15 NIJTAt=       0 NIJTCD=       0 NIJTT =      15
         IJTBeg=       1 IJTEnd=      15 KLTBeg=       1 KLTEnd=      15
         IPTBeg=       1 IPTEnd=      15 IPTBCv=       1 IPTECv=      15
         IZTBeg=       1 IZTEnd=      15 IZTBCv=       1 IZTECv=      15
         IWTBeg=      16 IWTEnd=      15 IWTBCv=      16 IWTECv=      15
         INTBeg=       1 INTEnd=       0 IFTBCv=       1 IFTECv=      15
 NCel replicated for PrismC:     1
 CoulSu-InSpLW:  IPartL=    0 NPrtUS=    1 NPrtUL=    1 DoSpLW=F IThBeg=    0 IThEnd=    0 NThAct=    1.
 CoulSu:  IncDef=  1024 NBBP=        3391710 NTPThr=   100 NPartT=    1 Incr=        1024 LDynOK=F GPUOK=T.
 CoulSu:  NPrtUS=   1 ThrOK=F IAlg=1 NPAlg=1 LenDen=           0 LWGrdD=           0 DoCopy=F ISkipM=0
          DoSpLW=F IThBeg=    0 IThEnd=    0.
 Enter PrismC:  IPart=  0 JobTyp=22 DoJE=F Cont=F.
 PrismC:  IPart=     0 DynPar=F LinDyn=F Incr=        1024 UseFst=F UseS4=T ISplat=2.
 PrismC was handed   104561533 working-precision words and  2604 shell-pairs
 IPart=  0 NShTot=     2355426 NShNF=     2355426 NShFF=           0 MinMC=       7
           NShCPU=     2355426 NBCPU=      100746 AvBCPU=        23.4
           NShGPU=           0 NBGPU=           0 AvBGPU=         0.0
 CoulSu:  NxtVal=           1025 LenVP=      104561534 MinMC=       7.
 ReadGW:  IGet=0 IStart=           1 Next=           1 LGW=           0.
 Remaining memory in FofDFT       99.92 Mw
 CkSvGd:  ISavGI=        -1 IRadAn=       5 IRASav=       5 ISavGd=        -1.
 CalDSu-InSpLW:  IPartL=    0 NPrtUS=    1 NPrtUL=    1 DoSpLW=F IThBeg=    0 IThEnd=    0 NThAct=    1.
 CalDSu:  NPrtUS=   1 ThrOK=F IAlg=1 NPAlg=1 DoDPD=F LenP=       39060 LenD1P=             0 GPUOK=F
          ISkipM=0 DoSpLW=F IThBeg=    0 IThEnd=    0.
 IPart=  0 IRanGd=          0 ScrnBf=T ScrnGd=T RCrit=4.00D+00 DoMicB=T.
 IPart=  0       227969 of       252088 points in     236 batches and     1321 microbatches, Max-NSigAt=      11 Max-NSgAt2=      11
 Polarizability after L703:
                1             2             3 
      1  0.000000D+00
      2  0.000000D+00  0.000000D+00
      3  0.000000D+00  0.000000D+00  0.000000D+00
 Dipole Derivatives after L703:
                 1             2             3             4             5 
      1  -0.144312D+01  0.499844D+00  0.538411D+00 -0.668103D+00 -0.228682D+00
      2   0.121609D+00 -0.455932D+00 -0.135713D+00 -0.133756D+00 -0.521997D+00
      3   0.280037D+00 -0.171099D+00 -0.703271D+00 -0.152626D+00 -0.194032D+00
                 6             7             8             9            10 
      1  -0.494996D+00 -0.540536D+00 -0.525536D+00  0.512283D+00  0.465912D+00
      2  -0.338053D+00  0.857059D-01 -0.167567D+00 -0.240354D+00 -0.996255D-01
      3  -0.976666D+00  0.310881D-01  0.115908D+00 -0.480858D+00 -0.344917D+00
                11            12            13            14            15 
      1   0.881172D-01  0.844207D+00 -0.499343D+00 -0.646748D-01 -0.153339D+00
      2  -0.136301D+00 -0.315934D+00 -0.786048D-01 -0.826091D+00  0.988287D-01
      3  -0.290266D+00 -0.630436D+00  0.784577D-01  0.151370D+00 -0.109027D+01
                16            17            18            19            20 
      1   0.736609D+00  0.493483D+00 -0.112506D+01  0.216585D+00  0.198354D+00
      2  -0.722939D-01  0.587533D-02  0.148386D+00  0.903188D-01  0.379988D+00
      3  -0.269361D+00 -0.785299D-01  0.579445D+00  0.203378D+00  0.494158D+00
                21            22            23            24            25 
      1   0.172659D+00  0.112625D+00 -0.154832D+00  0.473067D-01  0.607681D-01
      2   0.170710D+00 -0.217660D-01  0.606793D+00 -0.140450D+00  0.472522D-01
      3   0.658559D+00  0.424249D-02 -0.509003D+00  0.345402D+00  0.161900D+00
                26            27            28            29            30 
      1  -0.115597D+00 -0.408130D+00  0.897127D+00 -0.453476D+00 -0.920949D+00
      2   0.235173D+00  0.169027D+00 -0.631612D-01  0.392433D+00  0.196354D+00
      3   0.188059D+00  0.710693D+00 -0.169587D+00  0.203461D+00  0.710057D+00
                31            32            33 
      1   0.661478D+00  0.263000D+00  0.987612D+00
      2   0.124321D+00  0.487627D+00  0.387198D+00
      3   0.177388D+00  0.899741D-01  0.877342D+00
 Hessian after L703:
                1             2             3             4             5 
      1  0.617832D+00
      2 -0.996793D-01  0.655880D-01
      3 -0.256626D-01  0.154133D+00  0.378690D+00
      4 -0.263137D-02 -0.326980D-03  0.557547D-03  0.147478D+00
      5 -0.184622D-02  0.921784D-03  0.365264D-03  0.869185D-01  0.285177D+00
      6 -0.229002D-02  0.677160D-03  0.161570D-02  0.172761D+00  0.972947D-02
      7  0.805602D-03  0.260316D-02  0.127406D-02  0.212324D-01 -0.318795D-01
      8  0.298567D-04  0.154930D-02 -0.487260D-03 -0.314608D-01 -0.100962D+00
      9 -0.735757D-03 -0.987886D-03  0.241087D-02  0.950535D-02 -0.605011D-03
     10 -0.460966D+00  0.822866D-01 -0.407803D-01  0.314826D-02  0.155759D-02
     11  0.390950D-01  0.176060D-01 -0.205702D-01  0.608947D-03  0.296518D-02
     12 -0.102110D+00 -0.154034D-01 -0.100029D+00 -0.294678D-02 -0.234702D-02
     13 -0.383767D-01 -0.729630D-02  0.327327D-01 -0.141579D-01 -0.351472D-02
     14  0.393811D-02  0.626522D-03 -0.117183D-01 -0.231408D-01 -0.468206D-02
     15 -0.104303D-01  0.444944D-02  0.145276D-01 -0.186643D-01 -0.399136D-02
     16  0.174436D-02  0.121204D-02  0.410889D-02 -0.984037D-01 -0.401614D-01
     17 -0.208962D-02 -0.383659D-02 -0.750108D-03 -0.353613D-01 -0.133357D+00
     18  0.824122D-02 -0.355014D-03 -0.580769D-02 -0.388816D-01 -0.554448D-02
     19  0.252122D-02  0.637081D-04 -0.129479D-02 -0.451148D-02 -0.410071D-03
     20  0.971811D-03 -0.842364D-03 -0.492161D-03  0.102539D-02  0.127372D-02
     21  0.128158D-03  0.383106D-03  0.166758D-02  0.160198D-03  0.537979D-03
     22  0.350571D-02  0.194458D-02 -0.331705D-02  0.122160D-03 -0.107650D-02
     23 -0.393981D-02  0.745062D-03 -0.110448D-02 -0.282955D-03  0.150596D-02
     24  0.166223D-02 -0.380491D-02  0.364914D-02  0.600093D-03 -0.567182D-03
     25 -0.308523D-01 -0.170413D-01 -0.325623D-01 -0.185134D-03 -0.718469D-03
     26  0.723941D-02 -0.785232D-02  0.157115D-01  0.421609D-03 -0.171603D-02
     27  0.369676D-02  0.304766D-03  0.154819D-02 -0.672481D-03  0.770525D-03
     28 -0.944676D-01  0.359863D-01  0.644988D-01  0.278933D-03 -0.141892D-03
     29  0.562398D-01 -0.742763D-01 -0.135203D+00 -0.135503D-03 -0.547868D-03
     30  0.127345D+00 -0.139259D+00 -0.298095D+00 -0.204863D-03 -0.108517D-03
     31  0.884823D-03  0.247390D-03  0.445075D-03 -0.523698D-01 -0.872731D-02
     32  0.408675D-04 -0.229163D-03  0.114997D-03  0.173386D-02 -0.505784D-01
     33  0.155122D-03 -0.137880D-03 -0.176431D-03 -0.122214D+00  0.176033D-02
                6             7             8             9            10 
      6  0.412580D+00
      7  0.879731D-02  0.121422D+00
      8  0.680493D-02 -0.500795D-01  0.475798D+00
      9  0.306047D-01  0.578046D-01 -0.170762D+00  0.160485D+00
     10  0.125225D-02 -0.808189D-02 -0.529973D-02  0.550906D-02  0.758467D+00
     11  0.172669D-02  0.964419D-03  0.664284D-03  0.189118D-03 -0.199501D-01
     12 -0.460558D-02 -0.418873D-03  0.226484D-02 -0.225666D-02  0.340202D-01
     13 -0.894778D-02 -0.620842D-02  0.169579D-01 -0.761104D-02 -0.120439D+00
     14 -0.199138D-01  0.309168D-01 -0.207325D-01  0.300108D-01 -0.259135D-01
     15 -0.476444D-02 -0.255792D-01  0.215359D-01 -0.249150D-02  0.805804D-01
     16 -0.596930D-01 -0.122593D+00  0.595545D-01 -0.599008D-01 -0.472875D-01
     17 -0.273150D-01  0.425186D-01 -0.356100D+00  0.133088D+00  0.908797D-02
     18 -0.105978D+00 -0.446398D-01  0.134811D+00 -0.190094D+00  0.177830D-01
     19 -0.522631D-02  0.748317D-03  0.124871D-02  0.289396D-02  0.516861D-02
     20  0.325133D-03  0.902523D-03 -0.438550D-03  0.100532D-04  0.296891D-02
     21 -0.335800D-03  0.512979D-03  0.939267D-03  0.114071D-02 -0.297892D-02
     22  0.549716D-03 -0.713213D-02  0.343911D-02 -0.657386D-02 -0.985986D-03
     23 -0.660166D-03  0.139360D-02  0.178216D-02  0.145735D-02 -0.289224D-02
     24  0.150040D-03 -0.145782D-02  0.590096D-03  0.348956D-03  0.196860D-02
     25 -0.176834D-02 -0.109986D-03  0.320258D-04 -0.188909D-02 -0.936685D-01
     26 -0.711529D-03 -0.102254D-03 -0.179739D-02  0.224738D-02 -0.486784D-01
     27  0.108851D-02  0.519847D-03  0.430494D-03  0.888325D-04 -0.785094D-01
     28 -0.281592D-03 -0.336959D-03 -0.256939D-03 -0.236376D-03 -0.351274D-01
     29 -0.790233D-03  0.472930D-03  0.112714D-03 -0.358365D-03  0.674552D-02
     30 -0.869218D-04 -0.446895D-03  0.104936D-03 -0.992997D-04 -0.188431D-01
     31 -0.105154D+00  0.254601D-03  0.583481D-02  0.123396D-02 -0.227034D-03
     32  0.301274D-01  0.228923D-02  0.123953D-03  0.571065D-02  0.872951D-04
     33 -0.330268D+00  0.363381D-02  0.376816D-02 -0.138169D-03 -0.176140D-05
               11            12            13            14            15 
     11  0.921502D-01
     12  0.119831D+00  0.661514D+00
     13  0.446544D-02  0.582587D-01  0.486431D+00
     14 -0.523603D-01  0.419520D-01  0.421224D-02  0.554939D+00
     15 -0.567192D-02 -0.220593D+00  0.455279D-01 -0.724759D-02  0.535450D+00
     16  0.608960D-03 -0.310254D-02 -0.181752D+00  0.308147D-01 -0.300877D-01
     17 -0.160582D-02 -0.331943D-02  0.151163D-01 -0.619958D-01  0.250955D-02
     18 -0.708290D-02  0.150393D-01 -0.676539D-01  0.833133D-02 -0.861593D-01
     19  0.973065D-02  0.211210D-01 -0.708770D-01 -0.365307D-01 -0.432623D-01
     20  0.902198D-02  0.233078D-02 -0.403628D-01 -0.158410D+00 -0.969363D-01
     21 -0.141086D-01 -0.369879D-01 -0.402604D-01 -0.906507D-01 -0.137854D+00
     22 -0.198922D-01  0.193350D-01 -0.555949D-01  0.707454D-02 -0.690391D-02
     23  0.205277D-02  0.113581D-01  0.172438D-01 -0.248092D+00  0.690057D-01
     24  0.312180D-01 -0.244655D-01 -0.649521D-02  0.649029D-01 -0.793713D-01
     25 -0.332786D-01 -0.670597D-01  0.615521D-02  0.106576D-01  0.182417D-01
     26 -0.657646D-01 -0.155992D+00 -0.183378D-02 -0.522795D-02  0.133436D-01
     27 -0.112590D+00 -0.290398D+00 -0.774050D-02 -0.166439D-01 -0.193846D-01
     28  0.181180D-01  0.427937D-01 -0.502202D-02  0.313574D-02 -0.381280D-02
     29 -0.480434D-02 -0.196586D-03 -0.491082D-02 -0.198082D-02  0.302310D-02
     30  0.688065D-02  0.303627D-02  0.283132D-03  0.446699D-03 -0.108586D-02
     31 -0.470519D-03  0.109151D-03 -0.157408D-03 -0.516473D-02 -0.560953D-02
     32  0.745294D-04 -0.478234D-03 -0.771845D-04 -0.208458D-02 -0.201658D-04
     33  0.178321D-03 -0.253640D-03  0.190639D-02  0.530667D-03  0.172610D-02
               16            17            18            19            20 
     16  0.470526D+00
     17 -0.414622D-01  0.553973D+00
     18  0.156241D+00 -0.110084D+00  0.387214D+00
     19 -0.645605D-02 -0.227188D-01 -0.184005D-01  0.752790D-01
     20 -0.194989D-02  0.262604D-02  0.491638D-02  0.450687D-01  0.162886D+00
     21 -0.314497D-02 -0.549935D-02 -0.509660D-02  0.381334D-01  0.105191D+00
     22  0.359699D-03  0.318956D-01 -0.904736D-02  0.188866D-02 -0.857685D-02
     23  0.534396D-03 -0.108259D-01  0.596204D-03  0.311513D-02 -0.165599D-01
     24 -0.234781D-02  0.104406D-01 -0.384557D-02  0.296028D-02 -0.176023D-01
     25  0.309748D-02  0.595311D-03  0.494219D-02 -0.240146D-02 -0.322735D-03
     26  0.427986D-03  0.476015D-02 -0.114136D-02  0.133699D-02  0.340737D-03
     27 -0.142665D-03 -0.187968D-02 -0.155874D-02  0.310023D-02  0.194184D-02
     28 -0.121677D-02  0.749782D-03  0.131855D-02  0.246916D-03  0.167796D-03
     29  0.435271D-03 -0.944139D-04  0.189607D-02 -0.350340D-03 -0.150937D-03
     30  0.222085D-03  0.198413D-03  0.162361D-03 -0.142003D-03  0.256256D-03
     31 -0.180177D-01  0.166845D-02 -0.990237D-02 -0.160673D-02  0.107218D-03
     32 -0.100143D-01  0.645600D-02 -0.263427D-01 -0.554004D-03  0.252589D-03
     33 -0.215214D-02  0.261127D-02 -0.387638D-02  0.116973D-03  0.598251D-04
               21            22            23            24            25 
     21  0.169809D+00
     22  0.330635D-02  0.574410D-01
     23  0.629723D-02 -0.145164D-01  0.268718D+00
     24  0.932176D-02  0.306923D-02 -0.867903D-01  0.934314D-01
     25  0.426972D-02 -0.245927D-03 -0.296041D-03  0.134805D-03  0.119279D+00
     26 -0.257672D-02 -0.126269D-03  0.463664D-03  0.154038D-02  0.420309D-01
     27 -0.222237D-02 -0.873617D-03  0.734979D-04  0.785762D-03  0.795359D-01
     28 -0.174938D-03  0.263370D-03  0.286822D-04 -0.276557D-03 -0.269048D-04
     29 -0.300398D-03 -0.118683D-03 -0.138579D-03  0.131647D-03 -0.138213D-02
     30  0.496500D-03  0.196768D-03 -0.344784D-03  0.104281D-03 -0.400284D-02
     31  0.483926D-04  0.378428D-03 -0.388168D-03  0.182163D-03 -0.104133D-02
     32 -0.212307D-03 -0.468832D-04  0.349153D-03 -0.589030D-04 -0.276564D-03
     33  0.604968D-04  0.258681D-03  0.111568D-03 -0.108934D-03  0.157946D-03
               26            27            28            29            30 
     26  0.696321D-01
     27  0.127459D+00  0.305165D+00
     28 -0.769369D-03  0.603005D-03  0.135651D+00
     29  0.678618D-02  0.161537D-03 -0.570238D-01  0.750609D-01
     30  0.101349D-03  0.449563D-02 -0.104479D+00  0.131695D+00  0.290984D+00
     31  0.531224D-04  0.482954D-03 -0.242742D-03  0.276927D-04  0.716722D-04
     32  0.375386D-03 -0.276746D-04  0.566463D-05  0.334451D-04  0.287996D-04
     33  0.187275D-04  0.392030D-03  0.473108D-04 -0.590935D-04  0.880615D-04
               31            32            33 
     31  0.721449D-01
     32  0.681205D-02  0.452271D-01
     33  0.118092D+00 -0.884190D-02  0.332555D+00
 Leave Link  703 at Thu Feb 28 15:42:05 2019, MaxMem=   104857600 cpu:            1018.6 elap:            1018.7
 (Enter /shared/centos7/gaussian/g16/l716.exe)
 FrcOut:
 IF    =       422 IFX   =       462 IFXYZ =       495
 IFFX  =       528 IFFFX =      1089 IFLen =        40
 IFFLen=       561 IFFFLn=         0 IEDerv=      1089
 LEDerv=      1637 IFroze=      3134 ICStrt=    127764
 Dipole        = 2.09656738D-01-1.19446663D+00-6.75541134D-01
 DipoleDeriv   =-1.44312243D+00 1.21609126D-01 2.80036830D-01
                 4.99843586D-01-4.55932253D-01-1.71099037D-01
                 5.38410909D-01-1.35712579D-01-7.03271269D-01
                -6.68103308D-01-1.33755600D-01-1.52625923D-01
                -2.28681967D-01-5.21997029D-01-1.94032219D-01
                -4.94996297D-01-3.38052800D-01-9.76666048D-01
                -5.40536255D-01 8.57058769D-02 3.10880775D-02
                -5.25535621D-01-1.67567234D-01 1.15908149D-01
                 5.12283009D-01-2.40354177D-01-4.80857901D-01
                 4.65912024D-01-9.96254687D-02-3.44916893D-01
                 8.81171625D-02-1.36301445D-01-2.90265750D-01
                 8.44207219D-01-3.15933989D-01-6.30436211D-01
                -4.99342723D-01-7.86047711D-02 7.84576592D-02
                -6.46748294D-02-8.26090605D-01 1.51369706D-01
                -1.53339302D-01 9.88286937D-02-1.09026675D+00
                 7.36609365D-01-7.22939337D-02-2.69361256D-01
                 4.93482780D-01 5.87532765D-03-7.85298949D-02
                -1.12506358D+00 1.48386218D-01 5.79445343D-01
                 2.16585222D-01 9.03187646D-02 2.03378073D-01
                 1.98353704D-01 3.79987517D-01 4.94157597D-01
                 1.72658625D-01 1.70709931D-01 6.58558537D-01
                 1.12625165D-01-2.17659747D-02 4.24249480D-03
                -1.54832492D-01 6.06793182D-01-5.09003266D-01
                 4.73066798D-02-1.40450025D-01 3.45401769D-01
                 6.07681481D-02 4.72522127D-02 1.61899739D-01
                -1.15596964D-01 2.35172628D-01 1.88059331D-01
                -4.08130021D-01 1.69026590D-01 7.10693016D-01
                 8.97126814D-01-6.31611993D-02-1.69587053D-01
                -4.53475820D-01 3.92432626D-01 2.03461317D-01
                -9.20949152D-01 1.96353889D-01 7.10057305D-01
                 6.61477982D-01 1.24320967D-01 1.77388251D-01
                 2.63000459D-01 4.87627285D-01 8.99740667D-02
                 9.87611915D-01 3.87198247D-01 8.77342210D-01
 Polarizability= 0.00000000D+00 0.00000000D+00 0.00000000D+00
                 0.00000000D+00 0.00000000D+00 0.00000000D+00
 Quadrupole    =-3.13229464D-01-4.27736488D+00 4.59059434D+00
                -6.99164577D-04-1.63567818D+00 3.46177074D+00
 Forces in standard orientation:
 -------------------------------------------------------------------
 Center     Atomic                   Forces (Hartrees/Bohr)
 Number     Number              X              Y              Z
 -------------------------------------------------------------------
      1        8          -0.072350115    0.031959306    0.016754404
      2        8          -0.004045723    0.010067379   -0.008979322
      3        8           0.009923508    0.067157009   -0.067305979
      4        7           0.073087392   -0.024576431    0.048805943
      5        6          -0.006075966    0.015598268   -0.049109626
      6        6           0.008901092   -0.070740498    0.153080881
      7        1           0.006241627    0.015557719    0.009136840
      8        1          -0.005063927   -0.007090818   -0.002428294
      9        1          -0.007119657   -0.001248468   -0.020683754
     10        1           0.010478710   -0.013254651   -0.034672240
     11        1          -0.013976939   -0.023428814   -0.044598853
 -------------------------------------------------------------------
 Cartesian Forces:  Max     0.153080881 RMS     0.042837941
 ***** Axes restored to original set *****
 Rotating derivatives, DoTrsp=F IDiff=-2 LEDeriv=   1636 LFDPrp=       0 LDFDPr=       0.
 -------------------------------------------------------------------
 Center     Atomic                   Forces (Hartrees/Bohr)
 Number     Number              X              Y              Z
 -------------------------------------------------------------------
      1        8           0.059354135    0.046614383   -0.028997110
      2        8           0.001592654   -0.000765342   -0.013972327
      3        8          -0.024295040   -0.018913498   -0.090502295
      4        7          -0.066058616    0.010031167    0.062156439
      5        6           0.004392638   -0.029520476   -0.042440840
      6        6           0.002123955    0.081868964    0.147682650
      7        1          -0.010887575    0.014658350   -0.005574570
      8        1           0.006984303   -0.004813188    0.003142038
      9        1           0.008410464   -0.015805511   -0.012629956
     10        1          -0.004246500   -0.037463705   -0.008129664
     11        1           0.022629582   -0.045891146   -0.010734365
 -------------------------------------------------------------------
 Cartesian Forces:  Max     0.147682650 RMS     0.042837941
 Force constants in Cartesian coordinates: 
                1             2             3             4             5 
      1  0.522299D+00
      2  0.124172D+00  0.462899D+00
      3 -0.185577D+00  0.520854D-01  0.769119D-01
      4 -0.300251D-02 -0.125724D-02  0.164514D-03  0.226087D+00
      5  0.181129D-02  0.222795D-02 -0.505856D-03 -0.208642D+00  0.290315D+00
      6  0.458585D-03  0.499969D-03  0.680670D-03 -0.197669D-01  0.919677D-01
      7  0.158289D-02 -0.242454D-02  0.137773D-02 -0.418387D-02  0.254927D-01
      8  0.767901D-03  0.101044D-02  0.106462D-02  0.261133D-01 -0.328839D-02
      9  0.532032D-03  0.994051D-03  0.217243D-02 -0.540962D-01  0.446354D-01
     10 -0.398297D+00 -0.980948D-01  0.178805D+00  0.358004D-02 -0.170338D-02
     11 -0.255120D-01 -0.860438D-01 -0.262262D-01  0.292756D-02 -0.216193D-02
     12  0.177051D+00 -0.667633D-02 -0.590487D-01  0.273433D-02 -0.463530D-02
[...]
    R4        1.82576   0.00000   0.00000   0.00000   0.00000   1.82576
    R5        2.26412  -0.00000   0.00000  -0.00000  -0.00000   2.26412
    R6        2.73976  -0.00000   0.00000  -0.00000  -0.00000   2.73976
    R7        1.91915  -0.00000   0.00000  -0.00000  -0.00000   1.91915
    R8        2.84409   0.00000   0.00000   0.00000   0.00000   2.84409
    R9        2.05780   0.00000   0.00000   0.00000   0.00000   2.05780
   R10        2.07343  -0.00000   0.00000   0.00000   0.00000   2.07343
    A1        1.81422   0.00000   0.00000   0.00000   0.00000   1.81422
    A2        1.87872  -0.00000   0.00000  -0.00000  -0.00000   1.87872
    A3        1.87421   0.00000   0.00000  -0.00000  -0.00000   1.87421
    A4        1.84234  -0.00000   0.00000   0.00000   0.00000   1.84234
    A5        1.88838  -0.00000   0.00000  -0.00000  -0.00000   1.88838
    A6        1.90891   0.00000   0.00000   0.00000   0.00000   1.90891
    A7        1.93445   0.00000   0.00000  -0.00000  -0.00000   1.93445
    A8        1.95436   0.00000   0.00000   0.00000   0.00000   1.95436
    A9        1.91640  -0.00000   0.00000  -0.00000  -0.00000   1.91640
   A10        1.87091  -0.00000   0.00000  -0.00000  -0.00000   1.87091
   A11        1.87746  -0.00000   0.00000  -0.00000  -0.00000   1.87746
   A12        2.15298   0.00000   0.00000   0.00000   0.00000   2.15298
   A13        1.95153  -0.00000   0.00000  -0.00000  -0.00000   1.95153
   A14        2.17823   0.00000   0.00000   0.00000   0.00000   2.17823
    D1       -2.18142  -0.00000   0.00000  -0.00001  -0.00001  -2.18142
    D2        2.08998  -0.00000   0.00000  -0.00000  -0.00000   2.08998
    D3        0.02016   0.00000   0.00000   0.00000   0.00000   0.02016
    D4       -3.09088   0.00000   0.00000   0.00000   0.00000  -3.09088
    D5       -2.73109  -0.00000   0.00000  -0.00000  -0.00000  -2.73110
    D6        1.43673  -0.00000   0.00000  -0.00000  -0.00000   1.43673
    D7       -0.65985  -0.00000   0.00000  -0.00000  -0.00000  -0.65986
    D8       -0.75013  -0.00000   0.00000  -0.00000  -0.00000  -0.75013
    D9       -2.86549  -0.00000   0.00000  -0.00000  -0.00000  -2.86549
   D10        1.32111  -0.00000   0.00000  -0.00000  -0.00000   1.32111
   D11       -2.82092  -0.00000   0.00000  -0.00000  -0.00000  -2.82092
   D12        0.35176   0.00000   0.00000  -0.00000  -0.00000   0.35176
   D13       -0.69466  -0.00000   0.00000  -0.00000  -0.00000  -0.69466
   D14        2.47802   0.00000   0.00000  -0.00000  -0.00000   2.47802
   D15        1.33987  -0.00000   0.00000  -0.00000  -0.00000   1.33987
   D16       -1.77064  -0.00000   0.00000  -0.00000  -0.00000  -1.77064
         Item               Value     Threshold  Converged?
 Maximum Force            0.000000     0.000002     YES
 RMS     Force            0.000000     0.000001     YES
 Maximum Displacement     0.000004     0.000006     YES
 RMS     Displacement     0.000001     0.000004     YES
 Predicted change in Energy=-2.256906D-13
 Optimization completed.
    -- Stationary point found.
                           ----------------------------
                           !   Optimized Parameters   !
                           ! (Angstroms and Degrees)  !
 --------------------------                            --------------------------
 ! Name  Definition              Value          Derivative Info.                !
 --------------------------------------------------------------------------------
 ! R1    R(1,4)                  1.4174         -DE/DX =    0.0                 !
 ! R2    R(1,10)                 0.9596         -DE/DX =    0.0                 !
 ! R3    R(2,6)                  1.3404         -DE/DX =    0.0                 !
 ! R4    R(2,11)                 0.9662         -DE/DX =    0.0                 !
 ! R5    R(3,6)                  1.1981         -DE/DX =    0.0                 !
 ! R6    R(4,5)                  1.4498         -DE/DX =    0.0                 !
 ! R7    R(4,9)                  1.0156         -DE/DX =    0.0                 !
 ! R8    R(5,6)                  1.505          -DE/DX =    0.0                 !
 ! R9    R(5,7)                  1.0889         -DE/DX =    0.0                 !
 ! R10   R(5,8)                  1.0972         -DE/DX =    0.0                 !
 ! A1    A(4,1,10)             103.947          -DE/DX =    0.0                 !
 ! A2    A(6,2,11)             107.6428         -DE/DX =    0.0                 !
 ! A3    A(1,4,5)              107.3846         -DE/DX =    0.0                 !
 ! A4    A(1,4,9)              105.5581         -DE/DX =    0.0                 !
 ! A5    A(5,4,9)              108.1961         -DE/DX =    0.0                 !
 ! A6    A(4,5,6)              109.3726         -DE/DX =    0.0                 !
 ! A7    A(4,5,7)              110.8357         -DE/DX =    0.0                 !
 ! A8    A(4,5,8)              111.9764         -DE/DX =    0.0                 !
 ! A9    A(6,5,7)              109.8018         -DE/DX =    0.0                 !
 ! A10   A(6,5,8)              107.195          -DE/DX =    0.0                 !
 ! A11   A(7,5,8)              107.5707         -DE/DX =    0.0                 !
 ! A12   A(2,6,3)              123.3569         -DE/DX =    0.0                 !
 ! A13   A(2,6,5)              111.8145         -DE/DX =    0.0                 !
 ! A14   A(3,6,5)              124.8033         -DE/DX =    0.0                 !
 ! D1    D(10,1,4,5)          -124.9861         -DE/DX =    0.0                 !
 ! D2    D(10,1,4,9)           119.7472         -DE/DX =    0.0                 !
 ! D3    D(11,2,6,3)             1.155          -DE/DX =    0.0                 !
 ! D4    D(11,2,6,5)          -177.0942         -DE/DX =    0.0                 !
 ! D5    D(1,4,5,6)           -156.4802         -DE/DX =    0.0                 !
 ! D6    D(1,4,5,7)             82.3187         -DE/DX =    0.0                 !
 ! D7    D(1,4,5,8)            -37.8068         -DE/DX =    0.0                 !
 ! D8    D(9,4,5,6)            -42.9794         -DE/DX =    0.0                 !
 ! D9    D(9,4,5,7)           -164.1805         -DE/DX =    0.0                 !
 ! D10   D(9,4,5,8)             75.694          -DE/DX =    0.0                 !
 ! D11   D(4,5,6,2)           -161.6266         -DE/DX =    0.0                 !
 ! D12   D(4,5,6,3)             20.1543         -DE/DX =    0.0                 !
 ! D13   D(7,5,6,2)            -39.8011         -DE/DX =    0.0                 !
 ! D14   D(7,5,6,3)            141.9799         -DE/DX =    0.0                 !
 ! D15   D(8,5,6,2)             76.7688         -DE/DX =    0.0                 !
 ! D16   D(8,5,6,3)           -101.4502         -DE/DX =    0.0                 !
 --------------------------------------------------------------------------------
 GradGradGradGradGradGradGradGradGradGradGradGradGradGradGradGradGradGrad

 Leave Link  103 at Thu Feb 28 20:36:47 2019, MaxMem=   104857600 cpu:               0.0 elap:               0.0
 (Enter /shared/centos7/gaussian/g16/l9999.exe)

 ----------------------------------------------------------------------

 Electric dipole moment (input orientation):
 (Debye = 10**-18 statcoulomb cm , SI units = C m)
                  (au)            (Debye)         (10**-30 SI)
   Tot        0.580753D+00      0.147613D+01      0.492383D+01
   x         -0.170863D+00     -0.434292D+00     -0.144864D+01
   y         -0.426996D+00     -0.108532D+01     -0.362023D+01
   z         -0.354619D+00     -0.901350D+00     -0.300658D+01

 Dipole polarizability, Alpha (input orientation).
 (esu units = cm**3 , SI units = C**2 m**2 J**-1)
 Alpha(0;0):
               (au)            (10**-24 esu)      (10**-40 SI)
   iso        0.452527D+02      0.670575D+01      0.746116D+01
   aniso      0.188342D+02      0.279095D+01      0.310535D+01
   xx         0.540898D+02      0.801528D+01      0.891821D+01
   yx         0.472922D+01      0.700798D+00      0.779743D+00
   yy         0.383344D+02      0.568057D+01      0.632048D+01
   zx        -0.370813D+01     -0.549488D+00     -0.611388D+00
   zy         0.416020D+01      0.616478D+00      0.685925D+00
   zz         0.433338D+02      0.642141D+01      0.714479D+01

 ----------------------------------------------------------------------

 Dipole orientation:
     8          4.05645436         -1.15339151         -1.58827368
     8         -3.51328884          0.40706727          2.62680649
     8         -3.22499301          0.93641639         -1.55477769
     7          1.90313096          0.43156379         -1.42827121
     6          0.45273834         -0.37558257          0.75144607
     6         -2.25931241          0.41670312          0.42602670
     1          1.21457522          0.43991074          2.48034635
     1          0.46674310         -2.43712910          0.97266615
     1          0.87283491          0.06081580         -3.00439264
     1          5.45143637          0.00498052         -1.60562755
     1         -5.25064841          0.84491344          2.27568089

 Electric dipole moment (dipole orientation):
 (Debye = 10**-18 statcoulomb cm , SI units = C m)
                  (au)            (Debye)         (10**-30 SI)
   Tot        0.580753D+00      0.147613D+01      0.492383D+01
   x          0.000000D+00      0.000000D+00      0.000000D+00
   y          0.000000D+00      0.000000D+00      0.000000D+00
   z          0.580753D+00      0.147613D+01      0.492383D+01

 Dipole polarizability, Alpha (dipole orientation).
 (esu units = cm**3 , SI units = C**2 m**2 J**-1)
 Alpha(0;0):
               (au)            (10**-24 esu)      (10**-40 SI)
   iso        0.452527D+02      0.670575D+01      0.746116D+01
   aniso      0.188342D+02      0.279095D+01      0.310535D+01
   xx         0.540660D+02      0.801175D+01      0.891427D+01
   yx        -0.416849D+01     -0.617706D+00     -0.687291D+00
   yy         0.356807D+02      0.528733D+01      0.588295D+01
   zx        -0.352884D+01     -0.522919D+00     -0.581826D+00
   zy        -0.186476D+01     -0.276329D+00     -0.307458D+00
   zz         0.460114D+02      0.681819D+01      0.758625D+01

 ----------------------------------------------------------------------

 Test job not archived.
 1\1\GINC-C0035\Freq\RM062X\6-311+G(2df,2p)\C2H5N1O3\UNDERKOFFLER.C\28-
 Feb-2019\0\\#P Geom=AllCheck Guess=TCheck SCRF=Check Test GenChk RM062
 X/6-311+G(2df,2p) Freq\\Gaussian input prepared by ASE\\0,1\O,2.196522
 584,0.735149543,-0.5670909139\O,-2.1392702359,-0.915439429,-0.14342644
 96\O,-1.3062603094,0.5049210026,1.3688207902\N,1.2060077608,0.26872302
 55,0.333124242\C,0.0830176979,-0.1925044293,-0.4594274806\C,-1.1680345
 825,-0.1516807912,0.376219423\H,0.2532857056,-1.2060206045,-0.81940026
 02\H,-0.0909293261,0.4451961136,-1.3351862718\H,0.9091350539,1.0855198
 73,0.8585658912\H,2.9800721474,0.235514597,-0.3279732408\H,-2.92344649
 57,-0.8092789007,0.4108742704\\Version=EM64L-G16RevA.03\State=1-A\HF=-
 359.5924891\RMSD=2.623e-09\RMSF=7.855e-07\ZeroPoint=0.0854096\Thermal=
 0.0919117\Dipole=-0.1708634,-0.4269964,-0.3546186\DipoleDeriv=-0.64277
 31,-0.1281522,0.0793722,-0.239551,-0.3504012,-0.0499206,0.2177743,-0.0
 470327,-0.3860002,-1.0831904,-0.5122555,-0.302623,-0.4139789,-0.686697
 7,-0.2038781,-0.1672791,-0.1532617,-0.4918748,-0.6973192,0.0087732,0.2
 037341,-0.1315079,-0.6527171,-0.3484372,0.0284373,-0.4111847,-0.953401
 4,0.0178907,0.0740961,-0.2519272,0.1499983,-0.1694745,-0.0022441,-0.27
 52846,-0.0054822,-0.2461115,0.1434036,0.0072348,0.2237261,0.0905311,0.
 2657122,0.0265663,0.3063801,-0.0127195,0.0807373,1.4449209,0.4667529,-
 0.0457649,0.497333,0.9280609,0.6070908,-0.0282058,0.6130645,1.2012601,
 0.020424,0.011237,0.0261162,-0.0149642,-0.0406573,-0.0577624,-0.040825
 7,-0.0289482,0.0597723,-0.0207502,0.0005912,-0.0120896,0.019196,0.0180
 243,0.0732302,-0.1009129,0.0233781,-0.0133199,0.1552459,0.0167931,0.05
 22327,-0.0068996,0.116826,-0.0427251,0.026761,0.0116811,0.2242318,0.30
 66559,0.0277881,-0.0009278,0.0151596,0.2567594,0.0530547,-0.0041914,0.
 0597657,0.2694225,0.3554919,0.0271414,0.0281512,0.0346835,0.3145649,-0
 .0549745,0.037347,-0.0492604,0.2552839\Polar=54.0898123,4.7292198,38.3
 343727,-3.7081316,4.1602023,43.3338469\Quadrupole=5.2897591,-1.4676733
 ,-3.8220859,-0.0647845,0.3970493,-0.2765627\PG=C01 [X(C2H5N1O3)]\NImag
 =0\\0.58497982,-0.17521271,0.23358477,-0.01345294,-0.14180853,0.211302
 54,-0.00527860,-0.00131836,0.00022389,0.59034844,-0.00105938,0.0000689
 8,0.00084641,0.09778958,0.19673205,0.00136818,0.00044142,0.00089740,-0
 .15912963,0.16226800,0.34322333,-0.00230002,-0.00006872,0.00113043,0.0
 1884688,-0.03677992,-0.04548818,0.11141186,-0.00013225,0.00104744,0.00
 109263,-0.03325591,-0.02949228,-0.06373144,-0.02636084,0.30512349,0.00
 110871,0.00149941,0.00226149,-0.03823191,-0.06031313,-0.03296363,-0.08
 118222,0.39551331,0.63186683,-0.16927642,-0.04400107,0.09375077,-0.001
 85049,0.00026753,0.00200370,0.00059656,-0.00246144,-0.00331017,0.47293
 270,-0.03514402,-0.07723792,0.03389996,0.00202402,0.00193140,-0.000425
 45,0.00018969,-0.00065070,-0.00211721,0.01561335,0.46861581,0.08909349
 ,0.04380157,-0.14568553,0.00626138,0.00062195,-0.00233646,0.00139627,0
 .00019808,-0.00017885,-0.06939790,0.18913641,0.43457979,-0.04036622,-0
 .00787598,-0.01050131,-0.03541217,-0.00940845,0.01625304,0.00484006,0.
 00017627,0.01410760,-0.15556519,-0.05208915,-0.05514648,0.50765907,-0.
 01517966,-0.00380585,-0.00216162,-0.02518182,0.00440035,0.00524030,0.0
 1437081,0.01207168,-0.03082370,-0.01298025,-0.09308731,-0.03090152,0.0
 0091621,0.60162507,0.03726062,0.01364196,0.01093287,-0.01032133,-0.003
 40830,0.01291033,0.02930054,-0.02106385,-0.02767128,-0.08032155,-0.064
 29485,-0.14668937,-0.00356504,0.03475343,0.54661800,0.00005534,0.00297
 916,-0.00382782,-0.23009712,-0.07842303,-0.01936216,-0.13327586,0.0505
 0897,0.09812018,-0.03305358,-0.00703610,0.01453696,-0.17211532,0.00449
 960,0.04988647,0.60689761,-0.00432134,-0.00101253,-0.00277676,-0.09141
 143,-0.13876593,-0.04996247,0.03957816,-0.28499888,-0.30764183,-0.0078
 7137,-0.00190684,0.00883540,0.00408283,-0.08678803,0.00414905,0.058250
 97,0.51035762,-0.00596094,-0.00334758,-0.00330168,-0.03757997,-0.05728
 700,-0.12393886,0.08690159,-0.31226402,-0.56368752,-0.01061618,0.00549
 376,0.01153882,0.05213673,0.00627221,-0.11037488,-0.12895687,0.3501722
 1,0.79458857,0.00106803,0.00112459,0.00125807,-0.00069920,-0.00233891,
 0.00028446,-0.00385132,-0.00186998,0.00573137,0.00260689,-0.02921810,-
 0.01748244,-0.05894867,0.04841902,0.01817213,-0.00080406,0.03004082,0.
 00450730,0.06445563,-0.00042303,0.00040892,0.00138163,-0.00098306,0.00
 049626,0.00092393,-0.00013401,0.00077569,0.00216073,-0.00333581,-0.005
 24003,-0.00863360,0.04689880,-0.28302645,-0.07972847,-0.00046735,-0.00
 042029,-0.00091952,-0.04564923,0.30470864,-0.00095507,0.00028250,0.000
 59634,-0.00154411,0.00099720,0.00046100,0.00315851,0.00106573,-0.00241
 380,0.00135465,-0.01919199,-0.01107854,0.01542190,-0.07580751,-0.07011
 908,0.00354693,-0.01981770,-0.00778482,-0.01185050,0.08995973,0.082421
 08,0.00433264,0.00098013,0.00016117,-0.00239562,0.00097434,-0.00159195
 ,-0.00366399,0.00440117,0.00021078,-0.01570421,0.01044806,-0.03018523,
 -0.04997348,0.01703407,-0.01900049,0.00927187,-0.01976799,0.02216700,0
 .00034906,0.00537697,-0.00591076,0.05693185,0.00271097,0.00061522,-0.0
 0103590,-0.00097630,0.00018472,0.00001606,0.00079006,-0.00140764,-0.00
 054508,-0.00335751,0.01062601,-0.01079575,0.01881092,-0.13919974,0.119
 06149,0.00024450,0.00030358,-0.00187833,0.00258008,-0.01833761,0.02423
 478,-0.02051717,0.14609315,0.00242066,-0.00174693,0.00297354,0.0000772
 6,-0.00105523,0.00096849,0.00232855,-0.00163172,0.00156804,-0.01251089
 ,0.00754404,-0.02137576,-0.02670765,0.11881646,-0.20039211,-0.00167638
 ,0.01193754,-0.01844177,0.00126221,-0.00552199,0.00857485,0.03372564,-
 0.12863079,0.22596033,-0.02249418,0.01842719,0.01800701,0.00153308,0.0
 0164276,0.00152846,-0.00055061,0.00249618,0.00210565,-0.07705525,0.083
 59718,0.06354494,0.00612328,-0.02784610,-0.01957696,-0.00115133,-0.005
 12598,-0.00482803,-0.00459522,-0.00148905,-0.00295369,0.00029956,-0.00
 006157,-0.00038566,0.10056168,-0.01340548,0.01551185,0.02126785,0.0003
 3888,0.00075578,0.00071805,0.00274942,0.00086096,0.00184591,0.08129726
 ,-0.31055851,-0.19068537,0.00596655,-0.01306923,-0.00046439,-0.0008413
 7,-0.00213938,-0.00403065,-0.00291006,0.00058731,-0.00198348,0.0005012
 5,0.00130107,0.00055822,-0.07222390,0.30679448,0.01791378,-0.01549738,
 -0.01725180,0.00012955,-0.00054355,-0.00084376,0.00145445,0.00057828,-
 0.00239557,0.04506530,-0.13604801,-0.11642607,-0.00146539,-0.02264291,
 -0.01514302,0.00001003,0.00031416,0.00337103,-0.00151800,0.00073455,-0
 .00061864,0.00085262,-0.00034831,0.00001215,-0.06330388,0.17220771,0.1
 5095074,-0.35041916,0.20501634,-0.08642158,0.00012844,0.00020399,0.000
 20858,0.00056145,0.00003720,-0.00018851,-0.02366302,0.01168154,-0.0041
 5261,-0.00519479,-0.00014041,0.00234967,-0.00157371,-0.00103755,-0.000
 44602,-0.00014459,0.00002365,0.00004417,0.00060440,-0.00008085,0.00092
 122,-0.00233053,-0.00131709,0.00078840,0.38216187,0.24243887,-0.169175
 42,0.08949743,-0.00081559,-0.00025636,0.00020110,-0.00009403,-0.000056
 92,-0.00008152,-0.02261337,0.00695892,-0.00257430,-0.00436144,0.000827
 20,0.00235237,-0.00057122,-0.00062583,-0.00069568,-0.00016675,-0.00039
 748,-0.00014459,-0.00009329,-0.00018067,0.00008893,0.00067975,-0.00002
 862,0.00111503,-0.21430012,0.16299384,-0.12857011,0.10277608,-0.062640
 17,0.00020142,0.00005424,-0.00011888,0.00035593,0.00029365,-0.00019583
 ,0.03438178,-0.01386442,-0.00244469,0.00061576,0.00013705,-0.00199534,
 0.00040196,-0.00015702,0.00049050,-0.00024142,-0.00014700,0.00028446,0
 .00012849,0.00001142,0.00003068,0.00580634,0.00060646,-0.00173653,0.08
 692536,-0.08974644,0.06829670,-0.00030123,-0.00005056,-0.00032770,-0.3
 3512364,0.02713148,0.20392548,0.00738501,0.00646063,0.00152852,0.00003
 201,-0.00006646,0.00153162,-0.00104657,-0.00391147,-0.00418407,-0.0441
 5383,-0.00241713,0.02267540,0.00056346,0.00018212,-0.00031203,-0.00005
 208,-0.00014311,0.00054506,-0.00034047,-0.00015545,0.00007315,-0.00013
 035,-0.00010282,-0.00000552,0.37316769,-0.00027196,-0.00000546,-0.0002
 0310,0.05379000,-0.03605498,-0.05568949,0.00575937,-0.00327284,0.00050
 312,-0.00055731,0.00054918,0.00099714,-0.00311656,0.00005232,-0.004998
 42,-0.02914414,0.00599651,0.01848460,-0.00001148,0.00044503,0.00040532
 ,0.00066246,0.00000192,-0.00035853,-0.00009646,-0.00001570,0.00013043,
 -0.00008669,-0.00005865,0.00003598,-0.02692722,0.03236266,-0.00022639,
 -0.00004252,-0.00008501,0.23991345,-0.04218059,-0.19825895,0.00064412,
 -0.00005066,-0.00618988,-0.00039951,-0.00013220,0.00009667,-0.00114915
 ,-0.00288218,0.00192389,-0.01267929,0.00494742,0.01754062,-0.00012318,
 -0.00020999,-0.00032283,-0.00055728,-0.00008960,0.00012157,0.00005581,
 -0.00004030,0.00008147,-0.00002868,-0.00001232,0.00002910,-0.22544990,
 0.04069295,0.18506334\\-0.00000034,-0.00000010,-0.00000154,-0.00000013
 ,0.00000016,0.00000158,0.00000106,0.00000006,0.00000100,0.00000031,-0.
 00000007,-0.00000090,-0.00000034,-0.00000007,-0.00000007,0.00000027,-0
 .00000001,0.00000075,-0.00000065,0.00000006,-0.00000020,-0.00000092,0.
 00000005,0.00000008,0.00000070,-0.00000005,-0.00000059,-0.00000024,-0.
 00000017,-0.00000219,0.00000029,0.00000014,0.00000210\\\@


 MATERIAL COPIED FROM ONE SCHOLARLY BOOK WITHOUT CREDIT COMPRISES PLAGIARISM.
 MATERIAL COPIED FROM TWO SCHOLARLY BOOKS COMPRISES AN ESSAY.
 MATERIAL COPIED FROM THREE SCHOLARLY BOOKS COMPRISES A DISSERTATION.
 MATERIAL COPIED FROM FOUR SCHOLARLY BOOKS COMPRISES A FIFTH SCHOLARLY BOOK.

                               -- C&EN, 25 FEB 1980
 Job cpu time:       0 days  0 hours 49 minutes 12.6 seconds.
 Elapsed time:       0 days  0 hours 49 minutes 12.9 seconds.
 File lengths (MBytes):  RWF=   1328 Int=      0 D2E=      0 Chk=     32 Scr=     32
 Normal termination of Gaussian 16 at Thu Feb 28 20:36:47 2019.
