 Entering Gaussian System, Link 0=g16
 Input=JQCSUVJDBHJKNG-UHFFFAOYSA-N_36by10.0_tor02_a1.com
 Output=JQCSUVJDBHJKNG-UHFFFAOYSA-N_36by10.0_tor02_a1.log
 Initial command:
 /shared/centos7/gaussian/g16/l1.exe "/scratch/underkoffler.c/gaussian_scratch/Gau-42120.inp" -scrdir="/scratch/underkoffler.c/gaussian_scratch/"
 Entering Link 1 = /shared/centos7/gaussian/g16/l1.exe PID=     42121.
  
 Copyright (c) 1988,1990,1992,1993,1995,1998,2003,2009,2016,
            Gaussian, Inc.  All Rights Reserved.
  
 This is part of the Gaussian(R) 16 program.  It is based on
 the Gaussian(R) 09 system (copyright 2009, Gaussian, Inc.),
 the Gaussian(R) 03 system (copyright 2003, Gaussian, Inc.),
 the Gaussian(R) 98 system (copyright 1998, Gaussian, Inc.),
 the Gaussian(R) 94 system (copyright 1995, Gaussian, Inc.),
 the Gaussian 92(TM) system (copyright 1992, Gaussian, Inc.),
 the Gaussian 90(TM) system (copyright 1990, Gaussian, Inc.),
 the Gaussian 88(TM) system (copyright 1988, Gaussian, Inc.),
 the Gaussian 86(TM) system (copyright 1986, Carnegie Mellon
 University), and the Gaussian 82(TM) system (copyright 1983,
 Carnegie Mellon University). Gaussian is a federally registered
 trademark of Gaussian, Inc.
  
 This software contains proprietary and confidential information,
 including trade secrets, belonging to Gaussian, Inc.
  
 This software is provided under written license and may be
 used, copied, transmitted, or stored only in accord with that
 written license.
  
 The following legend is applicable only to US Government
 contracts under FAR:
  
                    RESTRICTED RIGHTS LEGEND
  
 Use, reproduction and disclosure by the US Government is
 subject to restrictions as set forth in subparagraphs (a)
 and (c) of the Commercial Computer Software - Restricted
 Rights clause in FAR 52.227-19.
  
 Gaussian, Inc.
 340 Quinnipiac St., Bldg. 40, Wallingford CT 06492
  
  
 ---------------------------------------------------------------
 Warning -- This program may not be used in any manner that
 competes with the business of Gaussian, Inc. or will provide
 assistance to any competitor of Gaussian, Inc.  The licensee
 of this program is prohibited from giving any competitor of
 Gaussian, Inc. access to this program.  By using this program,
 the user acknowledges that Gaussian, Inc. is engaged in the
 business of creating and licensing software in the field of
 computational chemistry and represents and warrants to the
 licensee that it is not a competitor of Gaussian, Inc. and that
 it will not use this program in any manner prohibited above.
 ---------------------------------------------------------------
  

 Cite this work as:
 Gaussian 16, Revision A.03,
 M. J. Frisch, G. W. Trucks, H. B. Schlegel, G. E. Scuseria, 
 M. A. Robb, J. R. Cheeseman, G. Scalmani, V. Barone, 
 G. A. Petersson, H. Nakatsuji, X. Li, M. Caricato, A. V. Marenich, 
 J. Bloino, B. G. Janesko, R. Gomperts, B. Mennucci, H. P. Hratchian, 
 J. V. Ortiz, A. F. Izmaylov, J. L. Sonnenberg, D. Williams-Young, 
 F. Ding, F. Lipparini, F. Egidi, J. Goings, B. Peng, A. Petrone, 
 T. Henderson, D. Ranasinghe, V. G. Zakrzewski, J. Gao, N. Rega, 
 G. Zheng, W. Liang, M. Hada, M. Ehara, K. Toyota, R. Fukuda, 
 J. Hasegawa, M. Ishida, T. Nakajima, Y. Honda, O. Kitao, H. Nakai, 
 T. Vreven, K. Throssell, J. A. Montgomery, Jr., J. E. Peralta, 
 F. Ogliaro, M. J. Bearpark, J. J. Heyd, E. N. Brothers, K. N. Kudin, 
 V. N. Staroverov, T. A. Keith, R. Kobayashi, J. Normand, 
 K. Raghavachari, A. P. Rendell, J. C. Burant, S. S. Iyengar, 
 J. Tomasi, M. Cossi, J. M. Millam, M. Klene, C. Adamo, R. Cammi, 
 J. W. Ochterski, R. L. Martin, K. Morokuma, O. Farkas, 
 J. B. Foresman, and D. J. Fox, Gaussian, Inc., Wallingford CT, 2016.
 
 ******************************************
 Gaussian 16:  EM64L-G16RevA.03 25-Dec-2016
                11-Mar-2019 
 ******************************************
 %nprocshared=20
 Will use up to   20 processors via shared memory.
 %mem=5GB
 ----------------------------------------------
 #p m062x/6-311+g(2df,2p) Opt=(CalcFC,ModRedun)
 ----------------------------------------------
 1/10=4,18=120,19=15,26=3,38=1/1,3;
 2/9=110,12=2,17=6,18=5,40=1/2;
 3/5=4,6=6,7=214,11=2,25=1,30=1,71=2,74=-55,140=1/1,2,3;
 4//1;
 5/5=2,38=5/2;
 8/6=4,10=90,11=11/1;
 11/6=1,8=1,9=11,15=111,16=1/1,2,10;
 10/6=1,13=1/2;
 6/7=2,8=2,9=2,10=2,28=1/1;
 7/10=1,18=20,25=1/1,2,3,16;
 1/10=4,18=20,19=15,26=3/3(2);
 2/9=110/2;
 99//99;
 2/9=110/2;
 3/5=4,6=6,7=214,11=2,25=1,30=1,71=1,74=-55/1,2,3;
 4/5=5,16=3,69=1/1;
 5/5=2,38=5/2;
 7//1,2,3,16;
 1/18=20,19=15,26=3/3(-5);
 2/9=110/2;
 6/7=2,8=2,9=2,10=2,19=2,28=1/1;
 99/9=1/99;
 Leave Link    1 at Mon Mar 11 00:05:13 2019, MaxMem=   671088640 cpu:              34.1 elap:               1.8
 (Enter /shared/centos7/gaussian/g16/l101.exe)
 ----------------------------------------
 Gaussian Input Prepared from Scan Object
 ----------------------------------------
 Symbolic Z-matrix:
 Charge =  0 Multiplicity = 2
 O                     0.36762   0.12857   0.71871 
 C                    -1.77358  -0.21152  -0.28626 
 C                     1.7731    0.07554   0.6136 
 C                    -0.29719  -0.22715  -0.40736 
 H                    -2.13651  -0.96806   0.41985 
 H                    -2.11756   0.75898   0.07413 
 H                    -2.23376  -0.405    -1.25322 
 H                     2.12707   0.76836  -0.15284 
 H                     2.18098   0.35894   1.57947 
 H                     2.10268  -0.93629   0.36255 
 H                     0.21252  -0.92718  -1.06298 
 
 The following ModRedundant input section has been read:
 B       3      10 B                                                           
 B       1       4 B                                                           
 B       3       8 B                                                           
 B       2       6 B                                                           
 B       2       5 B                                                           
 B       2       4 B                                                           
 B       1       3 B                                                           
 B       2       7 B                                                           
 B       3       9 B                                                           
 B       4      11 B                                                           
 D       4       1       3       9 S  36 10.000                                
 
 ITRead=  0  0  0  0  0  0  0  0  0  0  0
 MicOpt= -1 -1 -1 -1 -1 -1 -1 -1 -1 -1 -1
 NAtoms=     11 NQM=       11 NQMF=       0 NMMI=      0 NMMIF=      0
                NMic=       0 NMicF=      0.
                    Isotopes and Nuclear Properties:
 (Nuclear quadrupole moments (NQMom) in fm**2, nuclear magnetic moments (NMagM)
  in nuclear magnetons)

  Atom         1           2           3           4           5           6           7           8           9          10
 IAtWgt=          16          12          12          12           1           1           1           1           1           1
 AtmWgt=  15.9949146  12.0000000  12.0000000  12.0000000   1.0078250   1.0078250   1.0078250   1.0078250   1.0078250   1.0078250
 NucSpn=           0           0           0           0           1           1           1           1           1           1
 AtZEff=  -0.0000000  -0.0000000  -0.0000000  -0.0000000  -0.0000000  -0.0000000  -0.0000000  -0.0000000  -0.0000000  -0.0000000
 NQMom=    0.0000000   0.0000000   0.0000000   0.0000000   0.0000000   0.0000000   0.0000000   0.0000000   0.0000000   0.0000000
 NMagM=    0.0000000   0.0000000   0.0000000   0.0000000   2.7928460   2.7928460   2.7928460   2.7928460   2.7928460   2.7928460
 AtZNuc=   8.0000000   6.0000000   6.0000000   6.0000000   1.0000000   1.0000000   1.0000000   1.0000000   1.0000000   1.0000000

  Atom        11
 IAtWgt=           1
 AtmWgt=   1.0078250
 NucSpn=           1
 AtZEff=  -0.0000000
 NQMom=    0.0000000
 NMagM=    2.7928460
 AtZNuc=   1.0000000
 Leave Link  101 at Mon Mar 11 00:05:13 2019, MaxMem=   671088640 cpu:               6.1 elap:               0.3
 (Enter /shared/centos7/gaussian/g16/l103.exe)

 GradGradGradGradGradGradGradGradGradGradGradGradGradGradGradGradGradGrad
 Berny optimization.
 Initialization pass.
                           ----------------------------
                           !    Initial Parameters    !
                           ! (Angstroms and Degrees)  !
 --------------------------                            --------------------------
 ! Name  Definition              Value          Derivative Info.                !
 --------------------------------------------------------------------------------
 ! R1    R(1,3)                  1.4104         calculate D2E/DX2 analytically  !
 ! R2    R(1,4)                  1.3552         calculate D2E/DX2 analytically  !
 ! R3    R(2,4)                  1.4814         calculate D2E/DX2 analytically  !
 ! R4    R(2,5)                  1.0967         calculate D2E/DX2 analytically  !
 ! R5    R(2,6)                  1.0909         calculate D2E/DX2 analytically  !
 ! R6    R(2,7)                  1.0882         calculate D2E/DX2 analytically  !
 ! R7    R(3,8)                  1.0921         calculate D2E/DX2 analytically  !
 ! R8    R(3,9)                  1.0861         calculate D2E/DX2 analytically  !
 ! R9    R(3,10)                 1.0934         calculate D2E/DX2 analytically  !
 ! R10   R(4,11)                 1.0861         calculate D2E/DX2 analytically  !
 ! A1    A(3,1,4)              114.6491         calculate D2E/DX2 analytically  !
 ! A2    A(4,2,5)              112.0343         calculate D2E/DX2 analytically  !
 ! A3    A(4,2,6)              110.5264         calculate D2E/DX2 analytically  !
 ! A4    A(4,2,7)              110.2992         calculate D2E/DX2 analytically  !
 ! A5    A(5,2,6)              107.2571         calculate D2E/DX2 analytically  !
 ! A6    A(5,2,7)              108.0313         calculate D2E/DX2 analytically  !
 ! A7    A(6,2,7)              108.5649         calculate D2E/DX2 analytically  !
 ! A8    A(1,3,8)              110.5753         calculate D2E/DX2 analytically  !
 ! A9    A(1,3,9)              107.3465         calculate D2E/DX2 analytically  !
 ! A10   A(1,3,10)             110.6276         calculate D2E/DX2 analytically  !
 ! A11   A(8,3,9)              109.6851         calculate D2E/DX2 analytically  !
 ! A12   A(8,3,10)             109.1619         calculate D2E/DX2 analytically  !
 ! A13   A(9,3,10)             109.4185         calculate D2E/DX2 analytically  !
 ! A14   A(1,4,2)              114.7212         calculate D2E/DX2 analytically  !
 ! A15   A(1,4,11)             116.1376         calculate D2E/DX2 analytically  !
 ! A16   A(2,4,11)             121.5901         calculate D2E/DX2 analytically  !
 ! D1    D(4,1,3,8)             61.6398         calculate D2E/DX2 analytically  !
 ! D2    D(4,1,3,9)           -178.7432         Scan                            !
 ! D3    D(4,1,3,10)           -59.4193         calculate D2E/DX2 analytically  !
 ! D4    D(3,1,4,2)            178.2368         calculate D2E/DX2 analytically  !
 ! D5    D(3,1,4,11)            27.9747         calculate D2E/DX2 analytically  !
 ! D6    D(5,2,4,1)            -65.5515         calculate D2E/DX2 analytically  !
 ! D7    D(5,2,4,11)            82.9299         calculate D2E/DX2 analytically  !
 ! D8    D(6,2,4,1)             54.0038         calculate D2E/DX2 analytically  !
 ! D9    D(6,2,4,11)          -157.5148         calculate D2E/DX2 analytically  !
 ! D10   D(7,2,4,1)            174.0678         calculate D2E/DX2 analytically  !
 ! D11   D(7,2,4,11)           -37.4508         calculate D2E/DX2 analytically  !
 --------------------------------------------------------------------------------
 Trust Radius=3.00D-01 FncErr=1.00D-07 GrdErr=1.00D-06 EigMax=2.50D+02 EigMin=1.00D-04
 Number of optimizations in scan=  37
 Number of steps in this run=     47 maximum allowed number of steps=    100.
 GradGradGradGradGradGradGradGradGradGradGradGradGradGradGradGradGradGrad

 Leave Link  103 at Mon Mar 11 00:05:13 2019, MaxMem=   671088640 cpu:               0.2 elap:               0.0
 (Enter /shared/centos7/gaussian/g16/l202.exe)
                          Input orientation:                          
 ---------------------------------------------------------------------
 Center     Atomic      Atomic             Coordinates (Angstroms)
 Number     Number       Type             X           Y           Z
 ---------------------------------------------------------------------
      1          8           0        0.367618    0.128566    0.718708
      2          6           0       -1.773584   -0.211518   -0.286262
      3          6           0        1.773100    0.075539    0.613595
      4          6           0       -0.297192   -0.227153   -0.407361
      5          1           0       -2.136507   -0.968058    0.419851
      6          1           0       -2.117565    0.758979    0.074125
      7          1           0       -2.233762   -0.404996   -1.253222
      8          1           0        2.127072    0.768356   -0.152836
      9          1           0        2.180978    0.358942    1.579465
     10          1           0        2.102682   -0.936287    0.362553
     11          1           0        0.212518   -0.927184   -1.062976
 ---------------------------------------------------------------------
                    Distance matrix (angstroms):
                    1          2          3          4          5
     1  O    0.000000
     2  C    2.389638   0.000000
     3  C    1.410404   3.670301   0.000000
     4  C    1.355190   1.481433   2.328107   0.000000
     5  H    2.750008   1.096659   4.051130   2.148557   0.000000
     6  H    2.643680   1.090901   3.986902   2.125568   1.761403
     7  H    3.307624   1.088214   4.446443   2.120710   1.767957
     8  H    2.065090   4.024062   1.092112   2.633036   4.639096
     9  H    2.020458   4.409641   1.086088   3.229910   4.663295
    10  H    2.066689   3.996460   1.093361   2.618212   4.239695
    11  H    2.076791   2.249459   2.500352   1.086131   2.778195
                    6          7          8          9         10
     6  H    0.000000
     7  H    1.769234   0.000000
     8  H    4.250711   4.648062   0.000000
     9  H    4.572040   5.300722   1.780841   0.000000
    10  H    4.557148   4.658083   1.781018   1.778939   0.000000
    11  H    3.092803   2.508617   2.714540   3.537153   2.367474
                   11
    11  H    0.000000
 Stoichiometry    C3H7O(2)
 Framework group  C1[X(C3H7O)]
 Deg. of freedom    27
 Full point group                 C1      NOp   1
 Largest Abelian subgroup         C1      NOp   1
 Largest concise Abelian subgroup C1      NOp   1
                         Standard orientation:                         
 ---------------------------------------------------------------------
 Center     Atomic      Atomic             Coordinates (Angstroms)
 Number     Number       Type             X           Y           Z
 ---------------------------------------------------------------------
      1          8           0       -0.491618   -0.469341    0.036598
      2          6           0        1.868828   -0.098472    0.003148
      3          6           0       -1.798020    0.060147   -0.010254
      4          6           0        0.495839    0.450558   -0.086903
      5          1           0        2.084536   -0.505969    0.998175
      6          1           0        2.004703   -0.908553   -0.714745
      7          1           0        2.600751    0.678491   -0.208576
      8          1           0       -1.982136    0.543106   -0.972315
      9          1           0       -2.488058   -0.768183    0.121284
     10          1           0       -1.947407    0.788512    0.791374
     11          1           0        0.260673    1.453924    0.256076
 ---------------------------------------------------------------------
 Rotational constants (GHZ):          34.5786059           4.2047502           3.9431942
 Leave Link  202 at Mon Mar 11 00:05:13 2019, MaxMem=   671088640 cpu:               2.6 elap:               0.2
 (Enter /shared/centos7/gaussian/g16/l301.exe)
 Standard basis: 6-311+G(2df,2p) (5D, 7F)
 Ernie: Thresh=  0.10000D-02 Tol=  0.10000D-05 Strict=F.
 There are   219 symmetry adapted cartesian basis functions of A   symmetry.
 There are   199 symmetry adapted basis functions of A   symmetry.
   199 basis functions,   285 primitive gaussians,   219 cartesian basis functions
    17 alpha electrons       16 beta electrons
       nuclear repulsion energy       125.7650679562 Hartrees.
 IExCor= 4336 DFT=T Ex+Corr=M062X ExCW=0 ScaHFX=  0.540000
 ScaDFX=  1.000000  1.000000  1.000000  1.000000 ScalE2=  1.000000  1.000000
 IRadAn=      5 IRanWt=     -1 IRanGd=            0 ICorTp=0 IEmpDi=  4
 NAtoms=   11 NActive=   11 NUniq=   11 SFac= 1.00D+00 NAtFMM=   60 NAOKFM=F Big=F
 Integral buffers will be    131072 words long.
 Raffenetti 2 integral format.
 Two-electron integral symmetry is turned on.
 Leave Link  301 at Mon Mar 11 00:05:13 2019, MaxMem=   671088640 cpu:               1.3 elap:               0.1
 (Enter /shared/centos7/gaussian/g16/l302.exe)
 NPDir=0 NMtPBC=     1 NCelOv=     1 NCel=       1 NClECP=     1 NCelD=      1
         NCelK=      1 NCelE2=     1 NClLst=     1 CellRange=     0.0.
 One-electron integrals computed using PRISM.
 One-electron integral symmetry used in STVInt
 NBasis=   199 RedAO= T EigKep=  7.26D-05  NBF=   199
 NBsUse=   199 1.00D-06 EigRej= -1.00D+00 NBFU=   199
 Precomputing XC quadrature grid using
 IXCGrd= 4 IRadAn=           5 IRanWt=          -1 IRanGd=           0 AccXCQ= 0.00D+00.
 Generated NRdTot=       0 NPtTot=           0 NUsed=           0 NTot=          32
 NSgBfM=   219   219   219   219   219 MxSgAt=    11 MxSgA2=    11.
 Leave Link  302 at Mon Mar 11 00:05:14 2019, MaxMem=   671088640 cpu:               5.9 elap:               0.3
 (Enter /shared/centos7/gaussian/g16/l303.exe)
 DipDrv:  MaxL=1.
 Leave Link  303 at Mon Mar 11 00:05:14 2019, MaxMem=   671088640 cpu:               0.5 elap:               0.1
 (Enter /shared/centos7/gaussian/g16/l401.exe)
 ExpMin= 4.38D-02 ExpMax= 8.59D+03 ExpMxC= 1.30D+03 IAcc=3 IRadAn=         5 AccDes= 0.00D+00
 Harris functional with IExCor= 1009 and IRadAn=       5 diagonalized for initial guess.
 HarFok:  IExCor= 1009 AccDes= 0.00D+00 IRadAn=         5 IDoV= 1 UseB2=F ITyADJ=14
 ICtDFT=  3500011 ScaDFX=  1.000000  1.000000  1.000000  1.000000
 FoFCou: FMM=F IPFlag=           0 FMFlag=      100000 FMFlg1=           0
         NFxFlg=           0 DoJE=T BraDBF=F KetDBF=T FulRan=T
         wScrn=  0.000000 ICntrl=       500 IOpCl=  0 I1Cent=   200000004 NGrid=           0
         NMat0=    1 NMatS0=      1 NMatT0=    0 NMatD0=    1 NMtDS0=    0 NMtDT0=    0
 Petite list used in FoFCou.
 Harris En= -193.585025615653    
 JPrj=0 DoOrth=F DoCkMO=F.
 Initial guess <Sx>= 0.0000 <Sy>= 0.0000 <Sz>= 0.5000 <S**2>= 0.7500 S= 0.5000
 Leave Link  401 at Mon Mar 11 00:05:15 2019, MaxMem=   671088640 cpu:              18.5 elap:               1.0
 (Enter /shared/centos7/gaussian/g16/l502.exe)
 Keep R1 and R2 ints in memory in canonical form, NReq=416958841.
 FoFCou: FMM=F IPFlag=           0 FMFlag=           0 FMFlg1=           0
         NFxFlg=           0 DoJE=F BraDBF=F KetDBF=F FulRan=T
         wScrn=  0.000000 ICntrl=       600 IOpCl=  0 I1Cent=           0 NGrid=           0
         NMat0=    1 NMatS0=  19900 NMatT0=    0 NMatD0=    1 NMtDS0=    0 NMtDT0=    0
 Symmetry not used in FoFCou.
 Two-electron integral symmetry not used.
 UHF open shell SCF:
 Using DIIS extrapolation, IDIIS=  1040.
 NGot=   671088640 LenX=   274956345 LenY=   274907943
 Requested convergence on RMS density matrix=1.00D-08 within 128 cycles.
 Requested convergence on MAX density matrix=1.00D-06.
 Requested convergence on             energy=1.00D-06.
 No special actions if energy rises.

 Cycle   1  Pass 1  IDiag  1:
 E= -193.522041756530    
 DIIS: error= 3.49D-02 at cycle   1 NSaved=   1.
 NSaved= 1 IEnMin= 1 EnMin= -193.522041756530     IErMin= 1 ErrMin= 3.49D-02
 ErrMax= 3.49D-02  0.00D+00 EMaxC= 1.00D-01 BMatC= 6.34D-01 BMatP= 6.34D-01
 IDIUse=3 WtCom= 6.51D-01 WtEn= 3.49D-01
 Coeff-Com:  0.100D+01
 Coeff-En:   0.100D+01
 Coeff:      0.100D+01
 Gap=     0.235 Goal=   None    Shift=    0.000
 Gap=     0.396 Goal=   None    Shift=    0.000
 GapD=    0.235 DampG=1.000 DampE=0.500 DampFc=0.5000 IDamp=-1.
 Damping current iteration by 5.00D-01
 RMSDP=2.57D-03 MaxDP=1.13D-01              OVMax= 1.48D-01

 Cycle   2  Pass 1  IDiag  1:
 E= -193.592701195072     Delta-E=       -0.070659438542 Rises=F Damp=T
 DIIS: error= 5.61D-03 at cycle   2 NSaved=   2.
 NSaved= 2 IEnMin= 2 EnMin= -193.592701195072     IErMin= 2 ErrMin= 5.61D-03
 ErrMax= 5.61D-03  0.00D+00 EMaxC= 1.00D-01 BMatC= 4.73D-02 BMatP= 6.34D-01
 IDIUse=3 WtCom= 9.44D-01 WtEn= 5.61D-02
 Coeff-Com: -0.181D+00 0.118D+01
 Coeff-En:   0.000D+00 0.100D+01
 Coeff:     -0.171D+00 0.117D+01
 Gap=     0.242 Goal=   None    Shift=    0.000
 Gap=     0.403 Goal=   None    Shift=    0.000
 RMSDP=7.78D-04 MaxDP=3.61D-02 DE=-7.07D-02 OVMax= 7.34D-02

 Cycle   3  Pass 1  IDiag  1:
 E= -193.655386063454     Delta-E=       -0.062684868382 Rises=F Damp=F
 DIIS: error= 2.01D-03 at cycle   3 NSaved=   3.
 NSaved= 3 IEnMin= 3 EnMin= -193.655386063454     IErMin= 3 ErrMin= 2.01D-03
 ErrMax= 2.01D-03  0.00D+00 EMaxC= 1.00D-01 BMatC= 3.73D-03 BMatP= 4.73D-02
 IDIUse=3 WtCom= 9.80D-01 WtEn= 2.01D-02
 Coeff-Com: -0.734D-01 0.210D+00 0.863D+00
 Coeff-En:   0.000D+00 0.000D+00 0.100D+01
 Coeff:     -0.719D-01 0.206D+00 0.866D+00
 Gap=     0.236 Goal=   None    Shift=    0.000
 Gap=     0.366 Goal=   None    Shift=    0.000
 RMSDP=1.42D-04 MaxDP=5.13D-03 DE=-6.27D-02 OVMax= 1.08D-02

 Cycle   4  Pass 1  IDiag  1:
 E= -193.656247186677     Delta-E=       -0.000861123222 Rises=F Damp=F
 DIIS: error= 8.92D-04 at cycle   4 NSaved=   4.
 NSaved= 4 IEnMin= 4 EnMin= -193.656247186677     IErMin= 4 ErrMin= 8.92D-04
 ErrMax= 8.92D-04  0.00D+00 EMaxC= 1.00D-01 BMatC= 9.29D-04 BMatP= 3.73D-03
 IDIUse=3 WtCom= 9.91D-01 WtEn= 8.92D-03
 Coeff-Com: -0.237D-01 0.539D-01 0.371D+00 0.599D+00
 Coeff-En:   0.000D+00 0.000D+00 0.000D+00 0.100D+01
 Coeff:     -0.235D-01 0.534D-01 0.367D+00 0.603D+00
 Gap=     0.239 Goal=   None    Shift=    0.000
 Gap=     0.368 Goal=   None    Shift=    0.000
 RMSDP=6.31D-05 MaxDP=2.32D-03 DE=-8.61D-04 OVMax= 7.68D-03

 Cycle   5  Pass 1  IDiag  1:
 E= -193.656461920947     Delta-E=       -0.000214734270 Rises=F Damp=F
 DIIS: error= 4.17D-04 at cycle   5 NSaved=   5.
 NSaved= 5 IEnMin= 5 EnMin= -193.656461920947     IErMin= 5 ErrMin= 4.17D-04
 ErrMax= 4.17D-04  0.00D+00 EMaxC= 1.00D-01 BMatC= 1.63D-04 BMatP= 9.29D-04
 IDIUse=3 WtCom= 9.96D-01 WtEn= 4.17D-03
 Coeff-Com:  0.515D-02-0.204D-01-0.218D-01 0.240D+00 0.797D+00
 Coeff-En:   0.000D+00 0.000D+00 0.000D+00 0.000D+00 0.100D+01
 Coeff:      0.513D-02-0.204D-01-0.217D-01 0.239D+00 0.798D+00
 Gap=     0.240 Goal=   None    Shift=    0.000
 Gap=     0.368 Goal=   None    Shift=    0.000
 RMSDP=4.40D-05 MaxDP=1.91D-03 DE=-2.15D-04 OVMax= 4.14D-03

 Cycle   6  Pass 1  IDiag  1:
 E= -193.656522868670     Delta-E=       -0.000060947723 Rises=F Damp=F
 DIIS: error= 2.32D-04 at cycle   6 NSaved=   6.
 NSaved= 6 IEnMin= 6 EnMin= -193.656522868670     IErMin= 6 ErrMin= 2.32D-04
 ErrMax= 2.32D-04  0.00D+00 EMaxC= 1.00D-01 BMatC= 2.03D-05 BMatP= 1.63D-04
 IDIUse=3 WtCom= 9.98D-01 WtEn= 2.32D-03
 Coeff-Com:  0.606D-02-0.144D-01-0.918D-01-0.714D-01 0.686D-01 0.110D+01
 Coeff-En:   0.000D+00 0.000D+00 0.000D+00 0.000D+00 0.000D+00 0.100D+01
 Coeff:      0.605D-02-0.143D-01-0.916D-01-0.712D-01 0.685D-01 0.110D+01
 Gap=     0.240 Goal=   None    Shift=    0.000
 Gap=     0.369 Goal=   None    Shift=    0.000
 RMSDP=3.07D-05 MaxDP=1.30D-03 DE=-6.09D-05 OVMax= 4.87D-03

 Cycle   7  Pass 1  IDiag  1:
 E= -193.656542279149     Delta-E=       -0.000019410479 Rises=F Damp=F
 DIIS: error= 8.08D-05 at cycle   7 NSaved=   7.
 NSaved= 7 IEnMin= 7 EnMin= -193.656542279149     IErMin= 7 ErrMin= 8.08D-05
 ErrMax= 8.08D-05  0.00D+00 EMaxC= 1.00D-01 BMatC= 8.00D-06 BMatP= 2.03D-05
 IDIUse=1 WtCom= 1.00D+00 WtEn= 0.00D+00
 Coeff-Com:  0.103D-02-0.103D-02-0.333D-01-0.767D-01-0.173D+00 0.494D+00
 Coeff-Com:  0.789D+00
 Coeff:      0.103D-02-0.103D-02-0.333D-01-0.767D-01-0.173D+00 0.494D+00
 Coeff:      0.789D+00
 Gap=     0.241 Goal=   None    Shift=    0.000
 Gap=     0.369 Goal=   None    Shift=    0.000
 RMSDP=1.39D-05 MaxDP=5.63D-04 DE=-1.94D-05 OVMax= 1.59D-03

 Cycle   8  Pass 1  IDiag  1:
 E= -193.656545869551     Delta-E=       -0.000003590401 Rises=F Damp=F
 DIIS: error= 2.31D-05 at cycle   8 NSaved=   8.
 NSaved= 8 IEnMin= 8 EnMin= -193.656545869551     IErMin= 8 ErrMin= 2.31D-05
 ErrMax= 2.31D-05  0.00D+00 EMaxC= 1.00D-01 BMatC= 2.77D-07 BMatP= 8.00D-06
 IDIUse=1 WtCom= 1.00D+00 WtEn= 0.00D+00
 Coeff-Com: -0.109D-02 0.238D-02 0.162D-01 0.181D-01 0.763D-02-0.178D+00
 Coeff-Com: -0.856D-01 0.122D+01
 Coeff:     -0.109D-02 0.238D-02 0.162D-01 0.181D-01 0.763D-02-0.178D+00
 Coeff:     -0.856D-01 0.122D+01
 Gap=     0.241 Goal=   None    Shift=    0.000
 Gap=     0.369 Goal=   None    Shift=    0.000
 RMSDP=3.70D-06 MaxDP=1.67D-04 DE=-3.59D-06 OVMax= 5.59D-04

 Cycle   9  Pass 1  IDiag  1:
 E= -193.656546112243     Delta-E=       -0.000000242693 Rises=F Damp=F
 DIIS: error= 5.52D-06 at cycle   9 NSaved=   9.
 NSaved= 9 IEnMin= 9 EnMin= -193.656546112243     IErMin= 9 ErrMin= 5.52D-06
 ErrMax= 5.52D-06  0.00D+00 EMaxC= 1.00D-01 BMatC= 2.66D-08 BMatP= 2.77D-07
 IDIUse=1 WtCom= 1.00D+00 WtEn= 0.00D+00
 Coeff-Com: -0.152D-03 0.298D-03 0.393D-02 0.711D-02 0.989D-02-0.509D-01
 Coeff-Com: -0.666D-01 0.136D+00 0.961D+00
 Coeff:     -0.152D-03 0.298D-03 0.393D-02 0.711D-02 0.989D-02-0.509D-01
 Coeff:     -0.666D-01 0.136D+00 0.961D+00
 Gap=     0.241 Goal=   None    Shift=    0.000
 Gap=     0.369 Goal=   None    Shift=    0.000
 RMSDP=7.46D-07 MaxDP=3.52D-05 DE=-2.43D-07 OVMax= 1.11D-04

 Cycle  10  Pass 1  IDiag  1:
 E= -193.656546126754     Delta-E=       -0.000000014511 Rises=F Damp=F
 DIIS: error= 2.88D-06 at cycle  10 NSaved=  10.
 NSaved=10 IEnMin=10 EnMin= -193.656546126754     IErMin=10 ErrMin= 2.88D-06
 ErrMax= 2.88D-06  0.00D+00 EMaxC= 1.00D-01 BMatC= 4.83D-09 BMatP= 2.66D-08
 IDIUse=1 WtCom= 1.00D+00 WtEn= 0.00D+00
 Coeff-Com:  0.948D-04-0.207D-03-0.722D-03 0.208D-03 0.162D-02 0.715D-02
 Coeff-Com: -0.100D-01-0.105D+00 0.262D+00 0.845D+00
 Coeff:      0.948D-04-0.207D-03-0.722D-03 0.208D-03 0.162D-02 0.715D-02
 Coeff:     -0.100D-01-0.105D+00 0.262D+00 0.845D+00
 Gap=     0.241 Goal=   None    Shift=    0.000
 Gap=     0.369 Goal=   None    Shift=    0.000
 RMSDP=2.55D-07 MaxDP=8.09D-06 DE=-1.45D-08 OVMax= 2.43D-05

 Cycle  11  Pass 1  IDiag  1:
 E= -193.656546128623     Delta-E=       -0.000000001868 Rises=F Damp=F
 DIIS: error= 1.12D-06 at cycle  11 NSaved=  11.
 NSaved=11 IEnMin=11 EnMin= -193.656546128623     IErMin=11 ErrMin= 1.12D-06
 ErrMax= 1.12D-06  0.00D+00 EMaxC= 1.00D-01 BMatC= 5.39D-10 BMatP= 4.83D-09
 IDIUse=1 WtCom= 1.00D+00 WtEn= 0.00D+00
 Coeff-Com:  0.361D-04-0.778D-04-0.612D-03-0.775D-03-0.102D-02 0.769D-02
 Coeff-Com:  0.579D-02-0.379D-01-0.784D-01 0.196D+00 0.909D+00
 Coeff:      0.361D-04-0.778D-04-0.612D-03-0.775D-03-0.102D-02 0.769D-02
 Coeff:      0.579D-02-0.379D-01-0.784D-01 0.196D+00 0.909D+00
 Gap=     0.241 Goal=   None    Shift=    0.000
 Gap=     0.369 Goal=   None    Shift=    0.000
 RMSDP=9.87D-08 MaxDP=3.48D-06 DE=-1.87D-09 OVMax= 7.79D-06

 Cycle  12  Pass 1  IDiag  1:
 E= -193.656546128843     Delta-E=       -0.000000000220 Rises=F Damp=F
 DIIS: error= 1.55D-07 at cycle  12 NSaved=  12.
 NSaved=12 IEnMin=12 EnMin= -193.656546128843     IErMin=12 ErrMin= 1.55D-07
 ErrMax= 1.55D-07  0.00D+00 EMaxC= 1.00D-01 BMatC= 2.40D-11 BMatP= 5.39D-10
 IDIUse=1 WtCom= 1.00D+00 WtEn= 0.00D+00
 Coeff-Com: -0.752D-05 0.152D-04 0.431D-04 0.317D-05-0.450D-04-0.397D-03
 Coeff-Com:  0.557D-03 0.731D-02-0.233D-01-0.545D-01 0.259D-01 0.104D+01
 Coeff:     -0.752D-05 0.152D-04 0.431D-04 0.317D-05-0.450D-04-0.397D-03
 Coeff:      0.557D-03 0.731D-02-0.233D-01-0.545D-01 0.259D-01 0.104D+01
 Gap=     0.241 Goal=   None    Shift=    0.000
 Gap=     0.369 Goal=   None    Shift=    0.000
 RMSDP=3.57D-08 MaxDP=9.56D-07 DE=-2.20D-10 OVMax= 2.28D-06

 Cycle  13  Pass 1  IDiag  1:
 E= -193.656546128858     Delta-E=       -0.000000000016 Rises=F Damp=F
 DIIS: error= 4.03D-08 at cycle  13 NSaved=  13.
 NSaved=13 IEnMin=13 EnMin= -193.656546128858     IErMin=13 ErrMin= 4.03D-08
 ErrMax= 4.03D-08  0.00D+00 EMaxC= 1.00D-01 BMatC= 1.60D-12 BMatP= 2.40D-11
 IDIUse=1 WtCom= 1.00D+00 WtEn= 0.00D+00
 Coeff-Com: -0.184D-05 0.410D-05 0.309D-04 0.349D-04 0.450D-04-0.385D-03
 Coeff-Com: -0.324D-03 0.227D-02 0.394D-02-0.128D-01-0.584D-01-0.109D-01
 Coeff-Com:  0.108D+01
 Coeff:     -0.184D-05 0.410D-05 0.309D-04 0.349D-04 0.450D-04-0.385D-03
 Coeff:     -0.324D-03 0.227D-02 0.394D-02-0.128D-01-0.584D-01-0.109D-01
 Coeff:      0.108D+01
 Gap=     0.241 Goal=   None    Shift=    0.000
 Gap=     0.369 Goal=   None    Shift=    0.000
 RMSDP=9.01D-09 MaxDP=3.17D-07 DE=-1.58D-11 OVMax= 6.52D-07

 SCF Done:  E(UM062X) =  -193.656546129     A.U. after   13 cycles
            NFock= 13  Conv=0.90D-08     -V/T= 2.0037
 <Sx>= 0.0000 <Sy>= 0.0000 <Sz>= 0.5000 <S**2>= 0.7543 S= 0.5022
 <L.S>= 0.000000000000E+00
 KE= 1.929334246009D+02 PE=-7.034076113775D+02 EE= 1.910525726916D+02
 Annihilation of the first spin contaminant:
 S**2 before annihilation     0.7543,   after     0.7500
 Leave Link  502 at Mon Mar 11 00:05:53 2019, MaxMem=   671088640 cpu:             565.7 elap:              38.0
 (Enter /shared/centos7/gaussian/g16/l801.exe)
 DoSCS=F DFT=T ScalE2(SS,OS)=  1.000000  1.000000
 Range of M.O.s used for correlation:     1   199
 NBasis=   199 NAE=    17 NBE=    16 NFC=     0 NFV=     0
 NROrb=    199 NOA=    17 NOB=    16 NVA=   182 NVB=   183

 **** Warning!!: The largest alpha MO coefficient is  0.30318984D+02


 **** Warning!!: The largest beta MO coefficient is  0.39753737D+02

 Leave Link  801 at Mon Mar 11 00:05:53 2019, MaxMem=   671088640 cpu:               0.7 elap:               0.1
 (Enter /shared/centos7/gaussian/g16/l1101.exe)
 Using compressed storage, NAtomX=    11.
 Will process     12 centers per pass.
 Leave Link 1101 at Mon Mar 11 00:05:53 2019, MaxMem=   671088640 cpu:               7.1 elap:               0.4
 (Enter /shared/centos7/gaussian/g16/l1102.exe)
 Symmetrizing basis deriv contribution to polar:
 IMax=3 JMax=2 DiffMx= 0.00D+00
 Leave Link 1102 at Mon Mar 11 00:05:53 2019, MaxMem=   671088640 cpu:               0.6 elap:               0.1
 (Enter /shared/centos7/gaussian/g16/l1110.exe)
 Forming Gx(P) for the SCF density, NAtomX=    11.
 Integral derivatives from FoFJK, PRISM(SPDF).
 Do as many integral derivatives as possible in FoFJK.
 G2DrvN: MDV=     671087712.
 G2DrvN: will do    12 centers at a time, making    1 passes.
 Calling FoFCou, ICntrl=  3107 FMM=F I1Cent=   0 AccDes= 0.00D+00.
 FoFJK:  IHMeth= 1 ICntrl=    3107 DoSepK=F KAlg= 0 I1Cent=           0 FoldK=F
 IRaf=         0 NMat=       1 IRICut=       1 DoRegI=T DoRafI=F ISym2E= 0 IDoP0=0 IntGTp=1.
 FoFCou: FMM=F IPFlag=           0 FMFlag=      100000 FMFlg1=           0
         NFxFlg=           0 DoJE=F BraDBF=F KetDBF=F FulRan=T
         wScrn=  0.000000 ICntrl=      3107 IOpCl=  1 I1Cent=           0 NGrid=           0
         NMat0=    1 NMatS0=      1 NMatT0=    0 NMatD0=    1 NMtDS0=    0 NMtDT0=    0
 Symmetry not used in FoFCou.
 End of G2Drv F.D. properties file   721 does not exist.
 End of G2Drv F.D. properties file   722 does not exist.
 End of G2Drv F.D. properties file   788 does not exist.
 Leave Link 1110 at Mon Mar 11 00:06:55 2019, MaxMem=   671088640 cpu:            1238.1 elap:              61.9
 (Enter /shared/centos7/gaussian/g16/l1002.exe)
 Minotr:  UHF open shell wavefunction.
          IDoAtm=11111111111
          Direct CPHF calculation.
          Differentiating once with respect to nuclear coordinates.
          Requested convergence is 1.0D-08 RMS, and 1.0D-07 maximum.
          Secondary convergence is 1.0D-12 RMS, and 1.0D-12 maximum.
          NewPWx=T KeepS1=F KeepF1=F KeepIn=T MapXYZ=F SortEE=F KeepMc=T.
         3349 words used for storage of precomputed grid.
 Keep R1 and R2 ints in memory in canonical form, NReq=416899978.
 FoFCou: FMM=F IPFlag=           0 FMFlag=           0 FMFlg1=           0
         NFxFlg=           0 DoJE=F BraDBF=F KetDBF=F FulRan=T
         wScrn=  0.000000 ICntrl=       600 IOpCl=  0 I1Cent=           0 NGrid=           0
         NMat0=    1 NMatS0=  19900 NMatT0=    0 NMatD0=    1 NMtDS0=    0 NMtDT0=    0
 Symmetry not used in FoFCou.
 Two-electron integral symmetry not used.
          MDV=     671088640 using IRadAn=       1.
          Solving linear equations simultaneously, MaxMat=       0.
          There are    36 degrees of freedom in the 1st order CPHF.  IDoFFX=6 NUNeed=     0.
     30 vectors produced by pass  0 Test12= 1.67D-14 2.78D-09 XBig12= 1.46D-01 6.71D-02.
 AX will form    30 AO Fock derivatives at one time.
     30 vectors produced by pass  1 Test12= 1.67D-14 2.78D-09 XBig12= 8.72D-03 2.49D-02.
     30 vectors produced by pass  2 Test12= 1.67D-14 2.78D-09 XBig12= 4.30D-04 4.43D-03.
     30 vectors produced by pass  3 Test12= 1.67D-14 2.78D-09 XBig12= 5.82D-06 3.65D-04.
     30 vectors produced by pass  4 Test12= 1.67D-14 2.78D-09 XBig12= 9.07D-08 3.49D-05.
     30 vectors produced by pass  5 Test12= 1.67D-14 2.78D-09 XBig12= 1.17D-09 3.25D-06.
     30 vectors produced by pass  6 Test12= 1.67D-14 2.78D-09 XBig12= 9.50D-12 3.55D-07.
     12 vectors produced by pass  7 Test12= 1.67D-14 2.78D-09 XBig12= 7.12D-14 2.70D-08.
 InvSVY:  IOpt=1 It=  1 EMax= 1.78D-15
 Solved reduced A of dimension   222 with    30 vectors.
 End of Minotr F.D. properties file   721 does not exist.
 End of Minotr F.D. properties file   722 does not exist.
 End of Minotr F.D. properties file   788 does not exist.
 Leave Link 1002 at Mon Mar 11 00:08:16 2019, MaxMem=   671088640 cpu:            1605.9 elap:              80.4
 (Enter /shared/centos7/gaussian/g16/l601.exe)
 Copying SCF densities to generalized density rwf, IOpCl= 1 IROHF=0.

 **********************************************************************

            Population analysis using the SCF density.

 **********************************************************************

 Orbital symmetries:
 Alpha Orbitals:
       Occupied  (A) (A) (A) (A) (A) (A) (A) (A) (A) (A) (A) (A)
                 (A) (A) (A) (A) (A)
       Virtual   (A) (A) (A) (A) (A) (A) (A) (A) (A) (A) (A) (A)
                 (A) (A) (A) (A) (A) (A) (A) (A) (A) (A) (A) (A)
                 (A) (A) (A) (A) (A) (A) (A) (A) (A) (A) (A) (A)
                 (A) (A) (A) (A) (A) (A) (A) (A) (A) (A) (A) (A)
                 (A) (A) (A) (A) (A) (A) (A) (A) (A) (A) (A) (A)
                 (A) (A) (A) (A) (A) (A) (A) (A) (A) (A) (A) (A)
                 (A) (A) (A) (A) (A) (A) (A) (A) (A) (A) (A) (A)
                 (A) (A) (A) (A) (A) (A) (A) (A) (A) (A) (A) (A)
                 (A) (A) (A) (A) (A) (A) (A) (A) (A) (A) (A) (A)
                 (A) (A) (A) (A) (A) (A) (A) (A) (A) (A) (A) (A)
                 (A) (A) (A) (A) (A) (A) (A) (A) (A) (A) (A) (A)
                 (A) (A) (A) (A) (A) (A) (A) (A) (A) (A) (A) (A)
                 (A) (A) (A) (A) (A) (A) (A) (A) (A) (A) (A) (A)
                 (A) (A) (A) (A) (A) (A) (A) (A) (A) (A) (A) (A)
                 (A) (A) (A) (A) (A) (A) (A) (A) (A) (A) (A) (A)
                 (A) (A)
 Beta  Orbitals:
       Occupied  (A) (A) (A) (A) (A) (A) (A) (A) (A) (A) (A) (A)
                 (A) (A) (A) (A)
       Virtual   (A) (A) (A) (A) (A) (A) (A) (A) (A) (A) (A) (A)
                 (A) (A) (A) (A) (A) (A) (A) (A) (A) (A) (A) (A)
                 (A) (A) (A) (A) (A) (A) (A) (A) (A) (A) (A) (A)
                 (A) (A) (A) (A) (A) (A) (A) (A) (A) (A) (A) (A)
                 (A) (A) (A) (A) (A) (A) (A) (A) (A) (A) (A) (A)
                 (A) (A) (A) (A) (A) (A) (A) (A) (A) (A) (A) (A)
                 (A) (A) (A) (A) (A) (A) (A) (A) (A) (A) (A) (A)
                 (A) (A) (A) (A) (A) (A) (A) (A) (A) (A) (A) (A)
                 (A) (A) (A) (A) (A) (A) (A) (A) (A) (A) (A) (A)
                 (A) (A) (A) (A) (A) (A) (A) (A) (A) (A) (A) (A)
                 (A) (A) (A) (A) (A) (A) (A) (A) (A) (A) (A) (A)
                 (A) (A) (A) (A) (A) (A) (A) (A) (A) (A) (A) (A)
                 (A) (A) (A) (A) (A) (A) (A) (A) (A) (A) (A) (A)
                 (A) (A) (A) (A) (A) (A) (A) (A) (A) (A) (A) (A)
                 (A) (A) (A) (A) (A) (A) (A) (A) (A) (A) (A) (A)
                 (A) (A) (A)
 The electronic state is 2-A.
 Alpha  occ. eigenvalues --  -19.64973 -10.58346 -10.57739 -10.52558  -1.19023
 Alpha  occ. eigenvalues --   -0.86378  -0.78125  -0.68317  -0.57985  -0.55380
 Alpha  occ. eigenvalues --   -0.54130  -0.48226  -0.45279  -0.44364  -0.41035
 Alpha  occ. eigenvalues --   -0.39503  -0.21936
 Alpha virt. eigenvalues --    0.02127   0.03119   0.04369   0.05103   0.05645
 Alpha virt. eigenvalues --    0.07027   0.07620   0.09350   0.10248   0.12166
 Alpha virt. eigenvalues --    0.14874   0.15717   0.18482   0.18878   0.19824
 Alpha virt. eigenvalues --    0.21646   0.21763   0.23473   0.24625   0.25238
 Alpha virt. eigenvalues --    0.28440   0.28837   0.30399   0.32579   0.36401
 Alpha virt. eigenvalues --    0.37287   0.42763   0.43990   0.45401   0.47360
 Alpha virt. eigenvalues --    0.50206   0.52080   0.53700   0.54778   0.56640
 Alpha virt. eigenvalues --    0.57822   0.58640   0.59739   0.60507   0.62623
 Alpha virt. eigenvalues --    0.64458   0.65680   0.68613   0.71206   0.74366
 Alpha virt. eigenvalues --    0.78367   0.79068   0.82926   0.86481   0.89477
 Alpha virt. eigenvalues --    0.91901   0.92558   0.96188   0.98499   1.01062
 Alpha virt. eigenvalues --    1.04026   1.05783   1.07624   1.11955   1.13094
 Alpha virt. eigenvalues --    1.14106   1.16727   1.17877   1.20605   1.23356
 Alpha virt. eigenvalues --    1.24701   1.27907   1.30433   1.31208   1.34836
 Alpha virt. eigenvalues --    1.37396   1.38019   1.40672   1.42059   1.43369
 Alpha virt. eigenvalues --    1.44121   1.46020   1.49507   1.50928   1.53414
 Alpha virt. eigenvalues --    1.57684   1.59123   1.62783   1.69153   1.73992
 Alpha virt. eigenvalues --    1.97118   2.00772   2.14587   2.25059   2.34829
 Alpha virt. eigenvalues --    2.39238   2.43632   2.44548   2.52117   2.54796
 Alpha virt. eigenvalues --    2.58528   2.65855   2.77693   2.83271   2.86655
 Alpha virt. eigenvalues --    2.88553   2.96123   2.96809   3.00400   3.04675
 Alpha virt. eigenvalues --    3.06923   3.08340   3.10126   3.12541   3.13701
 Alpha virt. eigenvalues --    3.14418   3.16592   3.18811   3.24464   3.29155
 Alpha virt. eigenvalues --    3.31411   3.33488   3.33888   3.38492   3.42561
 Alpha virt. eigenvalues --    3.45324   3.45744   3.49429   3.51431   3.54013
 Alpha virt. eigenvalues --    3.56792   3.60386   3.64839   3.68258   3.74819
 Alpha virt. eigenvalues --    3.79684   3.85608   3.87071   3.89289   3.91996
 Alpha virt. eigenvalues --    3.96597   3.98086   4.00038   4.08185   4.08879
 Alpha virt. eigenvalues --    4.12454   4.15056   4.19223   4.22712   4.23177
 Alpha virt. eigenvalues --    4.26851   4.29786   4.32025   4.35231   4.37620
 Alpha virt. eigenvalues --    4.41913   4.45850   4.50757   4.55095   4.66759
 Alpha virt. eigenvalues --    4.69435   4.92965   5.13433   5.18448   5.27230
 Alpha virt. eigenvalues --    5.29336   5.46767   5.48458   5.56760   5.57057
 Alpha virt. eigenvalues --    5.62166   5.62913   5.68947   5.82541   5.88048
 Alpha virt. eigenvalues --    6.29037   6.46958   6.77936   7.11992   7.20111
 Alpha virt. eigenvalues --    7.27955   7.69531   7.73115  24.33932  24.43291
 Alpha virt. eigenvalues --   24.53968  50.16566
  Beta  occ. eigenvalues --  -19.64618 -10.58351 -10.57013 -10.52604  -1.17806
  Beta  occ. eigenvalues --   -0.85086  -0.77874  -0.66382  -0.57041  -0.53665
  Beta  occ. eigenvalues --   -0.53068  -0.46794  -0.45072  -0.43818  -0.40061
  Beta  occ. eigenvalues --   -0.37306
  Beta virt. eigenvalues --   -0.00438   0.01985   0.03040   0.04093   0.05168
  Beta virt. eigenvalues --    0.05505   0.06959   0.07539   0.09139   0.09710
  Beta virt. eigenvalues --    0.12368   0.13678   0.14782   0.18219   0.18837
  Beta virt. eigenvalues --    0.19888   0.21510   0.21883   0.24066   0.24567
  Beta virt. eigenvalues --    0.25371   0.28313   0.28651   0.30968   0.33586
  Beta virt. eigenvalues --    0.36542   0.37319   0.43001   0.43977   0.45615
  Beta virt. eigenvalues --    0.47401   0.50646   0.52424   0.53539   0.54879
  Beta virt. eigenvalues --    0.56432   0.57541   0.58840   0.60496   0.61212
  Beta virt. eigenvalues --    0.62862   0.64605   0.65861   0.68545   0.71488
  Beta virt. eigenvalues --    0.74625   0.78334   0.79065   0.83112   0.86336
  Beta virt. eigenvalues --    0.88968   0.91854   0.92173   0.96181   0.98190
  Beta virt. eigenvalues --    1.01273   1.04209   1.05757   1.08046   1.12008
  Beta virt. eigenvalues --    1.13057   1.13940   1.16637   1.17775   1.20806
  Beta virt. eigenvalues --    1.23837   1.24417   1.27584   1.30928   1.31686
  Beta virt. eigenvalues --    1.35339   1.37666   1.38211   1.40705   1.42151
  Beta virt. eigenvalues --    1.43086   1.44276   1.45908   1.49835   1.50778
  Beta virt. eigenvalues --    1.53719   1.57563   1.59000   1.62730   1.69062
  Beta virt. eigenvalues --    1.74646   1.97973   2.01156   2.15114   2.25554
  Beta virt. eigenvalues --    2.35514   2.39555   2.44152   2.45319   2.52574
  Beta virt. eigenvalues --    2.55379   2.59144   2.66725   2.81016   2.86406
  Beta virt. eigenvalues --    2.89945   2.90970   2.96661   2.97360   3.02616
  Beta virt. eigenvalues --    3.05889   3.07942   3.08808   3.11889   3.13060
  Beta virt. eigenvalues --    3.14886   3.15367   3.16894   3.19677   3.25749
  Beta virt. eigenvalues --    3.30559   3.33854   3.34966   3.36309   3.40177
  Beta virt. eigenvalues --    3.45384   3.45704   3.48064   3.51195   3.51984
  Beta virt. eigenvalues --    3.55328   3.58538   3.61804   3.67405   3.70584
  Beta virt. eigenvalues --    3.75809   3.80968   3.85733   3.87356   3.89914
  Beta virt. eigenvalues --    3.92280   3.97651   3.99517   4.01130   4.09051
  Beta virt. eigenvalues --    4.09693   4.13434   4.15222   4.19804   4.23009
  Beta virt. eigenvalues --    4.24348   4.28426   4.29960   4.32210   4.36332
  Beta virt. eigenvalues --    4.37926   4.42026   4.46338   4.51849   4.56553
  Beta virt. eigenvalues --    4.70557   4.72301   4.93124   5.16034   5.19850
  Beta virt. eigenvalues --    5.27842   5.29975   5.47869   5.50554   5.56729
  Beta virt. eigenvalues --    5.57301   5.62113   5.63654   5.69642   5.83383
  Beta virt. eigenvalues --    5.88827   6.29407   6.47306   6.78614   7.12768
  Beta virt. eigenvalues --    7.20991   7.28893   7.69881   7.73055  24.34374
  Beta virt. eigenvalues --   24.43273  24.54948  50.16327
          Condensed to atoms (all electrons):
               1          2          3          4          5          6
     1  O    8.195012  -0.106008   0.150403   0.047948   0.002219  -0.000633
     2  C   -0.106008   5.075141  -0.034291   0.325595   0.399966   0.408199
     3  C    0.150403  -0.034291   4.931454  -0.103935   0.000903   0.001138
     4  C    0.047948   0.325595  -0.103935   5.570175  -0.045502  -0.049706
     5  H    0.002219   0.399966   0.000903  -0.045502   0.586865  -0.042341
     6  H   -0.000633   0.408199   0.001138  -0.049706  -0.042341   0.559400
     7  H    0.010852   0.422809   0.001675  -0.048296  -0.030004  -0.022687
     8  H   -0.041278  -0.006364   0.434688   0.006893   0.000079  -0.000130
     9  H   -0.054764   0.002635   0.422476   0.014565   0.000038   0.000009
    10  H   -0.047588  -0.001036   0.432552  -0.008325  -0.000310   0.000085
    11  H   -0.043629  -0.033502   0.010251   0.401849  -0.002455   0.005462
               7          8          9         10         11
     1  O    0.010852  -0.041278  -0.054764  -0.047588  -0.043629
     2  C    0.422809  -0.006364   0.002635  -0.001036  -0.033502
     3  C    0.001675   0.434688   0.422476   0.432552   0.010251
     4  C   -0.048296   0.006893   0.014565  -0.008325   0.401849
     5  H   -0.030004   0.000079   0.000038  -0.000310  -0.002455
     6  H   -0.022687  -0.000130   0.000009   0.000085   0.005462
     7  H    0.542085   0.000013   0.000008   0.000019  -0.004625
     8  H    0.000013   0.554388  -0.023575  -0.050009  -0.004003
     9  H    0.000008  -0.023575   0.536262  -0.025653  -0.000213
    10  H    0.000019  -0.050009  -0.025653   0.576124   0.006464
    11  H   -0.004625  -0.004003  -0.000213   0.006464   0.515229
          Atomic-Atomic Spin Densities.
               1          2          3          4          5          6
     1  O    0.256337   0.020569   0.019990  -0.237137   0.009455   0.004418
     2  C    0.020569  -0.035410  -0.002346  -0.063982   0.010155   0.012347
     3  C    0.019990  -0.002346   0.018367  -0.013322   0.001800   0.000221
     4  C   -0.237137  -0.063982  -0.013322   1.314680  -0.032129  -0.028672
     5  H    0.009455   0.010155   0.001800  -0.032129   0.089596  -0.018891
     6  H    0.004418   0.012347   0.000221  -0.028672  -0.018891   0.046375
     7  H   -0.000232   0.009228  -0.000389  -0.011355  -0.004790   0.003049
     8  H   -0.007494  -0.002052   0.002635   0.015141   0.000197  -0.000264
     9  H   -0.000074   0.000221  -0.004317   0.002570   0.000006  -0.000008
    10  H   -0.007074   0.000587  -0.002040   0.000326  -0.000492   0.000192
    11  H   -0.000215   0.005329   0.002251  -0.024105  -0.004967   0.001903
               7          8          9         10         11
     1  O   -0.000232  -0.007494  -0.000074  -0.007074  -0.000215
     2  C    0.009228  -0.002052   0.000221   0.000587   0.005329
     3  C   -0.000389   0.002635  -0.004317  -0.002040   0.002251
     4  C   -0.011355   0.015141   0.002570   0.000326  -0.024105
     5  H   -0.004790   0.000197   0.000006  -0.000492  -0.004967
     6  H    0.003049  -0.000264  -0.000008   0.000192   0.001903
     7  H    0.008072  -0.000032   0.000001   0.000031   0.001177
     8  H   -0.000032  -0.001994   0.001673  -0.004663  -0.001871
     9  H    0.000001   0.001673  -0.000672   0.000357  -0.000060
    10  H    0.000031  -0.004663   0.000357   0.012012   0.003966
    11  H    0.001177  -0.001871  -0.000060   0.003966  -0.021001
 Mulliken charges and spin densities:
               1          2
     1  O   -0.112534   0.058544
     2  C   -0.453144  -0.045356
     3  C   -0.247315   0.022848
     4  C   -0.111260   0.922014
     5  H    0.130543   0.049940
     6  H    0.141203   0.020670
     7  H    0.128151   0.004760
     8  H    0.129298   0.001275
     9  H    0.128212  -0.000304
    10  H    0.117676   0.003202
    11  H    0.149171  -0.037594
 Sum of Mulliken charges =  -0.00000   1.00000
 Mulliken charges and spin densities with hydrogens summed into heavy atoms:
               1          2
     1  O   -0.112534   0.058544
     2  C   -0.053247   0.030015
     3  C    0.127871   0.027021
     4  C    0.037910   0.884421
 APT charges:
               1
     1  O   -0.049530
     2  C   -1.175718
     3  C   -1.161416
     4  C   -0.273760
     5  H    0.328220
     6  H    0.336266
     7  H    0.472281
     8  H    0.359954
     9  H    0.478848
    10  H    0.338710
    11  H    0.346147
 Sum of APT charges =  -0.00000
 APT charges with hydrogens summed into heavy atoms:
               1
     1  O   -0.049530
     2  C   -0.038952
     3  C    0.016096
     4  C    0.072386
 Electronic spatial extent (au):  <R**2>=            357.7357
 Charge=             -0.0000 electrons
 Dipole moment (field-independent basis, Debye):
    X=             -0.6272    Y=              0.8352    Z=              0.3178  Tot=              1.0917
 Quadrupole moment (field-independent basis, Debye-Ang):
   XX=            -22.2999   YY=            -26.6204   ZZ=            -27.0924
   XY=             -0.2224   XZ=              0.0635   YZ=              0.6542
 Traceless Quadrupole moment (field-independent basis, Debye-Ang):
   XX=              3.0377   YY=             -1.2828   ZZ=             -1.7548
   XY=             -0.2224   XZ=              0.0635   YZ=              0.6542
 Octapole moment (field-independent basis, Debye-Ang**2):
  XXX=             -7.9150  YYY=             -1.3919  ZZZ=              1.3822  XYY=             -0.9658
  XXY=             -1.4239  XXZ=             -0.1007  XZZ=             -1.6098  YZZ=             -1.5507
  YYZ=              0.7439  XYZ=              0.2094
 Hexadecapole moment (field-independent basis, Debye-Ang**3):
 XXXX=           -371.8924 YYYY=            -65.7321 ZZZZ=            -44.8365 XXXY=              7.9285
 XXXZ=             -1.7544 YYYX=              2.3874 YYYZ=              2.2368 ZZZX=              1.6380
 ZZZY=              1.0209 XXYY=            -71.2768 XXZZ=            -70.8381 YYZZ=            -18.9176
 XXYZ=             -0.4634 YYXZ=             -1.2238 ZZXY=             -2.3757
 N-N= 1.257650679562D+02 E-N=-7.034076110817D+02  KE= 1.929334246009D+02
  Exact polarizability:   0.000   0.000   0.000   0.000   0.000   0.000
 Approx polarizability:  50.374   0.016  46.851   0.457  -0.600  43.990
                          Isotropic Fermi Contact Couplings
        Atom                 a.u.       MegaHertz       Gauss      10(-4) cm-1
     1  O(17)              0.02759     -16.72643      -5.96841      -5.57934
     2  C(13)             -0.01993     -22.40250      -7.99377      -7.47267
     3  C(13)             -0.00059      -0.66649      -0.23782      -0.22232
     4  C(13)              0.20738     233.13756      83.18928      77.76632
     5  H(1)               0.02398     107.18806      38.24737      35.75409
     6  H(1)               0.01027      45.90244      16.37913      15.31140
     7  H(1)               0.00161       7.18741       2.56465       2.39746
     8  H(1)               0.00132       5.91823       2.11177       1.97411
     9  H(1)              -0.00049      -2.18112      -0.77828      -0.72754
    10  H(1)               0.00169       7.54886       2.69362       2.51803
    11  H(1)              -0.00727     -32.47718     -11.58867     -10.83322
 --------------------------------------------------------
       Center         ----  Spin Dipole Couplings  ----
                      3XX-RR        3YY-RR        3ZZ-RR
 --------------------------------------------------------
     1   Atom       -0.364951     -0.389130      0.754081
     2   Atom        0.010671     -0.006581     -0.004091
     3   Atom        0.017817     -0.007521     -0.010296
     4   Atom       -0.498297     -0.470230      0.968527
     5   Atom        0.006060     -0.003787     -0.002272
     6   Atom        0.005651      0.002835     -0.008486
     7   Atom        0.018453     -0.010373     -0.008080
     8   Atom        0.013599     -0.006710     -0.006889
     9   Atom        0.009352     -0.004778     -0.004574
    10   Atom        0.009327     -0.005229     -0.004098
    11   Atom       -0.056686      0.050721      0.005964
 --------------------------------------------------------
                        XY            XZ            YZ
 --------------------------------------------------------
     1   Atom       -0.027944     -0.022822     -0.093838
     2   Atom       -0.011616      0.008635     -0.004003
     3   Atom       -0.000973     -0.005649     -0.000428
     4   Atom       -0.018757      0.094693     -0.211581
     5   Atom       -0.007755      0.007415     -0.005148
     6   Atom       -0.013493     -0.004235      0.002971
     7   Atom        0.001385      0.001098      0.000022
     8   Atom       -0.001424      0.005345     -0.001334
     9   Atom        0.004046     -0.001109     -0.000551
    10   Atom       -0.003795     -0.006469      0.001262
    11   Atom       -0.029379     -0.002585      0.026275
 --------------------------------------------------------


 ---------------------------------------------------------------------------------
              Anisotropic Spin Dipole Couplings in Principal Axis System
 ---------------------------------------------------------------------------------

       Atom             a.u.   MegaHertz   Gauss  10(-4) cm-1        Axes

              Baa    -0.4147    30.005    10.706    10.008  0.5157  0.8532  0.0786
     1 O(17)  Bbb    -0.3474    25.141     8.971     8.386  0.8566 -0.5153 -0.0262
              Bcc     0.7621   -55.145   -19.677   -18.394 -0.0182 -0.0808  0.9966
 
              Baa    -0.0124    -1.669    -0.596    -0.557  0.4656  0.8831 -0.0582
     2 C(13)  Bbb    -0.0078    -1.046    -0.373    -0.349 -0.2975  0.2181  0.9295
              Bcc     0.0202     2.715     0.969     0.906  0.8335 -0.4154  0.3642
 
              Baa    -0.0115    -1.541    -0.550    -0.514  0.1920  0.1519  0.9696
     3 C(13)  Bbb    -0.0075    -1.001    -0.357    -0.334  0.0033  0.9878 -0.1554
              Bcc     0.0189     2.541     0.907     0.848  0.9814 -0.0330 -0.1891
 
              Baa    -0.5080   -68.167   -24.324   -22.738  0.8199  0.5718  0.0294
     4 C(13)  Bbb    -0.4972   -66.718   -23.807   -22.255 -0.5689  0.8079  0.1534
              Bcc     1.0052   134.885    48.130    44.993  0.0640 -0.1425  0.9877
 
              Baa    -0.0085    -4.537    -1.619    -1.513  0.2471  0.8707  0.4254
     5 H(1)   Bbb    -0.0065    -3.466    -1.237    -1.156 -0.5909 -0.2125  0.7783
              Bcc     0.0150     8.003     2.856     2.669  0.7680 -0.4436  0.4619
 
              Baa    -0.0100    -5.340    -1.906    -1.781  0.5482  0.4069  0.7307
     6 H(1)   Bbb    -0.0088    -4.678    -1.669    -1.560 -0.4031 -0.6370  0.6571
              Bcc     0.0188    10.019     3.575     3.342  0.7328 -0.6548 -0.1852
 
              Baa    -0.0104    -5.570    -1.988    -1.858 -0.0484  0.9987  0.0132
     7 H(1)   Bbb    -0.0081    -4.335    -1.547    -1.446 -0.0405 -0.0151  0.9991
              Bcc     0.0186     9.905     3.534     3.304  0.9980  0.0478  0.0412
 
              Baa    -0.0087    -4.637    -1.655    -1.547 -0.1796  0.4572  0.8710
     8 H(1)   Bbb    -0.0064    -3.389    -1.209    -1.130  0.1780  0.8859 -0.4283
              Bcc     0.0150     8.026     2.864     2.677  0.9675 -0.0781  0.2405
 
              Baa    -0.0059    -3.150    -1.124    -1.051 -0.2381  0.9514  0.1955
     9 H(1)   Bbb    -0.0046    -2.466    -0.880    -0.823  0.1266 -0.1692  0.9774
              Bcc     0.0105     5.616     2.004     1.873  0.9630  0.2575 -0.0801
 
              Baa    -0.0068    -3.625    -1.294    -1.209  0.4173  0.3285  0.8473
    10 H(1)   Bbb    -0.0060    -3.215    -1.147    -1.072  0.0638  0.9195 -0.3879
              Bcc     0.0128     6.840     2.441     2.282  0.9065 -0.2160 -0.3628
 
              Baa    -0.0644   -34.384   -12.269   -11.469  0.9637  0.2599 -0.0616
    11 H(1)   Bbb    -0.0046    -2.457    -0.877    -0.820  0.1548 -0.3555  0.9217
              Bcc     0.0690    36.841    13.146    12.289 -0.2177  0.8978  0.3829
 

 ---------------------------------------------------------------------------------

 No NMR shielding tensors so no spin-rotation constants.
 Leave Link  601 at Mon Mar 11 00:08:16 2019, MaxMem=   671088640 cpu:               9.2 elap:               0.5
 (Enter /shared/centos7/gaussian/g16/l701.exe)
 ... and contract with generalized density number  0.
 Compute integral second derivatives.
 Leave Link  701 at Mon Mar 11 00:08:17 2019, MaxMem=   671088640 cpu:               8.6 elap:               0.5
 (Enter /shared/centos7/gaussian/g16/l702.exe)
 L702 exits ... SP integral derivatives will be done elsewhere.
 Leave Link  702 at Mon Mar 11 00:08:17 2019, MaxMem=   671088640 cpu:               0.5 elap:               0.1
 (Enter /shared/centos7/gaussian/g16/l703.exe)
 Integral derivatives from FoFJK, PRISM(SPDF).
 Compute integral second derivatives, UseDBF=F ICtDFT=           0.
 Calling FoFJK, ICntrl=    100147 FMM=F ISym2X=0 I1Cent= 0 IOpClX= 1 NMat=1 NMatS=1 NMatT=0.
 FoFJK:  IHMeth= 1 ICntrl=  100147 DoSepK=F KAlg= 0 I1Cent=           0 FoldK=F
 IRaf=         0 NMat=       1 IRICut=       1 DoRegI=T DoRafI=F ISym2E= 0 IDoP0=0 IntGTp=1.
 FoFCou: FMM=F IPFlag=           0 FMFlag=      100000 FMFlg1=         800
         NFxFlg=           0 DoJE=F BraDBF=F KetDBF=F FulRan=T
         wScrn=  0.000000 ICntrl=    100147 IOpCl=  1 I1Cent=           0 NGrid=           0
         NMat0=    1 NMatS0=      1 NMatT0=    0 NMatD0=    1 NMtDS0=    0 NMtDT0=    0
 Symmetry not used in FoFCou.
 Leave Link  703 at Mon Mar 11 00:09:26 2019, MaxMem=   671088640 cpu:            1380.3 elap:              69.1
 (Enter /shared/centos7/gaussian/g16/l716.exe)
 Dipole        =-2.46752416D-01 3.28580213D-01 1.25015183D-01
 Polarizability= 0.00000000D+00 0.00000000D+00 0.00000000D+00
                 0.00000000D+00 0.00000000D+00 0.00000000D+00
 ***** Axes restored to original set *****
 -------------------------------------------------------------------
 Center     Atomic                   Forces (Hartrees/Bohr)
 Number     Number              X              Y              Z
 -------------------------------------------------------------------
      1        8           0.000000384   -0.000000795    0.000000212
      2        6          -0.000000159    0.000000088    0.000001034
      3        6           0.000000341   -0.000000429   -0.000000772
      4        6          -0.000000342    0.000000632   -0.000000121
      5        1           0.000000412   -0.000001034    0.000000145
      6        1          -0.000000195   -0.000000529    0.000002642
      7        1          -0.000000747    0.000001365    0.000001025
      8        1          -0.000000343    0.000000785    0.000000000
      9        1           0.000000838   -0.000001680   -0.000000607
     10        1           0.000000364    0.000000038   -0.000002427
     11        1          -0.000000553    0.000001557   -0.000001132
 -------------------------------------------------------------------
 Cartesian Forces:  Max     0.000002642 RMS     0.000000954
 Force constants in Cartesian coordinates: 
                1             2             3             4             5 
      1  0.515050D+00
      2  0.224663D-01  0.102870D+00
      3  0.107015D+00  0.114041D+00  0.375807D+00
      4 -0.239958D-01 -0.392207D-02 -0.431058D-02  0.504191D+00
      5 -0.138631D-01 -0.255985D-03 -0.162357D-02 -0.655707D-02  0.532322D+00
      6 -0.418770D-01  0.983721D-05  0.198200D-02  0.261751D-01  0.301769D-01
      7 -0.249786D+00  0.259759D-02  0.344482D-02  0.102993D-02  0.106238D-02
      8  0.161352D-01 -0.655447D-01 -0.886423D-02 -0.862292D-03  0.492390D-03
      9  0.403011D-01 -0.100906D-01 -0.856772D-01 -0.128098D-02 -0.193274D-02
     10 -0.147174D+00 -0.937840D-02 -0.787905D-01 -0.242480D+00  0.324074D-02
     11 -0.277446D-01 -0.467588D-01 -0.928046D-01  0.144841D-01 -0.588448D-01
     12 -0.122075D+00 -0.769112D-01 -0.278413D+00  0.133663D-01 -0.139090D-01
     13  0.113650D-02  0.904390D-03 -0.346562D-02 -0.669298D-01 -0.581654D-01
     14 -0.474022D-03 -0.294518D-03 -0.865831D-03 -0.507282D-01 -0.165984D+00
     15  0.100063D-02  0.114910D-03  0.219869D-02  0.455928D-01  0.112455D+00
     16  0.257087D-02 -0.706405D-03 -0.974016D-03 -0.693175D-01  0.737108D-01
     17  0.494857D-03  0.883534D-04  0.997859D-03  0.720184D-01 -0.258660D+00
     18 -0.288056D-03  0.638148D-03  0.165732D-03  0.236390D-01 -0.787204D-01
     19 -0.871421D-02  0.105277D-02  0.854036D-03 -0.950737D-01 -0.185661D-01
     20 -0.926036D-04  0.935628D-03  0.153425D-03 -0.190623D-01 -0.540508D-01
     21  0.751509D-03  0.403745D-03  0.123989D-02 -0.103644D+00 -0.447694D-01
     22 -0.340241D-01 -0.240129D-01  0.238359D-01 -0.469699D-03  0.122055D-03
     23 -0.263854D-02  0.672874D-02 -0.345063D-02 -0.150708D-04 -0.938147D-04
     24  0.551226D-02 -0.118966D-02  0.661400D-03 -0.104067D-03  0.149384D-03
     25 -0.267549D-01 -0.110244D-01 -0.369724D-01 -0.320945D-03 -0.577847D-03
     26  0.902746D-03  0.890207D-03  0.216608D-02  0.103360D-03  0.532121D-03
     27  0.103096D-02  0.182175D-02  0.629693D-02  0.249417D-03 -0.104035D-03
     28 -0.329695D-01  0.341653D-01  0.604647D-02 -0.355403D-03 -0.503558D-03
     29  0.738467D-02  0.538343D-02 -0.821124D-03 -0.127607D-03  0.672419D-03
     30  0.380419D-02 -0.348731D-02 -0.111241D-03 -0.135635D-03  0.175290D-03
     31  0.466077D-02 -0.121422D-01 -0.166835D-01 -0.627781D-02  0.200971D-01
     32 -0.257083D-02 -0.404281D-02 -0.892873D-02 -0.533131D-02  0.387039D-02
     33  0.482419D-02 -0.253510D-01 -0.241495D-01  0.452261D-03 -0.189741D-02
                6             7             8             9            10 
      6  0.565478D+00
      7 -0.187091D-02  0.494647D+00
      8 -0.248506D-02  0.112521D-01  0.576071D+00
      9 -0.367669D-02  0.269765D-01  0.139796D-01  0.618741D+00
     10  0.314660D-01 -0.410798D-01 -0.115919D-01 -0.432241D-01  0.592643D+00
     11 -0.185312D-01 -0.431182D-02 -0.300720D-02  0.605967D-03 -0.789410D-01
     12 -0.795658D-01 -0.937533D-02 -0.993230D-03 -0.534990D-02  0.932851D-02
     13  0.514159D-01  0.849852D-03  0.344855D-03 -0.339266D-03 -0.199164D-01
     14  0.111599D+00  0.981628D-04  0.495924D-04 -0.144790D-03 -0.383154D-02
     15 -0.148512D+00 -0.484972D-03  0.722211D-04  0.136132D-03  0.644827D-02
     16  0.237789D-01 -0.403947D-04 -0.288164D-03  0.101047D-03 -0.143102D-01
     17 -0.793790D-01 -0.177553D-03  0.285117D-03  0.176083D-03  0.200829D-02
     18 -0.739229D-01 -0.687478D-04  0.111231D-03  0.431463D-04  0.406308D-02
     19 -0.100276D+00  0.265919D-03 -0.518559D-03 -0.132858D-02 -0.886457D-02
     20 -0.443601D-01  0.261498D-04  0.670834D-03 -0.155095D-03 -0.410947D-03
     21 -0.264464D+00  0.650088D-03  0.330013D-04  0.236996D-03  0.239223D-02
     22 -0.574475D-03 -0.671752D-01 -0.445661D-01  0.463145D-01  0.433825D-02
     23 -0.187250D-03 -0.483299D-01 -0.161606D+00  0.117997D+00  0.388208D-03
     24 -0.119356D-03  0.522920D-01  0.117837D+00 -0.182094D+00 -0.518665D-03
     25 -0.171341D-02 -0.783232D-01 -0.226611D-01 -0.770834D-01 -0.488484D-02
     26 -0.156818D-05 -0.269256D-01 -0.711467D-01 -0.662431D-01  0.277112D-03
     27  0.320563D-03 -0.908216D-01 -0.663031D-01 -0.276908D+00  0.665621D-03
     28 -0.176316D-03 -0.640727D-01  0.562722D-01  0.119266D-01  0.332464D-02
     29  0.300782D-03  0.620983D-01 -0.277228D+00 -0.541546D-01 -0.146035D-02
     30 -0.849962D-04  0.146786D-01 -0.534770D-01 -0.658419D-01 -0.102365D-02
     31  0.136526D-01  0.368459D-02 -0.351621D-02 -0.236332D-02 -0.121596D+00
     32  0.285811D-02  0.261015D-02  0.964316D-03 -0.376361D-04  0.996999D-01
     33  0.256463D-02  0.457953D-02  0.892568D-04  0.390866D-03  0.691933D-01
               11            12            13            14            15 
     11  0.245660D+00
     12  0.222384D+00  0.494938D+00
     13 -0.215798D-01  0.260641D-01  0.773276D-01
     14  0.408632D-02 -0.106838D-02  0.606800D-01  0.179562D+00
     15 -0.131155D-03 -0.301020D-02 -0.581741D-01 -0.125243D+00  0.160099D+00
     16  0.291439D-01  0.171060D-01  0.314495D-02 -0.861589D-02 -0.380434D-02
     17  0.304840D-02 -0.120869D-02  0.617361D-02 -0.213640D-01 -0.733031D-02
     18 -0.305469D-02 -0.318829D-02 -0.649802D-02  0.198244D-01  0.684702D-02
     19 -0.914301D-02 -0.311835D-01  0.429539D-02  0.303841D-02  0.911409D-02
     20 -0.253280D-02  0.754386D-03  0.104986D-01  0.426016D-02  0.202927D-01
     21  0.109525D-02  0.311168D-02 -0.822873D-02 -0.425175D-02 -0.178180D-01
     22  0.157024D-02  0.626980D-02  0.219990D-03  0.842640D-04 -0.639417D-04
     23  0.545245D-03  0.408863D-03  0.480215D-04  0.461732D-05 -0.720783D-05
     24 -0.855380D-03  0.264880D-02  0.147819D-03  0.215692D-04 -0.131119D-03
     25  0.171892D-02  0.336049D-02 -0.351364D-04 -0.694830D-04  0.449692D-04
     26  0.394973D-03 -0.115283D-03  0.589166D-04 -0.274630D-04  0.116822D-04
     27  0.949684D-04  0.128340D-02 -0.142964D-03 -0.843445D-05  0.284134D-04
     28  0.370860D-02  0.666038D-02 -0.136951D-03  0.326004D-04  0.821485D-05
     29  0.332943D-03 -0.296418D-03  0.108231D-03  0.154680D-04 -0.445700D-04
     30  0.196943D-02  0.157069D-02  0.125010D-03  0.336628D-05 -0.539102D-04
     31  0.910946D-01  0.804783D-01  0.439188D-04 -0.214394D-03  0.318370D-03
     32 -0.142924D+00 -0.129045D+00  0.928550D-03 -0.308431D-03 -0.190061D-03
     33 -0.110773D+00 -0.134025D+00 -0.904193D-03  0.134550D-03  0.215427D-03
               16            17            18            19            20 
     16  0.786443D-01
     17 -0.800691D-01  0.280192D+00
     18 -0.319010D-01  0.863722D-01  0.770487D-01
     19  0.413417D-02  0.373004D-03  0.101785D-01  0.103905D+00
     20 -0.136045D-01 -0.344142D-02 -0.248991D-01  0.229323D-01  0.543212D-01
     21 -0.315704D-02 -0.523489D-03 -0.802451D-02  0.111794D+00  0.480042D-01
     22 -0.116703D-04 -0.442855D-04  0.225607D-04 -0.152392D-03  0.107309D-03
     23  0.343933D-04  0.165691D-04 -0.296486D-04 -0.805065D-04 -0.182349D-04
     24  0.822412D-04 -0.307669D-04  0.140814D-04  0.498339D-04  0.179797D-04
     25  0.535369D-04  0.729867D-04  0.725620D-05 -0.589552D-03  0.732315D-05
     26 -0.123019D-03 -0.160937D-04  0.000000D+00  0.136313D-04 -0.375741D-05
     27 -0.633756D-04  0.130957D-04  0.128113D-04  0.495347D-04 -0.885074D-05
     28  0.252050D-03 -0.152466D-03 -0.874616D-04 -0.142594D-03 -0.143205D-03
     29 -0.219884D-03 -0.610614D-04 -0.276163D-04  0.112550D-03 -0.411936D-04
     30 -0.208376D-04 -0.589969D-04 -0.857198D-04 -0.414494D-05 -0.283392D-05
     31 -0.512006D-02 -0.697740D-03  0.932922D-03  0.936974D-03 -0.258112D-03
     32  0.737961D-03 -0.876117D-04 -0.215331D-03  0.785428D-03 -0.996868D-04
     33 -0.114759D-02  0.971981D-03  0.108990D-02  0.752823D-03  0.203301D-03
               21            22            23            24            25 
     21  0.285455D+00
     22 -0.726035D-04  0.875076D-01
     23 -0.529201D-05  0.546648D-01  0.166644D+00
     24  0.202419D-04 -0.622640D-01 -0.129870D+00  0.190362D+00
     25  0.675117D-04  0.518817D-02  0.377636D-02  0.773737D-02  0.100828D+00
     26 -0.786165D-05  0.817956D-02  0.706838D-02  0.192946D-01  0.282403D-01
     27 -0.245044D-04 -0.683318D-02 -0.700703D-02 -0.178068D-01  0.968333D-01
     28 -0.492491D-04  0.475655D-02 -0.784900D-02 -0.306022D-02  0.482439D-02
     29  0.254954D-04  0.436985D-02 -0.185368D-01 -0.570714D-02  0.931021D-03
     30  0.120527D-04 -0.626860D-02  0.220989D-01  0.655259D-02  0.791261D-02
     31 -0.503846D-03 -0.177556D-03  0.116825D-05  0.125437D-03  0.147665D-04
     32 -0.391177D-05 -0.474806D-03 -0.752453D-03  0.332620D-03 -0.414152D-03
     33  0.254775D-03 -0.365912D-03  0.527790D-04 -0.107411D-03 -0.194300D-03
               26            27            28            29            30 
     26  0.684010D-01
     27  0.717894D-01  0.291071D+00
     28 -0.107064D-01 -0.104950D-02  0.838108D-01
     29 -0.623487D-02 -0.672421D-03 -0.739505D-01  0.295632D+00
     30 -0.273615D-01 -0.444083D-02 -0.192932D-01  0.604694D-01  0.622498D-01
     31 -0.206423D-04  0.817576D-04  0.708734D-03  0.753735D-03  0.225643D-03
     32  0.142224D-03  0.384650D-03 -0.873576D-03  0.657827D-04 -0.328797D-03
     33  0.466772D-03  0.166740D-03 -0.925752D-03  0.928222D-03  0.233462D-03
               31            32            33 
     31  0.123121D+00
     32 -0.950973D-01  0.143173D+00
     33 -0.762643D-01  0.135174D+00  0.153366D+00
 FormGI is forming the generalized inverse of G from B-inverse, IUseBI=4.
 Force constants in internal coordinates: 
                1             2             3             4             5 
      1  0.375847D+00
      2  0.856389D-02  0.438900D+00
      3 -0.983222D-03  0.219727D-01  0.325323D+00
      4 -0.711596D-03  0.262747D-02  0.140148D-01  0.324051D+00
      5 -0.412315D-03  0.895704D-03  0.851754D-02  0.397147D-02  0.340319D+00
      6 -0.295937D-03  0.164112D-03  0.382247D-02  0.299139D-02  0.211852D-02
      7  0.152297D-01 -0.109885D-02  0.240894D-03  0.280181D-04  0.226993D-04
      8  0.973399D-02 -0.144788D-02  0.210545D-03  0.972382D-04  0.590179D-04
      9  0.159614D-01 -0.122148D-02 -0.309622D-04  0.100015D-03 -0.598709D-04
     10 -0.225499D-03  0.119164D-01  0.280405D-02  0.916701D-04 -0.105146D-03
     11  0.552405D-01  0.558284D-01  0.581671D-02 -0.356205D-03 -0.338557D-04
     12 -0.128365D-02  0.169291D-03  0.149445D-01  0.155234D-02 -0.689066D-02
     13 -0.134151D-03 -0.276183D-02  0.169521D-01 -0.655954D-02  0.375814D-02
     14  0.126027D-02  0.783573D-02  0.136360D-01 -0.589150D-02 -0.557901D-02
     15  0.487237D-03 -0.382215D-03 -0.180412D-01  0.700362D-02  0.572582D-02
     16 -0.113729D-03 -0.285458D-02 -0.156170D-01  0.588324D-02 -0.970880D-03
     17 -0.218280D-03 -0.233714D-02 -0.142568D-01 -0.148589D-02  0.448644D-02
     18  0.290388D-01 -0.919581D-02  0.183220D-03 -0.322290D-03 -0.179013D-04
     19  0.283158D-01  0.779899D-02  0.100184D-02  0.192067D-03  0.153771D-03
     20  0.288481D-01 -0.994465D-02  0.271779D-03  0.000000D+00 -0.373363D-03
     21 -0.285267D-01  0.374774D-02 -0.447583D-03  0.125736D-03  0.421733D-04
     22 -0.292880D-01  0.419645D-02 -0.464356D-03 -0.103354D-04  0.558816D-04
     23 -0.285639D-01  0.359464D-02 -0.540394D-03  0.212238D-04  0.144204D-03
     24  0.968914D-02  0.225955D-01  0.177438D-01 -0.307300D-02 -0.356508D-02
     25 -0.957749D-02  0.132245D-01 -0.186094D-01  0.836663D-03  0.195810D-03
     26  0.125936D-02 -0.331137D-01  0.573827D-02  0.149416D-02  0.312921D-02
     27  0.883006D-03 -0.393460D-02 -0.217311D-03 -0.140052D-03 -0.898860D-04
     28  0.194256D-03  0.936195D-04 -0.443599D-04 -0.551974D-04  0.446773D-04
     29 -0.765188D-03  0.351637D-02  0.644351D-04  0.872710D-04  0.999553D-04
     30  0.125549D-02 -0.184908D-02  0.586679D-02 -0.628778D-03  0.583086D-03
     31 -0.167408D-02  0.368665D-02 -0.481315D-02  0.246110D-03  0.434578D-04
     32  0.139696D-03 -0.358057D-02 -0.155946D-02  0.622088D-03 -0.532086D-02
     33 -0.725307D-04  0.694455D-02  0.214117D-02 -0.628803D-03 -0.586276D-02
     34 -0.182125D-03 -0.582355D-02 -0.302663D-02  0.605892D-02 -0.806581D-04
     35 -0.394352D-03  0.470158D-02  0.674001D-03  0.480803D-02 -0.622558D-03
     36  0.274311D-03 -0.544944D-02 -0.106748D-02 -0.382929D-02  0.432666D-02
     37  0.620843D-04  0.507569D-02  0.263316D-02 -0.508018D-02  0.378476D-02
                6             7             8             9            10 
      6  0.348315D+00
      7  0.913874D-04  0.336451D+00
      8  0.741805D-04  0.300622D-02  0.352615D+00
      9  0.963828D-04  0.377963D-02  0.302359D-02  0.333718D+00
     10  0.599018D-03  0.493700D-03 -0.228407D-03  0.620890D-03  0.348381D+00
     11  0.681290D-03 -0.316896D-02  0.483337D-02 -0.313494D-02 -0.500461D-02
     12 -0.690492D-02 -0.274058D-04  0.886714D-04  0.256492D-03 -0.756287D-03
     13 -0.609571D-02  0.292184D-05  0.127702D-04 -0.492898D-03  0.351367D-02
     14  0.499614D-02  0.157012D-03  0.197776D-03  0.224157D-03 -0.157646D-03
     15 -0.765749D-03 -0.285018D-04 -0.771851D-04  0.455261D-04 -0.127016D-02
     16  0.479889D-02 -0.295248D-04 -0.131927D-03 -0.115922D-03 -0.193249D-03
     17  0.436076D-02 -0.828356D-04 -0.106781D-03  0.818117D-04 -0.126685D-02
     18  0.623647D-04  0.157958D-02 -0.497473D-02 -0.533481D-02  0.318080D-04
     19  0.213906D-03 -0.479597D-02  0.341477D-02 -0.499661D-02  0.218061D-03
     20  0.947932D-04 -0.511824D-02 -0.485751D-02  0.159221D-02  0.191551D-02
     21 -0.131276D-03  0.614709D-02  0.574492D-02 -0.542105D-02 -0.541708D-03
     22 -0.974433D-04  0.726585D-02 -0.476482D-02  0.757543D-02 -0.509992D-03
     23 -0.142662D-03 -0.528228D-02  0.581089D-02  0.640440D-02 -0.113243D-02
     24  0.517142D-02  0.249013D-03  0.706919D-03 -0.201288D-03 -0.786036D-02
     25 -0.230217D-02  0.280665D-04 -0.484729D-03  0.123811D-02  0.429368D-02
     26 -0.240797D-02 -0.415388D-03 -0.130504D-03 -0.109942D-02  0.584162D-02
     27 -0.117947D-04  0.475306D-03 -0.639381D-02  0.667902D-02  0.574594D-03
     28 -0.483597D-05  0.590757D-02 -0.199258D-03 -0.599114D-02  0.691502D-04
     29  0.630389D-05 -0.631675D-02  0.614321D-02 -0.362965D-03 -0.784052D-04
     30 -0.129059D-04  0.489856D-03 -0.133238D-03 -0.979661D-03  0.151451D-02
     31 -0.111391D-03  0.867422D-03 -0.261187D-03 -0.515751D-03 -0.434974D-02
     32  0.498007D-02  0.178322D-03 -0.118977D-04 -0.653941D-04 -0.302567D-02
     33  0.530112D-02 -0.618898D-04  0.288021D-04  0.223805D-03  0.235856D-02
     34 -0.467523D-02  0.126172D-03 -0.423401D-04 -0.172531D-03 -0.275027D-02
     35 -0.435418D-02 -0.114040D-03 -0.164028D-05  0.116668D-03  0.263395D-02
     36  0.675030D-04  0.126299D-03 -0.393666D-04 -0.243028D-03 -0.216880D-02
     37  0.388550D-03 -0.113913D-03  0.133318D-05  0.461716D-04  0.321542D-02
               11            12            13            14            15 
     11  0.271565D+00
     12 -0.122297D-02  0.992956D-01
     13 -0.492050D-03 -0.188749D-01  0.101194D+00
     14  0.414457D-02 -0.194021D-01 -0.195262D-01  0.100014D+00
     15  0.183078D-03 -0.370889D-01 -0.391850D-01  0.101312D-01  0.557201D-01
     16 -0.134292D-02 -0.362966D-01  0.976708D-02 -0.383809D-01  0.659243D-02
     17 -0.142781D-02  0.967495D-02 -0.365071D-01 -0.368134D-01  0.693104D-02
     18 -0.394460D-02 -0.448924D-03  0.148603D-03  0.295416D-04  0.977518D-04
     19  0.167812D-01 -0.170883D-03 -0.384644D-03  0.125176D-02  0.426455D-04
     20 -0.448454D-02  0.321986D-03 -0.234582D-03 -0.110154D-03 -0.613689D-05
     21 -0.458772D-02  0.351503D-03  0.100320D-03 -0.539628D-03 -0.110178D-03
     22  0.157621D-02 -0.568309D-04  0.665127D-04 -0.161977D-03  0.536707D-04
     23 -0.530021D-02  0.968108D-05  0.304135D-03 -0.467068D-03 -0.820481D-04
     24  0.142194D-01 -0.947813D-02 -0.133943D-01  0.221431D-01  0.661516D-02
     25 -0.447556D-02  0.467589D-02 -0.217518D-04 -0.753511D-02 -0.564671D-03
     26 -0.844100D-02  0.199823D-02  0.136858D-01 -0.125278D-01 -0.529902D-02
     27 -0.327138D-02  0.226113D-04 -0.129351D-03 -0.121682D-03  0.747682D-04
     28 -0.864798D-03  0.874000D-04 -0.157050D-03  0.399816D-05  0.232036D-04
     29  0.351944D-03  0.178800D-03 -0.155976D-03  0.135749D-03 -0.537497D-04
     30  0.335938D-02 -0.291765D-02  0.301686D-02  0.163963D-03 -0.203134D-03
     31  0.360701D-02  0.153290D-02 -0.171933D-02  0.261181D-03  0.895624D-04
     32 -0.394565D-03  0.328127D-02 -0.794094D-02  0.590563D-02 -0.100928D-01
     33  0.117612D-02 -0.842803D-03 -0.802455D-02  0.825833D-02 -0.857852D-02
     34 -0.130349D-02  0.911485D-02 -0.138531D-02 -0.731624D-02  0.934642D-02
     35  0.267188D-03  0.499078D-02 -0.146892D-02 -0.496354D-02  0.108607D-01
     36 -0.720564D-03 -0.352566D-02  0.564222D-02 -0.111968D-02 -0.698138D-03
     37  0.850117D-03 -0.764974D-02  0.555862D-02  0.123301D-02  0.816133D-03
               16            17            18            19            20 
     16  0.544671D-01
     17  0.719861D-02  0.534010D-01
     18  0.255217D-03 -0.703430D-04  0.140960D+00
     19 -0.432020D-03 -0.352423D-03 -0.307017D-01  0.140210D+00
     20 -0.143263D-03  0.175864D-03 -0.320647D-01 -0.308395D-01  0.142545D+00
     21  0.680909D-04  0.139138D-03 -0.370940D-01 -0.383280D-01 -0.194142D-02
     22  0.727949D-04  0.346020D-04 -0.399555D-01 -0.135602D-02 -0.403071D-01
     23  0.175335D-03  0.714693D-04 -0.194685D-02 -0.382580D-01 -0.377318D-01
     24 -0.367194D-02 -0.236564D-02  0.205740D-03  0.321107D-02  0.663100D-03
     25  0.149320D-02  0.215863D-02  0.491286D-03 -0.113010D-02 -0.106553D-02
     26  0.255778D-02 -0.467880D-03 -0.408204D-03 -0.180039D-02  0.261698D-03
     27  0.565450D-04  0.109784D-03  0.186834D-02 -0.213608D-01  0.204528D-01
     28  0.219735D-04  0.233771D-04  0.189299D-01  0.429189D-04 -0.190558D-01
     29 -0.109657D-03 -0.388293D-05 -0.203372D-01  0.212834D-01 -0.226193D-02
     30  0.109745D-02 -0.118017D-02  0.868529D-03  0.127542D-03 -0.624572D-03
     31 -0.365618D-03  0.194115D-03  0.480812D-03  0.174098D-03 -0.461804D-03
     32  0.808682D-02  0.629491D-03 -0.417390D-03  0.335226D-04  0.382119D-03
     33  0.914214D-02 -0.197388D-04  0.300603D-03  0.322442D-03 -0.211950D-03
     34 -0.910874D-03 -0.895680D-02 -0.489332D-03 -0.285938D-03  0.427895D-03
     35  0.144444D-03 -0.960603D-02  0.228661D-03  0.298126D-05 -0.166175D-03
     36 -0.104646D-01  0.103127D-01 -0.462229D-03 -0.163632D-03  0.424864D-03
     37 -0.940932D-02  0.966342D-02  0.255764D-03  0.125287D-03 -0.169206D-03
               21            22            23            24            25 
     21  0.702769D-01
     22  0.404475D-02  0.720828D-01
     23  0.387378D-02  0.435102D-02  0.704999D-01
     24 -0.175378D-02 -0.522906D-03 -0.181378D-02  0.143929D+00
     25  0.751042D-03  0.191103D-03  0.769119D-03 -0.784087D-01  0.975761D-01
     26  0.749739D-03  0.234495D-03  0.965285D-03 -0.519914D-01 -0.295345D-01
     27 -0.206477D-01  0.189174D-01 -0.298010D-03 -0.113579D-03  0.492112D-05
     28  0.199273D-01  0.111000D-03 -0.200310D-01 -0.164581D-03  0.507880D-03
     29  0.239037D-03 -0.184071D-01  0.206103D-01 -0.333306D-04  0.145955D-03
     30 -0.833260D-03  0.167397D-03  0.280588D-03  0.462185D-02 -0.141976D-01
     31 -0.605967D-03  0.270768D-03  0.129384D-03 -0.414376D-02  0.143742D-01
     32  0.987771D-04  0.237657D-04 -0.120051D-03  0.131217D-02 -0.584149D-02
     33 -0.201955D-03 -0.118128D-03 -0.903220D-04  0.673400D-02  0.398865D-02
     34  0.259378D-03  0.992029D-04 -0.113500D-04 -0.565244D-02 -0.348466D-02
     35 -0.413542D-04 -0.426905D-04  0.183789D-04 -0.230611D-03  0.634548D-02
     36  0.148515D-03  0.804404D-04 -0.283902D-04 -0.290959D-02 -0.567992D-02
     37 -0.152218D-03 -0.614530D-04  0.133867D-05  0.251224D-02  0.415022D-02
               26            27            28            29            30 
     26  0.816417D-01
     27  0.835288D-04  0.266291D-01
     28 -0.338673D-03 -0.103420D-01  0.246766D-01
     29 -0.113928D-03 -0.120211D-01 -0.104091D-01  0.261825D-01
     30  0.131759D-01 -0.893549D-04 -0.524127D-03 -0.462745D-03  0.105074D-01
     31 -0.126339D-01 -0.701545D-04 -0.423126D-03 -0.423836D-03 -0.163270D-03
     32  0.295777D-02  0.248863D-04 -0.740074D-04  0.186752D-04 -0.152187D-02
     33 -0.901285D-02 -0.257450D-04  0.981271D-04  0.637947D-04  0.691559D-03
     34  0.684822D-02  0.467173D-04 -0.933995D-04 -0.369904D-04 -0.166002D-02
     35 -0.512240D-02 -0.391398D-05  0.787350D-04  0.812909D-05  0.553409D-03
     36  0.697802D-02  0.216093D-04 -0.162821D-03 -0.545077D-04 -0.108246D-02
     37 -0.499260D-02 -0.290220D-04  0.931379D-05 -0.938822D-05  0.113096D-02
               31            32            33            34            35 
     31  0.819201D-02
     32  0.333438D-03  0.137466D-01
     33  0.454337D-03  0.888167D-02  0.137356D-01
     34  0.293316D-03 -0.223220D-02 -0.796034D-02  0.146639D-01
     35  0.414214D-03 -0.709715D-02 -0.310641D-02  0.893577D-02  0.129265D-01
     36 -0.403156D-03 -0.274281D-02 -0.781287D-02 -0.212932D-02 -0.719938D-02
     37 -0.282258D-03 -0.760777D-02 -0.295894D-02 -0.785746D-02 -0.320864D-02
               36            37 
     36  0.136410D-01
     37  0.857089D-02  0.132197D-01
 Leave Link  716 at Mon Mar 11 00:09:26 2019, MaxMem=   671088640 cpu:               0.6 elap:               0.1
 (Enter /shared/centos7/gaussian/g16/l103.exe)

 GradGradGradGradGradGradGradGradGradGradGradGradGradGradGradGradGradGrad
 Berny optimization.
 Red2BG is reusing G-inverse.
 Internal  Forces:  Max     0.000000108 RMS     0.000000033
 Search for a local minimum.
[...]
 Alpha virt. eigenvalues --    0.91901   0.92559   0.96188   0.98499   1.01063
 Alpha virt. eigenvalues --    1.04025   1.05783   1.07624   1.11955   1.13095
 Alpha virt. eigenvalues --    1.14105   1.16727   1.17878   1.20606   1.23355
 Alpha virt. eigenvalues --    1.24701   1.27908   1.30433   1.31209   1.34835
 Alpha virt. eigenvalues --    1.37397   1.38019   1.40673   1.42058   1.43369
 Alpha virt. eigenvalues --    1.44121   1.46020   1.49508   1.50928   1.53414
 Alpha virt. eigenvalues --    1.57684   1.59122   1.62783   1.69154   1.73992
 Alpha virt. eigenvalues --    1.97119   2.00773   2.14586   2.25059   2.34829
 Alpha virt. eigenvalues --    2.39237   2.43632   2.44548   2.52118   2.54797
 Alpha virt. eigenvalues --    2.58528   2.65854   2.77693   2.83271   2.86655
 Alpha virt. eigenvalues --    2.88553   2.96121   2.96810   3.00400   3.04674
 Alpha virt. eigenvalues --    3.06923   3.08341   3.10126   3.12540   3.13701
 Alpha virt. eigenvalues --    3.14418   3.16591   3.18810   3.24463   3.29155
 Alpha virt. eigenvalues --    3.31413   3.33489   3.33889   3.38490   3.42561
 Alpha virt. eigenvalues --    3.45325   3.45742   3.49432   3.51431   3.54015
 Alpha virt. eigenvalues --    3.56793   3.60385   3.64838   3.68258   3.74819
 Alpha virt. eigenvalues --    3.79686   3.85606   3.87073   3.89289   3.91998
 Alpha virt. eigenvalues --    3.96597   3.98086   4.00038   4.08186   4.08879
 Alpha virt. eigenvalues --    4.12453   4.15055   4.19223   4.22712   4.23177
 Alpha virt. eigenvalues --    4.26851   4.29786   4.32025   4.35229   4.37622
 Alpha virt. eigenvalues --    4.41914   4.45850   4.50757   4.55095   4.66759
 Alpha virt. eigenvalues --    4.69432   4.92965   5.13434   5.18447   5.27229
 Alpha virt. eigenvalues --    5.29337   5.46769   5.48456   5.56760   5.57057
 Alpha virt. eigenvalues --    5.62166   5.62914   5.68945   5.82544   5.88050
 Alpha virt. eigenvalues --    6.29038   6.46960   6.77937   7.11994   7.20109
 Alpha virt. eigenvalues --    7.27956   7.69532   7.73116  24.33932  24.43293
 Alpha virt. eigenvalues --   24.53968  50.16566
  Beta  occ. eigenvalues --  -19.64618 -10.58351 -10.57013 -10.52604  -1.17806
  Beta  occ. eigenvalues --   -0.85086  -0.77874  -0.66382  -0.57041  -0.53665
  Beta  occ. eigenvalues --   -0.53067  -0.46794  -0.45072  -0.43818  -0.40062
  Beta  occ. eigenvalues --   -0.37306
  Beta virt. eigenvalues --   -0.00438   0.01985   0.03040   0.04093   0.05168
  Beta virt. eigenvalues --    0.05506   0.06959   0.07539   0.09139   0.09710
  Beta virt. eigenvalues --    0.12368   0.13678   0.14782   0.18220   0.18836
  Beta virt. eigenvalues --    0.19889   0.21510   0.21883   0.24066   0.24567
  Beta virt. eigenvalues --    0.25371   0.28313   0.28651   0.30968   0.33586
  Beta virt. eigenvalues --    0.36542   0.37319   0.43001   0.43977   0.45615
  Beta virt. eigenvalues --    0.47401   0.50646   0.52425   0.53539   0.54879
  Beta virt. eigenvalues --    0.56432   0.57540   0.58840   0.60496   0.61212
  Beta virt. eigenvalues --    0.62862   0.64605   0.65860   0.68545   0.71488
  Beta virt. eigenvalues --    0.74626   0.78336   0.79064   0.83112   0.86338
  Beta virt. eigenvalues --    0.88968   0.91854   0.92173   0.96181   0.98191
  Beta virt. eigenvalues --    1.01274   1.04208   1.05758   1.08046   1.12008
  Beta virt. eigenvalues --    1.13057   1.13939   1.16636   1.17776   1.20807
  Beta virt. eigenvalues --    1.23836   1.24418   1.27585   1.30927   1.31687
  Beta virt. eigenvalues --    1.35338   1.37668   1.38211   1.40706   1.42150
  Beta virt. eigenvalues --    1.43086   1.44276   1.45908   1.49835   1.50777
  Beta virt. eigenvalues --    1.53719   1.57563   1.58999   1.62730   1.69062
  Beta virt. eigenvalues --    1.74647   1.97974   2.01157   2.15113   2.25555
  Beta virt. eigenvalues --    2.35514   2.39554   2.44152   2.45319   2.52575
  Beta virt. eigenvalues --    2.55381   2.59144   2.66724   2.81016   2.86406
  Beta virt. eigenvalues --    2.89946   2.90970   2.96661   2.97359   3.02616
  Beta virt. eigenvalues --    3.05889   3.07942   3.08809   3.11889   3.13059
  Beta virt. eigenvalues --    3.14886   3.15368   3.16893   3.19676   3.25749
  Beta virt. eigenvalues --    3.30559   3.33854   3.34967   3.36309   3.40175
  Beta virt. eigenvalues --    3.45384   3.45705   3.48061   3.51198   3.51983
  Beta virt. eigenvalues --    3.55331   3.58539   3.61803   3.67404   3.70583
  Beta virt. eigenvalues --    3.75809   3.80969   3.85732   3.87357   3.89913
  Beta virt. eigenvalues --    3.92281   3.97650   3.99517   4.01130   4.09052
  Beta virt. eigenvalues --    4.09694   4.13434   4.15221   4.19804   4.23009
  Beta virt. eigenvalues --    4.24349   4.28427   4.29960   4.32211   4.36331
  Beta virt. eigenvalues --    4.37927   4.42027   4.46338   4.51849   4.56553
  Beta virt. eigenvalues --    4.70556   4.72299   4.93125   5.16035   5.19849
  Beta virt. eigenvalues --    5.27841   5.29977   5.47871   5.50552   5.56730
  Beta virt. eigenvalues --    5.57300   5.62113   5.63655   5.69639   5.83386
  Beta virt. eigenvalues --    5.88830   6.29408   6.47308   6.78616   7.12769
  Beta virt. eigenvalues --    7.20989   7.28894   7.69882   7.73055  24.34374
  Beta virt. eigenvalues --   24.43274  24.54948  50.16327
          Condensed to atoms (all electrons):
               1          2          3          4          5          6
     1  O    8.195027  -0.106007   0.150397   0.047939   0.002216  -0.000631
     2  C   -0.106007   5.075156  -0.034290   0.325570   0.399965   0.408203
     3  C    0.150397  -0.034290   4.931449  -0.103939   0.000899   0.001142
     4  C    0.047939   0.325570  -0.103939   5.570237  -0.045495  -0.049711
     5  H    0.002216   0.399965   0.000899  -0.045495   0.586863  -0.042339
     6  H   -0.000631   0.408203   0.001142  -0.049711  -0.042339   0.559395
     7  H    0.010853   0.422809   0.001675  -0.048298  -0.030005  -0.022687
     8  H   -0.041282  -0.006363   0.434684   0.006900   0.000079  -0.000130
     9  H   -0.054771   0.002635   0.422479   0.014565   0.000038   0.000009
    10  H   -0.047584  -0.001037   0.432560  -0.008334  -0.000310   0.000085
    11  H   -0.043626  -0.033490   0.010253   0.401830  -0.002456   0.005462
               7          8          9         10         11
     1  O    0.010853  -0.041282  -0.054771  -0.047584  -0.043626
     2  C    0.422809  -0.006363   0.002635  -0.001037  -0.033490
     3  C    0.001675   0.434684   0.422479   0.432560   0.010253
     4  C   -0.048298   0.006900   0.014565  -0.008334   0.401830
     5  H   -0.030005   0.000079   0.000038  -0.000310  -0.002456
     6  H   -0.022687  -0.000130   0.000009   0.000085   0.005462
     7  H    0.542085   0.000013   0.000008   0.000019  -0.004624
     8  H    0.000013   0.554387  -0.023572  -0.050008  -0.004003
     9  H    0.000008  -0.023572   0.536268  -0.025656  -0.000213
    10  H    0.000019  -0.050008  -0.025656   0.576127   0.006465
    11  H   -0.004624  -0.004003  -0.000213   0.006465   0.515227
          Atomic-Atomic Spin Densities.
               1          2          3          4          5          6
     1  O    0.256324   0.020571   0.019986  -0.237137   0.009451   0.004421
     2  C    0.020571  -0.035406  -0.002345  -0.064003   0.010148   0.012350
     3  C    0.019986  -0.002345   0.018371  -0.013329   0.001797   0.000223
     4  C   -0.237137  -0.064003  -0.013329   1.314741  -0.032115  -0.028678
     5  H    0.009451   0.010148   0.001797  -0.032115   0.089597  -0.018889
     6  H    0.004421   0.012350   0.000223  -0.028678  -0.018889   0.046368
     7  H   -0.000232   0.009231  -0.000388  -0.011359  -0.004792   0.003050
     8  H   -0.007495  -0.002053   0.002632   0.015148   0.000197  -0.000264
     9  H   -0.000073   0.000221  -0.004318   0.002571   0.000006  -0.000008
    10  H   -0.007070   0.000588  -0.002035   0.000315  -0.000491   0.000192
    11  H   -0.000211   0.005337   0.002254  -0.024122  -0.004967   0.001903
               7          8          9         10         11
     1  O   -0.000232  -0.007495  -0.000073  -0.007070  -0.000211
     2  C    0.009231  -0.002053   0.000221   0.000588   0.005337
     3  C   -0.000388   0.002632  -0.004318  -0.002035   0.002254
     4  C   -0.011359   0.015148   0.002571   0.000315  -0.024122
     5  H   -0.004792   0.000197   0.000006  -0.000491  -0.004967
     6  H    0.003050  -0.000264  -0.000008   0.000192   0.001903
     7  H    0.008074  -0.000032   0.000001   0.000031   0.001178
     8  H   -0.000032  -0.001999   0.001674  -0.004662  -0.001871
     9  H    0.000001   0.001674  -0.000671   0.000356  -0.000060
    10  H    0.000031  -0.004662   0.000356   0.012012   0.003965
    11  H    0.001178  -0.001871  -0.000060   0.003965  -0.020996
 Mulliken charges and spin densities:
               1          2
     1  O   -0.112530   0.058534
     2  C   -0.453150  -0.045362
     3  C   -0.247309   0.022848
     4  C   -0.111264   0.922032
     5  H    0.130546   0.049941
     6  H    0.141202   0.020667
     7  H    0.128152   0.004761
     8  H    0.129297   0.001274
     9  H    0.128210  -0.000303
    10  H    0.117672   0.003200
    11  H    0.149175  -0.037592
 Sum of Mulliken charges =  -0.00000   1.00000
 Mulliken charges and spin densities with hydrogens summed into heavy atoms:
               1          2
     1  O   -0.112530   0.058534
     2  C   -0.053251   0.030008
     3  C    0.127871   0.027019
     4  C    0.037911   0.884440
 Electronic spatial extent (au):  <R**2>=            357.7354
 Charge=             -0.0000 electrons
 Dipole moment (field-independent basis, Debye):
    X=             -0.6271    Y=              0.8351    Z=              0.3175  Tot=              1.0916
 Quadrupole moment (field-independent basis, Debye-Ang):
   XX=            -22.3001   YY=            -26.6204   ZZ=            -27.0923
   XY=             -0.2224   XZ=              0.0635   YZ=              0.6544
 Traceless Quadrupole moment (field-independent basis, Debye-Ang):
   XX=              3.0375   YY=             -1.2828   ZZ=             -1.7547
   XY=             -0.2224   XZ=              0.0635   YZ=              0.6544
 Octapole moment (field-independent basis, Debye-Ang**2):
  XXX=             -7.9143  YYY=             -1.3920  ZZZ=              1.3819  XYY=             -0.9659
  XXY=             -1.4238  XXZ=             -0.1005  XZZ=             -1.6096  YZZ=             -1.5506
  YYZ=              0.7441  XYZ=              0.2091
 Hexadecapole moment (field-independent basis, Debye-Ang**3):
 XXXX=           -371.8945 YYYY=            -65.7321 ZZZZ=            -44.8363 XXXY=              7.9278
 XXXZ=             -1.7556 YYYX=              2.3874 YYYZ=              2.2372 ZZZX=              1.6381
 ZZZY=              1.0205 XXYY=            -71.2769 XXZZ=            -70.8376 YYZZ=            -18.9175
 XXYZ=             -0.4638 YYXZ=             -1.2243 ZZXY=             -2.3754
 N-N= 1.257652003671D+02 E-N=-7.034078960787D+02  KE= 1.929334448287D+02
                          Isotropic Fermi Contact Couplings
        Atom                 a.u.       MegaHertz       Gauss      10(-4) cm-1
     1  O(17)              0.02759     -16.72315      -5.96723      -5.57824
     2  C(13)             -0.01993     -22.40544      -7.99482      -7.47365
     3  C(13)             -0.00059      -0.65862      -0.23501      -0.21969
     4  C(13)              0.20738     233.13367      83.18789      77.76502
     5  H(1)               0.02398     107.19296      38.24911      35.75572
     6  H(1)               0.01027      45.89341      16.37591      15.30840
     7  H(1)               0.00161       7.19302       2.56665       2.39933
     8  H(1)               0.00132       5.91647       2.11114       1.97352
     9  H(1)              -0.00049      -2.18151      -0.77842      -0.72767
    10  H(1)               0.00169       7.54927       2.69377       2.51816
    11  H(1)              -0.00726     -32.47339     -11.58731     -10.83196
 --------------------------------------------------------
       Center         ----  Spin Dipole Couplings  ----
                      3XX-RR        3YY-RR        3ZZ-RR
 --------------------------------------------------------
     1   Atom       -0.364933     -0.389112      0.754045
     2   Atom        0.010670     -0.006579     -0.004091
     3   Atom        0.017820     -0.007522     -0.010298
     4   Atom       -0.498289     -0.470218      0.968507
     5   Atom        0.006061     -0.003787     -0.002273
     6   Atom        0.005649      0.002836     -0.008486
     7   Atom        0.018453     -0.010373     -0.008080
     8   Atom        0.013599     -0.006711     -0.006888
     9   Atom        0.009352     -0.004778     -0.004574
    10   Atom        0.009327     -0.005229     -0.004098
    11   Atom       -0.056687      0.050721      0.005965
 --------------------------------------------------------
                        XY            XZ            YZ
 --------------------------------------------------------
     1   Atom       -0.027940     -0.022862     -0.093830
     2   Atom       -0.011616      0.008633     -0.004003
     3   Atom       -0.000973     -0.005651     -0.000428
     4   Atom       -0.018774      0.094785     -0.211640
     5   Atom       -0.007755      0.007414     -0.005147
     6   Atom       -0.013493     -0.004236      0.002971
     7   Atom        0.001384      0.001096      0.000022
     8   Atom       -0.001423      0.005347     -0.001334
     9   Atom        0.004047     -0.001109     -0.000551
    10   Atom       -0.003796     -0.006468      0.001262
    11   Atom       -0.029376     -0.002581      0.026279
 --------------------------------------------------------


 ---------------------------------------------------------------------------------
              Anisotropic Spin Dipole Couplings in Principal Axis System
 ---------------------------------------------------------------------------------

       Atom             a.u.   MegaHertz   Gauss  10(-4) cm-1        Axes

              Baa    -0.4146    30.003    10.706    10.008  0.5157  0.8532  0.0786
     1 O(17)  Bbb    -0.3474    25.140     8.970     8.386  0.8566 -0.5153 -0.0261
              Bcc     0.7621   -55.143   -19.676   -18.394 -0.0182 -0.0808  0.9966
 
              Baa    -0.0124    -1.669    -0.596    -0.557  0.4655  0.8831 -0.0580
     2 C(13)  Bbb    -0.0078    -1.046    -0.373    -0.349 -0.2976  0.2179  0.9295
              Bcc     0.0202     2.715     0.969     0.906  0.8335 -0.4155  0.3642
 
              Baa    -0.0115    -1.541    -0.550    -0.514  0.1920  0.1519  0.9696
     3 C(13)  Bbb    -0.0075    -1.001    -0.357    -0.334  0.0033  0.9878 -0.1554
              Bcc     0.0189     2.542     0.907     0.848  0.9814 -0.0330 -0.1892
 
              Baa    -0.5080   -68.168   -24.324   -22.738  0.8198  0.5718  0.0293
     4 C(13)  Bbb    -0.4972   -66.719   -23.807   -22.255 -0.5690  0.8079  0.1535
              Bcc     1.0052   134.886    48.131    44.993  0.0640 -0.1425  0.9877
 
              Baa    -0.0085    -4.537    -1.619    -1.513  0.2472  0.8707  0.4252
     5 H(1)   Bbb    -0.0065    -3.466    -1.237    -1.156 -0.5908 -0.2124  0.7784
              Bcc     0.0150     8.003     2.856     2.669  0.7680 -0.4436  0.4619
 
              Baa    -0.0100    -5.340    -1.906    -1.781  0.5482  0.4068  0.7307
     6 H(1)   Bbb    -0.0088    -4.678    -1.669    -1.560 -0.4031 -0.6370  0.6571
              Bcc     0.0188    10.018     3.575     3.342  0.7328 -0.6548 -0.1852
 
              Baa    -0.0104    -5.570    -1.988    -1.858 -0.0484  0.9987  0.0131
     7 H(1)   Bbb    -0.0081    -4.335    -1.547    -1.446 -0.0404 -0.0150  0.9991
              Bcc     0.0186     9.905     3.534     3.304  0.9980  0.0478  0.0411
 
              Baa    -0.0087    -4.638    -1.655    -1.547 -0.1797  0.4574  0.8709
     8 H(1)   Bbb    -0.0064    -3.389    -1.209    -1.130  0.1780  0.8859 -0.4285
              Bcc     0.0150     8.027     2.864     2.677  0.9675 -0.0780  0.2406
 
              Baa    -0.0059    -3.150    -1.124    -1.051 -0.2382  0.9513  0.1955
     9 H(1)   Bbb    -0.0046    -2.466    -0.880    -0.823  0.1266 -0.1692  0.9774
              Bcc     0.0105     5.616     2.004     1.873  0.9629  0.2575 -0.0801
 
              Baa    -0.0068    -3.625    -1.294    -1.209  0.4173  0.3289  0.8472
    10 H(1)   Bbb    -0.0060    -3.215    -1.147    -1.072  0.0637  0.9193 -0.3883
              Bcc     0.0128     6.840     2.441     2.282  0.9065 -0.2160 -0.3627
 
              Baa    -0.0644   -34.384   -12.269   -11.469  0.9637  0.2599 -0.0617
    11 H(1)   Bbb    -0.0046    -2.457    -0.877    -0.820  0.1549 -0.3556  0.9217
              Bcc     0.0690    36.841    13.146    12.289 -0.2176  0.8978  0.3829
 

 ---------------------------------------------------------------------------------

 No NMR shielding tensors so no spin-rotation constants.
 Leave Link  601 at Mon Mar 11 01:15:31 2019, MaxMem=   671088640 cpu:               9.9 elap:               0.5
 (Enter /shared/centos7/gaussian/g16/l9999.exe)
 1\1\GINC-C0250\Scan\UM062X\6-311+G(2df,2p)\C3H7O1(2)\UNDERKOFFLER.C\11
 -Mar-2019\0\\#p m062x/6-311+g(2df,2p) Opt=(CalcFC,ModRedun)\\Gaussian 
 Input Prepared from Scan Object\\0,2\O,0.5731113618,0.2090943213,-0.39
 70111238\C,-1.7654282927,-0.2746312904,-0.3098504454\C,1.8563371399,0.
 073718914,0.1723853545\C,-0.4105381524,-0.4488556504,0.2633509885\H,-2
 .1157043289,0.7615323191,-0.230268548\H,-1.7694821901,-0.5372048201,-1
 .3686711952\H,-2.4792649614,-0.9122195842,0.2079597057\H,2.1681558164,
 -0.9729263249,0.171458062\H,2.5421804004,0.6603690238,-0.4317992342\H,
 1.8638054862,0.4494985474,1.1991266484\H,-0.2578140301,-0.5931886551,1
 .3289594306\\Version=EM64L-G16RevA.03\State=2-A\HF=-193.6565461,-193.6
 563816,-193.6559263,-193.6552939,-193.6546558,-193.6541961,-193.654044
 3,-193.654238,-193.6547203,-193.6553547,-193.65597,-193.6564026,-193.6
 565455,-193.6563597,-193.6558941,-193.6552701,-193.6546539,-193.654208
 2,-193.6540438,-193.6542006,-193.6546454,-193.6552671,-193.6559,-193.6
 563664,-193.6565458,-193.6563933,-193.6559506,-193.6553295,-193.654693
 8,-193.6542206,-193.6540438,-193.6542109,-193.6546762,-193.6553081,-19
 3.6559326,-193.6563819,-193.6565461\S2=0.754321,0.754345,0.754387,0.75
 4441,0.754492,0.754526,0.754527,0.754495,0.754442,0.754387,0.754344,0.
 754321,0.754322,0.754345,0.754387,0.75444,0.754491,0.754524,0.754528,0
 .754501,0.754448,0.754392,0.754344,0.75432,0.754321,0.754346,0.754389,
 0.754442,0.754494,0.754527,0.754529,0.754497,0.754444,0.754389,0.75434
 4,0.754321,0.754321\S2-1=0.,0.,0.,0.,0.,0.,0.,0.,0.,0.,0.,0.,0.,0.,0.,
 0.,0.,0.,0.,0.,0.,0.,0.,0.,0.,0.,0.,0.,0.,0.,0.,0.,0.,0.,0.,0.,0.\S2A=
 0.750015,0.750015,0.750015,0.750015,0.750016,0.750016,0.750016,0.75001
 6,0.750015,0.750015,0.750015,0.750015,0.750015,0.750015,0.750015,0.750
 015,0.750016,0.750016,0.750016,0.750016,0.750015,0.750015,0.750015,0.7
 50015,0.750015,0.750015,0.750015,0.750015,0.750016,0.750016,0.750016,0
 .750016,0.750015,0.750015,0.750015,0.750015,0.750015\RMSD=9.012e-09,5.
 339e-09,6.641e-09,6.770e-09,5.489e-09,3.307e-09,3.702e-09,8.839e-09,7.
 121e-09,9.869e-09,8.480e-09,9.150e-09,6.678e-09,2.698e-09,3.197e-09,4.
 212e-09,9.587e-09,7.739e-09,8.865e-09,3.753e-09,9.287e-09,9.278e-09,8.
 392e-09,6.343e-09,5.010e-09,5.116e-09,8.813e-09,6.321e-09,9.204e-09,9.
 406e-09,6.245e-09,8.989e-09,5.249e-09,7.478e-09,5.048e-09,8.317e-09,1.
 933e-09\PG=C01 [X(C3H7O1)]\\@


 A successful marriage requires falling in love
 many times, always with the same person.
                           -- Mignon McLaughlin
 Job cpu time:       0 days 18 hours 31 minutes 52.0 seconds.
 Elapsed time:       0 days  1 hours 10 minutes  7.7 seconds.
 File lengths (MBytes):  RWF=   1328 Int=      0 D2E=      0 Chk=     32 Scr=     32
 Normal termination of Gaussian 16 at Mon Mar 11 01:15:31 2019.
