 Entering Gaussian System, Link 0=g16
 Input=RJUFJBKOKNCXHH-UHFFFAOYSA-N_36by10.0_tor25_a1.com
 Output=RJUFJBKOKNCXHH-UHFFFAOYSA-N_36by10.0_tor25_a1.log
 Initial command:
 /shared/centos7/gaussian/g16/l1.exe "/scratch/underkoffler.c/gaussian_scratch/Gau-46786.inp" -scrdir="/scratch/underkoffler.c/gaussian_scratch/"
 Entering Link 1 = /shared/centos7/gaussian/g16/l1.exe PID=     46787.
  
 Copyright (c) 1988,1990,1992,1993,1995,1998,2003,2009,2016,
            Gaussian, Inc.  All Rights Reserved.
  
 This is part of the Gaussian(R) 16 program.  It is based on
 the Gaussian(R) 09 system (copyright 2009, Gaussian, Inc.),
 the Gaussian(R) 03 system (copyright 2003, Gaussian, Inc.),
 the Gaussian(R) 98 system (copyright 1998, Gaussian, Inc.),
 the Gaussian(R) 94 system (copyright 1995, Gaussian, Inc.),
 the Gaussian 92(TM) system (copyright 1992, Gaussian, Inc.),
 the Gaussian 90(TM) system (copyright 1990, Gaussian, Inc.),
 the Gaussian 88(TM) system (copyright 1988, Gaussian, Inc.),
 the Gaussian 86(TM) system (copyright 1986, Carnegie Mellon
 University), and the Gaussian 82(TM) system (copyright 1983,
 Carnegie Mellon University). Gaussian is a federally registered
 trademark of Gaussian, Inc.
  
 This software contains proprietary and confidential information,
 including trade secrets, belonging to Gaussian, Inc.
  
 This software is provided under written license and may be
 used, copied, transmitted, or stored only in accord with that
 written license.
  
 The following legend is applicable only to US Government
 contracts under FAR:
  
                    RESTRICTED RIGHTS LEGEND
  
 Use, reproduction and disclosure by the US Government is
 subject to restrictions as set forth in subparagraphs (a)
 and (c) of the Commercial Computer Software - Restricted
 Rights clause in FAR 52.227-19.
  
 Gaussian, Inc.
 340 Quinnipiac St., Bldg. 40, Wallingford CT 06492
  
  
 ---------------------------------------------------------------
 Warning -- This program may not be used in any manner that
 competes with the business of Gaussian, Inc. or will provide
 assistance to any competitor of Gaussian, Inc.  The licensee
 of this program is prohibited from giving any competitor of
 Gaussian, Inc. access to this program.  By using this program,
 the user acknowledges that Gaussian, Inc. is engaged in the
 business of creating and licensing software in the field of
 computational chemistry and represents and warrants to the
 licensee that it is not a competitor of Gaussian, Inc. and that
 it will not use this program in any manner prohibited above.
 ---------------------------------------------------------------
  

 Cite this work as:
 Gaussian 16, Revision A.03,
 M. J. Frisch, G. W. Trucks, H. B. Schlegel, G. E. Scuseria, 
 M. A. Robb, J. R. Cheeseman, G. Scalmani, V. Barone, 
 G. A. Petersson, H. Nakatsuji, X. Li, M. Caricato, A. V. Marenich, 
 J. Bloino, B. G. Janesko, R. Gomperts, B. Mennucci, H. P. Hratchian, 
 J. V. Ortiz, A. F. Izmaylov, J. L. Sonnenberg, D. Williams-Young, 
 F. Ding, F. Lipparini, F. Egidi, J. Goings, B. Peng, A. Petrone, 
 T. Henderson, D. Ranasinghe, V. G. Zakrzewski, J. Gao, N. Rega, 
 G. Zheng, W. Liang, M. Hada, M. Ehara, K. Toyota, R. Fukuda, 
 J. Hasegawa, M. Ishida, T. Nakajima, Y. Honda, O. Kitao, H. Nakai, 
 T. Vreven, K. Throssell, J. A. Montgomery, Jr., J. E. Peralta, 
 F. Ogliaro, M. J. Bearpark, J. J. Heyd, E. N. Brothers, K. N. Kudin, 
 V. N. Staroverov, T. A. Keith, R. Kobayashi, J. Normand, 
 K. Raghavachari, A. P. Rendell, J. C. Burant, S. S. Iyengar, 
 J. Tomasi, M. Cossi, J. M. Millam, M. Klene, C. Adamo, R. Cammi, 
 J. W. Ochterski, R. L. Martin, K. Morokuma, O. Farkas, 
 J. B. Foresman, and D. J. Fox, Gaussian, Inc., Wallingford CT, 2016.
 
 ******************************************
 Gaussian 16:  EM64L-G16RevA.03 25-Dec-2016
                11-Mar-2019 
 ******************************************
 %nprocshared=20
 Will use up to   20 processors via shared memory.
 %mem=5GB
 ----------------------------------------------
 #p m062x/6-311+g(2df,2p) Opt=(CalcFC,ModRedun)
 ----------------------------------------------
 1/10=4,18=120,19=15,26=3,38=1/1,3;
 2/9=110,12=2,17=6,18=5,40=1/2;
 3/5=4,6=6,7=214,11=2,25=1,30=1,71=2,74=-55,140=1/1,2,3;
 4//1;
 5/5=2,38=5/2;
 8/6=4,10=90,11=11/1;
 11/6=1,8=1,9=11,15=111,16=1/1,2,10;
 10/6=1,13=1/2;
 6/7=2,8=2,9=2,10=2,28=1/1;
 7/10=1,18=20,25=1/1,2,3,16;
 1/10=4,18=20,19=15,26=3/3(2);
 2/9=110/2;
 99//99;
 2/9=110/2;
 3/5=4,6=6,7=214,11=2,25=1,30=1,71=1,74=-55/1,2,3;
 4/5=5,16=3,69=1/1;
 5/5=2,38=5/2;
 7//1,2,3,16;
 1/18=20,19=15,26=3/3(-5);
 2/9=110/2;
 6/7=2,8=2,9=2,10=2,19=2,28=1/1;
 99/9=1/99;
 Leave Link    1 at Mon Mar 11 00:05:18 2019, MaxMem=   671088640 cpu:              27.6 elap:               1.5
 (Enter /shared/centos7/gaussian/g16/l101.exe)
 ----------------------------------------
 Gaussian Input Prepared from Scan Object
 ----------------------------------------
 Symbolic Z-matrix:
 Charge =  0 Multiplicity = 1
 O                     1.15609   0.60417   0.45841 
 O                     1.38353  -1.58198   0.04997 
 C                    -0.23583  -0.85119   1.67866 
 C                     0.29442  -0.52      3.07568 
 C                     2.19604   0.85263  -0.48372 
 C                     0.84089  -0.68842   0.6395 
 H                    -0.58248  -1.88      1.62599 
 H                    -1.06254  -0.18648   1.42788 
 H                     1.12819  -1.17109   3.33576 
 H                    -0.48783  -0.65825   3.81942 
 H                     0.63558   0.51227   3.12308 
 H                     3.11534   0.36118  -0.1712 
 H                     2.32721   1.92921  -0.50803 
 H                     1.91409   0.47855  -1.46595 
 
 The following ModRedundant input section has been read:
 B       4       9 B                                                           
 B       5      12 B                                                           
 B       5      13 B                                                           
 B       2       6 B                                                           
 B       3       8 B                                                           
 B       3       6 B                                                           
 B       1       5 B                                                           
 B       3       4 B                                                           
 B       3       7 B                                                           
 B       1       6 B                                                           
 B       5      14 B                                                           
 B       4      10 B                                                           
 B       4      11 B                                                           
 D       4       3       6       2 S  36 10.000                                
 
 ITRead=  0  0  0  0  0  0  0  0  0  0  0  0  0  0
 MicOpt= -1 -1 -1 -1 -1 -1 -1 -1 -1 -1 -1 -1 -1 -1
 NAtoms=     14 NQM=       14 NQMF=       0 NMMI=      0 NMMIF=      0
                NMic=       0 NMicF=      0.
                    Isotopes and Nuclear Properties:
 (Nuclear quadrupole moments (NQMom) in fm**2, nuclear magnetic moments (NMagM)
  in nuclear magnetons)

  Atom         1           2           3           4           5           6           7           8           9          10
 IAtWgt=          16          16          12          12          12          12           1           1           1           1
 AtmWgt=  15.9949146  15.9949146  12.0000000  12.0000000  12.0000000  12.0000000   1.0078250   1.0078250   1.0078250   1.0078250
 NucSpn=           0           0           0           0           0           0           1           1           1           1
 AtZEff=  -0.0000000  -0.0000000  -0.0000000  -0.0000000  -0.0000000  -0.0000000  -0.0000000  -0.0000000  -0.0000000  -0.0000000
 NQMom=    0.0000000   0.0000000   0.0000000   0.0000000   0.0000000   0.0000000   0.0000000   0.0000000   0.0000000   0.0000000
 NMagM=    0.0000000   0.0000000   0.0000000   0.0000000   0.0000000   0.0000000   2.7928460   2.7928460   2.7928460   2.7928460
 AtZNuc=   8.0000000   8.0000000   6.0000000   6.0000000   6.0000000   6.0000000   1.0000000   1.0000000   1.0000000   1.0000000

  Atom        11          12          13          14
 IAtWgt=           1           1           1           1
 AtmWgt=   1.0078250   1.0078250   1.0078250   1.0078250
 NucSpn=           1           1           1           1
 AtZEff=  -0.0000000  -0.0000000  -0.0000000  -0.0000000
 NQMom=    0.0000000   0.0000000   0.0000000   0.0000000
 NMagM=    2.7928460   2.7928460   2.7928460   2.7928460
 AtZNuc=   1.0000000   1.0000000   1.0000000   1.0000000
 Leave Link  101 at Mon Mar 11 00:05:19 2019, MaxMem=   671088640 cpu:               5.0 elap:               0.3
 (Enter /shared/centos7/gaussian/g16/l103.exe)

 GradGradGradGradGradGradGradGradGradGradGradGradGradGradGradGradGradGrad
 Berny optimization.
 Initialization pass.
                           ----------------------------
                           !    Initial Parameters    !
                           ! (Angstroms and Degrees)  !
 --------------------------                            --------------------------
 ! Name  Definition              Value          Derivative Info.                !
 --------------------------------------------------------------------------------
 ! R1    R(1,5)                  1.4251         calculate D2E/DX2 analytically  !
 ! R2    R(1,6)                  1.3427         calculate D2E/DX2 analytically  !
 ! R3    R(2,6)                  1.2002         calculate D2E/DX2 analytically  !
 ! R4    R(3,4)                  1.5305         calculate D2E/DX2 analytically  !
 ! R5    R(3,6)                  1.5052         calculate D2E/DX2 analytically  !
 ! R6    R(3,7)                  1.0869         calculate D2E/DX2 analytically  !
 ! R7    R(3,8)                  1.09           calculate D2E/DX2 analytically  !
 ! R8    R(4,9)                  1.0894         calculate D2E/DX2 analytically  !
 ! R9    R(4,10)                 1.0882         calculate D2E/DX2 analytically  !
 ! R10   R(4,11)                 1.0882         calculate D2E/DX2 analytically  !
 ! R11   R(5,12)                 1.0883         calculate D2E/DX2 analytically  !
 ! R12   R(5,13)                 1.0848         calculate D2E/DX2 analytically  !
 ! R13   R(5,14)                 1.0882         calculate D2E/DX2 analytically  !
 ! A1    A(5,1,6)              115.3601         calculate D2E/DX2 analytically  !
 ! A2    A(4,3,6)              111.0341         calculate D2E/DX2 analytically  !
 ! A3    A(4,3,7)              111.0717         calculate D2E/DX2 analytically  !
 ! A4    A(4,3,8)              109.926          calculate D2E/DX2 analytically  !
 ! A5    A(6,3,7)              107.28           calculate D2E/DX2 analytically  !
 ! A6    A(6,3,8)              108.5266         calculate D2E/DX2 analytically  !
 ! A7    A(7,3,8)              108.9157         calculate D2E/DX2 analytically  !
 ! A8    A(3,4,9)              110.7169         calculate D2E/DX2 analytically  !
 ! A9    A(3,4,10)             110.3225         calculate D2E/DX2 analytically  !
 ! A10   A(3,4,11)             110.7091         calculate D2E/DX2 analytically  !
 ! A11   A(9,4,10)             108.1249         calculate D2E/DX2 analytically  !
 ! A12   A(9,4,11)             108.4574         calculate D2E/DX2 analytically  !
 ! A13   A(10,4,11)            108.4278         calculate D2E/DX2 analytically  !
 ! A14   A(1,5,12)             110.3565         calculate D2E/DX2 analytically  !
 ! A15   A(1,5,13)             106.0264         calculate D2E/DX2 analytically  !
 ! A16   A(1,5,14)             110.3475         calculate D2E/DX2 analytically  !
 ! A17   A(12,5,13)            110.6383         calculate D2E/DX2 analytically  !
 ! A18   A(12,5,14)            108.834          calculate D2E/DX2 analytically  !
 ! A19   A(13,5,14)            110.6254         calculate D2E/DX2 analytically  !
 ! A20   A(1,6,2)              122.979          calculate D2E/DX2 analytically  !
 ! A21   A(1,6,3)              111.4152         calculate D2E/DX2 analytically  !
 ! A22   A(2,6,3)              125.5929         calculate D2E/DX2 analytically  !
 ! D1    D(6,1,5,12)           -59.9563         calculate D2E/DX2 analytically  !
 ! D2    D(6,1,5,13)          -179.8059         calculate D2E/DX2 analytically  !
 ! D3    D(6,1,5,14)            60.3648         calculate D2E/DX2 analytically  !
 ! D4    D(5,1,6,2)             -0.422          calculate D2E/DX2 analytically  !
 ! D5    D(5,1,6,3)            178.3354         calculate D2E/DX2 analytically  !
 ! D6    D(6,3,4,9)            -59.3531         calculate D2E/DX2 analytically  !
 ! D7    D(6,3,4,10)          -179.0059         calculate D2E/DX2 analytically  !
 ! D8    D(6,3,4,11)            60.9682         calculate D2E/DX2 analytically  !
 ! D9    D(7,3,4,9)             59.9362         calculate D2E/DX2 analytically  !
 ! D10   D(7,3,4,10)           -59.7166         calculate D2E/DX2 analytically  !
 ! D11   D(7,3,4,11)          -179.7425         calculate D2E/DX2 analytically  !
 ! D12   D(8,3,4,9)           -179.4529         calculate D2E/DX2 analytically  !
 ! D13   D(8,3,4,10)            60.8942         calculate D2E/DX2 analytically  !
 ! D14   D(8,3,4,11)           -59.1317         calculate D2E/DX2 analytically  !
 ! D15   D(4,3,6,1)            -69.9725         calculate D2E/DX2 analytically  !
 ! D16   D(4,3,6,2)            108.7456         Scan                            !
 ! D17   D(7,3,6,1)            168.4912         calculate D2E/DX2 analytically  !
 ! D18   D(7,3,6,2)            -12.7907         calculate D2E/DX2 analytically  !
 ! D19   D(8,3,6,1)             50.9554         calculate D2E/DX2 analytically  !
 ! D20   D(8,3,6,2)           -130.3265         calculate D2E/DX2 analytically  !
 --------------------------------------------------------------------------------
 Trust Radius=3.00D-01 FncErr=1.00D-07 GrdErr=1.00D-06 EigMax=2.50D+02 EigMin=1.00D-04
 Number of optimizations in scan=  37
 Number of steps in this run=     65 maximum allowed number of steps=    100.
 GradGradGradGradGradGradGradGradGradGradGradGradGradGradGradGradGradGrad

 Leave Link  103 at Mon Mar 11 00:05:19 2019, MaxMem=   671088640 cpu:               0.2 elap:               0.0
 (Enter /shared/centos7/gaussian/g16/l202.exe)
                          Input orientation:                          
 ---------------------------------------------------------------------
 Center     Atomic      Atomic             Coordinates (Angstroms)
 Number     Number       Type             X           Y           Z
 ---------------------------------------------------------------------
      1          8           0        1.156094    0.604168    0.458413
      2          8           0        1.383529   -1.581975    0.049967
      3          6           0       -0.235834   -0.851187    1.678660
      4          6           0        0.294421   -0.520004    3.075685
      5          6           0        2.196044    0.852634   -0.483720
      6          6           0        0.840895   -0.688420    0.639500
      7          1           0       -0.582485   -1.880003    1.625994
      8          1           0       -1.062537   -0.186478    1.427875
      9          1           0        1.128192   -1.171087    3.335758
     10          1           0       -0.487827   -0.658253    3.819421
     11          1           0        0.635582    0.512269    3.123077
     12          1           0        3.115339    0.361175   -0.171204
     13          1           0        2.327215    1.929212   -0.508027
     14          1           0        1.914095    0.478547   -1.465949
 ---------------------------------------------------------------------
                    Distance matrix (angstroms):
                    1          2          3          4          5
     1  O    0.000000
     2  O    2.235571   0.000000
     3  C    2.354681   2.410193   0.000000
     4  C    2.975963   3.386577   1.530533   0.000000
     5  C    1.425078   2.621512   3.673272   4.262590   0.000000
     6  C    1.342731   1.200184   1.505221   2.502398   2.339424
     7  H    3.249155   2.537300   1.086924   2.172594   4.431526
     8  H    2.547018   3.135169   1.090032   2.160521   3.918202
     9  H    3.381039   3.321212   2.169994   1.089367   4.452434
    10  H    3.948741   4.308598   2.164158   1.088195   5.291783
    11  H    2.716581   3.793321   2.169036   1.088221   3.944601
    12  H    2.072223   2.612262   4.015244   4.390483   1.088256
    13  H    2.015260   3.678360   4.368231   4.793110   1.084812
    14  H    2.072080   2.612519   4.034719   4.924113   1.088214
                    6          7          8          9         10
     6  C    0.000000
     7  H    2.102154   0.000000
     8  H    2.120503   1.771363   0.000000
     9  H    2.754145   2.520371   3.067371   0.000000
    10  H    3.446492   2.512519   2.504467   1.763078   0.000000
    11  H    2.766218   3.073745   2.499113   1.766801   1.765521
    12  H    2.632867   4.682596   4.506842   4.312234   5.472397
    13  H    3.221485   5.246953   4.440077   5.081751   5.774620
    14  H    2.635619   4.621232   4.204380   5.137638   5.915799
                   11         12         13         14
    11  H    0.000000
    12  H    4.126053   0.000000
    13  H    4.249031   1.786989   0.000000
    14  H    4.763915   1.770065   1.786816   0.000000
 Stoichiometry    C4H8O2
 Framework group  C1[X(C4H8O2)]
 Deg. of freedom    36
 Full point group                 C1      NOp   1
 Largest Abelian subgroup         C1      NOp   1
 Largest concise Abelian subgroup C1      NOp   1
                         Standard orientation:                         
 ---------------------------------------------------------------------
 Center     Atomic      Atomic             Coordinates (Angstroms)
 Number     Number       Type             X           Y           Z
 ---------------------------------------------------------------------
      1          8           0       -0.774069   -0.667253   -0.293244
      2          8           0       -0.526926    1.468357    0.319837
      3          6           0        1.373974    0.264250   -0.543721
      4          6           0        2.111160   -0.652008    0.435850
      5          6           0       -2.138517   -0.588642    0.110425
      6          6           0       -0.059727    0.457624   -0.128030
      7          1           0        1.834809    1.247939   -0.581005
      8          1           0        1.389173   -0.171188   -1.542886
      9          1           0        2.095437   -0.233321    1.441422
     10          1           0        3.150112   -0.769724    0.134373
     11          1           0        1.647850   -1.636239    0.465167
     12          1           0       -2.206745   -0.343262    1.168459
     13          1           0       -2.565047   -1.567061   -0.083447
     14          1           0       -2.658965    0.176674   -0.461968
 ---------------------------------------------------------------------
 Rotational constants (GHZ):           6.5198474           2.5027450           2.0384071
 Leave Link  202 at Mon Mar 11 00:05:19 2019, MaxMem=   671088640 cpu:               0.2 elap:               0.0
 (Enter /shared/centos7/gaussian/g16/l301.exe)
 Standard basis: 6-311+G(2df,2p) (5D, 7F)
 Ernie: Thresh=  0.10000D-02 Tol=  0.10000D-05 Strict=F.
 There are   306 symmetry adapted cartesian basis functions of A   symmetry.
 There are   276 symmetry adapted basis functions of A   symmetry.
   276 basis functions,   400 primitive gaussians,   306 cartesian basis functions
    24 alpha electrons       24 beta electrons
       nuclear repulsion energy       247.6544359756 Hartrees.
 IExCor= 4336 DFT=T Ex+Corr=M062X ExCW=0 ScaHFX=  0.540000
 ScaDFX=  1.000000  1.000000  1.000000  1.000000 ScalE2=  1.000000  1.000000
 IRadAn=      5 IRanWt=     -1 IRanGd=            0 ICorTp=0 IEmpDi=  4
 NAtoms=   14 NActive=   14 NUniq=   14 SFac= 1.00D+00 NAtFMM=   60 NAOKFM=F Big=F
 Integral buffers will be    131072 words long.
 Raffenetti 2 integral format.
 Two-electron integral symmetry is turned on.
 Leave Link  301 at Mon Mar 11 00:05:19 2019, MaxMem=   671088640 cpu:               1.0 elap:               0.1
 (Enter /shared/centos7/gaussian/g16/l302.exe)
 NPDir=0 NMtPBC=     1 NCelOv=     1 NCel=       1 NClECP=     1 NCelD=      1
         NCelK=      1 NCelE2=     1 NClLst=     1 CellRange=     0.0.
 One-electron integrals computed using PRISM.
 One-electron integral symmetry used in STVInt
 NBasis=   276 RedAO= T EigKep=  3.41D-05  NBF=   276
 NBsUse=   276 1.00D-06 EigRej= -1.00D+00 NBFU=   276
 Precomputing XC quadrature grid using
 IXCGrd= 4 IRadAn=           5 IRanWt=          -1 IRanGd=           0 AccXCQ= 0.00D+00.
 Generated NRdTot=       0 NPtTot=           0 NUsed=           0 NTot=          32
 NSgBfM=   306   306   306   306   306 MxSgAt=    14 MxSgA2=    14.
 Leave Link  302 at Mon Mar 11 00:05:19 2019, MaxMem=   671088640 cpu:               6.7 elap:               0.4
 (Enter /shared/centos7/gaussian/g16/l303.exe)
 DipDrv:  MaxL=1.
 Leave Link  303 at Mon Mar 11 00:05:19 2019, MaxMem=   671088640 cpu:               0.6 elap:               0.1
 (Enter /shared/centos7/gaussian/g16/l401.exe)
 ExpMin= 4.38D-02 ExpMax= 8.59D+03 ExpMxC= 1.30D+03 IAcc=3 IRadAn=         5 AccDes= 0.00D+00
 Harris functional with IExCor= 1009 and IRadAn=       5 diagonalized for initial guess.
 HarFok:  IExCor= 1009 AccDes= 0.00D+00 IRadAn=         5 IDoV= 1 UseB2=F ITyADJ=14
 ICtDFT=  3500011 ScaDFX=  1.000000  1.000000  1.000000  1.000000
 FoFCou: FMM=F IPFlag=           0 FMFlag=      100000 FMFlg1=           0
         NFxFlg=           0 DoJE=T BraDBF=F KetDBF=T FulRan=T
         wScrn=  0.000000 ICntrl=       500 IOpCl=  0 I1Cent=   200000004 NGrid=           0
         NMat0=    1 NMatS0=      1 NMatT0=    0 NMatD0=    1 NMtDS0=    0 NMtDT0=    0
 Petite list used in FoFCou.
 Harris En= -307.571935823153    
 JPrj=0 DoOrth=F DoCkMO=F.
 Leave Link  401 at Mon Mar 11 00:05:20 2019, MaxMem=   671088640 cpu:              18.2 elap:               0.9
 (Enter /shared/centos7/gaussian/g16/l502.exe)
 Integral symmetry usage will be decided dynamically.
 Closed shell SCF:
 Using DIIS extrapolation, IDIIS=  1040.
 NGot=   671088640 LenX=   670892442 LenY=   670798365
 Requested convergence on RMS density matrix=1.00D-08 within 128 cycles.
 Requested convergence on MAX density matrix=1.00D-06.
 Requested convergence on             energy=1.00D-06.
 No special actions if energy rises.
 Fock matrices will be formed incrementally for  20 cycles.

 Cycle   1  Pass 1  IDiag  1:
 FoFJK:  IHMeth= 1 ICntrl=       0 DoSepK=F KAlg= 0 I1Cent=           0 FoldK=F
 IRaf= 970000000 NMat=       1 IRICut=       1 DoRegI=T DoRafI=F ISym2E= 0 IDoP0=0 IntGTp=1.
 FoFCou: FMM=F IPFlag=           0 FMFlag=      100000 FMFlg1=           0
         NFxFlg=           0 DoJE=F BraDBF=F KetDBF=F FulRan=T
         wScrn=  0.000000 ICntrl=         0 IOpCl=  0 I1Cent=           0 NGrid=           0
         NMat0=    1 NMatS0=      1 NMatT0=    0 NMatD0=    1 NMtDS0=    0 NMtDT0=    0
 Symmetry not used in FoFCou.
 E= -307.469317921340    
 DIIS: error= 2.81D-02 at cycle   1 NSaved=   1.
 NSaved= 1 IEnMin= 1 EnMin= -307.469317921340     IErMin= 1 ErrMin= 2.81D-02
 ErrMax= 2.81D-02  0.00D+00 EMaxC= 1.00D-01 BMatC= 2.81D-01 BMatP= 2.81D-01
 IDIUse=3 WtCom= 7.19D-01 WtEn= 2.81D-01
 Coeff-Com:  0.100D+01
 Coeff-En:   0.100D+01
 Coeff:      0.100D+01
 Gap=     0.326 Goal=   None    Shift=    0.000
 GapD=    0.326 DampG=1.000 DampE=0.500 DampFc=0.5000 IDamp=-1.
 Damping current iteration by 5.00D-01
 RMSDP=2.54D-03 MaxDP=1.08D-01              OVMax= 1.73D-01

 Cycle   2  Pass 1  IDiag  1:
 RMSU=  1.26D-03    CP:  9.82D-01
 E= -307.568948615084     Delta-E=       -0.099630693745 Rises=F Damp=T
 DIIS: error= 5.89D-03 at cycle   2 NSaved=   2.
 NSaved= 2 IEnMin= 2 EnMin= -307.568948615084     IErMin= 2 ErrMin= 5.89D-03
 ErrMax= 5.89D-03  0.00D+00 EMaxC= 1.00D-01 BMatC= 2.21D-02 BMatP= 2.81D-01
 IDIUse=3 WtCom= 9.41D-01 WtEn= 5.89D-02
 Coeff-Com: -0.362D-01 0.104D+01
 Coeff-En:   0.000D+00 0.100D+01
 Coeff:     -0.341D-01 0.103D+01
 Gap=     0.379 Goal=   None    Shift=    0.000
 RMSDP=8.65D-04 MaxDP=4.40D-02 DE=-9.96D-02 OVMax= 8.87D-02

 Cycle   3  Pass 1  IDiag  1:
 RMSU=  8.46D-04    CP:  9.64D-01  9.47D-01
 E= -307.664809373723     Delta-E=       -0.095860758639 Rises=F Damp=F
 DIIS: error= 7.44D-03 at cycle   3 NSaved=   3.
 NSaved= 3 IEnMin= 3 EnMin= -307.664809373723     IErMin= 2 ErrMin= 5.89D-03
 ErrMax= 7.44D-03  0.00D+00 EMaxC= 1.00D-01 BMatC= 1.38D-02 BMatP= 2.21D-02
 IDIUse=3 WtCom= 9.26D-01 WtEn= 7.44D-02
 Coeff-Com: -0.836D-01 0.476D+00 0.608D+00
 Coeff-En:   0.000D+00 0.000D+00 0.100D+01
 Coeff:     -0.774D-01 0.440D+00 0.637D+00
 Gap=     0.363 Goal=   None    Shift=    0.000
 RMSDP=3.77D-04 MaxDP=1.53D-02 DE=-9.59D-02 OVMax= 4.35D-02

 Cycle   4  Pass 1  IDiag  1:
 RMSU=  3.28D-04    CP:  9.64D-01  1.07D+00  8.65D-01
 E= -307.672481889481     Delta-E=       -0.007672515758 Rises=F Damp=F
 DIIS: error= 2.58D-03 at cycle   4 NSaved=   4.
 NSaved= 4 IEnMin= 4 EnMin= -307.672481889481     IErMin= 4 ErrMin= 2.58D-03
 ErrMax= 2.58D-03  0.00D+00 EMaxC= 1.00D-01 BMatC= 2.92D-03 BMatP= 1.38D-02
 IDIUse=3 WtCom= 9.74D-01 WtEn= 2.58D-02
 Coeff-Com: -0.295D-01 0.824D-01 0.346D+00 0.601D+00
 Coeff-En:   0.000D+00 0.000D+00 0.183D+00 0.817D+00
 Coeff:     -0.288D-01 0.803D-01 0.342D+00 0.606D+00
 Gap=     0.363 Goal=   None    Shift=    0.000
 RMSDP=1.36D-04 MaxDP=4.97D-03 DE=-7.67D-03 OVMax= 1.18D-02

 Cycle   5  Pass 1  IDiag  1:
 RMSU=  6.16D-05    CP:  9.62D-01  1.03D+00  9.27D-01  6.95D-01
 E= -307.674623295426     Delta-E=       -0.002141405944 Rises=F Damp=F
 DIIS: error= 2.83D-04 at cycle   5 NSaved=   5.
 NSaved= 5 IEnMin= 5 EnMin= -307.674623295426     IErMin= 5 ErrMin= 2.83D-04
 ErrMax= 2.83D-04  0.00D+00 EMaxC= 1.00D-01 BMatC= 5.95D-05 BMatP= 2.92D-03
 IDIUse=3 WtCom= 9.97D-01 WtEn= 2.83D-03
 Coeff-Com: -0.729D-02 0.142D-01 0.112D+00 0.241D+00 0.640D+00
 Coeff-En:   0.000D+00 0.000D+00 0.000D+00 0.000D+00 0.100D+01
 Coeff:     -0.727D-02 0.141D-01 0.112D+00 0.241D+00 0.641D+00
 Gap=     0.362 Goal=   None    Shift=    0.000
 RMSDP=2.48D-05 MaxDP=1.19D-03 DE=-2.14D-03 OVMax= 2.46D-03

 Cycle   6  Pass 1  IDiag  1:
 RMSU=  2.10D-05    CP:  9.62D-01  1.03D+00  9.37D-01  7.19D-01  9.26D-01
 E= -307.674666438452     Delta-E=       -0.000043143026 Rises=F Damp=F
 DIIS: error= 1.26D-04 at cycle   6 NSaved=   6.
 NSaved= 6 IEnMin= 6 EnMin= -307.674666438452     IErMin= 6 ErrMin= 1.26D-04
 ErrMax= 1.26D-04  0.00D+00 EMaxC= 1.00D-01 BMatC= 7.41D-06 BMatP= 5.95D-05
 IDIUse=3 WtCom= 9.99D-01 WtEn= 1.26D-03
 Coeff-Com: -0.835D-04-0.251D-02 0.158D-01 0.445D-01 0.287D+00 0.655D+00
 Coeff-En:   0.000D+00 0.000D+00 0.000D+00 0.000D+00 0.000D+00 0.100D+01
 Coeff:     -0.834D-04-0.250D-02 0.158D-01 0.445D-01 0.287D+00 0.655D+00
 Gap=     0.363 Goal=   None    Shift=    0.000
 RMSDP=8.55D-06 MaxDP=4.23D-04 DE=-4.31D-05 OVMax= 4.85D-04

 Cycle   7  Pass 1  IDiag  1:
 RMSU=  6.57D-06    CP:  9.62D-01  1.03D+00  9.40D-01  7.22D-01  9.80D-01
                    CP:  9.88D-01
 E= -307.674672106034     Delta-E=       -0.000005667583 Rises=F Damp=F
 DIIS: error= 3.03D-05 at cycle   7 NSaved=   7.
 NSaved= 7 IEnMin= 7 EnMin= -307.674672106034     IErMin= 7 ErrMin= 3.03D-05
 ErrMax= 3.03D-05  0.00D+00 EMaxC= 1.00D-01 BMatC= 4.85D-07 BMatP= 7.41D-06
 IDIUse=1 WtCom= 1.00D+00 WtEn= 0.00D+00
 Coeff-Com:  0.119D-02-0.287D-02-0.105D-01-0.240D-01-0.465D-02 0.142D+00
 Coeff-Com:  0.899D+00
 Coeff:      0.119D-02-0.287D-02-0.105D-01-0.240D-01-0.465D-02 0.142D+00
 Coeff:      0.899D+00
 Gap=     0.363 Goal=   None    Shift=    0.000
 RMSDP=4.20D-06 MaxDP=1.02D-04 DE=-5.67D-06 OVMax= 3.99D-04

 Cycle   8  Pass 1  IDiag  1:
 RMSU=  2.61D-06    CP:  9.62D-01  1.03D+00  9.42D-01  7.21D-01  1.01D+00
                    CP:  1.05D+00  1.08D+00
 E= -307.674672711930     Delta-E=       -0.000000605896 Rises=F Damp=F
 DIIS: error= 1.23D-05 at cycle   8 NSaved=   8.
 NSaved= 8 IEnMin= 8 EnMin= -307.674672711930     IErMin= 8 ErrMin= 1.23D-05
 ErrMax= 1.23D-05  0.00D+00 EMaxC= 1.00D-01 BMatC= 8.05D-08 BMatP= 4.85D-07
 IDIUse=1 WtCom= 1.00D+00 WtEn= 0.00D+00
 Coeff-Com:  0.445D-03-0.811D-03-0.488D-02-0.137D-01-0.309D-01-0.263D-01
 Coeff-Com:  0.317D+00 0.759D+00
 Coeff:      0.445D-03-0.811D-03-0.488D-02-0.137D-01-0.309D-01-0.263D-01
 Coeff:      0.317D+00 0.759D+00
 Gap=     0.363 Goal=   None    Shift=    0.000
 RMSDP=1.33D-06 MaxDP=3.53D-05 DE=-6.06D-07 OVMax= 1.09D-04

 Cycle   9  Pass 1  IDiag  1:
 RMSU=  7.62D-07    CP:  9.62D-01  1.03D+00  9.43D-01  7.20D-01  1.02D+00
                    CP:  1.06D+00  1.18D+00  1.06D+00
 E= -307.674672801466     Delta-E=       -0.000000089536 Rises=F Damp=F
 DIIS: error= 2.70D-06 at cycle   9 NSaved=   9.
 NSaved= 9 IEnMin= 9 EnMin= -307.674672801466     IErMin= 9 ErrMin= 2.70D-06
 ErrMax= 2.70D-06  0.00D+00 EMaxC= 1.00D-01 BMatC= 3.35D-09 BMatP= 8.05D-08
 IDIUse=1 WtCom= 1.00D+00 WtEn= 0.00D+00
 Coeff-Com: -0.600D-04 0.158D-03 0.654D-03 0.648D-03-0.268D-02-0.142D-01
 Coeff-Com: -0.484D-01 0.727D-01 0.991D+00
 Coeff:     -0.600D-04 0.158D-03 0.654D-03 0.648D-03-0.268D-02-0.142D-01
 Coeff:     -0.484D-01 0.727D-01 0.991D+00
 Gap=     0.363 Goal=   None    Shift=    0.000
 RMSDP=4.13D-07 MaxDP=1.54D-05 DE=-8.95D-08 OVMax= 4.19D-05

 Cycle  10  Pass 1  IDiag  1:
 RMSU=  2.43D-07    CP:  9.62D-01  1.03D+00  9.43D-01  7.20D-01  1.02D+00
                    CP:  1.07D+00  1.20D+00  1.15D+00  1.05D+00
 E= -307.674672806512     Delta-E=       -0.000000005046 Rises=F Damp=F
 DIIS: error= 6.10D-07 at cycle  10 NSaved=  10.
 NSaved=10 IEnMin=10 EnMin= -307.674672806512     IErMin=10 ErrMin= 6.10D-07
 ErrMax= 6.10D-07  0.00D+00 EMaxC= 1.00D-01 BMatC= 2.58D-10 BMatP= 3.35D-09
 IDIUse=1 WtCom= 1.00D+00 WtEn= 0.00D+00
 Coeff-Com: -0.392D-04 0.842D-04 0.480D-03 0.979D-03 0.118D-02-0.144D-02
 Coeff-Com: -0.308D-01-0.342D-01 0.241D+00 0.823D+00
 Coeff:     -0.392D-04 0.842D-04 0.480D-03 0.979D-03 0.118D-02-0.144D-02
 Coeff:     -0.308D-01-0.342D-01 0.241D+00 0.823D+00
 Gap=     0.363 Goal=   None    Shift=    0.000
 RMSDP=1.00D-07 MaxDP=4.90D-06 DE=-5.05D-09 OVMax= 7.18D-06

 Cycle  11  Pass 1  IDiag  1:
 RMSU=  5.30D-08    CP:  9.62D-01  1.03D+00  9.43D-01  7.20D-01  1.02D+00
                    CP:  1.07D+00  1.20D+00  1.17D+00  1.12D+00  1.00D+00
 E= -307.674672806808     Delta-E=       -0.000000000296 Rises=F Damp=F
 DIIS: error= 2.00D-07 at cycle  11 NSaved=  11.
 NSaved=11 IEnMin=11 EnMin= -307.674672806808     IErMin=11 ErrMin= 2.00D-07
 ErrMax= 2.00D-07  0.00D+00 EMaxC= 1.00D-01 BMatC= 1.56D-11 BMatP= 2.58D-10
 IDIUse=1 WtCom= 1.00D+00 WtEn= 0.00D+00
 Coeff-Com: -0.293D-05 0.488D-05 0.631D-04 0.155D-03 0.398D-03 0.535D-03
 Coeff-Com: -0.304D-02-0.122D-01-0.186D-01 0.146D+00 0.886D+00
 Coeff:     -0.293D-05 0.488D-05 0.631D-04 0.155D-03 0.398D-03 0.535D-03
 Coeff:     -0.304D-02-0.122D-01-0.186D-01 0.146D+00 0.886D+00
 Gap=     0.363 Goal=   None    Shift=    0.000
 RMSDP=2.12D-08 MaxDP=1.03D-06 DE=-2.96D-10 OVMax= 2.00D-06

 Cycle  12  Pass 1  IDiag  1:
 RMSU=  1.43D-08    CP:  9.62D-01  1.03D+00  9.43D-01  7.20D-01  1.02D+00
                    CP:  1.07D+00  1.20D+00  1.17D+00  1.13D+00  1.05D+00
                    CP:  1.09D+00
 E= -307.674672806836     Delta-E=       -0.000000000029 Rises=F Damp=F
 DIIS: error= 5.72D-08 at cycle  12 NSaved=  12.
 NSaved=12 IEnMin=12 EnMin= -307.674672806836     IErMin=12 ErrMin= 5.72D-08
 ErrMax= 5.72D-08  0.00D+00 EMaxC= 1.00D-01 BMatC= 2.10D-12 BMatP= 1.56D-11
 IDIUse=1 WtCom= 1.00D+00 WtEn= 0.00D+00
 Coeff-Com:  0.196D-05-0.432D-05-0.113D-04-0.179D-04 0.498D-04 0.238D-03
 Coeff-Com:  0.117D-02-0.169D-02-0.237D-01-0.964D-02 0.319D+00 0.714D+00
 Coeff:      0.196D-05-0.432D-05-0.113D-04-0.179D-04 0.498D-04 0.238D-03
 Coeff:      0.117D-02-0.169D-02-0.237D-01-0.964D-02 0.319D+00 0.714D+00
 Gap=     0.363 Goal=   None    Shift=    0.000
 RMSDP=6.95D-09 MaxDP=3.40D-07 DE=-2.88D-11 OVMax= 3.10D-07

 SCF Done:  E(RM062X) =  -307.674672807     A.U. after   12 cycles
            NFock= 12  Conv=0.70D-08     -V/T= 2.0036
 KE= 3.065713301349D+02 PE=-1.215005698704D+03 EE= 3.531052597870D+02
 Leave Link  502 at Mon Mar 11 00:05:47 2019, MaxMem=   671088640 cpu:             534.7 elap:              26.8
 (Enter /shared/centos7/gaussian/g16/l801.exe)
 DoSCS=F DFT=T ScalE2(SS,OS)=  1.000000  1.000000
 Range of M.O.s used for correlation:     1   276
 NBasis=   276 NAE=    24 NBE=    24 NFC=     0 NFV=     0
 NROrb=    276 NOA=    24 NOB=    24 NVA=   252 NVB=   252

 **** Warning!!: The largest alpha MO coefficient is  0.41527469D+02

 Leave Link  801 at Mon Mar 11 00:05:47 2019, MaxMem=   671088640 cpu:               0.3 elap:               0.0
 (Enter /shared/centos7/gaussian/g16/l1101.exe)
 Using compressed storage, NAtomX=    14.
 Will process     15 centers per pass.
 Leave Link 1101 at Mon Mar 11 00:05:47 2019, MaxMem=   671088640 cpu:               5.7 elap:               0.3
 (Enter /shared/centos7/gaussian/g16/l1102.exe)
 Symmetrizing basis deriv contribution to polar:
 IMax=3 JMax=2 DiffMx= 0.00D+00
 Leave Link 1102 at Mon Mar 11 00:05:47 2019, MaxMem=   671088640 cpu:               0.6 elap:               0.1
 (Enter /shared/centos7/gaussian/g16/l1110.exe)
 Forming Gx(P) for the SCF density, NAtomX=    14.
 Integral derivatives from FoFJK, PRISM(SPDF).
 Do as many integral derivatives as possible in FoFJK.
 G2DrvN: MDV=     671087496.
 G2DrvN: will do    15 centers at a time, making    1 passes.
 Calling FoFCou, ICntrl=  3107 FMM=F I1Cent=   0 AccDes= 0.00D+00.
 FoFJK:  IHMeth= 1 ICntrl=    3107 DoSepK=F KAlg= 0 I1Cent=           0 FoldK=F
 IRaf=         0 NMat=       1 IRICut=       1 DoRegI=T DoRafI=F ISym2E= 0 IDoP0=0 IntGTp=1.
 FoFCou: FMM=F IPFlag=           0 FMFlag=      100000 FMFlg1=           0
         NFxFlg=           0 DoJE=F BraDBF=F KetDBF=F FulRan=T
         wScrn=  0.000000 ICntrl=      3107 IOpCl=  0 I1Cent=           0 NGrid=           0
         NMat0=    1 NMatS0=      1 NMatT0=    0 NMatD0=    1 NMtDS0=    0 NMtDT0=    0
 Symmetry not used in FoFCou.
 End of G2Drv F.D. properties file   721 does not exist.
 End of G2Drv F.D. properties file   722 does not exist.
 End of G2Drv F.D. properties file   788 does not exist.
 Leave Link 1110 at Mon Mar 11 00:06:42 2019, MaxMem=   671088640 cpu:            1091.6 elap:              54.6
 (Enter /shared/centos7/gaussian/g16/l1002.exe)
 Minotr:  Closed shell wavefunction.
          IDoAtm=11111111111111
          Direct CPHF calculation.
          Differentiating once with respect to nuclear coordinates.
          Requested convergence is 1.0D-08 RMS, and 1.0D-07 maximum.
          Secondary convergence is 1.0D-12 RMS, and 1.0D-12 maximum.
          NewPWx=T KeepS1=F KeepF1=F KeepIn=T MapXYZ=F SortEE=F KeepMc=T.
         4271 words used for storage of precomputed grid.
 Two-electron integrals replicated using symmetry.
          MDV=     671088640 using IRadAn=       1.
          Solving linear equations simultaneously, MaxMat=     380.
 FoF2E skips out because all densities are zero.
 CalDSu exits because no D1Ps are significant.
 FoFJK:  IHMeth= 1 ICntrl=       0 DoSepK=F KAlg= 0 I1Cent=           0 FoldK=F
 IRaf= 950000000 NMat=      42 IRICut=     105 DoRegI=T DoRafI=T ISym2E= 2 IDoP0=3 IntGTp=3.
 FoFCou: FMM=F IPFlag=           0 FMFlag=      100000 FMFlg1=           0
         NFxFlg=           0 DoJE=F BraDBF=F KetDBF=F FulRan=T
         wScrn=  0.000000 ICntrl=         0 IOpCl=  0 I1Cent=           0 NGrid=           0
         NMat0=   42 NMatS0=     42 NMatT0=    0 NMatD0=   42 NMtDS0=    0 NMtDT0=    0
 Integrals replicated using symmetry in FoFCou.
 Raff kept on since  93.62% of shell-pairs survive, threshold=   0.20 IRatSp=94.
          There are    45 degrees of freedom in the 1st order CPHF.  IDoFFX=6 NUNeed=     0.
     39 vectors produced by pass  0 Test12= 1.34D-14 2.22D-09 XBig12= 6.81D-02 4.50D-02.
 AX will form    39 AO Fock derivatives at one time.
     39 vectors produced by pass  1 Test12= 1.34D-14 2.22D-09 XBig12= 9.46D-03 2.78D-02.
     39 vectors produced by pass  2 Test12= 1.34D-14 2.22D-09 XBig12= 3.27D-04 2.36D-03.
     39 vectors produced by pass  3 Test12= 1.34D-14 2.22D-09 XBig12= 3.30D-06 2.34D-04.
     39 vectors produced by pass  4 Test12= 1.34D-14 2.22D-09 XBig12= 2.81D-08 1.54D-05.
     39 vectors produced by pass  5 Test12= 1.34D-14 2.22D-09 XBig12= 1.65D-10 1.57D-06.
     21 vectors produced by pass  6 Test12= 1.34D-14 2.22D-09 XBig12= 6.92D-13 8.76D-08.
      1 vectors produced by pass  7 Test12= 1.34D-14 2.22D-09 XBig12= 2.71D-15 4.57D-09.
 InvSVY:  IOpt=1 It=  1 EMax= 1.67D-15
 Solved reduced A of dimension   256 with    39 vectors.
 End of Minotr F.D. properties file   721 does not exist.
 End of Minotr F.D. properties file   722 does not exist.
 End of Minotr F.D. properties file   788 does not exist.
 Leave Link 1002 at Mon Mar 11 00:07:57 2019, MaxMem=   671088640 cpu:            1504.9 elap:              75.3
 (Enter /shared/centos7/gaussian/g16/l601.exe)
 Copying SCF densities to generalized density rwf, IOpCl= 0 IROHF=0.

 **********************************************************************

            Population analysis using the SCF density.

 **********************************************************************

 Orbital symmetries:
       Occupied  (A) (A) (A) (A) (A) (A) (A) (A) (A) (A) (A) (A)
                 (A) (A) (A) (A) (A) (A) (A) (A) (A) (A) (A) (A)
       Virtual   (A) (A) (A) (A) (A) (A) (A) (A) (A) (A) (A) (A)
                 (A) (A) (A) (A) (A) (A) (A) (A) (A) (A) (A) (A)
                 (A) (A) (A) (A) (A) (A) (A) (A) (A) (A) (A) (A)
                 (A) (A) (A) (A) (A) (A) (A) (A) (A) (A) (A) (A)
                 (A) (A) (A) (A) (A) (A) (A) (A) (A) (A) (A) (A)
                 (A) (A) (A) (A) (A) (A) (A) (A) (A) (A) (A) (A)
                 (A) (A) (A) (A) (A) (A) (A) (A) (A) (A) (A) (A)
                 (A) (A) (A) (A) (A) (A) (A) (A) (A) (A) (A) (A)
                 (A) (A) (A) (A) (A) (A) (A) (A) (A) (A) (A) (A)
                 (A) (A) (A) (A) (A) (A) (A) (A) (A) (A) (A) (A)
                 (A) (A) (A) (A) (A) (A) (A) (A) (A) (A) (A) (A)
                 (A) (A) (A) (A) (A) (A) (A) (A) (A) (A) (A) (A)
                 (A) (A) (A) (A) (A) (A) (A) (A) (A) (A) (A) (A)
                 (A) (A) (A) (A) (A) (A) (A) (A) (A) (A) (A) (A)
                 (A) (A) (A) (A) (A) (A) (A) (A) (A) (A) (A) (A)
                 (A) (A) (A) (A) (A) (A) (A) (A) (A) (A) (A) (A)
                 (A) (A) (A) (A) (A) (A) (A) (A) (A) (A) (A) (A)
                 (A) (A) (A) (A) (A) (A) (A) (A) (A) (A) (A) (A)
                 (A) (A) (A) (A) (A) (A) (A) (A) (A) (A) (A) (A)
                 (A) (A) (A) (A) (A) (A) (A) (A) (A) (A) (A) (A)
                 (A) (A) (A) (A) (A) (A) (A) (A) (A) (A) (A) (A)
 The electronic state is 1-A.
 Alpha  occ. eigenvalues --  -19.66928 -19.61175 -10.66755 -10.58936 -10.55001
 Alpha  occ. eigenvalues --  -10.53737  -1.23831  -1.14251  -0.89702  -0.81973
 Alpha  occ. eigenvalues --   -0.73867  -0.65201  -0.58787  -0.57068  -0.56708
 Alpha  occ. eigenvalues --   -0.52064  -0.49901  -0.48171  -0.45419  -0.43025
 Alpha  occ. eigenvalues --   -0.42923  -0.42238  -0.37817  -0.35138
 Alpha virt. eigenvalues --    0.01147   0.02218   0.03233   0.04229   0.04539
 Alpha virt. eigenvalues --    0.05576   0.06027   0.06514   0.08184   0.08530
 Alpha virt. eigenvalues --    0.09165   0.10103   0.10850   0.12537   0.12736
 Alpha virt. eigenvalues --    0.15285   0.15810   0.19193   0.19332   0.20232
 Alpha virt. eigenvalues --    0.20709   0.21957   0.22872   0.24452   0.24684
 Alpha virt. eigenvalues --    0.25505   0.26993   0.28784   0.29297   0.30054
 Alpha virt. eigenvalues --    0.30155   0.32781   0.33241   0.34397   0.35912
 Alpha virt. eigenvalues --    0.38396   0.40493   0.42687   0.44660   0.45605
 Alpha virt. eigenvalues --    0.47358   0.49543   0.50170   0.52233   0.53475
 Alpha virt. eigenvalues --    0.54247   0.54988   0.56424   0.57301   0.57931
 Alpha virt. eigenvalues --    0.60235   0.61295   0.62435   0.64829   0.65518
 Alpha virt. eigenvalues --    0.66551   0.68559   0.69707   0.71060   0.74276
 Alpha virt. eigenvalues --    0.76711   0.78214   0.80776   0.83899   0.84062
 Alpha virt. eigenvalues --    0.87849   0.88724   0.90250   0.93138   0.94997
 Alpha virt. eigenvalues --    0.96145   0.97838   1.04566   1.07018   1.07550
 Alpha virt. eigenvalues --    1.08940   1.09771   1.12893   1.13845   1.14736
 Alpha virt. eigenvalues --    1.15864   1.17895   1.19258   1.19677   1.21337
 Alpha virt. eigenvalues --    1.21493   1.22674   1.24494   1.27529   1.29601
 Alpha virt. eigenvalues --    1.30506   1.32094   1.33974   1.35735   1.35885
 Alpha virt. eigenvalues --    1.39540   1.41171   1.42032   1.43388   1.44614
 Alpha virt. eigenvalues --    1.45404   1.46738   1.48679   1.51540   1.53011
 Alpha virt. eigenvalues --    1.55511   1.58066   1.61383   1.63067   1.66103
 Alpha virt. eigenvalues --    1.68296   1.70423   1.73123   1.74778   1.83414
 Alpha virt. eigenvalues --    1.85498   1.93535   2.06444   2.10433   2.16849
 Alpha virt. eigenvalues --    2.31060   2.32697   2.40778   2.45905   2.49476
 Alpha virt. eigenvalues --    2.49847   2.53144   2.57164   2.60241   2.66633
 Alpha virt. eigenvalues --    2.70526   2.75261   2.76686   2.79931   2.84670
 Alpha virt. eigenvalues --    2.85206   2.90964   2.95829   2.96452   2.99276
 Alpha virt. eigenvalues --    3.00338   3.02095   3.03667   3.06977   3.07752
 Alpha virt. eigenvalues --    3.11261   3.12563   3.13134   3.15102   3.19731
 Alpha virt. eigenvalues --    3.22180   3.24777   3.26913   3.28861   3.31866
 Alpha virt. eigenvalues --    3.33482   3.34830   3.36231   3.40241   3.41523
 Alpha virt. eigenvalues --    3.45144   3.46280   3.47526   3.50535   3.51459
 Alpha virt. eigenvalues --    3.55394   3.59387   3.59732   3.61240   3.65212
 Alpha virt. eigenvalues --    3.68323   3.69782   3.75754   3.78481   3.83110
 Alpha virt. eigenvalues --    3.84275   3.86855   3.87295   3.87729   3.90230
 Alpha virt. eigenvalues --    3.96241   3.97783   3.98054   4.01547   4.03152
 Alpha virt. eigenvalues --    4.08218   4.10035   4.13982   4.17386   4.22363
 Alpha virt. eigenvalues --    4.23852   4.24179   4.25999   4.27438   4.31245
 Alpha virt. eigenvalues --    4.33090   4.34014   4.36984   4.38504   4.43408
 Alpha virt. eigenvalues --    4.49156   4.50117   4.50459   4.54120   4.57194
 Alpha virt. eigenvalues --    4.59510   4.68388   4.89966   4.93152   5.08612
 Alpha virt. eigenvalues --    5.11132   5.16713   5.22383   5.22752   5.24177
 Alpha virt. eigenvalues --    5.27017   5.37372   5.38693   5.46232   5.50297
 Alpha virt. eigenvalues --    5.52722   5.55655   5.56917   5.59383   5.63483
 Alpha virt. eigenvalues --    5.65659   5.69214   5.74895   5.80735   6.00156
 Alpha virt. eigenvalues --    6.08682   6.39813   6.46879   6.67824   6.83702
 Alpha virt. eigenvalues --    6.96001   7.05916   7.11848   7.16028   7.19949
 Alpha virt. eigenvalues --    7.24697   7.32927   7.53128   7.67040   7.78035
 Alpha virt. eigenvalues --    7.83233  24.32718  24.43794  24.45022  24.85669
 Alpha virt. eigenvalues --   50.18795  50.31534
          Condensed to atoms (all electrons):
               1          2          3          4          5          6
     1  O    8.236637  -0.100861  -0.121804  -0.024540   0.134720   0.159747
     2  O   -0.100861   8.174290   0.026787  -0.030939  -0.043839   0.367894
     3  C   -0.121804   0.026787   5.805933   0.063172  -0.089445  -0.136431
     4  C   -0.024540  -0.030939   0.063172   5.280040   0.000185  -0.083023
     5  C    0.134720  -0.043839  -0.089445   0.000185   4.975936  -0.069161
     6  C    0.159747   0.367894  -0.136431  -0.083023  -0.069161   5.590796
     7  H    0.007671  -0.005992   0.473633  -0.010283  -0.001133  -0.085748
     8  H   -0.005215   0.003062   0.439440  -0.045306   0.002680  -0.047629
     9  H   -0.000026   0.001102  -0.026931   0.415040   0.000364  -0.015574
    10  H   -0.000578  -0.000921  -0.062443   0.405683   0.000124   0.041441
    11  H    0.000482   0.001365  -0.005771   0.422968  -0.000331  -0.034747
    12  H   -0.034667  -0.005020  -0.000793   0.000803   0.426991   0.002740
    13  H   -0.057749   0.003792   0.005274   0.000092   0.424895   0.008232
    14  H   -0.035759  -0.003864  -0.002794  -0.000240   0.431118   0.002807
               7          8          9         10         11         12
     1  O    0.007671  -0.005215  -0.000026  -0.000578   0.000482  -0.034667
     2  O   -0.005992   0.003062   0.001102  -0.000921   0.001365  -0.005020
     3  C    0.473633   0.439440  -0.026931  -0.062443  -0.005771  -0.000793
     4  C   -0.010283  -0.045306   0.415040   0.405683   0.422968   0.000803
     5  C   -0.001133   0.002680   0.000364   0.000124  -0.000331   0.426991
     6  C   -0.085748  -0.047629  -0.015574   0.041441  -0.034747   0.002740
     7  H    0.485482  -0.027074  -0.005008  -0.005002   0.004131   0.000025
     8  H   -0.027074   0.511172   0.005404  -0.003828  -0.005965  -0.000073
     9  H   -0.005008   0.005404   0.531105  -0.024555  -0.032247  -0.000002
    10  H   -0.005002  -0.003828  -0.024555   0.537199  -0.025299  -0.000005
    11  H    0.004131  -0.005965  -0.032247  -0.025299   0.522128   0.000180
    12  H    0.000025  -0.000073  -0.000002  -0.000005   0.000180   0.530880
    13  H    0.000011  -0.000002  -0.000001   0.000000   0.000007  -0.025718
    14  H    0.000004   0.000058   0.000005   0.000001  -0.000053  -0.036549
              13         14
     1  O   -0.057749  -0.035759
     2  O    0.003792  -0.003864
     3  C    0.005274  -0.002794
     4  C    0.000092  -0.000240
     5  C    0.424895   0.431118
     6  C    0.008232   0.002807
     7  H    0.000011   0.000004
     8  H   -0.000002   0.000058
     9  H   -0.000001   0.000005
    10  H    0.000000   0.000001
    11  H    0.000007  -0.000053
    12  H   -0.025718  -0.036549
    13  H    0.532934  -0.025342
    14  H   -0.025342   0.529774
 Mulliken charges:
               1
     1  O   -0.158057
     2  O   -0.386855
     3  C   -0.367826
     4  C   -0.393651
     5  C   -0.193102
     6  C    0.298655
     7  H    0.169284
     8  H    0.173275
     9  H    0.151324
    10  H    0.138182
    11  H    0.153152
    12  H    0.141208
    13  H    0.133576
    14  H    0.140834
 Sum of Mulliken charges =  -0.00000
 Mulliken charges with hydrogens summed into heavy atoms:
               1
     1  O   -0.158057
     2  O   -0.386855
     3  C   -0.025267
     4  C    0.049008
     5  C    0.222516
     6  C    0.298655
 APT charges:
               1
     1  O   -0.035014
     2  O   -0.365511
     3  C   -0.891249
     4  C   -1.173536
     5  C   -1.236443
     6  C    0.402777
     7  H    0.466674
     8  H    0.380560
     9  H    0.316255
    10  H    0.580147
    11  H    0.270304
    12  H    0.348411
    13  H    0.522254
    14  H    0.414370
 Sum of APT charges =  -0.00000
 APT charges with hydrogens summed into heavy atoms:
               1
     1  O   -0.035014
     2  O   -0.365511
     3  C   -0.044016
     4  C   -0.006830
     5  C    0.048593
     6  C    0.402777
 Electronic spatial extent (au):  <R**2>=            649.8020
 Charge=             -0.0000 electrons
 Dipole moment (field-independent basis, Debye):
    X=              0.3415    Y=             -1.8591    Z=             -0.4967  Tot=              1.9544
 Quadrupole moment (field-independent basis, Debye-Ang):
   XX=            -31.0876   YY=            -41.6368   ZZ=            -36.4773
   XY=              2.5372   XZ=             -0.4330   YZ=             -1.8323
 Traceless Quadrupole moment (field-independent basis, Debye-Ang):
   XX=              5.3130   YY=             -5.2363   ZZ=             -0.0767
   XY=              2.5372   XZ=             -0.4330   YZ=             -1.8323
 Octapole moment (field-independent basis, Debye-Ang**2):
  XXX=            -12.3017  YYY=             -6.6579  ZZZ=             -0.0147  XYY=             -0.2137
  XXY=             -2.8322  XXZ=             -0.9289  XZZ=             -1.5690  YZZ=              0.8017
  YYZ=             -2.2188  XYZ=              1.2973
 Hexadecapole moment (field-independent basis, Debye-Ang**3):
 XXXX=           -547.3480 YYYY=           -199.1512 ZZZZ=            -84.4406 XXXY=              8.3016
 XXXZ=             -2.1757 YYYX=             10.3233 YYYZ=             -1.3773 ZZZX=             -2.0499
 ZZZY=              2.7730 XXYY=           -124.3853 XXZZ=           -110.5513 YYZZ=            -48.5441
 XXYZ=              0.0776 YYXZ=              0.8363 ZZXY=             -0.0748
 N-N= 2.476544359756D+02 E-N=-1.215005709109D+03  KE= 3.065713301349D+02
  Exact polarizability:   0.000   0.000   0.000   0.000   0.000   0.000
 Approx polarizability:  63.434  -0.759  67.388  -1.594   3.581  57.018
 No NMR shielding tensors so no spin-rotation constants.
 Leave Link  601 at Mon Mar 11 00:07:58 2019, MaxMem=   671088640 cpu:               5.7 elap:               0.3
 (Enter /shared/centos7/gaussian/g16/l701.exe)
 ... and contract with generalized density number  0.
 Compute integral second derivatives.
 Leave Link  701 at Mon Mar 11 00:07:58 2019, MaxMem=   671088640 cpu:               5.6 elap:               0.3
 (Enter /shared/centos7/gaussian/g16/l702.exe)
 L702 exits ... SP integral derivatives will be done elsewhere.
 Leave Link  702 at Mon Mar 11 00:07:58 2019, MaxMem=   671088640 cpu:               0.4 elap:               0.0
 (Enter /shared/centos7/gaussian/g16/l703.exe)
 Integral derivatives from FoFJK, PRISM(SPDF).
 Compute integral second derivatives, UseDBF=F ICtDFT=           0.
 Calling FoFJK, ICntrl=    100147 FMM=F ISym2X=0 I1Cent= 0 IOpClX= 0 NMat=1 NMatS=1 NMatT=0.
 FoFJK:  IHMeth= 1 ICntrl=  100147 DoSepK=F KAlg= 0 I1Cent=           0 FoldK=F
 IRaf=         0 NMat=       1 IRICut=       1 DoRegI=T DoRafI=F ISym2E= 0 IDoP0=0 IntGTp=1.
 FoFCou: FMM=F IPFlag=           0 FMFlag=      100000 FMFlg1=         800
         NFxFlg=           0 DoJE=F BraDBF=F KetDBF=F FulRan=T
         wScrn=  0.000000 ICntrl=    100147 IOpCl=  0 I1Cent=           0 NGrid=           0
         NMat0=    1 NMatS0=      1 NMatT0=    0 NMatD0=    1 NMtDS0=    0 NMtDT0=    0
 Symmetry not used in FoFCou.
 Leave Link  703 at Mon Mar 11 00:09:15 2019, MaxMem=   671088640 cpu:            1529.5 elap:              76.5
 (Enter /shared/centos7/gaussian/g16/l716.exe)
 Dipole        = 1.34364482D-01-7.31439779D-01-1.95434908D-01
 Polarizability= 0.00000000D+00 0.00000000D+00 0.00000000D+00
                 0.00000000D+00 0.00000000D+00 0.00000000D+00
 ***** Axes restored to original set *****
 -------------------------------------------------------------------
 Center     Atomic                   Forces (Hartrees/Bohr)
 Number     Number              X              Y              Z
 -------------------------------------------------------------------
      1        8           0.000000229   -0.000000109   -0.000000068
      2        8           0.000000900   -0.000000164    0.000000508
      3        6          -0.000000130   -0.000000143   -0.000000404
      4        6          -0.000000947    0.000000255   -0.000000280
      5        6           0.000000622   -0.000000045    0.000000424
      6        6           0.000000392   -0.000000058    0.000000098
      7        1           0.000000134   -0.000000241   -0.000000423
      8        1          -0.000000114   -0.000000391   -0.000001031
      9        1          -0.000000888    0.000000485    0.000000323
     10        1          -0.000001268    0.000000245   -0.000000629
     11        1          -0.000001159    0.000000351   -0.000000283
     12        1           0.000000583    0.000000193    0.000001048
     13        1           0.000000415   -0.000000056    0.000000302
     14        1           0.000001232   -0.000000322    0.000000415
 -------------------------------------------------------------------
 Cartesian Forces:  Max     0.000001268 RMS     0.000000554
 FormGI is forming the generalized inverse of G from B-inverse, IUseBI=4.
 Leave Link  716 at Mon Mar 11 00:09:15 2019, MaxMem=   671088640 cpu:               0.6 elap:               0.0
 (Enter /shared/centos7/gaussian/g16/l103.exe)

 GradGradGradGradGradGradGradGradGradGradGradGradGradGradGradGradGradGrad
 Berny optimization.
 Red2BG is reusing G-inverse.
 Internal  Forces:  Max     0.000000044 RMS     0.000000013
 Search for a local minimum.
 Step number   1 out of a maximum of   65 on scan point     1 out of    37
 All quantities printed in internal units (Hartrees-Bohrs-Radians)
 RMS Force = .13311D-07 SwitMx=.10000D-02 MixMth= 2
 Mixed Optimization -- En-DIIS/RFO-DIIS
 Second derivative matrix not updated -- analytic derivatives used.
 ITU=  0
     Eigenvalues ---    0.00242   0.00380   0.02018   0.02344   0.04195
     Eigenvalues ---    0.04562   0.04593   0.04905   0.07348   0.08415
     Eigenvalues ---    0.08547   0.09765   0.12199   0.13321   0.13633
     Eigenvalues ---    0.15678   0.18637   0.18912   0.18983   0.20642
     Eigenvalues ---    0.25285   0.26661   0.30499   0.34192   0.34384
     Eigenvalues ---    0.34462   0.34545   0.34796   0.34994   0.35319
     Eigenvalues ---    0.35485   0.36236   0.39350   0.48571   0.91959
     Eigenvalues --- 1000.000001000.000001000.000001000.000001000.00000
     Eigenvalues --- 1000.000001000.000001000.000001000.000001000.00000
     Eigenvalues --- 1000.000001000.000001000.000001000.000001000.00000
     Eigenvalues --- 1000.000001000.000001000.000001000.000001000.00000
 RFO step:  Lambda= 0.00000000D+00 EMin= 2.41838800D-03
 Linear search not attempted -- first point.
 Iteration  1 RMS(Cart)=  0.00000017 RMS(Int)=  0.00000000
 Iteration  1 RMS(Cart)=  0.00000000 RMS(Int)=  0.00000000
 ITry= 1 IFail=0 DXMaxC= 4.98D-07 DCOld= 1.00D+10 DXMaxT= 3.00D-01 DXLimC= 3.00D+00 Rises=F
 Variable       Old X    -DE/DX   Delta X   Delta X   Delta X     New X
                                 (Linear)    (Quad)   (Total)
    R1        2.69301  -0.00000   0.00000  -0.00000  -0.00000   2.69301
    R2        2.53739  -0.00000   0.00000  -0.00000  -0.00000   2.53739
    R3        2.26802   0.00000   0.00000   0.00000   0.00000   2.26802
    R4        2.89229  -0.00000   0.00000  -0.00000  -0.00000   2.89229
    R5        2.84446   0.00000   0.00000   0.00000   0.00000   2.84446
    R6        2.05399   0.00000   0.00000   0.00000   0.00000   2.05399
    R7        2.05986  -0.00000   0.00000  -0.00000  -0.00000   2.05986
    R8        2.05860   0.00000   0.00000   0.00000   0.00000   2.05860
    R9        2.05639  -0.00000   0.00000  -0.00000  -0.00000   2.05639
   R10        2.05644   0.00000   0.00000   0.00000   0.00000   2.05644
   R11        2.05651   0.00000   0.00000   0.00000   0.00000   2.05651
   R12        2.05000  -0.00000   0.00000  -0.00000  -0.00000   2.05000
   R13        2.05643  -0.00000   0.00000  -0.00000  -0.00000   2.05643
    A1        2.01341  -0.00000   0.00000   0.00000   0.00000   2.01341
    A2        1.93791   0.00000   0.00000   0.00000   0.00000   1.93791
    A3        1.93857  -0.00000   0.00000  -0.00000  -0.00000   1.93857
    A4        1.91857   0.00000   0.00000   0.00000   0.00000   1.91857
    A5        1.87239  -0.00000   0.00000  -0.00000  -0.00000   1.87239
    A6        1.89415  -0.00000   0.00000  -0.00000  -0.00000   1.89415
    A7        1.90094  -0.00000   0.00000  -0.00000  -0.00000   1.90094
    A8        1.93237  -0.00000   0.00000  -0.00000  -0.00000   1.93237
    A9        1.92549  -0.00000   0.00000   0.00000   0.00000   1.92549
   A10        1.93224   0.00000   0.00000   0.00000   0.00000   1.93224
   A11        1.88714   0.00000   0.00000   0.00000   0.00000   1.88714
   A12        1.89294  -0.00000   0.00000  -0.00000  -0.00000   1.89294
   A13        1.89242  -0.00000   0.00000  -0.00000  -0.00000   1.89242
   A14        1.92608  -0.00000   0.00000  -0.00000  -0.00000   1.92608
   A15        1.85051   0.00000   0.00000   0.00000   0.00000   1.85051
   A16        1.92593  -0.00000   0.00000  -0.00000  -0.00000   1.92593
   A17        1.93100   0.00000   0.00000   0.00000   0.00000   1.93100
   A18        1.89951   0.00000   0.00000   0.00000   0.00000   1.89951
   A19        1.93078   0.00000   0.00000   0.00000   0.00000   1.93078
   A20        2.14639  -0.00000   0.00000  -0.00000  -0.00000   2.14639
   A21        1.94456   0.00000   0.00000   0.00000   0.00000   1.94456
   A22        2.19201  -0.00000   0.00000  -0.00000  -0.00000   2.19201
    D1       -1.04643   0.00000   0.00000   0.00000   0.00000  -1.04643
    D2       -3.13820   0.00000   0.00000   0.00000   0.00000  -3.13820
    D3        1.05356  -0.00000   0.00000   0.00000   0.00000   1.05357
    D4       -0.00737  -0.00000   0.00000  -0.00000  -0.00000  -0.00737
    D5        3.11254  -0.00000   0.00000  -0.00000  -0.00000   3.11254
    D6       -1.03591  -0.00000   0.00000   0.00000   0.00000  -1.03591
    D7       -3.12424  -0.00000   0.00000   0.00000   0.00000  -3.12424
    D8        1.06410  -0.00000   0.00000   0.00000   0.00000   1.06410
    D9        1.04608   0.00000   0.00000   0.00000   0.00000   1.04608
   D10       -1.04225   0.00000   0.00000   0.00000   0.00000  -1.04225
   D11       -3.13710   0.00000   0.00000   0.00000   0.00000  -3.13710
   D12       -3.13204   0.00000   0.00000   0.00000   0.00000  -3.13204
   D13        1.06280   0.00000   0.00000   0.00000   0.00000   1.06280
   D14       -1.03204   0.00000   0.00000   0.00000   0.00000  -1.03204
   D15       -1.22125  -0.00000   0.00000  -0.00000  -0.00000  -1.22125
   D16        1.89797   0.00000   0.00000   0.00000   0.00000   1.89797
   D17        2.94073  -0.00000   0.00000  -0.00000  -0.00000   2.94073
   D18       -0.22324   0.00000   0.00000   0.00000   0.00000  -0.22324
   D19        0.88934   0.00000   0.00000   0.00000   0.00000   0.88934
   D20       -2.27463   0.00000   0.00000   0.00000   0.00000  -2.27463
         Item               Value     Threshold  Converged?
 Maximum Force            0.000000     0.000450     YES
 RMS     Force            0.000000     0.000300     YES
 Maximum Displacement     0.000000     0.001800     YES
 RMS     Displacement     0.000000     0.001200     YES
 Predicted change in Energy=-1.937810D-14
 Optimization completed.
    -- Stationary point found.
                           ----------------------------
                           !   Optimized Parameters   !
                           ! (Angstroms and Degrees)  !
 --------------------------                            --------------------------
 ! Name  Definition              Value          Derivative Info.                !
 --------------------------------------------------------------------------------
 ! R1    R(1,5)                  1.4251         -DE/DX =    0.0                 !
 ! R2    R(1,6)                  1.3427         -DE/DX =    0.0                 !
 ! R3    R(2,6)                  1.2002         -DE/DX =    0.0                 !
 ! R4    R(3,4)                  1.5305         -DE/DX =    0.0                 !
 ! R5    R(3,6)                  1.5052         -DE/DX =    0.0                 !
 ! R6    R(3,7)                  1.0869         -DE/DX =    0.0                 !
 ! R7    R(3,8)                  1.09           -DE/DX =    0.0                 !
 ! R8    R(4,9)                  1.0894         -DE/DX =    0.0                 !
 ! R9    R(4,10)                 1.0882         -DE/DX =    0.0                 !
 ! R10   R(4,11)                 1.0882         -DE/DX =    0.0                 !
 ! R11   R(5,12)                 1.0883         -DE/DX =    0.0                 !
 ! R12   R(5,13)                 1.0848         -DE/DX =    0.0                 !
 ! R13   R(5,14)                 1.0882         -DE/DX =    0.0                 !
 ! A1    A(5,1,6)              115.3601         -DE/DX =    0.0                 !
 ! A2    A(4,3,6)              111.0341         -DE/DX =    0.0                 !
 ! A3    A(4,3,7)              111.0717         -DE/DX =    0.0                 !
 ! A4    A(4,3,8)              109.926          -DE/DX =    0.0                 !
 ! A5    A(6,3,7)              107.28           -DE/DX =    0.0                 !
 ! A6    A(6,3,8)              108.5266         -DE/DX =    0.0                 !
 ! A7    A(7,3,8)              108.9157         -DE/DX =    0.0                 !
 ! A8    A(3,4,9)              110.7169         -DE/DX =    0.0                 !
 ! A9    A(3,4,10)             110.3225         -DE/DX =    0.0                 !
 ! A10   A(3,4,11)             110.7091         -DE/DX =    0.0                 !
 ! A11   A(9,4,10)             108.1249         -DE/DX =    0.0                 !
 ! A12   A(9,4,11)             108.4574         -DE/DX =    0.0                 !
 ! A13   A(10,4,11)            108.4278         -DE/DX =    0.0                 !
 ! A14   A(1,5,12)             110.3565         -DE/DX =    0.0                 !
 ! A15   A(1,5,13)             106.0264         -DE/DX =    0.0                 !
 ! A16   A(1,5,14)             110.3475         -DE/DX =    0.0                 !
 ! A17   A(12,5,13)            110.6383         -DE/DX =    0.0                 !
 ! A18   A(12,5,14)            108.834          -DE/DX =    0.0                 !
 ! A19   A(13,5,14)            110.6254         -DE/DX =    0.0                 !
 ! A20   A(1,6,2)              122.979          -DE/DX =    0.0                 !
 ! A21   A(1,6,3)              111.4152         -DE/DX =    0.0                 !
 ! A22   A(2,6,3)              125.5929         -DE/DX =    0.0                 !
 ! D1    D(6,1,5,12)           -59.9563         -DE/DX =    0.0                 !
 ! D2    D(6,1,5,13)          -179.8059         -DE/DX =    0.0                 !
 ! D3    D(6,1,5,14)            60.3648         -DE/DX =    0.0                 !
 ! D4    D(5,1,6,2)             -0.422          -DE/DX =    0.0                 !
 ! D5    D(5,1,6,3)            178.3354         -DE/DX =    0.0                 !
 ! D6    D(6,3,4,9)            -59.3531         -DE/DX =    0.0                 !
 ! D7    D(6,3,4,10)          -179.0059         -DE/DX =    0.0                 !
 ! D8    D(6,3,4,11)            60.9682         -DE/DX =    0.0                 !
 ! D9    D(7,3,4,9)             59.9362         -DE/DX =    0.0                 !
 ! D10   D(7,3,4,10)           -59.7166         -DE/DX =    0.0                 !
 ! D11   D(7,3,4,11)          -179.7425         -DE/DX =    0.0                 !
 ! D12   D(8,3,4,9)           -179.4529         -DE/DX =    0.0                 !
 ! D13   D(8,3,4,10)            60.8942         -DE/DX =    0.0                 !
 ! D14   D(8,3,4,11)           -59.1317         -DE/DX =    0.0                 !
 ! D15   D(4,3,6,1)            -69.9725         -DE/DX =    0.0                 !
 ! D16   D(4,3,6,2)            108.7456         -DE/DX =    0.0                 !
 ! D17   D(7,3,6,1)            168.4912         -DE/DX =    0.0                 !
 ! D18   D(7,3,6,2)            -12.7907         -DE/DX =    0.0                 !
 ! D19   D(8,3,6,1)             50.9554         -DE/DX =    0.0                 !
 ! D20   D(8,3,6,2)           -130.3265         -DE/DX =    0.0                 !
 --------------------------------------------------------------------------------
 Lowest energy point so far.  Saving SCF results.
 Iteration  1 RMS(Cart)=  0.02112723 RMS(Int)=  0.01774023
 Iteration  2 RMS(Cart)=  0.00055718 RMS(Int)=  0.01773608
 Iteration  3 RMS(Cart)=  0.00000305 RMS(Int)=  0.01773608
 Iteration  4 RMS(Cart)=  0.00000016 RMS(Int)=  0.01773608
 Iteration  1 RMS(Cart)=  0.01202471 RMS(Int)=  0.01007489
 Iteration  2 RMS(Cart)=  0.00684202 RMS(Int)=  0.01124325
 Iteration  3 RMS(Cart)=  0.00389077 RMS(Int)=  0.01275709
 Iteration  4 RMS(Cart)=  0.00221184 RMS(Int)=  0.01380385
 Iteration  5 RMS(Cart)=  0.00125719 RMS(Int)=  0.01444490
 Iteration  6 RMS(Cart)=  0.00071451 RMS(Int)=  0.01482200
 Iteration  7 RMS(Cart)=  0.00040607 RMS(Int)=  0.01504009
 Iteration  8 RMS(Cart)=  0.00023077 RMS(Int)=  0.01516519
 Iteration  9 RMS(Cart)=  0.00013114 RMS(Int)=  0.01523664
 Iteration 10 RMS(Cart)=  0.00007453 RMS(Int)=  0.01527736
 Iteration 11 RMS(Cart)=  0.00004235 RMS(Int)=  0.01530054
 Iteration 12 RMS(Cart)=  0.00002407 RMS(Int)=  0.01531373
 Iteration 13 RMS(Cart)=  0.00001368 RMS(Int)=  0.01532122
 Iteration 14 RMS(Cart)=  0.00000777 RMS(Int)=  0.01532548
 Iteration 15 RMS(Cart)=  0.00000442 RMS(Int)=  0.01532791
 Iteration 16 RMS(Cart)=  0.00000251 RMS(Int)=  0.01532928
 Iteration 17 RMS(Cart)=  0.00000143 RMS(Int)=  0.01533006
 Iteration 18 RMS(Cart)=  0.00000081 RMS(Int)=  0.01533051
 GradGradGradGradGradGradGradGradGradGradGradGradGradGradGradGradGradGrad

 Leave Link  103 at Mon Mar 11 00:09:15 2019, MaxMem=   671088640 cpu:               0.8 elap:               0.1
 (Enter /shared/centos7/gaussian/g16/l202.exe)
                          Input orientation:                          
 ---------------------------------------------------------------------
 Center     Atomic      Atomic             Coordinates (Angstroms)
 Number     Number       Type             X           Y           Z
 ---------------------------------------------------------------------
      1          8           0        1.193860    0.581863    0.504953
      2          8           0        1.339095   -1.584289   -0.025551
      3          6           0       -0.214440   -0.891704    1.682690
      4          6           0        0.285746   -0.498551    3.074882
      5          6           0        2.196452    0.851455   -0.471390
      6          6           0        0.869033   -0.712557    0.653263
      7          1           0       -0.574476   -1.913510    1.594240
      8          1           0       -1.030674   -0.206844    1.452515
      9          1           0        1.124941   -1.125523    3.374164
     10          1           0       -0.507290   -0.620951    3.809946
     11          1           0        0.609746    0.540297    3.088236
     12          1           0        3.121448    0.337834   -0.216016
     13          1           0        2.341104    1.926598   -0.462971
     14          1           0        1.868178    0.516479   -1.453512
 ---------------------------------------------------------------------
                    Distance matrix (angstroms):
                    1          2          3          4          5
     1  O    0.000000
     2  O    2.234891   0.000000
     3  C    2.354097   2.410649   0.000000
     4  C    2.931979   3.449791   1.530671   0.000000
     5  C    1.425172   2.620435   3.673018   4.248454   0.000000
     6  C    1.342770   1.200692   1.505233   2.500052   2.339449
     7  H    3.246605   2.528609   1.086985   2.221350   4.426048
     8  H    2.543322   3.114135   1.090070   2.109533   3.903301
     9  H    3.339504   3.437206   2.170183   1.089454   4.454757
    10  H    3.906873   4.364424   2.164321   1.088213   5.273333
    11  H    2.648824   3.839464   2.169209   1.088283   3.909654
    12  H    2.072423   2.628235   4.030508   4.423884   1.088411
    13  H    2.015281   3.677185   4.367779   4.756285   1.084863
    14  H    2.072333   2.594654   4.019458   4.903135   1.088364
                    6          7          8          9         10
     6  C    0.000000
     7  H    2.100344   0.000000
     8  H    2.122131   1.772261   0.000000
     9  H    2.763934   2.584003   3.030409   0.000000
    10  H    3.444896   2.566043   2.450081   1.763144   0.000000
    11  H    2.750630   3.107342   2.434087   1.766957   1.765541
    12  H    2.632933   4.690995   4.507858   4.360830   5.504124
    13  H    3.221508   5.242057   4.426009   5.051544   5.732467
    14  H    2.635777   4.600022   4.167918   5.153157   5.885626
                   11         12         13         14
    11  H    0.000000
    12  H    4.155444   0.000000
    13  H    4.186944   1.787202   0.000000
    14  H    4.712928   1.770309   1.786972   0.000000
 Stoichiometry    C4H8O2
 Framework group  C1[X(C4H8O2)]
 Deg. of freedom    36
 Full point group                 C1      NOp   1
 RotChk:  IX=0 Diff= 6.00D-02
 Largest Abelian subgroup         C1      NOp   1
 Largest concise Abelian subgroup C1      NOp   1
                         Standard orientation:                         
 ---------------------------------------------------------------------
 Center     Atomic      Atomic             Coordinates (Angstroms)
 Number     Number       Type             X           Y           Z
 ---------------------------------------------------------------------
      1          8           0       -0.742110   -0.673343   -0.268995
      2          8           0       -0.578464    1.480566    0.304272
      3          6           0        1.377666    0.324070   -0.500280
      4          6           0        2.113432   -0.674965    0.396120
      5          6           0       -2.122962   -0.624433    0.080250
      6          6           0       -0.059690    0.467013   -0.076838
      7          1           0        1.805335    1.323099   -0.524323
      8          1           0        1.404774   -0.097652   -1.505102
      9          1           0        2.112065   -0.337118    1.431865
     10          1           0        3.148084   -0.779686    0.075592
     11          1           0        1.639037   -1.653421    0.352177
     12          1           0       -2.238409   -0.380272    1.134620
     13          1           0       -2.519926   -1.612074   -0.129304
     14          1           0       -2.637046    0.129227   -0.513255
 ---------------------------------------------------------------------
 Rotational constants (GHZ):           6.4586422           2.5339779           2.0229357
 Leave Link  202 at Mon Mar 11 00:09:15 2019, MaxMem=   671088640 cpu:               0.2 elap:               0.0
 (Enter /shared/centos7/gaussian/g16/l301.exe)
 Standard basis: 6-311+G(2df,2p) (5D, 7F)
 Ernie: Thresh=  0.10000D-02 Tol=  0.10000D-05 Strict=F.
 There are   306 symmetry adapted cartesian basis functions of A   symmetry.
 There are   276 symmetry adapted basis functions of A   symmetry.
   276 basis functions,   400 primitive gaussians,   306 cartesian basis functions
    24 alpha electrons       24 beta electrons
       nuclear repulsion energy       247.7060837044 Hartrees.
 IExCor= 4336 DFT=T Ex+Corr=M062X ExCW=0 ScaHFX=  0.540000
 ScaDFX=  1.000000  1.000000  1.000000  1.000000 ScalE2=  1.000000  1.000000
 IRadAn=      5 IRanWt=     -1 IRanGd=            0 ICorTp=0 IEmpDi=  4
 NAtoms=   14 NActive=   14 NUniq=   14 SFac= 1.00D+00 NAtFMM=   60 NAOKFM=F Big=F
 Integral buffers will be    131072 words long.
 Raffenetti 2 integral format.
 Two-electron integral symmetry is turned on.
 Leave Link  301 at Mon Mar 11 00:09:15 2019, MaxMem=   671088640 cpu:               1.1 elap:               0.1
 (Enter /shared/centos7/gaussian/g16/l302.exe)
 NPDir=0 NMtPBC=     1 NCelOv=     1 NCel=       1 NClECP=     1 NCelD=      1
         NCelK=      1 NCelE2=     1 NClLst=     1 CellRange=     0.0.
 One-electron integrals computed using PRISM.
 One-electron integral symmetry used in STVInt
 NBasis=   276 RedAO= T EigKep=  3.28D-05  NBF=   276
 NBsUse=   276 1.00D-06 EigRej= -1.00D+00 NBFU=   276
 Precomputing XC quadrature grid using
 IXCGrd= 4 IRadAn=           5 IRanWt=          -1 IRanGd=           0 AccXCQ= 0.00D+00.
 Generated NRdTot=       0 NPtTot=           0 NUsed=           0 NTot=          32
 NSgBfM=   306   306   306   306   306 MxSgAt=    14 MxSgA2=    14.
 Leave Link  302 at Mon Mar 11 00:09:15 2019, MaxMem=   671088640 cpu:               7.8 elap:               0.4
 (Enter /shared/centos7/gaussian/g16/l303.exe)
 DipDrv:  MaxL=1.
 Leave Link  303 at Mon Mar 11 00:09:15 2019, MaxMem=   671088640 cpu:               0.6 elap:               0.1
 (Enter /shared/centos7/gaussian/g16/l401.exe)
 Initial guess from the checkpoint file:  "/scratch/underkoffler.c/gaussian_scratch/Gau-46787.chk"
 B after Tr=     0.000000    0.000000   -0.000000
         Rot=    0.999907   -0.012002    0.001914   -0.006220 Ang=  -1.56 deg.
 Guess basis will be translated and rotated to current coordinates.
 JPrj=2 DoOrth=T DoCkMO=T.
 Generating alternative initial guess.
 ExpMin= 4.38D-02 ExpMax= 8.59D+03 ExpMxC= 1.30D+03 IAcc=2 IRadAn=         4 AccDes= 0.00D+00
 Harris functional with IExCor= 1009 and IRadAn=       4 diagonalized for initial guess.
 HarFok:  IExCor= 1009 AccDes= 0.00D+00 IRadAn=         4 IDoV= 1 UseB2=F ITyADJ=14
 ICtDFT=  3500011 ScaDFX=  1.000000  1.000000  1.000000  1.000000
 FoFCou: FMM=F IPFlag=           0 FMFlag=      100000 FMFlg1=           0
         NFxFlg=           0 DoJE=T BraDBF=F KetDBF=T FulRan=T
         wScrn=  0.000000 ICntrl=       500 IOpCl=  0 I1Cent=   200000004 NGrid=           0
         NMat0=    1 NMatS0=      1 NMatT0=    0 NMatD0=    1 NMtDS0=    0 NMtDT0=    0
 Petite list used in FoFCou.
 Harris En= -307.569734145331    
 Leave Link  401 at Mon Mar 11 00:09:16 2019, MaxMem=   671088640 cpu:              14.3 elap:               0.7
 (Enter /shared/centos7/gaussian/g16/l502.exe)
 Integral symmetry usage will be decided dynamically.
 Closed shell SCF:
 Using DIIS extrapolation, IDIIS=  1040.
 NGot=   671088640 LenX=   670892442 LenY=   670798365
 Requested convergence on RMS density matrix=1.00D-08 within 128 cycles.
 Requested convergence on MAX density matrix=1.00D-06.
 Requested convergence on             energy=1.00D-06.
 No special actions if energy rises.
 Fock matrices will be formed incrementally for  20 cycles.

 Cycle   1  Pass 1  IDiag  1:
 FoFJK:  IHMeth= 1 ICntrl=       0 DoSepK=F KAlg= 0 I1Cent=           0 FoldK=F
 IRaf= 970000000 NMat=       1 IRICut=       1 DoRegI=T DoRafI=F ISym2E= 0 IDoP0=0 IntGTp=1.
 FoFCou: FMM=F IPFlag=           0 FMFlag=      100000 FMFlg1=           0
         NFxFlg=           0 DoJE=F BraDBF=F KetDBF=F FulRan=T
         wScrn=  0.000000 ICntrl=         0 IOpCl=  0 I1Cent=           0 NGrid=           0
         NMat0=    1 NMatS0=      1 NMatT0=    0 NMatD0=    1 NMtDS0=    0 NMtDT0=    0
 Symmetry not used in FoFCou.
 E= -307.666475741309    
 DIIS: error= 2.53D-03 at cycle   1 NSaved=   1.
 NSaved= 1 IEnMin= 1 EnMin= -307.666475741309     IErMin= 1 ErrMin= 2.53D-03
 ErrMax= 2.53D-03  0.00D+00 EMaxC= 1.00D-01 BMatC= 5.03D-03 BMatP= 5.03D-03
 IDIUse=3 WtCom= 9.75D-01 WtEn= 2.53D-02
 Coeff-Com:  0.100D+01
 Coeff-En:   0.100D+01
 Coeff:      0.100D+01
 Gap=     0.598 Goal=   None    Shift=    0.000
 GapD=    0.598 DampG=2.000 DampE=1.000 DampFc=2.0000 IDamp=-1.
 RMSDP=4.56D-04 MaxDP=1.44D-02              OVMax= 1.96D-02

 Cycle   2  Pass 1  IDiag  1:
 RMSU=  4.56D-04    CP:  1.00D+00
 E= -307.673094234413     Delta-E=       -0.006618493104 Rises=F Damp=F
 DIIS: error= 6.34D-04 at cycle   2 NSaved=   2.
 NSaved= 2 IEnMin= 2 EnMin= -307.673094234413     IErMin= 2 ErrMin= 6.34D-04
 ErrMax= 6.34D-04  0.00D+00 EMaxC= 1.00D-01 BMatC= 1.77D-04 BMatP= 5.03D-03
 IDIUse=3 WtCom= 9.94D-01 WtEn= 6.34D-03
 Coeff-Com: -0.138D+00 0.114D+01
 Coeff-En:   0.000D+00 0.100D+01
 Coeff:     -0.137D+00 0.114D+01
 Gap=     0.361 Goal=   None    Shift=    0.000
 RMSDP=7.27D-05 MaxDP=1.93D-03 DE=-6.62D-03 OVMax= 6.64D-03

 Cycle   3  Pass 1  IDiag  1:
 RMSU=  4.72D-05    CP:  1.00D+00  1.12D+00
 E= -307.673442025729     Delta-E=       -0.000347791315 Rises=F Damp=F
 DIIS: error= 2.04D-04 at cycle   3 NSaved=   3.
 NSaved= 3 IEnMin= 3 EnMin= -307.673442025729     IErMin= 3 ErrMin= 2.04D-04
 ErrMax= 2.04D-04  0.00D+00 EMaxC= 1.00D-01 BMatC= 9.89D-06 BMatP= 1.77D-04
 IDIUse=3 WtCom= 9.98D-01 WtEn= 2.04D-03
 Coeff-Com: -0.260D-01 0.116D+00 0.910D+00
 Coeff-En:   0.000D+00 0.000D+00 0.100D+01
 Coeff:     -0.260D-01 0.115D+00 0.911D+00
 Gap=     0.362 Goal=   None    Shift=    0.000
 RMSDP=1.77D-05 MaxDP=6.25D-04 DE=-3.48D-04 OVMax= 1.48D-03

 Cycle   4  Pass 1  IDiag  1:
 RMSU=  1.51D-05    CP:  1.00D+00  1.14D+00  1.13D+00
 E= -307.673455678352     Delta-E=       -0.000013652623 Rises=F Damp=F
 DIIS: error= 8.22D-05 at cycle   4 NSaved=   4.
 NSaved= 4 IEnMin= 4 EnMin= -307.673455678352     IErMin= 4 ErrMin= 8.22D-05
 ErrMax= 8.22D-05  0.00D+00 EMaxC= 1.00D-01 BMatC= 4.91D-06 BMatP= 9.89D-06
 IDIUse=1 WtCom= 1.00D+00 WtEn= 0.00D+00
 Coeff-Com:  0.767D-03-0.519D-01 0.398D+00 0.653D+00
 Coeff:      0.767D-03-0.519D-01 0.398D+00 0.653D+00
 Gap=     0.362 Goal=   None    Shift=    0.000
 RMSDP=6.77D-06 MaxDP=2.87D-04 DE=-1.37D-05 OVMax= 7.30D-04

 Cycle   5  Pass 1  IDiag  1:
 RMSU=  5.26D-06    CP:  1.00D+00  1.14D+00  1.20D+00  8.32D-01
 E= -307.673459613715     Delta-E=       -0.000003935363 Rises=F Damp=F
 DIIS: error= 3.72D-05 at cycle   5 NSaved=   5.
 NSaved= 5 IEnMin= 5 EnMin= -307.673459613715     IErMin= 5 ErrMin= 3.72D-05
 ErrMax= 3.72D-05  0.00D+00 EMaxC= 1.00D-01 BMatC= 9.05D-07 BMatP= 4.91D-06
 IDIUse=1 WtCom= 1.00D+00 WtEn= 0.00D+00
 Coeff-Com:  0.482D-02-0.513D-01 0.794D-01 0.343D+00 0.624D+00
 Coeff:      0.482D-02-0.513D-01 0.794D-01 0.343D+00 0.624D+00
 Gap=     0.362 Goal=   None    Shift=    0.000
 RMSDP=3.14D-06 MaxDP=9.73D-05 DE=-3.94D-06 OVMax= 2.56D-04

 Cycle   6  Pass 1  IDiag  1:
 RMSU=  2.28D-06    CP:  1.00D+00  1.14D+00  1.23D+00  8.80D-01  7.31D-01
 E= -307.673460361116     Delta-E=       -0.000000747401 Rises=F Damp=F
 DIIS: error= 1.80D-05 at cycle   6 NSaved=   6.
 NSaved= 6 IEnMin= 6 EnMin= -307.673460361116     IErMin= 6 ErrMin= 1.80D-05
 ErrMax= 1.80D-05  0.00D+00 EMaxC= 1.00D-01 BMatC= 7.43D-08 BMatP= 9.05D-07
 IDIUse=1 WtCom= 1.00D+00 WtEn= 0.00D+00
 Coeff-Com:  0.204D-02-0.158D-01-0.186D-01 0.549D-01 0.252D+00 0.725D+00
 Coeff:      0.204D-02-0.158D-01-0.186D-01 0.549D-01 0.252D+00 0.725D+00
 Gap=     0.362 Goal=   None    Shift=    0.000
 RMSDP=1.05D-06 MaxDP=4.70D-05 DE=-7.47D-07 OVMax= 1.10D-04

 Cycle   7  Pass 1  IDiag  1:
 RMSU=  7.87D-07    CP:  1.00D+00  1.14D+00  1.24D+00  9.01D-01  8.27D-01
                    CP:  1.02D+00
 E= -307.673460439289     Delta-E=       -0.000000078173 Rises=F Damp=F
 DIIS: error= 4.79D-06 at cycle   7 NSaved=   7.
 NSaved= 7 IEnMin= 7 EnMin= -307.673460439289     IErMin= 7 ErrMin= 4.79D-06
 ErrMax= 4.79D-06  0.00D+00 EMaxC= 1.00D-01 BMatC= 9.90D-09 BMatP= 7.43D-08
 IDIUse=1 WtCom= 1.00D+00 WtEn= 0.00D+00
 Coeff-Com:  0.618D-05 0.290D-02-0.191D-01-0.376D-01-0.161D-01 0.275D+00
 Coeff-Com:  0.795D+00
 Coeff:      0.618D-05 0.290D-02-0.191D-01-0.376D-01-0.161D-01 0.275D+00
 Coeff:      0.795D+00
 Gap=     0.362 Goal=   None    Shift=    0.000
 RMSDP=4.54D-07 MaxDP=1.47D-05 DE=-7.82D-08 OVMax= 3.60D-05

 Cycle   8  Pass 1  IDiag  1:
 RMSU=  3.10D-07    CP:  1.00D+00  1.14D+00  1.24D+00  9.10D-01  8.48D-01
                    CP:  1.13D+00  1.03D+00
 E= -307.673460448993     Delta-E=       -0.000000009704 Rises=F Damp=F
 DIIS: error= 1.62D-06 at cycle   8 NSaved=   8.
 NSaved= 8 IEnMin= 8 EnMin= -307.673460448993     IErMin= 8 ErrMin= 1.62D-06
 ErrMax= 1.62D-06  0.00D+00 EMaxC= 1.00D-01 BMatC= 1.21D-09 BMatP= 9.90D-09
 IDIUse=1 WtCom= 1.00D+00 WtEn= 0.00D+00
 Coeff-Com: -0.162D-03 0.267D-02-0.683D-02-0.207D-01-0.283D-01 0.678D-01
 Coeff-Com:  0.355D+00 0.631D+00
 Coeff:     -0.162D-03 0.267D-02-0.683D-02-0.207D-01-0.283D-01 0.678D-01
 Coeff:      0.355D+00 0.631D+00
 Gap=     0.362 Goal=   None    Shift=    0.000
 RMSDP=1.03D-07 MaxDP=4.39D-06 DE=-9.70D-09 OVMax= 8.61D-06

 Cycle   9  Pass 1  IDiag  1:
 RMSU=  8.50D-08    CP:  1.00D+00  1.14D+00  1.24D+00  9.09D-01  8.51D-01
                    CP:  1.15D+00  1.08D+00  9.49D-01
 E= -307.673460449916     Delta-E=       -0.000000000922 Rises=F Damp=F
[...]
           A15        106.02118 106.02637
           A16        110.33391 110.34760
           A17        110.65197 110.63835
           A18        108.83592 108.83388
           A19        110.62465 110.62543
           A20        123.02435 122.97894
           A21        111.50724 111.41372
           A22        125.43372 125.59434
           D1         -59.83162 -59.95664
           D2        -179.69652-179.80624
           D3          60.48555  60.36438
           D4          -0.61288  -0.42029
           D5         177.34959 178.33429
           D6         -59.23914 -59.35563
           D7        -178.98574-179.00836
           D8          61.07120  60.96547
           D9          59.48197  59.93562
           D10        -60.26463 -59.71710
           D11        179.79231-179.74327
           D12       -179.61782-179.45479
           D13         60.63558  60.89248
           D14        -59.30748 -59.13369
           D15        -79.15743 -69.96946
           D16         98.74587 108.74573
           D17        160.13909 168.49516
           D18        -21.95761 -12.78964
           D19         41.85761  50.95883
           D20       -140.23910-130.32598
 Largest change from initial coordinates is atom   11       0.000 Angstoms.
 GradGradGradGradGradGradGradGradGradGradGradGradGradGradGradGradGradGrad

 Leave Link  103 at Mon Mar 11 01:11:35 2019, MaxMem=   671088640 cpu:               0.6 elap:               0.1
 (Enter /shared/centos7/gaussian/g16/l202.exe)
                          Input orientation:                          
 ---------------------------------------------------------------------
 Center     Atomic      Atomic             Coordinates (Angstroms)
 Number     Number       Type             X           Y           Z
 ---------------------------------------------------------------------
      1          8           0        1.390561   -0.456393    0.218623
      2          8           0        2.149550    1.091600    1.641798
      3          6           0        0.798762   -0.718818    2.482543
      4          6           0       -0.716519   -0.581575    2.316356
      5          6           0        2.021770    0.258293   -0.840455
      6          6           0        1.531357    0.082811    1.440247
      7          1           0        1.119826   -0.354305    3.454890
      8          1           0        1.090183   -1.764474    2.383323
      9          1           0       -1.020939    0.460737    2.403722
     10          1           0       -1.234205   -1.151065    3.085673
     11          1           0       -1.032043   -0.952226    1.343068
     12          1           0        1.618306    1.266609   -0.909870
     13          1           0        1.811598   -0.300821   -1.746013
     14          1           0        3.094518    0.320225   -0.668457
 ---------------------------------------------------------------------
                    Distance matrix (angstroms):
                    1          2          3          4          5
     1  O    0.000000
     2  O    2.235570   0.000000
     3  C    2.354661   2.410207   0.000000
     4  C    2.975892   3.386576   1.530533   0.000000
     5  C    1.425078   2.621508   3.673256   4.262517   0.000000
     6  C    1.342732   1.200184   1.505220   2.502383   2.339422
     7  H    3.249176   2.537376   1.086927   2.172573   4.431565
     8  H    2.547004   3.135167   1.090030   2.160534   3.918186
     9  H    3.380993   3.321223   2.169995   1.089366   4.452386
    10  H    3.948663   4.308611   2.164153   1.088195   5.291705
    11  H    2.716475   3.793284   2.169039   1.088221   3.944477
    12  H    2.072221   2.612251   4.015226   4.390412   1.088256
    13  H    2.015260   3.678357   4.368209   4.793020   1.084812
    14  H    2.072081   2.612521   4.034714   4.924059   1.088213
                    6          7          8          9         10
     6  C    0.000000
     7  H    2.102193   0.000000
     8  H    2.120492   1.771358   0.000000
     9  H    2.754148   2.520342   3.067379   0.000000
    10  H    3.446479   2.512491   2.504465   1.763079   0.000000
    11  H    2.766182   3.073734   2.499144   1.766798   1.765525
    12  H    2.632866   4.682625   4.506828   4.312185   5.472324
    13  H    3.221484   5.246980   4.440061   5.081687   5.774515
    14  H    2.635616   4.621298   4.204366   5.137609   5.915745
                   11         12         13         14
    11  H    0.000000
    12  H    4.125931   0.000000
    13  H    4.248888   1.786990   0.000000
    14  H    4.763809   1.770064   1.786815   0.000000
 Stoichiometry    C4H8O2
 Framework group  C1[X(C4H8O2)]
 Deg. of freedom    36
 Full point group                 C1      NOp   1
 RotChk:  IX=0 Diff= 8.13D-16
 Largest Abelian subgroup         C1      NOp   1
 Largest concise Abelian subgroup C1      NOp   1
                         Standard orientation:                         
 ---------------------------------------------------------------------
 Center     Atomic      Atomic             Coordinates (Angstroms)
 Number     Number       Type             X           Y           Z
 ---------------------------------------------------------------------
      1          8           0       -0.774039   -0.667244   -0.293254
      2          8           0       -0.526945    1.468364    0.319853
      3          6           0        1.373978    0.264271   -0.543714
      4          6           0        2.111114   -0.652032    0.435852
      5          6           0       -2.138489   -0.588665    0.110415
      6          6           0       -0.059726    0.457652   -0.128041
      7          1           0        1.834882    1.247933   -0.580958
      8          1           0        1.389175   -0.171127   -1.542895
      9          1           0        2.095411   -0.233354    1.441427
     10          1           0        3.150061   -0.769793    0.134372
     11          1           0        1.647755   -1.636240    0.465164
     12          1           0       -2.206721   -0.343291    1.168450
     13          1           0       -2.564997   -1.567092   -0.083461
     14          1           0       -2.658956    0.176642   -0.461972
 ---------------------------------------------------------------------
 Rotational constants (GHZ):           6.5197116           2.5028044           2.0384357
 Leave Link  202 at Mon Mar 11 01:11:35 2019, MaxMem=   671088640 cpu:               0.1 elap:               0.0
 (Enter /shared/centos7/gaussian/g16/l601.exe)
 Copying SCF densities to generalized density rwf, IOpCl= 0 IROHF=0.

 **********************************************************************

            Population analysis using the SCF density.

 **********************************************************************

 Orbital symmetries:
       Occupied  (A) (A) (A) (A) (A) (A) (A) (A) (A) (A) (A) (A)
                 (A) (A) (A) (A) (A) (A) (A) (A) (A) (A) (A) (A)
       Virtual   (A) (A) (A) (A) (A) (A) (A) (A) (A) (A) (A) (A)
                 (A) (A) (A) (A) (A) (A) (A) (A) (A) (A) (A) (A)
                 (A) (A) (A) (A) (A) (A) (A) (A) (A) (A) (A) (A)
                 (A) (A) (A) (A) (A) (A) (A) (A) (A) (A) (A) (A)
                 (A) (A) (A) (A) (A) (A) (A) (A) (A) (A) (A) (A)
                 (A) (A) (A) (A) (A) (A) (A) (A) (A) (A) (A) (A)
                 (A) (A) (A) (A) (A) (A) (A) (A) (A) (A) (A) (A)
                 (A) (A) (A) (A) (A) (A) (A) (A) (A) (A) (A) (A)
                 (A) (A) (A) (A) (A) (A) (A) (A) (A) (A) (A) (A)
                 (A) (A) (A) (A) (A) (A) (A) (A) (A) (A) (A) (A)
                 (A) (A) (A) (A) (A) (A) (A) (A) (A) (A) (A) (A)
                 (A) (A) (A) (A) (A) (A) (A) (A) (A) (A) (A) (A)
                 (A) (A) (A) (A) (A) (A) (A) (A) (A) (A) (A) (A)
                 (A) (A) (A) (A) (A) (A) (A) (A) (A) (A) (A) (A)
                 (A) (A) (A) (A) (A) (A) (A) (A) (A) (A) (A) (A)
                 (A) (A) (A) (A) (A) (A) (A) (A) (A) (A) (A) (A)
                 (A) (A) (A) (A) (A) (A) (A) (A) (A) (A) (A) (A)
                 (A) (A) (A) (A) (A) (A) (A) (A) (A) (A) (A) (A)
                 (A) (A) (A) (A) (A) (A) (A) (A) (A) (A) (A) (A)
                 (A) (A) (A) (A) (A) (A) (A) (A) (A) (A) (A) (A)
                 (A) (A) (A) (A) (A) (A) (A) (A) (A) (A) (A) (A)
 The electronic state is 1-A.
 Alpha  occ. eigenvalues --  -19.66928 -19.61175 -10.66755 -10.58936 -10.55001
 Alpha  occ. eigenvalues --  -10.53737  -1.23831  -1.14251  -0.89702  -0.81973
 Alpha  occ. eigenvalues --   -0.73867  -0.65201  -0.58787  -0.57069  -0.56708
 Alpha  occ. eigenvalues --   -0.52064  -0.49901  -0.48171  -0.45419  -0.43025
 Alpha  occ. eigenvalues --   -0.42923  -0.42238  -0.37817  -0.35138
 Alpha virt. eigenvalues --    0.01147   0.02218   0.03233   0.04229   0.04539
 Alpha virt. eigenvalues --    0.05576   0.06027   0.06514   0.08184   0.08530
 Alpha virt. eigenvalues --    0.09165   0.10103   0.10850   0.12537   0.12736
 Alpha virt. eigenvalues --    0.15285   0.15810   0.19193   0.19332   0.20232
 Alpha virt. eigenvalues --    0.20709   0.21957   0.22872   0.24452   0.24684
 Alpha virt. eigenvalues --    0.25505   0.26993   0.28784   0.29297   0.30054
 Alpha virt. eigenvalues --    0.30155   0.32781   0.33241   0.34397   0.35912
 Alpha virt. eigenvalues --    0.38396   0.40492   0.42687   0.44660   0.45606
 Alpha virt. eigenvalues --    0.47358   0.49543   0.50170   0.52233   0.53475
 Alpha virt. eigenvalues --    0.54247   0.54988   0.56424   0.57302   0.57931
 Alpha virt. eigenvalues --    0.60235   0.61296   0.62435   0.64829   0.65518
 Alpha virt. eigenvalues --    0.66552   0.68559   0.69706   0.71060   0.74276
 Alpha virt. eigenvalues --    0.76712   0.78214   0.80776   0.83899   0.84062
 Alpha virt. eigenvalues --    0.87849   0.88724   0.90250   0.93138   0.94997
 Alpha virt. eigenvalues --    0.96145   0.97838   1.04566   1.07018   1.07551
 Alpha virt. eigenvalues --    1.08940   1.09771   1.12893   1.13845   1.14736
 Alpha virt. eigenvalues --    1.15865   1.17895   1.19258   1.19677   1.21337
 Alpha virt. eigenvalues --    1.21493   1.22674   1.24495   1.27529   1.29601
 Alpha virt. eigenvalues --    1.30506   1.32095   1.33975   1.35734   1.35885
 Alpha virt. eigenvalues --    1.39540   1.41171   1.42032   1.43388   1.44614
 Alpha virt. eigenvalues --    1.45404   1.46738   1.48678   1.51540   1.53012
 Alpha virt. eigenvalues --    1.55511   1.58066   1.61383   1.63067   1.66103
 Alpha virt. eigenvalues --    1.68296   1.70423   1.73123   1.74778   1.83413
 Alpha virt. eigenvalues --    1.85498   1.93535   2.06444   2.10433   2.16849
 Alpha virt. eigenvalues --    2.31061   2.32697   2.40779   2.45906   2.49476
 Alpha virt. eigenvalues --    2.49847   2.53145   2.57164   2.60242   2.66632
 Alpha virt. eigenvalues --    2.70526   2.75261   2.76685   2.79932   2.84670
 Alpha virt. eigenvalues --    2.85206   2.90963   2.95829   2.96452   2.99276
 Alpha virt. eigenvalues --    3.00338   3.02095   3.03668   3.06977   3.07752
 Alpha virt. eigenvalues --    3.11261   3.12562   3.13134   3.15102   3.19731
 Alpha virt. eigenvalues --    3.22181   3.24777   3.26913   3.28862   3.31866
 Alpha virt. eigenvalues --    3.33482   3.34830   3.36230   3.40242   3.41523
 Alpha virt. eigenvalues --    3.45145   3.46280   3.47526   3.50535   3.51459
 Alpha virt. eigenvalues --    3.55394   3.59387   3.59732   3.61241   3.65212
 Alpha virt. eigenvalues --    3.68323   3.69782   3.75754   3.78482   3.83109
 Alpha virt. eigenvalues --    3.84275   3.86856   3.87295   3.87729   3.90231
 Alpha virt. eigenvalues --    3.96241   3.97783   3.98053   4.01547   4.03153
 Alpha virt. eigenvalues --    4.08218   4.10036   4.13982   4.17386   4.22363
 Alpha virt. eigenvalues --    4.23853   4.24180   4.25998   4.27439   4.31245
 Alpha virt. eigenvalues --    4.33091   4.34014   4.36983   4.38503   4.43408
 Alpha virt. eigenvalues --    4.49155   4.50118   4.50458   4.54121   4.57192
 Alpha virt. eigenvalues --    4.59511   4.68389   4.89966   4.93152   5.08612
 Alpha virt. eigenvalues --    5.11132   5.16714   5.22383   5.22752   5.24178
 Alpha virt. eigenvalues --    5.27017   5.37373   5.38693   5.46232   5.50297
 Alpha virt. eigenvalues --    5.52722   5.55655   5.56917   5.59382   5.63484
 Alpha virt. eigenvalues --    5.65658   5.69215   5.74895   5.80735   6.00156
 Alpha virt. eigenvalues --    6.08682   6.39814   6.46879   6.67824   6.83702
 Alpha virt. eigenvalues --    6.96001   7.05917   7.11848   7.16028   7.19949
 Alpha virt. eigenvalues --    7.24696   7.32927   7.53128   7.67040   7.78035
 Alpha virt. eigenvalues --    7.83234  24.32718  24.43794  24.45022  24.85670
 Alpha virt. eigenvalues --   50.18795  50.31535
          Condensed to atoms (all electrons):
               1          2          3          4          5          6
     1  O    8.236647  -0.100860  -0.121806  -0.024542   0.134715   0.159746
     2  O   -0.100860   8.174285   0.026796  -0.030937  -0.043838   0.367886
     3  C   -0.121806   0.026796   5.805900   0.063168  -0.089438  -0.136403
     4  C   -0.024542  -0.030937   0.063168   5.280041   0.000186  -0.083017
     5  C    0.134715  -0.043838  -0.089438   0.000186   4.975934  -0.069161
     6  C    0.159746   0.367886  -0.136403  -0.083017  -0.069161   5.590762
     7  H    0.007671  -0.005992   0.473625  -0.010284  -0.001133  -0.085738
     8  H   -0.005216   0.003062   0.439445  -0.045306   0.002680  -0.047633
     9  H   -0.000027   0.001102  -0.026927   0.415041   0.000364  -0.015577
    10  H   -0.000578  -0.000921  -0.062444   0.405686   0.000123   0.041440
    11  H    0.000481   0.001365  -0.005777   0.422968  -0.000331  -0.034743
    12  H   -0.034667  -0.005020  -0.000793   0.000803   0.426991   0.002741
    13  H   -0.057750   0.003792   0.005274   0.000092   0.424896   0.008232
    14  H   -0.035759  -0.003864  -0.002794  -0.000240   0.431118   0.002807
               7          8          9         10         11         12
     1  O    0.007671  -0.005216  -0.000027  -0.000578   0.000481  -0.034667
     2  O   -0.005992   0.003062   0.001102  -0.000921   0.001365  -0.005020
     3  C    0.473625   0.439445  -0.026927  -0.062444  -0.005777  -0.000793
     4  C   -0.010284  -0.045306   0.415041   0.405686   0.422968   0.000803
     5  C   -0.001133   0.002680   0.000364   0.000123  -0.000331   0.426991
     6  C   -0.085738  -0.047633  -0.015577   0.041440  -0.034743   0.002741
     7  H    0.485483  -0.027074  -0.005009  -0.005002   0.004131   0.000025
     8  H   -0.027074   0.511171   0.005404  -0.003828  -0.005964  -0.000073
     9  H   -0.005009   0.005404   0.531104  -0.024555  -0.032248  -0.000002
    10  H   -0.005002  -0.003828  -0.024555   0.537199  -0.025298  -0.000005
    11  H    0.004131  -0.005964  -0.032248  -0.025298   0.522127   0.000180
    12  H    0.000025  -0.000073  -0.000002  -0.000005   0.000180   0.530879
    13  H    0.000011  -0.000002  -0.000001   0.000000   0.000007  -0.025718
    14  H    0.000004   0.000058   0.000005   0.000001  -0.000053  -0.036549
              13         14
     1  O   -0.057750  -0.035759
     2  O    0.003792  -0.003864
     3  C    0.005274  -0.002794
     4  C    0.000092  -0.000240
     5  C    0.424896   0.431118
     6  C    0.008232   0.002807
     7  H    0.000011   0.000004
     8  H   -0.000002   0.000058
     9  H   -0.000001   0.000005
    10  H    0.000000   0.000001
    11  H    0.000007  -0.000053
    12  H   -0.025718  -0.036549
    13  H    0.532934  -0.025342
    14  H   -0.025342   0.529773
 Mulliken charges:
               1
     1  O   -0.158056
     2  O   -0.386854
     3  C   -0.367826
     4  C   -0.393657
     5  C   -0.193105
     6  C    0.298659
     7  H    0.169284
     8  H    0.173276
     9  H    0.151326
    10  H    0.138182
    11  H    0.153153
    12  H    0.141208
    13  H    0.133576
    14  H    0.140834
 Sum of Mulliken charges =  -0.00000
 Mulliken charges with hydrogens summed into heavy atoms:
               1
     1  O   -0.158056
     2  O   -0.386854
     3  C   -0.025267
     4  C    0.049004
     5  C    0.222514
     6  C    0.298659
 Electronic spatial extent (au):  <R**2>=            649.7949
 Charge=             -0.0000 electrons
 Dipole moment (field-independent basis, Debye):
    X=              0.3416    Y=             -1.8591    Z=             -0.4968  Tot=              1.9544
 Quadrupole moment (field-independent basis, Debye-Ang):
   XX=            -31.0877   YY=            -41.6369   ZZ=            -36.4773
   XY=              2.5374   XZ=             -0.4330   YZ=             -1.8324
 Traceless Quadrupole moment (field-independent basis, Debye-Ang):
   XX=              5.3129   YY=             -5.2362   ZZ=             -0.0767
   XY=              2.5374   XZ=             -0.4330   YZ=             -1.8324
 Octapole moment (field-independent basis, Debye-Ang**2):
  XXX=            -12.3010  YYY=             -6.6581  ZZZ=             -0.0147  XYY=             -0.2137
  XXY=             -2.8320  XXZ=             -0.9290  XZZ=             -1.5689  YZZ=              0.8017
  YYZ=             -2.2188  XYZ=              1.2973
 Hexadecapole moment (field-independent basis, Debye-Ang**3):
 XXXX=           -547.3354 YYYY=           -199.1558 ZZZZ=            -84.4405 XXXY=              8.3016
 XXXZ=             -2.1756 YYYX=             10.3237 YYYZ=             -1.3771 ZZZX=             -2.0499
 ZZZY=              2.7729 XXYY=           -124.3837 XXZZ=           -110.5490 YYZZ=            -48.5450
 XXYZ=              0.0776 YYXZ=              0.8365 ZZXY=             -0.0748
 N-N= 2.476550091668D+02 E-N=-1.215006855488D+03  KE= 3.065713323809D+02
 No NMR shielding tensors so no spin-rotation constants.
 Leave Link  601 at Mon Mar 11 01:11:36 2019, MaxMem=   671088640 cpu:               5.6 elap:               0.3
 (Enter /shared/centos7/gaussian/g16/l9999.exe)
 1\1\GINC-C0163\Scan\RM062X\6-311+G(2df,2p)\C4H8O2\UNDERKOFFLER.C\11-Ma
 r-2019\0\\#p m062x/6-311+g(2df,2p) Opt=(CalcFC,ModRedun)\\Gaussian Inp
 ut Prepared from Scan Object\\0,1\O,1.3905605185,-0.4563933353,0.21862
 33917\O,2.1495503723,1.0915997903,1.6417979915\C,0.79876197,-0.7188184
 982,2.4825434237\C,-0.7165189534,-0.5815748784,2.3163556522\C,2.021769
 8003,0.2582931187,-0.8404545046\C,1.5313571841,0.0828106786,1.44024667
 24\H,1.1198259131,-0.3543053435,3.4548902032\H,1.0901829665,-1.7644735
 641,2.3833234411\H,-1.0209394762,0.4607369781,2.4037219522\H,-1.234205
 4916,-1.1510653323,3.0856731251\H,-1.0320429822,-0.9522260619,1.343068
 2992\H,1.6183060745,1.2666088454,-0.909869674\H,1.8115981135,-0.300821
 0724,-1.7460129753\H,3.0945184825,0.3202248569,-0.6684573436\\Version=
 EM64L-G16RevA.03\State=1-A\HF=-307.6746728,-307.6746566,-307.6746172,-
 307.6745566,-307.6744741,-307.6743814,-307.6742994,-307.6742631,-307.6
 742845,-307.6743582,-307.6744514,-307.6745374,-307.6746037,-307.674649
 7,-307.6746714,-307.6746631,-307.6746252,-307.6745651,-307.6745274,-30
 7.6746094,-307.674852,-307.67521,-307.6756134,-307.6759814,-307.676248
 3,-307.6763579,-307.6762894,-307.6760613,-307.6757132,-307.6753095,-30
 7.6749333,-307.6746562,-307.6745355,-307.6745501,-307.6746112,-307.674
 6569,-307.6746728\RMSD=6.953e-09,9.714e-09,9.839e-09,5.137e-09,3.509e-
 09,8.132e-09,3.328e-09,9.269e-09,8.616e-09,4.730e-09,6.656e-09,9.144e-
 09,4.114e-09,3.990e-09,8.294e-09,3.947e-09,4.955e-09,8.760e-09,9.579e-
 09,3.022e-09,6.572e-09,4.447e-09,9.381e-09,5.991e-09,7.416e-09,5.716e-
 09,9.916e-09,6.573e-09,9.036e-09,7.122e-09,3.157e-09,2.996e-09,7.706e-
 09,4.859e-09,5.458e-09,3.286e-09,4.725e-09\PG=C01 [X(C4H8O2)]\\@


 NATURE WILL TELL YOU A DIRECT LIE IF SHE CAN.

                                -- CHARLES DARWIN
 Job cpu time:       0 days 21 hours 49 minutes 27.5 seconds.
 Elapsed time:       0 days  1 hours  6 minutes  8.7 seconds.
 File lengths (MBytes):  RWF=   1328 Int=      0 D2E=      0 Chk=     32 Scr=     32
 Normal termination of Gaussian 16 at Mon Mar 11 01:11:36 2019.
