 Entering Gaussian System, Link 0=g16
 Input=RJUFJBKOKNCXHH-UHFFFAOYSA-N_GeoFreq_a1.com
 Output=RJUFJBKOKNCXHH-UHFFFAOYSA-N_GeoFreq_a1.log
 Initial command:
 /shared/centos7/gaussian/g16/l1.exe "/scratch/underkoffler.c/gaussian_scratch/Gau-43826.inp" -scrdir="/scratch/underkoffler.c/gaussian_scratch/"
 Entering Link 1 = /shared/centos7/gaussian/g16/l1.exe PID=     43827.
  
 Copyright (c) 1988,1990,1992,1993,1995,1998,2003,2009,2016,
            Gaussian, Inc.  All Rights Reserved.
  
 This is part of the Gaussian(R) 16 program.  It is based on
 the Gaussian(R) 09 system (copyright 2009, Gaussian, Inc.),
 the Gaussian(R) 03 system (copyright 2003, Gaussian, Inc.),
 the Gaussian(R) 98 system (copyright 1998, Gaussian, Inc.),
 the Gaussian(R) 94 system (copyright 1995, Gaussian, Inc.),
 the Gaussian 92(TM) system (copyright 1992, Gaussian, Inc.),
 the Gaussian 90(TM) system (copyright 1990, Gaussian, Inc.),
 the Gaussian 88(TM) system (copyright 1988, Gaussian, Inc.),
 the Gaussian 86(TM) system (copyright 1986, Carnegie Mellon
 University), and the Gaussian 82(TM) system (copyright 1983,
 Carnegie Mellon University). Gaussian is a federally registered
 trademark of Gaussian, Inc.
  
 This software contains proprietary and confidential information,
 including trade secrets, belonging to Gaussian, Inc.
  
 This software is provided under written license and may be
 used, copied, transmitted, or stored only in accord with that
 written license.
  
 The following legend is applicable only to US Government
 contracts under FAR:
  
                    RESTRICTED RIGHTS LEGEND
  
 Use, reproduction and disclosure by the US Government is
 subject to restrictions as set forth in subparagraphs (a)
 and (c) of the Commercial Computer Software - Restricted
 Rights clause in FAR 52.227-19.
  
 Gaussian, Inc.
 340 Quinnipiac St., Bldg. 40, Wallingford CT 06492
  
  
 ---------------------------------------------------------------
 Warning -- This program may not be used in any manner that
 competes with the business of Gaussian, Inc. or will provide
 assistance to any competitor of Gaussian, Inc.  The licensee
 of this program is prohibited from giving any competitor of
 Gaussian, Inc. access to this program.  By using this program,
 the user acknowledges that Gaussian, Inc. is engaged in the
 business of creating and licensing software in the field of
 computational chemistry and represents and warrants to the
 licensee that it is not a competitor of Gaussian, Inc. and that
 it will not use this program in any manner prohibited above.
 ---------------------------------------------------------------
  

 Cite this work as:
 Gaussian 16, Revision A.03,
 M. J. Frisch, G. W. Trucks, H. B. Schlegel, G. E. Scuseria, 
 M. A. Robb, J. R. Cheeseman, G. Scalmani, V. Barone, 
 G. A. Petersson, H. Nakatsuji, X. Li, M. Caricato, A. V. Marenich, 
 J. Bloino, B. G. Janesko, R. Gomperts, B. Mennucci, H. P. Hratchian, 
 J. V. Ortiz, A. F. Izmaylov, J. L. Sonnenberg, D. Williams-Young, 
 F. Ding, F. Lipparini, F. Egidi, J. Goings, B. Peng, A. Petrone, 
 T. Henderson, D. Ranasinghe, V. G. Zakrzewski, J. Gao, N. Rega, 
 G. Zheng, W. Liang, M. Hada, M. Ehara, K. Toyota, R. Fukuda, 
 J. Hasegawa, M. Ishida, T. Nakajima, Y. Honda, O. Kitao, H. Nakai, 
 T. Vreven, K. Throssell, J. A. Montgomery, Jr., J. E. Peralta, 
 F. Ogliaro, M. J. Bearpark, J. J. Heyd, E. N. Brothers, K. N. Kudin, 
 V. N. Staroverov, T. A. Keith, R. Kobayashi, J. Normand, 
 K. Raghavachari, A. P. Rendell, J. C. Burant, S. S. Iyengar, 
 J. Tomasi, M. Cossi, J. M. Millam, M. Klene, C. Adamo, R. Cammi, 
 J. W. Ochterski, R. L. Martin, K. Morokuma, O. Farkas, 
 J. B. Foresman, and D. J. Fox, Gaussian, Inc., Wallingford CT, 2016.
 
 ******************************************
 Gaussian 16:  EM64L-G16RevA.03 25-Dec-2016
                10-Mar-2019 
 ******************************************
 %nprocshared=20
 Will use up to   20 processors via shared memory.
 %mem=5GB
 ----------------------------------------------------------------------
 #p m062x/6-311+g(2df,2p) opt=(calcfc,verytight,gdiis,maxcycles=900) fr
 eq iop(7/33=1,2/16=3)
 ----------------------------------------------------------------------

 Warning!  Use of Opt=GDIIS is deprecated since it is seldom a good choice.

 1/6=900,7=1,10=4,18=20,19=11,26=3,38=1/1,3;
 2/9=110,12=2,16=3,17=6,18=5,40=1/2;
 3/5=4,6=6,7=214,11=2,25=1,30=1,71=2,74=-55,140=1/1,2,3;
 4//1;
 5/5=2,38=5/2;
 8/6=4,10=90,11=11/1;
 11/6=1,8=1,9=11,15=111,16=1/1,2,10;
 10/6=1,13=1/2;
 6/7=2,8=2,9=2,10=2,28=1/1;
 7/10=1,18=20,25=1,33=1/1,2,3,16;
 1/6=900,7=1,10=4,18=20,19=11,26=3/3(2);
 2/9=110,16=3/2;
 99//99;
 2/9=110,16=3/2;
 3/5=4,6=6,7=214,11=2,25=1,30=1,71=1,74=-55/1,2,3;
 4/5=5,16=3,69=1/1;
 5/5=2,38=5/2;
 7/33=1/1,2,3,16;
 1/6=900,7=1,18=20,19=11,26=3/3(-5);
 2/9=110,16=3/2;
 6/7=2,8=2,9=2,10=2,19=2,28=1/1;
 99/9=1/99;
 Leave Link    1 at Sun Mar 10 20:26:24 2019, MaxMem=   671088640 cpu:              18.8 elap:               1.0
 (Enter /shared/centos7/gaussian/g16/l101.exe)
 ------------------------------
 Gaussian input prepared by ASE
 ------------------------------
 Symbolic Z-matrix:
 Charge =  0 Multiplicity = 1
 O                     1.28242   0.68834   0.60622 
 O                     1.21704  -1.47681  -0.19839 
 C                    -0.17772  -0.94049   1.71169 
 C                     0.24976  -0.47972   3.08091 
 C                     2.24392   0.8695   -0.48238 
 C                     0.8203   -0.67345   0.62222 
 H                    -0.39945  -2.03801   1.73836 
 H                    -1.14338  -0.43093   1.44305 
 H                     1.05756  -1.13888   3.48691 
 H                    -0.6161   -0.51869   3.78902 
 H                     0.63523   0.57006   3.05643 
 H                     3.14445   0.22267  -0.30392 
 H                     2.53906   1.94788  -0.48108 
 H                     1.76964   0.59913  -1.46358 
 
 ITRead=  0  0  0  0  0  0  0  0  0  0  0  0  0  0
 MicOpt= -1 -1 -1 -1 -1 -1 -1 -1 -1 -1 -1 -1 -1 -1
 NAtoms=     14 NQM=       14 NQMF=       0 NMMI=      0 NMMIF=      0
                NMic=       0 NMicF=      0.
                    Isotopes and Nuclear Properties:
 (Nuclear quadrupole moments (NQMom) in fm**2, nuclear magnetic moments (NMagM)
  in nuclear magnetons)

  Atom         1           2           3           4           5           6           7           8           9          10
 IAtWgt=          16          16          12          12          12          12           1           1           1           1
 AtmWgt=  15.9949146  15.9949146  12.0000000  12.0000000  12.0000000  12.0000000   1.0078250   1.0078250   1.0078250   1.0078250
 NucSpn=           0           0           0           0           0           0           1           1           1           1
 AtZEff=  -0.0000000  -0.0000000  -0.0000000  -0.0000000  -0.0000000  -0.0000000  -0.0000000  -0.0000000  -0.0000000  -0.0000000
 NQMom=    0.0000000   0.0000000   0.0000000   0.0000000   0.0000000   0.0000000   0.0000000   0.0000000   0.0000000   0.0000000
 NMagM=    0.0000000   0.0000000   0.0000000   0.0000000   0.0000000   0.0000000   2.7928460   2.7928460   2.7928460   2.7928460
 AtZNuc=   8.0000000   8.0000000   6.0000000   6.0000000   6.0000000   6.0000000   1.0000000   1.0000000   1.0000000   1.0000000

  Atom        11          12          13          14
 IAtWgt=           1           1           1           1
 AtmWgt=   1.0078250   1.0078250   1.0078250   1.0078250
 NucSpn=           1           1           1           1
 AtZEff=  -0.0000000  -0.0000000  -0.0000000  -0.0000000
 NQMom=    0.0000000   0.0000000   0.0000000   0.0000000
 NMagM=    2.7928460   2.7928460   2.7928460   2.7928460
 AtZNuc=   1.0000000   1.0000000   1.0000000   1.0000000
 Leave Link  101 at Sun Mar 10 20:26:24 2019, MaxMem=   671088640 cpu:               5.6 elap:               0.3
 (Enter /shared/centos7/gaussian/g16/l103.exe)

 GradGradGradGradGradGradGradGradGradGradGradGradGradGradGradGradGradGrad
 Berny optimization.
 Initialization pass.
                           ----------------------------
                           !    Initial Parameters    !
                           ! (Angstroms and Degrees)  !
 --------------------------                            --------------------------
 ! Name  Definition              Value          Derivative Info.                !
 --------------------------------------------------------------------------------
 ! R1    R(1,5)                  1.4637         calculate D2E/DX2 analytically  !
 ! R2    R(1,6)                  1.4382         calculate D2E/DX2 analytically  !
 ! R3    R(2,6)                  1.215          calculate D2E/DX2 analytically  !
 ! R4    R(3,4)                  1.5066         calculate D2E/DX2 analytically  !
 ! R5    R(3,6)                  1.5014         calculate D2E/DX2 analytically  !
 ! R6    R(3,7)                  1.12           calculate D2E/DX2 analytically  !
 ! R7    R(3,8)                  1.1244         calculate D2E/DX2 analytically  !
 ! R8    R(4,9)                  1.1189         calculate D2E/DX2 analytically  !
 ! R9    R(4,10)                 1.1192         calculate D2E/DX2 analytically  !
 ! R10   R(4,11)                 1.1186         calculate D2E/DX2 analytically  !
 ! R11   R(5,12)                 1.123          calculate D2E/DX2 analytically  !
 ! R12   R(5,13)                 1.118          calculate D2E/DX2 analytically  !
 ! R13   R(5,14)                 1.1229         calculate D2E/DX2 analytically  !
 ! A1    A(5,1,6)              109.6673         calculate D2E/DX2 analytically  !
 ! A2    A(4,3,6)              114.6112         calculate D2E/DX2 analytically  !
 ! A3    A(4,3,7)              109.5255         calculate D2E/DX2 analytically  !
 ! A4    A(4,3,8)              108.7973         calculate D2E/DX2 analytically  !
 ! A5    A(6,3,7)              108.8536         calculate D2E/DX2 analytically  !
 ! A6    A(6,3,8)              108.4757         calculate D2E/DX2 analytically  !
 ! A7    A(7,3,8)              106.2446         calculate D2E/DX2 analytically  !
 ! A8    A(3,4,9)              110.7604         calculate D2E/DX2 analytically  !
 ! A9    A(3,4,10)             110.1716         calculate D2E/DX2 analytically  !
 ! A10   A(3,4,11)             111.4017         calculate D2E/DX2 analytically  !
 ! A11   A(9,4,10)             107.9663         calculate D2E/DX2 analytically  !
 ! A12   A(9,4,11)             108.1822         calculate D2E/DX2 analytically  !
 ! A13   A(10,4,11)            108.2475         calculate D2E/DX2 analytically  !
 ! A14   A(1,5,12)             109.7112         calculate D2E/DX2 analytically  !
 ! A15   A(1,5,13)             106.9731         calculate D2E/DX2 analytically  !
 ! A16   A(1,5,14)             110.0384         calculate D2E/DX2 analytically  !
 ! A17   A(12,5,13)            110.1008         calculate D2E/DX2 analytically  !
 ! A18   A(12,5,14)            109.8085         calculate D2E/DX2 analytically  !
 ! A19   A(13,5,14)            110.1678         calculate D2E/DX2 analytically  !
 ! A20   A(1,6,2)              120.9076         calculate D2E/DX2 analytically  !
 ! A21   A(1,6,3)              112.9592         calculate D2E/DX2 analytically  !
 ! A22   A(2,6,3)              126.125          calculate D2E/DX2 analytically  !
 ! D1    D(6,1,5,12)           -62.9605         calculate D2E/DX2 analytically  !
 ! D2    D(6,1,5,13)           177.6304         calculate D2E/DX2 analytically  !
 ! D3    D(6,1,5,14)            57.9593         calculate D2E/DX2 analytically  !
 ! D4    D(5,1,6,2)             -0.7483         calculate D2E/DX2 analytically  !
 ! D5    D(5,1,6,3)           -179.7679         calculate D2E/DX2 analytically  !
 ! D6    D(6,3,4,9)            -72.2305         calculate D2E/DX2 analytically  !
 ! D7    D(6,3,4,10)           168.3835         calculate D2E/DX2 analytically  !
 ! D8    D(6,3,4,11)            48.2333         calculate D2E/DX2 analytically  !
 ! D9    D(7,3,4,9)             50.4239         calculate D2E/DX2 analytically  !
 ! D10   D(7,3,4,10)           -68.9621         calculate D2E/DX2 analytically  !
 ! D11   D(7,3,4,11)           170.8876         calculate D2E/DX2 analytically  !
 ! D12   D(8,3,4,9)            166.1604         calculate D2E/DX2 analytically  !
 ! D13   D(8,3,4,10)            46.7744         calculate D2E/DX2 analytically  !
 ! D14   D(8,3,4,11)           -73.3759         calculate D2E/DX2 analytically  !
 ! D15   D(4,3,6,1)            -50.4444         calculate D2E/DX2 analytically  !
 ! D16   D(4,3,6,2)            130.597          calculate D2E/DX2 analytically  !
 ! D17   D(7,3,6,1)           -173.4611         calculate D2E/DX2 analytically  !
 ! D18   D(7,3,6,2)              7.5803         calculate D2E/DX2 analytically  !
 ! D19   D(8,3,6,1)             71.3404         calculate D2E/DX2 analytically  !
 ! D20   D(8,3,6,2)           -107.6182         calculate D2E/DX2 analytically  !
 --------------------------------------------------------------------------------
 Trust Radius=3.00D-01 FncErr=1.00D-07 GrdErr=1.00D-06 EigMax=2.50D+02 EigMin=1.00D-04
 Number of steps in this run=    100 maximum allowed number of steps=    100.
 GradGradGradGradGradGradGradGradGradGradGradGradGradGradGradGradGradGrad

 Leave Link  103 at Sun Mar 10 20:26:24 2019, MaxMem=   671088640 cpu:               0.3 elap:               0.0
 (Enter /shared/centos7/gaussian/g16/l202.exe)
                          Input orientation:                          
 ---------------------------------------------------------------------
 Center     Atomic      Atomic             Coordinates (Angstroms)
 Number     Number       Type             X           Y           Z
 ---------------------------------------------------------------------
      1          8           0        1.282421    0.688336    0.606224
      2          8           0        1.217036   -1.476808   -0.198395
      3          6           0       -0.177724   -0.940485    1.711690
      4          6           0        0.249763   -0.479721    3.080914
      5          6           0        2.243920    0.869499   -0.482383
      6          6           0        0.820296   -0.673451    0.622221
      7          1           0       -0.399454   -2.038014    1.738355
      8          1           0       -1.143382   -0.430935    1.443050
      9          1           0        1.057564   -1.138879    3.486909
     10          1           0       -0.616100   -0.518689    3.789023
     11          1           0        0.635232    0.570063    3.056425
     12          1           0        3.144450    0.222667   -0.303924
     13          1           0        2.539063    1.947883   -0.481077
     14          1           0        1.769641    0.599131   -1.463583
 ---------------------------------------------------------------------
                    Distance matrix (angstroms):
                    1          2          3          4          5
     1  O    0.000000
     2  O    2.310743   0.000000
     3  C    2.450946   2.425165   0.000000
     4  C    2.924864   3.561413   1.506592   0.000000
     5  C    1.463682   2.576877   3.735554   4.300482   0.000000
     6  C    1.438151   1.214988   1.501430   2.531443   2.372246
     7  H    3.397560   2.584376   1.120020   2.156901   4.513618
     8  H    2.799566   3.059374   1.124413   2.150774   4.107583
     9  H    3.418717   3.704200   2.171796   1.118867   4.603945
    10  H    3.897628   4.491980   2.164578   1.119221   5.324631
    11  H    2.536992   3.888706   2.179671   1.118586   3.898808
    12  H    2.124234   2.571823   4.056164   4.508846   1.123029
    13  H    2.085145   3.681870   4.531206   4.880772   1.118044
    14  H    2.128249   2.493109   4.030510   4.911864   1.122850
                    6          7          8          9         10
     6  C    0.000000
     7  H    2.143730   0.000000
     8  H    2.142103   1.795366   0.000000
     9  H    2.911933   2.447200   3.085889   0.000000
    10  H    3.480779   2.561352   2.406100   1.810265   0.000000
    11  H    2.739694   3.099993   2.601624   1.812227   1.813261
    12  H    2.657530   4.673419   4.675962   4.536443   5.607457
    13  H    3.323074   5.426614   4.787634   5.240978   5.854297
    14  H    2.621317   4.681017   4.242082   5.294819   5.876322
                   11         12         13         14
    11  H    0.000000
    12  H    4.208184   0.000000
    13  H    4.246985   1.836912   0.000000
    14  H    4.660280   1.837562   1.837515   0.000000
 Stoichiometry    C4H8O2
 Framework group  C1[X(C4H8O2)]
 Deg. of freedom    36
 Full point group                 C1      NOp   1
 Largest Abelian subgroup         C1      NOp   1
 Largest concise Abelian subgroup C1      NOp   1
                         Standard orientation:                         
 ---------------------------------------------------------------------
 Center     Atomic      Atomic             Coordinates (Angstroms)
 Number     Number       Type             X           Y           Z
 ---------------------------------------------------------------------
      1          8           0       -0.725164   -0.774096   -0.243028
      2          8           0       -0.664557    1.480777    0.258383
      3          6           0        1.415931    0.410793   -0.380465
      4          6           0        2.144575   -0.707569    0.318223
      5          6           0       -2.147503   -0.617737    0.064977
      6          6           0       -0.052528    0.486139   -0.076750
      7          1           0        1.890974    1.389940   -0.115790
      8          1           0        1.544349    0.288842   -1.490844
      9          1           0        2.253688   -0.488653    1.410027
     10          1           0        3.169926   -0.829250   -0.113641
     11          1           0        1.601218   -1.679274    0.209665
     12          1           0       -2.271741   -0.322447    1.141343
     13          1           0       -2.632337   -1.608022   -0.120208
     14          1           0       -2.601161    0.165661   -0.599308
 ---------------------------------------------------------------------
 Rotational constants (GHZ):           6.3471147           2.4787642           1.9330400
 Leave Link  202 at Sun Mar 10 20:26:24 2019, MaxMem=   671088640 cpu:               1.1 elap:               0.1
 (Enter /shared/centos7/gaussian/g16/l301.exe)
 Standard basis: 6-311+G(2df,2p) (5D, 7F)
 Ernie: Thresh=  0.10000D-02 Tol=  0.10000D-05 Strict=F.
 There are   306 symmetry adapted cartesian basis functions of A   symmetry.
 There are   276 symmetry adapted basis functions of A   symmetry.
   276 basis functions,   400 primitive gaussians,   306 cartesian basis functions
    24 alpha electrons       24 beta electrons
       nuclear repulsion energy       243.1480838480 Hartrees.
 IExCor= 4336 DFT=T Ex+Corr=M062X ExCW=0 ScaHFX=  0.540000
 ScaDFX=  1.000000  1.000000  1.000000  1.000000 ScalE2=  1.000000  1.000000
 IRadAn=      5 IRanWt=     -1 IRanGd=            0 ICorTp=0 IEmpDi=  4
 NAtoms=   14 NActive=   14 NUniq=   14 SFac= 1.00D+00 NAtFMM=   60 NAOKFM=F Big=F
 Integral buffers will be    131072 words long.
 Raffenetti 2 integral format.
 Two-electron integral symmetry is turned on.
 Leave Link  301 at Sun Mar 10 20:26:24 2019, MaxMem=   671088640 cpu:               1.2 elap:               0.1
 (Enter /shared/centos7/gaussian/g16/l302.exe)
 NPDir=0 NMtPBC=     1 NCelOv=     1 NCel=       1 NClECP=     1 NCelD=      1
         NCelK=      1 NCelE2=     1 NClLst=     1 CellRange=     0.0.
 One-electron integrals computed using PRISM.
 One-electron integral symmetry used in STVInt
 NBasis=   276 RedAO= T EigKep=  2.71D-05  NBF=   276
 NBsUse=   276 1.00D-06 EigRej= -1.00D+00 NBFU=   276
 Precomputing XC quadrature grid using
 IXCGrd= 4 IRadAn=           5 IRanWt=          -1 IRanGd=           0 AccXCQ= 0.00D+00.
 Generated NRdTot=       0 NPtTot=           0 NUsed=           0 NTot=          32
 NSgBfM=   306   306   306   306   306 MxSgAt=    14 MxSgA2=    14.
 Leave Link  302 at Sun Mar 10 20:26:25 2019, MaxMem=   671088640 cpu:               9.0 elap:               0.5
 (Enter /shared/centos7/gaussian/g16/l303.exe)
 DipDrv:  MaxL=1.
 Leave Link  303 at Sun Mar 10 20:26:25 2019, MaxMem=   671088640 cpu:               0.8 elap:               0.1
 (Enter /shared/centos7/gaussian/g16/l401.exe)
 ExpMin= 4.38D-02 ExpMax= 8.59D+03 ExpMxC= 1.30D+03 IAcc=3 IRadAn=         5 AccDes= 0.00D+00
 Harris functional with IExCor= 1009 and IRadAn=       5 diagonalized for initial guess.
 HarFok:  IExCor= 1009 AccDes= 0.00D+00 IRadAn=         5 IDoV= 1 UseB2=F ITyADJ=14
 ICtDFT=  3500011 ScaDFX=  1.000000  1.000000  1.000000  1.000000
 FoFCou: FMM=F IPFlag=           0 FMFlag=      100000 FMFlg1=           0
         NFxFlg=           0 DoJE=T BraDBF=F KetDBF=T FulRan=T
         wScrn=  0.000000 ICntrl=       500 IOpCl=  0 I1Cent=   200000004 NGrid=           0
         NMat0=    1 NMatS0=      1 NMatT0=    0 NMatD0=    1 NMtDS0=    0 NMtDT0=    0
 Petite list used in FoFCou.
 Harris En= -307.545028994394    
 JPrj=0 DoOrth=F DoCkMO=F.
 Leave Link  401 at Sun Mar 10 20:26:26 2019, MaxMem=   671088640 cpu:              27.5 elap:               1.4
 (Enter /shared/centos7/gaussian/g16/l502.exe)
 Integral symmetry usage will be decided dynamically.
 Closed shell SCF:
 Using DIIS extrapolation, IDIIS=  1040.
 NGot=   671088640 LenX=   670892442 LenY=   670798365
 Requested convergence on RMS density matrix=1.00D-08 within 128 cycles.
 Requested convergence on MAX density matrix=1.00D-06.
 Requested convergence on             energy=1.00D-06.
 No special actions if energy rises.
 Fock matrices will be formed incrementally for  20 cycles.

 Cycle   1  Pass 1  IDiag  1:
 FoFJK:  IHMeth= 1 ICntrl=       0 DoSepK=F KAlg= 0 I1Cent=           0 FoldK=F
 IRaf= 960000000 NMat=       1 IRICut=       1 DoRegI=T DoRafI=F ISym2E= 0 IDoP0=0 IntGTp=1.
 FoFCou: FMM=F IPFlag=           0 FMFlag=      100000 FMFlg1=           0
         NFxFlg=           0 DoJE=F BraDBF=F KetDBF=F FulRan=T
         wScrn=  0.000000 ICntrl=         0 IOpCl=  0 I1Cent=           0 NGrid=           0
         NMat0=    1 NMatS0=      1 NMatT0=    0 NMatD0=    1 NMtDS0=    0 NMtDT0=    0
 Symmetry not used in FoFCou.
 E= -307.468457806384    
 DIIS: error= 2.67D-02 at cycle   1 NSaved=   1.
 NSaved= 1 IEnMin= 1 EnMin= -307.468457806384     IErMin= 1 ErrMin= 2.67D-02
 ErrMax= 2.67D-02  0.00D+00 EMaxC= 1.00D-01 BMatC= 2.64D-01 BMatP= 2.64D-01
 IDIUse=3 WtCom= 7.33D-01 WtEn= 2.67D-01
 Coeff-Com:  0.100D+01
 Coeff-En:   0.100D+01
 Coeff:      0.100D+01
 Gap=     0.395 Goal=   None    Shift=    0.000
 GapD=    0.395 DampG=1.000 DampE=0.500 DampFc=0.5000 IDamp=-1.
 Damping current iteration by 5.00D-01
 RMSDP=2.38D-03 MaxDP=1.04D-01              OVMax= 1.64D-01

 Cycle   2  Pass 1  IDiag  1:
 RMSU=  1.18D-03    CP:  9.87D-01
 E= -307.559353636588     Delta-E=       -0.090895830204 Rises=F Damp=T
 DIIS: error= 6.87D-03 at cycle   2 NSaved=   2.
 NSaved= 2 IEnMin= 2 EnMin= -307.559353636588     IErMin= 2 ErrMin= 6.87D-03
 ErrMax= 6.87D-03  0.00D+00 EMaxC= 1.00D-01 BMatC= 2.15D-02 BMatP= 2.64D-01
 IDIUse=3 WtCom= 9.31D-01 WtEn= 6.87D-02
 Coeff-Com: -0.125D-01 0.101D+01
 Coeff-En:   0.000D+00 0.100D+01
 Coeff:     -0.117D-01 0.101D+01
 Gap=     0.383 Goal=   None    Shift=    0.000
 RMSDP=8.59D-04 MaxDP=5.63D-02 DE=-9.09D-02 OVMax= 8.87D-02

 Cycle   3  Pass 1  IDiag  1:
 RMSU=  8.33D-04    CP:  9.67D-01  9.27D-01
 E= -307.650192755444     Delta-E=       -0.090839118856 Rises=F Damp=F
 DIIS: error= 8.10D-03 at cycle   3 NSaved=   3.
 NSaved= 3 IEnMin= 3 EnMin= -307.650192755444     IErMin= 2 ErrMin= 6.87D-03
 ErrMax= 8.10D-03  0.00D+00 EMaxC= 1.00D-01 BMatC= 1.42D-02 BMatP= 2.15D-02
 IDIUse=3 WtCom= 9.19D-01 WtEn= 8.10D-02
 Coeff-Com: -0.776D-01 0.472D+00 0.605D+00
 Coeff-En:   0.000D+00 0.000D+00 0.100D+01
 Coeff:     -0.713D-01 0.434D+00 0.637D+00
 Gap=     0.369 Goal=   None    Shift=    0.000
 RMSDP=3.93D-04 MaxDP=1.52D-02 DE=-9.08D-02 OVMax= 3.83D-02

 Cycle   4  Pass 1  IDiag  1:
 RMSU=  3.46D-04    CP:  9.66D-01  1.05D+00  8.68D-01
 E= -307.657984736477     Delta-E=       -0.007791981034 Rises=F Damp=F
 DIIS: error= 2.96D-03 at cycle   4 NSaved=   4.
 NSaved= 4 IEnMin= 4 EnMin= -307.657984736477     IErMin= 4 ErrMin= 2.96D-03
 ErrMax= 2.96D-03  0.00D+00 EMaxC= 1.00D-01 BMatC= 3.32D-03 BMatP= 1.42D-02
 IDIUse=3 WtCom= 9.70D-01 WtEn= 2.96D-02
 Coeff-Com: -0.304D-01 0.834D-01 0.358D+00 0.589D+00
 Coeff-En:   0.000D+00 0.000D+00 0.206D+00 0.794D+00
 Coeff:     -0.295D-01 0.809D-01 0.353D+00 0.596D+00
 Gap=     0.367 Goal=   None    Shift=    0.000
 RMSDP=1.47D-04 MaxDP=5.32D-03 DE=-7.79D-03 OVMax= 1.16D-02

 Cycle   5  Pass 1  IDiag  1:
 RMSU=  6.97D-05    CP:  9.64D-01  1.02D+00  9.42D-01  7.00D-01
 E= -307.660455096444     Delta-E=       -0.002470359967 Rises=F Damp=F
 DIIS: error= 3.72D-04 at cycle   5 NSaved=   5.
 NSaved= 5 IEnMin= 5 EnMin= -307.660455096444     IErMin= 5 ErrMin= 3.72D-04
 ErrMax= 3.72D-04  0.00D+00 EMaxC= 1.00D-01 BMatC= 8.56D-05 BMatP= 3.32D-03
 IDIUse=3 WtCom= 9.96D-01 WtEn= 3.72D-03
 Coeff-Com: -0.913D-02 0.183D-01 0.133D+00 0.265D+00 0.592D+00
 Coeff-En:   0.000D+00 0.000D+00 0.000D+00 0.000D+00 0.100D+01
 Coeff:     -0.910D-02 0.182D-01 0.133D+00 0.264D+00 0.594D+00
 Gap=     0.366 Goal=   None    Shift=    0.000
 RMSDP=2.73D-05 MaxDP=1.85D-03 DE=-2.47D-03 OVMax= 3.04D-03

 Cycle   6  Pass 1  IDiag  1:
 RMSU=  2.31D-05    CP:  9.63D-01  1.02D+00  9.50D-01  7.29D-01  9.34D-01
 E= -307.660516018802     Delta-E=       -0.000060922359 Rises=F Damp=F
 DIIS: error= 1.19D-04 at cycle   6 NSaved=   6.
 NSaved= 6 IEnMin= 6 EnMin= -307.660516018802     IErMin= 6 ErrMin= 1.19D-04
 ErrMax= 1.19D-04  0.00D+00 EMaxC= 1.00D-01 BMatC= 1.07D-05 BMatP= 8.56D-05
 IDIUse=3 WtCom= 9.99D-01 WtEn= 1.19D-03
 Coeff-Com: -0.281D-03-0.254D-02 0.190D-01 0.492D-01 0.284D+00 0.651D+00
 Coeff-En:   0.000D+00 0.000D+00 0.000D+00 0.000D+00 0.000D+00 0.100D+01
 Coeff:     -0.281D-03-0.254D-02 0.190D-01 0.491D-01 0.284D+00 0.651D+00
 Gap=     0.366 Goal=   None    Shift=    0.000
 RMSDP=9.91D-06 MaxDP=4.89D-04 DE=-6.09D-05 OVMax= 7.07D-04

 Cycle   7  Pass 1  IDiag  1:
 RMSU=  7.52D-06    CP:  9.63D-01  1.01D+00  9.55D-01  7.30D-01  9.92D-01
                    CP:  8.86D-01
 E= -307.660524460152     Delta-E=       -0.000008441350 Rises=F Damp=F
 DIIS: error= 3.45D-05 at cycle   7 NSaved=   7.
 NSaved= 7 IEnMin= 7 EnMin= -307.660524460152     IErMin= 7 ErrMin= 3.45D-05
 ErrMax= 3.45D-05  0.00D+00 EMaxC= 1.00D-01 BMatC= 5.82D-07 BMatP= 1.07D-05
 IDIUse=1 WtCom= 1.00D+00 WtEn= 0.00D+00
 Coeff-Com:  0.136D-02-0.333D-02-0.120D-01-0.251D-01-0.786D-03 0.124D+00
 Coeff-Com:  0.915D+00
 Coeff:      0.136D-02-0.333D-02-0.120D-01-0.251D-01-0.786D-03 0.124D+00
 Coeff:      0.915D+00
 Gap=     0.366 Goal=   None    Shift=    0.000
 RMSDP=5.13D-06 MaxDP=2.19D-04 DE=-8.44D-06 OVMax= 4.58D-04

 Cycle   8  Pass 1  IDiag  1:
 RMSU=  2.96D-06    CP:  9.63D-01  1.01D+00  9.57D-01  7.31D-01  1.03D+00
                    CP:  9.46D-01  1.15D+00
 E= -307.660525268405     Delta-E=       -0.000000808253 Rises=F Damp=F
 DIIS: error= 1.51D-05 at cycle   8 NSaved=   8.
 NSaved= 8 IEnMin= 8 EnMin= -307.660525268405     IErMin= 8 ErrMin= 1.51D-05
 ErrMax= 1.51D-05  0.00D+00 EMaxC= 1.00D-01 BMatC= 1.02D-07 BMatP= 5.82D-07
 IDIUse=1 WtCom= 1.00D+00 WtEn= 0.00D+00
 Coeff-Com:  0.512D-03-0.915D-03-0.554D-02-0.145D-01-0.310D-01-0.371D-01
 Coeff-Com:  0.314D+00 0.775D+00
 Coeff:      0.512D-03-0.915D-03-0.554D-02-0.145D-01-0.310D-01-0.371D-01
 Coeff:      0.314D+00 0.775D+00
 Gap=     0.366 Goal=   None    Shift=    0.000
 RMSDP=1.60D-06 MaxDP=4.18D-05 DE=-8.08D-07 OVMax= 1.37D-04

 Cycle   9  Pass 1  IDiag  1:
 RMSU=  8.60D-07    CP:  9.63D-01  1.01D+00  9.58D-01  7.30D-01  1.04D+00
                    CP:  9.59D-01  1.27D+00  1.06D+00
 E= -307.660525393909     Delta-E=       -0.000000125504 Rises=F Damp=F
 DIIS: error= 2.78D-06 at cycle   9 NSaved=   9.
 NSaved= 9 IEnMin= 9 EnMin= -307.660525393909     IErMin= 9 ErrMin= 2.78D-06
 ErrMax= 2.78D-06  0.00D+00 EMaxC= 1.00D-01 BMatC= 4.27D-09 BMatP= 1.02D-07
 IDIUse=1 WtCom= 1.00D+00 WtEn= 0.00D+00
 Coeff-Com: -0.770D-04 0.197D-03 0.863D-03 0.992D-03-0.269D-02-0.131D-01
 Coeff-Com: -0.553D-01 0.576D-01 0.101D+01
 Coeff:     -0.770D-04 0.197D-03 0.863D-03 0.992D-03-0.269D-02-0.131D-01
 Coeff:     -0.553D-01 0.576D-01 0.101D+01
 Gap=     0.366 Goal=   None    Shift=    0.000
 RMSDP=5.20D-07 MaxDP=2.83D-05 DE=-1.26D-07 OVMax= 5.65D-05

 Cycle  10  Pass 1  IDiag  1:
 RMSU=  2.83D-07    CP:  9.63D-01  1.01D+00  9.58D-01  7.29D-01  1.04D+00
                    CP:  9.59D-01  1.30D+00  1.16D+00  1.12D+00
 E= -307.660525401463     Delta-E=       -0.000000007554 Rises=F Damp=F
 DIIS: error= 8.45D-07 at cycle  10 NSaved=  10.
 NSaved=10 IEnMin=10 EnMin= -307.660525401463     IErMin=10 ErrMin= 8.45D-07
 ErrMax= 8.45D-07  0.00D+00 EMaxC= 1.00D-01 BMatC= 3.91D-10 BMatP= 4.27D-09
 IDIUse=1 WtCom= 1.00D+00 WtEn= 0.00D+00
 Coeff-Com: -0.483D-04 0.104D-03 0.583D-03 0.112D-02 0.112D-02-0.935D-03
 Coeff-Com: -0.331D-01-0.393D-01 0.255D+00 0.815D+00
 Coeff:     -0.483D-04 0.104D-03 0.583D-03 0.112D-02 0.112D-02-0.935D-03
 Coeff:     -0.331D-01-0.393D-01 0.255D+00 0.815D+00
 Gap=     0.366 Goal=   None    Shift=    0.000
 RMSDP=1.10D-07 MaxDP=4.64D-06 DE=-7.55D-09 OVMax= 9.71D-06

 Cycle  11  Pass 1  IDiag  1:
 RMSU=  6.41D-08    CP:  9.63D-01  1.01D+00  9.58D-01  7.29D-01  1.04D+00
                    CP:  9.59D-01  1.30D+00  1.18D+00  1.19D+00  1.02D+00
 E= -307.660525401955     Delta-E=       -0.000000000492 Rises=F Damp=F
 DIIS: error= 2.63D-07 at cycle  11 NSaved=  11.
 NSaved=11 IEnMin=11 EnMin= -307.660525401955     IErMin=11 ErrMin= 2.63D-07
 ErrMax= 2.63D-07  0.00D+00 EMaxC= 1.00D-01 BMatC= 3.70D-11 BMatP= 3.91D-10
 IDIUse=1 WtCom= 1.00D+00 WtEn= 0.00D+00
 Coeff-Com: -0.685D-05 0.123D-04 0.111D-03 0.246D-03 0.542D-03 0.673D-03
 Coeff-Com: -0.503D-02-0.163D-01-0.104D-01 0.217D+00 0.814D+00
 Coeff:     -0.685D-05 0.123D-04 0.111D-03 0.246D-03 0.542D-03 0.673D-03
 Coeff:     -0.503D-02-0.163D-01-0.104D-01 0.217D+00 0.814D+00
 Gap=     0.366 Goal=   None    Shift=    0.000
 RMSDP=2.99D-08 MaxDP=1.39D-06 DE=-4.92D-10 OVMax= 3.24D-06

 Cycle  12  Pass 1  IDiag  1:
 RMSU=  2.04D-08    CP:  9.63D-01  1.01D+00  9.58D-01  7.29D-01  1.04D+00
                    CP:  9.59D-01  1.30D+00  1.18D+00  1.20D+00  1.09D+00
                    CP:  1.07D+00
 E= -307.660525402000     Delta-E=       -0.000000000045 Rises=F Damp=F
 DIIS: error= 8.43D-08 at cycle  12 NSaved=  12.
 NSaved=12 IEnMin=12 EnMin= -307.660525402000     IErMin=12 ErrMin= 8.43D-08
 ErrMax= 8.43D-08  0.00D+00 EMaxC= 1.00D-01 BMatC= 3.92D-12 BMatP= 3.70D-11
 IDIUse=1 WtCom= 1.00D+00 WtEn= 0.00D+00
 Coeff-Com:  0.264D-05-0.588D-05-0.195D-04-0.319D-04 0.619D-04 0.221D-03
 Coeff-Com:  0.158D-02-0.106D-02-0.277D-01-0.156D-01 0.261D+00 0.782D+00
 Coeff:      0.264D-05-0.588D-05-0.195D-04-0.319D-04 0.619D-04 0.221D-03
 Coeff:      0.158D-02-0.106D-02-0.277D-01-0.156D-01 0.261D+00 0.782D+00
 Gap=     0.366 Goal=   None    Shift=    0.000
 RMSDP=1.07D-08 MaxDP=6.87D-07 DE=-4.51D-11 OVMax= 6.27D-07

 Cycle  13  Pass 1  IDiag  1:
 RMSU=  6.74D-09    CP:  9.63D-01  1.01D+00  9.58D-01  7.29D-01  1.04D+00
                    CP:  9.59D-01  1.30D+00  1.18D+00  1.20D+00  1.11D+00
                    CP:  1.14D+00  1.01D+00
 E= -307.660525402003     Delta-E=       -0.000000000003 Rises=F Damp=F
 DIIS: error= 1.38D-08 at cycle  13 NSaved=  13.
 NSaved=13 IEnMin=13 EnMin= -307.660525402003     IErMin=13 ErrMin= 1.38D-08
 ErrMax= 1.38D-08  0.00D+00 EMaxC= 1.00D-01 BMatC= 1.36D-13 BMatP= 3.92D-12
 IDIUse=1 WtCom= 1.00D+00 WtEn= 0.00D+00
 Coeff-Com:  0.806D-06-0.174D-05-0.981D-05-0.196D-04-0.155D-04-0.708D-05
 Coeff-Com:  0.609D-03 0.965D-03-0.446D-02-0.179D-01-0.384D-02 0.142D+00
 Coeff-Com:  0.883D+00
 Coeff:      0.806D-06-0.174D-05-0.981D-05-0.196D-04-0.155D-04-0.708D-05
 Coeff:      0.609D-03 0.965D-03-0.446D-02-0.179D-01-0.384D-02 0.142D+00
 Coeff:      0.883D+00
 Gap=     0.366 Goal=   None    Shift=    0.000
 RMSDP=2.41D-09 MaxDP=1.40D-07 DE=-2.50D-12 OVMax= 1.76D-07

 SCF Done:  E(RM062X) =  -307.660525402     A.U. after   13 cycles
            NFock= 13  Conv=0.24D-08     -V/T= 2.0055
 KE= 3.059633508509D+02 PE=-1.205602205028D+03 EE= 3.488302449274D+02
 Leave Link  502 at Sun Mar 10 20:27:16 2019, MaxMem=   671088640 cpu:             991.5 elap:              49.6
 (Enter /shared/centos7/gaussian/g16/l801.exe)
 DoSCS=F DFT=T ScalE2(SS,OS)=  1.000000  1.000000
 Range of M.O.s used for correlation:     1   276
 NBasis=   276 NAE=    24 NBE=    24 NFC=     0 NFV=     0
 NROrb=    276 NOA=    24 NOB=    24 NVA=   252 NVB=   252

 **** Warning!!: The largest alpha MO coefficient is  0.53163795D+02

 Leave Link  801 at Sun Mar 10 20:27:16 2019, MaxMem=   671088640 cpu:               0.5 elap:               0.0
 (Enter /shared/centos7/gaussian/g16/l1101.exe)
 Using compressed storage, NAtomX=    14.
 Will process     15 centers per pass.
 Leave Link 1101 at Sun Mar 10 20:27:16 2019, MaxMem=   671088640 cpu:              10.4 elap:               0.6
 (Enter /shared/centos7/gaussian/g16/l1102.exe)
 Symmetrizing basis deriv contribution to polar:
 IMax=3 JMax=2 DiffMx= 0.00D+00
 Leave Link 1102 at Sun Mar 10 20:27:17 2019, MaxMem=   671088640 cpu:               0.7 elap:               0.1
 (Enter /shared/centos7/gaussian/g16/l1110.exe)
 Forming Gx(P) for the SCF density, NAtomX=    14.
 Integral derivatives from FoFJK, PRISM(SPDF).
 Do as many integral derivatives as possible in FoFJK.
 G2DrvN: MDV=     671087496.
 G2DrvN: will do    15 centers at a time, making    1 passes.
 Calling FoFCou, ICntrl=  3107 FMM=F I1Cent=   0 AccDes= 0.00D+00.
 FoFJK:  IHMeth= 1 ICntrl=    3107 DoSepK=F KAlg= 0 I1Cent=           0 FoldK=F
 IRaf=         0 NMat=       1 IRICut=       1 DoRegI=T DoRafI=F ISym2E= 0 IDoP0=0 IntGTp=1.
 FoFCou: FMM=F IPFlag=           0 FMFlag=      100000 FMFlg1=           0
         NFxFlg=           0 DoJE=F BraDBF=F KetDBF=F FulRan=T
         wScrn=  0.000000 ICntrl=      3107 IOpCl=  0 I1Cent=           0 NGrid=           0
         NMat0=    1 NMatS0=      1 NMatT0=    0 NMatD0=    1 NMtDS0=    0 NMtDT0=    0
 Symmetry not used in FoFCou.
 End of G2Drv F.D. properties file   721 does not exist.
 End of G2Drv F.D. properties file   722 does not exist.
 End of G2Drv F.D. properties file   788 does not exist.
 Leave Link 1110 at Sun Mar 10 20:28:48 2019, MaxMem=   671088640 cpu:            1838.4 elap:              92.0
 (Enter /shared/centos7/gaussian/g16/l1002.exe)
 Minotr:  Closed shell wavefunction.
          IDoAtm=11111111111111
          Direct CPHF calculation.
          Differentiating once with respect to nuclear coordinates.
          Requested convergence is 1.0D-08 RMS, and 1.0D-07 maximum.
          Secondary convergence is 1.0D-12 RMS, and 1.0D-12 maximum.
          NewPWx=T KeepS1=F KeepF1=F KeepIn=T MapXYZ=F SortEE=F KeepMc=T.
         4271 words used for storage of precomputed grid.
 Two-electron integrals replicated using symmetry.
          MDV=     671088640 using IRadAn=       1.
          Solving linear equations simultaneously, MaxMat=     380.
 FoF2E skips out because all densities are zero.
 CalDSu exits because no D1Ps are significant.
 FoFJK:  IHMeth= 1 ICntrl=       0 DoSepK=F KAlg= 0 I1Cent=           0 FoldK=F
 IRaf= 950000000 NMat=      42 IRICut=     105 DoRegI=T DoRafI=T ISym2E= 2 IDoP0=3 IntGTp=3.
 FoFCou: FMM=F IPFlag=           0 FMFlag=      100000 FMFlg1=           0
         NFxFlg=           0 DoJE=F BraDBF=F KetDBF=F FulRan=T
         wScrn=  0.000000 ICntrl=         0 IOpCl=  0 I1Cent=           0 NGrid=           0
         NMat0=   42 NMatS0=     42 NMatT0=    0 NMatD0=   42 NMtDS0=    0 NMtDT0=    0
 Integrals replicated using symmetry in FoFCou.
 Raff kept on since  93.28% of shell-pairs survive, threshold=   0.20 IRatSp=93.
          There are    45 degrees of freedom in the 1st order CPHF.  IDoFFX=6 NUNeed=     0.
     39 vectors produced by pass  0 Test12= 1.34D-14 2.22D-09 XBig12= 7.04D-02 6.11D-02.
 AX will form    39 AO Fock derivatives at one time.
     39 vectors produced by pass  1 Test12= 1.34D-14 2.22D-09 XBig12= 8.02D-03 2.67D-02.
     39 vectors produced by pass  2 Test12= 1.34D-14 2.22D-09 XBig12= 2.92D-04 2.50D-03.
     39 vectors produced by pass  3 Test12= 1.34D-14 2.22D-09 XBig12= 3.26D-06 2.51D-04.
     39 vectors produced by pass  4 Test12= 1.34D-14 2.22D-09 XBig12= 2.79D-08 2.01D-05.
     39 vectors produced by pass  5 Test12= 1.34D-14 2.22D-09 XBig12= 1.56D-10 1.26D-06.
     22 vectors produced by pass  6 Test12= 1.34D-14 2.22D-09 XBig12= 6.17D-13 7.72D-08.
      3 vectors produced by pass  7 Test12= 1.34D-14 2.22D-09 XBig12= 2.46D-15 3.93D-09.
 InvSVY:  IOpt=1 It=  1 EMax= 1.55D-15
 Solved reduced A of dimension   259 with    39 vectors.
 End of Minotr F.D. properties file   721 does not exist.
 End of Minotr F.D. properties file   722 does not exist.
 End of Minotr F.D. properties file   788 does not exist.
 Leave Link 1002 at Sun Mar 10 20:30:58 2019, MaxMem=   671088640 cpu:            2589.5 elap:             129.5
 (Enter /shared/centos7/gaussian/g16/l601.exe)
 Copying SCF densities to generalized density rwf, IOpCl= 0 IROHF=0.

 **********************************************************************

            Population analysis using the SCF density.

 **********************************************************************

 Orbital symmetries:
       Occupied  (A) (A) (A) (A) (A) (A) (A) (A) (A) (A) (A) (A)
                 (A) (A) (A) (A) (A) (A) (A) (A) (A) (A) (A) (A)
       Virtual   (A) (A) (A) (A) (A) (A) (A) (A) (A) (A) (A) (A)
                 (A) (A) (A) (A) (A) (A) (A) (A) (A) (A) (A) (A)
                 (A) (A) (A) (A) (A) (A) (A) (A) (A) (A) (A) (A)
                 (A) (A) (A) (A) (A) (A) (A) (A) (A) (A) (A) (A)
                 (A) (A) (A) (A) (A) (A) (A) (A) (A) (A) (A) (A)
                 (A) (A) (A) (A) (A) (A) (A) (A) (A) (A) (A) (A)
                 (A) (A) (A) (A) (A) (A) (A) (A) (A) (A) (A) (A)
                 (A) (A) (A) (A) (A) (A) (A) (A) (A) (A) (A) (A)
                 (A) (A) (A) (A) (A) (A) (A) (A) (A) (A) (A) (A)
                 (A) (A) (A) (A) (A) (A) (A) (A) (A) (A) (A) (A)
                 (A) (A) (A) (A) (A) (A) (A) (A) (A) (A) (A) (A)
                 (A) (A) (A) (A) (A) (A) (A) (A) (A) (A) (A) (A)
                 (A) (A) (A) (A) (A) (A) (A) (A) (A) (A) (A) (A)
                 (A) (A) (A) (A) (A) (A) (A) (A) (A) (A) (A) (A)
                 (A) (A) (A) (A) (A) (A) (A) (A) (A) (A) (A) (A)
                 (A) (A) (A) (A) (A) (A) (A) (A) (A) (A) (A) (A)
                 (A) (A) (A) (A) (A) (A) (A) (A) (A) (A) (A) (A)
                 (A) (A) (A) (A) (A) (A) (A) (A) (A) (A) (A) (A)
                 (A) (A) (A) (A) (A) (A) (A) (A) (A) (A) (A) (A)
                 (A) (A) (A) (A) (A) (A) (A) (A) (A) (A) (A) (A)
                 (A) (A) (A) (A) (A) (A) (A) (A) (A) (A) (A) (A)
 The electronic state is 1-A.
 Alpha  occ. eigenvalues --  -19.66567 -19.62577 -10.68121 -10.59509 -10.56408
 Alpha  occ. eigenvalues --  -10.54548  -1.21036  -1.12995  -0.89677  -0.79328
 Alpha  occ. eigenvalues --   -0.73456  -0.63891  -0.57939  -0.56210  -0.55321
 Alpha  occ. eigenvalues --   -0.51888  -0.48606  -0.47788  -0.45135  -0.43541
 Alpha  occ. eigenvalues --   -0.42684  -0.40965  -0.37430  -0.35745
 Alpha virt. eigenvalues --    0.00887   0.02194   0.03351   0.03648   0.04243
 Alpha virt. eigenvalues --    0.04727   0.05987   0.06431   0.08187   0.08402
 Alpha virt. eigenvalues --    0.09360   0.09976   0.10559   0.12549   0.13051
 Alpha virt. eigenvalues --    0.14581   0.16011   0.18224   0.18869   0.19309
 Alpha virt. eigenvalues --    0.20576   0.20920   0.21626   0.24250   0.24345
 Alpha virt. eigenvalues --    0.25107   0.26294   0.27293   0.28173   0.28437
 Alpha virt. eigenvalues --    0.30344   0.32354   0.33460   0.33887   0.35291
 Alpha virt. eigenvalues --    0.37771   0.37966   0.42213   0.43728   0.45455
 Alpha virt. eigenvalues --    0.46954   0.48678   0.49812   0.51984   0.52997
 Alpha virt. eigenvalues --    0.54293   0.54756   0.56646   0.57697   0.58027
 Alpha virt. eigenvalues --    0.58614   0.59469   0.61447   0.63273   0.63816
 Alpha virt. eigenvalues --    0.65157   0.67359   0.67927   0.68762   0.74231
 Alpha virt. eigenvalues --    0.77115   0.78462   0.79421   0.81789   0.83195
 Alpha virt. eigenvalues --    0.87559   0.87821   0.89532   0.92774   0.93749
 Alpha virt. eigenvalues --    0.97161   0.98474   1.01957   1.04256   1.06192
 Alpha virt. eigenvalues --    1.08365   1.08601   1.11646   1.12508   1.13483
 Alpha virt. eigenvalues --    1.15041   1.15451   1.17747   1.19358   1.20229
 Alpha virt. eigenvalues --    1.21417   1.23010   1.23903   1.27840   1.28993
 Alpha virt. eigenvalues --    1.29714   1.30846   1.33281   1.34093   1.35300
 Alpha virt. eigenvalues --    1.37487   1.40011   1.40792   1.42274   1.43247
 Alpha virt. eigenvalues --    1.43620   1.45135   1.46428   1.48069   1.50490
 Alpha virt. eigenvalues --    1.51389   1.55126   1.57602   1.59514   1.62654
 Alpha virt. eigenvalues --    1.67930   1.68913   1.70158   1.75530   1.79263
 Alpha virt. eigenvalues --    1.83975   1.92225   2.04430   2.09361   2.16530
 Alpha virt. eigenvalues --    2.25163   2.29512   2.41912   2.44377   2.47551
 Alpha virt. eigenvalues --    2.49961   2.53176   2.58410   2.60040   2.64501
 Alpha virt. eigenvalues --    2.68621   2.75598   2.79502   2.81319   2.83464
 Alpha virt. eigenvalues --    2.83999   2.85675   2.95096   2.95925   2.97293
 Alpha virt. eigenvalues --    2.99403   3.01921   3.03529   3.06046   3.07125
 Alpha virt. eigenvalues --    3.09427   3.11130   3.13300   3.13673   3.18268
 Alpha virt. eigenvalues --    3.19941   3.23867   3.24396   3.26711   3.28433
 Alpha virt. eigenvalues --    3.30969   3.33344   3.34416   3.37257   3.39567
 Alpha virt. eigenvalues --    3.41231   3.42970   3.47697   3.50317   3.52257
 Alpha virt. eigenvalues --    3.52905   3.54825   3.57121   3.60833   3.61615
 Alpha virt. eigenvalues --    3.64722   3.66082   3.72916   3.74905   3.76423
 Alpha virt. eigenvalues --    3.79112   3.79963   3.80846   3.81930   3.83866
 Alpha virt. eigenvalues --    3.93502   3.95445   3.96032   3.97587   4.00011
 Alpha virt. eigenvalues --    4.03775   4.06403   4.08200   4.11600   4.16011
 Alpha virt. eigenvalues --    4.17389   4.20034   4.22384   4.25204   4.26057
 Alpha virt. eigenvalues --    4.27365   4.27900   4.31369   4.34634   4.38256
 Alpha virt. eigenvalues --    4.41114   4.44644   4.49011   4.52403   4.55438
 Alpha virt. eigenvalues --    4.58023   4.66671   4.87918   4.89849   5.07618
 Alpha virt. eigenvalues --    5.09669   5.16374   5.17122   5.19523   5.20961
 Alpha virt. eigenvalues --    5.24976   5.34900   5.35996   5.38175   5.41513
 Alpha virt. eigenvalues --    5.45020   5.45461   5.46908   5.50768   5.51242
 Alpha virt. eigenvalues --    5.55061   5.62079   5.66408   5.73252   5.78107
 Alpha virt. eigenvalues --    5.93257   6.29934   6.33528   6.46590   6.82868
 Alpha virt. eigenvalues --    6.84456   6.94130   7.04502   7.10638   7.16285
 Alpha virt. eigenvalues --    7.19914   7.28015   7.49247   7.61660   7.71723
 Alpha virt. eigenvalues --    7.77498  24.20954  24.23474  24.38387  24.67682
 Alpha virt. eigenvalues --   50.13919  50.27885
          Condensed to atoms (all electrons):
               1          2          3          4          5          6
     1  O    8.191937  -0.081713  -0.112892  -0.008989   0.136821   0.202868
     2  O   -0.081713   8.151861  -0.020773  -0.017284  -0.050461   0.388621
     3  C   -0.112892  -0.020773   6.061287   0.018515  -0.114368  -0.311498
     4  C   -0.008989  -0.017284   0.018515   5.265692  -0.002800  -0.012784
     5  C    0.136821  -0.050461  -0.114368  -0.002800   5.003667  -0.064249
     6  C    0.202868   0.388621  -0.311498  -0.012784  -0.064249   5.599051
     7  H    0.005675  -0.003227   0.472958  -0.017652  -0.001934  -0.085088
     8  H   -0.004620   0.001759   0.427888  -0.057295   0.001841  -0.034054
     9  H   -0.001241   0.000971  -0.012721   0.405171   0.000031  -0.019570
    10  H   -0.000102  -0.000720  -0.072509   0.408315   0.000273   0.045525
    11  H   -0.002537   0.000659  -0.009049   0.415683  -0.000609  -0.028006
    12  H   -0.032034  -0.007236   0.002396  -0.000490   0.421967   0.001566
    13  H   -0.049887   0.004006   0.003404   0.001070   0.416116   0.010486
    14  H   -0.033514  -0.007092  -0.000496  -0.000579   0.424125   0.002291
               7          8          9         10         11         12
     1  O    0.005675  -0.004620  -0.001241  -0.000102  -0.002537  -0.032034
     2  O   -0.003227   0.001759   0.000971  -0.000720   0.000659  -0.007236
     3  C    0.472958   0.427888  -0.012721  -0.072509  -0.009049   0.002396
     4  C   -0.017652  -0.057295   0.405171   0.408315   0.415683  -0.000490
     5  C   -0.001934   0.001841   0.000031   0.000273  -0.000609   0.421967
     6  C   -0.085088  -0.034054  -0.019570   0.045525  -0.028006   0.001566
     7  H    0.498276  -0.027914  -0.009702  -0.002762   0.004689   0.000031
     8  H   -0.027914   0.531506   0.005861  -0.007053  -0.003349  -0.000061
     9  H   -0.009702   0.005861   0.544922  -0.024306  -0.029484   0.000002
    10  H   -0.002762  -0.007053  -0.024306   0.548089  -0.025877  -0.000000
    11  H    0.004689  -0.003349  -0.029484  -0.025877   0.524141   0.000175
    12  H    0.000031  -0.000061   0.000002  -0.000000   0.000175   0.535832
    13  H    0.000014   0.000015  -0.000004  -0.000000   0.000000  -0.025332
    14  H   -0.000033   0.000075   0.000005   0.000002  -0.000084  -0.034385
              13         14
     1  O   -0.049887  -0.033514
     2  O    0.004006  -0.007092
     3  C    0.003404  -0.000496
     4  C    0.001070  -0.000579
     5  C    0.416116   0.424125
     6  C    0.010486   0.002291
     7  H    0.000014  -0.000033
     8  H    0.000015   0.000075
     9  H   -0.000004   0.000005
    10  H   -0.000000   0.000002
    11  H    0.000000  -0.000084
    12  H   -0.025332  -0.034385
    13  H    0.533530  -0.025441
    14  H   -0.025441   0.538197
 Mulliken charges:
               1
     1  O   -0.209771
     2  O   -0.359370
     3  C   -0.332143
     4  C   -0.396572
     5  C   -0.170418
     6  C    0.304841
     7  H    0.166670
     8  H    0.165401
     9  H    0.140066
    10  H    0.131126
    11  H    0.153649
    12  H    0.137569
    13  H    0.132024
    14  H    0.136929
 Sum of Mulliken charges =  -0.00000
 Mulliken charges with hydrogens summed into heavy atoms:
               1
     1  O   -0.209771
     2  O   -0.359370
     3  C   -0.000072
     4  C    0.028270
     5  C    0.236103
     6  C    0.304841
 APT charges:
               1
     1  O   -0.122228
     2  O   -0.302534
     3  C   -0.872779
     4  C   -1.175423
     5  C   -1.225510
     6  C    0.339228
     7  H    0.482744
     8  H    0.400796
     9  H    0.349104
    10  H    0.574349
    11  H    0.247825
    12  H    0.353727
    13  H    0.556334
    14  H    0.394367
 Sum of APT charges =  -0.00000
 APT charges with hydrogens summed into heavy atoms:
               1
     1  O   -0.122228
     2  O   -0.302534
     3  C    0.010761
     4  C   -0.004145
     5  C    0.078919
     6  C    0.339228
 Electronic spatial extent (au):  <R**2>=            669.5396
 Charge=             -0.0000 electrons
 Dipole moment (field-independent basis, Debye):
    X=              0.8257    Y=             -1.3013    Z=             -0.3779  Tot=              1.5868
 Quadrupole moment (field-independent basis, Debye-Ang):
   XX=            -31.4337   YY=            -41.9694   ZZ=            -36.5486
   XY=              3.0629   XZ=             -0.4336   YZ=             -1.4518
 Traceless Quadrupole moment (field-independent basis, Debye-Ang):
   XX=              5.2169   YY=             -5.3189   ZZ=              0.1020
   XY=              3.0629   XZ=             -0.4336   YZ=             -1.4518
 Octapole moment (field-independent basis, Debye-Ang**2):
  XXX=            -10.9497  YYY=             -5.7297  ZZZ=              0.0108  XYY=              0.4037
  XXY=             -2.8830  XXZ=             -1.6247  XZZ=             -1.1264  YZZ=              1.4798
  YYZ=             -1.4881  XYZ=              1.3029
 Hexadecapole moment (field-independent basis, Debye-Ang**3):
 XXXX=           -576.1430 YYYY=           -218.3514 ZZZZ=            -71.3866 XXXY=             10.0397
 XXXZ=             -3.4803 YYYX=             11.3018 YYYZ=              0.4963 ZZZX=             -2.6169
 ZZZY=              1.0459 XXYY=           -131.8155 XXZZ=           -110.7776 YYZZ=            -50.2239
 XXYZ=              0.8847 YYXZ=              1.6209 ZZXY=             -0.5342
 N-N= 2.431480838480D+02 E-N=-1.205602204364D+03  KE= 3.059633508509D+02
  Exact polarizability:   0.000   0.000   0.000   0.000   0.000   0.000
 Approx polarizability:  67.453  -0.875  71.850  -2.116   3.410  59.292
 No NMR shielding tensors so no spin-rotation constants.
 Leave Link  601 at Sun Mar 10 20:30:58 2019, MaxMem=   671088640 cpu:               6.9 elap:               0.4
 (Enter /shared/centos7/gaussian/g16/l701.exe)
 SCFChk:  SCF convergence  2.41D-09 required  1.00D-08
 ... and contract with generalized density number  0.
 Compute integral second derivatives.
 Entering OneElI...
 Calculate overlap and kinetic energy integrals
    NBasis = 306  MinDer = 2  MaxDer = 2
 Requested accuracy = 0.1000D-12
 PrmmSu-InSpLW:  IPartL=    0 NPrtUS=   20 NPrtUL=    1 DoSpLW=F IThBeg=    0 IThEnd=   19 NThAct=   20.
 PrsmSu:  NPrtUS=  20 ThrOK=T IAlg=1 NPAlg=1 LenDen=           0 ISkipM=0 DoSpLW=F IThBeg=    0 IThEnd=   19.
 Prism:   IPart=     0 DynPar=F LinDyn=F Incr=           1.
 PRISM was handed    33446262 working-precision words and  3899 shell-pairs
 PRISM was handed    33446262 working-precision words and  3899 shell-pairs
 PRISM was handed    33446262 working-precision words and  3899 shell-pairs
 PRISM was handed    33446262 working-precision words and  3899 shell-pairs
 PRISM was handed    33446262 working-precision words and  3899 shell-pairs
 PRISM was handed    33446262 working-precision words and  3899 shell-pairs
 PRISM was handed    33446262 working-precision words and  3899 shell-pairs
 PRISM was handed    33446262 working-precision words and  3899 shell-pairs
 PRISM was handed    33446262 working-precision words and  3899 shell-pairs
 PRISM was handed    33446262 working-precision words and  3899 shell-pairs
 PRISM was handed    33446262 working-precision words and  3899 shell-pairs
 PRISM was handed    33446262 working-precision words and  3899 shell-pairs
 PRISM was handed    33446262 working-precision words and  3899 shell-pairs
 PRISM was handed    33446262 working-precision words and  3899 shell-pairs
 PRISM was handed    33446262 working-precision words and  3899 shell-pairs
 PRISM was handed    33446262 working-precision words and  3899 shell-pairs
 PRISM was handed    33446262 working-precision words and  3899 shell-pairs
 PRISM was handed    33446262 working-precision words and  3899 shell-pairs
 PRISM was handed    33446262 working-precision words and  3899 shell-pairs
 PRISM was handed    33446262 working-precision words and  3899 shell-pairs
 IPart= 19 NShTot=         171 NBatch=          30 AvBLen=         5.7
 IPart= 12 NShTot=         184 NBatch=          32 AvBLen=         5.8
 IPart= 16 NShTot=         175 NBatch=          31 AvBLen=         5.6
 IPart= 10 NShTot=         192 NBatch=          33 AvBLen=         5.8
 IPart=  0 NShTot=         229 NBatch=          60 AvBLen=         3.8
 IPart= 14 NShTot=         182 NBatch=          32 AvBLen=         5.7
 IPart=  7 NShTot=         198 NBatch=          37 AvBLen=         5.4
 IPart=  4 NShTot=         214 NBatch=          48 AvBLen=         4.5
 IPart=  8 NShTot=         196 NBatch=          36 AvBLen=         5.4
 IPart=  9 NShTot=         195 NBatch=          35 AvBLen=         5.6
 IPart= 18 NShTot=         172 NBatch=          30 AvBLen=         5.7
 IPart=  5 NShTot=         208 NBatch=          44 AvBLen=         4.7
 IPart=  1 NShTot=         222 NBatch=          54 AvBLen=         4.1
 IPart= 17 NShTot=         174 NBatch=          31 AvBLen=         5.6
 IPart=  2 NShTot=         219 NBatch=          53 AvBLen=         4.1
 IPart=  6 NShTot=         203 NBatch=          40 AvBLen=         5.1
 IPart=  3 NShTot=         217 NBatch=          51 AvBLen=         4.3
 IPart= 15 NShTot=         179 NBatch=          31 AvBLen=         5.8
 IPart= 11 NShTot=         187 NBatch=          32 AvBLen=         5.8
 IPart= 13 NShTot=         182 NBatch=          32 AvBLen=         5.7
 PrSmSu:  NxtVal=             21.
 Entering OneElI...
 Calculate potential energy integrals
    NBasis = 306  MinDer = 2  MaxDer = 2
 Requested accuracy = 0.1000D-12
 PrmmSu-InSpLW:  IPartL=    0 NPrtUS=   20 NPrtUL=    1 DoSpLW=F IThBeg=    0 IThEnd=   19 NThAct=   20.
 PrsmSu:  NPrtUS=  20 ThrOK=T IAlg=1 NPAlg=1 LenDen=           0 ISkipM=0 DoSpLW=F IThBeg=    0 IThEnd=   19.
 Prism:   IPart=     0 DynPar=F LinDyn=F Incr=          25.
 PRISM was handed    33461921 working-precision words and  3627 shell-pairs
 PRISM was handed    33461921 working-precision words and  3627 shell-pairs
 PRISM was handed    33461921 working-precision words and  3627 shell-pairs
 PRISM was handed    33461921 working-precision words and  3627 shell-pairs
 PRISM was handed    33461921 working-precision words and  3627 shell-pairs
 PRISM was handed    33461921 working-precision words and  3627 shell-pairs
 PRISM was handed    33461921 working-precision words and  3627 shell-pairs
 PRISM was handed    33461921 working-precision words and  3627 shell-pairs
 PRISM was handed    33461921 working-precision words and  3627 shell-pairs
 PRISM was handed    33461921 working-precision words and  3627 shell-pairs
 PRISM was handed    33461921 working-precision words and  3627 shell-pairs
 PRISM was handed    33461921 working-precision words and  3627 shell-pairs
 PRISM was handed    33461921 working-precision words and  3627 shell-pairs
 PRISM was handed    33461921 working-precision words and  3627 shell-pairs
 PRISM was handed    33461921 working-precision words and  3627 shell-pairs
 PRISM was handed    33461921 working-precision words and  3627 shell-pairs
 PRISM was handed    33461921 working-precision words and  3627 shell-pairs
 PRISM was handed    33461921 working-precision words and  3627 shell-pairs
 PRISM was handed    33461921 working-precision words and  3627 shell-pairs
 PRISM was handed    33461921 working-precision words and  3627 shell-pairs
 IPart= 19 NShTot=        2268 NBatch=         162 AvBLen=        14.0
 IPart= 12 NShTot=        2366 NBatch=         169 AvBLen=        14.0
 IPart= 10 NShTot=        2422 NBatch=         173 AvBLen=        14.0
 IPart=  0 NShTot=        3052 NBatch=         218 AvBLen=        14.0
 IPart=  9 NShTot=        2478 NBatch=         177 AvBLen=        14.0
 IPart=  4 NShTot=        2786 NBatch=         199 AvBLen=        14.0
 IPart=  1 NShTot=        2982 NBatch=         213 AvBLen=        14.0
 IPart= 17 NShTot=        2282 NBatch=         163 AvBLen=        14.0
 IPart=  5 NShTot=        2744 NBatch=         196 AvBLen=        14.0
 IPart= 18 NShTot=        2282 NBatch=         163 AvBLen=        14.0
 IPart= 16 NShTot=        2282 NBatch=         163 AvBLen=        14.0
 IPart=  8 NShTot=        2534 NBatch=         181 AvBLen=        14.0
 IPart=  6 NShTot=        2646 NBatch=         189 AvBLen=        14.0
 IPart=  7 NShTot=        2590 NBatch=         185 AvBLen=        14.0
 IPart= 15 NShTot=        2324 NBatch=         166 AvBLen=        14.0
 IPart= 14 NShTot=        2324 NBatch=         166 AvBLen=        14.0
 IPart= 11 NShTot=        2394 NBatch=         171 AvBLen=        14.0
 IPart=  2 NShTot=        2870 NBatch=         205 AvBLen=        14.0
 IPart= 13 NShTot=        2338 NBatch=         167 AvBLen=        14.0
 IPart=  3 NShTot=        2814 NBatch=         201 AvBLen=        14.0
 PrSmSu:  NxtVal=            501.
 Polarizability after L701:
                1             2             3 
      1  0.000000D+00
      2  0.000000D+00  0.000000D+00
      3  0.000000D+00  0.000000D+00  0.000000D+00
 Dipole Derivatives after L701:
                 1             2             3             4             5 
      1   0.190825D+00 -0.368474D-01 -0.783767D-01 -0.270924D+00 -0.265653D-01
      2   0.639558D-01 -0.258693D+00  0.260369D-01 -0.196137D+00 -0.115672D+00
      3  -0.128149D-01  0.480208D-01 -0.298816D+00 -0.395683D-01  0.510145D-01
                 6             7             8             9            10 
      1  -0.425411D-01 -0.824819D+00 -0.993061D+00  0.683983D+00 -0.157064D+01
      2   0.125647D+00 -0.389796D+00 -0.684543D+00 -0.642221D-01 -0.324583D-02
      3  -0.521006D+00  0.725368D-02 -0.291850D-01 -0.110898D+01  0.108912D+00
                11            12            13            14            15 
      1   0.904035D+00 -0.642471D+00 -0.197062D+01 -0.451459D-01  0.185808D+00
      2  -0.105298D+01  0.704340D-01 -0.453604D+00 -0.819340D+00  0.101167D+00
      3  -0.244161D-01 -0.902655D+00 -0.552082D-01  0.235905D-01 -0.886570D+00
                16            17            18            19            20 
      1   0.360014D+00  0.187314D+00  0.126459D+00  0.601996D+00  0.734324D+00
      2   0.250435D+00 -0.310144D-01 -0.216516D+00  0.317909D+00  0.691758D+00
      3   0.763735D-01 -0.172728D+00  0.688683D+00 -0.169576D-01 -0.402090D-01
                21            22            23            24            25 
      1   0.201556D+00  0.280151D+00 -0.888910D-01 -0.637456D+00  0.205056D+00
      2   0.150109D+00  0.135355D-01  0.147217D+00 -0.111015D+00 -0.235272D-01
      3   0.154478D+00 -0.101026D+00  0.895465D-01  0.775020D+00  0.585053D-01
                26            27            28            29            30 
      1   0.188762D+00  0.937066D+00  0.140202D+01 -0.175184D+00 -0.554923D+00
      2   0.109796D+00 -0.189152D+00 -0.326162D+00  0.164510D+00  0.125789D+00
      3   0.136784D+00  0.732461D+00 -0.625916D-01 -0.847737D-02  0.156519D+00
                31            32            33            34            35 
      1  -0.172705D+00 -0.591513D+00 -0.288664D-01  0.339042D+00 -0.282727D+00
      2   0.377383D+00  0.784950D+00  0.571573D-01  0.275545D-01  0.840845D-01
      3  -0.326189D-01 -0.689443D-01  0.131229D+00 -0.509801D-01  0.137796D+00
                36            37            38            39            40 
      1  -0.974609D+00  0.744315D+00  0.104824D+01  0.177258D+00  0.686286D+00
      2  -0.148744D+00  0.355174D+00  0.797768D+00  0.127116D+00 -0.134751D-01
      3   0.638056D+00  0.190238D-01  0.619232D-01  0.126919D+00  0.101697D+00
                41            42 
      1  -0.822738D+00  0.647115D+00
      2   0.182156D+00 -0.538072D-01
      3  -0.204716D+00  0.314659D+00
 Hessian after L701:
                1             2             3             4             5 
      1  0.412965D+01
      2 -0.443355D+01  0.611266D+01
      3  0.575653D+00 -0.115675D+01  0.143203D+02
      4 -0.196756D+00  0.422164D+00  0.144268D+00  0.108785D+02
      5  0.518884D+00  0.805059D+00  0.261141D-01  0.653725D+01  0.330576D+01
      6  0.160990D+00  0.425581D-01  0.137211D-01  0.269854D+01 -0.442056D+01
      7  0.472931D+00  0.216524D+00  0.183490D+00  0.912333D+00 -0.330790D+00
      8  0.144491D+00  0.413765D-01  0.518820D-01 -0.318260D+00 -0.250152D+00
      9  0.170430D+00  0.797275D-01 -0.375870D-01 -0.306037D+00  0.685367D-01
     10  0.470768D+00 -0.494086D-02  0.498690D-01  0.135580D+00 -0.244941D+00
     11  0.113087D+00 -0.281731D+00  0.506548D-02 -0.208161D+00  0.306964D-01
     12  0.455859D-01 -0.357780D-01 -0.291119D+00  0.232699D-01 -0.220153D-01
     13  0.472854D+00 -0.495436D+00 -0.141709D+01 -0.800912D-01  0.357473D+00
     14 -0.472629D+00 -0.610706D+01  0.130783D+00  0.462934D+00  0.387545D+00
     15 -0.139891D+01  0.139777D+00 -0.592849D+01  0.529500D-01  0.952018D-01
     16 -0.541565D+01  0.417594D+01  0.279490D+00 -0.119103D+02 -0.695278D+01
     17  0.413499D+01 -0.831970D+00  0.104777D+01 -0.697112D+01 -0.432199D+01
     18  0.297960D+00  0.104430D+01 -0.850854D+01 -0.255550D+01  0.422343D+01
     19  0.806676D-01  0.113814D+00  0.120737D-01  0.115800D+00 -0.370870D-01
     20  0.128435D+00  0.616690D-01  0.992525D-02  0.638085D-01 -0.605898D-01
     21  0.139217D-01  0.111056D-01 -0.433631D-01  0.961358D-02  0.212930D-02
     22  0.108452D-01  0.652406D-02 -0.589972D-01  0.630180D-02 -0.335465D-01
     23  0.947788D-03 -0.320831D-01 -0.168598D-01 -0.283751D-01 -0.209718D-01
     24 -0.975334D-01 -0.403104D-01  0.452292D-01 -0.101115D+00  0.698478D-01
     25  0.247954D-01  0.423832D-02  0.296338D-01  0.299670D-01 -0.409221D-01
     26  0.125411D-01 -0.198061D-01  0.824611D-02 -0.257236D-01 -0.408360D-02
     27  0.640458D-01  0.769356D-02  0.152939D-01  0.529998D-01 -0.412999D-01
     28  0.705898D-01  0.485472D-02 -0.163970D-03  0.326948D-01 -0.276117D-01
     29 -0.346016D-02 -0.175396D-01 -0.894021D-03 -0.126502D-01 -0.140675D-02
     30 -0.123061D-01 -0.106835D-02 -0.171855D-01 -0.139892D-01  0.841373D-02
     31  0.351542D-01 -0.525583D-01  0.435764D-01 -0.923293D-02 -0.163160D-01
     32 -0.140062D+00 -0.599490D-02 -0.383489D-01 -0.570202D-01  0.634859D-01
     33  0.387285D-01 -0.164324D-01 -0.485602D-01 -0.324503D-02  0.494538D-02
     34 -0.105142D+00  0.684568D-01 -0.434226D-01  0.214961D-01  0.774517D-01
     35  0.217263D-01  0.123910D-01  0.359699D-01  0.518157D-01  0.244920D-02
     36 -0.865940D-01  0.241492D-01  0.315882D+00 -0.596603D-01 -0.850292D-01
     37 -0.659161D-01  0.540743D-02  0.308113D-01  0.129983D-01  0.900341D-01
     38  0.699018D-01  0.148018D+00  0.186845D-01  0.612614D-01  0.103862D+00
     39  0.467932D-01  0.299953D-01  0.448447D-01  0.700544D-02  0.178173D-01
     40  0.152134D-01 -0.314388D-01  0.170809D+00  0.507026D-01  0.102896D+00
     41 -0.952949D-01  0.115012D+00 -0.121588D+00  0.220739D-01 -0.396608D-01
     42  0.181235D+00 -0.128972D+00  0.119529D+00  0.508949D-01  0.524699D-01
                6             7             8             9            10 
      6  0.169239D+02
      7 -0.386966D+00  0.101476D+02
      8  0.109359D+00  0.475352D+00  0.147917D+02
      9 -0.164465D+00  0.354187D+00  0.475268D+00  0.152071D+02
     10  0.982581D-01 -0.411750D+01 -0.166022D+01  0.102967D+01  0.110137D+02
     11 -0.689660D-01 -0.164426D+01 -0.285682D+01 -0.141391D+01  0.959104D+00
     12 -0.152494D+00  0.101677D+01 -0.141296D+01 -0.428456D+01 -0.551486D+00
     13  0.323018D-01  0.540566D-01 -0.389609D-01  0.981568D-02  0.100033D+00
     14  0.804357D-01  0.131128D-01  0.431750D-03 -0.310110D-02 -0.271477D-02
     15 -0.334316D+00 -0.106203D-01 -0.399821D-02 -0.190873D-04  0.109372D-01
     16 -0.254579D+01 -0.333678D+00 -0.553134D-01 -0.103452D+01  0.366589D+00
     17  0.422185D+01 -0.391969D-02 -0.602311D+01 -0.328775D-01 -0.963997D-01
     18 -0.161693D+02 -0.106897D+01 -0.243743D-01 -0.570806D+01 -0.475807D-01
     19 -0.169088D-01 -0.338632D+01  0.132623D+01  0.296236D+00  0.179621D-01
     20 -0.995723D-02  0.120772D+01 -0.179739D+01  0.525218D+00  0.284090D-01
     21 -0.504036D-01  0.240979D+00  0.480134D+00 -0.394065D+01  0.492715D-02
     22 -0.737585D-01 -0.386583D+01 -0.324716D-01 -0.451301D+00  0.766359D-01
     23  0.407162D-01 -0.212376D-01 -0.390161D+01  0.180745D+00  0.265803D-01
     24  0.662696D-01 -0.304025D+00  0.219356D+00 -0.112997D+01 -0.614067D-01
     25  0.177522D-01  0.342791D-01  0.140785D-01 -0.288738D-01 -0.360323D+01
     26 -0.913401D-02  0.514714D-02 -0.724232D-02  0.831566D-01  0.485995D-01
     27 -0.802635D-02  0.334883D-01  0.488637D-01  0.147806D-01  0.227383D+00
     28 -0.644104D-02 -0.495404D-01  0.758203D-01 -0.398055D-01 -0.127438D+01
     29  0.586326D-03  0.859201D-01  0.386131D-01  0.175867D-02 -0.359125D+00
     30 -0.706339D-02 -0.548016D-01  0.100900D-01  0.787927D-01 -0.820752D+00
     31 -0.170539D-02  0.307822D-01  0.517136D-01  0.133932D-02 -0.324480D+01
     32  0.648003D-02 -0.279140D-01 -0.149838D-01  0.403402D-01  0.130573D+01
     33 -0.202433D-01  0.184323D-01  0.503012D-01 -0.706261D-02  0.673748D-01
     34 -0.783859D-02  0.281505D-01  0.379836D-02 -0.143412D-01  0.210271D-01
     35 -0.345736D-02  0.468275D-02 -0.140395D-01 -0.373108D-02 -0.772531D-02
     36 -0.297318D-01 -0.429077D-01 -0.153375D-03 -0.703499D-02 -0.232128D-01
     37  0.122516D-01  0.278604D-01  0.175898D-01  0.378479D-02  0.281086D-01
     38  0.203721D-01  0.378432D-01  0.289082D-02  0.520415D-02  0.191472D-01
     39 -0.294921D-01  0.513823D-03 -0.361216D-04 -0.126172D-01  0.586052D-02
     40  0.193079D-01  0.448816D-01 -0.385128D-02  0.941489D-02  0.945715D-02
     41 -0.102815D-01 -0.181730D-01 -0.969662D-02 -0.633009D-02 -0.115087D-01
     42 -0.383847D-01  0.204239D-01 -0.373218D-02 -0.861502D-02  0.101570D-01
               11            12            13            14            15 
     11  0.118684D+02
     12  0.584711D+00  0.129064D+02
     13  0.216302D-01 -0.213642D-01  0.887106D+01
     14 -0.791574D-01 -0.197042D-02 -0.291070D+00  0.137096D+02
     15  0.316817D-02 -0.800724D-01  0.950205D+00 -0.106628D+00  0.142244D+02
     16 -0.103730D+00 -0.509554D-01  0.449269D+00  0.402361D+00  0.121972D-01
     17 -0.191882D+00  0.325680D-01  0.328978D+00  0.812369D-01 -0.330274D-01
     18  0.259222D-01 -0.177842D+00 -0.880843D-03 -0.418911D-01 -0.614514D-01
     19  0.608812D-01  0.698211D-02 -0.763137D-03  0.705556D-02  0.596588D-03
     20  0.217023D-01  0.297325D-01  0.513403D-02  0.408014D-02  0.158998D-02
     21  0.518706D-01  0.486899D-02  0.432109D-03  0.207031D-02 -0.512635D-02
     22  0.836264D-02 -0.456153D-01  0.212676D-01  0.104314D-01 -0.153982D-01
     23  0.545375D-01  0.866929D-01  0.681766D-02 -0.127883D-01 -0.187999D-02
     24  0.681829D-01  0.162900D-01 -0.216356D-01 -0.817371D-02 -0.183909D-02
     25  0.806257D-01  0.396360D+00  0.989904D-02  0.614421D-03  0.914450D-02
     26 -0.356395D+01  0.376511D+00  0.203975D-02 -0.807222D-02  0.200336D-02
     27  0.451369D+00 -0.102194D+01  0.110946D-01  0.385029D-03  0.140534D-02
     28 -0.330157D+00 -0.877311D+00  0.131348D-01 -0.206828D-02  0.629506D-03
     29 -0.342574D+01  0.158103D+00 -0.162568D-02 -0.550821D-02 -0.477445D-03
     30  0.136621D+00 -0.314959D+01 -0.174992D-02  0.282637D-03 -0.632645D-02
     31  0.102108D+01  0.716861D-01  0.123288D-01 -0.471003D-02 -0.400070D-03
     32 -0.155892D+01  0.203532D+00 -0.154297D-01 -0.438425D-02 -0.364985D-02
     33  0.158208D+00 -0.375606D+01 -0.940716D-03  0.380882D-03 -0.136969D-01
     34  0.337974D-02 -0.898292D-02 -0.378943D+01 -0.228445D+00 -0.715810D+00
     35 -0.114382D-01  0.326034D-02 -0.134259D+00 -0.372325D+01  0.664786D+00
     36 -0.794728D-02  0.284170D-02 -0.490454D+00  0.798964D+00 -0.117834D+01
     37  0.147329D-01 -0.272418D-02 -0.294638D+01  0.126266D+01  0.212384D+00
     38  0.392814D-02 -0.416773D-02  0.117111D+01 -0.170535D+01  0.334198D+00
     39  0.288041D-02 -0.956542D-02  0.189144D+00  0.321529D+00 -0.363424D+01
     40  0.343288D-02 -0.221491D-02 -0.318724D+01 -0.115753D+01  0.892093D+00
     41 -0.965293D-02  0.178121D-02 -0.916401D+00 -0.253734D+01 -0.109106D+01
     42  0.282978D-02 -0.720111D-02  0.761123D+00 -0.117307D+01 -0.298187D+01
               16            17            18            19            20 
     16  0.163298D+02
     17  0.258926D+01  0.112487D+02
     18  0.329461D+01 -0.519361D+01  0.306325D+02
     19  0.933775D-01 -0.837160D-01 -0.326774D-01  0.299359D+01
     20 -0.395540D-01  0.782727D-01 -0.949122D-02 -0.140739D+01  0.162539D+01
     21 -0.198487D-02  0.979172D-02  0.110504D+00 -0.219368D+00 -0.480649D+00
     22  0.222427D-01  0.361331D-01  0.106358D+00  0.719980D-01 -0.195768D-01
     23  0.131270D-01  0.336494D-01 -0.111490D-01 -0.206396D-01  0.698034D-02
     24  0.394100D-01 -0.361036D-01 -0.181506D-01 -0.319011D-01 -0.902243D-01
     25  0.140056D-01  0.181934D-02 -0.181177D-03  0.198416D-01  0.105021D-01
     26  0.253244D-02  0.429540D-02  0.431972D-02  0.507650D-02 -0.268996D-01
     27  0.264571D-01  0.161348D-02  0.150200D-01 -0.111946D-01  0.268367D-01
     28  0.205934D+00 -0.121817D+00 -0.583064D-03 -0.570504D-02 -0.113363D-01
     29 -0.117532D+00 -0.409181D-01  0.163134D-02  0.770246D-02 -0.273760D-03
     30 -0.153703D-01  0.623129D-02 -0.866313D-01  0.175534D-02  0.605975D-02
     31  0.225019D-01  0.251368D-01  0.249628D-02 -0.152896D-01  0.162973D-01
     32 -0.254346D-01 -0.134180D-01 -0.106745D-02  0.248700D-01  0.867469D-01
     33  0.447610D-02  0.239785D-02  0.156877D-01 -0.297305D-02 -0.620396D-02
     34  0.140489D-01  0.375110D-01 -0.364380D-01  0.475516D-02  0.501815D-02
     35  0.191473D-01 -0.203177D-01 -0.163826D-01  0.309899D-03 -0.155532D-02
     36 -0.887544D-01 -0.343506D-01  0.207541D-01 -0.766058D-02 -0.817302D-02
     37  0.654019D-01  0.951401D-01  0.480121D-02  0.417647D-02  0.617583D-02
     38  0.113180D+00  0.295285D-01  0.521687D-03  0.637244D-02  0.681345D-02
     39  0.945429D-02  0.278531D-02 -0.469130D-01  0.936440D-03  0.102637D-02
     40  0.765397D-01  0.280104D-01  0.365788D-01  0.590531D-02  0.635818D-02
     41 -0.212091D-01 -0.321028D-01 -0.215840D-02 -0.348420D-02 -0.495059D-02
     42  0.712755D-01  0.496746D-02 -0.175538D-01  0.410350D-02  0.430980D-02
               21            22            23            24            25 
     21  0.399595D+01
     22 -0.378313D-01  0.366719D+01
     23 -0.114572D+00  0.739140D-02  0.389108D+01
     24 -0.454050D-01  0.585405D+00 -0.163983D+00  0.978003D+00
     25 -0.855622D-02 -0.170269D-01 -0.415451D-02  0.274887D-01  0.339721D+01
     26  0.393911D-01 -0.698654D-03 -0.174733D-01 -0.195044D-01 -0.239229D-01
     27 -0.103834D-01  0.147180D-01 -0.209045D-01  0.935673D-01 -0.459168D+00
     28 -0.316166D-02 -0.101301D-01  0.174632D-01 -0.825908D-02  0.284387D-01
     29  0.102910D-02  0.159108D-01  0.198795D-02  0.113301D-01  0.214799D-01
     30  0.312853D-02 -0.218160D-01  0.148581D-01 -0.717322D-02  0.909144D-01
     31 -0.130004D-02  0.498203D-02  0.165324D-02 -0.711559D-02  0.529789D-01
     32 -0.234676D-02  0.818768D-03 -0.995901D-03 -0.978891D-02 -0.640600D-01
     33 -0.169061D-01  0.150952D-02  0.653764D-02  0.737718D-03 -0.747701D-01
     34 -0.341630D-03  0.149283D-02 -0.130819D-03 -0.451962D-02  0.319296D-02
     35 -0.338927D-03 -0.575711D-03 -0.884604D-03  0.157600D-02 -0.103128D-02
     36 -0.171336D-02 -0.437232D-02  0.359452D-03  0.882188D-02 -0.327451D-02
     37  0.110290D-02  0.365942D-02  0.100744D-02 -0.663196D-02  0.278307D-02
     38  0.132565D-02  0.426397D-02 -0.290319D-03 -0.745212D-02  0.281668D-02
     39 -0.582830D-03 -0.472719D-03 -0.197256D-03 -0.115049D-02  0.111730D-02
     40  0.156724D-02  0.637067D-02 -0.450480D-03 -0.816158D-02  0.286530D-02
     41 -0.940759D-03 -0.296680D-02 -0.114636D-02  0.524750D-02 -0.208413D-02
     42  0.839268D-04  0.157255D-02 -0.363507D-03 -0.522908D-02  0.241390D-02
               26            27            28            29            30 
     26  0.360941D+01
     27 -0.347054D+00  0.977152D+00
     28  0.101603D-01  0.637901D-01  0.103842D+01
     29  0.493912D-01 -0.297217D-01  0.454218D+00  0.337027D+01
     30 -0.217277D-01 -0.615409D-01  0.838491D+00 -0.172851D+00  0.319578D+01
     31 -0.384799D-01 -0.390849D-01 -0.651405D-01 -0.889234D-01  0.141589D-01
     32 -0.135597D-01 -0.973105D-01 -0.686502D-01  0.322750D-01  0.128216D-01
     33 -0.116154D+00 -0.128057D-01  0.353657D-01  0.291946D-01  0.582366D-01
     34  0.580022D-03  0.405250D-02  0.396857D-02 -0.572749D-03 -0.148031D-02
     35 -0.151045D-02 -0.174766D-02 -0.202864D-02 -0.395477D-03  0.728137D-03
     36 -0.113640D-02 -0.745326D-02 -0.747614D-02  0.103461D-02  0.198440D-02
     37  0.163717D-02  0.562939D-02  0.593432D-02 -0.239396D-03 -0.164264D-02
     38  0.851867D-03  0.600485D-02  0.614360D-02 -0.970329D-03 -0.179960D-02
     39  0.543747D-03  0.968351D-03  0.972156D-03 -0.716875D-04 -0.851202D-03
     40  0.511117D-03  0.578962D-02  0.577847D-02 -0.110220D-02 -0.141181D-02
     41 -0.134817D-02 -0.472809D-02 -0.499046D-02  0.217532D-03  0.134000D-02
     42  0.538807D-03  0.396703D-02  0.395280D-02 -0.651641D-03 -0.156355D-02
               31            32            33            34            35 
     31  0.317251D+01
     32 -0.913679D+00  0.143017D+01
     33 -0.822947D-01 -0.113769D+00  0.380337D+01
     34  0.328012D-02 -0.656933D-02 -0.164669D-02  0.363267D+01
     35 -0.151267D-02  0.165189D-02  0.833196D-03  0.571486D-01  0.369516D+01
     36 -0.113530D-02  0.881322D-02 -0.409515D-03  0.904369D+00 -0.661068D+00
     37  0.113553D-02 -0.626138D-02 -0.561875D-04  0.636015D-01 -0.259266D-01
     38 -0.144840D-03 -0.718278D-02 -0.133459D-03 -0.217672D-01 -0.265436D-01
     39  0.173778D-03 -0.122413D-02 -0.148207D-02 -0.330158D-01 -0.118716D+00
     40 -0.119196D-02 -0.634196D-02  0.396640D-04  0.968837D-01  0.182285D-01
     41  0.446567D-03  0.511273D-02 -0.105618D-03  0.414081D-02  0.882854D-01
     42 -0.394794D-03 -0.448158D-02 -0.813207D-03 -0.405849D-01  0.982882D-01
               36            37            38            39            40 
     36  0.105871D+01
     37 -0.289336D-01  0.272100D+01
     38 -0.884366D-01 -0.146594D+01  0.156859D+01
     39 -0.260210D-01 -0.235875D+00 -0.326272D+00  0.365802D+01
     40 -0.599341D-01  0.756311D-01 -0.418348D-02  0.739178D-02  0.279821D+01
     41  0.529748D-01  0.398816D-02 -0.124150D+00  0.699396D-01  0.104546D+01
     42 -0.158291D+00  0.509755D-02  0.419503D-01  0.590841D-01 -0.107127D+01
               41            42 
     41  0.255142D+01
     42  0.110591D+01  0.303686D+01
 Leave Link  701 at Sun Mar 10 20:30:59 2019, MaxMem=   671088640 cpu:              10.1 elap:               0.5
 (Enter /shared/centos7/gaussian/g16/l702.exe)
 L702 exits ... SP integral derivatives will be done elsewhere.
 Leave Link  702 at Sun Mar 10 20:30:59 2019, MaxMem=   671088640 cpu:               0.4 elap:               0.0
 (Enter /shared/centos7/gaussian/g16/l703.exe)
 Integral derivatives from FoFJK, PRISM(SPDF).
 Compute integral second derivatives, UseDBF=F ICtDFT=           0.
 ICntrl=    100147.
 Calling FoFJK, ICntrl=    100147 FMM=F ISym2X=0 I1Cent= 0 IOpClX= 0 NMat=1 NMatS=1 NMatT=0.
 FoFJK:  IHMeth= 1 ICntrl=  100147 DoSepK=F KAlg= 0 I1Cent=           0 FoldK=F
 IRaf=         0 NMat=       1 IRICut=       1 DoRegI=T DoRafI=F ISym2E= 0 IDoP0=0 IntGTp=1.
 FoFCou: FMM=F IPFlag=           0 FMFlag=      100000 FMFlg1=         800
         NFxFlg=           0 DoJE=F BraDBF=F KetDBF=F FulRan=T
         wScrn=  0.000000 ICntrl=    100147 IOpCl=  0 I1Cent=           0 NGrid=           0
         NMat0=    1 NMatS0=      1 NMatT0=    0 NMatD0=    1 NMtDS0=    0 NMtDT0=    0
 Symmetry not used in FoFCou.
 FoFCou:  KetSym=F NOpSet=  1 NOpAb=1 NOp=  1.
 FoFCou:  CnvScl= 1.00D+00 Thresh= 1.00D-08 IAcrcy=      12.
 PrismS was handed   670714418 working-precision words and  3743 shell-pairs
 FoFCou: LinMIO=F DoNuc=F BraDBF=F KetDBF=F HaveP=T PDBF=F HaveZ=T HaveW=F
         NIJTC =      15 NIJTAt=       0 NIJTCD=       0 NIJTT =      15
         IJTBeg=       1 IJTEnd=      15 KLTBeg=       1 KLTEnd=      15
         IPTBeg=       1 IPTEnd=      15 IPTBCv=       1 IPTECv=      15
         IZTBeg=       1 IZTEnd=      15 IZTBCv=       1 IZTECv=      15
         IWTBeg=      16 IWTEnd=      15 IWTBCv=      16 IWTECv=      15
         INTBeg=       1 INTEnd=       0 IFTBCv=       1 IFTECv=      15
 NCel replicated for PrismC:     1
 CoulSu-InSpLW:  IPartL=    0 NPrtUS=   20 NPrtUL=    1 DoSpLW=F IThBeg=    0 IThEnd=   19 NThAct=   20.
 CoulSu:  IncDef=  1024 NBBP=        7006896 NTPThr=   100 NPartT=   20 Incr=        1024 LDynOK=F GPUOK=T.
 CoulSu:  NPrtUS=  20 ThrOK=T IAlg=1 NPAlg=1 LenDen=           0 LWGrdD=           0 DoCopy=F ISkipM=0
          DoSpLW=F IThBeg=    0 IThEnd=   19.
 Enter PrismC:  IPart=  0 JobTyp=22 DoJE=F Cont=F.
 PrismC:  IPart=     0 DynPar=T LinDyn=F Incr=        1024 UseFst=F UseS4=T ISplat=2.
 PrismC was handed    33465383 working-precision words and  3743 shell-pairs
 Enter PrismC:  IPart= 16 JobTyp=22 DoJE=F Cont=F.
 PrismC:  IPart=    16 DynPar=T LinDyn=F Incr=        1024 UseFst=F UseS4=T ISplat=2.
 PrismC was handed    33465383 working-precision words and  3743 shell-pairs
 Enter PrismC:  IPart=  5 JobTyp=22 DoJE=F Cont=F.
 Enter PrismC:  IPart=  9 JobTyp=22 DoJE=F Cont=F.
 Enter PrismC:  IPart= 10 JobTyp=22 DoJE=F Cont=F.
 PrismC:  IPart=     9 DynPar=T LinDyn=F Incr=        1024 UseFst=F UseS4=T ISplat=2.
 Enter PrismC:  IPart= 14 JobTyp=22 DoJE=F Cont=F.
 PrismC:  IPart=     5 DynPar=T LinDyn=F Incr=        1024 UseFst=F UseS4=T ISplat=2.
 PrismC was handed    33465383 working-precision words and  3743 shell-pairs
 PrismC was handed    33465383 working-precision words and  3743 shell-pairs
 PrismC:  IPart=    10 DynPar=T LinDyn=F Incr=        1024 UseFst=F UseS4=T ISplat=2.
 PrismC was handed    33465383 working-precision words and  3743 shell-pairs
 PrismC:  IPart=    14 DynPar=T LinDyn=F Incr=        1024 UseFst=F UseS4=T ISplat=2.
 PrismC was handed    33465383 working-precision words and  3743 shell-pairs
 Enter PrismC:  IPart= 15 JobTyp=22 DoJE=F Cont=F.
 Enter PrismC:  IPart= 11 JobTyp=22 DoJE=F Cont=F.
 PrismC:  IPart=    15 DynPar=T LinDyn=F Incr=        1024 UseFst=F UseS4=T ISplat=2.
 PrismC was handed    33465383 working-precision words and  3743 shell-pairs
 Enter PrismC:  IPart=  8 JobTyp=22 DoJE=F Cont=F.
 PrismC:  IPart=    11 DynPar=T LinDyn=F Incr=        1024 UseFst=F UseS4=T ISplat=2.
 PrismC was handed    33465383 working-precision words and  3743 shell-pairs
 PrismC:  IPart=     8 DynPar=T LinDyn=F Incr=        1024 UseFst=F UseS4=T ISplat=2.
 Enter PrismC:  IPart= 13 JobTyp=22 DoJE=F Cont=F.
 PrismC was handed    33465383 working-precision words and  3743 shell-pairs
 Enter PrismC:  IPart= 17 JobTyp=22 DoJE=F Cont=F.
 PrismC:  IPart=    13 DynPar=T LinDyn=F Incr=        1024 UseFst=F UseS4=T ISplat=2.
 PrismC was handed    33465383 working-precision words and  3743 shell-pairs
 PrismC:  IPart=    17 DynPar=T LinDyn=F Incr=        1024 UseFst=F UseS4=T ISplat=2.
 PrismC was handed    33465383 working-precision words and  3743 shell-pairs
 Enter PrismC:  IPart=  6 JobTyp=22 DoJE=F Cont=F.
 PrismC:  IPart=     6 DynPar=T LinDyn=F Incr=        1024 UseFst=F UseS4=T ISplat=2.
 PrismC was handed    33465383 working-precision words and  3743 shell-pairs
 Enter PrismC:  IPart=  4 JobTyp=22 DoJE=F Cont=F.
 Enter PrismC:  IPart= 18 JobTyp=22 DoJE=F Cont=F.
 PrismC:  IPart=    18 DynPar=T LinDyn=F Incr=        1024 UseFst=F UseS4=T ISplat=2.
 PrismC:  IPart=     4 DynPar=T LinDyn=F Incr=        1024 UseFst=F UseS4=T ISplat=2.
 PrismC was handed    33465383 working-precision words and  3743 shell-pairs
 PrismC was handed    33465383 working-precision words and  3743 shell-pairs
 Enter PrismC:  IPart= 19 JobTyp=22 DoJE=F Cont=F.
 Enter PrismC:  IPart=  3 JobTyp=22 DoJE=F Cont=F.
 Enter PrismC:  IPart=  2 JobTyp=22 DoJE=F Cont=F.
 Enter PrismC:  IPart= 12 JobTyp=22 DoJE=F Cont=F.
 PrismC:  IPart=    19 DynPar=T LinDyn=F Incr=        1024 UseFst=F UseS4=T ISplat=2.
 PrismC:  IPart=     3 DynPar=T LinDyn=F Incr=        1024 UseFst=F UseS4=T ISplat=2.
 PrismC was handed    33465383 working-precision words and  3743 shell-pairs
 PrismC:  IPart=    12 DynPar=T LinDyn=F Incr=        1024 UseFst=F UseS4=T ISplat=2.
 PrismC was handed    33465383 working-precision words and  3743 shell-pairs
 PrismC:  IPart=     2 DynPar=T LinDyn=F Incr=        1024 UseFst=F UseS4=T ISplat=2.
[...]
 ! A16   A(1,5,14)             110.3475         -DE/DX =    0.0                 !
 ! A17   A(12,5,13)            110.6382         -DE/DX =    0.0                 !
 ! A18   A(12,5,14)            108.834          -DE/DX =    0.0                 !
 ! A19   A(13,5,14)            110.6254         -DE/DX =    0.0                 !
 ! A20   A(1,6,2)              122.979          -DE/DX =    0.0                 !
 ! A21   A(1,6,3)              111.4152         -DE/DX =    0.0                 !
 ! A22   A(2,6,3)              125.5929         -DE/DX =    0.0                 !
 ! D1    D(6,1,5,12)           -59.9566         -DE/DX =    0.0                 !
 ! D2    D(6,1,5,13)          -179.8061         -DE/DX =    0.0                 !
 ! D3    D(6,1,5,14)            60.3646         -DE/DX =    0.0                 !
 ! D4    D(5,1,6,2)             -0.4218         -DE/DX =    0.0                 !
 ! D5    D(5,1,6,3)            178.336          -DE/DX =    0.0                 !
 ! D6    D(6,3,4,9)            -59.353          -DE/DX =    0.0                 !
 ! D7    D(6,3,4,10)          -179.0059         -DE/DX =    0.0                 !
 ! D8    D(6,3,4,11)            60.9682         -DE/DX =    0.0                 !
 ! D9    D(7,3,4,9)             59.9366         -DE/DX =    0.0                 !
 ! D10   D(7,3,4,10)           -59.7162         -DE/DX =    0.0                 !
 ! D11   D(7,3,4,11)          -179.7422         -DE/DX =    0.0                 !
 ! D12   D(8,3,4,9)           -179.4528         -DE/DX =    0.0                 !
 ! D13   D(8,3,4,10)            60.8944         -DE/DX =    0.0                 !
 ! D14   D(8,3,4,11)           -59.1315         -DE/DX =    0.0                 !
 ! D15   D(4,3,6,1)            -69.9676         -DE/DX =    0.0                 !
 ! D16   D(4,3,6,2)            108.751          -DE/DX =    0.0                 !
 ! D17   D(7,3,6,1)            168.4957         -DE/DX =    0.0                 !
 ! D18   D(7,3,6,2)            -12.7857         -DE/DX =    0.0                 !
 ! D19   D(8,3,6,1)             50.9603         -DE/DX =    0.0                 !
 ! D20   D(8,3,6,2)           -130.321          -DE/DX =    0.0                 !
 --------------------------------------------------------------------------------
 GradGradGradGradGradGradGradGradGradGradGradGradGradGradGradGradGradGrad

 Leave Link  103 at Sun Mar 10 20:51:19 2019, MaxMem=   671088640 cpu:               0.4 elap:               0.1
 (Enter /shared/centos7/gaussian/g16/l9999.exe)

 ----------------------------------------------------------------------

 Electric dipole moment (input orientation):
 (Debye = 10**-18 statcoulomb cm , SI units = C m)
                  (au)            (Debye)         (10**-30 SI)
   Tot        0.768933D+00      0.195443D+01      0.651929D+01
   x         -0.178060D+00     -0.452583D+00     -0.150965D+01
   y          0.675654D+00      0.171734D+01      0.572843D+01
   z          0.321005D+00      0.815913D+00      0.272159D+01

 Dipole polarizability, Alpha (input orientation).
 (esu units = cm**3 , SI units = C**2 m**2 J**-1)
 Alpha(0;0):
               (au)            (10**-24 esu)      (10**-40 SI)
   iso        0.549999D+02      0.815014D+01      0.906825D+01
   aniso      0.149141D+02      0.221005D+01      0.245901D+01
   xx         0.519588D+02      0.769951D+01      0.856686D+01
   yx         0.293934D+01      0.435566D+00      0.484632D+00
   yy         0.554410D+02      0.821551D+01      0.914098D+01
   zx        -0.744978D+01     -0.110394D+01     -0.122830D+01
   zy        -0.137976D+01     -0.204460D+00     -0.227492D+00
   zz         0.575998D+02      0.853541D+01      0.949692D+01

 ----------------------------------------------------------------------

 Dipole orientation:
     8          2.46654509          0.07224360          0.85894760
     8          2.10830995         -1.06877604         -3.19285767
     6          0.07487826         -3.58371597          0.01411187
     6          1.74018396         -5.47466611          1.43410899
     6          4.01254566          2.13252458          0.07319097
     6          1.62204325         -1.42608075         -1.00658496
     1         -0.85754677         -4.47548229         -1.58407542
     1         -1.35769225         -2.81964158          1.28177107
     1          3.19336665         -6.24052214          0.19331149
     1          0.60582759         -7.04077495          2.13359351
     1          2.66125714         -4.57265683          3.03627929
     1          5.68748125          1.44012623         -0.89860737
     1          4.53244999          3.13474396          1.78425660
     1          2.96859432          3.36515614         -1.19947261

 Electric dipole moment (dipole orientation):
 (Debye = 10**-18 statcoulomb cm , SI units = C m)
                  (au)            (Debye)         (10**-30 SI)
   Tot        0.768933D+00      0.195443D+01      0.651929D+01
   x          0.000000D+00      0.000000D+00      0.000000D+00
   y          0.000000D+00      0.000000D+00      0.000000D+00
   z          0.768933D+00      0.195443D+01      0.651929D+01

 Dipole polarizability, Alpha (dipole orientation).
 (esu units = cm**3 , SI units = C**2 m**2 J**-1)
 Alpha(0;0):
               (au)            (10**-24 esu)      (10**-40 SI)
   iso        0.549999D+02      0.815014D+01      0.906825D+01
   aniso      0.149141D+02      0.221005D+01      0.245901D+01
   xx         0.497336D+02      0.736976D+01      0.819996D+01
   yx         0.650734D+01      0.964288D+00      0.107292D+01
   yy         0.604036D+02      0.895089D+01      0.995921D+01
   zx         0.415563D+00      0.615801D-01      0.685171D-01
   zy        -0.177455D+01     -0.262960D+00     -0.292583D+00
   zz         0.548624D+02      0.812977D+01      0.904559D+01

 ----------------------------------------------------------------------

 Test job not archived.
 1\1\GINC-C0054\Freq\RM062X\6-311+G(2df,2p)\C4H8O2\UNDERKOFFLER.C\10-Ma
 r-2019\0\\#P Geom=AllCheck Guess=TCheck SCRF=Check Test GenChk RM062X/
 6-311+G(2df,2p) Freq\\Gaussian input prepared by ASE\\0,1\O,1.15609376
 ,0.6041679018,0.4584129271\O,1.3835294962,-1.5819752197,0.0499672826\C
 ,-0.2358338753,-0.8511873276,1.67866026\C,0.2944212479,-0.5200044411,3
 .0756848262\C,2.196044337,0.8526337104,-0.483720449\C,0.8408945116,-0.
 6884203769,0.639499824\H,-0.5824845848,-1.8800033677,1.6259942595\H,-1
 .0625368264,-0.186478433,1.4278752657\H,1.1281920816,-1.171086593,3.33
 57582121\H,-0.4878267606,-0.6582530294,3.8194207687\H,0.6355820713,0.5
 122691828,3.1230768704\H,3.1153393049,0.3611750108,-0.1712041864\H,2.3
 272149513,1.9292118307,-0.5080271881\H,1.9140947772,0.4785473341,-1.46
 5949018\\Version=EM64L-G16RevA.03\State=1-A\HF=-307.6746728\RMSD=6.013
 e-09\RMSF=5.584e-07\ZeroPoint=0.1198926\Thermal=0.1271271\Dipole=-0.17
 80599,0.6756541,0.3210047\DipoleDeriv=-0.695459,-0.3681582,0.4162337,-
 0.3671669,-1.2692859,0.3193918,0.3656584,0.273651,-0.6478342,-0.569170
 4,0.2581949,0.3131801,0.0180071,-1.0126105,-0.106833,0.2146142,-0.3047
 685,-0.6436281,-0.0283717,-0.019224,0.1146945,-0.0101581,0.0614329,-0.
 0158326,0.153725,-0.0043791,-0.137978,0.0124839,-0.0158657,0.0663859,-
 0.0329703,0.0571981,0.0264768,-0.0159699,-0.0133728,0.1013745,0.516693
 1,0.2030275,-0.2356659,0.0881704,0.3484646,-0.0857075,-0.2226144,-0.18
 05552,0.4822725,0.7678545,0.0011463,-0.6681907,0.2844069,1.8452475,-0.
 1667298,-0.5182513,0.130554,0.8401797,0.0381453,-0.0314117,0.0097123,-
 0.0658817,-0.0517225,-0.0119408,0.0037949,-0.0173424,0.0179612,-0.0221
 407,0.047784,-0.0191007,0.0683763,0.0232095,0.0416346,-0.0323716,0.027
 388,0.0172058,-0.0331044,0.0728523,-0.0666793,0.0817227,0.004372,0.024
 9396,-0.0215332,-0.0061391,0.0220776,-0.0252715,-0.0195766,0.0913605,-
 0.0198333,0.0747166,0.0100154,0.0850225,0.0079559,-0.0793685,0.0510854
 ,-0.0459047,-0.033051,-0.0507973,-0.0755766,-0.0347335,-0.0170834,0.01
 10961,0.046331,-0.0672786,-0.0141161,0.0171455,0.0788078,0.0383323,0.0
 303151,-0.0378916,0.0629756,-0.0001585,0.054699,-0.0110873,0.0312357,-
 0.050011,-0.0955557,0.0342793,0.0233706,-0.0075315,0.060505,-0.0001649
 ,-0.0576607,-0.0372607,-0.0226726,0.0517778,-0.0652756,0.0195299,0.020
 468,-0.0789399\Polar=51.9588383,2.9393443,55.4409835,-7.4497828,-1.379
 7647,57.5998039\Quadrupole=1.5984206,-2.4765577,0.8781372,2.3708613,-1
 .1097738,-3.0523335\PG=C01 [X(C4H8O2)]\NImag=0\\0.28659401,0.08064808,
 0.46175844,-0.18592568,-0.04187916,0.25155840,0.03140152,0.01769189,0.
 00093042,0.22805710,0.01207520,-0.11619032,-0.02433117,-0.25572563,0.5
 5381013,0.00041009,-0.02961944,0.02791955,-0.20761692,0.28770409,0.253
 07242,-0.00688547,-0.00969702,0.01590724,-0.00324790,0.00712750,0.0288
 3210,0.53446158,-0.03325111,-0.01444828,0.02958946,0.02615882,-0.00002
 033,-0.02942696,-0.00650080,0.63408911,0.01307989,0.00862745,-0.001180
 07,0.02932338,-0.01034090,-0.00366333,-0.00195013,-0.01379010,0.445278
 76,-0.00224804,-0.00248573,0.00080688,-0.00784465,0.00202428,0.0011445
 4,-0.09046200,-0.01129545,-0.03313212,0.56722039,-0.00221694,-0.002109
 79,-0.00011648,-0.00032846,0.00085891,0.00030980,-0.01176814,-0.083437
 07,-0.02052444,-0.00688272,0.57715992,-0.00061705,-0.00235503,0.000564
 58,0.00056620,0.00110796,0.00246265,-0.04163433,-0.02177486,-0.1706621
 9,-0.03934084,-0.02327627,0.48904338,-0.15258568,-0.01848810,0.0771556
 4,-0.00586246,0.01369368,0.00082975,0.00404115,0.00010026,0.00059394,0
 .00005139,-0.00009206,0.00062769,0.52799486,0.00249918,-0.08863530,-0.
 00412693,-0.00299855,0.00242310,0.00359820,-0.00024551,-0.00506156,-0.
 00132198,0.00023648,0.00014493,-0.00012513,-0.01171351,0.63425165,0.07
 893872,0.01516074,-0.13980775,-0.00077131,-0.01199697,-0.00689969,0.00
 082252,-0.00086690,0.00436918,-0.00084517,-0.00009078,0.00048535,0.059
 83108,0.01431390,0.53944218,-0.11383825,-0.04103416,0.03752437,-0.2487
 8540,0.22527136,0.17669774,-0.15371528,-0.01472122,0.05197779,0.018337
 81,0.00688860,-0.00153584,-0.01483921,-0.03793542,0.01224686,0.5446894
 1,-0.04768300,-0.24349191,0.02866647,0.21253327,-0.44357618,-0.2324576
 5,-0.01676713,-0.08174958,0.01603865,0.00733602,0.00143342,-0.00359129
 ,-0.03329879,-0.02018100,0.02938194,-0.13141282,0.78955301,0.03790821,
 0.02366568,-0.10326097,0.17620161,-0.24452354,-0.26989948,0.05550661,0
 .01640576,-0.13600105,0.01993884,0.00021580,-0.03374259,0.01244996,0.0
 3367925,-0.00664115,-0.29449650,0.17331220,0.54369968,-0.00368254,-0.0
 0104667,0.00438087,0.00180569,0.00165335,-0.00112352,-0.07816201,-0.07
 710904,-0.00220645,-0.00367669,-0.01024091,-0.00097019,0.00057135,-0.0
 0097528,0.00011208,-0.00783848,-0.02547574,-0.00326722,0.08097040,-0.0
 0152041,0.00055694,0.00103066,0.00124502,0.00207191,-0.00041538,-0.083
 27686,-0.29767776,-0.00752841,-0.00134978,-0.00373730,-0.00101902,0.00
 029639,0.00014668,-0.00049517,0.00095768,-0.00644936,-0.00135132,0.090
 11817,0.31878326,0.00533420,0.00148092,-0.00401467,-0.00186063,-0.0006
 7120,0.00045731,-0.00370354,-0.01259506,-0.04661285,-0.01049354,-0.030
 92861,-0.00209540,-0.00003093,0.00083625,0.00038684,0.00624929,0.02408
 748,0.00065263,0.00252961,0.01124305,0.05551605,0.00191645,-0.00143795
 ,0.00053253,-0.00185797,-0.00087149,0.00511020,-0.20331418,0.12179287,
 -0.04225150,-0.00811974,0.00583256,-0.00391509,0.00023637,-0.00019470,
 0.00062013,-0.01826441,0.01872089,-0.00910447,0.01002162,-0.00624473,0
 .00285171,0.21788687,-0.00087643,-0.00062637,0.00110008,0.00062940,0.0
 0174061,0.00060494,0.12432819,-0.15189096,0.03886813,-0.00711264,0.005
 42152,-0.00252598,0.00002307,0.00030533,-0.00038483,-0.00274665,0.0001
 8944,-0.00389386,0.02326674,-0.01579365,0.00630674,-0.13654683,0.15934
 754,-0.00102424,0.00066443,-0.00061723,0.00234543,0.00025172,-0.006442
 61,-0.04146302,0.03861366,-0.05507771,-0.02603008,0.01939463,-0.009112
 60,-0.00037437,-0.00013897,-0.00017700,0.01796810,-0.01699423,0.007858
 06,0.00137890,-0.00047271,-0.00059818,0.04772526,-0.03949054,0.0668750
 3,0.00016273,0.00021239,-0.00040068,0.00055201,-0.00043045,-0.00070633
 ,-0.00776909,0.00569940,-0.00304892,-0.20579024,0.12403671,-0.04605121
 ,-0.00012952,-0.00000381,0.00003845,-0.00038535,-0.00003978,0.00116467
 ,-0.00010353,-0.00011547,0.00020412,0.00065677,-0.00096676,-0.00186465
 ,0.22051116,-0.00037187,-0.00021188,0.00022336,-0.00038759,-0.00016727
 ,0.00041039,-0.00742426,0.00544721,-0.00202057,0.12498397,-0.14790595,
 0.03770861,0.00014448,0.00002618,0.00003026,0.00050052,0.00053100,0.00
 042958,-0.00020831,0.00052818,0.00067495,-0.00081319,0.00067933,-0.002
 22759,-0.13630311,0.15524695,0.00064339,-0.00006419,-0.00008956,0.0007
 9384,-0.00094633,0.00003619,-0.02356944,0.01896957,-0.00973647,-0.0450
 0796,0.03680366,-0.06076563,-0.00012774,0.00004752,-0.00009132,-0.0027
 5304,0.00214710,0.00187342,0.00056664,-0.00014762,0.00139878,-0.001886
 95,-0.00185560,-0.00570709,0.05349907,-0.03975919,0.06804378,0.0006733
 4,0.00066142,0.00011592,0.00139921,-0.00048991,-0.00031001,0.01007233,
 0.00213746,-0.01145465,-0.19237597,-0.02570314,0.13581802,0.00006282,0
 .00010370,0.00001413,-0.00231046,-0.00107836,-0.00241903,0.00041959,0.
 00015836,0.00083003,0.00073138,0.00025364,0.00082355,-0.01726563,-0.00
 455336,0.01635876,0.20568304,0.00031918,0.00076477,0.00057405,0.000490
 56,0.00022225,0.00000902,0.00564621,0.00037723,-0.00671358,-0.02559098
 ,-0.05232605,0.02478826,0.00031479,0.00014745,-0.00003929,-0.00189910,
 -0.00137060,-0.00110999,0.00052481,0.00013254,0.00025131,-0.00024267,0
 .00004908,0.00063432,0.01427952,0.00269886,-0.01472771,0.02881646,0.05
 151108,0.00110722,0.00103770,-0.00024107,0.00251117,-0.00073811,-0.000
 83486,0.02132677,0.00425344,-0.02317144,0.13433668,0.02433413,-0.16986
 409,-0.00014674,-0.00009790,0.00035601,-0.00673721,-0.00227994,-0.0027
 1748,0.00024890,-0.00030733,0.00122997,0.00016386,0.00065251,0.0013576
 2,-0.00596815,-0.00198990,0.00584092,-0.14502000,-0.02531064,0.1870949
 4,-0.00020788,0.00010020,0.00028603,0.00019459,-0.00002478,0.00001739,
 -0.00448431,-0.01141604,-0.00078496,-0.07481230,-0.07944250,-0.0027182
 0,0.00007383,0.00012118,0.00006331,-0.00005091,0.00039484,0.00049474,0
 .00006317,-0.00002593,-0.00236206,-0.00001333,-0.00022180,0.00049512,0
 .00949902,0.02453169,0.00139641,-0.00713482,-0.02260842,-0.00197865,0.
 07691235,0.00052114,0.00101997,0.00083424,0.00031456,0.00050592,-0.000
 20392,-0.00148470,-0.00530893,-0.00139888,-0.07973327,-0.29538587,-0.0
 0891319,0.00022698,0.00018263,-0.00008091,-0.00134270,-0.00204568,0.00
 049343,-0.00035753,0.00148151,-0.00080751,-0.00000638,0.00064758,-0.00
 021419,-0.00639251,-0.01688594,-0.00048739,-0.00030171,-0.00220883,0.0
 0037924,0.08857821,0.31803341,0.00015603,0.00098484,-0.00004071,0.0003
 9999,0.00081068,-0.00023301,-0.01004849,-0.03091482,-0.00307635,-0.001
 63153,-0.00624454,-0.04648256,0.00043928,0.00037333,-0.00027209,-0.001
 03003,-0.00326305,0.00171047,-0.00201219,-0.00074591,-0.00589738,0.000
 36064,0.00053738,0.00157765,0.00316575,0.00645453,-0.00073088,0.005298
 64,0.02162847,0.00111069,0.00505153,0.01040082,0.05221640,-0.03153907,
 0.00289650,0.00570005,0.00206144,-0.00234104,-0.00192012,0.00009409,-0
 .00030575,0.00031559,-0.00013435,-0.00005963,-0.00004418,-0.23325965,0
 .10045680,-0.07042300,-0.00036964,0.00887002,0.00053418,-0.00001176,-0
 .00012965,0.00014193,0.00020017,-0.00008679,-0.00005359,0.00002224,-0.
 00005027,0.00004746,0.00002933,-0.00000602,0.00006629,-0.00004228,0.00
 001116,-0.00007339,0.26230671,-0.00909198,0.00377898,-0.00348421,0.000
 38355,-0.00083409,-0.00071971,0.00057946,-0.00009204,0.00058655,-0.000
 13078,-0.00002963,0.00008977,0.10722806,-0.10964830,0.04022752,-0.0023
 9889,0.00278902,0.00062887,-0.00001684,-0.00003031,0.00000040,0.000084
 50,-0.00004960,-0.00010155,-0.00000248,0.00001127,0.00000796,0.0000084
 9,0.00000189,0.00004375,0.00002505,-0.00001449,-0.00001458,-0.11242175
 ,0.10982993,0.03157642,-0.00876880,0.00347189,0.00024811,0.00151754,0.
 00001090,-0.00040916,0.00001729,-0.00070225,0.00018756,0.00008080,0.00
 002385,-0.07726270,0.04131969,-0.07933438,0.00027707,-0.00344040,0.001
 04418,-0.00004974,0.00008414,-0.00006939,-0.00013538,0.00006784,0.0000
 3536,-0.00000671,0.00006033,-0.00003602,-0.00005609,-0.00003063,-0.000
 09773,0.00003612,-0.00005606,0.00001686,0.06899104,-0.04370563,0.08236
 561,-0.01115219,-0.03389582,0.00739495,0.00204247,-0.00017590,-0.00125
 142,-0.00002147,-0.00131934,0.00002380,-0.00010110,-0.00003329,-0.0000
 4739,-0.05165771,-0.02032305,-0.00361971,-0.00385173,0.00384662,0.0041
 5284,-0.00027363,-0.00004841,0.00027899,0.00001559,0.00001111,-0.00003
 654,0.00001289,0.00000456,0.00001974,0.00002014,0.00000715,0.00005664,
 0.00003739,0.00000821,0.00001645,0.00648421,0.02611194,0.00065336,0.05
 886114,-0.00323009,-0.00430613,0.00266855,-0.00091510,0.00009055,0.000
 80087,-0.00003384,-0.00021736,-0.00000994,-0.00008510,-0.00003092,-0.0
 0002814,-0.03030868,-0.32865265,0.00319393,0.00060322,0.00131127,-0.00
 047154,-0.00006766,0.00002432,0.00009189,-0.00002698,0.00000229,0.0000
 3146,0.00001136,-0.00000272,-0.00000905,0.00000383,0.00000768,0.000051
 08,-0.00000351,-0.00000431,0.00000825,-0.00164441,-0.01129702,-0.00133
 022,0.03528920,0.35102646,0.01014995,0.03105191,-0.00653140,-0.0012909
 6,0.00008937,0.00191648,0.00022797,0.00118228,0.00016283,0.00003592,0.
 00006733,0.00009092,-0.00450615,-0.00602259,-0.04977198,0.00378766,-0.
 00343641,-0.00367464,0.00026745,0.00004269,-0.00027470,-0.00000699,0.0
 0001420,0.00002157,-0.00001482,-0.00000816,-0.00001690,-0.00001810,-0.
 00002282,-0.00003504,-0.00000768,-0.00002272,-0.00003505,0.00096286,0.
 01055403,0.00041146,-0.00732568,-0.00526311,0.05382397,0.00139108,0.00
 587497,0.03559148,0.00008436,-0.00178616,-0.00011351,-0.00060743,0.000
 02993,-0.00048565,-0.00004450,0.00000993,-0.00013759,-0.07469754,-0.02
 902753,-0.07702809,0.00122191,0.00405395,0.00093558,-0.00010317,-0.000
 06438,0.00003082,-0.00009557,0.00004575,0.00011014,0.00002655,-0.00005
 325,0.00001982,-0.00000430,-0.00005150,0.00003323,-0.00003453,-0.00004
 145,-0.00009266,-0.00584145,-0.01035834,-0.02404991,-0.00041599,0.0004
 0776,-0.00226143,0.07912058,0.00217905,0.00214089,0.00925108,0.0009082
 7,-0.00093518,-0.00059427,-0.00048309,-0.00000968,-0.00047195,0.000085
 70,-0.00005612,-0.00008569,-0.02812656,-0.08544913,-0.08835343,-0.0007
 3042,0.00305715,0.00251968,-0.00006509,-0.00003697,0.00002940,-0.00004
 590,-0.00002214,0.00004956,0.00001498,0.00000478,0.00002127,-0.0000168
 9,-0.00000734,-0.00002805,-0.00000819,-0.00001695,-0.00001540,0.004810
 82,0.00558439,0.01418413,-0.00948298,-0.00795146,-0.02822598,0.0309603
 2,0.08369774,0.00826285,0.00001295,-0.02773098,-0.00178032,0.00206687,
 0.00209749,0.00015491,0.00033725,0.00007294,0.00003083,-0.00002503,0.0
 0005432,-0.06947872,-0.08233465,-0.26204420,-0.00017624,-0.00817085,-0
 .00090108,0.00014486,0.00008233,-0.00007900,-0.00006396,-0.00000103,0.
 00000714,-0.00001058,0.00001343,-0.00001922,0.00001883,0.00006924,-0.0
 0002843,0.00001091,0.00007705,0.00013597,-0.00424511,-0.00411318,-0.00
 714031,-0.00031603,0.00026597,0.00391247,0.06744777,0.09171966,0.29166
 288\\-0.00000025,0.00000033,0.00000006,-0.00000093,0.00000021,-0.00000
 044,0.00000016,0.00000018,0.00000050,0.00000091,-0.00000026,0.00000029
 ,-0.00000065,0.00000004,-0.00000044,-0.00000027,-0.00000027,-0.0000002
 5,-0.00000015,0.00000022,0.00000042,0.00000008,0.00000042,0.00000102,0
 .00000090,-0.00000050,-0.00000033,0.00000127,-0.00000024,0.00000062,0.
 00000117,-0.00000033,0.00000028,-0.00000058,-0.00000020,-0.00000103,-0
 .00000042,0.00000007,-0.00000030,-0.00000123,0.00000033,-0.00000039\\\
 @


 Other things may change us, but we start and end with family.
 -- Anthony Brandt
 Job cpu time:       0 days  2 hours 11 minutes 52.4 seconds.
 Elapsed time:       0 days  0 hours  6 minutes 36.2 seconds.
 File lengths (MBytes):  RWF=   1344 Int=      0 D2E=      0 Chk=     32 Scr=     32
 Normal termination of Gaussian 16 at Sun Mar 10 20:51:19 2019.
