 Entering Gaussian System, Link 0=g16
 Input=DUEVIJNWLJUFDM-UHFFFAOYSA-N_GeoFreq_a1.com
 Output=DUEVIJNWLJUFDM-UHFFFAOYSA-N_GeoFreq_a1.log
 Initial command:
 /shared/centos7/gaussian/g16/l1.exe "/scratch/underkoffler.c/gaussian_scratch/Gau-6857.inp" -scrdir="/scratch/underkoffler.c/gaussian_scratch/"
 Entering Link 1 = /shared/centos7/gaussian/g16/l1.exe PID=      6858.
  
 Copyright (c) 1988,1990,1992,1993,1995,1998,2003,2009,2016,
            Gaussian, Inc.  All Rights Reserved.
  
 This is part of the Gaussian(R) 16 program.  It is based on
 the Gaussian(R) 09 system (copyright 2009, Gaussian, Inc.),
 the Gaussian(R) 03 system (copyright 2003, Gaussian, Inc.),
 the Gaussian(R) 98 system (copyright 1998, Gaussian, Inc.),
 the Gaussian(R) 94 system (copyright 1995, Gaussian, Inc.),
 the Gaussian 92(TM) system (copyright 1992, Gaussian, Inc.),
 the Gaussian 90(TM) system (copyright 1990, Gaussian, Inc.),
 the Gaussian 88(TM) system (copyright 1988, Gaussian, Inc.),
 the Gaussian 86(TM) system (copyright 1986, Carnegie Mellon
 University), and the Gaussian 82(TM) system (copyright 1983,
 Carnegie Mellon University). Gaussian is a federally registered
 trademark of Gaussian, Inc.
  
 This software contains proprietary and confidential information,
 including trade secrets, belonging to Gaussian, Inc.
  
 This software is provided under written license and may be
 used, copied, transmitted, or stored only in accord with that
 written license.
  
 The following legend is applicable only to US Government
 contracts under FAR:
  
                    RESTRICTED RIGHTS LEGEND
  
 Use, reproduction and disclosure by the US Government is
 subject to restrictions as set forth in subparagraphs (a)
 and (c) of the Commercial Computer Software - Restricted
 Rights clause in FAR 52.227-19.
  
 Gaussian, Inc.
 340 Quinnipiac St., Bldg. 40, Wallingford CT 06492
  
  
 ---------------------------------------------------------------
 Warning -- This program may not be used in any manner that
 competes with the business of Gaussian, Inc. or will provide
 assistance to any competitor of Gaussian, Inc.  The licensee
 of this program is prohibited from giving any competitor of
 Gaussian, Inc. access to this program.  By using this program,
 the user acknowledges that Gaussian, Inc. is engaged in the
 business of creating and licensing software in the field of
 computational chemistry and represents and warrants to the
 licensee that it is not a competitor of Gaussian, Inc. and that
 it will not use this program in any manner prohibited above.
 ---------------------------------------------------------------
  

 Cite this work as:
 Gaussian 16, Revision A.03,
 M. J. Frisch, G. W. Trucks, H. B. Schlegel, G. E. Scuseria, 
 M. A. Robb, J. R. Cheeseman, G. Scalmani, V. Barone, 
 G. A. Petersson, H. Nakatsuji, X. Li, M. Caricato, A. V. Marenich, 
 J. Bloino, B. G. Janesko, R. Gomperts, B. Mennucci, H. P. Hratchian, 
 J. V. Ortiz, A. F. Izmaylov, J. L. Sonnenberg, D. Williams-Young, 
 F. Ding, F. Lipparini, F. Egidi, J. Goings, B. Peng, A. Petrone, 
 T. Henderson, D. Ranasinghe, V. G. Zakrzewski, J. Gao, N. Rega, 
 G. Zheng, W. Liang, M. Hada, M. Ehara, K. Toyota, R. Fukuda, 
 J. Hasegawa, M. Ishida, T. Nakajima, Y. Honda, O. Kitao, H. Nakai, 
 T. Vreven, K. Throssell, J. A. Montgomery, Jr., J. E. Peralta, 
 F. Ogliaro, M. J. Bearpark, J. J. Heyd, E. N. Brothers, K. N. Kudin, 
 V. N. Staroverov, T. A. Keith, R. Kobayashi, J. Normand, 
 K. Raghavachari, A. P. Rendell, J. C. Burant, S. S. Iyengar, 
 J. Tomasi, M. Cossi, J. M. Millam, M. Klene, C. Adamo, R. Cammi, 
 J. W. Ochterski, R. L. Martin, K. Morokuma, O. Farkas, 
 J. B. Foresman, and D. J. Fox, Gaussian, Inc., Wallingford CT, 2016.
 
 ******************************************
 Gaussian 16:  EM64L-G16RevA.03 25-Dec-2016
                11-Mar-2019 
 ******************************************
 %nprocshared=20
 Will use up to   20 processors via shared memory.
 %mem=5GB
 ----------------------------------------------------------------------
 #p m062x/6-311+g(2df,2p) opt=(calcfc,verytight,gdiis,maxcycles=900) fr
 eq iop(7/33=1,2/16=3)
 ----------------------------------------------------------------------

 Warning!  Use of Opt=GDIIS is deprecated since it is seldom a good choice.

 1/6=900,7=1,10=4,18=20,19=11,26=3,38=1/1,3;
 2/9=110,12=2,16=3,17=6,18=5,40=1/2;
 3/5=4,6=6,7=214,11=2,25=1,30=1,71=2,74=-55,140=1/1,2,3;
 4//1;
 5/5=2,38=5/2;
 8/6=4,10=90,11=11/1;
 11/6=1,8=1,9=11,15=111,16=1/1,2,10;
 10/6=1,13=1/2;
 6/7=2,8=2,9=2,10=2,28=1/1;
 7/10=1,18=20,25=1,33=1/1,2,3,16;
 1/6=900,7=1,10=4,18=20,19=11,26=3/3(2);
 2/9=110,16=3/2;
 99//99;
 2/9=110,16=3/2;
 3/5=4,6=6,7=214,11=2,25=1,30=1,71=1,74=-55/1,2,3;
 4/5=5,16=3,69=1/1;
 5/5=2,38=5/2;
 7/33=1/1,2,3,16;
 1/6=900,7=1,18=20,19=11,26=3/3(-5);
 2/9=110,16=3/2;
 6/7=2,8=2,9=2,10=2,19=2,28=1/1;
 99/9=1/99;
 Leave Link    1 at Mon Mar 11 15:45:01 2019, MaxMem=   671088640 cpu:              28.4 elap:               1.5
 (Enter /shared/centos7/gaussian/g16/l101.exe)
 ------------------------------
 Gaussian input prepared by ASE
 ------------------------------
 Symbolic Z-matrix:
 Charge =  0 Multiplicity = 2
 O                     1.11012  -0.7221    0. 
 O                     0.10643   1.29135   0. 
 C                    -2.51838   0.01577   0. 
 C                     2.36201  -0.04665   0. 
 C                    -1.20883  -0.66883   0. 
 C                     0.02758   0.08302   0. 
 H                    -3.10777  -0.27012   0.8752 
 H                    -2.38388   1.09445  -0.00001 
 H                    -3.10778  -0.27014  -0.87519 
 H                     3.12056  -0.82236   0. 
 H                     2.45637   0.58054   0.88482 
 H                     2.45637   0.58054  -0.88482 
 H                    -1.1406   -1.74672   0. 
 
 ITRead=  0  0  0  0  0  0  0  0  0  0  0  0  0
 MicOpt= -1 -1 -1 -1 -1 -1 -1 -1 -1 -1 -1 -1 -1
 NAtoms=     13 NQM=       13 NQMF=       0 NMMI=      0 NMMIF=      0
                NMic=       0 NMicF=      0.
                    Isotopes and Nuclear Properties:
 (Nuclear quadrupole moments (NQMom) in fm**2, nuclear magnetic moments (NMagM)
  in nuclear magnetons)

  Atom         1           2           3           4           5           6           7           8           9          10
 IAtWgt=          16          16          12          12          12          12           1           1           1           1
 AtmWgt=  15.9949146  15.9949146  12.0000000  12.0000000  12.0000000  12.0000000   1.0078250   1.0078250   1.0078250   1.0078250
 NucSpn=           0           0           0           0           0           0           1           1           1           1
 AtZEff=  -0.0000000  -0.0000000  -0.0000000  -0.0000000  -0.0000000  -0.0000000  -0.0000000  -0.0000000  -0.0000000  -0.0000000
 NQMom=    0.0000000   0.0000000   0.0000000   0.0000000   0.0000000   0.0000000   0.0000000   0.0000000   0.0000000   0.0000000
 NMagM=    0.0000000   0.0000000   0.0000000   0.0000000   0.0000000   0.0000000   2.7928460   2.7928460   2.7928460   2.7928460
 AtZNuc=   8.0000000   8.0000000   6.0000000   6.0000000   6.0000000   6.0000000   1.0000000   1.0000000   1.0000000   1.0000000

  Atom        11          12          13
 IAtWgt=           1           1           1
 AtmWgt=   1.0078250   1.0078250   1.0078250
 NucSpn=           1           1           1
 AtZEff=  -0.0000000  -0.0000000  -0.0000000
 NQMom=    0.0000000   0.0000000   0.0000000
 NMagM=    2.7928460   2.7928460   2.7928460
 AtZNuc=   1.0000000   1.0000000   1.0000000
 Leave Link  101 at Mon Mar 11 15:45:01 2019, MaxMem=   671088640 cpu:               5.3 elap:               0.3
 (Enter /shared/centos7/gaussian/g16/l103.exe)

 GradGradGradGradGradGradGradGradGradGradGradGradGradGradGradGradGradGrad
 Berny optimization.
 Initialization pass.
                           ----------------------------
                           !    Initial Parameters    !
                           ! (Angstroms and Degrees)  !
 --------------------------                            --------------------------
 ! Name  Definition              Value          Derivative Info.                !
 --------------------------------------------------------------------------------
 ! R1    R(1,4)                  1.4225         calculate D2E/DX2 analytically  !
 ! R2    R(1,6)                  1.3491         calculate D2E/DX2 analytically  !
 ! R3    R(2,6)                  1.2109         calculate D2E/DX2 analytically  !
 ! R4    R(3,5)                  1.4777         calculate D2E/DX2 analytically  !
 ! R5    R(3,7)                  1.0932         calculate D2E/DX2 analytically  !
 ! R6    R(3,8)                  1.087          calculate D2E/DX2 analytically  !
 ! R7    R(3,9)                  1.0932         calculate D2E/DX2 analytically  !
 ! R8    R(4,10)                 1.085          calculate D2E/DX2 analytically  !
 ! R9    R(4,11)                 1.0887         calculate D2E/DX2 analytically  !
 ! R10   R(4,12)                 1.0887         calculate D2E/DX2 analytically  !
 ! R11   R(5,6)                  1.4471         calculate D2E/DX2 analytically  !
 ! R12   R(5,13)                 1.08           calculate D2E/DX2 analytically  !
 ! A1    A(4,1,6)              115.0115         calculate D2E/DX2 analytically  !
 ! A2    A(5,3,7)              110.8937         calculate D2E/DX2 analytically  !
 ! A3    A(5,3,8)              110.4914         calculate D2E/DX2 analytically  !
 ! A4    A(5,3,9)              110.8936         calculate D2E/DX2 analytically  !
 ! A5    A(7,3,8)              109.0397         calculate D2E/DX2 analytically  !
 ! A6    A(7,3,9)              106.3714         calculate D2E/DX2 analytically  !
 ! A7    A(8,3,9)              109.0398         calculate D2E/DX2 analytically  !
 ! A8    A(1,4,10)             106.0097         calculate D2E/DX2 analytically  !
 ! A9    A(1,4,11)             110.4777         calculate D2E/DX2 analytically  !
 ! A10   A(1,4,12)             110.4778         calculate D2E/DX2 analytically  !
 ! A11   A(10,4,11)            110.5672         calculate D2E/DX2 analytically  !
 ! A12   A(10,4,12)            110.5672         calculate D2E/DX2 analytically  !
 ! A13   A(11,4,12)            108.7334         calculate D2E/DX2 analytically  !
 ! A14   A(3,5,6)              121.0974         calculate D2E/DX2 analytically  !
 ! A15   A(3,5,13)             121.2213         calculate D2E/DX2 analytically  !
 ! A16   A(6,5,13)             117.6813         calculate D2E/DX2 analytically  !
 ! A17   A(1,6,2)              122.906          calculate D2E/DX2 analytically  !
 ! A18   A(1,6,5)              112.0572         calculate D2E/DX2 analytically  !
 ! A19   A(2,6,5)              125.0368         calculate D2E/DX2 analytically  !
 ! D1    D(6,1,4,10)           180.0            calculate D2E/DX2 analytically  !
 ! D2    D(6,1,4,11)            60.1795         calculate D2E/DX2 analytically  !
 ! D3    D(6,1,4,12)           -60.1794         calculate D2E/DX2 analytically  !
 ! D4    D(4,1,6,2)              0.0            calculate D2E/DX2 analytically  !
 ! D5    D(4,1,6,5)            180.0            calculate D2E/DX2 analytically  !
 ! D6    D(7,3,5,6)           -121.0258         calculate D2E/DX2 analytically  !
 ! D7    D(7,3,5,13)            58.9741         calculate D2E/DX2 analytically  !
 ! D8    D(8,3,5,6)              0.0006         calculate D2E/DX2 analytically  !
 ! D9    D(8,3,5,13)          -179.9996         calculate D2E/DX2 analytically  !
 ! D10   D(9,3,5,6)            121.027          calculate D2E/DX2 analytically  !
 ! D11   D(9,3,5,13)           -58.9731         calculate D2E/DX2 analytically  !
 ! D12   D(3,5,6,1)            180.0            calculate D2E/DX2 analytically  !
 ! D13   D(3,5,6,2)              0.0            calculate D2E/DX2 analytically  !
 ! D14   D(13,5,6,1)             0.0001         calculate D2E/DX2 analytically  !
 ! D15   D(13,5,6,2)          -179.9999         calculate D2E/DX2 analytically  !
 --------------------------------------------------------------------------------
 Trust Radius=3.00D-01 FncErr=1.00D-07 GrdErr=1.00D-06 EigMax=2.50D+02 EigMin=1.00D-04
 Number of steps in this run=    100 maximum allowed number of steps=    100.
 GradGradGradGradGradGradGradGradGradGradGradGradGradGradGradGradGradGrad

 Leave Link  103 at Mon Mar 11 15:45:01 2019, MaxMem=   671088640 cpu:               0.1 elap:               0.0
 (Enter /shared/centos7/gaussian/g16/l202.exe)
                          Input orientation:                          
 ---------------------------------------------------------------------
 Center     Atomic      Atomic             Coordinates (Angstroms)
 Number     Number       Type             X           Y           Z
 ---------------------------------------------------------------------
      1          8           0        1.110121   -0.722104    0.000000
      2          8           0        0.106429    1.291348    0.000000
      3          6           0       -2.518381    0.015767    0.000000
      4          6           0        2.362013   -0.046647    0.000000
      5          6           0       -1.208828   -0.668828    0.000000
      6          6           0        0.027581    0.083019    0.000000
      7          1           0       -3.107769   -0.270122    0.875203
      8          1           0       -2.383876    1.094445   -0.000010
      9          1           0       -3.107777   -0.270138   -0.875192
     10          1           0        3.120558   -0.822364    0.000000
     11          1           0        2.456374    0.580537    0.884816
     12          1           0        2.456374    0.580539   -0.884815
     13          1           0       -1.140596   -1.746717    0.000002
 ---------------------------------------------------------------------
                    Distance matrix (angstroms):
                    1          2          3          4          5
     1  O    0.000000
     2  O    2.249753   0.000000
     3  C    3.702767   2.918344   0.000000
     4  C    1.422489   2.622573   4.880793   0.000000
     5  C    2.319561   2.360549   1.477701   3.624640   0.000000
     6  C    1.349117   1.210899   2.546850   2.338030   1.447059
     7  H    4.331381   3.679027   1.093202   5.543865   2.128597
     8  H    3.938003   2.498077   1.087032   4.881143   2.118931
     9  H    4.331385   3.679038   1.093202   5.543872   2.128596
    10  H    2.012935   3.681406   5.700886   1.084955   4.332108
    11  H    2.071755   2.609673   5.084295   1.088652   3.972092
    12  H    2.071756   2.609672   5.084295   1.088652   3.972093
    13  H    2.472966   3.284039   2.237106   3.893393   1.080046
                    6          7          8          9         10
     6  C    0.000000
     7  H    3.274310   0.000000
     8  H    2.614978   1.775405   0.000000
     9  H    3.274317   1.750395   1.775405   0.000000
    10  H    3.222767   6.313716   5.828632   6.313721   0.000000
    11  H    2.632387   5.628801   4.947225   5.897546   1.786665
    12  H    2.632387   5.897540   4.947221   5.628812   1.786666
    13  H    2.170846   2.610762   3.101281   2.610757   4.360259
                   11         12         13
    11  H    0.000000
    12  H    1.769631   0.000000
    13  H    4.374609   4.374610   0.000000
 Stoichiometry    C4H7O2(2)
 Framework group  C1[X(C4H7O2)]
 Deg. of freedom    33
 Full point group                 C1      NOp   1
 Largest Abelian subgroup         C1      NOp   1
 Largest concise Abelian subgroup C1      NOp   1
                         Standard orientation:                         
 ---------------------------------------------------------------------
 Center     Atomic      Atomic             Coordinates (Angstroms)
 Number     Number       Type             X           Y           Z
 ---------------------------------------------------------------------
      1          8           0        1.110121   -0.722104   -0.000000
      2          8           0        0.106429    1.291348   -0.000000
      3          6           0       -2.518381    0.015767   -0.000000
      4          6           0        2.362013   -0.046647   -0.000000
      5          6           0       -1.208828   -0.668828   -0.000000
      6          6           0        0.027581    0.083019   -0.000000
      7          1           0       -3.107769   -0.270122    0.875203
      8          1           0       -2.383876    1.094445   -0.000010
      9          1           0       -3.107777   -0.270138   -0.875192
     10          1           0        3.120558   -0.822364   -0.000000
     11          1           0        2.456374    0.580537    0.884816
     12          1           0        2.456374    0.580539   -0.884815
     13          1           0       -1.140596   -1.746717    0.000002
 ---------------------------------------------------------------------
 Rotational constants (GHZ):          10.2330945           2.1776562           1.8362894
 Leave Link  202 at Mon Mar 11 15:45:01 2019, MaxMem=   671088640 cpu:               0.2 elap:               0.0
 (Enter /shared/centos7/gaussian/g16/l301.exe)
 Standard basis: 6-311+G(2df,2p) (5D, 7F)
 Ernie: Thresh=  0.10000D-02 Tol=  0.10000D-05 Strict=F.
 There are   297 symmetry adapted cartesian basis functions of A   symmetry.
 There are   267 symmetry adapted basis functions of A   symmetry.
   267 basis functions,   389 primitive gaussians,   297 cartesian basis functions
    24 alpha electrons       23 beta electrons
       nuclear repulsion energy       235.7903011262 Hartrees.
 IExCor= 4336 DFT=T Ex+Corr=M062X ExCW=0 ScaHFX=  0.540000
 ScaDFX=  1.000000  1.000000  1.000000  1.000000 ScalE2=  1.000000  1.000000
 IRadAn=      5 IRanWt=     -1 IRanGd=            0 ICorTp=0 IEmpDi=  4
 NAtoms=   13 NActive=   13 NUniq=   13 SFac= 1.00D+00 NAtFMM=   60 NAOKFM=F Big=F
 Integral buffers will be    131072 words long.
 Raffenetti 2 integral format.
 Two-electron integral symmetry is turned on.
 Leave Link  301 at Mon Mar 11 15:45:01 2019, MaxMem=   671088640 cpu:               0.9 elap:               0.1
 (Enter /shared/centos7/gaussian/g16/l302.exe)
 NPDir=0 NMtPBC=     1 NCelOv=     1 NCel=       1 NClECP=     1 NCelD=      1
         NCelK=      1 NCelE2=     1 NClLst=     1 CellRange=     0.0.
 One-electron integrals computed using PRISM.
 One-electron integral symmetry used in STVInt
 NBasis=   267 RedAO= T EigKep=  3.04D-05  NBF=   267
 NBsUse=   267 1.00D-06 EigRej= -1.00D+00 NBFU=   267
 Precomputing XC quadrature grid using
 IXCGrd= 4 IRadAn=           5 IRanWt=          -1 IRanGd=           0 AccXCQ= 0.00D+00.
 Generated NRdTot=       0 NPtTot=           0 NUsed=           0 NTot=          32
 NSgBfM=   297   297   297   297   297 MxSgAt=    13 MxSgA2=    13.
 Leave Link  302 at Mon Mar 11 15:45:02 2019, MaxMem=   671088640 cpu:               5.6 elap:               0.3
 (Enter /shared/centos7/gaussian/g16/l303.exe)
 DipDrv:  MaxL=1.
 Leave Link  303 at Mon Mar 11 15:45:02 2019, MaxMem=   671088640 cpu:               0.5 elap:               0.0
 (Enter /shared/centos7/gaussian/g16/l401.exe)
 ExpMin= 4.38D-02 ExpMax= 8.59D+03 ExpMxC= 1.30D+03 IAcc=3 IRadAn=         5 AccDes= 0.00D+00
 Harris functional with IExCor= 1009 and IRadAn=       5 diagonalized for initial guess.
 HarFok:  IExCor= 1009 AccDes= 0.00D+00 IRadAn=         5 IDoV= 1 UseB2=F ITyADJ=14
 ICtDFT=  3500011 ScaDFX=  1.000000  1.000000  1.000000  1.000000
 FoFCou: FMM=F IPFlag=           0 FMFlag=      100000 FMFlg1=           0
         NFxFlg=           0 DoJE=T BraDBF=F KetDBF=T FulRan=T
         wScrn=  0.000000 ICntrl=       500 IOpCl=  0 I1Cent=   200000004 NGrid=           0
         NMat0=    1 NMatS0=      1 NMatT0=    0 NMatD0=    1 NMtDS0=    0 NMtDT0=    0
 Petite list used in FoFCou.
 Harris En= -306.888641131966    
 JPrj=0 DoOrth=F DoCkMO=F.
 Initial guess <Sx>= 0.0000 <Sy>= 0.0000 <Sz>= 0.5000 <S**2>= 0.7500 S= 0.5000
 Leave Link  401 at Mon Mar 11 15:45:03 2019, MaxMem=   671088640 cpu:              16.2 elap:               0.8
 (Enter /shared/centos7/gaussian/g16/l502.exe)
 Integral symmetry usage will be decided dynamically.
 UHF open shell SCF:
 Using DIIS extrapolation, IDIIS=  1040.
 NGot=   671088640 LenX=   670903575 LenY=   670814925
 Requested convergence on RMS density matrix=1.00D-08 within 128 cycles.
 Requested convergence on MAX density matrix=1.00D-06.
 Requested convergence on             energy=1.00D-06.
 No special actions if energy rises.
 Fock matrices will be formed incrementally for  20 cycles.

 Cycle   1  Pass 1  IDiag  1:
 FoFJK:  IHMeth= 1 ICntrl=       0 DoSepK=F KAlg= 0 I1Cent=           0 FoldK=F
 IRaf= 950000000 NMat=       1 IRICut=       1 DoRegI=T DoRafI=F ISym2E= 0 IDoP0=0 IntGTp=1.
 FoFCou: FMM=F IPFlag=           0 FMFlag=      100000 FMFlg1=           0
         NFxFlg=           0 DoJE=F BraDBF=F KetDBF=F FulRan=T
         wScrn=  0.000000 ICntrl=         0 IOpCl=  1 I1Cent=           0 NGrid=           0
         NMat0=    1 NMatS0=      1 NMatT0=    0 NMatD0=    1 NMtDS0=    0 NMtDT0=    0
 Symmetry not used in FoFCou.
 E= -306.834038088310    
 DIIS: error= 3.61D-02 at cycle   1 NSaved=   1.
 NSaved= 1 IEnMin= 1 EnMin= -306.834038088310     IErMin= 1 ErrMin= 3.61D-02
 ErrMax= 3.61D-02  0.00D+00 EMaxC= 1.00D-01 BMatC= 1.03D+00 BMatP= 1.03D+00
 IDIUse=3 WtCom= 6.39D-01 WtEn= 3.61D-01
 Coeff-Com:  0.100D+01
 Coeff-En:   0.100D+01
 Coeff:      0.100D+01
 Gap=     0.361 Goal=   None    Shift=    0.000
 Gap=     0.210 Goal=   None    Shift=    0.000
 GapD=    0.210 DampG=1.000 DampE=0.500 DampFc=0.5000 IDamp=-1.
 Damping current iteration by 5.00D-01
 RMSDP=4.00D-03 MaxDP=3.20D-01              OVMax= 2.35D-01

 Cycle   2  Pass 1  IDiag  1:
 RMSU=  1.99D-03    CP:  1.02D+00
 E= -306.920071954417     Delta-E=       -0.086033866107 Rises=F Damp=T
 DIIS: error= 6.75D-03 at cycle   2 NSaved=   2.
 NSaved= 2 IEnMin= 2 EnMin= -306.920071954417     IErMin= 2 ErrMin= 6.75D-03
 ErrMax= 6.75D-03  0.00D+00 EMaxC= 1.00D-01 BMatC= 9.62D-02 BMatP= 1.03D+00
 IDIUse=3 WtCom= 9.32D-01 WtEn= 6.75D-02
 Coeff-Com: -0.135D-01 0.101D+01
 Coeff-En:   0.000D+00 0.100D+01
 Coeff:     -0.126D-01 0.101D+01
 Gap=     0.307 Goal=   None    Shift=    0.000
 Gap=     0.312 Goal=   None    Shift=    0.000
 RMSDP=1.91D-03 MaxDP=2.35D-01 DE=-8.60D-02 OVMax= 1.17D-01

 Cycle   3  Pass 1  IDiag  1:
 RMSU=  1.37D-03    CP:  9.59D-01  4.12D-01
 E= -307.006381497105     Delta-E=       -0.086309542687 Rises=F Damp=F
 DIIS: error= 1.16D-02 at cycle   3 NSaved=   3.
 NSaved= 3 IEnMin= 3 EnMin= -307.006381497105     IErMin= 2 ErrMin= 6.75D-03
 ErrMax= 1.16D-02  0.00D+00 EMaxC= 1.00D-01 BMatC= 7.27D-02 BMatP= 9.62D-02
 IDIUse=3 WtCom= 8.84D-01 WtEn= 1.16D-01
 Coeff-Com: -0.915D-01 0.503D+00 0.588D+00
 Coeff-En:   0.000D+00 0.000D+00 0.100D+01
 Coeff:     -0.809D-01 0.445D+00 0.636D+00
 Gap=     0.305 Goal=   None    Shift=    0.000
 Gap=     0.294 Goal=   None    Shift=    0.000
 RMSDP=4.60D-04 MaxDP=1.87D-02 DE=-8.63D-02 OVMax= 6.77D-02

 Cycle   4  Pass 1  IDiag  1:
 RMSU=  4.20D-04    CP:  9.60D-01  5.05D-01  9.95D-01
 E= -307.017455541362     Delta-E=       -0.011074044258 Rises=F Damp=F
 DIIS: error= 3.90D-03 at cycle   4 NSaved=   4.
 NSaved= 4 IEnMin= 4 EnMin= -307.017455541362     IErMin= 4 ErrMin= 3.90D-03
 ErrMax= 3.90D-03  0.00D+00 EMaxC= 1.00D-01 BMatC= 1.37D-02 BMatP= 7.27D-02
 IDIUse=3 WtCom= 9.61D-01 WtEn= 3.90D-02
 Coeff-Com: -0.283D-01 0.709D-01 0.333D+00 0.624D+00
 Coeff-En:   0.000D+00 0.000D+00 0.146D+00 0.854D+00
 Coeff:     -0.272D-01 0.682D-01 0.326D+00 0.633D+00
 Gap=     0.300 Goal=   None    Shift=    0.000
 Gap=     0.285 Goal=   None    Shift=    0.000
 RMSDP=2.12D-04 MaxDP=1.82D-02 DE=-1.11D-02 OVMax= 1.40D-02

 Cycle   5  Pass 1  IDiag  1:
 RMSU=  8.14D-05    CP:  9.54D-01  4.36D-01  1.06D+00  7.89D-01
 E= -307.020020970329     Delta-E=       -0.002565428967 Rises=F Damp=F
 DIIS: error= 6.60D-04 at cycle   5 NSaved=   5.
 NSaved= 5 IEnMin= 5 EnMin= -307.020020970329     IErMin= 5 ErrMin= 6.60D-04
 ErrMax= 6.60D-04  0.00D+00 EMaxC= 1.00D-01 BMatC= 3.72D-04 BMatP= 1.37D-02
 IDIUse=3 WtCom= 9.93D-01 WtEn= 6.60D-03
 Coeff-Com: -0.495D-02 0.257D-02 0.928D-01 0.233D+00 0.677D+00
 Coeff-En:   0.000D+00 0.000D+00 0.000D+00 0.000D+00 0.100D+01
 Coeff:     -0.491D-02 0.255D-02 0.922D-01 0.231D+00 0.679D+00
 Gap=     0.299 Goal=   None    Shift=    0.000
 Gap=     0.286 Goal=   None    Shift=    0.000
 RMSDP=3.75D-05 MaxDP=2.17D-03 DE=-2.57D-03 OVMax= 6.85D-03

 Cycle   6  Pass 1  IDiag  1:
 RMSU=  2.90D-05    CP:  9.53D-01  4.29D-01  1.07D+00  8.12D-01  1.05D+00
 E= -307.020124732858     Delta-E=       -0.000103762529 Rises=F Damp=F
 DIIS: error= 3.68D-04 at cycle   6 NSaved=   6.
 NSaved= 6 IEnMin= 6 EnMin= -307.020124732858     IErMin= 6 ErrMin= 3.68D-04
 ErrMax= 3.68D-04  0.00D+00 EMaxC= 1.00D-01 BMatC= 9.20D-05 BMatP= 3.72D-04
 IDIUse=3 WtCom= 9.96D-01 WtEn= 3.68D-03
 Coeff-Com:  0.445D-02-0.151D-01-0.367D-01-0.608D-01 0.257D+00 0.851D+00
 Coeff-En:   0.000D+00 0.000D+00 0.000D+00 0.000D+00 0.000D+00 0.100D+01
 Coeff:      0.444D-02-0.150D-01-0.366D-01-0.606D-01 0.256D+00 0.852D+00
 Gap=     0.300 Goal=   None    Shift=    0.000
 Gap=     0.287 Goal=   None    Shift=    0.000
 RMSDP=3.10D-05 MaxDP=2.03D-03 DE=-1.04D-04 OVMax= 4.09D-03

 Cycle   7  Pass 1  IDiag  1:
 RMSU=  1.61D-05    CP:  9.53D-01  4.21D-01  1.08D+00  8.26D-01  1.23D+00
                    CP:  1.20D+00
 E= -307.020165757793     Delta-E=       -0.000041024934 Rises=F Damp=F
 DIIS: error= 1.07D-04 at cycle   7 NSaved=   7.
 NSaved= 7 IEnMin= 7 EnMin= -307.020165757793     IErMin= 7 ErrMin= 1.07D-04
 ErrMax= 1.07D-04  0.00D+00 EMaxC= 1.00D-01 BMatC= 1.36D-05 BMatP= 9.20D-05
 IDIUse=3 WtCom= 9.99D-01 WtEn= 1.07D-03
 Coeff-Com:  0.246D-02-0.414D-02-0.291D-01-0.766D-01-0.104D+00 0.183D+00
 Coeff-Com:  0.103D+01
 Coeff-En:   0.000D+00 0.000D+00 0.000D+00 0.000D+00 0.000D+00 0.000D+00
 Coeff-En:   0.100D+01
 Coeff:      0.246D-02-0.414D-02-0.290D-01-0.766D-01-0.104D+00 0.182D+00
 Coeff:      0.103D+01
 Gap=     0.301 Goal=   None    Shift=    0.000
 Gap=     0.288 Goal=   None    Shift=    0.000
 RMSDP=1.71D-05 MaxDP=1.07D-03 DE=-4.10D-05 OVMax= 3.34D-03

 Cycle   8  Pass 1  IDiag  1:
 RMSU=  7.56D-06    CP:  9.52D-01  4.17D-01  1.08D+00  8.26D-01  1.33D+00
                    CP:  1.46D+00  1.31D+00
 E= -307.020175995063     Delta-E=       -0.000010237270 Rises=F Damp=F
 DIIS: error= 7.52D-05 at cycle   8 NSaved=   8.
 NSaved= 8 IEnMin= 8 EnMin= -307.020175995063     IErMin= 8 ErrMin= 7.52D-05
 ErrMax= 7.52D-05  0.00D+00 EMaxC= 1.00D-01 BMatC= 2.11D-06 BMatP= 1.36D-05
 IDIUse=1 WtCom= 1.00D+00 WtEn= 0.00D+00
 Coeff-Com:  0.168D-03 0.440D-03-0.185D-02-0.128D-01-0.540D-01-0.399D-01
 Coeff-Com:  0.272D+00 0.836D+00
 Coeff:      0.168D-03 0.440D-03-0.185D-02-0.128D-01-0.540D-01-0.399D-01
 Coeff:      0.272D+00 0.836D+00
 Gap=     0.301 Goal=   None    Shift=    0.000
 Gap=     0.288 Goal=   None    Shift=    0.000
 RMSDP=4.31D-06 MaxDP=1.94D-04 DE=-1.02D-05 OVMax= 9.43D-04

 Cycle   9  Pass 1  IDiag  1:
 RMSU=  2.76D-06    CP:  9.52D-01  4.17D-01  1.08D+00  8.24D-01  1.33D+00
                    CP:  1.51D+00  1.43D+00  1.19D+00
 E= -307.020177341602     Delta-E=       -0.000001346539 Rises=F Damp=F
 DIIS: error= 4.22D-05 at cycle   9 NSaved=   9.
 NSaved= 9 IEnMin= 9 EnMin= -307.020177341602     IErMin= 9 ErrMin= 4.22D-05
 ErrMax= 4.22D-05  0.00D+00 EMaxC= 1.00D-01 BMatC= 4.48D-07 BMatP= 2.11D-06
 IDIUse=1 WtCom= 1.00D+00 WtEn= 0.00D+00
 Coeff-Com: -0.570D-03 0.113D-02 0.748D-02 0.167D-01 0.134D-01-0.534D-01
 Coeff-Com: -0.216D+00 0.122D+00 0.111D+01
 Coeff:     -0.570D-03 0.113D-02 0.748D-02 0.167D-01 0.134D-01-0.534D-01
 Coeff:     -0.216D+00 0.122D+00 0.111D+01
 Gap=     0.301 Goal=   None    Shift=    0.000
 Gap=     0.288 Goal=   None    Shift=    0.000
 RMSDP=3.21D-06 MaxDP=1.69D-04 DE=-1.35D-06 OVMax= 7.59D-04

 Cycle  10  Pass 1  IDiag  1:
 RMSU=  1.45D-06    CP:  9.52D-01  4.17D-01  1.08D+00  8.22D-01  1.33D+00
                    CP:  1.54D+00  1.51D+00  1.46D+00  1.39D+00
 E= -307.020177877698     Delta-E=       -0.000000536096 Rises=F Damp=F
 DIIS: error= 1.74D-05 at cycle  10 NSaved=  10.
 NSaved=10 IEnMin=10 EnMin= -307.020177877698     IErMin=10 ErrMin= 1.74D-05
 ErrMax= 1.74D-05  0.00D+00 EMaxC= 1.00D-01 BMatC= 6.72D-08 BMatP= 4.48D-07
 IDIUse=1 WtCom= 1.00D+00 WtEn= 0.00D+00
 Coeff-Com:  0.144D-03-0.397D-03-0.132D-02-0.159D-02 0.677D-02 0.177D-01
 Coeff-Com:  0.502D-02-0.190D+00-0.222D+00 0.139D+01
 Coeff:      0.144D-03-0.397D-03-0.132D-02-0.159D-02 0.677D-02 0.177D-01
 Coeff:      0.502D-02-0.190D+00-0.222D+00 0.139D+01
 Gap=     0.301 Goal=   None    Shift=    0.000
 Gap=     0.288 Goal=   None    Shift=    0.000
 RMSDP=1.56D-06 MaxDP=9.63D-05 DE=-5.36D-07 OVMax= 3.96D-04

 Cycle  11  Pass 1  IDiag  1:
 RMSU=  5.69D-07    CP:  9.52D-01  4.17D-01  1.08D+00  8.22D-01  1.33D+00
                    CP:  1.54D+00  1.52D+00  1.54D+00  1.73D+00  1.61D+00
 E= -307.020177990076     Delta-E=       -0.000000112377 Rises=F Damp=F
 DIIS: error= 6.65D-06 at cycle  11 NSaved=  11.
 NSaved=11 IEnMin=11 EnMin= -307.020177990076     IErMin=11 ErrMin= 6.65D-06
 ErrMax= 6.65D-06  0.00D+00 EMaxC= 1.00D-01 BMatC= 9.45D-09 BMatP= 6.72D-08
 IDIUse=1 WtCom= 1.00D+00 WtEn= 0.00D+00
 Coeff-Com:  0.976D-04-0.201D-03-0.109D-02-0.253D-02-0.805D-03 0.688D-02
 Coeff-Com:  0.318D-01-0.372D-01-0.172D+00 0.103D+00 0.107D+01
 Coeff:      0.976D-04-0.201D-03-0.109D-02-0.253D-02-0.805D-03 0.688D-02
 Coeff:      0.318D-01-0.372D-01-0.172D+00 0.103D+00 0.107D+01
 Gap=     0.301 Goal=   None    Shift=    0.000
 Gap=     0.288 Goal=   None    Shift=    0.000
 RMSDP=5.62D-07 MaxDP=3.19D-05 DE=-1.12D-07 OVMax= 1.17D-04

 Cycle  12  Pass 1  IDiag  1:
 RMSU=  1.74D-07    CP:  9.52D-01  4.17D-01  1.08D+00  8.22D-01  1.33D+00
                    CP:  1.54D+00  1.53D+00  1.55D+00  1.81D+00  1.86D+00
                    CP:  1.32D+00
 E= -307.020178000877     Delta-E=       -0.000000010802 Rises=F Damp=F
 DIIS: error= 1.23D-06 at cycle  12 NSaved=  12.
 NSaved=12 IEnMin=12 EnMin= -307.020178000877     IErMin=12 ErrMin= 1.23D-06
 ErrMax= 1.23D-06  0.00D+00 EMaxC= 1.00D-01 BMatC= 1.79D-09 BMatP= 9.45D-09
 IDIUse=1 WtCom= 1.00D+00 WtEn= 0.00D+00
 Coeff-Com:  0.917D-05-0.716D-05-0.162D-03-0.596D-03-0.111D-02-0.432D-03
 Coeff-Com:  0.101D-01 0.142D-01-0.207D-01-0.173D+00 0.358D+00 0.814D+00
 Coeff:      0.917D-05-0.716D-05-0.162D-03-0.596D-03-0.111D-02-0.432D-03
 Coeff:      0.101D-01 0.142D-01-0.207D-01-0.173D+00 0.358D+00 0.814D+00
 Gap=     0.301 Goal=   None    Shift=    0.000
 Gap=     0.288 Goal=   None    Shift=    0.000
 RMSDP=1.38D-07 MaxDP=8.44D-06 DE=-1.08D-08 OVMax= 2.72D-05

 Cycle  13  Pass 1  IDiag  1:
 RMSU=  7.21D-08    CP:  9.52D-01  4.17D-01  1.08D+00  8.22D-01  1.33D+00
                    CP:  1.54D+00  1.53D+00  1.55D+00  1.83D+00  1.91D+00
                    CP:  1.46D+00  1.14D+00
 E= -307.020178001785     Delta-E=       -0.000000000907 Rises=F Damp=F
 DIIS: error= 3.86D-07 at cycle  13 NSaved=  13.
 NSaved=13 IEnMin=13 EnMin= -307.020178001785     IErMin=13 ErrMin= 3.86D-07
 ErrMax= 3.86D-07  0.00D+00 EMaxC= 1.00D-01 BMatC= 1.07D-10 BMatP= 1.79D-09
 IDIUse=1 WtCom= 1.00D+00 WtEn= 0.00D+00
 Coeff-Com: -0.121D-04 0.264D-04 0.118D-03 0.247D-03-0.955D-04-0.979D-03
 Coeff-Com: -0.279D-02 0.668D-02 0.224D-01-0.416D-01-0.914D-01 0.103D+00
 Coeff-Com:  0.100D+01
 Coeff:     -0.121D-04 0.264D-04 0.118D-03 0.247D-03-0.955D-04-0.979D-03
 Coeff:     -0.279D-02 0.668D-02 0.224D-01-0.416D-01-0.914D-01 0.103D+00
 Coeff:      0.100D+01
 Gap=     0.301 Goal=   None    Shift=    0.000
 Gap=     0.288 Goal=   None    Shift=    0.000
 RMSDP=4.93D-08 MaxDP=3.11D-06 DE=-9.07D-10 OVMax= 7.10D-06

 Cycle  14  Pass 1  IDiag  1:
 RMSU=  1.73D-08    CP:  9.52D-01  4.17D-01  1.08D+00  8.22D-01  1.33D+00
                    CP:  1.54D+00  1.53D+00  1.55D+00  1.83D+00  1.91D+00
                    CP:  1.50D+00  1.28D+00  1.16D+00
 E= -307.020178001858     Delta-E=       -0.000000000074 Rises=F Damp=F
 DIIS: error= 8.64D-08 at cycle  14 NSaved=  14.
 NSaved=14 IEnMin=14 EnMin= -307.020178001858     IErMin=14 ErrMin= 8.64D-08
 ErrMax= 8.64D-08  0.00D+00 EMaxC= 1.00D-01 BMatC= 7.07D-12 BMatP= 1.07D-10
 IDIUse=1 WtCom= 1.00D+00 WtEn= 0.00D+00
 Coeff-Com:  0.410D-06-0.143D-05 0.730D-05 0.228D-04 0.664D-04 0.457D-04
 Coeff-Com: -0.467D-03-0.120D-02 0.232D-03 0.124D-01-0.176D-01-0.554D-01
 Coeff-Com: -0.612D-01 0.112D+01
 Coeff:      0.410D-06-0.143D-05 0.730D-05 0.228D-04 0.664D-04 0.457D-04
 Coeff:     -0.467D-03-0.120D-02 0.232D-03 0.124D-01-0.176D-01-0.554D-01
 Coeff:     -0.612D-01 0.112D+01
 Gap=     0.301 Goal=   None    Shift=    0.000
 Gap=     0.288 Goal=   None    Shift=    0.000
 RMSDP=1.16D-08 MaxDP=5.80D-07 DE=-7.37D-11 OVMax= 1.28D-06

 Cycle  15  Pass 1  IDiag  1:
 RMSU=  5.65D-09    CP:  9.52D-01  4.17D-01  1.08D+00  8.22D-01  1.33D+00
                    CP:  1.54D+00  1.53D+00  1.55D+00  1.83D+00  1.91D+00
                    CP:  1.50D+00  1.30D+00  1.23D+00  1.27D+00
 E= -307.020178001861     Delta-E=       -0.000000000003 Rises=F Damp=F
 DIIS: error= 2.71D-08 at cycle  15 NSaved=  15.
 NSaved=15 IEnMin=15 EnMin= -307.020178001861     IErMin=15 ErrMin= 2.71D-08
 ErrMax= 2.71D-08  0.00D+00 EMaxC= 1.00D-01 BMatC= 6.43D-13 BMatP= 7.07D-12
 IDIUse=1 WtCom= 1.00D+00 WtEn= 0.00D+00
 Coeff-Com:  0.107D-05-0.232D-05-0.859D-05-0.192D-04 0.183D-05 0.812D-04
 Coeff-Com:  0.214D-03-0.501D-03-0.182D-02 0.354D-02 0.657D-02-0.907D-02
 Coeff-Com: -0.787D-01-0.541D-02 0.109D+01
 Coeff:      0.107D-05-0.232D-05-0.859D-05-0.192D-04 0.183D-05 0.812D-04
 Coeff:      0.214D-03-0.501D-03-0.182D-02 0.354D-02 0.657D-02-0.907D-02
 Coeff:     -0.787D-01-0.541D-02 0.109D+01
 Gap=     0.301 Goal=   None    Shift=    0.000
 Gap=     0.288 Goal=   None    Shift=    0.000
 RMSDP=2.92D-09 MaxDP=1.14D-07 DE=-2.73D-12 OVMax= 4.47D-07

 SCF Done:  E(UM062X) =  -307.020178002     A.U. after   15 cycles
            NFock= 15  Conv=0.29D-08     -V/T= 2.0035
 <Sx>= 0.0000 <Sy>= 0.0000 <Sz>= 0.5000 <S**2>= 0.7584 S= 0.5042
 <L.S>= 0.000000000000E+00
 KE= 3.059455157402D+02 PE=-1.190077384798D+03 EE= 3.413213899293D+02
 Annihilation of the first spin contaminant:
 S**2 before annihilation     0.7584,   after     0.7501
 Leave Link  502 at Mon Mar 11 15:45:49 2019, MaxMem=   671088640 cpu:             929.6 elap:              46.5
 (Enter /shared/centos7/gaussian/g16/l801.exe)
 DoSCS=F DFT=T ScalE2(SS,OS)=  1.000000  1.000000
 Range of M.O.s used for correlation:     1   267
 NBasis=   267 NAE=    24 NBE=    23 NFC=     0 NFV=     0
 NROrb=    267 NOA=    24 NOB=    23 NVA=   243 NVB=   244

 **** Warning!!: The largest alpha MO coefficient is  0.60434233D+02


 **** Warning!!: The largest beta MO coefficient is  0.61516802D+02

 Leave Link  801 at Mon Mar 11 15:45:49 2019, MaxMem=   671088640 cpu:               0.5 elap:               0.0
 (Enter /shared/centos7/gaussian/g16/l1101.exe)
 Using compressed storage, NAtomX=    13.
 Will process     14 centers per pass.
 Leave Link 1101 at Mon Mar 11 15:45:50 2019, MaxMem=   671088640 cpu:               5.7 elap:               0.3
 (Enter /shared/centos7/gaussian/g16/l1102.exe)
 Symmetrizing basis deriv contribution to polar:
 IMax=3 JMax=2 DiffMx= 0.00D+00
 Leave Link 1102 at Mon Mar 11 15:45:50 2019, MaxMem=   671088640 cpu:               0.5 elap:               0.1
 (Enter /shared/centos7/gaussian/g16/l1110.exe)
 Forming Gx(P) for the SCF density, NAtomX=    13.
 Integral derivatives from FoFJK, PRISM(SPDF).
 Do as many integral derivatives as possible in FoFJK.
 G2DrvN: MDV=     671087568.
 G2DrvN: will do    14 centers at a time, making    1 passes.
 Calling FoFCou, ICntrl=  3107 FMM=F I1Cent=   0 AccDes= 0.00D+00.
 FoFJK:  IHMeth= 1 ICntrl=    3107 DoSepK=F KAlg= 0 I1Cent=           0 FoldK=F
 IRaf=         0 NMat=       1 IRICut=       1 DoRegI=T DoRafI=F ISym2E= 0 IDoP0=0 IntGTp=1.
 FoFCou: FMM=F IPFlag=           0 FMFlag=      100000 FMFlg1=           0
         NFxFlg=           0 DoJE=F BraDBF=F KetDBF=F FulRan=T
         wScrn=  0.000000 ICntrl=      3107 IOpCl=  1 I1Cent=           0 NGrid=           0
         NMat0=    1 NMatS0=      1 NMatT0=    0 NMatD0=    1 NMtDS0=    0 NMtDT0=    0
 Symmetry not used in FoFCou.
 End of G2Drv F.D. properties file   721 does not exist.
 End of G2Drv F.D. properties file   722 does not exist.
 End of G2Drv F.D. properties file   788 does not exist.
 Leave Link 1110 at Mon Mar 11 15:47:08 2019, MaxMem=   671088640 cpu:            1571.5 elap:              78.6
 (Enter /shared/centos7/gaussian/g16/l1002.exe)
 Minotr:  UHF open shell wavefunction.
          IDoAtm=1111111111111
          Direct CPHF calculation.
          Differentiating once with respect to nuclear coordinates.
          Requested convergence is 1.0D-08 RMS, and 1.0D-07 maximum.
          Secondary convergence is 1.0D-12 RMS, and 1.0D-12 maximum.
          NewPWx=T KeepS1=F KeepF1=F KeepIn=T MapXYZ=F SortEE=F KeepMc=T.
         3966 words used for storage of precomputed grid.
 Two-electron integrals replicated using symmetry.
          MDV=     671088640 using IRadAn=       1.
          Solving linear equations simultaneously, MaxMat=     380.
 FoF2E skips out because all densities are zero.
 CalDSu exits because no D1Ps are significant.
 FoFJK:  IHMeth= 1 ICntrl=       0 DoSepK=F KAlg= 0 I1Cent=           0 FoldK=F
 IRaf= 940000000 NMat=      39 IRICut=      97 DoRegI=T DoRafI=T ISym2E= 2 IDoP0=3 IntGTp=3.
 FoFCou: FMM=F IPFlag=           0 FMFlag=      100000 FMFlg1=           0
         NFxFlg=           0 DoJE=F BraDBF=F KetDBF=F FulRan=T
         wScrn=  0.000000 ICntrl=         0 IOpCl=  1 I1Cent=           0 NGrid=           0
         NMat0=   39 NMatS0=     39 NMatT0=    0 NMatD0=   39 NMtDS0=    0 NMtDT0=    0
 Integrals replicated using symmetry in FoFCou.
 Raff kept on since  91.74% of shell-pairs survive, threshold=   0.20 IRatSp=92.
          There are    42 degrees of freedom in the 1st order CPHF.  IDoFFX=6 NUNeed=     0.
     36 vectors produced by pass  0 Test12= 2.72D-14 2.38D-09 XBig12= 1.57D-01 1.35D-01.
 AX will form    36 AO Fock derivatives at one time.
     36 vectors produced by pass  1 Test12= 2.72D-14 2.38D-09 XBig12= 1.84D-02 4.07D-02.
     36 vectors produced by pass  2 Test12= 2.72D-14 2.38D-09 XBig12= 7.85D-04 9.37D-03.
     36 vectors produced by pass  3 Test12= 2.72D-14 2.38D-09 XBig12= 1.21D-05 9.43D-04.
     36 vectors produced by pass  4 Test12= 2.72D-14 2.38D-09 XBig12= 1.24D-07 4.00D-05.
     36 vectors produced by pass  5 Test12= 2.72D-14 2.38D-09 XBig12= 1.42D-09 5.15D-06.
     36 vectors produced by pass  6 Test12= 2.72D-14 2.38D-09 XBig12= 1.49D-11 6.48D-07.
     18 vectors produced by pass  7 Test12= 2.72D-14 2.38D-09 XBig12= 1.37D-13 3.56D-08.
      4 vectors produced by pass  8 Test12= 2.72D-14 2.38D-09 XBig12= 1.26D-15 4.16D-09.
 InvSVY:  IOpt=1 It=  1 EMax= 1.78D-15
 Solved reduced A of dimension   274 with    36 vectors.
 End of Minotr F.D. properties file   721 does not exist.
 End of Minotr F.D. properties file   722 does not exist.
 End of Minotr F.D. properties file   788 does not exist.
 Leave Link 1002 at Mon Mar 11 15:49:05 2019, MaxMem=   671088640 cpu:            2336.5 elap:             116.9
 (Enter /shared/centos7/gaussian/g16/l601.exe)
 Copying SCF densities to generalized density rwf, IOpCl= 1 IROHF=0.

 **********************************************************************

            Population analysis using the SCF density.

 **********************************************************************

 Orbital symmetries:
 Alpha Orbitals:
       Occupied  (A) (A) (A) (A) (A) (A) (A) (A) (A) (A) (A) (A)
                 (A) (A) (A) (A) (A) (A) (A) (A) (A) (A) (A) (A)
       Virtual   (A) (A) (A) (A) (A) (A) (A) (A) (A) (A) (A) (A)
                 (A) (A) (A) (A) (A) (A) (A) (A) (A) (A) (A) (A)
                 (A) (A) (A) (A) (A) (A) (A) (A) (A) (A) (A) (A)
                 (A) (A) (A) (A) (A) (A) (A) (A) (A) (A) (A) (A)
                 (A) (A) (A) (A) (A) (A) (A) (A) (A) (A) (A) (A)
                 (A) (A) (A) (A) (A) (A) (A) (A) (A) (A) (A) (A)
                 (A) (A) (A) (A) (A) (A) (A) (A) (A) (A) (A) (A)
                 (A) (A) (A) (A) (A) (A) (A) (A) (A) (A) (A) (A)
                 (A) (A) (A) (A) (A) (A) (A) (A) (A) (A) (A) (A)
                 (A) (A) (A) (A) (A) (A) (A) (A) (A) (A) (A) (A)
                 (A) (A) (A) (A) (A) (A) (A) (A) (A) (A) (A) (A)
                 (A) (A) (A) (A) (A) (A) (A) (A) (A) (A) (A) (A)
                 (A) (A) (A) (A) (A) (A) (A) (A) (A) (A) (A) (A)
                 (A) (A) (A) (A) (A) (A) (A) (A) (A) (A) (A) (A)
                 (A) (A) (A) (A) (A) (A) (A) (A) (A) (A) (A) (A)
                 (A) (A) (A) (A) (A) (A) (A) (A) (A) (A) (A) (A)
                 (A) (A) (A) (A) (A) (A) (A) (A) (A) (A) (A) (A)
                 (A) (A) (A) (A) (A) (A) (A) (A) (A) (A) (A) (A)
                 (A) (A) (A) (A) (A) (A) (A) (A) (A) (A) (A) (A)
                 (A) (A) (A) (A) (A) (A) (A) (A) (A) (A) (A) (A)
                 (A) (A) (A)
 Beta  Orbitals:
       Occupied  (A) (A) (A) (A) (A) (A) (A) (A) (A) (A) (A) (A)
                 (A) (A) (A) (A) (A) (A) (A) (A) (A) (A) (A)
       Virtual   (A) (A) (A) (A) (A) (A) (A) (A) (A) (A) (A) (A)
                 (A) (A) (A) (A) (A) (A) (A) (A) (A) (A) (A) (A)
                 (A) (A) (A) (A) (A) (A) (A) (A) (A) (A) (A) (A)
                 (A) (A) (A) (A) (A) (A) (A) (A) (A) (A) (A) (A)
                 (A) (A) (A) (A) (A) (A) (A) (A) (A) (A) (A) (A)
                 (A) (A) (A) (A) (A) (A) (A) (A) (A) (A) (A) (A)
                 (A) (A) (A) (A) (A) (A) (A) (A) (A) (A) (A) (A)
                 (A) (A) (A) (A) (A) (A) (A) (A) (A) (A) (A) (A)
                 (A) (A) (A) (A) (A) (A) (A) (A) (A) (A) (A) (A)
                 (A) (A) (A) (A) (A) (A) (A) (A) (A) (A) (A) (A)
                 (A) (A) (A) (A) (A) (A) (A) (A) (A) (A) (A) (A)
                 (A) (A) (A) (A) (A) (A) (A) (A) (A) (A) (A) (A)
                 (A) (A) (A) (A) (A) (A) (A) (A) (A) (A) (A) (A)
                 (A) (A) (A) (A) (A) (A) (A) (A) (A) (A) (A) (A)
                 (A) (A) (A) (A) (A) (A) (A) (A) (A) (A) (A) (A)
                 (A) (A) (A) (A) (A) (A) (A) (A) (A) (A) (A) (A)
                 (A) (A) (A) (A) (A) (A) (A) (A) (A) (A) (A) (A)
                 (A) (A) (A) (A) (A) (A) (A) (A) (A) (A) (A) (A)
                 (A) (A) (A) (A) (A) (A) (A) (A) (A) (A) (A) (A)
                 (A) (A) (A) (A) (A) (A) (A) (A) (A) (A) (A) (A)
                 (A) (A) (A) (A)
 The electronic state is 2-A.
 Alpha  occ. eigenvalues --  -19.66487 -19.60905 -10.66401 -10.58610 -10.57731
 Alpha  occ. eigenvalues --  -10.54218  -1.23333  -1.13963  -0.90351  -0.82759
 Alpha  occ. eigenvalues --   -0.74009  -0.64122  -0.60020  -0.57210  -0.56148
 Alpha  occ. eigenvalues --   -0.51486  -0.50645  -0.47114  -0.46819  -0.44867
 Alpha  occ. eigenvalues --   -0.43142  -0.38327  -0.36232  -0.28844
 Alpha virt. eigenvalues --    0.01207   0.02485   0.03643   0.04684   0.05134
 Alpha virt. eigenvalues --    0.05745   0.06603   0.08026   0.08103   0.09184
 Alpha virt. eigenvalues --    0.10358   0.10394   0.11556   0.12048   0.14755
 Alpha virt. eigenvalues --    0.16274   0.18569   0.19475   0.20398   0.20928
 Alpha virt. eigenvalues --    0.20930   0.22538   0.23120   0.23688   0.26170
 Alpha virt. eigenvalues --    0.27291   0.27586   0.29169   0.29580   0.30631
 Alpha virt. eigenvalues --    0.32449   0.34079   0.34473   0.37352   0.40396
 Alpha virt. eigenvalues --    0.42740   0.43570   0.44607   0.45609   0.48903
 Alpha virt. eigenvalues --    0.50162   0.51803   0.53648   0.54564   0.54968
 Alpha virt. eigenvalues --    0.55229   0.56738   0.58495   0.59266   0.61920
 Alpha virt. eigenvalues --    0.63130   0.63637   0.65017   0.66094   0.66672
 Alpha virt. eigenvalues --    0.68430   0.70589   0.74181   0.77241   0.77811
 Alpha virt. eigenvalues --    0.80354   0.82812   0.85021   0.85385   0.88988
 Alpha virt. eigenvalues --    0.91373   0.91376   0.93011   0.98431   0.98888
 Alpha virt. eigenvalues --    1.02173   1.03852   1.07226   1.09198   1.11116
 Alpha virt. eigenvalues --    1.11569   1.13019   1.13534   1.14657   1.17410
 Alpha virt. eigenvalues --    1.18078   1.18689   1.19677   1.22854   1.24317
 Alpha virt. eigenvalues --    1.26998   1.27913   1.28808   1.31556   1.33641
 Alpha virt. eigenvalues --    1.35246   1.36025   1.39143   1.42166   1.42512
 Alpha virt. eigenvalues --    1.44747   1.45653   1.47153   1.48523   1.49087
 Alpha virt. eigenvalues --    1.52556   1.56746   1.58418   1.60913   1.66018
 Alpha virt. eigenvalues --    1.66304   1.72821   1.74630   1.78712   1.84329
 Alpha virt. eigenvalues --    1.89110   1.93337   2.03516   2.16719   2.17673
 Alpha virt. eigenvalues --    2.29984   2.36678   2.39148   2.40530   2.46161
 Alpha virt. eigenvalues --    2.51524   2.54543   2.58097   2.60445   2.66495
 Alpha virt. eigenvalues --    2.68002   2.74755   2.77065   2.79468   2.79797
 Alpha virt. eigenvalues --    2.83855   2.85692   2.93277   2.95477   2.96449
 Alpha virt. eigenvalues --    2.98877   2.99388   3.06170   3.07177   3.10083
 Alpha virt. eigenvalues --    3.12992   3.13624   3.14379   3.17640   3.18669
 Alpha virt. eigenvalues --    3.18832   3.19635   3.21251   3.24143   3.26971
 Alpha virt. eigenvalues --    3.30438   3.30848   3.37111   3.40352   3.40513
 Alpha virt. eigenvalues --    3.42154   3.45803   3.49490   3.50124   3.51350
 Alpha virt. eigenvalues --    3.52863   3.53053   3.55903   3.57433   3.60891
 Alpha virt. eigenvalues --    3.67251   3.68899   3.72513   3.75781   3.78455
 Alpha virt. eigenvalues --    3.84556   3.87567   3.88514   3.90008   3.90331
 Alpha virt. eigenvalues --    3.92681   3.98997   4.01327   4.07949   4.09390
 Alpha virt. eigenvalues --    4.12804   4.15165   4.15825   4.17861   4.21601
 Alpha virt. eigenvalues --    4.25047   4.29366   4.31197   4.31791   4.33966
 Alpha virt. eigenvalues --    4.36513   4.39039   4.40571   4.43094   4.47813
 Alpha virt. eigenvalues --    4.50144   4.52803   4.64383   4.83778   4.93338
 Alpha virt. eigenvalues --    5.04063   5.08519   5.11623   5.14298   5.20275
 Alpha virt. eigenvalues --    5.23814   5.26645   5.32011   5.39279   5.43542
 Alpha virt. eigenvalues --    5.45514   5.54055   5.55400   5.56705   5.58404
 Alpha virt. eigenvalues --    5.58821   5.63786   5.73034   5.74890   5.80634
 Alpha virt. eigenvalues --    5.97989   6.11241   6.33976   6.47661   6.70730
 Alpha virt. eigenvalues --    6.82216   6.95226   7.09978   7.11305   7.17352
 Alpha virt. eigenvalues --    7.18994   7.25007   7.30429   7.55524   7.67044
 Alpha virt. eigenvalues --    7.78891   7.82597  24.25968  24.44411  24.48782
 Alpha virt. eigenvalues --   24.91061  50.17744  50.32203
  Beta  occ. eigenvalues --  -19.66409 -19.60603 -10.66479 -10.58613 -10.57175
  Beta  occ. eigenvalues --  -10.54269  -1.22988  -1.13269  -0.88207  -0.82565
  Beta  occ. eigenvalues --   -0.72728  -0.63674  -0.59023  -0.56293  -0.55652
  Beta  occ. eigenvalues --   -0.51004  -0.48601  -0.46395  -0.45558  -0.44647
  Beta  occ. eigenvalues --   -0.42936  -0.36599  -0.35536
  Beta virt. eigenvalues --   -0.06728   0.00968   0.02521   0.03688   0.04366
  Beta virt. eigenvalues --    0.05050   0.05753   0.06513   0.08199   0.08498
  Beta virt. eigenvalues --    0.08546   0.09798   0.10621   0.12134   0.13146
  Beta virt. eigenvalues --    0.14448   0.15812   0.18785   0.19468   0.20609
  Beta virt. eigenvalues --    0.20875   0.21518   0.22649   0.23230   0.24033
  Beta virt. eigenvalues --    0.26452   0.27155   0.27471   0.29105   0.30238
  Beta virt. eigenvalues --    0.31040   0.32730   0.34100   0.34813   0.37695
  Beta virt. eigenvalues --    0.40455   0.42868   0.43520   0.44620   0.46266
  Beta virt. eigenvalues --    0.49480   0.50467   0.52198   0.54169   0.55081
  Beta virt. eigenvalues --    0.55355   0.56519   0.56895   0.58762   0.59486
  Beta virt. eigenvalues --    0.61927   0.63730   0.64095   0.65576   0.66201
  Beta virt. eigenvalues --    0.67142   0.68732   0.70733   0.73589   0.77146
  Beta virt. eigenvalues --    0.77863   0.80148   0.82645   0.84722   0.85483
  Beta virt. eigenvalues --    0.89208   0.90986   0.91551   0.92917   0.97462
  Beta virt. eigenvalues --    0.98731   1.02236   1.03966   1.07359   1.09254
  Beta virt. eigenvalues --    1.10966   1.11553   1.13010   1.14041   1.14573
  Beta virt. eigenvalues --    1.17367   1.18478   1.18713   1.19904   1.22904
  Beta virt. eigenvalues --    1.24349   1.27237   1.28606   1.29433   1.31495
  Beta virt. eigenvalues --    1.33840   1.35405   1.36346   1.39537   1.42204
  Beta virt. eigenvalues --    1.42639   1.44873   1.45589   1.47226   1.48959
  Beta virt. eigenvalues --    1.49134   1.53652   1.56808   1.59076   1.61014
  Beta virt. eigenvalues --    1.66435   1.66602   1.73538   1.74936   1.78818
  Beta virt. eigenvalues --    1.84561   1.89601   1.93577   2.03924   2.17580
  Beta virt. eigenvalues --    2.18131   2.30318   2.37020   2.39246   2.41411
  Beta virt. eigenvalues --    2.46616   2.52070   2.55050   2.58202   2.61682
  Beta virt. eigenvalues --    2.68849   2.71203   2.75154   2.80520   2.81696
  Beta virt. eigenvalues --    2.83925   2.85347   2.87879   2.95081   2.96517
  Beta virt. eigenvalues --    2.97004   3.00459   3.00623   3.06323   3.08540
  Beta virt. eigenvalues --    3.10165   3.13521   3.14682   3.15099   3.18173
  Beta virt. eigenvalues --    3.19500   3.20232   3.20756   3.22654   3.27215
  Beta virt. eigenvalues --    3.28420   3.32426   3.33008   3.38538   3.41002
  Beta virt. eigenvalues --    3.41667   3.43199   3.46552   3.50491   3.51464
  Beta virt. eigenvalues --    3.52351   3.54449   3.54993   3.57838   3.58757
  Beta virt. eigenvalues --    3.61387   3.69503   3.69915   3.73909   3.76379
  Beta virt. eigenvalues --    3.79510   3.85589   3.87559   3.88944   3.90491
  Beta virt. eigenvalues --    3.91361   3.92829   3.99726   4.01668   4.09969
  Beta virt. eigenvalues --    4.10266   4.13130   4.16805   4.17838   4.19766
  Beta virt. eigenvalues --    4.22214   4.26808   4.29942   4.31479   4.32861
  Beta virt. eigenvalues --    4.35717   4.39166   4.39949   4.42080   4.43320
  Beta virt. eigenvalues --    4.49503   4.51914   4.54530   4.68722   4.88328
  Beta virt. eigenvalues --    4.93594   5.06773   5.09186   5.12579   5.14687
  Beta virt. eigenvalues --    5.21252   5.24168   5.27372   5.34302   5.39624
  Beta virt. eigenvalues --    5.46186   5.46732   5.54441   5.55680   5.56590
  Beta virt. eigenvalues --    5.58019   5.59984   5.65218   5.74000   5.75004
  Beta virt. eigenvalues --    5.82698   5.98354   6.11569   6.34795   6.47771
  Beta virt. eigenvalues --    6.71147   6.84457   6.97157   7.10872   7.11828
  Beta virt. eigenvalues --    7.17817   7.20078   7.25528   7.31470   7.55974
  Beta virt. eigenvalues --    7.67822   7.78989   7.82738  24.26955  24.44395
  Beta virt. eigenvalues --   24.49309  24.91349  50.17654  50.31823
          Condensed to atoms (all electrons):
               1          2          3          4          5          6
     1  O    8.225865  -0.084512   0.012412   0.137641  -0.203692   0.212894
     2  O   -0.084512   8.224376  -0.006503  -0.042238  -0.030852   0.364401
     3  C    0.012412  -0.006503   5.053316  -0.013264   0.273837  -0.081616
     4  C    0.137641  -0.042238  -0.013264   4.988051  -0.117029  -0.057398
     5  C   -0.203692  -0.030852   0.273837  -0.117029   6.016981  -0.134285
     6  C    0.212894   0.364401  -0.081616  -0.057398  -0.134285   5.417326
     7  H   -0.000321   0.000853   0.411687   0.000123  -0.032523  -0.009435
     8  H    0.000228   0.000434   0.429018  -0.000885  -0.063255   0.015004
     9  H   -0.000321   0.000853   0.411687   0.000123  -0.032524  -0.009434
    10  H   -0.059365   0.003525   0.000397   0.419786   0.006136   0.014123
    11  H   -0.036125  -0.004274  -0.000762   0.431481  -0.002934   0.003423
    12  H   -0.036125  -0.004274  -0.000762   0.431481  -0.002934   0.003423
    13  H    0.003163   0.003615  -0.017238   0.004287   0.347122   0.019142
               7          8          9         10         11         12
     1  O   -0.000321   0.000228  -0.000321  -0.059365  -0.036125  -0.036125
     2  O    0.000853   0.000434   0.000853   0.003525  -0.004274  -0.004274
     3  C    0.411687   0.429018   0.411687   0.000397  -0.000762  -0.000762
     4  C    0.000123  -0.000885   0.000123   0.419786   0.431481   0.431481
     5  C   -0.032523  -0.063255  -0.032524   0.006136  -0.002934  -0.002934
     6  C   -0.009435   0.015004  -0.009434   0.014123   0.003423   0.003423
     7  H    0.565044  -0.023843  -0.042241  -0.000001  -0.000006   0.000004
     8  H   -0.023843   0.496843  -0.023843   0.000004  -0.000006  -0.000006
     9  H   -0.042241  -0.023843   0.565044  -0.000001   0.000004  -0.000006
    10  H   -0.000001   0.000004  -0.000001   0.534425  -0.025073  -0.025072
    11  H   -0.000006  -0.000006   0.000004  -0.025073   0.534433  -0.038141
    12  H    0.000004  -0.000006  -0.000006  -0.025072  -0.038141   0.534432
    13  H   -0.002365   0.003142  -0.002365  -0.000049  -0.000007  -0.000007
              13
     1  O    0.003163
     2  O    0.003615
     3  C   -0.017238
     4  C    0.004287
     5  C    0.347122
     6  C    0.019142
     7  H   -0.002365
     8  H    0.003142
     9  H   -0.002365
    10  H   -0.000049
    11  H   -0.000007
    12  H   -0.000007
    13  H    0.448786
          Atomic-Atomic Spin Densities.
               1          2          3          4          5          6
     1  O    0.035586   0.009130   0.002966  -0.002440  -0.030151   0.011333
     2  O    0.009130   0.197048   0.005953  -0.002052  -0.030364  -0.020603
     3  C    0.002966   0.005953  -0.013534   0.000861  -0.066500  -0.006420
     4  C   -0.002440  -0.002052   0.000861  -0.002647  -0.005843   0.007222
     5  C   -0.030151  -0.030364  -0.066500  -0.005843   1.036977   0.039472
     6  C    0.011333  -0.020603  -0.006420   0.007222   0.039472  -0.101647
     7  H    0.000090   0.000548   0.023245  -0.000069  -0.031163   0.000442
     8  H   -0.000053   0.000136  -0.004390   0.000060   0.002063   0.000806
     9  H    0.000090   0.000548   0.023244  -0.000069  -0.031163   0.000443
    10  H    0.000234  -0.000048  -0.000048   0.000131  -0.000019  -0.000357
    11  H   -0.000587  -0.000810  -0.000011   0.000490   0.000400   0.000172
    12  H   -0.000587  -0.000810  -0.000011   0.000490   0.000400   0.000172
    13  H   -0.000290   0.000209   0.002517   0.000341  -0.012884   0.011278
               7          8          9         10         11         12
     1  O    0.000090  -0.000053   0.000090   0.000234  -0.000587  -0.000587
     2  O    0.000548   0.000136   0.000548  -0.000048  -0.000810  -0.000810
     3  C    0.023245  -0.004390   0.023244  -0.000048  -0.000011  -0.000011
     4  C   -0.000069   0.000060  -0.000069   0.000131   0.000490   0.000490
     5  C   -0.031163   0.002063  -0.031163  -0.000019   0.000400   0.000400
     6  C    0.000442   0.000806   0.000443  -0.000357   0.000172   0.000172
     7  H    0.057068  -0.000044  -0.015824   0.000000  -0.000006   0.000003
     8  H   -0.000044   0.004524  -0.000044  -0.000000   0.000000   0.000000
     9  H   -0.015824  -0.000044   0.057067   0.000000   0.000003  -0.000006
    10  H    0.000000  -0.000000   0.000000   0.000072   0.000037   0.000037
    11  H   -0.000006   0.000000   0.000003   0.000037   0.002847  -0.000635
    12  H    0.000003   0.000000  -0.000006   0.000037  -0.000635   0.002847
    13  H    0.000248  -0.000203   0.000248  -0.000005   0.000007   0.000007
              13
     1  O   -0.000290
     2  O    0.000209
     3  C    0.002517
     4  C    0.000341
     5  C   -0.012884
     6  C    0.011278
     7  H    0.000248
     8  H   -0.000203
     9  H    0.000248
    10  H   -0.000005
    11  H    0.000007
    12  H    0.000007
    13  H   -0.039342
 Mulliken charges and spin densities:
               1          2
     1  O   -0.171741   0.025320
     2  O   -0.425404   0.158883
     3  C   -0.472209  -0.032128
     4  C   -0.182158  -0.003524
     5  C   -0.024049   0.871225
     6  C    0.242430  -0.057688
     7  H    0.133025   0.034538
     8  H    0.167165   0.002856
     9  H    0.133025   0.034537
    10  H    0.131165   0.000036
    11  H    0.137988   0.001907
    12  H    0.137988   0.001907
    13  H    0.192774  -0.037869
 Sum of Mulliken charges =  -0.00000   1.00000
 Mulliken charges and spin densities with hydrogens summed into heavy atoms:
               1          2
     1  O   -0.171741   0.025320
     2  O   -0.425404   0.158883
     3  C   -0.038994   0.039803
     4  C    0.224984   0.000327
     5  C    0.168725   0.833356
     6  C    0.242430  -0.057688
 APT charges:
               1
     1  O   -0.052739
     2  O   -0.428795
     3  C   -1.341370
     4  C   -1.229386
     5  C   -0.277606
     6  C    0.333441
     7  H    0.497063
     8  H    0.281113
     9  H    0.497065
    10  H    0.573110
    11  H    0.355533
    12  H    0.355533
    13  H    0.437037
 Sum of APT charges =  -0.00000
 APT charges with hydrogens summed into heavy atoms:
               1
     1  O   -0.052739
     2  O   -0.428795
     3  C   -0.066129
     4  C    0.054791
     5  C    0.159431
     6  C    0.333441
 Electronic spatial extent (au):  <R**2>=            675.7493
 Charge=             -0.0000 electrons
 Dipole moment (field-independent basis, Debye):
    X=             -0.3514    Y=             -1.7429    Z=              0.0000  Tot=              1.7779
 Quadrupole moment (field-independent basis, Debye-Ang):
   XX=            -28.0433   YY=            -40.3362   ZZ=            -36.2279
   XY=              1.3617   XZ=             -0.0000   YZ=             -0.0000
 Traceless Quadrupole moment (field-independent basis, Debye-Ang):
   XX=              6.8259   YY=             -5.4671   ZZ=             -1.3588
   XY=              1.3617   XZ=             -0.0000   YZ=             -0.0000
 Octapole moment (field-independent basis, Debye-Ang**2):
  XXX=             11.5442  YYY=             -5.0251  ZZZ=              0.0000  XYY=             -0.5162
  XXY=             -0.4497  XXZ=              0.0000  XZZ=              1.9049  YZZ=              1.3518
  YYZ=             -0.0000  XYZ=             -0.0000
 Hexadecapole moment (field-independent basis, Debye-Ang**3):
 XXXX=           -642.7376 YYYY=           -152.5604 ZZZZ=            -49.3328 XXXY=             -5.1038
 XXXZ=              0.0000 YYYX=             -2.0078 YYYZ=             -0.0000 ZZZX=             -0.0001
 ZZZY=              0.0000 XXYY=           -138.0459 XXZZ=           -119.9713 YYZZ=            -34.3007
 XXYZ=              0.0000 YYXZ=              0.0000 ZZXY=              1.9517
 N-N= 2.357903011262D+02 E-N=-1.190077385307D+03  KE= 3.059455157402D+02
  Exact polarizability:   0.000   0.000   0.000   0.000   0.000   0.000
 Approx polarizability:  67.686   0.989  68.118  -0.000   0.000  51.380
                          Isotropic Fermi Contact Couplings
        Atom                 a.u.       MegaHertz       Gauss      10(-4) cm-1
     1  O(17)              0.00137      -0.83267      -0.29712      -0.27775
     2  O(17)              0.03581     -21.70541      -7.74503      -7.24014
     3  C(13)             -0.02844     -31.96812     -11.40702     -10.66342
     4  C(13)             -0.00164      -1.83851      -0.65603      -0.61326
     5  C(13)              0.14019     157.60555      56.23758      52.57155
     6  C(13)             -0.04400     -49.46774     -17.65132     -16.50066
     7  H(1)               0.02091      93.44308      33.34281      31.16926
     8  H(1)               0.00020       0.89509       0.31939       0.29857
     9  H(1)               0.02090      93.44104      33.34209      31.16858
    10  H(1)              -0.00002      -0.09002      -0.03212      -0.03003
    11  H(1)               0.00130       5.81756       2.07585       1.94053
    12  H(1)               0.00130       5.81755       2.07585       1.94053
    13  H(1)              -0.01430     -63.93134     -22.81229     -21.32520
 --------------------------------------------------------
       Center         ----  Spin Dipole Couplings  ----
                      3XX-RR        3YY-RR        3ZZ-RR
 --------------------------------------------------------
     1   Atom       -0.068386     -0.086072      0.154458
     2   Atom       -0.329261     -0.332652      0.661913
     3   Atom       -0.003116     -0.014808      0.017924
     4   Atom        0.003950     -0.003248     -0.000702
     5   Atom       -0.482975     -0.476250      0.959225
     6   Atom        0.017909      0.019881     -0.037790
     7   Atom        0.012462     -0.007222     -0.005240
     8   Atom        0.001729      0.005737     -0.007466
     9   Atom        0.012463     -0.007222     -0.005241
    10   Atom        0.003802     -0.001837     -0.001964
    11   Atom        0.004127     -0.001796     -0.002331
    12   Atom        0.004127     -0.001796     -0.002331
    13   Atom       -0.062190      0.068722     -0.006533
 --------------------------------------------------------
                        XY            XZ            YZ
 --------------------------------------------------------
     1   Atom        0.003156     -0.000000      0.000000
     2   Atom       -0.005023     -0.000002     -0.000000
     3   Atom       -0.005046     -0.000000      0.000000
     4   Atom        0.000043      0.000000     -0.000000
     5   Atom        0.003556      0.000000      0.000002
     6   Atom        0.015855     -0.000000     -0.000000
     7   Atom       -0.003031     -0.009194      0.000029
     8   Atom       -0.010620      0.000000     -0.000000
     9   Atom       -0.003031      0.009194     -0.000029
    10   Atom       -0.000740      0.000000      0.000000
    11   Atom        0.001086      0.002087      0.000546
    12   Atom        0.001086     -0.002087     -0.000546
    13   Atom       -0.003616      0.000000     -0.000000
 --------------------------------------------------------


 ---------------------------------------------------------------------------------
              Anisotropic Spin Dipole Couplings in Principal Axis System
 ---------------------------------------------------------------------------------

       Atom             a.u.   MegaHertz   Gauss  10(-4) cm-1        Axes

              Baa    -0.0866     6.268     2.236     2.091 -0.1706  0.9853 -0.0000
     1 O(17)  Bbb    -0.0678     4.909     1.752     1.637  0.9853  0.1706 -0.0000
              Bcc     0.1545   -11.176    -3.988    -3.728 -0.0000  0.0000  1.0000
 
              Baa    -0.3363    24.331     8.682     8.116  0.5831  0.8124  0.0000
     2 O(17)  Bbb    -0.3257    23.564     8.408     7.860  0.8124 -0.5831  0.0000
              Bcc     0.6619   -47.896   -17.090   -15.976 -0.0000 -0.0000  1.0000
 
              Baa    -0.0167    -2.239    -0.799    -0.747  0.3485  0.9373 -0.0000
     3 C(13)  Bbb    -0.0012    -0.166    -0.059    -0.055  0.9373 -0.3485  0.0000
              Bcc     0.0179     2.405     0.858     0.802 -0.0000  0.0000  1.0000
 
              Baa    -0.0032    -0.436    -0.156    -0.145 -0.0059  1.0000  0.0000
     4 C(13)  Bbb    -0.0007    -0.094    -0.034    -0.031 -0.0000 -0.0000  1.0000
              Bcc     0.0040     0.530     0.189     0.177  1.0000  0.0059  0.0000
 
              Baa    -0.4845   -65.016   -23.199   -21.687  0.9184 -0.3956  0.0000
     5 C(13)  Bbb    -0.4747   -63.703   -22.731   -21.249  0.3956  0.9184 -0.0000
              Bcc     0.9592   128.719    45.930    42.936  0.0000  0.0000  1.0000
 
              Baa    -0.0378    -5.071    -1.809    -1.692  0.0000  0.0000  1.0000
     6 C(13)  Bbb     0.0030     0.404     0.144     0.135  0.7287 -0.6848 -0.0000
              Bcc     0.0348     4.667     1.665     1.557  0.6848  0.7287 -0.0000
 
              Baa    -0.0098    -5.204    -1.857    -1.736  0.3923  0.4606  0.7962
     7 H(1)   Bbb    -0.0069    -3.707    -1.323    -1.237 -0.0841  0.8799 -0.4676
              Bcc     0.0167     8.911     3.180     2.972  0.9160 -0.1165 -0.3839
 
              Baa    -0.0075    -3.983    -1.421    -1.329 -0.0001 -0.0001  1.0000
     8 H(1)   Bbb    -0.0071    -3.774    -1.347    -1.259  0.7699  0.6382  0.0001
              Bcc     0.0145     7.758     2.768     2.588 -0.6382  0.7699 -0.0000
 
              Baa    -0.0098    -5.204    -1.857    -1.736 -0.3923 -0.4606  0.7962
     9 H(1)   Bbb    -0.0069    -3.707    -1.323    -1.237 -0.0841  0.8799  0.4676
              Bcc     0.0167     8.911     3.180     2.972  0.9160 -0.1165  0.3839
 
              Baa    -0.0020    -1.048    -0.374    -0.350 -0.0000 -0.0000  1.0000
    10 H(1)   Bbb    -0.0019    -1.031    -0.368    -0.344  0.1280  0.9918  0.0000
              Bcc     0.0039     2.079     0.742     0.694  0.9918 -0.1280  0.0000
 
              Baa    -0.0030    -1.597    -0.570    -0.533 -0.2455 -0.2094  0.9465
    11 H(1)   Bbb    -0.0020    -1.047    -0.373    -0.349 -0.2246  0.9621  0.1546
              Bcc     0.0050     2.644     0.943     0.882  0.9430  0.1746  0.2832
 
              Baa    -0.0030    -1.597    -0.570    -0.533  0.2454  0.2094  0.9465
    12 H(1)   Bbb    -0.0020    -1.047    -0.373    -0.349 -0.2246  0.9621 -0.1546
              Bcc     0.0050     2.644     0.943     0.882  0.9430  0.1746 -0.2832
 
              Baa    -0.0623   -33.235   -11.859   -11.086  0.9996  0.0276 -0.0000
    13 H(1)   Bbb    -0.0065    -3.485    -1.244    -1.163  0.0000  0.0000  1.0000
              Bcc     0.0688    36.720    13.103    12.249 -0.0276  0.9996 -0.0000
 

 ---------------------------------------------------------------------------------

 No NMR shielding tensors so no spin-rotation constants.
 Leave Link  601 at Mon Mar 11 15:49:06 2019, MaxMem=   671088640 cpu:               8.9 elap:               0.5
 (Enter /shared/centos7/gaussian/g16/l701.exe)
 SCFChk:  SCF convergence  2.92D-09 required  1.00D-08
 ... and contract with generalized density number  0.
 Compute integral second derivatives.
 Entering OneElI...
 Calculate overlap and kinetic energy integrals
    NBasis = 297  MinDer = 2  MaxDer = 2
 Requested accuracy = 0.1000D-12
 PrmmSu-InSpLW:  IPartL=    0 NPrtUS=   20 NPrtUL=    1 DoSpLW=F IThBeg=    0 IThEnd=   19 NThAct=   20.
 PrsmSu:  NPrtUS=  20 ThrOK=T IAlg=1 NPAlg=1 LenDen=           0 ISkipM=0 DoSpLW=F IThBeg=    0 IThEnd=   19.
 Prism:   IPart=     0 DynPar=F LinDyn=F Incr=           1.
 PRISM was handed    33455970 working-precision words and  3445 shell-pairs
 PRISM was handed    33455970 working-precision words and  3445 shell-pairs
 PRISM was handed    33455970 working-precision words and  3445 shell-pairs
 PRISM was handed    33455970 working-precision words and  3445 shell-pairs
 PRISM was handed    33455970 working-precision words and  3445 shell-pairs
 PRISM was handed    33455970 working-precision words and  3445 shell-pairs
 PRISM was handed    33455970 working-precision words and  3445 shell-pairs
 PRISM was handed    33455970 working-precision words and  3445 shell-pairs
 PRISM was handed    33455970 working-precision words and  3445 shell-pairs
 PRISM was handed    33455970 working-precision words and  3445 shell-pairs
 PRISM was handed    33455970 working-precision words and  3445 shell-pairs
 PRISM was handed    33455970 working-precision words and  3445 shell-pairs
 PRISM was handed    33455970 working-precision words and  3445 shell-pairs
 PRISM was handed    33455970 working-precision words and  3445 shell-pairs
 PRISM was handed    33455970 working-precision words and  3445 shell-pairs
 PRISM was handed    33455970 working-precision words and  3445 shell-pairs
 PRISM was handed    33455970 working-precision words and  3445 shell-pairs
 PRISM was handed    33455970 working-precision words and  3445 shell-pairs
 PRISM was handed    33455970 working-precision words and  3445 shell-pairs
 PRISM was handed    33455970 working-precision words and  3445 shell-pairs
 IPart=  2 NShTot=         195 NBatch=          50 AvBLen=         3.9
 IPart=  4 NShTot=         187 NBatch=          44 AvBLen=         4.3
 IPart=  3 NShTot=         189 NBatch=          45 AvBLen=         4.2
 IPart=  1 NShTot=         198 NBatch=          53 AvBLen=         3.7
 IPart= 10 NShTot=         167 NBatch=          32 AvBLen=         5.2
 IPart= 18 NShTot=         150 NBatch=          30 AvBLen=         5.0
 IPart= 12 NShTot=         165 NBatch=          32 AvBLen=         5.2
 IPart= 19 NShTot=         147 NBatch=          30 AvBLen=         4.9
 IPart= 13 NShTot=         164 NBatch=          32 AvBLen=         5.1
 IPart= 11 NShTot=         167 NBatch=          32 AvBLen=         5.2
 IPart= 15 NShTot=         158 NBatch=          30 AvBLen=         5.3
 IPart= 17 NShTot=         154 NBatch=          30 AvBLen=         5.1
 IPart= 14 NShTot=         161 NBatch=          31 AvBLen=         5.2
 IPart= 16 NShTot=         156 NBatch=          30 AvBLen=         5.2
 IPart=  9 NShTot=         169 NBatch=          32 AvBLen=         5.3
 IPart=  0 NShTot=         205 NBatch=          59 AvBLen=         3.5
 IPart=  6 NShTot=         180 NBatch=          38 AvBLen=         4.7
 IPart=  5 NShTot=         183 NBatch=          41 AvBLen=         4.5
 IPart=  7 NShTot=         176 NBatch=          35 AvBLen=         5.0
 IPart=  8 NShTot=         174 NBatch=          34 AvBLen=         5.1
 PrSmSu:  NxtVal=             21.
 Entering OneElI...
 Calculate potential energy integrals
    NBasis = 297  MinDer = 2  MaxDer = 2
 Requested accuracy = 0.1000D-12
 PrmmSu-InSpLW:  IPartL=    0 NPrtUS=   20 NPrtUL=    1 DoSpLW=F IThBeg=    0 IThEnd=   19 NThAct=   20.
 PrsmSu:  NPrtUS=  20 ThrOK=T IAlg=1 NPAlg=1 LenDen=           0 ISkipM=0 DoSpLW=F IThBeg=    0 IThEnd=   19.
 Prism:   IPart=     0 DynPar=F LinDyn=F Incr=          20.
 PRISM was handed    33470908 working-precision words and  3180 shell-pairs
 PRISM was handed    33470908 working-precision words and  3180 shell-pairs
 PRISM was handed    33470908 working-precision words and  3180 shell-pairs
 PRISM was handed    33470908 working-precision words and  3180 shell-pairs
 PRISM was handed    33470908 working-precision words and  3180 shell-pairs
 PRISM was handed    33470908 working-precision words and  3180 shell-pairs
 PRISM was handed    33470908 working-precision words and  3180 shell-pairs
 PRISM was handed    33470908 working-precision words and  3180 shell-pairs
 PRISM was handed    33470908 working-precision words and  3180 shell-pairs
 PRISM was handed    33470908 working-precision words and  3180 shell-pairs
 PRISM was handed    33470908 working-precision words and  3180 shell-pairs
 PRISM was handed    33470908 working-precision words and  3180 shell-pairs
 PRISM was handed    33470908 working-precision words and  3180 shell-pairs
 PRISM was handed    33470908 working-precision words and  3180 shell-pairs
 PRISM was handed    33470908 working-precision words and  3180 shell-pairs
 PRISM was handed    33470908 working-precision words and  3180 shell-pairs
 PRISM was handed    33470908 working-precision words and  3180 shell-pairs
 PRISM was handed    33470908 working-precision words and  3180 shell-pairs
 PRISM was handed    33470908 working-precision words and  3180 shell-pairs
 PRISM was handed    33470908 working-precision words and  3180 shell-pairs
 IPart= 18 NShTot=        1820 NBatch=         140 AvBLen=        13.0
 IPart= 19 NShTot=        1807 NBatch=         139 AvBLen=        13.0
 IPart= 13 NShTot=        1924 NBatch=         148 AvBLen=        13.0
 IPart= 12 NShTot=        1937 NBatch=         149 AvBLen=        13.0
 IPart= 16 NShTot=        1859 NBatch=         143 AvBLen=        13.0
 IPart= 17 NShTot=        1820 NBatch=         140 AvBLen=        13.0
 IPart= 11 NShTot=        1963 NBatch=         151 AvBLen=        13.0
 IPart= 15 NShTot=        1885 NBatch=         145 AvBLen=        13.0
 IPart= 10 NShTot=        2002 NBatch=         154 AvBLen=        13.0
 IPart=  2 NShTot=        2353 NBatch=         181 AvBLen=        13.0
 IPart=  1 NShTot=        2444 NBatch=         188 AvBLen=        13.0
 IPart= 14 NShTot=        1898 NBatch=         146 AvBLen=        13.0
 IPart=  4 NShTot=        2249 NBatch=         173 AvBLen=        13.0
 IPart=  9 NShTot=        2041 NBatch=         157 AvBLen=        13.0
 IPart=  6 NShTot=        2145 NBatch=         165 AvBLen=        13.0
 IPart=  3 NShTot=        2314 NBatch=         178 AvBLen=        13.0
 IPart=  8 NShTot=        2054 NBatch=         158 AvBLen=        13.0
 IPart=  7 NShTot=        2093 NBatch=         161 AvBLen=        13.0
 IPart=  0 NShTot=        2509 NBatch=         193 AvBLen=        13.0
 IPart=  5 NShTot=        2223 NBatch=         171 AvBLen=        13.0
 PrSmSu:  NxtVal=            401.
 Polarizability after L701:
                1             2             3 
      1  0.000000D+00
      2  0.000000D+00  0.000000D+00
      3  0.000000D+00  0.000000D+00  0.000000D+00
 Dipole Derivatives after L701:
                 1             2             3             4             5 
      1   0.325894D+00  0.299431D+00  0.000000D+00 -0.380844D+00 -0.955395D-02
      2  -0.174809D-01 -0.214358D+00  0.000000D+00  0.839567D-02 -0.320677D+00
      3   0.000000D+00  0.000000D+00 -0.269752D+00  0.000000D+00  0.000000D+00
                 6             7             8             9            10 
      1   0.000000D+00 -0.199964D+01  0.533022D+00 -0.119417D-05 -0.208806D+01
      2   0.000000D+00 -0.494090D-01 -0.997083D+00  0.000000D+00  0.195901D+00
      3  -0.584864D+00 -0.136462D-05 -0.148759D-05 -0.102738D+01  0.000000D+00
                11            12            13            14            15 
      1  -0.579970D+00 -0.315702D-05 -0.447604D-02 -0.931038D+00  0.488513D-05
      2  -0.725070D+00  0.000000D+00 -0.229066D+00 -0.730007D+00  0.000000D+00
      3   0.000000D+00 -0.875024D+00  0.326629D-05  0.000000D+00 -0.983340D-01
                16            17            18            19            20 
      1   0.367961D+00  0.973441D-01 -0.303391D-05  0.888086D+00  0.332140D+00
      2   0.146784D+00  0.125284D-01  0.162209D-05  0.628198D-01  0.148185D+00
      3  -0.180609D-05  0.128021D-05  0.619832D+00 -0.215379D+00 -0.120677D+00
                21            22            23            24            25 
      1  -0.980434D+00  0.515370D-01 -0.105546D+01  0.100882D-04  0.888098D+00
      2  -0.111813D+00  0.660437D-01  0.661998D+00 -0.498544D-05  0.628247D-01
      3   0.454917D+00  0.000000D+00 -0.476917D-05  0.129804D+00  0.215380D+00
                26            27            28            29            30 
      1   0.332160D+00  0.980424D+00  0.117925D+01 -0.986231D+00  0.128326D-05
      2   0.148189D+00  0.111818D+00 -0.266734D+00  0.430175D+00  0.000000D+00
      3   0.120682D+00  0.454909D+00  0.000000D+00  0.000000D+00  0.109907D+00
                31            32            33            34            35 
      1   0.313233D+00  0.687375D+00  0.835211D+00  0.313233D+00  0.687379D+00
      2   0.367845D-01  0.277326D+00  0.198633D+00  0.367845D-01  0.277327D+00
      3   0.251921D-01  0.239394D+00  0.476040D+00 -0.251922D-01 -0.239395D+00
                36            37            38            39 
      1  -0.835210D+00  0.145735D+00  0.593406D+00  0.000000D+00
      2  -0.198634D+00 -0.536488D-01  0.103147D+01 -0.145195D-05
      3   0.476039D+00  0.000000D+00 -0.113324D-05  0.133907D+00
 Hessian after L701:
                1             2             3             4             5 
      1  0.153096D+01
      2  0.280510D+01  0.110645D+02
      3  0.000000D+00  0.128925D-05  0.163171D+02
      4  0.348153D+00 -0.645019D+00  0.000000D+00  0.141997D+02
      5 -0.722944D+00  0.175198D+00  0.000000D+00 -0.699564D+00 -0.655421D+00
      6  0.000000D+00  0.000000D+00  0.694740D-01  0.000000D+00  0.133945D-05
      7  0.398897D+00 -0.154193D+00  0.000000D+00  0.356007D+00  0.376126D+00
      8 -0.142930D+00 -0.161296D+00  0.000000D+00  0.436827D+00 -0.631644D-01
      9  0.000000D+00  0.000000D+00 -0.191039D+00  0.000000D+00  0.000000D+00
     10 -0.730988D+00  0.285185D+01 -0.117237D-05  0.359983D+00 -0.433317D+00
     11  0.283063D+01 -0.526619D+01  0.000000D+00 -0.542003D+00  0.165364D-01
     12 -0.135330D-05  0.000000D+00 -0.671734D+01  0.000000D+00  0.000000D+00
     13  0.436571D+00  0.184808D+00  0.000000D+00  0.694687D+00  0.711024D+00
     14  0.516298D-01  0.146059D+00  0.000000D+00  0.564335D+00 -0.101334D+00
     15  0.000000D+00  0.000000D+00  0.232507D+00  0.000000D+00  0.101725D-05
     16 -0.195307D+01 -0.482989D+01  0.207386D-05 -0.163938D+02  0.805157D+00
     17 -0.476025D+01 -0.619402D+01  0.000000D+00  0.890253D+00  0.613859D+00
     18  0.143887D-05  0.000000D+00 -0.102059D+02 -0.145509D-05 -0.164887D-05
     19  0.363700D-01 -0.272711D-02 -0.701300D-02  0.565412D-01  0.489019D-01
     20  0.526008D-02 -0.121087D-01 -0.140030D-02  0.369930D-01 -0.246861D-03
     21 -0.260637D-01 -0.161505D-03 -0.712376D-02 -0.387258D-01 -0.265859D-01
     22  0.265187D-01 -0.222041D-01  0.000000D+00  0.100317D+00  0.279601D-01
     23 -0.579507D-01  0.833334D-02  0.000000D+00 -0.711172D-01 -0.919460D-01
     24  0.000000D+00  0.000000D+00 -0.183885D-01  0.131699D-05  0.000000D+00
     25  0.363701D-01 -0.272693D-02  0.701299D-02  0.565415D-01  0.489025D-01
     26  0.526063D-02 -0.121086D-01  0.140040D-02  0.369936D-01 -0.246126D-03
     27  0.260633D-01  0.161644D-03 -0.712385D-02  0.387250D-01  0.265856D-01
     28 -0.794337D-01 -0.113569D+00  0.000000D+00  0.751001D-01 -0.916731D-01
     29 -0.167173D+00  0.139913D+00  0.000000D+00 -0.723719D-01  0.383927D-01
     30  0.000000D+00  0.000000D+00  0.727858D-01  0.000000D+00  0.000000D+00
     31 -0.521169D-01 -0.777199D-01  0.871895D-01  0.958188D-01 -0.553437D-01
     32 -0.173428D-01  0.453404D-01  0.158604D+00  0.790182D-03 -0.625704D-01
     33  0.105199D+00  0.155276D+00  0.264879D+00  0.868120D-01 -0.383721D-01
     34 -0.521167D-01 -0.777196D-01 -0.871895D-01  0.958190D-01 -0.553437D-01
     35 -0.173423D-01  0.453410D-01 -0.158605D+00  0.790501D-03 -0.625706D-01
     36 -0.105199D+00 -0.155276D+00  0.264878D+00 -0.868120D-01  0.383721D-01
     37  0.538802D-01  0.840141D-01  0.000000D+00 -0.449177D-01  0.401139D-01
     38  0.188057D+00  0.210359D-01  0.000000D+00  0.630936D-01  0.193514D+00
     39  0.000000D+00  0.000000D+00 -0.747165D-01  0.000000D+00  0.000000D+00
                6             7             8             9            10 
      6  0.181500D+02
      7  0.000000D+00  0.101176D+02
      8  0.000000D+00  0.780509D+00  0.129683D+02
      9 -0.322861D+00  0.222964D-05  0.209852D-05  0.143024D+02
     10  0.000000D+00 -0.576993D-02  0.141343D-02  0.000000D+00  0.983519D+01
     11  0.000000D+00 -0.103055D-01 -0.416902D-01  0.000000D+00 -0.167986D+01
     12 -0.362107D+00  0.000000D+00  0.000000D+00 -0.389065D-01  0.000000D+00
     13  0.000000D+00 -0.165560D+01 -0.189813D+01 -0.268924D-05  0.135652D+00
     14  0.000000D+00 -0.196942D+01 -0.470954D+01  0.000000D+00  0.338464D-01
     15  0.534270D-01 -0.349153D-05  0.000000D+00 -0.582704D+01  0.000000D+00
     16 -0.182325D-05  0.113604D+00  0.190299D-01  0.284673D-05  0.600895D+00
     17 -0.148236D-05 -0.474868D-01 -0.684941D-01  0.000000D+00 -0.587672D-01
     18 -0.173396D+02  0.424009D-05  0.000000D+00 -0.233402D-01  0.000000D+00
     19 -0.212005D-01 -0.269446D+01  0.357151D+00 -0.119311D+01  0.911567D-02
     20 -0.118349D-01  0.335628D+00 -0.342207D+01 -0.444709D+00  0.143908D-02
     21 -0.114491D-01 -0.108708D+01 -0.436699D+00 -0.200677D+01 -0.459790D-02
     22  0.000000D+00 -0.394987D+01  0.388652D-01  0.000000D+00  0.908370D-03
[...]
   D14        0.00000  -0.00000   0.00000   0.00000   0.00000   0.00000
   D15       -3.14159   0.00000   0.00000   0.00000   0.00000  -3.14159
         Item               Value     Threshold  Converged?
 Maximum Force            0.000000     0.000002     YES
 RMS     Force            0.000000     0.000001     YES
 Maximum Displacement     0.000009     0.000006     NO 
 RMS     Displacement     0.000003     0.000004     YES
 Predicted change in Energy=-3.516112D-13
                           ----------------------------
                           ! Non-Optimized Parameters !
                           ! (Angstroms and Degrees)  !
 --------------------------                            --------------------------
 ! Name  Definition              Value          Derivative Info.                !
 --------------------------------------------------------------------------------
 ! R1    R(1,4)                  1.4225         -DE/DX =    0.0                 !
 ! R2    R(1,6)                  1.3491         -DE/DX =    0.0                 !
 ! R3    R(2,6)                  1.2109         -DE/DX =    0.0                 !
 ! R4    R(3,5)                  1.4777         -DE/DX =    0.0                 !
 ! R5    R(3,7)                  1.0932         -DE/DX =    0.0                 !
 ! R6    R(3,8)                  1.087          -DE/DX =    0.0                 !
 ! R7    R(3,9)                  1.0932         -DE/DX =    0.0                 !
 ! R8    R(4,10)                 1.085          -DE/DX =    0.0                 !
 ! R9    R(4,11)                 1.0887         -DE/DX =    0.0                 !
 ! R10   R(4,12)                 1.0887         -DE/DX =    0.0                 !
 ! R11   R(5,6)                  1.4471         -DE/DX =    0.0                 !
 ! R12   R(5,13)                 1.08           -DE/DX =    0.0                 !
 ! A1    A(4,1,6)              115.0115         -DE/DX =    0.0                 !
 ! A2    A(5,3,7)              110.8936         -DE/DX =    0.0                 !
 ! A3    A(5,3,8)              110.4915         -DE/DX =    0.0                 !
 ! A4    A(5,3,9)              110.8937         -DE/DX =    0.0                 !
 ! A5    A(7,3,8)              109.0397         -DE/DX =    0.0                 !
 ! A6    A(7,3,9)              106.3714         -DE/DX =    0.0                 !
 ! A7    A(8,3,9)              109.0398         -DE/DX =    0.0                 !
 ! A8    A(1,4,10)             106.0097         -DE/DX =    0.0                 !
 ! A9    A(1,4,11)             110.4777         -DE/DX =    0.0                 !
 ! A10   A(1,4,12)             110.4777         -DE/DX =    0.0                 !
 ! A11   A(10,4,11)            110.5672         -DE/DX =    0.0                 !
 ! A12   A(10,4,12)            110.5672         -DE/DX =    0.0                 !
 ! A13   A(11,4,12)            108.7334         -DE/DX =    0.0                 !
 ! A14   A(3,5,6)              121.0974         -DE/DX =    0.0                 !
 ! A15   A(3,5,13)             121.2214         -DE/DX =    0.0                 !
 ! A16   A(6,5,13)             117.6812         -DE/DX =    0.0                 !
 ! A17   A(1,6,2)              122.906          -DE/DX =    0.0                 !
 ! A18   A(1,6,5)              112.0572         -DE/DX =    0.0                 !
 ! A19   A(2,6,5)              125.0368         -DE/DX =    0.0                 !
 ! D1    D(6,1,4,10)          -180.0            -DE/DX =    0.0                 !
 ! D2    D(6,1,4,11)            60.1794         -DE/DX =    0.0                 !
 ! D3    D(6,1,4,12)           -60.1794         -DE/DX =    0.0                 !
 ! D4    D(4,1,6,2)              0.0            -DE/DX =    0.0                 !
 ! D5    D(4,1,6,5)           -180.0            -DE/DX =    0.0                 !
 ! D6    D(7,3,5,6)           -121.0256         -DE/DX =    0.0                 !
 ! D7    D(7,3,5,13)            58.9742         -DE/DX =    0.0                 !
 ! D8    D(8,3,5,6)              0.0007         -DE/DX =    0.0                 !
 ! D9    D(8,3,5,13)          -179.9994         -DE/DX =    0.0                 !
 ! D10   D(9,3,5,6)            121.0272         -DE/DX =    0.0                 !
 ! D11   D(9,3,5,13)           -58.973          -DE/DX =    0.0                 !
 ! D12   D(3,5,6,1)            179.9999         -DE/DX =    0.0                 !
 ! D13   D(3,5,6,2)              0.0            -DE/DX =    0.0                 !
 ! D14   D(13,5,6,1)             0.0001         -DE/DX =    0.0                 !
 ! D15   D(13,5,6,2)          -179.9999         -DE/DX =    0.0                 !
 --------------------------------------------------------------------------------
 GradGradGradGradGradGradGradGradGradGradGradGradGradGradGradGradGradGrad

 Leave Link  103 at Mon Mar 11 15:56:30 2019, MaxMem=   671088640 cpu:               0.4 elap:               0.1
 (Enter /shared/centos7/gaussian/g16/l9999.exe)

 ----------------------------------------------------------------------

 Electric dipole moment (input orientation):
 (Debye = 10**-18 statcoulomb cm , SI units = C m)
                  (au)            (Debye)         (10**-30 SI)
   Tot        0.699499D+00      0.177795D+01      0.593060D+01
   x         -0.138257D+00     -0.351415D+00     -0.117219D+01
   y         -0.685700D+00     -0.174287D+01     -0.581360D+01
   z          0.000000D+00      0.000000D+00      0.000000D+00

 Dipole polarizability, Alpha (input orientation).
 (esu units = cm**3 , SI units = C**2 m**2 J**-1)
 Alpha(0;0):
               (au)            (10**-24 esu)      (10**-40 SI)
   iso        0.558307D+02      0.827325D+01      0.920524D+01
   aniso      0.270841D+02      0.401345D+01      0.446556D+01
   xx         0.725052D+02      0.107442D+02      0.119545D+02
   yx         0.122212D+01      0.181099D+00      0.201500D+00
   yy         0.533666D+02      0.790811D+01      0.879896D+01
   zx        -0.115805D-04     -0.171605D-05     -0.190936D-05
   zy        -0.120079D-04     -0.177938D-05     -0.197983D-05
   zz         0.416203D+02      0.616749D+01      0.686226D+01

 ----------------------------------------------------------------------

 Dipole orientation:
     8          2.28026173         -0.45976815          0.92301926
     8         -0.27954953          0.05636718         -2.43190411
     6         -4.57890446          0.92324054          0.91142683
     6          4.30626308         -0.86826771         -0.79581897
     6         -1.95022967          0.39322207          1.69047580
     6          0.01968825         -0.00396964         -0.16409020
     1         -5.21760859          2.73919559          1.66116999
     1         -4.72960492          0.95361744         -1.13700536
     1         -5.87139987         -0.50331734          1.66118555
     1          5.96772580         -1.20326888          0.35783233
     1          4.57846155          0.78255915         -1.99288763
     1          3.91749074         -2.49558698         -1.99289150
     1         -1.43166837          0.28866515          3.66172166

 Electric dipole moment (dipole orientation):
 (Debye = 10**-18 statcoulomb cm , SI units = C m)
                  (au)            (Debye)         (10**-30 SI)
   Tot        0.699499D+00      0.177795D+01      0.593060D+01
   x          0.000000D+00      0.000000D+00      0.000000D+00
   y          0.000000D+00      0.000000D+00      0.000000D+00
   z          0.699499D+00      0.177795D+01      0.593060D+01

 Dipole polarizability, Alpha (dipole orientation).
 (esu units = cm**3 , SI units = C**2 m**2 J**-1)
 Alpha(0;0):
               (au)            (10**-24 esu)      (10**-40 SI)
   iso        0.558307D+02      0.827325D+01      0.920524D+01
   aniso      0.270841D+02      0.401345D+01      0.446556D+01
   xx         0.701251D+02      0.103915D+02      0.115621D+02
   yx        -0.574740D+01     -0.851677D+00     -0.947618D+00
   yy         0.427792D+02      0.633922D+01      0.705333D+01
   zx        -0.473941D+01     -0.702308D+00     -0.781423D+00
   zy         0.955593D+00      0.141604D+00      0.157556D+00
   zz         0.545878D+02      0.808908D+01      0.900031D+01

 ----------------------------------------------------------------------

 Test job not archived.
 1\1\GINC-C0317\Freq\UM062X\6-311+G(2df,2p)\C4H7O2(2)\UNDERKOFFLER.C\11
 -Mar-2019\0\\#P Geom=AllCheck Guess=TCheck SCRF=Check Test GenChk UM06
 2X/6-311+G(2df,2p) Freq\\Gaussian input prepared by ASE\\0,2\O,1.11012
 14001,-0.7221036343,0.0000007979\O,0.1064282378,1.2913478256,-0.000001
 5581\C,-2.518380437,0.0157670319,0.0000002228\C,2.36201305,-0.04664697
 76,0.0000000535\C,-1.2088285286,-0.6688286467,0.0000008743\C,0.0275812
 165,0.0830190943,-0.0000001177\H,-3.1077704385,-0.2701242926,0.8752015
 95\H,-2.3838755281,1.0944453735,-0.000006399\H,-3.1077753968,-0.270135
 1281,-0.8751941684\H,3.1205577812,-0.8223637534,0.0000005089\H,2.45637
 39048,0.5805385188,0.884815067\H,2.4563735961,0.5805371967,-0.88481591
 48\H,-1.1405958574,-1.7467176081,0.0000030385\\Version=EM64L-G16RevA.0
 3\State=2-A\HF=-307.020178\S2=0.758368\S2-1=0.\S2A=0.75005\RMSD=7.987e
 -09\RMSF=3.818e-07\ZeroPoint=0.1058567\Thermal=0.1131039\Dipole=-0.138
 2572,-0.6856995,0.0000013\DipoleDeriv=-1.7474757,0.2401025,-0.0000002,
 0.3282356,-0.6683823,0.0000004,-0.0000003,0.0000005,-0.2860021,-0.7246
 118,-0.1174415,0.0000002,-0.0276551,-1.1227397,0.000001,0.,0.0000009,-
 0.3561794,-0.1765555,0.0269613,0.0000003,-0.0629135,-0.0445728,0.,0.00
 00024,0.0000006,0.0701159,0.8127344,0.0588072,0.,0.2173321,0.2976534,0
 .,-0.0000003,0.,0.2730956,-0.0855569,-0.1558168,0.,-0.2765506,0.075811
 ,-0.0000003,-0.0000008,-0.0000007,-0.1517004,1.9315304,-0.0953462,-0.0
 000001,-0.2478923,1.323913,-0.0000012,0.0000002,-0.0000012,0.288002,-0
 .0058886,-0.0131818,0.0514341,0.0331778,0.0755507,0.046739,0.0875687,0
 .0389924,-0.0141164,0.0816884,-0.0317693,0.0000003,0.0445715,-0.022006
 1,0.0000008,-0.0000005,0.0000007,0.0801703,-0.0058892,-0.0131827,-0.05
 14343,0.0331764,0.0755496,-0.04674,-0.0875697,-0.0389934,-0.0141148,-0
 .0567513,0.0467774,0.,0.1009613,-0.015606,0.,0.,0.,0.0852425,-0.016711
 4,0.0151151,0.035023,-0.0772788,0.0276815,-0.0615689,-0.0324437,-0.064
 0074,-0.0502275,-0.0167114,0.015115,-0.035023,-0.0772788,0.0276818,0.0
 615687,0.0324438,0.0640072,-0.0502277,0.0101988,0.0238598,0.,0.0121144
 ,-0.030534,0.0000003,0.0000002,0.0000004,0.1259419\Polar=72.5051702,1.
 2221196,53.3665615,-0.0000116,-0.000012,41.6203112\Quadrupole=5.074872
 1,-4.0646544,-1.0102177,1.0123926,-0.0000031,0.0000026\PG=C01 [X(C4H7O
 2)]\NImag=0\\0.54709089,-0.01805999,0.36706643,0.00000003,-0.00000033,
 0.07841879,0.00210482,0.05725398,-0.00000007,0.11819823,0.05123490,-0.
 07873636,0.00000012,0.04188373,0.81658247,-0.00000006,0.00000012,0.027
 23250,-0.00000004,-0.00000093,0.03308224,-0.00341341,-0.00126810,0.,-0
 .00035110,0.00276606,0.,0.50879863,-0.00646818,-0.00093995,0.,-0.00076
 753,-0.00270659,0.,0.02845507,0.57710051,0.00000002,0.,0.00242452,-0.0
 0000002,0.00000005,-0.00062373,0.00000026,-0.00000022,0.50712669,-0.18
 503618,-0.05089723,0.00000005,0.00295205,-0.01431142,0.00000002,0.0004
 9240,-0.00036854,0.,0.52062215,-0.08008249,-0.13249467,0.00000007,0.00
 560161,-0.00627821,0.,0.00095946,0.00097411,0.,-0.07315819,0.58993528,
 0.00000008,0.00000008,-0.06638236,0.,0.,-0.00618269,0.,0.,0.00047219,0
 .00000007,-0.00000001,0.58996050,-0.06343580,-0.00514002,0.,0.00329322
 ,-0.03581827,0.00000004,-0.21047718,0.07337457,-0.00000014,0.00252724,
 0.00536204,0.,0.58693214,0.01762676,0.01525321,0.,-0.03993751,-0.06707
 828,0.00000010,0.06312229,-0.13175551,0.00000020,0.00491023,-0.0022870
 1,0.,-0.01504543,0.65233259,-0.00000004,0.00000001,0.01005517,0.000000
 05,0.00000007,0.01864881,-0.00000004,0.00000012,-0.04830898,0.,0.,0.00
 388931,-0.00000010,-0.00000098,0.09631106,-0.21849172,0.04654582,-0.00
 000005,-0.12078615,-0.04248739,0.00000004,-0.02065912,-0.00552397,-0.0
 0000008,-0.06913852,0.01215156,0.,-0.21582605,-0.06989153,0.00000017,0
 .62808993,0.08056192,-0.16241769,0.00000012,-0.05913465,-0.66985673,0.
 00000072,0.00905524,0.01583579,-0.00000006,0.00237807,0.02295447,-0.00
 000002,-0.05305329,-0.11348383,0.00000014,0.05265148,0.93573436,-0.000
 00009,0.00000012,-0.06435191,0.00000005,0.00000071,-0.07479896,0.,0.00
 000003,0.00627418,0.,-0.00000002,0.00288061,0.00000008,0.00000010,-0.0
 6253297,-0.00000009,-0.00000095,0.19019106,-0.00205226,-0.00020342,-0.
 00052592,-0.00011749,-0.00088259,-0.00006788,-0.11275009,-0.03815075,0
 .11723055,0.00015292,0.00031448,-0.00010391,-0.02326632,-0.00746236,0.
 01965565,-0.00001045,0.00398131,0.00094956,0.13060015,0.00101287,0.000
 04113,0.00035233,-0.00059246,0.00176473,-0.00040225,-0.03380823,-0.065
 98628,0.05487081,-0.00009828,-0.00008571,0.00003700,0.00861368,0.00596
 449,-0.01166567,-0.00142636,-0.00323483,-0.00002150,0.03883418,0.06483
 929,0.00018392,-0.00007839,-0.00008615,-0.00002761,0.00012745,0.000039
 46,0.11227695,0.05807857,-0.21019697,-0.00011819,-0.00001427,0.0000608
 8,0.00043563,-0.00217023,0.00261575,-0.00123107,-0.00053734,-0.0013871
 9,-0.12426233,-0.06257745,0.23073213,0.00132337,-0.00101331,0.,-0.0002
 9939,-0.00231226,0.00000001,-0.05283439,-0.03840721,0.00000019,-0.0001
 5734,-0.00021440,0.,0.00472106,0.03346067,-0.00000018,-0.00002839,0.00
 359873,0.,-0.00250996,-0.01600360,-0.00180561,0.05758456,0.00037112,0.
 00011944,0.,-0.00201794,0.00178245,0.,-0.03352420,-0.32034395,0.000001
 72,-0.00013654,-0.00001007,0.,0.00150314,-0.01657147,0.00000007,-0.002
 08755,-0.00252260,0.,-0.00074590,-0.00541585,-0.00012181,0.03542690,0.
 34776654,0.,0.,0.00012776,0.00000001,-0.00000002,-0.00091169,0.0000001
 4,0.00000172,-0.04847397,0.,0.,0.00005634,0.,-0.00000004,-0.00139506,0
 .00000002,0.00000003,-0.00027493,0.00210497,0.02639817,0.00092643,-0.0
 0000024,-0.00000187,0.04705056,-0.00205226,-0.00020343,0.00052592,-0.0
 0011749,-0.00088257,0.00006788,-0.11275149,-0.03815247,-0.11723070,0.0
 0015291,0.00031449,0.00010391,-0.02326638,-0.00746266,-0.01965546,-0.0
 0001049,0.00398130,-0.00094959,0.00946780,0.00407011,0.01401934,-0.002
 50997,-0.00074591,-0.00210492,0.13060166,0.00101287,0.00004114,-0.0003
 5233,-0.00059248,0.00176473,0.00040224,-0.03380994,-0.06598781,-0.0548
 7251,-0.00009827,-0.00008571,-0.00003700,0.00861373,0.00596469,0.01166
 560,-0.00142633,-0.00323485,0.00002148,0.00406997,0.00195590,0.0074120
 2,-0.01600370,-0.00541611,-0.02639799,0.03883607,0.06484088,-0.0001839
 2,0.00007839,-0.00008615,0.00002762,-0.00012747,0.00003946,-0.11227728
 ,-0.05808019,-0.21019441,0.00011819,0.00001427,0.00006088,-0.00043551,
 0.00217020,0.00261568,0.00123110,0.00053735,-0.00138718,-0.01401957,-0
 .00741236,-0.02342012,0.00180584,0.00012188,0.00092676,0.12426250,0.06
 257937,0.23072930,-0.03716102,0.02017283,-0.00000001,0.00135463,0.0009
 6543,0.,-0.00026542,-0.00037820,0.,-0.17297987,0.13493737,-0.00000008,
 -0.00118534,0.00108329,0.,-0.00133630,-0.00687163,0.00000001,-0.000114
 91,0.00004576,0.00000050,0.00005393,0.00000052,0.,-0.00011491,0.000045
 76,-0.00000050,0.20401434,-0.02147030,0.01486213,0.,0.00225707,0.00183
 228,0.,-0.00009358,-0.00016540,0.,0.14861837,-0.20333992,0.00000009,-0
 .00070628,0.00069970,0.,-0.00295229,-0.00470398,0.,-0.00003613,0.00001
 640,-0.00000455,-0.00000992,0.00001694,0.,-0.00003613,0.00001640,0.000
 00455,-0.14724925,0.21224767,0.00000002,-0.00000001,0.00007592,0.,0.,0
 .00072688,0.,0.,-0.00006192,-0.00000009,0.00000009,-0.05321800,0.,0.,0
 .00016571,0.,0.,0.00032208,0.00000557,-0.00000562,0.00000901,0.,0.,0.0
 0000009,-0.00000557,0.00000562,0.00000901,0.00000009,-0.00000010,0.047
 24354,-0.01889622,-0.02393014,-0.02835278,0.00000140,0.00281926,-0.000
 12643,-0.00005606,-0.00004062,0.00003479,-0.04990690,-0.00317778,-0.00
 615228,-0.00056158,-0.00014741,0.00088337,0.00421825,-0.00657831,-0.00
 126070,-0.00006551,0.00003933,0.00001949,-0.00003586,0.00003167,0.0000
 0198,-0.00003222,0.00003678,0.00000434,0.00388596,0.01082335,0.0189164
 3,0.05967241,-0.01319492,-0.01214931,-0.01171082,-0.00022803,0.0007390
 6,0.00032056,-0.00002805,-0.00002832,0.00003491,-0.00817298,-0.1347378
 1,-0.12393454,-0.00064018,-0.00020397,-0.00004745,0.00365500,-0.001000
 47,0.00020833,-0.00005409,0.00001612,0.00001084,0.00002291,0.00002101,
 -0.00000252,-0.00002173,0.00000543,-0.00000156,-0.00136729,-0.01074455
 ,-0.01866125,0.01775595,0.14638862,-0.00520819,0.00139519,0.00690535,0
 .00131537,0.00125682,0.00035039,0.00000247,-0.00001874,-0.00000044,-0.
 01374894,-0.12525282,-0.23568581,-0.00034089,0.00007815,-0.00037919,0.
 00178069,-0.00268098,0.00035165,-0.00001202,0.00000765,0.00000583,-0.0
 0001824,0.00001080,-0.00000628,-0.00000199,0.00000617,0.00000004,0.000
 96198,0.00222956,0.00235556,0.01565948,0.13835098,0.24706477,-0.018896
 20,-0.02393010,0.02835282,0.00000139,0.00281926,0.00012643,-0.00005606
 ,-0.00004061,-0.00003479,-0.04990690,-0.00317773,0.00615222,-0.0005615
 8,-0.00014741,-0.00088337,0.00421825,-0.00657831,0.00126072,-0.0000322
 2,0.00003678,-0.00000434,-0.00003586,0.00003167,-0.00000198,-0.0000655
 1,0.00003933,-0.00001949,0.00388596,0.01082332,-0.01891644,0.00163750,
 0.00226180,-0.00043849,0.05967241,-0.01319491,-0.01214929,0.01171085,-
 0.00022803,0.00073905,-0.00032057,-0.00002805,-0.00002832,-0.00003491,
 -0.00817293,-0.13473745,0.12393441,-0.00064018,-0.00020397,0.00004745,
 0.00365500,-0.00100047,-0.00020833,-0.00002173,0.00000543,0.00000156,0
 .00002291,0.00002101,0.00000252,-0.00005409,0.00001612,-0.00001084,-0.
 00136728,-0.01074452,0.01866127,0.00226179,0.01165372,-0.01544395,0.01
 775588,0.14638823,0.00520822,-0.00139516,0.00690532,-0.00131537,-0.001
 25682,0.00035040,-0.00000247,0.00001874,-0.00000044,0.01374889,0.12525
 269,-0.23568620,0.00034089,-0.00007815,-0.00037919,-0.00178070,0.00268
 099,0.00035164,0.00000199,-0.00000617,0.00000004,0.00001824,-0.0000108
 0,-0.00000628,0.00001202,-0.00000765,0.00000583,-0.00096198,-0.0022295
 5,0.00235554,0.00043848,0.01544390,-0.02097099,-0.01565944,-0.13835085
 ,0.24706521,-0.00108401,0.00067312,0.,-0.00623411,-0.00579414,0.,0.004
 32328,0.02646843,-0.00000008,0.00022605,0.00016959,0.,-0.05889345,0.01
 989107,-0.00000003,0.00976076,-0.02399186,0.00000005,0.00069834,-0.000
 72378,0.00051332,-0.00527174,0.00189303,0.,0.00069836,-0.00072380,-0.0
 0051331,-0.00003703,0.00003179,0.,0.00013883,0.00001162,0.00004879,0.0
 0013883,0.00001162,-0.00004879,0.05553590,0.00065034,0.00150381,0.,-0.
 00349776,-0.00054859,0.,-0.00179798,-0.00596829,0.00000003,-0.00049230
 ,0.00019270,0.,0.01357650,-0.34863063,0.00000063,0.00713655,-0.0130691
 7,0.00000004,0.00035703,0.00011918,-0.00012641,0.00143230,0.00055266,0
 .,0.00035704,0.00011919,0.00012641,-0.00001733,0.00000684,0.,0.0001061
 3,0.00004047,0.00006118,0.00010613,0.00004047,-0.00006118,-0.01791667,
 0.36564136,0.,0.,-0.00123878,0.,0.00000001,0.00204693,-0.00000003,-0.0
 0000004,0.00156327,0.,0.,-0.00022564,0.,0.00000066,-0.02130612,-0.0000
 0003,0.00000001,0.00436193,-0.00095666,0.00042505,0.00070090,0.,0.0000
 0002,0.00198026,0.00095666,-0.00042502,0.00070091,0.,0.,0.00001657,-0.
 00006617,-0.00001138,0.00000911,0.00006617,0.00001138,0.00000911,0.000
 00004,-0.00000069,0.01138158\\-0.00000002,-0.00000058,0.,0.00000032,-0
 .00000005,0.,0.00000003,0.00000069,0.,-0.00000005,-0.00000069,0.,-0.00
 000026,0.00000023,0.,0.00000012,0.00000033,0.,-0.00000007,0.00000080,0
 .00000002,0.00000033,0.00000063,0.,-0.00000007,0.00000080,-0.00000003,
 -0.00000022,-0.00000089,0.,0.00000017,-0.00000073,-0.00000002,0.000000
 17,-0.00000074,0.00000002,-0.00000045,0.00000018,0.\\\@


 WISDOM IS KNOWING WHAT TO DO,
 SKILL IS KNOWING HOW TO DO IT,
 AND VIRTUE IS NOT DOING IT.
 Job cpu time:       0 days  1 hours 45 minutes 12.2 seconds.
 Elapsed time:       0 days  0 hours  5 minutes 16.3 seconds.
 File lengths (MBytes):  RWF=   1392 Int=      0 D2E=      0 Chk=     32 Scr=     32
 Normal termination of Gaussian 16 at Mon Mar 11 15:56:30 2019.
