 Entering Gaussian System, Link 0=g16
 Input=DUEVIJNWLJUFDM-UHFFFAOYSA-N_GeoFreq_c3_a1.com
 Output=DUEVIJNWLJUFDM-UHFFFAOYSA-N_GeoFreq_c3_a1.log
 Initial command:
 /shared/centos7/gaussian/g16/l1.exe "/scratch/underkoffler.c/gaussian_scratch/Gau-48334.inp" -scrdir="/scratch/underkoffler.c/gaussian_scratch/"
 Entering Link 1 = /shared/centos7/gaussian/g16/l1.exe PID=     48335.
  
 Copyright (c) 1988,1990,1992,1993,1995,1998,2003,2009,2016,
            Gaussian, Inc.  All Rights Reserved.
  
 This is part of the Gaussian(R) 16 program.  It is based on
 the Gaussian(R) 09 system (copyright 2009, Gaussian, Inc.),
 the Gaussian(R) 03 system (copyright 2003, Gaussian, Inc.),
 the Gaussian(R) 98 system (copyright 1998, Gaussian, Inc.),
 the Gaussian(R) 94 system (copyright 1995, Gaussian, Inc.),
 the Gaussian 92(TM) system (copyright 1992, Gaussian, Inc.),
 the Gaussian 90(TM) system (copyright 1990, Gaussian, Inc.),
 the Gaussian 88(TM) system (copyright 1988, Gaussian, Inc.),
 the Gaussian 86(TM) system (copyright 1986, Carnegie Mellon
 University), and the Gaussian 82(TM) system (copyright 1983,
 Carnegie Mellon University). Gaussian is a federally registered
 trademark of Gaussian, Inc.
  
 This software contains proprietary and confidential information,
 including trade secrets, belonging to Gaussian, Inc.
  
 This software is provided under written license and may be
 used, copied, transmitted, or stored only in accord with that
 written license.
  
 The following legend is applicable only to US Government
 contracts under FAR:
  
                    RESTRICTED RIGHTS LEGEND
  
 Use, reproduction and disclosure by the US Government is
 subject to restrictions as set forth in subparagraphs (a)
 and (c) of the Commercial Computer Software - Restricted
 Rights clause in FAR 52.227-19.
  
 Gaussian, Inc.
 340 Quinnipiac St., Bldg. 40, Wallingford CT 06492
  
  
 ---------------------------------------------------------------
 Warning -- This program may not be used in any manner that
 competes with the business of Gaussian, Inc. or will provide
 assistance to any competitor of Gaussian, Inc.  The licensee
 of this program is prohibited from giving any competitor of
 Gaussian, Inc. access to this program.  By using this program,
 the user acknowledges that Gaussian, Inc. is engaged in the
 business of creating and licensing software in the field of
 computational chemistry and represents and warrants to the
 licensee that it is not a competitor of Gaussian, Inc. and that
 it will not use this program in any manner prohibited above.
 ---------------------------------------------------------------
  

 Cite this work as:
 Gaussian 16, Revision A.03,
 M. J. Frisch, G. W. Trucks, H. B. Schlegel, G. E. Scuseria, 
 M. A. Robb, J. R. Cheeseman, G. Scalmani, V. Barone, 
 G. A. Petersson, H. Nakatsuji, X. Li, M. Caricato, A. V. Marenich, 
 J. Bloino, B. G. Janesko, R. Gomperts, B. Mennucci, H. P. Hratchian, 
 J. V. Ortiz, A. F. Izmaylov, J. L. Sonnenberg, D. Williams-Young, 
 F. Ding, F. Lipparini, F. Egidi, J. Goings, B. Peng, A. Petrone, 
 T. Henderson, D. Ranasinghe, V. G. Zakrzewski, J. Gao, N. Rega, 
 G. Zheng, W. Liang, M. Hada, M. Ehara, K. Toyota, R. Fukuda, 
 J. Hasegawa, M. Ishida, T. Nakajima, Y. Honda, O. Kitao, H. Nakai, 
 T. Vreven, K. Throssell, J. A. Montgomery, Jr., J. E. Peralta, 
 F. Ogliaro, M. J. Bearpark, J. J. Heyd, E. N. Brothers, K. N. Kudin, 
 V. N. Staroverov, T. A. Keith, R. Kobayashi, J. Normand, 
 K. Raghavachari, A. P. Rendell, J. C. Burant, S. S. Iyengar, 
 J. Tomasi, M. Cossi, J. M. Millam, M. Klene, C. Adamo, R. Cammi, 
 J. W. Ochterski, R. L. Martin, K. Morokuma, O. Farkas, 
 J. B. Foresman, and D. J. Fox, Gaussian, Inc., Wallingford CT, 2016.
 
 ******************************************
 Gaussian 16:  EM64L-G16RevA.03 25-Dec-2016
                 9-Apr-2019 
 ******************************************
 %nprocshared=20
 Will use up to   20 processors via shared memory.
 %mem=5GB
 ----------------------------------------------------------------------
 #p m062x/6-311+g(2df,2p) opt=(calcfc,verytight,gdiis,maxcycles=900) fr
 eq iop(7/33=1,2/16=3)
 ----------------------------------------------------------------------

 Warning!  Use of Opt=GDIIS is deprecated since it is seldom a good choice.

 1/6=900,7=1,10=4,18=20,19=11,26=3,38=1/1,3;
 2/9=110,12=2,16=3,17=6,18=5,40=1/2;
 3/5=4,6=6,7=214,11=2,25=1,30=1,71=2,74=-55,140=1/1,2,3;
 4//1;
 5/5=2,38=5/2;
 8/6=4,10=90,11=11/1;
 11/6=1,8=1,9=11,15=111,16=1/1,2,10;
 10/6=1,13=1/2;
 6/7=2,8=2,9=2,10=2,28=1/1;
 7/10=1,18=20,25=1,33=1/1,2,3,16;
 1/6=900,7=1,10=4,18=20,19=11,26=3/3(2);
 2/9=110,16=3/2;
 99//99;
 2/9=110,16=3/2;
 3/5=4,6=6,7=214,11=2,25=1,30=1,71=1,74=-55/1,2,3;
 4/5=5,16=3,69=1/1;
 5/5=2,38=5/2;
 7/33=1/1,2,3,16;
 1/6=900,7=1,18=20,19=11,26=3/3(-5);
 2/9=110,16=3/2;
 6/7=2,8=2,9=2,10=2,19=2,28=1/1;
 99/9=1/99;
 Leave Link    1 at Tue Apr  9 01:58:12 2019, MaxMem=   671088640 cpu:              28.6 elap:               1.5
 (Enter /shared/centos7/gaussian/g16/l101.exe)
 ------------------------------
 Gaussian input prepared by ASE
 ------------------------------
 Symbolic Z-matrix:
 Charge =  0 Multiplicity = 2
 O                    -1.51814   0.61557  -0.5673 
 O                    -0.74226  -1.54248  -0.20542 
 C                     1.34152  -1.16632  -2.3683 
 C                    -2.46205   0.33545   0.46395 
 C                     0.32527  -0.16476  -1.90811 
 C                    -0.6606   -0.45829  -0.8265 
 H                     2.07175  -1.39018  -1.5492 
 H                     0.86339  -2.12318  -2.63402 
 H                     1.90822  -0.77786  -3.25197 
 H                    -2.53055  -0.753     0.64263 
 H                    -3.45446   0.73961   0.14485 
 H                    -2.15235   0.85162   1.40623 
 H                     0.3504    0.85554  -2.35394 
 
 ITRead=  0  0  0  0  0  0  0  0  0  0  0  0  0
 MicOpt= -1 -1 -1 -1 -1 -1 -1 -1 -1 -1 -1 -1 -1
 NAtoms=     13 NQM=       13 NQMF=       0 NMMI=      0 NMMIF=      0
                NMic=       0 NMicF=      0.
                    Isotopes and Nuclear Properties:
 (Nuclear quadrupole moments (NQMom) in fm**2, nuclear magnetic moments (NMagM)
  in nuclear magnetons)

  Atom         1           2           3           4           5           6           7           8           9          10
 IAtWgt=          16          16          12          12          12          12           1           1           1           1
 AtmWgt=  15.9949146  15.9949146  12.0000000  12.0000000  12.0000000  12.0000000   1.0078250   1.0078250   1.0078250   1.0078250
 NucSpn=           0           0           0           0           0           0           1           1           1           1
 AtZEff=  -0.0000000  -0.0000000  -0.0000000  -0.0000000  -0.0000000  -0.0000000  -0.0000000  -0.0000000  -0.0000000  -0.0000000
 NQMom=    0.0000000   0.0000000   0.0000000   0.0000000   0.0000000   0.0000000   0.0000000   0.0000000   0.0000000   0.0000000
 NMagM=    0.0000000   0.0000000   0.0000000   0.0000000   0.0000000   0.0000000   2.7928460   2.7928460   2.7928460   2.7928460
 AtZNuc=   8.0000000   8.0000000   6.0000000   6.0000000   6.0000000   6.0000000   1.0000000   1.0000000   1.0000000   1.0000000

  Atom        11          12          13
 IAtWgt=           1           1           1
 AtmWgt=   1.0078250   1.0078250   1.0078250
 NucSpn=           1           1           1
 AtZEff=  -0.0000000  -0.0000000  -0.0000000
 NQMom=    0.0000000   0.0000000   0.0000000
 NMagM=    2.7928460   2.7928460   2.7928460
 AtZNuc=   1.0000000   1.0000000   1.0000000
 Leave Link  101 at Tue Apr  9 01:58:13 2019, MaxMem=   671088640 cpu:               6.0 elap:               0.3
 (Enter /shared/centos7/gaussian/g16/l103.exe)

 GradGradGradGradGradGradGradGradGradGradGradGradGradGradGradGradGradGrad
 Berny optimization.
 Initialization pass.
                           ----------------------------
                           !    Initial Parameters    !
                           ! (Angstroms and Degrees)  !
 --------------------------                            --------------------------
 ! Name  Definition              Value          Derivative Info.                !
 --------------------------------------------------------------------------------
 ! R1    R(1,4)                  1.4258         calculate D2E/DX2 analytically  !
 ! R2    R(1,6)                  1.3985         calculate D2E/DX2 analytically  !
 ! R3    R(2,6)                  1.2521         calculate D2E/DX2 analytically  !
 ! R4    R(3,5)                  1.4992         calculate D2E/DX2 analytically  !
 ! R5    R(3,7)                  1.12           calculate D2E/DX2 analytically  !
 ! R6    R(3,8)                  1.1022         calculate D2E/DX2 analytically  !
 ! R7    R(3,9)                  1.1193         calculate D2E/DX2 analytically  !
 ! R8    R(4,10)                 1.1051         calculate D2E/DX2 analytically  !
 ! R9    R(4,11)                 1.118          calculate D2E/DX2 analytically  !
 ! R10   R(4,12)                 1.1181         calculate D2E/DX2 analytically  !
 ! R11   R(5,6)                  1.4926         calculate D2E/DX2 analytically  !
 ! R12   R(5,13)                 1.1137         calculate D2E/DX2 analytically  !
 ! A1    A(4,1,6)              112.9012         calculate D2E/DX2 analytically  !
 ! A2    A(5,3,7)              110.5491         calculate D2E/DX2 analytically  !
 ! A3    A(5,3,8)              111.0958         calculate D2E/DX2 analytically  !
 ! A4    A(5,3,9)              110.712          calculate D2E/DX2 analytically  !
 ! A5    A(7,3,8)              106.5968         calculate D2E/DX2 analytically  !
 ! A6    A(7,3,9)              108.4604         calculate D2E/DX2 analytically  !
 ! A7    A(8,3,9)              109.3043         calculate D2E/DX2 analytically  !
 ! A8    A(1,4,10)             110.5774         calculate D2E/DX2 analytically  !
 ! A9    A(1,4,11)             108.0702         calculate D2E/DX2 analytically  !
 ! A10   A(1,4,12)             109.6004         calculate D2E/DX2 analytically  !
 ! A11   A(10,4,11)            110.3133         calculate D2E/DX2 analytically  !
 ! A12   A(10,4,12)            109.6074         calculate D2E/DX2 analytically  !
 ! A13   A(11,4,12)            108.6323         calculate D2E/DX2 analytically  !
 ! A14   A(3,5,6)              122.5998         calculate D2E/DX2 analytically  !
 ! A15   A(3,5,13)             118.2841         calculate D2E/DX2 analytically  !
 ! A16   A(6,5,13)             119.0203         calculate D2E/DX2 analytically  !
 ! A17   A(1,6,2)              122.2055         calculate D2E/DX2 analytically  !
 ! A18   A(1,6,5)              112.8494         calculate D2E/DX2 analytically  !
 ! A19   A(2,6,5)              124.9434         calculate D2E/DX2 analytically  !
 ! D1    D(6,1,4,10)           -16.9184         calculate D2E/DX2 analytically  !
 ! D2    D(6,1,4,11)          -137.7517         calculate D2E/DX2 analytically  !
 ! D3    D(6,1,4,12)           104.0239         calculate D2E/DX2 analytically  !
 ! D4    D(4,1,6,2)              0.328          calculate D2E/DX2 analytically  !
 ! D5    D(4,1,6,5)            179.8851         calculate D2E/DX2 analytically  !
 ! D6    D(7,3,5,6)            -65.4513         calculate D2E/DX2 analytically  !
 ! D7    D(7,3,5,13)           110.9521         calculate D2E/DX2 analytically  !
 ! D8    D(8,3,5,6)             52.6852         calculate D2E/DX2 analytically  !
 ! D9    D(8,3,5,13)          -130.9115         calculate D2E/DX2 analytically  !
 ! D10   D(9,3,5,6)            174.3321         calculate D2E/DX2 analytically  !
 ! D11   D(9,3,5,13)            -9.2645         calculate D2E/DX2 analytically  !
 ! D12   D(3,5,6,1)           -179.5665         calculate D2E/DX2 analytically  !
 ! D13   D(3,5,6,2)             -0.0236         calculate D2E/DX2 analytically  !
 ! D14   D(13,5,6,1)             4.0556         calculate D2E/DX2 analytically  !
 ! D15   D(13,5,6,2)          -176.4016         calculate D2E/DX2 analytically  !
 --------------------------------------------------------------------------------
 Trust Radius=3.00D-01 FncErr=1.00D-07 GrdErr=1.00D-06 EigMax=2.50D+02 EigMin=1.00D-04
 Number of steps in this run=    100 maximum allowed number of steps=    100.
 GradGradGradGradGradGradGradGradGradGradGradGradGradGradGradGradGradGrad

 Leave Link  103 at Tue Apr  9 01:58:13 2019, MaxMem=   671088640 cpu:               0.2 elap:               0.0
 (Enter /shared/centos7/gaussian/g16/l202.exe)
                          Input orientation:                          
 ---------------------------------------------------------------------
 Center     Atomic      Atomic             Coordinates (Angstroms)
 Number     Number       Type             X           Y           Z
 ---------------------------------------------------------------------
      1          8           0       -1.518137    0.615572   -0.567296
      2          8           0       -0.742260   -1.542480   -0.205420
      3          6           0        1.341516   -1.166319   -2.368303
      4          6           0       -2.462053    0.335450    0.463948
      5          6           0        0.325274   -0.164761   -1.908110
      6          6           0       -0.660601   -0.458290   -0.826497
      7          1           0        2.071751   -1.390185   -1.549198
      8          1           0        0.863393   -2.123182   -2.634021
      9          1           0        1.908219   -0.777865   -3.251973
     10          1           0       -2.530552   -0.753003    0.642630
     11          1           0       -3.454457    0.739608    0.144851
     12          1           0       -2.152353    0.851621    1.406234
     13          1           0        0.350397    0.855540   -2.353939
 ---------------------------------------------------------------------
                    Distance matrix (angstroms):
                    1          2          3          4          5
     1  O    0.000000
     2  O    2.321665   0.000000
     3  C    3.820521   3.026827   0.000000
     4  C    1.425801   2.632939   4.974344   0.000000
     5  C    2.409329   2.436574   1.499214   3.694058   0.000000
     6  C    1.398475   1.252148   2.624299   2.353827   1.492647
     7  H    4.227823   3.122112   1.119952   5.252233   2.163483
     8  H    4.176579   2.968743   1.102177   5.167289   2.156834
     9  H    4.570457   4.109886   1.119340   5.843528   2.165082
    10  H    2.088517   2.130834   4.922343   1.105147   3.874022
    11  H    2.066851   3.561830   5.740197   1.118048   4.395327
    12  H    2.086329   3.212089   5.525064   1.118145   4.261049
    13  H    2.596362   3.400078   2.251763   4.015078   1.113736
                    6          7          8          9         10
     6  C    0.000000
     7  H    2.975982   0.000000
     8  H    2.891637   1.781644   0.000000
     9  H    3.547379   1.816899   1.812018   0.000000
    10  H    2.396228   5.137247   4.912504   5.905188   0.000000
    11  H    3.191255   6.159934   5.878905   6.526824   1.824629
    12  H    2.987688   5.621683   5.853873   6.390803   1.816850
    13  H    2.254183   2.941759   3.035522   2.429256   4.457208
                   11         12         13
    11  H    0.000000
    12  H    1.816344   0.000000
    13  H    4.553493   4.516932   0.000000
 Stoichiometry    C4H7O2(2)
 Framework group  C1[X(C4H7O2)]
 Deg. of freedom    33
 Full point group                 C1      NOp   1
 Largest Abelian subgroup         C1      NOp   1
 Largest concise Abelian subgroup C1      NOp   1
                         Standard orientation:                         
 ---------------------------------------------------------------------
 Center     Atomic      Atomic             Coordinates (Angstroms)
 Number     Number       Type             X           Y           Z
 ---------------------------------------------------------------------
      1          8           0        1.154328   -0.761805   -0.004407
      2          8           0        0.142042    1.327535    0.003505
      3          6           0       -2.586082    0.016465   -0.007209
      4          6           0        2.387857   -0.046747   -0.001886
      5          6           0       -1.253250   -0.669965   -0.003168
      6          6           0        0.037436    0.079765    0.002238
      7          1           0       -2.739494    0.582794    0.946744
      8          1           0       -2.650432    0.753140   -0.824500
      9          1           0       -3.414684   -0.728424   -0.114362
     10          1           0        2.227046    1.006216   -0.296437
     11          1           0        3.081458   -0.549222   -0.720543
     12          1           0        2.841844   -0.085591    1.019209
     13          1           0       -1.232463   -1.781867    0.057260
 ---------------------------------------------------------------------
 Rotational constants (GHZ):           9.6832326           2.0793707           1.7504987
 Leave Link  202 at Tue Apr  9 01:58:13 2019, MaxMem=   671088640 cpu:               0.2 elap:               0.0
 (Enter /shared/centos7/gaussian/g16/l301.exe)
 Standard basis: 6-311+G(2df,2p) (5D, 7F)
 Ernie: Thresh=  0.10000D-02 Tol=  0.10000D-05 Strict=F.
 There are   297 symmetry adapted cartesian basis functions of A   symmetry.
 There are   267 symmetry adapted basis functions of A   symmetry.
   267 basis functions,   389 primitive gaussians,   297 cartesian basis functions
    24 alpha electrons       23 beta electrons
       nuclear repulsion energy       230.2787291515 Hartrees.
 IExCor= 4336 DFT=T Ex+Corr=M062X ExCW=0 ScaHFX=  0.540000
 ScaDFX=  1.000000  1.000000  1.000000  1.000000 ScalE2=  1.000000  1.000000
 IRadAn=      5 IRanWt=     -1 IRanGd=            0 ICorTp=0 IEmpDi=  4
 NAtoms=   13 NActive=   13 NUniq=   13 SFac= 1.00D+00 NAtFMM=   60 NAOKFM=F Big=F
 Integral buffers will be    131072 words long.
 Raffenetti 2 integral format.
 Two-electron integral symmetry is turned on.
 Leave Link  301 at Tue Apr  9 01:58:13 2019, MaxMem=   671088640 cpu:               1.3 elap:               0.1
 (Enter /shared/centos7/gaussian/g16/l302.exe)
 NPDir=0 NMtPBC=     1 NCelOv=     1 NCel=       1 NClECP=     1 NCelD=      1
         NCelK=      1 NCelE2=     1 NClLst=     1 CellRange=     0.0.
 One-electron integrals computed using PRISM.
 One-electron integral symmetry used in STVInt
 NBasis=   267 RedAO= T EigKep=  4.18D-05  NBF=   267
 NBsUse=   267 1.00D-06 EigRej= -1.00D+00 NBFU=   267
 Precomputing XC quadrature grid using
 IXCGrd= 4 IRadAn=           5 IRanWt=          -1 IRanGd=           0 AccXCQ= 0.00D+00.
 Generated NRdTot=       0 NPtTot=           0 NUsed=           0 NTot=          32
 NSgBfM=   297   297   297   297   297 MxSgAt=    13 MxSgA2=    13.
 Leave Link  302 at Tue Apr  9 01:58:13 2019, MaxMem=   671088640 cpu:               6.5 elap:               0.4
 (Enter /shared/centos7/gaussian/g16/l303.exe)
 DipDrv:  MaxL=1.
 Leave Link  303 at Tue Apr  9 01:58:13 2019, MaxMem=   671088640 cpu:               0.6 elap:               0.1
 (Enter /shared/centos7/gaussian/g16/l401.exe)
 ExpMin= 4.38D-02 ExpMax= 8.59D+03 ExpMxC= 1.30D+03 IAcc=3 IRadAn=         5 AccDes= 0.00D+00
 Harris functional with IExCor= 1009 and IRadAn=       5 diagonalized for initial guess.
 HarFok:  IExCor= 1009 AccDes= 0.00D+00 IRadAn=         5 IDoV= 1 UseB2=F ITyADJ=14
 ICtDFT=  3500011 ScaDFX=  1.000000  1.000000  1.000000  1.000000
 FoFCou: FMM=F IPFlag=           0 FMFlag=      100000 FMFlg1=           0
         NFxFlg=           0 DoJE=T BraDBF=F KetDBF=T FulRan=T
         wScrn=  0.000000 ICntrl=       500 IOpCl=  0 I1Cent=   200000004 NGrid=           0
         NMat0=    1 NMatS0=      1 NMatT0=    0 NMatD0=    1 NMtDS0=    0 NMtDT0=    0
 Petite list used in FoFCou.
 Harris En= -306.864082579620    
 JPrj=0 DoOrth=F DoCkMO=F.
 Initial guess <Sx>= 0.0000 <Sy>= 0.0000 <Sz>= 0.5000 <S**2>= 0.7500 S= 0.5000
 Leave Link  401 at Tue Apr  9 01:58:14 2019, MaxMem=   671088640 cpu:              18.6 elap:               1.0
 (Enter /shared/centos7/gaussian/g16/l502.exe)
 Integral symmetry usage will be decided dynamically.
 UHF open shell SCF:
 Using DIIS extrapolation, IDIIS=  1040.
 NGot=   671088640 LenX=   670903575 LenY=   670814925
 Requested convergence on RMS density matrix=1.00D-08 within 128 cycles.
 Requested convergence on MAX density matrix=1.00D-06.
 Requested convergence on             energy=1.00D-06.
 No special actions if energy rises.
 Fock matrices will be formed incrementally for  20 cycles.

 Cycle   1  Pass 1  IDiag  1:
 FoFJK:  IHMeth= 1 ICntrl=       0 DoSepK=F KAlg= 0 I1Cent=           0 FoldK=F
 IRaf= 950000000 NMat=       1 IRICut=       1 DoRegI=T DoRafI=F ISym2E= 0 IDoP0=0 IntGTp=1.
 FoFCou: FMM=F IPFlag=           0 FMFlag=      100000 FMFlg1=           0
         NFxFlg=           0 DoJE=F BraDBF=F KetDBF=F FulRan=T
         wScrn=  0.000000 ICntrl=         0 IOpCl=  1 I1Cent=           0 NGrid=           0
         NMat0=    1 NMatS0=      1 NMatT0=    0 NMatD0=    1 NMtDS0=    0 NMtDT0=    0
 Symmetry not used in FoFCou.
 E= -306.831314876637    
 DIIS: error= 2.94D-02 at cycle   1 NSaved=   1.
 NSaved= 1 IEnMin= 1 EnMin= -306.831314876637     IErMin= 1 ErrMin= 2.94D-02
 ErrMax= 2.94D-02  0.00D+00 EMaxC= 1.00D-01 BMatC= 9.77D-01 BMatP= 9.77D-01
 IDIUse=3 WtCom= 7.06D-01 WtEn= 2.94D-01
 Coeff-Com:  0.100D+01
 Coeff-En:   0.100D+01
 Coeff:      0.100D+01
 Gap=     0.337 Goal=   None    Shift=    0.000
 Gap=     0.253 Goal=   None    Shift=    0.000
 GapD=    0.253 DampG=1.000 DampE=0.500 DampFc=0.5000 IDamp=-1.
 Damping current iteration by 5.00D-01
 RMSDP=3.81D-03 MaxDP=3.25D-01              OVMax= 2.43D-01

 Cycle   2  Pass 1  IDiag  1:
 RMSU=  1.89D-03    CP:  1.02D+00
 E= -306.906304215534     Delta-E=       -0.074989338897 Rises=F Damp=T
 DIIS: error= 7.12D-03 at cycle   2 NSaved=   2.
 NSaved= 2 IEnMin= 2 EnMin= -306.906304215534     IErMin= 2 ErrMin= 7.12D-03
 ErrMax= 7.12D-03  0.00D+00 EMaxC= 1.00D-01 BMatC= 1.03D-01 BMatP= 9.77D-01
 IDIUse=3 WtCom= 9.29D-01 WtEn= 7.12D-02
 Coeff-Com:  0.356D-01 0.964D+00
 Coeff-En:   0.902D-01 0.910D+00
 Coeff:      0.395D-01 0.960D+00
 Gap=     0.373 Goal=   None    Shift=    0.000
 Gap=     0.303 Goal=   None    Shift=    0.000
 RMSDP=2.06D-03 MaxDP=2.62D-01 DE=-7.50D-02 OVMax= 1.35D-01

 Cycle   3  Pass 1  IDiag  1:
 RMSU=  1.44D-03    CP:  9.50D-01  3.35D-01
 E= -306.990231819997     Delta-E=       -0.083927604463 Rises=F Damp=F
 DIIS: error= 1.26D-02 at cycle   3 NSaved=   3.
 NSaved= 3 IEnMin= 3 EnMin= -306.990231819997     IErMin= 2 ErrMin= 7.12D-03
 ErrMax= 1.26D-02  0.00D+00 EMaxC= 1.00D-01 BMatC= 8.19D-02 BMatP= 1.03D-01
 IDIUse=3 WtCom= 8.74D-01 WtEn= 1.26D-01
 Coeff-Com: -0.766D-01 0.494D+00 0.582D+00
 Coeff-En:   0.000D+00 0.000D+00 0.100D+01
 Coeff:     -0.669D-01 0.432D+00 0.635D+00
 Gap=     0.310 Goal=   None    Shift=    0.000
 Gap=     0.281 Goal=   None    Shift=    0.000
 RMSDP=4.84D-04 MaxDP=1.99D-02 DE=-8.39D-02 OVMax= 7.23D-02

 Cycle   4  Pass 1  IDiag  1:
 RMSU=  4.48D-04    CP:  9.51D-01  4.32D-01  1.02D+00
 E= -307.002991625706     Delta-E=       -0.012759805709 Rises=F Damp=F
 DIIS: error= 4.66D-03 at cycle   4 NSaved=   4.
 NSaved= 4 IEnMin= 4 EnMin= -307.002991625706     IErMin= 4 ErrMin= 4.66D-03
 ErrMax= 4.66D-03  0.00D+00 EMaxC= 1.00D-01 BMatC= 1.64D-02 BMatP= 8.19D-02
 IDIUse=3 WtCom= 9.53D-01 WtEn= 4.66D-02
 Coeff-Com: -0.276D-01 0.738D-01 0.340D+00 0.614D+00
 Coeff-En:   0.000D+00 0.000D+00 0.158D+00 0.842D+00
 Coeff:     -0.263D-01 0.704D-01 0.331D+00 0.624D+00
 Gap=     0.304 Goal=   None    Shift=    0.000
 Gap=     0.280 Goal=   None    Shift=    0.000
 RMSDP=2.18D-04 MaxDP=1.73D-02 DE=-1.28D-02 OVMax= 1.59D-02

 Cycle   5  Pass 1  IDiag  1:
 RMSU=  8.82D-05    CP:  9.44D-01  3.59D-01  1.08D+00  7.72D-01
 E= -307.006075478338     Delta-E=       -0.003083852632 Rises=F Damp=F
 DIIS: error= 8.01D-04 at cycle   5 NSaved=   5.
 NSaved= 5 IEnMin= 5 EnMin= -307.006075478338     IErMin= 5 ErrMin= 8.01D-04
 ErrMax= 8.01D-04  0.00D+00 EMaxC= 1.00D-01 BMatC= 5.56D-04 BMatP= 1.64D-02
 IDIUse=3 WtCom= 9.92D-01 WtEn= 8.01D-03
 Coeff-Com: -0.609D-02 0.450D-02 0.107D+00 0.259D+00 0.635D+00
 Coeff-En:   0.000D+00 0.000D+00 0.000D+00 0.000D+00 0.100D+01
 Coeff:     -0.604D-02 0.447D-02 0.106D+00 0.257D+00 0.638D+00
 Gap=     0.303 Goal=   None    Shift=    0.000
 Gap=     0.281 Goal=   None    Shift=    0.000
 RMSDP=3.88D-05 MaxDP=2.28D-03 DE=-3.08D-03 OVMax= 6.83D-03

 Cycle   6  Pass 1  IDiag  1:
 RMSU=  3.40D-05    CP:  9.44D-01  3.54D-01  1.08D+00  7.93D-01  1.00D+00
 E= -307.006221924650     Delta-E=       -0.000146446312 Rises=F Damp=F
 DIIS: error= 4.01D-04 at cycle   6 NSaved=   6.
 NSaved= 6 IEnMin= 6 EnMin= -307.006221924650     IErMin= 6 ErrMin= 4.01D-04
 ErrMax= 4.01D-04  0.00D+00 EMaxC= 1.00D-01 BMatC= 1.12D-04 BMatP= 5.56D-04
 IDIUse=3 WtCom= 9.96D-01 WtEn= 4.01D-03
 Coeff-Com:  0.396D-02-0.150D-01-0.348D-01-0.546D-01 0.234D+00 0.867D+00
 Coeff-En:   0.000D+00 0.000D+00 0.000D+00 0.000D+00 0.000D+00 0.100D+01
 Coeff:      0.394D-02-0.150D-01-0.347D-01-0.544D-01 0.233D+00 0.867D+00
 Gap=     0.304 Goal=   None    Shift=    0.000
 Gap=     0.282 Goal=   None    Shift=    0.000
 RMSDP=3.66D-05 MaxDP=2.89D-03 DE=-1.46D-04 OVMax= 4.10D-03

 Cycle   7  Pass 1  IDiag  1:
 RMSU=  1.73D-05    CP:  9.43D-01  3.45D-01  1.09D+00  8.07D-01  1.21D+00
                    CP:  1.22D+00
 E= -307.006276112128     Delta-E=       -0.000054187478 Rises=F Damp=F
 DIIS: error= 1.40D-04 at cycle   7 NSaved=   7.
 NSaved= 7 IEnMin= 7 EnMin= -307.006276112128     IErMin= 7 ErrMin= 1.40D-04
 ErrMax= 1.40D-04  0.00D+00 EMaxC= 1.00D-01 BMatC= 1.83D-05 BMatP= 1.12D-04
 IDIUse=3 WtCom= 9.99D-01 WtEn= 1.40D-03
 Coeff-Com:  0.276D-02-0.481D-02-0.331D-01-0.839D-01-0.101D+00 0.182D+00
 Coeff-Com:  0.104D+01
 Coeff-En:   0.000D+00 0.000D+00 0.000D+00 0.000D+00 0.000D+00 0.000D+00
 Coeff-En:   0.100D+01
 Coeff:      0.276D-02-0.480D-02-0.330D-01-0.838D-01-0.101D+00 0.181D+00
 Coeff:      0.104D+01
 Gap=     0.305 Goal=   None    Shift=    0.000
 Gap=     0.283 Goal=   None    Shift=    0.000
 RMSDP=2.07D-05 MaxDP=1.37D-03 DE=-5.42D-05 OVMax= 3.27D-03

 Cycle   8  Pass 1  IDiag  1:
 RMSU=  8.87D-06    CP:  9.42D-01  3.41D-01  1.10D+00  8.09D-01  1.33D+00
                    CP:  1.51D+00  1.35D+00
 E= -307.006291276993     Delta-E=       -0.000015164865 Rises=F Damp=F
 DIIS: error= 9.99D-05 at cycle   8 NSaved=   8.
 NSaved= 8 IEnMin= 8 EnMin= -307.006291276993     IErMin= 8 ErrMin= 9.99D-05
 ErrMax= 9.99D-05  0.00D+00 EMaxC= 1.00D-01 BMatC= 3.56D-06 BMatP= 1.83D-05
 IDIUse=1 WtCom= 1.00D+00 WtEn= 0.00D+00
 Coeff-Com:  0.348D-03 0.378D-03-0.312D-02-0.169D-01-0.611D-01-0.582D-01
 Coeff-Com:  0.322D+00 0.817D+00
 Coeff:      0.348D-03 0.378D-03-0.312D-02-0.169D-01-0.611D-01-0.582D-01
 Coeff:      0.322D+00 0.817D+00
 Gap=     0.305 Goal=   None    Shift=    0.000
 Gap=     0.283 Goal=   None    Shift=    0.000
 RMSDP=5.75D-06 MaxDP=2.76D-04 DE=-1.52D-05 OVMax= 1.07D-03

 Cycle   9  Pass 1  IDiag  1:
 RMSU=  3.38D-06    CP:  9.43D-01  3.41D-01  1.10D+00  8.06D-01  1.34D+00
                    CP:  1.58D+00  1.52D+00  1.20D+00
 E= -307.006293713865     Delta-E=       -0.000002436872 Rises=F Damp=F
 DIIS: error= 5.81D-05 at cycle   9 NSaved=   9.
 NSaved= 9 IEnMin= 9 EnMin= -307.006293713865     IErMin= 9 ErrMin= 5.81D-05
 ErrMax= 5.81D-05  0.00D+00 EMaxC= 1.00D-01 BMatC= 6.97D-07 BMatP= 3.56D-06
 IDIUse=1 WtCom= 1.00D+00 WtEn= 0.00D+00
 Coeff-Com: -0.598D-03 0.114D-02 0.864D-02 0.192D-01 0.169D-01-0.507D-01
 Coeff-Com: -0.236D+00 0.283D-01 0.121D+01
 Coeff:     -0.598D-03 0.114D-02 0.864D-02 0.192D-01 0.169D-01-0.507D-01
 Coeff:     -0.236D+00 0.283D-01 0.121D+01
 Gap=     0.305 Goal=   None    Shift=    0.000
 Gap=     0.283 Goal=   None    Shift=    0.000
 RMSDP=4.53D-06 MaxDP=2.41D-04 DE=-2.44D-06 OVMax= 8.87D-04

 Cycle  10  Pass 1  IDiag  1:
 RMSU=  1.91D-06    CP:  9.43D-01  3.41D-01  1.10D+00  8.04D-01  1.34D+00
                    CP:  1.61D+00  1.63D+00  1.50D+00  1.54D+00
 E= -307.006294745539     Delta-E=       -0.000001031675 Rises=F Damp=F
 DIIS: error= 2.49D-05 at cycle  10 NSaved=  10.
 NSaved=10 IEnMin=10 EnMin= -307.006294745539     IErMin=10 ErrMin= 2.49D-05
 ErrMax= 2.49D-05  0.00D+00 EMaxC= 1.00D-01 BMatC= 1.29D-07 BMatP= 6.97D-07
 IDIUse=1 WtCom= 1.00D+00 WtEn= 0.00D+00
 Coeff-Com:  0.112D-03-0.379D-03-0.113D-02-0.945D-03 0.818D-02 0.191D-01
 Coeff-Com: -0.465D-02-0.174D+00-0.231D+00 0.138D+01
 Coeff:      0.112D-03-0.379D-03-0.113D-02-0.945D-03 0.818D-02 0.191D-01
 Coeff:     -0.465D-02-0.174D+00-0.231D+00 0.138D+01
 Gap=     0.305 Goal=   None    Shift=    0.000
 Gap=     0.283 Goal=   None    Shift=    0.000
 RMSDP=2.28D-06 MaxDP=1.42D-04 DE=-1.03D-06 OVMax= 4.72D-04

 Cycle  11  Pass 1  IDiag  1:
 RMSU=  7.83D-07    CP:  9.43D-01  3.41D-01  1.10D+00  8.04D-01  1.35D+00
                    CP:  1.63D+00  1.66D+00  1.60D+00  1.93D+00  1.69D+00
 E= -307.006294982044     Delta-E=       -0.000000236504 Rises=F Damp=F
 DIIS: error= 1.04D-05 at cycle  11 NSaved=  11.
 NSaved=11 IEnMin=11 EnMin= -307.006294982044     IErMin=11 ErrMin= 1.04D-05
 ErrMax= 1.04D-05  0.00D+00 EMaxC= 1.00D-01 BMatC= 2.69D-08 BMatP= 1.29D-07
 IDIUse=1 WtCom= 1.00D+00 WtEn= 0.00D+00
 Coeff-Com:  0.146D-03-0.322D-03-0.179D-02-0.376D-02-0.470D-03 0.119D-01
 Coeff-Com:  0.426D-01-0.545D-01-0.280D+00 0.347D+00 0.940D+00
 Coeff:      0.146D-03-0.322D-03-0.179D-02-0.376D-02-0.470D-03 0.119D-01
 Coeff:      0.426D-01-0.545D-01-0.280D+00 0.347D+00 0.940D+00
 Gap=     0.305 Goal=   None    Shift=    0.000
 Gap=     0.283 Goal=   None    Shift=    0.000
 RMSDP=9.13D-07 MaxDP=5.23D-05 DE=-2.37D-07 OVMax= 1.66D-04

 Cycle  12  Pass 1  IDiag  1:
 RMSU=  2.89D-07    CP:  9.43D-01  3.41D-01  1.10D+00  8.04D-01  1.35D+00
                    CP:  1.63D+00  1.66D+00  1.62D+00  2.05D+00  2.02D+00
                    CP:  1.27D+00
 E= -307.006295012415     Delta-E=       -0.000000030371 Rises=F Damp=F
 DIIS: error= 2.07D-06 at cycle  12 NSaved=  12.
 NSaved=12 IEnMin=12 EnMin= -307.006295012415     IErMin=12 ErrMin= 2.07D-06
 ErrMax= 2.07D-06  0.00D+00 EMaxC= 1.00D-01 BMatC= 4.71D-09 BMatP= 2.69D-08
 IDIUse=1 WtCom= 1.00D+00 WtEn= 0.00D+00
 Coeff-Com:  0.131D-04-0.591D-05-0.230D-03-0.808D-03-0.147D-02-0.110D-02
 Coeff-Com:  0.130D-01 0.184D-01-0.235D-01-0.198D+00 0.277D+00 0.916D+00
 Coeff:      0.131D-04-0.591D-05-0.230D-03-0.808D-03-0.147D-02-0.110D-02
 Coeff:      0.130D-01 0.184D-01-0.235D-01-0.198D+00 0.277D+00 0.916D+00
 Gap=     0.305 Goal=   None    Shift=    0.000
 Gap=     0.283 Goal=   None    Shift=    0.000
 RMSDP=3.07D-07 MaxDP=1.63D-05 DE=-3.04D-08 OVMax= 5.15D-05

 Cycle  13  Pass 1  IDiag  1:
 RMSU=  1.12D-07    CP:  9.43D-01  3.41D-01  1.10D+00  8.04D-01  1.35D+00
                    CP:  1.63D+00  1.67D+00  1.62D+00  2.08D+00  2.11D+00
                    CP:  1.50D+00  1.20D+00
 E= -307.006295015615     Delta-E=       -0.000000003201 Rises=F Damp=F
 DIIS: error= 5.87D-07 at cycle  13 NSaved=  13.
 NSaved=13 IEnMin=13 EnMin= -307.006295015615     IErMin=13 ErrMin= 5.87D-07
 ErrMax= 5.87D-07  0.00D+00 EMaxC= 1.00D-01 BMatC= 1.82D-10 BMatP= 4.71D-09
 IDIUse=1 WtCom= 1.00D+00 WtEn= 0.00D+00
 Coeff-Com: -0.144D-04 0.317D-04 0.159D-03 0.334D-03-0.803D-04-0.118D-02
 Coeff-Com: -0.367D-02 0.550D-02 0.301D-01-0.466D-01-0.756D-01 0.168D-01
 Coeff-Com:  0.107D+01
 Coeff:     -0.144D-04 0.317D-04 0.159D-03 0.334D-03-0.803D-04-0.118D-02
 Coeff:     -0.367D-02 0.550D-02 0.301D-01-0.466D-01-0.756D-01 0.168D-01
 Coeff:      0.107D+01
 Gap=     0.305 Goal=   None    Shift=    0.000
 Gap=     0.283 Goal=   None    Shift=    0.000
 RMSDP=8.28D-08 MaxDP=5.57D-06 DE=-3.20D-09 OVMax= 1.18D-05

 Cycle  14  Pass 1  IDiag  1:
 RMSU=  2.61D-08    CP:  9.43D-01  3.41D-01  1.10D+00  8.04D-01  1.35D+00
                    CP:  1.63D+00  1.67D+00  1.62D+00  2.08D+00  2.11D+00
                    CP:  1.55D+00  1.33D+00  1.22D+00
 E= -307.006295015775     Delta-E=       -0.000000000160 Rises=F Damp=F
 DIIS: error= 1.20D-07 at cycle  14 NSaved=  14.
 NSaved=14 IEnMin=14 EnMin= -307.006295015775     IErMin=14 ErrMin= 1.20D-07
 ErrMax= 1.20D-07  0.00D+00 EMaxC= 1.00D-01 BMatC= 2.03D-11 BMatP= 1.82D-10
 IDIUse=1 WtCom= 1.00D+00 WtEn= 0.00D+00
 Coeff-Com: -0.106D-05 0.159D-05 0.274D-04 0.639D-04 0.793D-04-0.508D-04
 Coeff-Com: -0.983D-03-0.685D-03 0.341D-02 0.773D-02-0.206D-01-0.520D-01
 Coeff-Com:  0.604D-01 0.100D+01
 Coeff:     -0.106D-05 0.159D-05 0.274D-04 0.639D-04 0.793D-04-0.508D-04
 Coeff:     -0.983D-03-0.685D-03 0.341D-02 0.773D-02-0.206D-01-0.520D-01
 Coeff:      0.604D-01 0.100D+01
 Gap=     0.305 Goal=   None    Shift=    0.000
 Gap=     0.283 Goal=   None    Shift=    0.000
 RMSDP=1.66D-08 MaxDP=6.23D-07 DE=-1.60D-10 OVMax= 1.86D-06

 Cycle  15  Pass 1  IDiag  1:
 RMSU=  9.71D-09    CP:  9.43D-01  3.41D-01  1.10D+00  8.04D-01  1.35D+00
                    CP:  1.63D+00  1.67D+00  1.62D+00  2.08D+00  2.12D+00
                    CP:  1.56D+00  1.35D+00  1.29D+00  1.22D+00
 E= -307.006295015788     Delta-E=       -0.000000000012 Rises=F Damp=F
 DIIS: error= 7.11D-08 at cycle  15 NSaved=  15.
 NSaved=15 IEnMin=15 EnMin= -307.006295015788     IErMin=15 ErrMin= 7.11D-08
 ErrMax= 7.11D-08  0.00D+00 EMaxC= 1.00D-01 BMatC= 5.32D-12 BMatP= 2.03D-11
 IDIUse=1 WtCom= 1.00D+00 WtEn= 0.00D+00
 Coeff-Com:  0.162D-05-0.397D-05-0.888D-05-0.187D-04 0.363D-04 0.131D-03
 Coeff-Com:  0.108D-03-0.947D-03-0.277D-02 0.916D-02 0.226D-02-0.217D-01
 Coeff-Com: -0.120D+00 0.351D+00 0.782D+00
 Coeff:      0.162D-05-0.397D-05-0.888D-05-0.187D-04 0.363D-04 0.131D-03
 Coeff:      0.108D-03-0.947D-03-0.277D-02 0.916D-02 0.226D-02-0.217D-01
 Coeff:     -0.120D+00 0.351D+00 0.782D+00
 Gap=     0.305 Goal=   None    Shift=    0.000
 Gap=     0.283 Goal=   None    Shift=    0.000
 RMSDP=6.29D-09 MaxDP=2.29D-07 DE=-1.21D-11 OVMax= 7.60D-07

 SCF Done:  E(UM062X) =  -307.006295016     A.U. after   15 cycles
            NFock= 15  Conv=0.63D-08     -V/T= 2.0055
 <Sx>= 0.0000 <Sy>= 0.0000 <Sz>= 0.5000 <S**2>= 0.7594 S= 0.5047
 <L.S>= 0.000000000000E+00
 KE= 3.053124985278D+02 PE=-1.178552017658D+03 EE= 3.359544949628D+02
 Annihilation of the first spin contaminant:
 S**2 before annihilation     0.7594,   after     0.7501
 Leave Link  502 at Tue Apr  9 01:59:01 2019, MaxMem=   671088640 cpu:             930.6 elap:              46.6
 (Enter /shared/centos7/gaussian/g16/l801.exe)
 DoSCS=F DFT=T ScalE2(SS,OS)=  1.000000  1.000000
 Range of M.O.s used for correlation:     1   267
 NBasis=   267 NAE=    24 NBE=    23 NFC=     0 NFV=     0
 NROrb=    267 NOA=    24 NOB=    23 NVA=   243 NVB=   244

 **** Warning!!: The largest alpha MO coefficient is  0.42828737D+02


 **** Warning!!: The largest beta MO coefficient is  0.47495498D+02

 Leave Link  801 at Tue Apr  9 01:59:01 2019, MaxMem=   671088640 cpu:               0.4 elap:               0.0
 (Enter /shared/centos7/gaussian/g16/l1101.exe)
 Using compressed storage, NAtomX=    13.
 Will process     14 centers per pass.
 Leave Link 1101 at Tue Apr  9 01:59:01 2019, MaxMem=   671088640 cpu:               6.0 elap:               0.3
 (Enter /shared/centos7/gaussian/g16/l1102.exe)
 Symmetrizing basis deriv contribution to polar:
 IMax=3 JMax=2 DiffMx= 0.00D+00
 Leave Link 1102 at Tue Apr  9 01:59:01 2019, MaxMem=   671088640 cpu:               0.5 elap:               0.0
 (Enter /shared/centos7/gaussian/g16/l1110.exe)
 Forming Gx(P) for the SCF density, NAtomX=    13.
 Integral derivatives from FoFJK, PRISM(SPDF).
 Do as many integral derivatives as possible in FoFJK.
 G2DrvN: MDV=     671087568.
 G2DrvN: will do    14 centers at a time, making    1 passes.
 Calling FoFCou, ICntrl=  3107 FMM=F I1Cent=   0 AccDes= 0.00D+00.
 FoFJK:  IHMeth= 1 ICntrl=    3107 DoSepK=F KAlg= 0 I1Cent=           0 FoldK=F
 IRaf=         0 NMat=       1 IRICut=       1 DoRegI=T DoRafI=F ISym2E= 0 IDoP0=0 IntGTp=1.
 FoFCou: FMM=F IPFlag=           0 FMFlag=      100000 FMFlg1=           0
         NFxFlg=           0 DoJE=F BraDBF=F KetDBF=F FulRan=T
         wScrn=  0.000000 ICntrl=      3107 IOpCl=  1 I1Cent=           0 NGrid=           0
         NMat0=    1 NMatS0=      1 NMatT0=    0 NMatD0=    1 NMtDS0=    0 NMtDT0=    0
 Symmetry not used in FoFCou.
 End of G2Drv F.D. properties file   721 does not exist.
 End of G2Drv F.D. properties file   722 does not exist.
 End of G2Drv F.D. properties file   788 does not exist.
 Leave Link 1110 at Tue Apr  9 02:00:18 2019, MaxMem=   671088640 cpu:            1528.1 elap:              76.4
 (Enter /shared/centos7/gaussian/g16/l1002.exe)
 Minotr:  UHF open shell wavefunction.
          IDoAtm=1111111111111
          Direct CPHF calculation.
          Differentiating once with respect to nuclear coordinates.
          Requested convergence is 1.0D-08 RMS, and 1.0D-07 maximum.
          Secondary convergence is 1.0D-12 RMS, and 1.0D-12 maximum.
          NewPWx=T KeepS1=F KeepF1=F KeepIn=T MapXYZ=F SortEE=F KeepMc=T.
         3973 words used for storage of precomputed grid.
 Two-electron integrals replicated using symmetry.
          MDV=     671088640 using IRadAn=       1.
          Solving linear equations simultaneously, MaxMat=     380.
 FoF2E skips out because all densities are zero.
 CalDSu exits because no D1Ps are significant.
 FoFJK:  IHMeth= 1 ICntrl=       0 DoSepK=F KAlg= 0 I1Cent=           0 FoldK=F
 IRaf= 940000000 NMat=      39 IRICut=      97 DoRegI=T DoRafI=T ISym2E= 2 IDoP0=3 IntGTp=3.
 FoFCou: FMM=F IPFlag=           0 FMFlag=      100000 FMFlg1=           0
         NFxFlg=           0 DoJE=F BraDBF=F KetDBF=F FulRan=T
         wScrn=  0.000000 ICntrl=         0 IOpCl=  1 I1Cent=           0 NGrid=           0
         NMat0=   39 NMatS0=     39 NMatT0=    0 NMatD0=   39 NMtDS0=    0 NMtDT0=    0
 Integrals replicated using symmetry in FoFCou.
 Raff kept on since  90.88% of shell-pairs survive, threshold=   0.20 IRatSp=91.
          There are    42 degrees of freedom in the 1st order CPHF.  IDoFFX=6 NUNeed=     0.
     36 vectors produced by pass  0 Test12= 2.72D-14 2.38D-09 XBig12= 1.50D-01 9.78D-02.
 AX will form    36 AO Fock derivatives at one time.
     36 vectors produced by pass  1 Test12= 2.72D-14 2.38D-09 XBig12= 1.65D-02 4.07D-02.
     36 vectors produced by pass  2 Test12= 2.72D-14 2.38D-09 XBig12= 8.64D-04 1.00D-02.
     36 vectors produced by pass  3 Test12= 2.72D-14 2.38D-09 XBig12= 1.25D-05 9.32D-04.
     36 vectors produced by pass  4 Test12= 2.72D-14 2.38D-09 XBig12= 1.26D-07 4.81D-05.
     36 vectors produced by pass  5 Test12= 2.72D-14 2.38D-09 XBig12= 1.85D-09 4.63D-06.
     36 vectors produced by pass  6 Test12= 2.72D-14 2.38D-09 XBig12= 1.76D-11 4.33D-07.
     18 vectors produced by pass  7 Test12= 2.72D-14 2.38D-09 XBig12= 1.57D-13 4.51D-08.
      2 vectors produced by pass  8 Test12= 2.72D-14 2.38D-09 XBig12= 1.41D-15 4.50D-09.
 InvSVY:  IOpt=1 It=  1 EMax= 1.33D-15
 Solved reduced A of dimension   272 with    36 vectors.
 End of Minotr F.D. properties file   721 does not exist.
 End of Minotr F.D. properties file   722 does not exist.
 End of Minotr F.D. properties file   788 does not exist.
 Leave Link 1002 at Tue Apr  9 02:02:18 2019, MaxMem=   671088640 cpu:            2401.2 elap:             120.1
 (Enter /shared/centos7/gaussian/g16/l601.exe)
 Copying SCF densities to generalized density rwf, IOpCl= 1 IROHF=0.

 **********************************************************************

            Population analysis using the SCF density.

 **********************************************************************

 Orbital symmetries:
 Alpha Orbitals:
       Occupied  (A) (A) (A) (A) (A) (A) (A) (A) (A) (A) (A) (A)
                 (A) (A) (A) (A) (A) (A) (A) (A) (A) (A) (A) (A)
       Virtual   (A) (A) (A) (A) (A) (A) (A) (A) (A) (A) (A) (A)
                 (A) (A) (A) (A) (A) (A) (A) (A) (A) (A) (A) (A)
                 (A) (A) (A) (A) (A) (A) (A) (A) (A) (A) (A) (A)
                 (A) (A) (A) (A) (A) (A) (A) (A) (A) (A) (A) (A)
                 (A) (A) (A) (A) (A) (A) (A) (A) (A) (A) (A) (A)
                 (A) (A) (A) (A) (A) (A) (A) (A) (A) (A) (A) (A)
                 (A) (A) (A) (A) (A) (A) (A) (A) (A) (A) (A) (A)
                 (A) (A) (A) (A) (A) (A) (A) (A) (A) (A) (A) (A)
                 (A) (A) (A) (A) (A) (A) (A) (A) (A) (A) (A) (A)
                 (A) (A) (A) (A) (A) (A) (A) (A) (A) (A) (A) (A)
                 (A) (A) (A) (A) (A) (A) (A) (A) (A) (A) (A) (A)
                 (A) (A) (A) (A) (A) (A) (A) (A) (A) (A) (A) (A)
                 (A) (A) (A) (A) (A) (A) (A) (A) (A) (A) (A) (A)
                 (A) (A) (A) (A) (A) (A) (A) (A) (A) (A) (A) (A)
                 (A) (A) (A) (A) (A) (A) (A) (A) (A) (A) (A) (A)
                 (A) (A) (A) (A) (A) (A) (A) (A) (A) (A) (A) (A)
                 (A) (A) (A) (A) (A) (A) (A) (A) (A) (A) (A) (A)
                 (A) (A) (A) (A) (A) (A) (A) (A) (A) (A) (A) (A)
                 (A) (A) (A) (A) (A) (A) (A) (A) (A) (A) (A) (A)
                 (A) (A) (A) (A) (A) (A) (A) (A) (A) (A) (A) (A)
                 (A) (A) (A)
 Beta  Orbitals:
       Occupied  (A) (A) (A) (A) (A) (A) (A) (A) (A) (A) (A) (A)
                 (A) (A) (A) (A) (A) (A) (A) (A) (A) (A) (A)
       Virtual   (A) (A) (A) (A) (A) (A) (A) (A) (A) (A) (A) (A)
                 (A) (A) (A) (A) (A) (A) (A) (A) (A) (A) (A) (A)
                 (A) (A) (A) (A) (A) (A) (A) (A) (A) (A) (A) (A)
                 (A) (A) (A) (A) (A) (A) (A) (A) (A) (A) (A) (A)
                 (A) (A) (A) (A) (A) (A) (A) (A) (A) (A) (A) (A)
                 (A) (A) (A) (A) (A) (A) (A) (A) (A) (A) (A) (A)
                 (A) (A) (A) (A) (A) (A) (A) (A) (A) (A) (A) (A)
                 (A) (A) (A) (A) (A) (A) (A) (A) (A) (A) (A) (A)
                 (A) (A) (A) (A) (A) (A) (A) (A) (A) (A) (A) (A)
                 (A) (A) (A) (A) (A) (A) (A) (A) (A) (A) (A) (A)
                 (A) (A) (A) (A) (A) (A) (A) (A) (A) (A) (A) (A)
                 (A) (A) (A) (A) (A) (A) (A) (A) (A) (A) (A) (A)
                 (A) (A) (A) (A) (A) (A) (A) (A) (A) (A) (A) (A)
                 (A) (A) (A) (A) (A) (A) (A) (A) (A) (A) (A) (A)
                 (A) (A) (A) (A) (A) (A) (A) (A) (A) (A) (A) (A)
                 (A) (A) (A) (A) (A) (A) (A) (A) (A) (A) (A) (A)
                 (A) (A) (A) (A) (A) (A) (A) (A) (A) (A) (A) (A)
                 (A) (A) (A) (A) (A) (A) (A) (A) (A) (A) (A) (A)
                 (A) (A) (A) (A) (A) (A) (A) (A) (A) (A) (A) (A)
                 (A) (A) (A) (A) (A) (A) (A) (A) (A) (A) (A) (A)
                 (A) (A) (A) (A)
 The electronic state is 2-A.
 Alpha  occ. eigenvalues --  -19.66927 -19.61900 -10.68299 -10.59455 -10.58729
 Alpha  occ. eigenvalues --  -10.55694  -1.21396  -1.12697  -0.89512  -0.81390
 Alpha  occ. eigenvalues --   -0.73300  -0.63688  -0.59521  -0.55796  -0.55553
 Alpha  occ. eigenvalues --   -0.50951  -0.50331  -0.46950  -0.46141  -0.44914
 Alpha  occ. eigenvalues --   -0.42245  -0.37725  -0.36447  -0.29403
 Alpha virt. eigenvalues --    0.01097   0.02564   0.03375   0.04718   0.04967
 Alpha virt. eigenvalues --    0.05692   0.05819   0.06420   0.08057   0.08864
 Alpha virt. eigenvalues --    0.10343   0.10652   0.11581   0.12348   0.14411
 Alpha virt. eigenvalues --    0.15609   0.17957   0.18285   0.19218   0.19682
 Alpha virt. eigenvalues --    0.21486   0.22155   0.23270   0.23690   0.24304
 Alpha virt. eigenvalues --    0.25337   0.27428   0.28592   0.29597   0.29707
 Alpha virt. eigenvalues --    0.30550   0.32801   0.34335   0.36897   0.37937
 Alpha virt. eigenvalues --    0.39767   0.43609   0.44881   0.46070   0.46639
 Alpha virt. eigenvalues --    0.48216   0.49411   0.50571   0.53602   0.54868
 Alpha virt. eigenvalues --    0.55424   0.56021   0.57205   0.58917   0.61284
 Alpha virt. eigenvalues --    0.62570   0.63580   0.64098   0.65188   0.66481
 Alpha virt. eigenvalues --    0.67251   0.68325   0.73027   0.73474   0.76797
 Alpha virt. eigenvalues --    0.81492   0.83419   0.87431   0.87672   0.89567
 Alpha virt. eigenvalues --    0.89981   0.92276   0.92824   0.95231   0.98731
 Alpha virt. eigenvalues --    1.02358   1.04945   1.06433   1.07748   1.08435
 Alpha virt. eigenvalues --    1.09492   1.11152   1.11986   1.14517   1.16343
 Alpha virt. eigenvalues --    1.16767   1.19529   1.20391   1.21416   1.21944
 Alpha virt. eigenvalues --    1.24180   1.26998   1.28550   1.29211   1.31832
 Alpha virt. eigenvalues --    1.35473   1.36888   1.37186   1.37650   1.40003
 Alpha virt. eigenvalues --    1.40867   1.43692   1.46363   1.46676   1.47641
 Alpha virt. eigenvalues --    1.50401   1.54850   1.56334   1.57612   1.59901
 Alpha virt. eigenvalues --    1.61673   1.66365   1.71110   1.76686   1.84269
 Alpha virt. eigenvalues --    1.86970   1.95949   1.99351   2.14721   2.17146
 Alpha virt. eigenvalues --    2.28401   2.35322   2.38790   2.41113   2.45043
 Alpha virt. eigenvalues --    2.47640   2.50469   2.55806   2.58678   2.63204
 Alpha virt. eigenvalues --    2.64737   2.69189   2.76070   2.78579   2.81628
 Alpha virt. eigenvalues --    2.82424   2.83572   2.91044   2.94088   2.96796
 Alpha virt. eigenvalues --    2.98658   3.00240   3.05838   3.08191   3.09925
 Alpha virt. eigenvalues --    3.10202   3.10780   3.13673   3.15052   3.15908
 Alpha virt. eigenvalues --    3.16832   3.20368   3.21323   3.22683   3.24344
 Alpha virt. eigenvalues --    3.30240   3.31343   3.32753   3.36217   3.37157
 Alpha virt. eigenvalues --    3.38587   3.41615   3.42999   3.45575   3.46872
 Alpha virt. eigenvalues --    3.51584   3.53540   3.56004   3.57634   3.61297
 Alpha virt. eigenvalues --    3.62909   3.64484   3.66640   3.72256   3.76274
 Alpha virt. eigenvalues --    3.79028   3.82868   3.83845   3.85700   3.86632
 Alpha virt. eigenvalues --    3.87268   3.95006   3.98993   4.00765   4.06841
 Alpha virt. eigenvalues --    4.08618   4.09541   4.10883   4.11300   4.13929
 Alpha virt. eigenvalues --    4.15613   4.18426   4.22845   4.24724   4.26414
 Alpha virt. eigenvalues --    4.29633   4.34969   4.35813   4.38793   4.41456
 Alpha virt. eigenvalues --    4.47827   4.50937   4.57123   4.80641   4.88746
 Alpha virt. eigenvalues --    4.94235   5.08710   5.10384   5.12294   5.18887
 Alpha virt. eigenvalues --    5.18953   5.24508   5.26064   5.32399   5.36964
 Alpha virt. eigenvalues --    5.38290   5.43309   5.45341   5.48624   5.49268
 Alpha virt. eigenvalues --    5.51113   5.54527   5.62602   5.70348   5.74148
 Alpha virt. eigenvalues --    5.83622   5.93933   6.17310   6.40081   6.56720
 Alpha virt. eigenvalues --    6.82006   6.85773   6.93065   7.02938   7.07628
 Alpha virt. eigenvalues --    7.18072   7.23218   7.28242   7.51965   7.61159
 Alpha virt. eigenvalues --    7.74076   7.77898  24.12853  24.31461  24.35027
 Alpha virt. eigenvalues --   24.67254  50.13505  50.23403
  Beta  occ. eigenvalues --  -19.66859 -19.61606 -10.68378 -10.58882 -10.58732
  Beta  occ. eigenvalues --  -10.55745  -1.21092  -1.12006  -0.87336  -0.81216
  Beta  occ. eigenvalues --   -0.72011  -0.63124  -0.58625  -0.55093  -0.54954
  Beta  occ. eigenvalues --   -0.50544  -0.48351  -0.46233  -0.44935  -0.44516
  Beta  occ. eigenvalues --   -0.42143  -0.36157  -0.35715
  Beta virt. eigenvalues --   -0.07441   0.00836   0.02592   0.03475   0.04288
  Beta virt. eigenvalues --    0.04818   0.05777   0.06345   0.07479   0.08044
  Beta virt. eigenvalues --    0.08371   0.09670   0.10510   0.12387   0.12783
  Beta virt. eigenvalues --    0.14114   0.15240   0.18039   0.18459   0.19429
  Beta virt. eigenvalues --    0.19685   0.21563   0.22206   0.22984   0.23908
  Beta virt. eigenvalues --    0.24685   0.25420   0.27622   0.29086   0.29680
  Beta virt. eigenvalues --    0.30178   0.30756   0.33219   0.34645   0.37040
  Beta virt. eigenvalues --    0.37975   0.40081   0.43620   0.45125   0.46061
  Beta virt. eigenvalues --    0.46850   0.48236   0.50238   0.51298   0.53827
  Beta virt. eigenvalues --    0.54930   0.55884   0.57024   0.57602   0.59076
  Beta virt. eigenvalues --    0.61706   0.62616   0.64255   0.65075   0.65576
  Beta virt. eigenvalues --    0.66590   0.67263   0.68216   0.73340   0.73786
  Beta virt. eigenvalues --    0.76613   0.81175   0.83200   0.87201   0.87509
  Beta virt. eigenvalues --    0.89491   0.89940   0.91876   0.92431   0.95119
  Beta virt. eigenvalues --    0.98604   1.02077   1.04837   1.06443   1.07520
  Beta virt. eigenvalues --    1.08479   1.09455   1.11009   1.11891   1.14415
  Beta virt. eigenvalues --    1.16568   1.17061   1.19974   1.20219   1.21877
  Beta virt. eigenvalues --    1.22463   1.24168   1.27264   1.28811   1.29617
  Beta virt. eigenvalues --    1.32338   1.35441   1.37013   1.37587   1.38108
  Beta virt. eigenvalues --    1.40166   1.40893   1.43834   1.46393   1.46506
  Beta virt. eigenvalues --    1.47371   1.51382   1.54854   1.56861   1.57470
  Beta virt. eigenvalues --    1.60395   1.61951   1.66754   1.71823   1.76953
  Beta virt. eigenvalues --    1.84699   1.87207   1.96205   1.99763   2.15295
  Beta virt. eigenvalues --    2.17607   2.28519   2.36614   2.39494   2.41417
  Beta virt. eigenvalues --    2.45664   2.48014   2.51032   2.56415   2.59121
  Beta virt. eigenvalues --    2.63710   2.65450   2.72600   2.79774   2.83099
  Beta virt. eigenvalues --    2.83540   2.84543   2.85158   2.93000   2.95713
  Beta virt. eigenvalues --    2.97408   3.00449   3.01757   3.06810   3.09285
  Beta virt. eigenvalues --    3.10511   3.10756   3.11478   3.14789   3.15498
  Beta virt. eigenvalues --    3.15904   3.18785   3.21516   3.22861   3.23597
  Beta virt. eigenvalues --    3.24867   3.32742   3.33067   3.33931   3.36585
  Beta virt. eigenvalues --    3.37994   3.40912   3.42369   3.43704   3.46552
  Beta virt. eigenvalues --    3.50188   3.53557   3.55005   3.57458   3.60339
  Beta virt. eigenvalues --    3.61927   3.64144   3.65756   3.67450   3.73143
  Beta virt. eigenvalues --    3.76941   3.79566   3.83176   3.84314   3.86391
  Beta virt. eigenvalues --    3.86933   3.87635   3.95941   3.99901   4.01619
  Beta virt. eigenvalues --    4.08008   4.10414   4.11590   4.12954   4.13570
  Beta virt. eigenvalues --    4.15460   4.15811   4.19252   4.25370   4.25669
  Beta virt. eigenvalues --    4.27060   4.31072   4.35356   4.36056   4.39425
  Beta virt. eigenvalues --    4.41959   4.50133   4.52896   4.62065   4.83727
  Beta virt. eigenvalues --    4.92207   4.95282   5.09601   5.11567   5.12618
  Beta virt. eigenvalues --    5.19864   5.22038   5.24886   5.26308   5.32690
  Beta virt. eigenvalues --    5.38601   5.39755   5.43420   5.45544   5.48823
  Beta virt. eigenvalues --    5.49738   5.50903   5.56332   5.63771   5.71410
  Beta virt. eigenvalues --    5.74270   5.83929   5.94181   6.17997   6.40232
  Beta virt. eigenvalues --    6.56892   6.84148   6.86784   6.95023   7.03332
  Beta virt. eigenvalues --    7.08054   7.19208   7.23534   7.29087   7.52417
  Beta virt. eigenvalues --    7.61832   7.74451   7.77883  24.13910  24.31452
  Beta virt. eigenvalues --   24.35476  24.67447  50.13439  50.23033
          Condensed to atoms (all electrons):
               1          2          3          4          5          6
     1  O    8.157402  -0.071208   0.012653   0.127476  -0.189079   0.236987
     2  O   -0.071208   8.172421   0.009338  -0.052299  -0.047015   0.407674
     3  C    0.012653   0.009338   5.075811  -0.008216   0.162633   0.034689
     4  C    0.127476  -0.052299  -0.008216   5.041768  -0.123208  -0.077691
     5  C   -0.189079  -0.047015   0.162633  -0.123208   6.069605  -0.166251
     6  C    0.236987   0.407674   0.034689  -0.077691  -0.166251   5.401908
     7  H   -0.000108  -0.000942   0.404256  -0.000258  -0.029483  -0.014008
     8  H   -0.000008  -0.000363   0.407375  -0.000298  -0.037517  -0.004442
     9  H   -0.000318   0.000258   0.412281   0.000648  -0.067698   0.033936
    10  H   -0.025347  -0.008551  -0.002516   0.433729  -0.005537  -0.008118
    11  H   -0.057777   0.003052   0.000517   0.413682   0.004241   0.012226
    12  H   -0.051921  -0.001268  -0.000109   0.429184  -0.002615   0.005982
    13  H    0.004471   0.003293  -0.029653   0.003379   0.361090   0.007936
               7          8          9         10         11         12
     1  O   -0.000108  -0.000008  -0.000318  -0.025347  -0.057777  -0.051921
     2  O   -0.000942  -0.000363   0.000258  -0.008551   0.003052  -0.001268
     3  C    0.404256   0.407375   0.412281  -0.002516   0.000517  -0.000109
     4  C   -0.000258  -0.000298   0.000648   0.433729   0.413682   0.429184
     5  C   -0.029483  -0.037517  -0.067698  -0.005537   0.004241  -0.002615
     6  C   -0.014008  -0.004442   0.033936  -0.008118   0.012226   0.005982
     7  H    0.540458  -0.031799  -0.024075   0.000004   0.000000  -0.000003
     8  H   -0.031799   0.528811  -0.022399  -0.000007  -0.000002   0.000003
     9  H   -0.024075  -0.022399   0.542114   0.000001  -0.000001  -0.000001
    10  H    0.000004  -0.000007   0.000001   0.521735  -0.028229  -0.030031
    11  H    0.000000  -0.000002  -0.000001  -0.028229   0.571311  -0.035882
    12  H   -0.000003   0.000003  -0.000001  -0.030031  -0.035882   0.565209
    13  H    0.003014   0.003461  -0.008283  -0.000017  -0.000023   0.000001
              13
     1  O    0.004471
     2  O    0.003293
     3  C   -0.029653
     4  C    0.003379
     5  C    0.361090
     6  C    0.007936
     7  H    0.003014
     8  H    0.003461
     9  H   -0.008283
    10  H   -0.000017
    11  H   -0.000023
    12  H    0.000001
    13  H    0.461646
          Atomic-Atomic Spin Densities.
               1          2          3          4          5          6
     1  O    0.027428   0.007009   0.003178   0.000082  -0.026061   0.011675
     2  O    0.007009   0.189588   0.003916   0.000006  -0.024745  -0.019896
     3  C    0.003178   0.003916  -0.031784   0.000498  -0.060677  -0.005084
     4  C    0.000082   0.000006   0.000498  -0.004154  -0.004993   0.004566
     5  C   -0.026061  -0.024745  -0.060677  -0.004993   1.046782   0.024896
     6  C    0.011675  -0.019896  -0.005084   0.004566   0.024896  -0.086390
     7  H    0.000057   0.001849   0.028771  -0.000053  -0.034571  -0.000403
     8  H    0.000095   0.001313   0.017276  -0.000123  -0.024384   0.001650
     9  H   -0.000001  -0.000127  -0.004074   0.000037   0.000828   0.001450
    10  H   -0.000315  -0.000860   0.000072   0.000299  -0.000166   0.000644
    11  H   -0.000063  -0.000197  -0.000029   0.000677   0.000336  -0.000729
    12  H   -0.000911  -0.000409  -0.000029  -0.000579   0.000260   0.000518
    13  H   -0.000327   0.000149   0.007857   0.000251  -0.018490   0.010853
               7          8          9         10         11         12
     1  O    0.000057   0.000095  -0.000001  -0.000315  -0.000063  -0.000911
     2  O    0.001849   0.001313  -0.000127  -0.000860  -0.000197  -0.000409
     3  C    0.028771   0.017276  -0.004074   0.000072  -0.000029  -0.000029
     4  C   -0.000053  -0.000123   0.000037   0.000299   0.000677  -0.000579
     5  C   -0.034571  -0.024384   0.000828  -0.000166   0.000336   0.000260
     6  C   -0.000403   0.001650   0.001450   0.000644  -0.000729   0.000518
     7  H    0.061786  -0.012955  -0.002729   0.000003   0.000002  -0.000008
     8  H   -0.012955   0.045391   0.001555  -0.000004  -0.000003   0.000004
     9  H   -0.002729   0.001555   0.007274  -0.000000  -0.000000   0.000000
    10  H    0.000003  -0.000004  -0.000000   0.000250   0.000101  -0.000182
    11  H    0.000002  -0.000003  -0.000000   0.000101   0.002510  -0.001054
    12  H   -0.000008   0.000004   0.000000  -0.000182  -0.001054   0.006031
    13  H    0.000001  -0.000181  -0.000131   0.000002  -0.000002   0.000004
              13
     1  O   -0.000327
     2  O    0.000149
     3  C    0.007857
     4  C    0.000251
     5  C   -0.018490
     6  C    0.010853
     7  H    0.000001
     8  H   -0.000181
     9  H   -0.000131
    10  H    0.000002
    11  H   -0.000002
    12  H    0.000004
    13  H   -0.039104
 Mulliken charges and spin densities:
               1          2
     1  O   -0.143222   0.021846
     2  O   -0.414390   0.157596
     3  C   -0.479059  -0.040109
     4  C   -0.187897  -0.003486
     5  C    0.070831   0.879016
     6  C    0.129169  -0.056249
     7  H    0.152944   0.041749
     8  H    0.157185   0.029634
     9  H    0.133537   0.004081
    10  H    0.152884  -0.000156
    11  H    0.116884   0.001549
    12  H    0.121450   0.003645
    13  H    0.189684  -0.039117
 Sum of Mulliken charges =  -0.00000   1.00000
 Mulliken charges and spin densities with hydrogens summed into heavy atoms:
               1          2
     1  O   -0.143222   0.021846
     2  O   -0.414390   0.157596
     3  C   -0.035393   0.035356
     4  C    0.203321   0.001552
     5  C    0.260515   0.839898
     6  C    0.129169  -0.056249
 APT charges:
               1
     1  O   -0.049955
     2  O   -0.381634
     3  C   -1.298289
     4  C   -1.261934
     5  C   -0.177138
     6  C    0.151981
     7  H    0.355090
     8  H    0.334202
     9  H    0.594437
    10  H    0.274986
    11  H    0.534264
    12  H    0.461747
    13  H    0.462242
 Sum of APT charges =  -0.00000
 APT charges with hydrogens summed into heavy atoms:
               1
     1  O   -0.049955
     2  O   -0.381634
     3  C   -0.014559
     4  C    0.009062
     5  C    0.285105
     6  C    0.151981
 Electronic spatial extent (au):  <R**2>=            705.1399
 Charge=             -0.0000 electrons
 Dipole moment (field-independent basis, Debye):
    X=             -0.7686    Y=             -1.6423    Z=              0.0253  Tot=              1.8134
 Quadrupole moment (field-independent basis, Debye-Ang):
   XX=            -28.2740   YY=            -40.6475   ZZ=            -36.5922
   XY=              1.6266   XZ=             -0.1318   YZ=             -0.1352
 Traceless Quadrupole moment (field-independent basis, Debye-Ang):
   XX=              6.8972   YY=             -5.4762   ZZ=             -1.4210
   XY=              1.6266   XZ=             -0.1318   YZ=             -0.1352
 Octapole moment (field-independent basis, Debye-Ang**2):
  XXX=              8.6549  YYY=             -5.1420  ZZZ=              0.7645  XYY=             -2.0263
  XXY=              0.0752  XXZ=             -0.2368  XZZ=              2.9089  YZZ=              1.6878
  YYZ=             -0.5353  XYZ=              0.1917
 Hexadecapole moment (field-independent basis, Debye-Ang**3):
 XXXX=           -678.1423 YYYY=           -159.6796 ZZZZ=            -50.8928 XXXY=             -0.6596
 XXXZ=             -1.1236 YYYX=              4.5087 YYYZ=             -0.9873 ZZZX=              0.6226
 ZZZY=              0.0644 XXYY=           -144.4396 XXZZ=           -126.8808 YYZZ=            -35.5463
 XXYZ=              1.7244 YYXZ=             -0.9971 ZZXY=             -4.7599
 N-N= 2.302787291515D+02 E-N=-1.178552016658D+03  KE= 3.053124985278D+02
  Exact polarizability:   0.000   0.000   0.000   0.000   0.000   0.000
 Approx polarizability:  71.384   0.003  72.951   0.060   0.320  53.413
                          Isotropic Fermi Contact Couplings
        Atom                 a.u.       MegaHertz       Gauss      10(-4) cm-1
     1  O(17)              0.00037      -0.22619      -0.08071      -0.07545
     2  O(17)              0.03433     -20.81218      -7.42630      -6.94220
     3  C(13)             -0.02909     -32.70704     -11.67069     -10.90989
     4  C(13)             -0.00176      -1.98065      -0.70674      -0.66067
     5  C(13)              0.15204     170.91767      60.98768      57.01200
     6  C(13)             -0.04646     -52.22958     -18.63681     -17.42191
     7  H(1)               0.02366     105.75706      37.73675      35.27676
     8  H(1)               0.01642      73.39376      26.18872      24.48152
     9  H(1)               0.00063       2.79538       0.99746       0.93244
    10  H(1)               0.00016       0.72768       0.25966       0.24273
    11  H(1)               0.00071       3.18494       1.13647       1.06238
    12  H(1)               0.00171       7.63877       2.72570       2.54802
    13  H(1)              -0.01506     -67.31950     -24.02127     -22.45537
 --------------------------------------------------------
       Center         ----  Spin Dipole Couplings  ----
                      3XX-RR        3YY-RR        3ZZ-RR
 --------------------------------------------------------
     1   Atom       -0.061331     -0.074621      0.135952
     2   Atom       -0.313939     -0.322786      0.636725
     3   Atom       -0.004092     -0.012611      0.016703
     4   Atom        0.004574     -0.002903     -0.001671
     5   Atom       -0.485622     -0.474347      0.959969
     6   Atom        0.017282      0.017327     -0.034609
     7   Atom        0.004646     -0.000535     -0.004111
     8   Atom        0.003560      0.002902     -0.006463
     9   Atom        0.014440     -0.008027     -0.006414
    10   Atom        0.005856     -0.002233     -0.003623
    11   Atom        0.003479     -0.001623     -0.001856
    12   Atom        0.003438     -0.001840     -0.001598
    13   Atom       -0.059658      0.067332     -0.007673
 --------------------------------------------------------
                        XY            XZ            YZ
 --------------------------------------------------------
     1   Atom        0.004063     -0.000362      0.001296
     2   Atom       -0.007316     -0.048054     -0.011437
     3   Atom       -0.003954     -0.001076      0.000756
     4   Atom       -0.000252      0.000288     -0.000418
     5   Atom        0.002770     -0.009283      0.057117
     6   Atom        0.012638     -0.002535     -0.003650
     7   Atom       -0.009228     -0.006219      0.006761
     8   Atom       -0.009710      0.005322     -0.006055
     9   Atom        0.000614      0.000549     -0.000222
    10   Atom        0.001447     -0.001011     -0.000054
    11   Atom       -0.000384     -0.001010      0.000052
    12   Atom        0.000222      0.001670      0.000113
    13   Atom        0.001621     -0.000321     -0.004982
 --------------------------------------------------------


 ---------------------------------------------------------------------------------
              Anisotropic Spin Dipole Couplings in Principal Axis System
 ---------------------------------------------------------------------------------

       Atom             a.u.   MegaHertz   Gauss  10(-4) cm-1        Axes

              Baa    -0.0758     5.483     1.956     1.829 -0.2710  0.9626 -0.0064
     1 O(17)  Bbb    -0.0602     4.355     1.554     1.453  0.9626  0.2710 -0.0000
              Bcc     0.1360    -9.838    -3.510    -3.282 -0.0017  0.0061  1.0000
 
              Baa    -0.3282    23.746     8.473     7.921  0.5539  0.8317  0.0374
     2 O(17)  Bbb    -0.3111    22.511     8.033     7.509  0.8311 -0.5550  0.0354
              Bcc     0.6393   -46.257   -16.506   -15.430 -0.0503 -0.0115  0.9987
 
              Baa    -0.0142    -1.901    -0.678    -0.634  0.3644  0.9312 -0.0101
     3 C(13)  Bbb    -0.0026    -0.352    -0.126    -0.117  0.9294 -0.3630  0.0660
              Bcc     0.0168     2.253     0.804     0.752 -0.0577  0.0334  0.9978
 
              Baa    -0.0030    -0.407    -0.145    -0.136  0.0208  0.9570  0.2893
     4 C(13)  Bbb    -0.0016    -0.210    -0.075    -0.070 -0.0567 -0.2877  0.9560
              Bcc     0.0046     0.617     0.220     0.206  0.9982 -0.0363  0.0483
 
              Baa    -0.4867   -65.305   -23.302   -21.783  0.9545 -0.2977  0.0179
     5 C(13)  Bbb    -0.4756   -63.826   -22.775   -21.290  0.2981  0.9538 -0.0360
              Bcc     0.9623   129.131    46.077    43.074 -0.0063  0.0397  0.9992
 
              Baa    -0.0349    -4.686    -1.672    -1.563  0.0335  0.0616  0.9975
     6 C(13)  Bbb     0.0047     0.628     0.224     0.210  0.7100 -0.7039  0.0196
              Bcc     0.0302     4.058     1.448     1.353  0.7034  0.7076 -0.0673
 
              Baa    -0.0094    -5.020    -1.791    -1.675 -0.1307 -0.6832  0.7184
     7 H(1)   Bbb    -0.0064    -3.396    -1.212    -1.133  0.6952  0.4535  0.5577
              Bcc     0.0158     8.416     3.003     2.807  0.7069 -0.5723 -0.4157
 
              Baa    -0.0095    -5.060    -1.806    -1.688 -0.0976  0.3743  0.9222
     8 H(1)   Bbb    -0.0064    -3.393    -1.211    -1.132  0.7364  0.6504 -0.1861
              Bcc     0.0158     8.453     3.016     2.820  0.6694 -0.6610  0.3391
 
              Baa    -0.0081    -4.310    -1.538    -1.438 -0.0304  0.9894  0.1419
     9 H(1)   Bbb    -0.0064    -3.411    -1.217    -1.138 -0.0219 -0.1426  0.9895
              Bcc     0.0145     7.721     2.755     2.576  0.9993  0.0270  0.0260
 
              Baa    -0.0037    -1.994    -0.711    -0.665  0.1159 -0.0762  0.9903
    10 H(1)   Bbb    -0.0025    -1.319    -0.471    -0.440 -0.1593  0.9827  0.0942
              Bcc     0.0062     3.313     1.182     1.105  0.9804  0.1687 -0.1017
 
              Baa    -0.0020    -1.090    -0.389    -0.363  0.1829  0.0467  0.9820
    11 H(1)   Bbb    -0.0016    -0.880    -0.314    -0.294  0.0629  0.9963 -0.0591
              Bcc     0.0037     1.970     0.703     0.657  0.9811 -0.0726 -0.1793
 
              Baa    -0.0021    -1.125    -0.401    -0.375 -0.2781 -0.1676  0.9458
    12 H(1)   Bbb    -0.0018    -0.983    -0.351    -0.328 -0.0883  0.9849  0.1486
              Bcc     0.0040     2.109     0.752     0.703  0.9565  0.0422  0.2887
 
              Baa    -0.0597   -31.843   -11.362   -10.622  0.9999 -0.0126  0.0050
    13 H(1)   Bbb    -0.0080    -4.270    -1.523    -1.424 -0.0041  0.0661  0.9978
              Bcc     0.0677    36.112    12.886    12.046  0.0129  0.9977 -0.0660
 

 ---------------------------------------------------------------------------------

 No NMR shielding tensors so no spin-rotation constants.
 Leave Link  601 at Tue Apr  9 02:02:18 2019, MaxMem=   671088640 cpu:               9.8 elap:               0.5
 (Enter /shared/centos7/gaussian/g16/l701.exe)
 SCFChk:  SCF convergence  6.29D-09 required  1.00D-08
 ... and contract with generalized density number  0.
 Compute integral second derivatives.
 Entering OneElI...
 Calculate overlap and kinetic energy integrals
    NBasis = 297  MinDer = 2  MaxDer = 2
 Requested accuracy = 0.1000D-12
 PrmmSu-InSpLW:  IPartL=    0 NPrtUS=   20 NPrtUL=    1 DoSpLW=F IThBeg=    0 IThEnd=   19 NThAct=   20.
 PrsmSu:  NPrtUS=  20 ThrOK=T IAlg=1 NPAlg=1 LenDen=           0 ISkipM=0 DoSpLW=F IThBeg=    0 IThEnd=   19.
 Prism:   IPart=     0 DynPar=F LinDyn=F Incr=           1.
 PRISM was handed    33456538 working-precision words and  3440 shell-pairs
 PRISM was handed    33456538 working-precision words and  3440 shell-pairs
 PRISM was handed    33456538 working-precision words and  3440 shell-pairs
 PRISM was handed    33456538 working-precision words and  3440 shell-pairs
 PRISM was handed    33456538 working-precision words and  3440 shell-pairs
 PRISM was handed    33456538 working-precision words and  3440 shell-pairs
 PRISM was handed    33456538 working-precision words and  3440 shell-pairs
 PRISM was handed    33456538 working-precision words and  3440 shell-pairs
 PRISM was handed    33456538 working-precision words and  3440 shell-pairs
 PRISM was handed    33456538 working-precision words and  3440 shell-pairs
 PRISM was handed    33456538 working-precision words and  3440 shell-pairs
 PRISM was handed    33456538 working-precision words and  3440 shell-pairs
 PRISM was handed    33456538 working-precision words and  3440 shell-pairs
 PRISM was handed    33456538 working-precision words and  3440 shell-pairs
 PRISM was handed    33456538 working-precision words and  3440 shell-pairs
 PRISM was handed    33456538 working-precision words and  3440 shell-pairs
 PRISM was handed    33456538 working-precision words and  3440 shell-pairs
 PRISM was handed    33456538 working-precision words and  3440 shell-pairs
 PRISM was handed    33456538 working-precision words and  3440 shell-pairs
 PRISM was handed    33456538 working-precision words and  3440 shell-pairs
 IPart= 16 NShTot=         153 NBatch=          30 AvBLen=         5.1
 IPart= 15 NShTot=         156 NBatch=          30 AvBLen=         5.2
 IPart=  0 NShTot=         207 NBatch=          60 AvBLen=         3.5
 IPart= 12 NShTot=         160 NBatch=          31 AvBLen=         5.2
 IPart=  1 NShTot=         200 NBatch=          55 AvBLen=         3.6
 IPart= 11 NShTot=         163 NBatch=          31 AvBLen=         5.3
 IPart=  3 NShTot=         192 NBatch=          48 AvBLen=         4.0
 IPart=  4 NShTot=         188 NBatch=          45 AvBLen=         4.2
 IPart=  6 NShTot=         182 NBatch=          40 AvBLen=         4.6
 IPart=  5 NShTot=         185 NBatch=          43 AvBLen=         4.3
 IPart=  8 NShTot=         175 NBatch=          35 AvBLen=         5.0
 IPart=  9 NShTot=         168 NBatch=          33 AvBLen=         5.1
 IPart=  2 NShTot=         194 NBatch=          50 AvBLen=         3.9
 IPart= 10 NShTot=         167 NBatch=          32 AvBLen=         5.2
 IPart= 14 NShTot=         160 NBatch=          31 AvBLen=         5.2
 IPart= 17 NShTot=         153 NBatch=          30 AvBLen=         5.1
 IPart=  7 NShTot=         178 NBatch=          36 AvBLen=         4.9
 IPart= 13 NShTot=         160 NBatch=          31 AvBLen=         5.2
 IPart= 19 NShTot=         148 NBatch=          30 AvBLen=         4.9
 IPart= 18 NShTot=         151 NBatch=          30 AvBLen=         5.0
 PrSmSu:  NxtVal=             21.
 Entering OneElI...
 Calculate potential energy integrals
    NBasis = 297  MinDer = 2  MaxDer = 2
 Requested accuracy = 0.1000D-12
 PrmmSu-InSpLW:  IPartL=    0 NPrtUS=   20 NPrtUL=    1 DoSpLW=F IThBeg=    0 IThEnd=   19 NThAct=   20.
 PrsmSu:  NPrtUS=  20 ThrOK=T IAlg=1 NPAlg=1 LenDen=           0 ISkipM=0 DoSpLW=F IThBeg=    0 IThEnd=   19.
 Prism:   IPart=     0 DynPar=F LinDyn=F Incr=          20.
 PRISM was handed    33471785 working-precision words and  3146 shell-pairs
 PRISM was handed    33471785 working-precision words and  3146 shell-pairs
 PRISM was handed    33471785 working-precision words and  3146 shell-pairs
 PRISM was handed    33471785 working-precision words and  3146 shell-pairs
 PRISM was handed    33471785 working-precision words and  3146 shell-pairs
 PRISM was handed    33471785 working-precision words and  3146 shell-pairs
 PRISM was handed    33471785 working-precision words and  3146 shell-pairs
 PRISM was handed    33471785 working-precision words and  3146 shell-pairs
 PRISM was handed    33471785 working-precision words and  3146 shell-pairs
 PRISM was handed    33471785 working-precision words and  3146 shell-pairs
 PRISM was handed    33471785 working-precision words and  3146 shell-pairs
 PRISM was handed    33471785 working-precision words and  3146 shell-pairs
 PRISM was handed    33471785 working-precision words and  3146 shell-pairs
 PRISM was handed    33471785 working-precision words and  3146 shell-pairs
 PRISM was handed    33471785 working-precision words and  3146 shell-pairs
 PRISM was handed    33471785 working-precision words and  3146 shell-pairs
 PRISM was handed    33471785 working-precision words and  3146 shell-pairs
 PRISM was handed    33471785 working-precision words and  3146 shell-pairs
 PRISM was handed    33471785 working-precision words and  3146 shell-pairs
 PRISM was handed    33471785 working-precision words and  3146 shell-pairs
 IPart= 16 NShTot=        1820 NBatch=         140 AvBLen=        13.0
 IPart= 15 NShTot=        1846 NBatch=         142 AvBLen=        13.0
 IPart=  0 NShTot=        2470 NBatch=         190 AvBLen=        13.0
 IPart=  5 NShTot=        2210 NBatch=         170 AvBLen=        13.0
 IPart=  7 NShTot=        2080 NBatch=         160 AvBLen=        13.0
 IPart=  4 NShTot=        2223 NBatch=         171 AvBLen=        13.0
 IPart= 11 NShTot=        1937 NBatch=         149 AvBLen=        13.0
 IPart=  1 NShTot=        2444 NBatch=         188 AvBLen=        13.0
 IPart=  3 NShTot=        2275 NBatch=         175 AvBLen=        13.0
 IPart=  6 NShTot=        2132 NBatch=         164 AvBLen=        13.0
 IPart=  2 NShTot=        2340 NBatch=         180 AvBLen=        13.0
 IPart= 19 NShTot=        1794 NBatch=         138 AvBLen=        13.0
 IPart= 17 NShTot=        1820 NBatch=         140 AvBLen=        13.0
 IPart=  8 NShTot=        2041 NBatch=         157 AvBLen=        13.0
 IPart= 10 NShTot=        1963 NBatch=         151 AvBLen=        13.0
 IPart=  9 NShTot=        1989 NBatch=         153 AvBLen=        13.0
 IPart= 18 NShTot=        1820 NBatch=         140 AvBLen=        13.0
 IPart= 12 NShTot=        1924 NBatch=         148 AvBLen=        13.0
 IPart= 14 NShTot=        1885 NBatch=         145 AvBLen=        13.0
 IPart= 13 NShTot=        1885 NBatch=         145 AvBLen=        13.0
 PrSmSu:  NxtVal=            401.
 Polarizability after L701:
                1             2             3 
      1  0.000000D+00
      2  0.000000D+00  0.000000D+00
      3  0.000000D+00  0.000000D+00  0.000000D+00
 Dipole Derivatives after L701:
                 1             2             3             4             5 
      1   0.329948D+00  0.297726D+00  0.613376D-02 -0.343656D+00  0.105410D-01
      2  -0.310954D-01 -0.238428D+00  0.492247D-02  0.898538D-01 -0.227414D+00
      3  -0.784271D-02  0.189932D-01 -0.241384D+00  0.458454D-02  0.129087D-02
                 6             7             8             9            10 
      1  -0.106528D-01 -0.187038D+01  0.575594D+00  0.884799D-02 -0.220316D+01
      2  -0.386269D-01 -0.109065D+00 -0.991992D+00 -0.635861D-02  0.203479D+00
      3  -0.573832D+00 -0.188060D-01 -0.127978D-01 -0.103250D+01  0.163418D-01
                11            12            13            14            15 
      1  -0.602348D+00 -0.338402D-01  0.256272D+00 -0.802004D+00  0.610087D-01
      2  -0.697188D+00 -0.166047D-01 -0.102460D+00 -0.720854D+00  0.545885D-01
      3  -0.246164D-01 -0.885456D+00  0.404642D-01  0.505970D-01 -0.668313D-01
                16            17            18            19            20 
      1  -0.621655D-02 -0.100304D+00 -0.128711D-01  0.298228D+00 -0.641483D+00
      2  -0.506474D-01 -0.101083D+00  0.292377D-01 -0.327600D-01  0.255146D+00
      3  -0.436745D-01 -0.444918D-02  0.563242D+00 -0.398845D-01  0.223270D+00
                21            22            23            24            25 
      1  -0.962479D+00  0.215095D+00 -0.803015D+00  0.808539D+00  0.129922D+01
      2   0.212712D+00 -0.196188D-01  0.357384D+00 -0.251079D+00  0.255696D+00
      3   0.511896D+00  0.739116D-02 -0.263504D+00  0.430128D+00  0.416234D-01
                26            27            28            29            30 
      1   0.102022D+01  0.138002D+00  0.624024D-01  0.969361D+00 -0.242302D+00
      2   0.372569D+00  0.361382D-01 -0.903065D-01  0.591986D+00 -0.111983D+00
      3   0.407987D-01  0.111526D+00  0.196120D-01 -0.133657D+00  0.170570D+00
                31            32            33            34            35 
      1   0.103053D+01 -0.544422D+00 -0.827874D+00  0.712801D+00 -0.147222D-01
      2  -0.147133D+00  0.241069D+00  0.188341D+00 -0.144995D-02  0.122523D+00
      3  -0.197556D+00  0.170033D+00  0.331189D+00  0.178090D+00 -0.343155D-01
                36            37            38            39 
      1   0.109687D+01  0.218914D+00  0.634856D+00 -0.293837D-01
      2  -0.546324D-01  0.355077D-01  0.103628D+01 -0.466554D-01
      3   0.549917D+00 -0.343624D-03 -0.316422D-01  0.131531D+00
 Hessian after L701:
                1             2             3             4             5 
      1  0.133570D+01
      2  0.241239D+01  0.994420D+01
      3  0.742352D-01 -0.719252D-02  0.153789D+02
      4  0.216696D+00 -0.564588D+00  0.571031D-03  0.131574D+02
      5 -0.688864D+00  0.254629D+00  0.189145D-01 -0.112801D+01 -0.184451D+01
      6  0.345828D-02  0.358631D-02 -0.883530D-02 -0.230013D-01  0.680794D-01
      7  0.387340D+00 -0.143640D+00  0.130424D-02  0.367394D+00  0.427524D+00
      8 -0.129430D+00 -0.145313D+00 -0.383223D-03  0.436518D+00 -0.487411D-01
      9  0.353407D-02 -0.135492D-02 -0.179609D+00  0.684129D-02  0.724660D-02
     10 -0.844224D+00  0.305426D+01  0.192574D-01  0.341535D+00 -0.427392D+00
     11  0.300654D+01 -0.498108D+01  0.208812D-01 -0.555690D+00  0.759909D-01
     12  0.111312D-01  0.214981D-01 -0.660094D+01  0.101380D-01 -0.694963D-02
     13  0.494097D+00  0.180342D+00 -0.907457D-02  0.658766D+00  0.668016D+00
     14  0.902353D-01  0.374409D-01  0.259951D-02  0.506632D+00 -0.734480D-01
     15 -0.103768D-01  0.394048D-02  0.145172D+00 -0.116230D-01 -0.177081D-01
     16 -0.159801D+01 -0.467073D+01 -0.453635D-01 -0.150397D+02  0.115233D+01
     17 -0.458329D+01 -0.543122D+01  0.285543D-01  0.122242D+01  0.164213D+01
     18 -0.475356D-01  0.437884D-01 -0.919502D+01  0.175492D-01 -0.600660D-01
     19  0.248558D-01 -0.119096D-01 -0.671522D-02  0.585121D-01  0.265622D-01
     20 -0.280717D-01 -0.618103D-02  0.576197D-02 -0.615572D-02 -0.401615D-01
     21 -0.325517D-01  0.912232D-02 -0.648782D-02 -0.670471D-01 -0.257148D-01
     22  0.250981D-01 -0.146477D-01  0.658895D-02  0.754406D-01  0.298523D-01
     23 -0.359467D-01 -0.281529D-02 -0.685750D-02 -0.173697D-01 -0.526659D-01
     24  0.296135D-01 -0.100553D-01 -0.849108D-02  0.690368D-01  0.221460D-01
     25  0.392377D-01  0.126135D-02  0.941849D-03  0.433204D-01  0.463995D-01
     26  0.201400D-01 -0.787088D-02  0.516193D-03  0.383603D-01  0.159294D-01
     27  0.301568D-02  0.347997D-03 -0.107627D-01  0.337737D-02  0.283831D-02
     28 -0.462141D-01 -0.818324D-01 -0.249227D-01  0.267832D-01 -0.140974D-01
     29  0.422961D-02  0.248561D+00 -0.107229D+00  0.921309D-01 -0.118395D+00
     30 -0.283003D-01 -0.101058D+00  0.489707D-01 -0.192413D-01  0.478979D-02
     31 -0.767883D-01 -0.119092D+00 -0.113710D+00  0.730895D-01 -0.863735D-01
     32 -0.139059D+00  0.789865D-01  0.657764D-01 -0.587520D-01  0.214514D-01
     33 -0.114508D+00  0.471590D-01  0.205172D+00 -0.365124D-01  0.347893D-01
     34 -0.572137D-01 -0.123661D+00  0.974789D-01  0.541565D-01 -0.546875D-01
     35 -0.109800D+00  0.582516D-02 -0.186853D-01 -0.321778D-01 -0.818918D-02
     36  0.113761D+00 -0.656060D-02  0.305505D+00  0.517871D-01 -0.431213D-01
     37  0.994250D-01  0.818458D-01 -0.592021D-03 -0.333307D-01  0.487498D-01
     38  0.180929D+00  0.483960D-02 -0.265679D-02  0.666895D-01  0.175976D+00
     39 -0.547665D-02 -0.322104D-02 -0.735466D-01 -0.187573D-02 -0.524409D-02
                6             7             8             9            10 
      6  0.167878D+02
      7  0.817644D-02  0.932843D+01
      8  0.455132D-02  0.747404D+00  0.123571D+02
      9 -0.336198D+00 -0.171499D-01  0.861412D-03  0.132914D+02
     10 -0.139231D-01  0.132841D-01 -0.974466D-03  0.206392D-02  0.919923D+01
     11  0.177190D-02 -0.151694D-01 -0.437652D-01 -0.247570D-03 -0.174115D+01
     12 -0.326261D+00 -0.589683D-03 -0.108997D-03 -0.410902D-01 -0.467105D-01
     13 -0.202741D-01 -0.130505D+01 -0.195149D+01 -0.155152D-02  0.113833D+00
     14 -0.183187D-01 -0.202437D+01 -0.451511D+01 -0.882064D-02  0.172683D-03
     15  0.244981D-01 -0.120192D-01 -0.928754D-02 -0.544940D+01  0.943048D-02
     16  0.221936D-01  0.531323D-01  0.843025D-01  0.259952D-01  0.629760D+00
     17 -0.417144D-01  0.462810D-01 -0.199627D+00 -0.118795D-02  0.507089D-01
     18 -0.159218D+02  0.442251D-01  0.327593D-02 -0.150945D+00 -0.831261D-01
     19 -0.221830D-01 -0.341567D+01 -0.308499D+00 -0.450326D+00  0.611683D-02
     20  0.317517D-02 -0.199450D+00 -0.271799D+01  0.113818D+01 -0.331836D-02
     21 -0.131903D-01 -0.295566D+00  0.116065D+01 -0.161644D+01 -0.596865D-02
     22  0.208157D-01 -0.361682D+01 -0.268324D+00  0.249673D+00  0.554127D-02
[...]
 --------------------------------------------------------------------------------
 ! R1    R(1,4)                  1.4225         -DE/DX =    0.0                 !
 ! R2    R(1,6)                  1.3491         -DE/DX =    0.0                 !
 ! R3    R(2,6)                  1.2109         -DE/DX =    0.0                 !
 ! R4    R(3,5)                  1.4777         -DE/DX =    0.0                 !
 ! R5    R(3,7)                  1.0932         -DE/DX =    0.0                 !
 ! R6    R(3,8)                  1.087          -DE/DX =    0.0                 !
 ! R7    R(3,9)                  1.0932         -DE/DX =    0.0                 !
 ! R8    R(4,10)                 1.0887         -DE/DX =    0.0                 !
 ! R9    R(4,11)                 1.085          -DE/DX =    0.0                 !
 ! R10   R(4,12)                 1.0887         -DE/DX =    0.0                 !
 ! R11   R(5,6)                  1.4471         -DE/DX =    0.0                 !
 ! R12   R(5,13)                 1.08           -DE/DX =    0.0                 !
 ! A1    A(4,1,6)              115.0115         -DE/DX =    0.0                 !
 ! A2    A(5,3,7)              110.8936         -DE/DX =    0.0                 !
 ! A3    A(5,3,8)              110.4915         -DE/DX =    0.0                 !
 ! A4    A(5,3,9)              110.8937         -DE/DX =    0.0                 !
 ! A5    A(7,3,8)              109.0397         -DE/DX =    0.0                 !
 ! A6    A(7,3,9)              106.3714         -DE/DX =    0.0                 !
 ! A7    A(8,3,9)              109.0398         -DE/DX =    0.0                 !
 ! A8    A(1,4,10)             110.4777         -DE/DX =    0.0                 !
 ! A9    A(1,4,11)             106.0097         -DE/DX =    0.0                 !
 ! A10   A(1,4,12)             110.4777         -DE/DX =    0.0                 !
 ! A11   A(10,4,11)            110.5672         -DE/DX =    0.0                 !
 ! A12   A(10,4,12)            108.7334         -DE/DX =    0.0                 !
 ! A13   A(11,4,12)            110.5672         -DE/DX =    0.0                 !
 ! A14   A(3,5,6)              121.0974         -DE/DX =    0.0                 !
 ! A15   A(3,5,13)             121.2214         -DE/DX =    0.0                 !
 ! A16   A(6,5,13)             117.6812         -DE/DX =    0.0                 !
 ! A17   A(1,6,2)              122.906          -DE/DX =    0.0                 !
 ! A18   A(1,6,5)              112.0572         -DE/DX =    0.0                 !
 ! A19   A(2,6,5)              125.0367         -DE/DX =    0.0                 !
 ! D1    D(6,1,4,10)           -60.1794         -DE/DX =    0.0                 !
 ! D2    D(6,1,4,11)           180.0            -DE/DX =    0.0                 !
 ! D3    D(6,1,4,12)            60.1794         -DE/DX =    0.0                 !
 ! D4    D(4,1,6,2)              0.0            -DE/DX =    0.0                 !
 ! D5    D(4,1,6,5)           -180.0            -DE/DX =    0.0                 !
 ! D6    D(7,3,5,6)           -121.0256         -DE/DX =    0.0                 !
 ! D7    D(7,3,5,13)            58.9743         -DE/DX =    0.0                 !
 ! D8    D(8,3,5,6)              0.0008         -DE/DX =    0.0                 !
 ! D9    D(8,3,5,13)          -179.9994         -DE/DX =    0.0                 !
 ! D10   D(9,3,5,6)            121.0272         -DE/DX =    0.0                 !
 ! D11   D(9,3,5,13)           -58.9729         -DE/DX =    0.0                 !
 ! D12   D(3,5,6,1)            179.9999         -DE/DX =    0.0                 !
 ! D13   D(3,5,6,2)             -0.0001         -DE/DX =    0.0                 !
 ! D14   D(13,5,6,1)             0.0            -DE/DX =    0.0                 !
 ! D15   D(13,5,6,2)          -179.9999         -DE/DX =    0.0                 !
 --------------------------------------------------------------------------------
 GradGradGradGradGradGradGradGradGradGradGradGradGradGradGradGradGradGrad

 Leave Link  103 at Tue Apr  9 02:25:12 2019, MaxMem=   671088640 cpu:               0.4 elap:               0.1
 (Enter /shared/centos7/gaussian/g16/l9999.exe)

 ----------------------------------------------------------------------

 Electric dipole moment (input orientation):
 (Debye = 10**-18 statcoulomb cm , SI units = C m)
                  (au)            (Debye)         (10**-30 SI)
   Tot        0.699499D+00      0.177795D+01      0.593060D+01
   x          0.126728D+00      0.322110D+00      0.107444D+01
   y          0.583511D+00      0.148314D+01      0.494721D+01
   z         -0.364354D+00     -0.926095D+00     -0.308912D+01

 Dipole polarizability, Alpha (input orientation).
 (esu units = cm**3 , SI units = C**2 m**2 J**-1)
 Alpha(0;0):
               (au)            (10**-24 esu)      (10**-40 SI)
   iso        0.558307D+02      0.827325D+01      0.920524D+01
   aniso      0.270841D+02      0.401345D+01      0.446557D+01
   xx         0.609089D+02      0.902577D+01      0.100425D+02
   yx        -0.560716D+01     -0.830896D+00     -0.924496D+00
   yy         0.530323D+02      0.785857D+01      0.874384D+01
   zx        -0.139140D+02     -0.206185D+01     -0.229411D+01
   zy        -0.258965D+00     -0.383747D-01     -0.426976D-01
   zz         0.535509D+02      0.793542D+01      0.882934D+01

 ----------------------------------------------------------------------

 Dipole orientation:
     8         -3.04702079          0.08157764          0.94787678
     8         -1.18169229          1.90902483         -2.40704876
     6          1.95125816          4.97831949          0.93627765
     6         -4.52337505         -1.36477574         -0.77095959
     6          0.03574497          3.10171195          1.71532949
     6         -1.39974115          1.69539617         -0.13923462
     1          3.81229953          4.48626849          1.68605073
     1          2.06108855          5.08588331         -1.11215470
     1          1.49746183          6.84907616          1.68600384
     1         -5.65103438         -0.12876822         -1.96802461
     1         -5.73408144         -2.55089155          0.38269331
     1         -3.31077505         -2.51755684         -1.96803593
     1         -0.34212777          2.73151185          3.68657584

 Electric dipole moment (dipole orientation):
 (Debye = 10**-18 statcoulomb cm , SI units = C m)
                  (au)            (Debye)         (10**-30 SI)
   Tot        0.699499D+00      0.177795D+01      0.593060D+01
   x          0.000000D+00      0.000000D+00      0.000000D+00
   y          0.000000D+00      0.000000D+00      0.000000D+00
   z          0.699499D+00      0.177795D+01      0.593060D+01

 Dipole polarizability, Alpha (dipole orientation).
 (esu units = cm**3 , SI units = C**2 m**2 J**-1)
 Alpha(0;0):
               (au)            (10**-24 esu)      (10**-40 SI)
   iso        0.558307D+02      0.827325D+01      0.920524D+01
   aniso      0.270841D+02      0.401345D+01      0.446557D+01
   xx         0.567565D+02      0.841044D+01      0.935788D+01
   yx         0.148287D+02      0.219739D+01      0.244492D+01
   yy         0.561478D+02      0.832024D+01      0.925752D+01
   zx         0.345363D+01      0.511775D+00      0.569426D+00
   zy         0.338341D+01      0.501369D+00      0.557848D+00
   zz         0.545878D+02      0.808908D+01      0.900031D+01

 ----------------------------------------------------------------------

 Test job not archived.
 1\1\GINC-C0208\Freq\UM062X\6-311+G(2df,2p)\C4H7O2(2)\UNDERKOFFLER.C\09
 -Apr-2019\0\\#P Geom=AllCheck Guess=TCheck SCRF=Check Test GenChk UM06
 2X/6-311+G(2df,2p) Freq\\Gaussian input prepared by ASE\\0,2\O,-1.4824
 530801,0.55522946,-0.5894003765\O,-0.7422105683,-1.5484079833,-0.29252
 16854\C,1.3618186078,-1.1183643858,-2.26859088\C,-2.4876865896,0.28929
 96257,0.3813011133\C,0.3460570607,-0.1350477313,-1.8385741645\C,-0.648
 9236489,-0.4745341326,-0.844216909\H,2.3713929622,-0.7440051514,-2.079
 6300827\H,1.2279557785,-2.0592590075,-1.7409199814\H,1.297110827,-1.30
 05632813,-3.344559496\H,-3.1213092582,-0.53463042,0.0575344646\H,-3.06
 63075144,1.2027048899,0.4708294846\H,-2.0352366557,0.0280232608,1.3363
 859132\H,0.319928782,0.8612608935,-2.2547312377\\Version=EM64L-G16RevA
 .03\State=2-A\HF=-307.020178\S2=0.758368\S2-1=0.\S2A=0.75005\RMSD=6.61
 8e-09\RMSF=3.829e-07\ZeroPoint=0.1058567\Thermal=0.1131039\Dipole=0.12
 67277,0.5835113,-0.3643538\DipoleDeriv=-1.1847484,0.4798126,0.5521635,
 0.5435029,-0.8550971,-0.21119,0.5241415,-0.1571002,-0.6620142,-0.58904
 39,-0.0212265,0.2071014,0.0436596,-0.9783106,0.2366404,0.1785531,0.291
 7449,-0.6361754,-0.0842817,0.0709512,0.0999078,0.0060036,-0.0340692,0.
 0407387,0.1284895,-0.0144195,-0.0326627,0.6147355,-0.0767791,-0.256358
 8,0.0377808,0.2653261,-0.0286669,-0.3067615,0.0686239,0.5034232,-0.119
 1386,-0.1186703,0.0245583,-0.205921,0.1489826,0.0425904,0.0629424,-0.0
 315088,-0.1912895,1.305108,-0.4013377,-0.6872096,-0.5115765,1.3519203,
 -0.0336313,-0.638707,-0.127252,0.8864146,-0.0771999,-0.0294848,0.00872
 32,-0.0154368,0.0427414,-0.0508506,-0.0366396,-0.0153571,0.0900041,0.0
 813077,-0.0257621,0.0103695,0.0294056,-0.0069424,0.0133558,-0.0139049,
 0.0602083,0.0654876,0.0601419,0.0107332,-0.009963,0.063689,0.0677075,-
 0.0511456,0.0059181,-0.0297347,-0.0723032,-0.0313004,-0.0159651,0.0270
 019,-0.1097878,-0.004424,-0.0175867,-0.0054748,-0.074481,-0.0035335,-0
 .0002429,0.0614201,0.0455762,0.1005771,-0.0456516,-0.0278265,0.0283484
 ,0.0054279,0.0587795,-0.0298352,0.0276861,-0.0655515,-0.0120312,0.0684
 41,0.0486795,0.0256786,-0.007836,-0.0778635,0.054498,0.0386224,0.04368
 12,0.0301346,-0.0206241,0.0388927,0.0474163,0.0316842,0.071733\Polar=6
 0.9089149,-5.6071631,53.0322891,-13.9140363,-0.2589652,53.5508587\Quad
 rupole=2.8178779,-3.5637215,0.7458436,-0.6833021,-2.9504129,1.7037609\
 PG=C01 [X(C4H7O2)]\NImag=0\\0.36970789,-0.10844597,0.36075039,-0.19966
 642,-0.03211869,0.26211775,0.01371721,0.04362170,-0.00771420,0.0882995
 2,0.03927196,-0.08906256,0.01781423,0.02934580,0.66282580,-0.00580044,
 0.01412019,0.02594619,-0.05980486,-0.30198951,0.21673773,-0.00136977,0
 .00033548,0.00307474,-0.00041484,0.00187669,-0.00100311,0.50936975,-0.
 00342239,0.00115264,0.00346609,-0.00067703,-0.00281716,0.00154000,0.02
 142456,0.55050547,0.00472813,0.00027462,-0.00171170,0.00012042,-0.0006
 2853,-0.00044943,-0.01132984,-0.03728103,0.53315080,-0.14296650,-0.011
 47075,0.07008636,-0.00067148,-0.01227810,0.00072155,0.00049708,-0.0002
 6325,0.00009465,0.54381629,-0.03256201,-0.09695776,0.04110573,0.002112
 38,-0.00337473,-0.00302936,0.00069644,0.00073812,-0.00070846,-0.036681
 00,0.62135580,0.07936585,0.02319385,-0.14398879,-0.00560981,0.00919183
 ,-0.00546266,-0.00032756,0.00010656,0.00070350,0.05532662,0.01733858,0
 .53534547,-0.03544922,0.01237200,0.03320157,0.00749350,-0.02398983,0.0
 2002845,-0.14657285,0.08553369,0.04581910,0.00324557,0.00395539,-0.001
 19353,0.40156560,0.02882467,0.00556262,-0.02250297,-0.02696654,-0.0340
 0169,0.04606607,0.07812500,-0.16361788,-0.01561566,0.00362887,-0.00387
 235,0.00033306,-0.10487133,0.59866457,0.02596284,-0.00853034,-0.008240
 89,0.02133813,0.04353793,-0.01862805,0.04907894,-0.02190797,-0.0803509
 4,-0.00104984,0.00005575,0.00475639,-0.21310001,-0.13195742,0.33534553
 ,-0.15781695,0.06411771,0.05116612,-0.10588931,-0.03380904,0.04127862,
 -0.01041868,0.00208943,0.01325690,-0.04165595,0.02487878,0.02687708,-0
 .16051293,-0.01733399,0.09083687,0.46548957,0.08870008,-0.18870938,-0.
 02061566,-0.04583945,-0.54211102,0.24453213,0.01262525,0.01118585,-0.0
 1288318,0.01781576,0.01021992,-0.01835922,-0.00516559,-0.08531322,0.01
 440968,-0.04097662,0.81035388,0.04035064,0.00026106,-0.09873469,0.0465
 7159,0.23431522,-0.21744152,0.00862193,-0.00393529,0.00068369,0.029984
 58,-0.02435753,-0.01186744,0.08548290,0.02474365,-0.14601663,-0.215770
 83,-0.23805271,0.47817153,-0.00113259,0.00048363,0.00123765,-0.0000364
 7,-0.00060809,0.00042045,-0.26381594,-0.08809215,-0.04566209,0.0002296
 8,0.00021583,-0.00012617,-0.02298632,-0.00322360,0.00211390,-0.0003341
 9,0.00236694,-0.00297177,0.29218294,0.00082774,-0.00044443,-0.00118890
 ,-0.00012495,0.00188717,-0.00022809,-0.08111079,-0.07845022,-0.0130247
 2,-0.00010455,-0.00013299,0.00008786,0.02168888,0.00885453,0.00100289,
 -0.00090617,-0.00330603,0.00200450,0.09092149,0.08136306,0.00032649,-0
 .00008427,-0.00052024,0.00014509,-0.00046704,-0.00016400,-0.04343923,-
 0.01301804,-0.04666804,0.00003221,-0.00012538,0.00003139,0.01180211,0.
 00288266,-0.00055413,0.00086787,-0.00096327,-0.00099234,0.04571801,0.0
 1942282,0.05262614,0.00085920,-0.00098910,-0.00018601,-0.00061648,-0.0
 0171114,0.00050217,-0.05282780,-0.03262736,0.01805317,-0.00008388,-0.0
 0010731,0.00016629,0.00311248,0.02224181,-0.01361423,-0.00009223,0.002
 48370,-0.00124793,-0.00211652,-0.02472252,0.01543826,0.05524546,0.0000
 1139,0.00037375,-0.00011790,-0.00149842,0.00243754,-0.00020103,-0.0290
 9865,-0.25429911,0.11527405,-0.00005104,0.00007345,0.00003582,-0.00085
 236,-0.02218242,0.00987002,-0.00162562,-0.00248357,0.00235226,-0.00079
 980,-0.00789696,0.00402267,0.02980503,0.27733833,-0.00062620,0.0007317
 6,0.00033761,0.00040857,-0.00002045,-0.00124969,0.01650051,0.11827091,
 -0.11452543,0.00014154,0.00008360,-0.00010065,-0.00345301,-0.00974350,
 0.00582451,0.00056011,-0.00113747,-0.00025013,-0.00030095,-0.00743922,
 0.00301423,-0.02007372,-0.12663713,0.11981783,-0.00145520,0.00007576,0
 .00056760,-0.00013763,-0.00049753,0.00028086,-0.03795303,-0.00187640,-
 0.01549678,0.00001528,0.00018858,-0.00015638,-0.00396287,0.00388552,0.
 02492512,-0.00062444,0.00266329,-0.00078351,-0.00276005,-0.00554465,-0
 .03067862,-0.00099770,0.00116589,0.00435870,0.04751525,0.00148961,-0.0
 0022630,-0.00055983,-0.00056134,0.00174552,-0.00075264,-0.00258177,-0.
 05372151,-0.04271125,-0.00008761,-0.00008077,0.00022296,0.00220836,-0.
 00266100,-0.02172153,-0.00187941,-0.00357863,0.00216950,-0.00187470,-0
 .00207733,-0.01172864,0.00303653,0.00720231,0.02697781,0.00011621,0.05
 294412,0.00070532,-0.00017149,-0.00041580,0.00037177,-0.00015759,0.000
 07880,-0.02048149,-0.03738743,-0.29725847,-0.00005229,-0.00007046,0.00
 019358,0.00501400,-0.00386836,-0.00806226,-0.00118423,-0.00150033,-0.0
 0042933,-0.00114938,-0.00075152,-0.00715903,-0.00167784,-0.00321259,-0
 .01320405,0.01763794,0.04720578,0.32571193,-0.02634269,-0.01738511,0.0
 0450905,0.00078660,0.00255111,-0.00161951,-0.00001818,-0.00001920,0.00
 006275,-0.13373954,-0.11037233,-0.04914573,-0.00024542,0.00026566,0.00
 073241,0.00291190,-0.00771848,-0.00014761,-0.00001853,0.00003849,0.000
 00351,-0.00003131,0.00003919,0.00000610,-0.00003498,0.00005563,0.00003
 185,0.15056801,-0.00707465,-0.00144066,0.00584680,0.00044224,0.0003428
 8,0.00007840,0.00000570,-0.00000901,0.00002940,-0.11645595,-0.20568448
 ,-0.06745321,-0.00067448,-0.00009028,0.00004776,0.00254095,-0.00048865
 ,-0.00104386,-0.00001069,-0.00000066,0.00000577,0.00001703,0.00000401,
 -0.00002292,-0.00002339,0.00001721,0.00002100,0.13056230,0.21802597,0.
 02571135,0.02218215,0.00364312,0.00091598,-0.00109008,-0.00003863,0.00
 001459,-0.00000438,-0.00005762,-0.05481105,-0.07136383,-0.08090647,-0.
 00018630,-0.00012407,-0.00080904,-0.00144325,0.00287846,0.00114619,0.0
 0001852,-0.00002388,-0.00000757,-0.00000576,-0.00001726,0.00000618,0.0
 0003209,-0.00003804,-0.00002578,0.04652894,0.06949744,0.08453185,-0.02
 312724,0.02306668,0.00955683,0.00118388,0.00056339,-0.00063598,-0.0001
 9828,-0.00022791,0.00021607,-0.12213687,0.11815796,0.00654403,-0.00066
 756,0.00108776,0.00022908,-0.00091320,-0.00465088,0.00309531,-0.000070
 73,0.00006423,0.00003908,0.00003343,-0.00001092,-0.00002351,-0.0000651
 7,0.00005626,0.00003863,0.01285936,-0.01503495,-0.00117579,0.13899486,
 -0.00702742,0.00970611,0.00173111,0.00149681,0.00087498,-0.00133633,-0
 .00002222,-0.00004417,0.00001106,0.12804477,-0.25701858,-0.01907711,-0
 .00020550,0.00040661,0.00006854,-0.00181850,-0.00147168,0.00233357,0.0
 0000233,0.00000664,0.00000497,-0.00001847,0.00002043,0.00000674,-0.000
 00020,-0.00000029,-0.00000163,0.01278540,-0.01715993,0.00015721,-0.134
 71510,0.26886460,0.02279728,-0.02382649,-0.00880190,-0.00104666,-0.000
 54362,0.00185494,0.00012558,0.00018574,-0.00025029,0.00219415,-0.01068
 068,-0.05038228,0.00079808,-0.00102978,-0.00005899,0.00184915,0.004738
 99,-0.00333333,0.00006082,-0.00004432,-0.00002540,-0.00002019,0.000000
 33,0.00001709,0.00006897,-0.00005287,-0.00002403,0.00544583,-0.0093076
 3,-0.00020246,-0.01865003,0.01690149,0.05564611,0.00648959,-0.00628918
 ,0.03449602,-0.00041477,0.00165738,0.00004727,-0.00005478,-0.00001553,
 0.00001376,-0.10659902,0.02948135,-0.11147134,-0.00077183,-0.00037965,
 -0.00046241,0.00248628,-0.00350013,0.00109628,-0.00004279,0.00003307,0
 .00000508,-0.00001583,0.00002001,-0.00000277,-0.00002095,0.00002880,0.
 00000047,-0.00677987,0.00570829,-0.01559167,-0.00587596,0.00144377,-0.
 01363597,0.11150001,-0.00108370,-0.00140041,0.00840796,-0.00063811,-0.
 00035738,0.00040264,-0.00002226,-0.00001177,-0.00000658,0.02834525,-0.
 06549961,0.05420554,-0.00015172,-0.00001248,0.00036545,0.00103098,0.00
 102869,-0.00191780,-0.00002293,0.00000786,0.00001244,0.00002949,-0.000
 00362,-0.00002229,-0.00000659,-0.00000290,0.00001051,-0.01085998,0.006
 45243,-0.02205339,0.01164463,-0.00418556,0.02365094,-0.02822737,0.0639
 8538,0.00646721,0.00524962,-0.02922941,-0.00055044,-0.00216929,0.00186
 300,0.00005391,0.00004263,-0.00001826,-0.10262958,0.05198477,-0.248231
 83,0.00076965,-0.00006756,-0.00036043,-0.00411545,0.00672084,0.0000544
 7,0.00006424,-0.00004318,-0.00000862,0.00001467,-0.00003871,-0.0000016
 7,0.00002267,-0.00003166,-0.00000291,-0.00624556,0.00229763,-0.0073523
 4,0.00073767,-0.00077736,0.00555849,0.10552698,-0.06308064,0.27764043,
 -0.00111374,0.00050714,-0.00032931,-0.00329973,-0.00237259,0.00558454,
 0.00377731,0.01817355,-0.00987624,0.00004934,0.00003593,-0.00024935,-0
 .04424815,0.01471582,0.01300920,0.00737014,-0.01880388,0.00571841,0.00
 090152,-0.00106027,-0.00025987,-0.00246883,0.00289531,0.00250462,0.000
 48148,-0.00000657,0.00074525,0.00008466,-0.00000240,-0.00000766,-0.000
 01652,0.00003435,0.00001299,0.00009992,-0.00003770,-0.00011598,0.03838
 259,0.00049070,0.00069599,-0.00126797,-0.00071308,0.00161065,0.0007975
 4,-0.00225343,-0.01061126,0.00727027,-0.00044239,0.00023398,0.00017348
 ,0.01015248,-0.30173701,0.11475925,0.00369149,-0.00532615,0.00112744,0
 .00064173,0.00018936,0.00003532,0.00256231,-0.00058415,-0.00104785,-0.
 00014648,0.00043956,-0.00011588,0.00005732,0.00003117,-0.00000030,-0.0
 0000115,0.00000083,0.00000790,0.00003919,-0.00000061,-0.00008708,-0.01
 407869,0.31505765,-0.00032206,-0.00128195,-0.00040123,0.00485441,0.002
 20692,-0.00304669,-0.00088898,-0.01007778,0.00675222,-0.00003890,-0.00
 023274,-0.00009021,0.01501699,0.11088389,-0.08284508,-0.00417896,0.020
 23175,-0.00099047,0.00057679,0.00022577,0.00042761,0.00265111,-0.00133
 054,0.00031416,-0.00077868,0.00102042,0.00059734,-0.00016203,0.0000034
 0,0.00007258,0.00002860,-0.00002225,0.00000206,-0.00002171,0.00002522,
 0.00008909,-0.01673660,-0.12165212,0.07911862\\0.00000003,0.00000047,-
 0.00000024,-0.00000030,0.00000029,0.00000009,-0.00000003,-0.00000063,0
 .00000027,-0.00000003,0.00000060,-0.00000026,0.00000014,-0.00000024,0.
 00000004,0.00000010,-0.00000040,0.00000010,0.00000002,-0.00000075,0.00
 000031,-0.00000026,-0.00000045,0.00000043,0.,-0.00000078,0.00000033,-0
 .00000011,0.00000071,-0.00000021,0.00000018,0.00000079,-0.00000050,-0.
 00000011,0.00000070,-0.00000021,0.00000035,-0.00000032,-0.00000016\\\@


 We make a living by what we get,
 we make a life by what we give.
                   -- Sir Winston Churchill
 Job cpu time:       0 days  1 hours 44 minutes 13.5 seconds.
 Elapsed time:       0 days  0 hours  5 minutes 13.2 seconds.
 File lengths (MBytes):  RWF=   1392 Int=      0 D2E=      0 Chk=     32 Scr=     32
 Normal termination of Gaussian 16 at Tue Apr  9 02:25:12 2019.
