 Entering Gaussian System, Link 0=g16
 Input=DUEVIJNWLJUFDM-UHFFFAOYSA-N_36by10.0_tor24_a1_F.com
 Output=DUEVIJNWLJUFDM-UHFFFAOYSA-N_36by10.0_tor24_a1_F.log
 Initial command:
 /shared/centos7/gaussian/g16/l1.exe "/scratch/underkoffler.c/gaussian_scratch/Gau-6987.inp" -scrdir="/scratch/underkoffler.c/gaussian_scratch/"
 Entering Link 1 = /shared/centos7/gaussian/g16/l1.exe PID=      6988.
  
 Copyright (c) 1988,1990,1992,1993,1995,1998,2003,2009,2016,
            Gaussian, Inc.  All Rights Reserved.
  
 This is part of the Gaussian(R) 16 program.  It is based on
 the Gaussian(R) 09 system (copyright 2009, Gaussian, Inc.),
 the Gaussian(R) 03 system (copyright 2003, Gaussian, Inc.),
 the Gaussian(R) 98 system (copyright 1998, Gaussian, Inc.),
 the Gaussian(R) 94 system (copyright 1995, Gaussian, Inc.),
 the Gaussian 92(TM) system (copyright 1992, Gaussian, Inc.),
 the Gaussian 90(TM) system (copyright 1990, Gaussian, Inc.),
 the Gaussian 88(TM) system (copyright 1988, Gaussian, Inc.),
 the Gaussian 86(TM) system (copyright 1986, Carnegie Mellon
 University), and the Gaussian 82(TM) system (copyright 1983,
 Carnegie Mellon University). Gaussian is a federally registered
 trademark of Gaussian, Inc.
  
 This software contains proprietary and confidential information,
 including trade secrets, belonging to Gaussian, Inc.
  
 This software is provided under written license and may be
 used, copied, transmitted, or stored only in accord with that
 written license.
  
 The following legend is applicable only to US Government
 contracts under FAR:
  
                    RESTRICTED RIGHTS LEGEND
  
 Use, reproduction and disclosure by the US Government is
 subject to restrictions as set forth in subparagraphs (a)
 and (c) of the Commercial Computer Software - Restricted
 Rights clause in FAR 52.227-19.
  
 Gaussian, Inc.
 340 Quinnipiac St., Bldg. 40, Wallingford CT 06492
  
  
 ---------------------------------------------------------------
 Warning -- This program may not be used in any manner that
 competes with the business of Gaussian, Inc. or will provide
 assistance to any competitor of Gaussian, Inc.  The licensee
 of this program is prohibited from giving any competitor of
 Gaussian, Inc. access to this program.  By using this program,
 the user acknowledges that Gaussian, Inc. is engaged in the
 business of creating and licensing software in the field of
 computational chemistry and represents and warrants to the
 licensee that it is not a competitor of Gaussian, Inc. and that
 it will not use this program in any manner prohibited above.
 ---------------------------------------------------------------
  

 Cite this work as:
 Gaussian 16, Revision A.03,
 M. J. Frisch, G. W. Trucks, H. B. Schlegel, G. E. Scuseria, 
 M. A. Robb, J. R. Cheeseman, G. Scalmani, V. Barone, 
 G. A. Petersson, H. Nakatsuji, X. Li, M. Caricato, A. V. Marenich, 
 J. Bloino, B. G. Janesko, R. Gomperts, B. Mennucci, H. P. Hratchian, 
 J. V. Ortiz, A. F. Izmaylov, J. L. Sonnenberg, D. Williams-Young, 
 F. Ding, F. Lipparini, F. Egidi, J. Goings, B. Peng, A. Petrone, 
 T. Henderson, D. Ranasinghe, V. G. Zakrzewski, J. Gao, N. Rega, 
 G. Zheng, W. Liang, M. Hada, M. Ehara, K. Toyota, R. Fukuda, 
 J. Hasegawa, M. Ishida, T. Nakajima, Y. Honda, O. Kitao, H. Nakai, 
 T. Vreven, K. Throssell, J. A. Montgomery, Jr., J. E. Peralta, 
 F. Ogliaro, M. J. Bearpark, J. J. Heyd, E. N. Brothers, K. N. Kudin, 
 V. N. Staroverov, T. A. Keith, R. Kobayashi, J. Normand, 
 K. Raghavachari, A. P. Rendell, J. C. Burant, S. S. Iyengar, 
 J. Tomasi, M. Cossi, J. M. Millam, M. Klene, C. Adamo, R. Cammi, 
 J. W. Ochterski, R. L. Martin, K. Morokuma, O. Farkas, 
 J. B. Foresman, and D. J. Fox, Gaussian, Inc., Wallingford CT, 2016.
 
 ******************************************
 Gaussian 16:  EM64L-G16RevA.03 25-Dec-2016
                23-Apr-2019 
 ******************************************
 %nprocshared=20
 Will use up to   20 processors via shared memory.
 %mem=5GB
 ----------------------------------------------
 #p m062x/6-311+g(2df,2p) Opt=(CalcFC,ModRedun)
 ----------------------------------------------
 1/10=4,18=120,19=15,26=3,38=1/1,3;
 2/9=110,12=2,17=6,18=5,40=1/2;
 3/5=4,6=6,7=214,11=2,25=1,30=1,71=2,74=-55,140=1/1,2,3;
 4//1;
 5/5=2,38=5/2;
 8/6=4,10=90,11=11/1;
 11/6=1,8=1,9=11,15=111,16=1/1,2,10;
 10/6=1,13=1/2;
 6/7=2,8=2,9=2,10=2,28=1/1;
 7/10=1,18=20,25=1/1,2,3,16;
 1/10=4,18=20,19=15,26=3/3(2);
 2/9=110/2;
 99//99;
 2/9=110/2;
 3/5=4,6=6,7=214,11=2,25=1,30=1,71=1,74=-55/1,2,3;
 4/5=5,16=3,69=1/1;
 5/5=2,38=5/2;
 7//1,2,3,16;
 1/18=20,19=15,26=3/3(-5);
 2/9=110/2;
 6/7=2,8=2,9=2,10=2,19=2,28=1/1;
 99/9=1/99;
 Leave Link    1 at Tue Apr 23 21:55:09 2019, MaxMem=   671088640 cpu:              39.9 elap:               2.1
 (Enter /shared/centos7/gaussian/g16/l101.exe)
 ----------------------------------------
 Gaussian Input Prepared from Scan Object
 ----------------------------------------
 Symbolic Z-matrix:
 Charge =  0 Multiplicity = 2
 O                     1.11012  -0.7221    0. 
 O                     0.10643   1.29135  0. 
 C                    -2.51838   0.01577   0. 
 C                     2.36201  -0.04665   0. 
 C                    -1.20883  -0.66883   0. 
 C                     0.02758   0.08302  0. 
 H                    -3.10777  -0.27012   0.8752 
 H                    -2.38388   1.09445  -0.00001 
 H                    -3.10778  -0.27014  -0.87519 
 H                     3.12056  -0.82236   0. 
 H                     2.45637   0.58054   0.88482 
 H                     2.45637   0.58054  -0.88482 
 H                    -1.1406   -1.74672   0. 
 
 The following ModRedundant input section has been read:
 B       1       6 B                                                           
 B       2       6 B                                                           
 B       3       9 B                                                           
 B       4      12 B                                                           
 B       3       7 B                                                           
 B       3       5 B                                                           
 B       3       8 B                                                           
 B       5      13 B                                                           
 B       1       4 B                                                           
 B       4      10 B                                                           
 B       4      11 B                                                           
 B       5       6 B                                                           
 D       7       3       5      13 S  36 10.000                                
 D       4       1       6       5 F                                           
 D       6       1       4      12 F                                           
 D      13       5       6       2 F                                           
 
 ITRead=  0  0  0  0  0  0  0  0  0  0  0  0  0
 MicOpt= -1 -1 -1 -1 -1 -1 -1 -1 -1 -1 -1 -1 -1
 NAtoms=     13 NQM=       13 NQMF=       0 NMMI=      0 NMMIF=      0
                NMic=       0 NMicF=      0.
                    Isotopes and Nuclear Properties:
 (Nuclear quadrupole moments (NQMom) in fm**2, nuclear magnetic moments (NMagM)
  in nuclear magnetons)

  Atom         1           2           3           4           5           6           7           8           9          10
 IAtWgt=          16          16          12          12          12          12           1           1           1           1
 AtmWgt=  15.9949146  15.9949146  12.0000000  12.0000000  12.0000000  12.0000000   1.0078250   1.0078250   1.0078250   1.0078250
 NucSpn=           0           0           0           0           0           0           1           1           1           1
 AtZEff=  -0.0000000  -0.0000000  -0.0000000  -0.0000000  -0.0000000  -0.0000000  -0.0000000  -0.0000000  -0.0000000  -0.0000000
 NQMom=    0.0000000   0.0000000   0.0000000   0.0000000   0.0000000   0.0000000   0.0000000   0.0000000   0.0000000   0.0000000
 NMagM=    0.0000000   0.0000000   0.0000000   0.0000000   0.0000000   0.0000000   2.7928460   2.7928460   2.7928460   2.7928460
 AtZNuc=   8.0000000   8.0000000   6.0000000   6.0000000   6.0000000   6.0000000   1.0000000   1.0000000   1.0000000   1.0000000

  Atom        11          12          13
 IAtWgt=           1           1           1
 AtmWgt=   1.0078250   1.0078250   1.0078250
 NucSpn=           1           1           1
 AtZEff=  -0.0000000  -0.0000000  -0.0000000
 NQMom=    0.0000000   0.0000000   0.0000000
 NMagM=    2.7928460   2.7928460   2.7928460
 AtZNuc=   1.0000000   1.0000000   1.0000000
 Leave Link  101 at Tue Apr 23 21:55:09 2019, MaxMem=   671088640 cpu:               6.0 elap:               0.3
 (Enter /shared/centos7/gaussian/g16/l103.exe)

 GradGradGradGradGradGradGradGradGradGradGradGradGradGradGradGradGradGrad
 Berny optimization.
 Initialization pass.
                           ----------------------------
                           !    Initial Parameters    !
                           ! (Angstroms and Degrees)  !
 --------------------------                            --------------------------
 ! Name  Definition              Value          Derivative Info.                !
 --------------------------------------------------------------------------------
 ! R1    R(1,4)                  1.4225         calculate D2E/DX2 analytically  !
 ! R2    R(1,6)                  1.3491         calculate D2E/DX2 analytically  !
 ! R3    R(2,6)                  1.2109         calculate D2E/DX2 analytically  !
 ! R4    R(3,5)                  1.4777         calculate D2E/DX2 analytically  !
 ! R5    R(3,7)                  1.0932         calculate D2E/DX2 analytically  !
 ! R6    R(3,8)                  1.087          calculate D2E/DX2 analytically  !
 ! R7    R(3,9)                  1.0932         calculate D2E/DX2 analytically  !
 ! R8    R(4,10)                 1.085          calculate D2E/DX2 analytically  !
 ! R9    R(4,11)                 1.0887         calculate D2E/DX2 analytically  !
 ! R10   R(4,12)                 1.0887         calculate D2E/DX2 analytically  !
 ! R11   R(5,6)                  1.4471         calculate D2E/DX2 analytically  !
 ! R12   R(5,13)                 1.08           calculate D2E/DX2 analytically  !
 ! A1    A(4,1,6)              115.0115         calculate D2E/DX2 analytically  !
 ! A2    A(5,3,7)              110.8936         calculate D2E/DX2 analytically  !
 ! A3    A(5,3,8)              110.4915         calculate D2E/DX2 analytically  !
 ! A4    A(5,3,9)              110.8937         calculate D2E/DX2 analytically  !
 ! A5    A(7,3,8)              109.0397         calculate D2E/DX2 analytically  !
 ! A6    A(7,3,9)              106.3714         calculate D2E/DX2 analytically  !
 ! A7    A(8,3,9)              109.0398         calculate D2E/DX2 analytically  !
 ! A8    A(1,4,10)             106.0097         calculate D2E/DX2 analytically  !
 ! A9    A(1,4,11)             110.4777         calculate D2E/DX2 analytically  !
 ! A10   A(1,4,12)             110.4777         calculate D2E/DX2 analytically  !
 ! A11   A(10,4,11)            110.5672         calculate D2E/DX2 analytically  !
 ! A12   A(10,4,12)            110.5672         calculate D2E/DX2 analytically  !
 ! A13   A(11,4,12)            108.7334         calculate D2E/DX2 analytically  !
 ! A14   A(3,5,6)              121.0974         calculate D2E/DX2 analytically  !
 ! A15   A(3,5,13)             121.2214         calculate D2E/DX2 analytically  !
 ! A16   A(6,5,13)             117.6812         calculate D2E/DX2 analytically  !
 ! A17   A(1,6,2)              122.906          calculate D2E/DX2 analytically  !
 ! A18   A(1,6,5)              112.0572         calculate D2E/DX2 analytically  !
 ! A19   A(2,6,5)              125.0368         calculate D2E/DX2 analytically  !
 ! D1    D(6,1,4,10)          -180.0            calculate D2E/DX2 analytically  !
 ! D2    D(6,1,4,11)            60.1794         calculate D2E/DX2 analytically  !
 ! D3    D(6,1,4,12)           -60.1794         frozen, calculate D2E/DX2 analyt!
 ! D4    D(4,1,6,2)              0.0            calculate D2E/DX2 analytically  !
 ! D5    D(4,1,6,5)           -180.0            frozen, calculate D2E/DX2 analyt!
 ! D6    D(7,3,5,6)           -121.0261         calculate D2E/DX2 analytically  !
 ! D7    D(7,3,5,13)            58.9739         Scan                            !
 ! D8    D(8,3,5,6)              0.0003         calculate D2E/DX2 analytically  !
 ! D9    D(8,3,5,13)          -179.9998         calculate D2E/DX2 analytically  !
 ! D10   D(9,3,5,6)            121.0267         calculate D2E/DX2 analytically  !
 ! D11   D(9,3,5,13)           -58.9733         calculate D2E/DX2 analytically  !
 ! D12   D(3,5,6,1)            180.0            calculate D2E/DX2 analytically  !
 ! D13   D(3,5,6,2)              0.0            calculate D2E/DX2 analytically  !
 ! D14   D(13,5,6,1)             0.0001         calculate D2E/DX2 analytically  !
 ! D15   D(13,5,6,2)          -179.9999         frozen, calculate D2E/DX2 analyt!
 --------------------------------------------------------------------------------
 Trust Radius=3.00D-01 FncErr=1.00D-07 GrdErr=1.00D-06 EigMax=2.50D+02 EigMin=1.00D-04
 Number of optimizations in scan=  37
 Number of steps in this run=     56 maximum allowed number of steps=    100.
 GradGradGradGradGradGradGradGradGradGradGradGradGradGradGradGradGradGrad

 Leave Link  103 at Tue Apr 23 21:55:09 2019, MaxMem=   671088640 cpu:               0.2 elap:               0.0
 (Enter /shared/centos7/gaussian/g16/l202.exe)
                          Input orientation:                          
 ---------------------------------------------------------------------
 Center     Atomic      Atomic             Coordinates (Angstroms)
 Number     Number       Type             X           Y           Z
 ---------------------------------------------------------------------
      1          8           0        1.110121   -0.722104    0.000001
      2          8           0        0.106428    1.291348   -0.000002
      3          6           0       -2.518380    0.015767    0.000000
      4          6           0        2.362013   -0.046647    0.000000
      5          6           0       -1.208829   -0.668829    0.000001
      6          6           0        0.027581    0.083019   -0.000000
      7          1           0       -3.107770   -0.270124    0.875202
      8          1           0       -2.383876    1.094445   -0.000006
      9          1           0       -3.107775   -0.270135   -0.875194
     10          1           0        3.120558   -0.822364    0.000001
     11          1           0        2.456374    0.580539    0.884815
     12          1           0        2.456374    0.580537   -0.884816
     13          1           0       -1.140596   -1.746718    0.000003
 ---------------------------------------------------------------------
                    Distance matrix (angstroms):
                    1          2          3          4          5
     1  O    0.000000
     2  O    2.249753   0.000000
     3  C    3.702766   2.918343   0.000000
     4  C    1.422489   2.622574   4.880793   0.000000
     5  C    2.319562   2.360549   1.477700   3.624641   0.000000
     6  C    1.349117   1.210898   2.546850   2.338030   1.447060
     7  H    4.331382   3.679028   1.093203   5.543866   2.128596
     8  H    3.938003   2.498076   1.087032   4.881142   2.118932
     9  H    4.331385   3.679035   1.093202   5.543870   2.128596
    10  H    2.012935   3.681406   5.700885   1.084955   4.332108
    11  H    2.071755   2.609673   5.084294   1.088652   3.972093
    12  H    2.071755   2.609673   5.084294   1.088652   3.972093
    13  H    2.472966   3.284039   2.237106   3.893393   1.080046
                    6          7          8          9         10
     6  C    0.000000
     7  H    3.274312   0.000000
     8  H    2.614977   1.775405   0.000000
     9  H    3.274316   1.750396   1.775405   0.000000
    10  H    3.222766   6.313717   5.828631   6.313720   0.000000
    11  H    2.632386   5.628803   4.947224   5.897545   1.786665
    12  H    2.632386   5.897541   4.947222   5.628809   1.786665
    13  H    2.170846   2.610762   3.101282   2.610759   4.360259
                   11         12         13
    11  H    0.000000
    12  H    1.769631   0.000000
    13  H    4.374609   4.374610   0.000000
 Stoichiometry    C4H7O2(2)
 Framework group  C1[X(C4H7O2)]
 Deg. of freedom    33
 Full point group                 C1      NOp   1
 Largest Abelian subgroup         C1      NOp   1
 Largest concise Abelian subgroup C1      NOp   1
                         Standard orientation:                         
 ---------------------------------------------------------------------
 Center     Atomic      Atomic             Coordinates (Angstroms)
 Number     Number       Type             X           Y           Z
 ---------------------------------------------------------------------
      1          8           0        1.110122   -0.722104    0.000001
      2          8           0        0.106428    1.291348   -0.000002
      3          6           0       -2.518380    0.015767    0.000000
      4          6           0        2.362013   -0.046647   -0.000000
      5          6           0       -1.208828   -0.668829    0.000001
      6          6           0        0.027581    0.083019   -0.000000
      7          1           0       -3.107770   -0.270124    0.875202
      8          1           0       -2.383876    1.094445   -0.000006
      9          1           0       -3.107775   -0.270135   -0.875194
     10          1           0        3.120558   -0.822363    0.000000
     11          1           0        2.456374    0.580539    0.884815
     12          1           0        2.456374    0.580537   -0.884816
     13          1           0       -1.140596   -1.746718    0.000003
 ---------------------------------------------------------------------
 Rotational constants (GHZ):          10.2330949           2.1776563           1.8362895
 Leave Link  202 at Tue Apr 23 21:55:10 2019, MaxMem=   671088640 cpu:               0.4 elap:               0.1
 (Enter /shared/centos7/gaussian/g16/l301.exe)
 Standard basis: 6-311+G(2df,2p) (5D, 7F)
 Ernie: Thresh=  0.10000D-02 Tol=  0.10000D-05 Strict=F.
 There are   297 symmetry adapted cartesian basis functions of A   symmetry.
 There are   267 symmetry adapted basis functions of A   symmetry.
   267 basis functions,   389 primitive gaussians,   297 cartesian basis functions
    24 alpha electrons       23 beta electrons
       nuclear repulsion energy       235.7903069212 Hartrees.
 IExCor= 4336 DFT=T Ex+Corr=M062X ExCW=0 ScaHFX=  0.540000
 ScaDFX=  1.000000  1.000000  1.000000  1.000000 ScalE2=  1.000000  1.000000
 IRadAn=      5 IRanWt=     -1 IRanGd=            0 ICorTp=0 IEmpDi=  4
 NAtoms=   13 NActive=   13 NUniq=   13 SFac= 1.00D+00 NAtFMM=   60 NAOKFM=F Big=F
 Integral buffers will be    131072 words long.
 Raffenetti 2 integral format.
 Two-electron integral symmetry is turned on.
 Leave Link  301 at Tue Apr 23 21:55:10 2019, MaxMem=   671088640 cpu:               1.3 elap:               0.1
 (Enter /shared/centos7/gaussian/g16/l302.exe)
 NPDir=0 NMtPBC=     1 NCelOv=     1 NCel=       1 NClECP=     1 NCelD=      1
         NCelK=      1 NCelE2=     1 NClLst=     1 CellRange=     0.0.
 One-electron integrals computed using PRISM.
 One-electron integral symmetry used in STVInt
 NBasis=   267 RedAO= T EigKep=  3.04D-05  NBF=   267
 NBsUse=   267 1.00D-06 EigRej= -1.00D+00 NBFU=   267
 Precomputing XC quadrature grid using
 IXCGrd= 4 IRadAn=           5 IRanWt=          -1 IRanGd=           0 AccXCQ= 0.00D+00.
 Generated NRdTot=       0 NPtTot=           0 NUsed=           0 NTot=          32
 NSgBfM=   297   297   297   297   297 MxSgAt=    13 MxSgA2=    13.
 Leave Link  302 at Tue Apr 23 21:55:10 2019, MaxMem=   671088640 cpu:               6.6 elap:               0.4
 (Enter /shared/centos7/gaussian/g16/l303.exe)
 DipDrv:  MaxL=1.
 Leave Link  303 at Tue Apr 23 21:55:10 2019, MaxMem=   671088640 cpu:               0.6 elap:               0.1
 (Enter /shared/centos7/gaussian/g16/l401.exe)
 ExpMin= 4.38D-02 ExpMax= 8.59D+03 ExpMxC= 1.30D+03 IAcc=3 IRadAn=         5 AccDes= 0.00D+00
 Harris functional with IExCor= 1009 and IRadAn=       5 diagonalized for initial guess.
 HarFok:  IExCor= 1009 AccDes= 0.00D+00 IRadAn=         5 IDoV= 1 UseB2=F ITyADJ=14
 ICtDFT=  3500011 ScaDFX=  1.000000  1.000000  1.000000  1.000000
 FoFCou: FMM=F IPFlag=           0 FMFlag=      100000 FMFlg1=           0
         NFxFlg=           0 DoJE=T BraDBF=F KetDBF=T FulRan=T
         wScrn=  0.000000 ICntrl=       500 IOpCl=  0 I1Cent=   200000004 NGrid=           0
         NMat0=    1 NMatS0=      1 NMatT0=    0 NMatD0=    1 NMtDS0=    0 NMtDT0=    0
 Petite list used in FoFCou.
 Harris En= -306.888641099289    
 JPrj=0 DoOrth=F DoCkMO=F.
 Initial guess <Sx>= 0.0000 <Sy>= 0.0000 <Sz>= 0.5000 <S**2>= 0.7500 S= 0.5000
 Leave Link  401 at Tue Apr 23 21:55:11 2019, MaxMem=   671088640 cpu:              21.1 elap:               1.1
 (Enter /shared/centos7/gaussian/g16/l502.exe)
 Integral symmetry usage will be decided dynamically.
 UHF open shell SCF:
 Using DIIS extrapolation, IDIIS=  1040.
 NGot=   671088640 LenX=   670903575 LenY=   670814925
 Requested convergence on RMS density matrix=1.00D-08 within 128 cycles.
 Requested convergence on MAX density matrix=1.00D-06.
 Requested convergence on             energy=1.00D-06.
 No special actions if energy rises.
 Fock matrices will be formed incrementally for  20 cycles.

 Cycle   1  Pass 1  IDiag  1:
 FoFJK:  IHMeth= 1 ICntrl=       0 DoSepK=F KAlg= 0 I1Cent=           0 FoldK=F
 IRaf= 950000000 NMat=       1 IRICut=       1 DoRegI=T DoRafI=F ISym2E= 0 IDoP0=0 IntGTp=1.
 FoFCou: FMM=F IPFlag=           0 FMFlag=      100000 FMFlg1=           0
         NFxFlg=           0 DoJE=F BraDBF=F KetDBF=F FulRan=T
         wScrn=  0.000000 ICntrl=         0 IOpCl=  1 I1Cent=           0 NGrid=           0
         NMat0=    1 NMatS0=      1 NMatT0=    0 NMatD0=    1 NMtDS0=    0 NMtDT0=    0
 Symmetry not used in FoFCou.
 E= -306.834038048998    
 DIIS: error= 3.61D-02 at cycle   1 NSaved=   1.
 NSaved= 1 IEnMin= 1 EnMin= -306.834038048998     IErMin= 1 ErrMin= 3.61D-02
 ErrMax= 3.61D-02  0.00D+00 EMaxC= 1.00D-01 BMatC= 1.03D+00 BMatP= 1.03D+00
 IDIUse=3 WtCom= 6.39D-01 WtEn= 3.61D-01
 Coeff-Com:  0.100D+01
 Coeff-En:   0.100D+01
 Coeff:      0.100D+01
 Gap=     0.361 Goal=   None    Shift=    0.000
 Gap=     0.210 Goal=   None    Shift=    0.000
 GapD=    0.210 DampG=1.000 DampE=0.500 DampFc=0.5000 IDamp=-1.
 Damping current iteration by 5.00D-01
 RMSDP=4.00D-03 MaxDP=3.20D-01              OVMax= 2.35D-01

 Cycle   2  Pass 1  IDiag  1:
 RMSU=  1.99D-03    CP:  1.02D+00
 E= -306.920071955106     Delta-E=       -0.086033906108 Rises=F Damp=T
 DIIS: error= 6.75D-03 at cycle   2 NSaved=   2.
 NSaved= 2 IEnMin= 2 EnMin= -306.920071955106     IErMin= 2 ErrMin= 6.75D-03
 ErrMax= 6.75D-03  0.00D+00 EMaxC= 1.00D-01 BMatC= 9.62D-02 BMatP= 1.03D+00
 IDIUse=3 WtCom= 9.32D-01 WtEn= 6.75D-02
 Coeff-Com: -0.135D-01 0.101D+01
 Coeff-En:   0.000D+00 0.100D+01
 Coeff:     -0.126D-01 0.101D+01
 Gap=     0.307 Goal=   None    Shift=    0.000
 Gap=     0.312 Goal=   None    Shift=    0.000
 RMSDP=1.91D-03 MaxDP=2.35D-01 DE=-8.60D-02 OVMax= 1.17D-01

 Cycle   3  Pass 1  IDiag  1:
 RMSU=  1.37D-03    CP:  9.59D-01  4.12D-01
 E= -307.006381538155     Delta-E=       -0.086309583049 Rises=F Damp=F
 DIIS: error= 1.16D-02 at cycle   3 NSaved=   3.
 NSaved= 3 IEnMin= 3 EnMin= -307.006381538155     IErMin= 2 ErrMin= 6.75D-03
 ErrMax= 1.16D-02  0.00D+00 EMaxC= 1.00D-01 BMatC= 7.27D-02 BMatP= 9.62D-02
 IDIUse=3 WtCom= 8.84D-01 WtEn= 1.16D-01
 Coeff-Com: -0.915D-01 0.503D+00 0.588D+00
 Coeff-En:   0.000D+00 0.000D+00 0.100D+01
 Coeff:     -0.809D-01 0.445D+00 0.636D+00
 Gap=     0.305 Goal=   None    Shift=    0.000
 Gap=     0.294 Goal=   None    Shift=    0.000
 RMSDP=4.60D-04 MaxDP=1.87D-02 DE=-8.63D-02 OVMax= 6.77D-02

 Cycle   4  Pass 1  IDiag  1:
 RMSU=  4.20D-04    CP:  9.60D-01  5.05D-01  9.95D-01
 E= -307.017455546597     Delta-E=       -0.011074008443 Rises=F Damp=F
 DIIS: error= 3.90D-03 at cycle   4 NSaved=   4.
 NSaved= 4 IEnMin= 4 EnMin= -307.017455546597     IErMin= 4 ErrMin= 3.90D-03
 ErrMax= 3.90D-03  0.00D+00 EMaxC= 1.00D-01 BMatC= 1.37D-02 BMatP= 7.27D-02
 IDIUse=3 WtCom= 9.61D-01 WtEn= 3.90D-02
 Coeff-Com: -0.283D-01 0.709D-01 0.333D+00 0.624D+00
 Coeff-En:   0.000D+00 0.000D+00 0.146D+00 0.854D+00
 Coeff:     -0.272D-01 0.682D-01 0.326D+00 0.633D+00
 Gap=     0.300 Goal=   None    Shift=    0.000
 Gap=     0.285 Goal=   None    Shift=    0.000
 RMSDP=2.12D-04 MaxDP=1.82D-02 DE=-1.11D-02 OVMax= 1.40D-02

 Cycle   5  Pass 1  IDiag  1:
 RMSU=  8.14D-05    CP:  9.54D-01  4.36D-01  1.06D+00  7.89D-01
 E= -307.020020970908     Delta-E=       -0.002565424311 Rises=F Damp=F
 DIIS: error= 6.60D-04 at cycle   5 NSaved=   5.
 NSaved= 5 IEnMin= 5 EnMin= -307.020020970908     IErMin= 5 ErrMin= 6.60D-04
 ErrMax= 6.60D-04  0.00D+00 EMaxC= 1.00D-01 BMatC= 3.72D-04 BMatP= 1.37D-02
 IDIUse=3 WtCom= 9.93D-01 WtEn= 6.60D-03
 Coeff-Com: -0.495D-02 0.257D-02 0.928D-01 0.233D+00 0.677D+00
 Coeff-En:   0.000D+00 0.000D+00 0.000D+00 0.000D+00 0.100D+01
 Coeff:     -0.491D-02 0.255D-02 0.922D-01 0.231D+00 0.679D+00
 Gap=     0.299 Goal=   None    Shift=    0.000
 Gap=     0.286 Goal=   None    Shift=    0.000
 RMSDP=3.75D-05 MaxDP=2.17D-03 DE=-2.57D-03 OVMax= 6.85D-03

 Cycle   6  Pass 1  IDiag  1:
 RMSU=  2.90D-05    CP:  9.53D-01  4.29D-01  1.07D+00  8.12D-01  1.05D+00
 E= -307.020124733144     Delta-E=       -0.000103762236 Rises=F Damp=F
 DIIS: error= 3.68D-04 at cycle   6 NSaved=   6.
 NSaved= 6 IEnMin= 6 EnMin= -307.020124733144     IErMin= 6 ErrMin= 3.68D-04
 ErrMax= 3.68D-04  0.00D+00 EMaxC= 1.00D-01 BMatC= 9.20D-05 BMatP= 3.72D-04
 IDIUse=3 WtCom= 9.96D-01 WtEn= 3.68D-03
 Coeff-Com:  0.445D-02-0.151D-01-0.367D-01-0.608D-01 0.257D+00 0.851D+00
 Coeff-En:   0.000D+00 0.000D+00 0.000D+00 0.000D+00 0.000D+00 0.100D+01
 Coeff:      0.444D-02-0.150D-01-0.366D-01-0.606D-01 0.256D+00 0.852D+00
 Gap=     0.300 Goal=   None    Shift=    0.000
 Gap=     0.287 Goal=   None    Shift=    0.000
 RMSDP=3.10D-05 MaxDP=2.03D-03 DE=-1.04D-04 OVMax= 4.09D-03

 Cycle   7  Pass 1  IDiag  1:
 RMSU=  1.61D-05    CP:  9.53D-01  4.21D-01  1.08D+00  8.26D-01  1.23D+00
                    CP:  1.20D+00
 E= -307.020165757889     Delta-E=       -0.000041024745 Rises=F Damp=F
 DIIS: error= 1.07D-04 at cycle   7 NSaved=   7.
 NSaved= 7 IEnMin= 7 EnMin= -307.020165757889     IErMin= 7 ErrMin= 1.07D-04
 ErrMax= 1.07D-04  0.00D+00 EMaxC= 1.00D-01 BMatC= 1.36D-05 BMatP= 9.20D-05
 IDIUse=3 WtCom= 9.99D-01 WtEn= 1.07D-03
 Coeff-Com:  0.246D-02-0.414D-02-0.291D-01-0.766D-01-0.104D+00 0.183D+00
 Coeff-Com:  0.103D+01
 Coeff-En:   0.000D+00 0.000D+00 0.000D+00 0.000D+00 0.000D+00 0.000D+00
 Coeff-En:   0.100D+01
 Coeff:      0.246D-02-0.414D-02-0.290D-01-0.766D-01-0.104D+00 0.182D+00
 Coeff:      0.103D+01
 Gap=     0.301 Goal=   None    Shift=    0.000
 Gap=     0.288 Goal=   None    Shift=    0.000
 RMSDP=1.71D-05 MaxDP=1.07D-03 DE=-4.10D-05 OVMax= 3.34D-03

 Cycle   8  Pass 1  IDiag  1:
 RMSU=  7.56D-06    CP:  9.52D-01  4.17D-01  1.08D+00  8.26D-01  1.33D+00
                    CP:  1.46D+00  1.31D+00
 E= -307.020175995084     Delta-E=       -0.000010237195 Rises=F Damp=F
 DIIS: error= 7.52D-05 at cycle   8 NSaved=   8.
 NSaved= 8 IEnMin= 8 EnMin= -307.020175995084     IErMin= 8 ErrMin= 7.52D-05
 ErrMax= 7.52D-05  0.00D+00 EMaxC= 1.00D-01 BMatC= 2.11D-06 BMatP= 1.36D-05
 IDIUse=1 WtCom= 1.00D+00 WtEn= 0.00D+00
 Coeff-Com:  0.168D-03 0.440D-03-0.185D-02-0.128D-01-0.540D-01-0.399D-01
 Coeff-Com:  0.272D+00 0.836D+00
 Coeff:      0.168D-03 0.440D-03-0.185D-02-0.128D-01-0.540D-01-0.399D-01
 Coeff:      0.272D+00 0.836D+00
 Gap=     0.301 Goal=   None    Shift=    0.000
 Gap=     0.288 Goal=   None    Shift=    0.000
 RMSDP=4.31D-06 MaxDP=1.94D-04 DE=-1.02D-05 OVMax= 9.43D-04

 Cycle   9  Pass 1  IDiag  1:
 RMSU=  2.76D-06    CP:  9.52D-01  4.17D-01  1.08D+00  8.24D-01  1.33D+00
                    CP:  1.51D+00  1.43D+00  1.19D+00
 E= -307.020177341605     Delta-E=       -0.000001346521 Rises=F Damp=F
 DIIS: error= 4.22D-05 at cycle   9 NSaved=   9.
 NSaved= 9 IEnMin= 9 EnMin= -307.020177341605     IErMin= 9 ErrMin= 4.22D-05
 ErrMax= 4.22D-05  0.00D+00 EMaxC= 1.00D-01 BMatC= 4.48D-07 BMatP= 2.11D-06
 IDIUse=1 WtCom= 1.00D+00 WtEn= 0.00D+00
 Coeff-Com: -0.570D-03 0.113D-02 0.748D-02 0.167D-01 0.134D-01-0.534D-01
 Coeff-Com: -0.216D+00 0.122D+00 0.111D+01
 Coeff:     -0.570D-03 0.113D-02 0.748D-02 0.167D-01 0.134D-01-0.534D-01
 Coeff:     -0.216D+00 0.122D+00 0.111D+01
 Gap=     0.301 Goal=   None    Shift=    0.000
 Gap=     0.288 Goal=   None    Shift=    0.000
 RMSDP=3.21D-06 MaxDP=1.69D-04 DE=-1.35D-06 OVMax= 7.59D-04

 Cycle  10  Pass 1  IDiag  1:
 RMSU=  1.45D-06    CP:  9.52D-01  4.17D-01  1.08D+00  8.22D-01  1.33D+00
                    CP:  1.54D+00  1.51D+00  1.46D+00  1.39D+00
 E= -307.020177877691     Delta-E=       -0.000000536086 Rises=F Damp=F
 DIIS: error= 1.73D-05 at cycle  10 NSaved=  10.
 NSaved=10 IEnMin=10 EnMin= -307.020177877691     IErMin=10 ErrMin= 1.73D-05
 ErrMax= 1.73D-05  0.00D+00 EMaxC= 1.00D-01 BMatC= 6.72D-08 BMatP= 4.48D-07
 IDIUse=1 WtCom= 1.00D+00 WtEn= 0.00D+00
 Coeff-Com:  0.144D-03-0.397D-03-0.132D-02-0.159D-02 0.677D-02 0.177D-01
 Coeff-Com:  0.502D-02-0.190D+00-0.222D+00 0.139D+01
 Coeff:      0.144D-03-0.397D-03-0.132D-02-0.159D-02 0.677D-02 0.177D-01
 Coeff:      0.502D-02-0.190D+00-0.222D+00 0.139D+01
 Gap=     0.301 Goal=   None    Shift=    0.000
 Gap=     0.288 Goal=   None    Shift=    0.000
 RMSDP=1.56D-06 MaxDP=9.63D-05 DE=-5.36D-07 OVMax= 3.96D-04

 Cycle  11  Pass 1  IDiag  1:
 RMSU=  5.69D-07    CP:  9.52D-01  4.17D-01  1.08D+00  8.22D-01  1.33D+00
                    CP:  1.54D+00  1.52D+00  1.54D+00  1.73D+00  1.61D+00
 E= -307.020177990072     Delta-E=       -0.000000112381 Rises=F Damp=F
 DIIS: error= 6.65D-06 at cycle  11 NSaved=  11.
 NSaved=11 IEnMin=11 EnMin= -307.020177990072     IErMin=11 ErrMin= 6.65D-06
 ErrMax= 6.65D-06  0.00D+00 EMaxC= 1.00D-01 BMatC= 9.45D-09 BMatP= 6.72D-08
 IDIUse=1 WtCom= 1.00D+00 WtEn= 0.00D+00
 Coeff-Com:  0.976D-04-0.201D-03-0.109D-02-0.253D-02-0.805D-03 0.688D-02
 Coeff-Com:  0.318D-01-0.372D-01-0.172D+00 0.103D+00 0.107D+01
 Coeff:      0.976D-04-0.201D-03-0.109D-02-0.253D-02-0.805D-03 0.688D-02
 Coeff:      0.318D-01-0.372D-01-0.172D+00 0.103D+00 0.107D+01
 Gap=     0.301 Goal=   None    Shift=    0.000
 Gap=     0.288 Goal=   None    Shift=    0.000
 RMSDP=5.62D-07 MaxDP=3.19D-05 DE=-1.12D-07 OVMax= 1.17D-04

 Cycle  12  Pass 1  IDiag  1:
 RMSU=  1.74D-07    CP:  9.52D-01  4.17D-01  1.08D+00  8.22D-01  1.33D+00
                    CP:  1.54D+00  1.53D+00  1.55D+00  1.81D+00  1.86D+00
                    CP:  1.32D+00
 E= -307.020178000874     Delta-E=       -0.000000010801 Rises=F Damp=F
 DIIS: error= 1.23D-06 at cycle  12 NSaved=  12.
 NSaved=12 IEnMin=12 EnMin= -307.020178000874     IErMin=12 ErrMin= 1.23D-06
 ErrMax= 1.23D-06  0.00D+00 EMaxC= 1.00D-01 BMatC= 1.79D-09 BMatP= 9.45D-09
 IDIUse=1 WtCom= 1.00D+00 WtEn= 0.00D+00
 Coeff-Com:  0.917D-05-0.716D-05-0.162D-03-0.596D-03-0.111D-02-0.432D-03
 Coeff-Com:  0.101D-01 0.142D-01-0.207D-01-0.173D+00 0.358D+00 0.814D+00
 Coeff:      0.917D-05-0.716D-05-0.162D-03-0.596D-03-0.111D-02-0.432D-03
 Coeff:      0.101D-01 0.142D-01-0.207D-01-0.173D+00 0.358D+00 0.814D+00
 Gap=     0.301 Goal=   None    Shift=    0.000
 Gap=     0.288 Goal=   None    Shift=    0.000
 RMSDP=1.38D-07 MaxDP=8.44D-06 DE=-1.08D-08 OVMax= 2.72D-05

 Cycle  13  Pass 1  IDiag  1:
 RMSU=  7.21D-08    CP:  9.52D-01  4.17D-01  1.08D+00  8.22D-01  1.33D+00
                    CP:  1.54D+00  1.53D+00  1.55D+00  1.83D+00  1.91D+00
                    CP:  1.46D+00  1.14D+00
 E= -307.020178001791     Delta-E=       -0.000000000917 Rises=F Damp=F
 DIIS: error= 3.86D-07 at cycle  13 NSaved=  13.
 NSaved=13 IEnMin=13 EnMin= -307.020178001791     IErMin=13 ErrMin= 3.86D-07
 ErrMax= 3.86D-07  0.00D+00 EMaxC= 1.00D-01 BMatC= 1.07D-10 BMatP= 1.79D-09
 IDIUse=1 WtCom= 1.00D+00 WtEn= 0.00D+00
 Coeff-Com: -0.121D-04 0.264D-04 0.118D-03 0.247D-03-0.955D-04-0.979D-03
 Coeff-Com: -0.279D-02 0.668D-02 0.224D-01-0.416D-01-0.914D-01 0.103D+00
 Coeff-Com:  0.100D+01
 Coeff:     -0.121D-04 0.264D-04 0.118D-03 0.247D-03-0.955D-04-0.979D-03
 Coeff:     -0.279D-02 0.668D-02 0.224D-01-0.416D-01-0.914D-01 0.103D+00
 Coeff:      0.100D+01
 Gap=     0.301 Goal=   None    Shift=    0.000
 Gap=     0.288 Goal=   None    Shift=    0.000
 RMSDP=4.93D-08 MaxDP=3.11D-06 DE=-9.17D-10 OVMax= 7.10D-06

 Cycle  14  Pass 1  IDiag  1:
 RMSU=  1.73D-08    CP:  9.52D-01  4.17D-01  1.08D+00  8.22D-01  1.33D+00
                    CP:  1.54D+00  1.53D+00  1.55D+00  1.83D+00  1.91D+00
                    CP:  1.50D+00  1.28D+00  1.16D+00
 E= -307.020178001860     Delta-E=       -0.000000000070 Rises=F Damp=F
 DIIS: error= 8.64D-08 at cycle  14 NSaved=  14.
 NSaved=14 IEnMin=14 EnMin= -307.020178001860     IErMin=14 ErrMin= 8.64D-08
 ErrMax= 8.64D-08  0.00D+00 EMaxC= 1.00D-01 BMatC= 7.07D-12 BMatP= 1.07D-10
 IDIUse=1 WtCom= 1.00D+00 WtEn= 0.00D+00
 Coeff-Com:  0.410D-06-0.143D-05 0.730D-05 0.228D-04 0.664D-04 0.456D-04
 Coeff-Com: -0.467D-03-0.120D-02 0.232D-03 0.124D-01-0.176D-01-0.554D-01
 Coeff-Com: -0.612D-01 0.112D+01
 Coeff:      0.410D-06-0.143D-05 0.730D-05 0.228D-04 0.664D-04 0.456D-04
 Coeff:     -0.467D-03-0.120D-02 0.232D-03 0.124D-01-0.176D-01-0.554D-01
 Coeff:     -0.612D-01 0.112D+01
 Gap=     0.301 Goal=   None    Shift=    0.000
 Gap=     0.288 Goal=   None    Shift=    0.000
 RMSDP=1.16D-08 MaxDP=5.80D-07 DE=-6.98D-11 OVMax= 1.28D-06

 Cycle  15  Pass 1  IDiag  1:
 RMSU=  5.65D-09    CP:  9.52D-01  4.17D-01  1.08D+00  8.22D-01  1.33D+00
                    CP:  1.54D+00  1.53D+00  1.55D+00  1.83D+00  1.91D+00
                    CP:  1.50D+00  1.30D+00  1.23D+00  1.27D+00
 E= -307.020178001854     Delta-E=        0.000000000006 Rises=F Damp=F
 DIIS: error= 2.71D-08 at cycle  15 NSaved=  15.
 NSaved=15 IEnMin=14 EnMin= -307.020178001860     IErMin=15 ErrMin= 2.71D-08
 ErrMax= 2.71D-08  0.00D+00 EMaxC= 1.00D-01 BMatC= 6.43D-13 BMatP= 7.07D-12
 IDIUse=1 WtCom= 1.00D+00 WtEn= 0.00D+00
 Coeff-Com:  0.107D-05-0.232D-05-0.859D-05-0.192D-04 0.183D-05 0.812D-04
 Coeff-Com:  0.214D-03-0.501D-03-0.182D-02 0.354D-02 0.657D-02-0.907D-02
 Coeff-Com: -0.787D-01-0.541D-02 0.109D+01
 Coeff:      0.107D-05-0.232D-05-0.859D-05-0.192D-04 0.183D-05 0.812D-04
 Coeff:      0.214D-03-0.501D-03-0.182D-02 0.354D-02 0.657D-02-0.907D-02
 Coeff:     -0.787D-01-0.541D-02 0.109D+01
 Gap=     0.301 Goal=   None    Shift=    0.000
 Gap=     0.288 Goal=   None    Shift=    0.000
 RMSDP=2.92D-09 MaxDP=1.14D-07 DE= 6.25D-12 OVMax= 4.47D-07

 SCF Done:  E(UM062X) =  -307.020178002     A.U. after   15 cycles
            NFock= 15  Conv=0.29D-08     -V/T= 2.0035
 <Sx>= 0.0000 <Sy>= 0.0000 <Sz>= 0.5000 <S**2>= 0.7584 S= 0.5042
 <L.S>= 0.000000000000E+00
 KE= 3.059455160366D+02 PE=-1.190077396005D+03 EE= 3.413213950449D+02
 Annihilation of the first spin contaminant:
 S**2 before annihilation     0.7584,   after     0.7501
 Leave Link  502 at Tue Apr 23 21:55:59 2019, MaxMem=   671088640 cpu:             943.4 elap:              47.4
 (Enter /shared/centos7/gaussian/g16/l801.exe)
 DoSCS=F DFT=T ScalE2(SS,OS)=  1.000000  1.000000
 Range of M.O.s used for correlation:     1   267
 NBasis=   267 NAE=    24 NBE=    23 NFC=     0 NFV=     0
 NROrb=    267 NOA=    24 NOB=    23 NVA=   243 NVB=   244

 **** Warning!!: The largest alpha MO coefficient is  0.60434176D+02


 **** Warning!!: The largest beta MO coefficient is  0.61516761D+02

 Leave Link  801 at Tue Apr 23 21:55:59 2019, MaxMem=   671088640 cpu:               0.4 elap:               0.0
 (Enter /shared/centos7/gaussian/g16/l1101.exe)
 Using compressed storage, NAtomX=    13.
 Will process     14 centers per pass.
 Leave Link 1101 at Tue Apr 23 21:55:59 2019, MaxMem=   671088640 cpu:               6.1 elap:               0.3
 (Enter /shared/centos7/gaussian/g16/l1102.exe)
 Symmetrizing basis deriv contribution to polar:
 IMax=3 JMax=2 DiffMx= 0.00D+00
 Leave Link 1102 at Tue Apr 23 21:55:59 2019, MaxMem=   671088640 cpu:               0.7 elap:               0.1
 (Enter /shared/centos7/gaussian/g16/l1110.exe)
 Forming Gx(P) for the SCF density, NAtomX=    13.
 Integral derivatives from FoFJK, PRISM(SPDF).
 Do as many integral derivatives as possible in FoFJK.
 G2DrvN: MDV=     671087568.
 G2DrvN: will do    14 centers at a time, making    1 passes.
 Calling FoFCou, ICntrl=  3107 FMM=F I1Cent=   0 AccDes= 0.00D+00.
 FoFJK:  IHMeth= 1 ICntrl=    3107 DoSepK=F KAlg= 0 I1Cent=           0 FoldK=F
 IRaf=         0 NMat=       1 IRICut=       1 DoRegI=T DoRafI=F ISym2E= 0 IDoP0=0 IntGTp=1.
 FoFCou: FMM=F IPFlag=           0 FMFlag=      100000 FMFlg1=           0
         NFxFlg=           0 DoJE=F BraDBF=F KetDBF=F FulRan=T
         wScrn=  0.000000 ICntrl=      3107 IOpCl=  1 I1Cent=           0 NGrid=           0
         NMat0=    1 NMatS0=      1 NMatT0=    0 NMatD0=    1 NMtDS0=    0 NMtDT0=    0
 Symmetry not used in FoFCou.
 End of G2Drv F.D. properties file   721 does not exist.
 End of G2Drv F.D. properties file   722 does not exist.
 End of G2Drv F.D. properties file   788 does not exist.
 Leave Link 1110 at Tue Apr 23 21:57:18 2019, MaxMem=   671088640 cpu:            1568.8 elap:              78.5
 (Enter /shared/centos7/gaussian/g16/l1002.exe)
 Minotr:  UHF open shell wavefunction.
          IDoAtm=1111111111111
          Direct CPHF calculation.
          Differentiating once with respect to nuclear coordinates.
          Requested convergence is 1.0D-08 RMS, and 1.0D-07 maximum.
          Secondary convergence is 1.0D-12 RMS, and 1.0D-12 maximum.
          NewPWx=T KeepS1=F KeepF1=F KeepIn=T MapXYZ=F SortEE=F KeepMc=T.
         3966 words used for storage of precomputed grid.
 Two-electron integrals replicated using symmetry.
          MDV=     671088640 using IRadAn=       1.
          Solving linear equations simultaneously, MaxMat=     380.
 FoF2E skips out because all densities are zero.
 CalDSu exits because no D1Ps are significant.
 FoFJK:  IHMeth= 1 ICntrl=       0 DoSepK=F KAlg= 0 I1Cent=           0 FoldK=F
 IRaf= 940000000 NMat=      39 IRICut=      97 DoRegI=T DoRafI=T ISym2E= 2 IDoP0=3 IntGTp=3.
 FoFCou: FMM=F IPFlag=           0 FMFlag=      100000 FMFlg1=           0
         NFxFlg=           0 DoJE=F BraDBF=F KetDBF=F FulRan=T
         wScrn=  0.000000 ICntrl=         0 IOpCl=  1 I1Cent=           0 NGrid=           0
         NMat0=   39 NMatS0=     39 NMatT0=    0 NMatD0=   39 NMtDS0=    0 NMtDT0=    0
 Integrals replicated using symmetry in FoFCou.
 Raff kept on since  91.74% of shell-pairs survive, threshold=   0.20 IRatSp=92.
          There are    42 degrees of freedom in the 1st order CPHF.  IDoFFX=6 NUNeed=     0.
     36 vectors produced by pass  0 Test12= 2.72D-14 2.38D-09 XBig12= 1.57D-01 1.35D-01.
 AX will form    36 AO Fock derivatives at one time.
     36 vectors produced by pass  1 Test12= 2.72D-14 2.38D-09 XBig12= 1.84D-02 4.07D-02.
     36 vectors produced by pass  2 Test12= 2.72D-14 2.38D-09 XBig12= 7.85D-04 9.37D-03.
     36 vectors produced by pass  3 Test12= 2.72D-14 2.38D-09 XBig12= 1.21D-05 9.43D-04.
     36 vectors produced by pass  4 Test12= 2.72D-14 2.38D-09 XBig12= 1.24D-07 4.00D-05.
     36 vectors produced by pass  5 Test12= 2.72D-14 2.38D-09 XBig12= 1.42D-09 5.15D-06.
     36 vectors produced by pass  6 Test12= 2.72D-14 2.38D-09 XBig12= 1.49D-11 6.48D-07.
     18 vectors produced by pass  7 Test12= 2.72D-14 2.38D-09 XBig12= 1.37D-13 3.56D-08.
      4 vectors produced by pass  8 Test12= 2.72D-14 2.38D-09 XBig12= 1.26D-15 4.16D-09.
 InvSVY:  IOpt=1 It=  1 EMax= 1.78D-15
 Solved reduced A of dimension   274 with    36 vectors.
 End of Minotr F.D. properties file   721 does not exist.
 End of Minotr F.D. properties file   722 does not exist.
 End of Minotr F.D. properties file   788 does not exist.
 Leave Link 1002 at Tue Apr 23 21:59:16 2019, MaxMem=   671088640 cpu:            2368.6 elap:             118.5
 (Enter /shared/centos7/gaussian/g16/l601.exe)
 Copying SCF densities to generalized density rwf, IOpCl= 1 IROHF=0.

 **********************************************************************

            Population analysis using the SCF density.

 **********************************************************************

 Orbital symmetries:
 Alpha Orbitals:
       Occupied  (A) (A) (A) (A) (A) (A) (A) (A) (A) (A) (A) (A)
                 (A) (A) (A) (A) (A) (A) (A) (A) (A) (A) (A) (A)
       Virtual   (A) (A) (A) (A) (A) (A) (A) (A) (A) (A) (A) (A)
                 (A) (A) (A) (A) (A) (A) (A) (A) (A) (A) (A) (A)
                 (A) (A) (A) (A) (A) (A) (A) (A) (A) (A) (A) (A)
                 (A) (A) (A) (A) (A) (A) (A) (A) (A) (A) (A) (A)
                 (A) (A) (A) (A) (A) (A) (A) (A) (A) (A) (A) (A)
                 (A) (A) (A) (A) (A) (A) (A) (A) (A) (A) (A) (A)
                 (A) (A) (A) (A) (A) (A) (A) (A) (A) (A) (A) (A)
                 (A) (A) (A) (A) (A) (A) (A) (A) (A) (A) (A) (A)
                 (A) (A) (A) (A) (A) (A) (A) (A) (A) (A) (A) (A)
                 (A) (A) (A) (A) (A) (A) (A) (A) (A) (A) (A) (A)
                 (A) (A) (A) (A) (A) (A) (A) (A) (A) (A) (A) (A)
                 (A) (A) (A) (A) (A) (A) (A) (A) (A) (A) (A) (A)
                 (A) (A) (A) (A) (A) (A) (A) (A) (A) (A) (A) (A)
                 (A) (A) (A) (A) (A) (A) (A) (A) (A) (A) (A) (A)
                 (A) (A) (A) (A) (A) (A) (A) (A) (A) (A) (A) (A)
                 (A) (A) (A) (A) (A) (A) (A) (A) (A) (A) (A) (A)
                 (A) (A) (A) (A) (A) (A) (A) (A) (A) (A) (A) (A)
                 (A) (A) (A) (A) (A) (A) (A) (A) (A) (A) (A) (A)
                 (A) (A) (A) (A) (A) (A) (A) (A) (A) (A) (A) (A)
                 (A) (A) (A) (A) (A) (A) (A) (A) (A) (A) (A) (A)
                 (A) (A) (A)
 Beta  Orbitals:
       Occupied  (A) (A) (A) (A) (A) (A) (A) (A) (A) (A) (A) (A)
                 (A) (A) (A) (A) (A) (A) (A) (A) (A) (A) (A)
       Virtual   (A) (A) (A) (A) (A) (A) (A) (A) (A) (A) (A) (A)
                 (A) (A) (A) (A) (A) (A) (A) (A) (A) (A) (A) (A)
                 (A) (A) (A) (A) (A) (A) (A) (A) (A) (A) (A) (A)
                 (A) (A) (A) (A) (A) (A) (A) (A) (A) (A) (A) (A)
                 (A) (A) (A) (A) (A) (A) (A) (A) (A) (A) (A) (A)
                 (A) (A) (A) (A) (A) (A) (A) (A) (A) (A) (A) (A)
                 (A) (A) (A) (A) (A) (A) (A) (A) (A) (A) (A) (A)
                 (A) (A) (A) (A) (A) (A) (A) (A) (A) (A) (A) (A)
                 (A) (A) (A) (A) (A) (A) (A) (A) (A) (A) (A) (A)
                 (A) (A) (A) (A) (A) (A) (A) (A) (A) (A) (A) (A)
                 (A) (A) (A) (A) (A) (A) (A) (A) (A) (A) (A) (A)
                 (A) (A) (A) (A) (A) (A) (A) (A) (A) (A) (A) (A)
                 (A) (A) (A) (A) (A) (A) (A) (A) (A) (A) (A) (A)
                 (A) (A) (A) (A) (A) (A) (A) (A) (A) (A) (A) (A)
                 (A) (A) (A) (A) (A) (A) (A) (A) (A) (A) (A) (A)
                 (A) (A) (A) (A) (A) (A) (A) (A) (A) (A) (A) (A)
                 (A) (A) (A) (A) (A) (A) (A) (A) (A) (A) (A) (A)
                 (A) (A) (A) (A) (A) (A) (A) (A) (A) (A) (A) (A)
                 (A) (A) (A) (A) (A) (A) (A) (A) (A) (A) (A) (A)
                 (A) (A) (A) (A) (A) (A) (A) (A) (A) (A) (A) (A)
                 (A) (A) (A) (A)
 The electronic state is 2-A.
 Alpha  occ. eigenvalues --  -19.66487 -19.60905 -10.66401 -10.58610 -10.57731
 Alpha  occ. eigenvalues --  -10.54218  -1.23333  -1.13963  -0.90351  -0.82759
 Alpha  occ. eigenvalues --   -0.74009  -0.64122  -0.60020  -0.57210  -0.56148
 Alpha  occ. eigenvalues --   -0.51486  -0.50645  -0.47114  -0.46819  -0.44867
 Alpha  occ. eigenvalues --   -0.43142  -0.38327  -0.36232  -0.28844
 Alpha virt. eigenvalues --    0.01207   0.02485   0.03643   0.04684   0.05134
 Alpha virt. eigenvalues --    0.05745   0.06603   0.08026   0.08103   0.09184
 Alpha virt. eigenvalues --    0.10358   0.10394   0.11556   0.12048   0.14755
 Alpha virt. eigenvalues --    0.16274   0.18569   0.19475   0.20398   0.20928
 Alpha virt. eigenvalues --    0.20930   0.22538   0.23120   0.23688   0.26170
 Alpha virt. eigenvalues --    0.27291   0.27586   0.29169   0.29580   0.30631
 Alpha virt. eigenvalues --    0.32449   0.34079   0.34473   0.37352   0.40396
 Alpha virt. eigenvalues --    0.42740   0.43570   0.44607   0.45609   0.48903
 Alpha virt. eigenvalues --    0.50162   0.51803   0.53648   0.54564   0.54968
 Alpha virt. eigenvalues --    0.55229   0.56738   0.58495   0.59266   0.61920
 Alpha virt. eigenvalues --    0.63130   0.63637   0.65017   0.66094   0.66672
 Alpha virt. eigenvalues --    0.68430   0.70589   0.74181   0.77241   0.77811
 Alpha virt. eigenvalues --    0.80354   0.82812   0.85021   0.85385   0.88988
 Alpha virt. eigenvalues --    0.91373   0.91376   0.93011   0.98431   0.98888
 Alpha virt. eigenvalues --    1.02173   1.03852   1.07226   1.09199   1.11116
 Alpha virt. eigenvalues --    1.11569   1.13019   1.13534   1.14657   1.17410
 Alpha virt. eigenvalues --    1.18078   1.18689   1.19677   1.22854   1.24317
 Alpha virt. eigenvalues --    1.26998   1.27913   1.28808   1.31556   1.33641
 Alpha virt. eigenvalues --    1.35246   1.36025   1.39143   1.42166   1.42512
 Alpha virt. eigenvalues --    1.44747   1.45653   1.47153   1.48523   1.49087
 Alpha virt. eigenvalues --    1.52556   1.56746   1.58418   1.60913   1.66018
 Alpha virt. eigenvalues --    1.66304   1.72821   1.74630   1.78712   1.84329
 Alpha virt. eigenvalues --    1.89110   1.93337   2.03516   2.16719   2.17673
 Alpha virt. eigenvalues --    2.29985   2.36678   2.39148   2.40530   2.46161
 Alpha virt. eigenvalues --    2.51524   2.54543   2.58097   2.60445   2.66495
 Alpha virt. eigenvalues --    2.68002   2.74755   2.77065   2.79468   2.79797
 Alpha virt. eigenvalues --    2.83855   2.85692   2.93277   2.95477   2.96449
 Alpha virt. eigenvalues --    2.98877   2.99388   3.06170   3.07177   3.10083
 Alpha virt. eigenvalues --    3.12992   3.13624   3.14379   3.17640   3.18669
 Alpha virt. eigenvalues --    3.18832   3.19635   3.21251   3.24143   3.26971
 Alpha virt. eigenvalues --    3.30438   3.30848   3.37111   3.40352   3.40513
 Alpha virt. eigenvalues --    3.42154   3.45803   3.49490   3.50124   3.51350
 Alpha virt. eigenvalues --    3.52863   3.53053   3.55903   3.57433   3.60891
 Alpha virt. eigenvalues --    3.67251   3.68899   3.72513   3.75781   3.78455
 Alpha virt. eigenvalues --    3.84556   3.87567   3.88514   3.90008   3.90331
 Alpha virt. eigenvalues --    3.92681   3.98997   4.01326   4.07949   4.09390
 Alpha virt. eigenvalues --    4.12804   4.15165   4.15825   4.17861   4.21601
 Alpha virt. eigenvalues --    4.25047   4.29366   4.31197   4.31791   4.33966
 Alpha virt. eigenvalues --    4.36513   4.39039   4.40571   4.43094   4.47813
 Alpha virt. eigenvalues --    4.50144   4.52803   4.64383   4.83778   4.93338
 Alpha virt. eigenvalues --    5.04063   5.08519   5.11623   5.14298   5.20275
 Alpha virt. eigenvalues --    5.23814   5.26645   5.32011   5.39279   5.43542
 Alpha virt. eigenvalues --    5.45514   5.54055   5.55400   5.56705   5.58404
 Alpha virt. eigenvalues --    5.58821   5.63786   5.73034   5.74890   5.80634
 Alpha virt. eigenvalues --    5.97989   6.11241   6.33976   6.47661   6.70730
 Alpha virt. eigenvalues --    6.82216   6.95226   7.09978   7.11305   7.17352
 Alpha virt. eigenvalues --    7.18994   7.25007   7.30429   7.55524   7.67044
 Alpha virt. eigenvalues --    7.78891   7.82597  24.25967  24.44411  24.48782
 Alpha virt. eigenvalues --   24.91060  50.17744  50.32203
  Beta  occ. eigenvalues --  -19.66409 -19.60603 -10.66479 -10.58613 -10.57175
  Beta  occ. eigenvalues --  -10.54269  -1.22988  -1.13270  -0.88207  -0.82565
  Beta  occ. eigenvalues --   -0.72728  -0.63674  -0.59023  -0.56293  -0.55652
  Beta  occ. eigenvalues --   -0.51004  -0.48601  -0.46395  -0.45558  -0.44647
  Beta  occ. eigenvalues --   -0.42936  -0.36599  -0.35536
  Beta virt. eigenvalues --   -0.06728   0.00968   0.02521   0.03688   0.04366
  Beta virt. eigenvalues --    0.05050   0.05753   0.06513   0.08199   0.08498
  Beta virt. eigenvalues --    0.08546   0.09798   0.10621   0.12134   0.13146
  Beta virt. eigenvalues --    0.14448   0.15812   0.18785   0.19468   0.20609
  Beta virt. eigenvalues --    0.20875   0.21518   0.22649   0.23230   0.24033
  Beta virt. eigenvalues --    0.26452   0.27155   0.27471   0.29105   0.30238
  Beta virt. eigenvalues --    0.31040   0.32730   0.34100   0.34813   0.37695
  Beta virt. eigenvalues --    0.40455   0.42868   0.43520   0.44620   0.46266
  Beta virt. eigenvalues --    0.49480   0.50467   0.52198   0.54169   0.55081
  Beta virt. eigenvalues --    0.55355   0.56519   0.56895   0.58762   0.59486
  Beta virt. eigenvalues --    0.61927   0.63730   0.64095   0.65576   0.66201
  Beta virt. eigenvalues --    0.67142   0.68732   0.70733   0.73589   0.77146
  Beta virt. eigenvalues --    0.77863   0.80148   0.82645   0.84722   0.85483
  Beta virt. eigenvalues --    0.89208   0.90986   0.91551   0.92917   0.97462
  Beta virt. eigenvalues --    0.98731   1.02236   1.03966   1.07359   1.09254
  Beta virt. eigenvalues --    1.10966   1.11553   1.13010   1.14041   1.14573
  Beta virt. eigenvalues --    1.17367   1.18478   1.18713   1.19904   1.22904
  Beta virt. eigenvalues --    1.24349   1.27237   1.28606   1.29433   1.31495
  Beta virt. eigenvalues --    1.33840   1.35405   1.36346   1.39537   1.42204
  Beta virt. eigenvalues --    1.42639   1.44873   1.45589   1.47226   1.48959
  Beta virt. eigenvalues --    1.49134   1.53652   1.56808   1.59076   1.61014
  Beta virt. eigenvalues --    1.66435   1.66602   1.73538   1.74936   1.78818
  Beta virt. eigenvalues --    1.84561   1.89601   1.93577   2.03924   2.17580
  Beta virt. eigenvalues --    2.18131   2.30318   2.37020   2.39246   2.41411
  Beta virt. eigenvalues --    2.46617   2.52070   2.55050   2.58202   2.61682
  Beta virt. eigenvalues --    2.68849   2.71203   2.75154   2.80520   2.81696
  Beta virt. eigenvalues --    2.83925   2.85347   2.87879   2.95081   2.96517
  Beta virt. eigenvalues --    2.97004   3.00459   3.00623   3.06323   3.08540
  Beta virt. eigenvalues --    3.10165   3.13521   3.14682   3.15099   3.18173
  Beta virt. eigenvalues --    3.19500   3.20232   3.20756   3.22654   3.27215
  Beta virt. eigenvalues --    3.28420   3.32426   3.33008   3.38538   3.41002
  Beta virt. eigenvalues --    3.41667   3.43199   3.46552   3.50491   3.51464
  Beta virt. eigenvalues --    3.52351   3.54449   3.54993   3.57838   3.58757
  Beta virt. eigenvalues --    3.61387   3.69503   3.69915   3.73909   3.76379
  Beta virt. eigenvalues --    3.79510   3.85589   3.87559   3.88944   3.90491
  Beta virt. eigenvalues --    3.91361   3.92829   3.99726   4.01668   4.09969
  Beta virt. eigenvalues --    4.10266   4.13130   4.16805   4.17838   4.19766
  Beta virt. eigenvalues --    4.22214   4.26808   4.29942   4.31479   4.32861
  Beta virt. eigenvalues --    4.35717   4.39166   4.39949   4.42080   4.43320
  Beta virt. eigenvalues --    4.49503   4.51914   4.54530   4.68722   4.88328
  Beta virt. eigenvalues --    4.93594   5.06773   5.09186   5.12579   5.14687
  Beta virt. eigenvalues --    5.21252   5.24168   5.27372   5.34302   5.39624
  Beta virt. eigenvalues --    5.46186   5.46732   5.54441   5.55681   5.56590
  Beta virt. eigenvalues --    5.58019   5.59984   5.65218   5.74000   5.75004
  Beta virt. eigenvalues --    5.82698   5.98354   6.11569   6.34795   6.47771
  Beta virt. eigenvalues --    6.71147   6.84457   6.97157   7.10872   7.11828
  Beta virt. eigenvalues --    7.17817   7.20078   7.25529   7.31470   7.55974
  Beta virt. eigenvalues --    7.67822   7.78989   7.82738  24.26955  24.44395
  Beta virt. eigenvalues --   24.49309  24.91348  50.17655  50.31823
          Condensed to atoms (all electrons):
               1          2          3          4          5          6
     1  O    8.225865  -0.084512   0.012412   0.137641  -0.203692   0.212894
     2  O   -0.084512   8.224375  -0.006503  -0.042237  -0.030852   0.364402
     3  C    0.012412  -0.006503   5.053315  -0.013264   0.273837  -0.081615
     4  C    0.137641  -0.042237  -0.013264   4.988051  -0.117029  -0.057398
     5  C   -0.203692  -0.030852   0.273837  -0.117029   6.016977  -0.134281
     6  C    0.212894   0.364402  -0.081615  -0.057398  -0.134281   5.417322
     7  H   -0.000321   0.000853   0.411687   0.000123  -0.032523  -0.009435
     8  H    0.000228   0.000434   0.429018  -0.000885  -0.063255   0.015004
     9  H   -0.000321   0.000853   0.411687   0.000123  -0.032524  -0.009434
    10  H   -0.059365   0.003525   0.000397   0.419786   0.006136   0.014123
    11  H   -0.036126  -0.004274  -0.000762   0.431481  -0.002934   0.003423
    12  H   -0.036125  -0.004274  -0.000762   0.431481  -0.002934   0.003423
    13  H    0.003163   0.003615  -0.017238   0.004287   0.347122   0.019142
               7          8          9         10         11         12
     1  O   -0.000321   0.000228  -0.000321  -0.059365  -0.036126  -0.036125
     2  O    0.000853   0.000434   0.000853   0.003525  -0.004274  -0.004274
     3  C    0.411687   0.429018   0.411687   0.000397  -0.000762  -0.000762
     4  C    0.000123  -0.000885   0.000123   0.419786   0.431481   0.431481
     5  C   -0.032523  -0.063255  -0.032524   0.006136  -0.002934  -0.002934
     6  C   -0.009435   0.015004  -0.009434   0.014123   0.003423   0.003423
     7  H    0.565044  -0.023843  -0.042241  -0.000001  -0.000006   0.000004
     8  H   -0.023843   0.496843  -0.023843   0.000004  -0.000006  -0.000006
     9  H   -0.042241  -0.023843   0.565044  -0.000001   0.000004  -0.000006
    10  H   -0.000001   0.000004  -0.000001   0.534425  -0.025073  -0.025073
    11  H   -0.000006  -0.000006   0.000004  -0.025073   0.534433  -0.038141
    12  H    0.000004  -0.000006  -0.000006  -0.025073  -0.038141   0.534433
    13  H   -0.002365   0.003142  -0.002365  -0.000049  -0.000007  -0.000007
              13
     1  O    0.003163
     2  O    0.003615
     3  C   -0.017238
     4  C    0.004287
     5  C    0.347122
     6  C    0.019142
     7  H   -0.002365
     8  H    0.003142
     9  H   -0.002365
    10  H   -0.000049
    11  H   -0.000007
    12  H   -0.000007
    13  H    0.448786
          Atomic-Atomic Spin Densities.
               1          2          3          4          5          6
     1  O    0.035586   0.009130   0.002966  -0.002440  -0.030151   0.011333
     2  O    0.009130   0.197047   0.005953  -0.002052  -0.030364  -0.020603
     3  C    0.002966   0.005953  -0.013534   0.000861  -0.066500  -0.006420
     4  C   -0.002440  -0.002052   0.000861  -0.002647  -0.005843   0.007222
     5  C   -0.030151  -0.030364  -0.066500  -0.005843   1.036978   0.039472
     6  C    0.011333  -0.020603  -0.006420   0.007222   0.039472  -0.101647
     7  H    0.000090   0.000548   0.023245  -0.000069  -0.031163   0.000442
     8  H   -0.000053   0.000136  -0.004390   0.000060   0.002063   0.000806
     9  H    0.000090   0.000548   0.023245  -0.000069  -0.031163   0.000443
    10  H    0.000234  -0.000048  -0.000048   0.000131  -0.000019  -0.000357
    11  H   -0.000587  -0.000810  -0.000011   0.000490   0.000400   0.000172
    12  H   -0.000587  -0.000810  -0.000011   0.000490   0.000400   0.000172
    13  H   -0.000290   0.000209   0.002517   0.000341  -0.012884   0.011278
               7          8          9         10         11         12
     1  O    0.000090  -0.000053   0.000090   0.000234  -0.000587  -0.000587
     2  O    0.000548   0.000136   0.000548  -0.000048  -0.000810  -0.000810
     3  C    0.023245  -0.004390   0.023245  -0.000048  -0.000011  -0.000011
     4  C   -0.000069   0.000060  -0.000069   0.000131   0.000490   0.000490
     5  C   -0.031163   0.002063  -0.031163  -0.000019   0.000400   0.000400
     6  C    0.000442   0.000806   0.000443  -0.000357   0.000172   0.000172
     7  H    0.057068  -0.000044  -0.015824   0.000000  -0.000006   0.000003
     8  H   -0.000044   0.004524  -0.000044  -0.000000   0.000000   0.000000
     9  H   -0.015824  -0.000044   0.057068   0.000000   0.000003  -0.000006
    10  H    0.000000  -0.000000   0.000000   0.000072   0.000037   0.000037
    11  H   -0.000006   0.000000   0.000003   0.000037   0.002847  -0.000635
    12  H    0.000003   0.000000  -0.000006   0.000037  -0.000635   0.002847
    13  H    0.000248  -0.000203   0.000248  -0.000005   0.000007   0.000007
              13
     1  O   -0.000290
     2  O    0.000209
     3  C    0.002517
     4  C    0.000341
     5  C   -0.012884
     6  C    0.011278
     7  H    0.000248
     8  H   -0.000203
     9  H    0.000248
    10  H   -0.000005
    11  H    0.000007
    12  H    0.000007
    13  H   -0.039342
 Mulliken charges and spin densities:
               1          2
     1  O   -0.171741   0.025320
     2  O   -0.425404   0.158882
     3  C   -0.472208  -0.032128
     4  C   -0.182158  -0.003524
     5  C   -0.024049   0.871226
     6  C    0.242431  -0.057688
     7  H    0.133025   0.034538
     8  H    0.167165   0.002856
     9  H    0.133025   0.034538
    10  H    0.131165   0.000036
    11  H    0.137988   0.001907
    12  H    0.137988   0.001907
    13  H    0.192774  -0.037869
 Sum of Mulliken charges =  -0.00000   1.00000
 Mulliken charges and spin densities with hydrogens summed into heavy atoms:
               1          2
     1  O   -0.171741   0.025320
     2  O   -0.425404   0.158882
     3  C   -0.038994   0.039803
     4  C    0.224984   0.000327
     5  C    0.168725   0.833357
     6  C    0.242431  -0.057688
 APT charges:
               1
     1  O   -0.052738
     2  O   -0.428795
     3  C   -1.341371
     4  C   -1.229385
     5  C   -0.277605
     6  C    0.333440
     7  H    0.497063
     8  H    0.281113
     9  H    0.497065
    10  H    0.573110
    11  H    0.355533
    12  H    0.355533
    13  H    0.437037
 Sum of APT charges =  -0.00000
 APT charges with hydrogens summed into heavy atoms:
               1
     1  O   -0.052738
     2  O   -0.428795
     3  C   -0.066129
     4  C    0.054790
     5  C    0.159431
     6  C    0.333440
 Electronic spatial extent (au):  <R**2>=            675.7493
 Charge=             -0.0000 electrons
 Dipole moment (field-independent basis, Debye):
    X=             -0.3514    Y=             -1.7429    Z=              0.0000  Tot=              1.7779
 Quadrupole moment (field-independent basis, Debye-Ang):
   XX=            -28.0433   YY=            -40.3362   ZZ=            -36.2279
   XY=              1.3617   XZ=             -0.0000   YZ=              0.0000
 Traceless Quadrupole moment (field-independent basis, Debye-Ang):
   XX=              6.8259   YY=             -5.4671   ZZ=             -1.3588
   XY=              1.3617   XZ=             -0.0000   YZ=              0.0000
 Octapole moment (field-independent basis, Debye-Ang**2):
  XXX=             11.5442  YYY=             -5.0251  ZZZ=              0.0000  XYY=             -0.5162
  XXY=             -0.4497  XXZ=              0.0000  XZZ=              1.9049  YZZ=              1.3518
  YYZ=              0.0000  XYZ=              0.0000
 Hexadecapole moment (field-independent basis, Debye-Ang**3):
 XXXX=           -642.7377 YYYY=           -152.5604 ZZZZ=            -49.3328 XXXY=             -5.1038
 XXXZ=              0.0000 YYYX=             -2.0078 YYYZ=              0.0000 ZZZX=             -0.0000
 ZZZY=              0.0001 XXYY=           -138.0459 XXZZ=           -119.9713 YYZZ=            -34.3007
 XXYZ=              0.0001 YYXZ=              0.0000 ZZXY=              1.9517
 N-N= 2.357903069212D+02 E-N=-1.190077396514D+03  KE= 3.059455160366D+02
  Exact polarizability:   0.000   0.000   0.000   0.000   0.000   0.000
 Approx polarizability:  67.686   0.989  68.118  -0.000  -0.000  51.380
                          Isotropic Fermi Contact Couplings
        Atom                 a.u.       MegaHertz       Gauss      10(-4) cm-1
     1  O(17)              0.00137      -0.83264      -0.29711      -0.27774
     2  O(17)              0.03581     -21.70532      -7.74500      -7.24011
     3  C(13)             -0.02844     -31.96818     -11.40704     -10.66344
     4  C(13)             -0.00164      -1.83851      -0.65603      -0.61326
     5  C(13)              0.14019     157.60566      56.23762      52.57159
     6  C(13)             -0.04400     -49.46774     -17.65132     -16.50066
     7  H(1)               0.02091      93.44292      33.34276      31.16920
     8  H(1)               0.00020       0.89508       0.31939       0.29857
     9  H(1)               0.02090      93.44176      33.34234      31.16882
    10  H(1)              -0.00002      -0.09002      -0.03212      -0.03003
    11  H(1)               0.00130       5.81754       2.07584       1.94052
    12  H(1)               0.00130       5.81754       2.07584       1.94052
    13  H(1)              -0.01430     -63.93136     -22.81230     -21.32521
 --------------------------------------------------------
       Center         ----  Spin Dipole Couplings  ----
                      3XX-RR        3YY-RR        3ZZ-RR
 --------------------------------------------------------
     1   Atom       -0.068386     -0.086072      0.154458
     2   Atom       -0.329259     -0.332651      0.661910
     3   Atom       -0.003116     -0.014808      0.017924
     4   Atom        0.003950     -0.003248     -0.000702
     5   Atom       -0.482975     -0.476251      0.959225
     6   Atom        0.017909      0.019881     -0.037790
     7   Atom        0.012462     -0.007222     -0.005241
     8   Atom        0.001729      0.005737     -0.007466
     9   Atom        0.012463     -0.007222     -0.005241
    10   Atom        0.003802     -0.001837     -0.001964
    11   Atom        0.004127     -0.001796     -0.002331
    12   Atom        0.004127     -0.001796     -0.002331
    13   Atom       -0.062190      0.068722     -0.006533
 --------------------------------------------------------
                        XY            XZ            YZ
 --------------------------------------------------------
     1   Atom        0.003156     -0.000000      0.000000
     2   Atom       -0.005023     -0.000001      0.000001
     3   Atom       -0.005046     -0.000000      0.000000
     4   Atom        0.000043      0.000000      0.000000
     5   Atom        0.003556      0.000000      0.000003
     6   Atom        0.015855     -0.000000     -0.000000
     7   Atom       -0.003031     -0.009194      0.000029
     8   Atom       -0.010620      0.000000     -0.000000
     9   Atom       -0.003031      0.009194     -0.000029
    10   Atom       -0.000740      0.000000     -0.000000
    11   Atom        0.001086      0.002087      0.000546
    12   Atom        0.001086     -0.002087     -0.000546
    13   Atom       -0.003616      0.000000     -0.000000
 --------------------------------------------------------


 ---------------------------------------------------------------------------------
              Anisotropic Spin Dipole Couplings in Principal Axis System
 ---------------------------------------------------------------------------------

       Atom             a.u.   MegaHertz   Gauss  10(-4) cm-1        Axes

              Baa    -0.0866     6.268     2.236     2.091 -0.1706  0.9853 -0.0000
     1 O(17)  Bbb    -0.0678     4.909     1.752     1.637  0.9853  0.1706 -0.0000
              Bcc     0.1545   -11.176    -3.988    -3.728 -0.0000  0.0000  1.0000
 
              Baa    -0.3363    24.331     8.682     8.116  0.5831  0.8124 -0.0000
     2 O(17)  Bbb    -0.3257    23.564     8.408     7.860  0.8124 -0.5831  0.0000
              Bcc     0.6619   -47.895   -17.090   -15.976 -0.0000  0.0000  1.0000
 
              Baa    -0.0167    -2.239    -0.799    -0.747  0.3485  0.9373 -0.0000
     3 C(13)  Bbb    -0.0012    -0.166    -0.059    -0.055  0.9373 -0.3485  0.0000
              Bcc     0.0179     2.405     0.858     0.802 -0.0000  0.0000  1.0000
 
              Baa    -0.0032    -0.436    -0.156    -0.145 -0.0059  1.0000 -0.0000
     4 C(13)  Bbb    -0.0007    -0.094    -0.034    -0.031 -0.0000  0.0000  1.0000
              Bcc     0.0040     0.530     0.189     0.177  1.0000  0.0059  0.0000
 
              Baa    -0.4845   -65.016   -23.199   -21.687  0.9184 -0.3956  0.0000
     5 C(13)  Bbb    -0.4747   -63.703   -22.731   -21.249  0.3956  0.9184 -0.0000
              Bcc     0.9592   128.719    45.930    42.936  0.0000  0.0000  1.0000
 
              Baa    -0.0378    -5.071    -1.809    -1.692  0.0000  0.0000  1.0000
     6 C(13)  Bbb     0.0030     0.404     0.144     0.135  0.7287 -0.6848  0.0000
              Bcc     0.0348     4.667     1.665     1.557  0.6848  0.7287 -0.0000
 
              Baa    -0.0098    -5.204    -1.857    -1.736  0.3923  0.4606  0.7962
     7 H(1)   Bbb    -0.0069    -3.707    -1.323    -1.237 -0.0841  0.8799 -0.4676
              Bcc     0.0167     8.911     3.180     2.972  0.9160 -0.1165 -0.3839
 
              Baa    -0.0075    -3.983    -1.421    -1.329 -0.0000 -0.0000  1.0000
     8 H(1)   Bbb    -0.0071    -3.774    -1.347    -1.259  0.7699  0.6382  0.0000
              Bcc     0.0145     7.758     2.768     2.588 -0.6382  0.7699 -0.0000
 
              Baa    -0.0098    -5.204    -1.857    -1.736 -0.3923 -0.4606  0.7962
     9 H(1)   Bbb    -0.0069    -3.707    -1.323    -1.237 -0.0841  0.8799  0.4676
              Bcc     0.0167     8.911     3.180     2.972  0.9160 -0.1165  0.3839
 
              Baa    -0.0020    -1.048    -0.374    -0.350  0.0000  0.0000  1.0000
    10 H(1)   Bbb    -0.0019    -1.031    -0.368    -0.344  0.1280  0.9918 -0.0000
              Bcc     0.0039     2.079     0.742     0.694  0.9918 -0.1280  0.0000
 
              Baa    -0.0030    -1.597    -0.570    -0.533 -0.2454 -0.2094  0.9465
    11 H(1)   Bbb    -0.0020    -1.047    -0.373    -0.349 -0.2246  0.9621  0.1546
              Bcc     0.0050     2.644     0.943     0.882  0.9430  0.1746  0.2832
 
              Baa    -0.0030    -1.597    -0.570    -0.533  0.2454  0.2094  0.9465
    12 H(1)   Bbb    -0.0020    -1.047    -0.373    -0.349 -0.2246  0.9621 -0.1546
              Bcc     0.0050     2.644     0.943     0.882  0.9430  0.1746 -0.2832
 
              Baa    -0.0623   -33.235   -11.859   -11.086  0.9996  0.0276 -0.0000
    13 H(1)   Bbb    -0.0065    -3.485    -1.244    -1.163  0.0000  0.0000  1.0000
              Bcc     0.0688    36.720    13.103    12.249 -0.0276  0.9996 -0.0000
 

 ---------------------------------------------------------------------------------

 No NMR shielding tensors so no spin-rotation constants.
 Leave Link  601 at Tue Apr 23 21:59:17 2019, MaxMem=   671088640 cpu:               9.6 elap:               0.5
 (Enter /shared/centos7/gaussian/g16/l701.exe)
 ... and contract with generalized density number  0.
 Compute integral second derivatives.
 Leave Link  701 at Tue Apr 23 21:59:17 2019, MaxMem=   671088640 cpu:               6.8 elap:               0.4
 (Enter /shared/centos7/gaussian/g16/l702.exe)
 L702 exits ... SP integral derivatives will be done elsewhere.
 Leave Link  702 at Tue Apr 23 21:59:17 2019, MaxMem=   671088640 cpu:               0.3 elap:               0.0
 (Enter /shared/centos7/gaussian/g16/l703.exe)
 Integral derivatives from FoFJK, PRISM(SPDF).
 Compute integral second derivatives, UseDBF=F ICtDFT=           0.
 Calling FoFJK, ICntrl=    100147 FMM=F ISym2X=0 I1Cent= 0 IOpClX= 1 NMat=1 NMatS=1 NMatT=0.
 FoFJK:  IHMeth= 1 ICntrl=  100147 DoSepK=F KAlg= 0 I1Cent=           0 FoldK=F
 IRaf=         0 NMat=       1 IRICut=       1 DoRegI=T DoRafI=F ISym2E= 0 IDoP0=0 IntGTp=1.
 FoFCou: FMM=F IPFlag=           0 FMFlag=      100000 FMFlg1=         800
         NFxFlg=           0 DoJE=F BraDBF=F KetDBF=F FulRan=T
         wScrn=  0.000000 ICntrl=    100147 IOpCl=  1 I1Cent=           0 NGrid=           0
         NMat0=    1 NMatS0=      1 NMatT0=    0 NMatD0=    1 NMtDS0=    0 NMtDT0=    0
 Symmetry not used in FoFCou.
 Leave Link  703 at Tue Apr 23 22:00:40 2019, MaxMem=   671088640 cpu:            1651.5 elap:              82.6
 (Enter /shared/centos7/gaussian/g16/l716.exe)
 Dipole        =-1.38256835D-01-6.85695497D-01 1.37662279D-06
 Polarizability= 0.00000000D+00 0.00000000D+00 0.00000000D+00
                 0.00000000D+00 0.00000000D+00 0.00000000D+00
 ***** Axes restored to original set *****
 -------------------------------------------------------------------
 Center     Atomic                   Forces (Hartrees/Bohr)
 Number     Number              X              Y              Z
 -------------------------------------------------------------------
      1        8           0.000000150    0.000000372    0.000000001
      2        8          -0.000000366    0.000000038   -0.000000005
      3        6          -0.000000032   -0.000000641   -0.000000005
      4        6          -0.000000000    0.000000700    0.000000005
      5        6           0.000000175   -0.000000293    0.000000007
      6        6          -0.000000056    0.000000028    0.000000002
      7        1           0.000000057   -0.000000818   -0.000000005
      8        1          -0.000000323   -0.000000637    0.000000003
      9        1           0.000000062   -0.000000811    0.000000008
     10        1           0.000000222    0.000000885    0.000000001
     11        1          -0.000000176    0.000000721    0.000000005
     12        1          -0.000000176    0.000000722   -0.000000011
     13        1           0.000000463   -0.000000267   -0.000000005
 -------------------------------------------------------------------
 Cartesian Forces:  Max     0.000000885 RMS     0.000000372
 Force constants in Cartesian coordinates: 
                1             2             3             4             5 
      1  0.547091D+00
      2 -0.180602D-01  0.367067D+00
      3  0.000000D+00  0.000000D+00  0.784188D-01
      4  0.210474D-02  0.572542D-01  0.000000D+00  0.118198D+00
      5  0.512352D-01 -0.787369D-01  0.000000D+00  0.418835D-01  0.816583D+00
      6  0.000000D+00  0.000000D+00  0.272326D-01  0.000000D+00  0.000000D+00
      7 -0.341337D-02 -0.126810D-02  0.000000D+00 -0.351098D-03  0.276610D-02
      8 -0.646816D-02 -0.939960D-03  0.000000D+00 -0.767531D-03 -0.270657D-02
      9  0.000000D+00  0.000000D+00  0.242451D-02  0.000000D+00  0.000000D+00
     10 -0.185036D+00 -0.508973D-01  0.000000D+00  0.295204D-02 -0.143114D-01
     11 -0.800826D-01 -0.132495D+00  0.000000D+00  0.560162D-02 -0.627823D-02
     12  0.000000D+00  0.000000D+00 -0.663824D-01  0.000000D+00  0.000000D+00
     13 -0.634357D-01 -0.514004D-02  0.000000D+00  0.329314D-02 -0.358185D-01
     14  0.176267D-01  0.152532D-01  0.000000D+00 -0.399376D-01 -0.670784D-01
     15  0.000000D+00  0.000000D+00  0.100552D-01  0.000000D+00  0.000000D+00
     16 -0.218492D+00  0.465459D-01  0.000000D+00 -0.120786D+00 -0.424873D-01
     17  0.805620D-01 -0.162418D+00  0.000000D+00 -0.591346D-01 -0.669857D+00
     18  0.000000D+00  0.000000D+00 -0.643520D-01  0.000000D+00  0.000000D+00
     19 -0.205224D-02 -0.203425D-03 -0.525921D-03 -0.117502D-03 -0.882599D-03
     20  0.101287D-02  0.411284D-04  0.352335D-03 -0.592466D-03  0.176472D-02
     21  0.183914D-03 -0.783901D-04 -0.861504D-04 -0.276044D-04  0.127456D-03
     22  0.132343D-02 -0.101335D-02  0.000000D+00 -0.299470D-03 -0.231228D-02
     23  0.371089D-03  0.119448D-03  0.000000D+00 -0.201795D-02  0.178245D-02
     24  0.000000D+00  0.000000D+00  0.127764D-03  0.000000D+00  0.000000D+00
     25 -0.205225D-02 -0.203431D-03  0.525920D-03 -0.117503D-03 -0.882576D-03
     26  0.101287D-02  0.411380D-04 -0.352336D-03 -0.592485D-03  0.176473D-02
     27 -0.183916D-03  0.783922D-04 -0.861472D-04  0.276158D-04 -0.127468D-03
     28 -0.371610D-01  0.201728D-01  0.000000D+00  0.135463D-02  0.965441D-03
     29 -0.214703D-01  0.148621D-01  0.000000D+00  0.225708D-02  0.183228D-02
     30  0.000000D+00  0.000000D+00  0.759180D-04  0.000000D+00  0.000000D+00
     31 -0.188962D-01 -0.239301D-01 -0.283528D-01  0.135533D-05  0.281928D-02
     32 -0.131949D-01 -0.121493D-01 -0.117108D-01 -0.228013D-03  0.739052D-03
     33 -0.520819D-02  0.139520D-02  0.690535D-02  0.131535D-02  0.125682D-02
     34 -0.188962D-01 -0.239301D-01  0.283528D-01  0.135112D-05  0.281928D-02
     35 -0.131949D-01 -0.121493D-01  0.117109D-01 -0.228010D-03  0.739048D-03
     36  0.520822D-02 -0.139516D-02  0.690532D-02 -0.131535D-02 -0.125682D-02
     37 -0.108411D-02  0.673072D-03  0.000000D+00 -0.623409D-02 -0.579407D-02
     38  0.650289D-03  0.150378D-02  0.000000D+00 -0.349766D-02 -0.548401D-03
     39  0.000000D+00  0.000000D+00 -0.123877D-02  0.000000D+00  0.000000D+00
                6             7             8             9            10 
      6  0.330819D-01
      7  0.000000D+00  0.508799D+00
      8  0.000000D+00  0.284550D-01  0.577101D+00
      9 -0.623720D-03  0.000000D+00  0.000000D+00  0.507127D+00
     10  0.000000D+00  0.492121D-03 -0.368556D-03  0.000000D+00  0.520623D+00
     11  0.000000D+00  0.959425D-03  0.974118D-03  0.000000D+00 -0.731581D-01
     12 -0.618269D-02  0.000000D+00  0.000000D+00  0.472199D-03  0.000000D+00
     13  0.000000D+00 -0.210477D+00  0.733747D-01  0.000000D+00  0.252687D-02
     14  0.000000D+00  0.631225D-01 -0.131756D+00  0.000000D+00  0.491016D-02
     15  0.186488D-01  0.000000D+00  0.000000D+00 -0.483090D-01  0.000000D+00
     16  0.000000D+00 -0.206592D-01 -0.552395D-02  0.000000D+00 -0.691384D-01
     17  0.000000D+00  0.905512D-02  0.158358D-01  0.000000D+00  0.237811D-02
     18 -0.747987D-01  0.000000D+00  0.000000D+00  0.627417D-02  0.000000D+00
     19 -0.678684D-04 -0.112750D+00 -0.381508D-01  0.117231D+00  0.152871D-03
     20 -0.402251D-03 -0.338082D-01 -0.659863D-01  0.548708D-01 -0.982801D-04
     21  0.394582D-04  0.112277D+00  0.580786D-01 -0.210197D+00 -0.118178D-03
     22  0.000000D+00 -0.528344D-01 -0.384072D-01  0.000000D+00 -0.157450D-03
     23  0.000000D+00 -0.335242D-01 -0.320344D+00  0.171129D-05 -0.136506D-03
     24 -0.911680D-03  0.000000D+00  0.171565D-05 -0.484740D-01  0.000000D+00
     25  0.678687D-04 -0.112752D+00 -0.381525D-01 -0.117231D+00  0.152869D-03
     26  0.402241D-03 -0.338099D-01 -0.659878D-01 -0.548725D-01 -0.982768D-04
     27  0.394564D-04 -0.112277D+00 -0.580802D-01 -0.210194D+00  0.118180D-03
     28  0.000000D+00 -0.265411D-03 -0.378198D-03  0.000000D+00 -0.172980D+00
     29  0.000000D+00 -0.935757D-04 -0.165397D-03  0.000000D+00  0.148618D+00
     30  0.726883D-03  0.000000D+00  0.000000D+00 -0.619243D-04  0.000000D+00
     31 -0.126453D-03 -0.560012D-04 -0.406101D-04  0.348000D-04 -0.499069D-01
     32  0.320578D-03 -0.280423D-04 -0.283216D-04  0.349087D-04 -0.817298D-02
     33  0.350389D-03  0.248516D-05 -0.187375D-04  0.000000D+00 -0.137489D-01
     34  0.126447D-03 -0.560009D-04 -0.406096D-04 -0.347982D-04 -0.499069D-01
     35 -0.320582D-03 -0.280421D-04 -0.283214D-04 -0.349082D-04 -0.817293D-02
     36  0.350391D-03 -0.248513D-05  0.187375D-04  0.000000D+00  0.137489D-01
     37  0.000000D+00  0.432329D-02  0.264684D-01  0.000000D+00  0.226092D-03
     38  0.000000D+00 -0.179795D-02 -0.596826D-02  0.000000D+00 -0.492283D-03
     39  0.204692D-02  0.000000D+00  0.000000D+00  0.156326D-02  0.000000D+00
               11            12            13            14            15 
     11  0.589935D+00
     12  0.000000D+00  0.589960D+00
     13  0.536199D-02  0.000000D+00  0.586932D+00
     14 -0.228701D-02  0.000000D+00 -0.150453D-01  0.652333D+00
     15  0.000000D+00  0.388931D-02  0.000000D+00  0.000000D+00  0.963111D-01
     16  0.121516D-01  0.000000D+00 -0.215826D+00 -0.698914D-01  0.000000D+00
     17  0.229545D-01  0.000000D+00 -0.530532D-01 -0.113484D+00  0.000000D+00
     18  0.000000D+00  0.288060D-02  0.000000D+00  0.000000D+00 -0.625330D-01
     19  0.314481D-03 -0.103892D-03 -0.232663D-01 -0.746235D-02  0.196556D-01
     20 -0.857089D-04  0.370027D-04  0.861367D-02  0.596447D-02 -0.116657D-01
     21 -0.142679D-04  0.608781D-04  0.435631D-03 -0.217025D-02  0.261576D-02
     22 -0.214366D-03  0.000000D+00  0.472107D-02  0.334606D-01  0.000000D+00
     23 -0.100761D-04  0.000000D+00  0.150315D-02 -0.165714D-01  0.000000D+00
     24  0.000000D+00  0.563443D-04  0.000000D+00  0.000000D+00 -0.139506D-02
     25  0.314484D-03  0.103892D-03 -0.232664D-01 -0.746265D-02 -0.196555D-01
     26 -0.857101D-04 -0.370013D-04  0.861372D-02  0.596467D-02  0.116656D-01
     27  0.142674D-04  0.608772D-04 -0.435521D-03  0.217021D-02  0.261569D-02
     28  0.134937D+00  0.000000D+00 -0.118526D-02  0.108328D-02  0.000000D+00
     29 -0.203340D+00  0.000000D+00 -0.706294D-03  0.699701D-03  0.000000D+00
     30  0.000000D+00 -0.532180D-01  0.000000D+00  0.000000D+00  0.165707D-03
     31 -0.317779D-02 -0.615228D-02 -0.561614D-03 -0.147423D-03  0.883363D-03
     32 -0.134738D+00 -0.123935D+00 -0.640187D-03 -0.203974D-03 -0.474579D-04
     33 -0.125253D+00 -0.235686D+00 -0.340903D-03  0.781451D-04 -0.379185D-03
     34 -0.317774D-02  0.615222D-02 -0.561613D-03 -0.147425D-03 -0.883363D-03
     35 -0.134737D+00  0.123934D+00 -0.640186D-03 -0.203975D-03  0.474576D-04
     36  0.125253D+00 -0.235686D+00  0.340904D-03 -0.781454D-04 -0.379185D-03
     37  0.169605D-03  0.000000D+00 -0.588934D-01  0.198911D-01  0.000000D+00
     38  0.192712D-03  0.000000D+00  0.135765D-01 -0.348631D+00  0.000000D+00
     39  0.000000D+00 -0.225647D-03  0.000000D+00  0.000000D+00 -0.213061D-01
               16            17            18            19            20 
     16  0.628090D+00
     17  0.526512D-01  0.935734D+00
     18  0.000000D+00  0.000000D+00  0.190191D+00
     19 -0.104401D-04  0.398131D-02  0.949545D-03  0.130600D+00
     20 -0.142636D-02 -0.323481D-02 -0.214998D-04  0.388342D-01  0.648393D-01
     21 -0.123106D-02 -0.537333D-03 -0.138719D-02 -0.124262D+00 -0.625775D-01
     22 -0.284126D-04  0.359874D-02  0.000000D+00 -0.250996D-02 -0.160036D-01
     23 -0.208755D-02 -0.252260D-02  0.000000D+00 -0.745906D-03 -0.541583D-02
     24  0.000000D+00  0.000000D+00 -0.274942D-03  0.210497D-02  0.263982D-01
     25 -0.104803D-04  0.398130D-02 -0.949584D-03  0.946779D-02  0.407010D-02
     26 -0.142632D-02 -0.323483D-02  0.214775D-04  0.406997D-02  0.195589D-02
     27  0.123109D-02  0.537337D-03 -0.138718D-02 -0.140196D-01 -0.741235D-02
     28 -0.133631D-02 -0.687162D-02  0.000000D+00 -0.114910D-03  0.457628D-04
     29 -0.295230D-02 -0.470399D-02  0.000000D+00 -0.361318D-04  0.164039D-04
     30  0.000000D+00  0.000000D+00  0.322088D-03  0.556738D-05 -0.561890D-05
     31  0.421822D-02 -0.657832D-02 -0.126071D-02 -0.655096D-04  0.393277D-04
     32  0.365499D-02 -0.100047D-02  0.208318D-03 -0.540915D-04  0.161220D-04
     33  0.178068D-02 -0.268098D-02  0.351640D-03 -0.120241D-04  0.764999D-05
     34  0.421822D-02 -0.657832D-02  0.126072D-02 -0.322207D-04  0.367779D-04
     35  0.365499D-02 -0.100047D-02 -0.208315D-03 -0.217327D-04  0.542753D-05
     36 -0.178069D-02  0.268098D-02  0.351635D-03  0.198704D-05 -0.616537D-05
     37  0.976078D-02 -0.239918D-01  0.000000D+00  0.698311D-03 -0.723765D-03
     38  0.713651D-02 -0.130691D-01  0.000000D+00  0.357050D-03  0.119171D-03
     39  0.000000D+00  0.000000D+00  0.436191D-02 -0.956646D-03  0.425044D-03
               21            22            23            24            25 
     21  0.230732D+00
     22 -0.180561D-02  0.575847D-01
     23 -0.121801D-03  0.354269D-01  0.347767D+00
[...]
  Beta virt. eigenvalues --    1.17366   1.18476   1.18716   1.19908   1.22907
  Beta virt. eigenvalues --    1.24347   1.27236   1.28606   1.29432   1.31498
  Beta virt. eigenvalues --    1.33838   1.35405   1.36343   1.39541   1.42204
  Beta virt. eigenvalues --    1.42642   1.44870   1.45591   1.47228   1.48957
  Beta virt. eigenvalues --    1.49134   1.53650   1.56807   1.59075   1.61014
  Beta virt. eigenvalues --    1.66436   1.66602   1.73536   1.74941   1.78817
  Beta virt. eigenvalues --    1.84561   1.89603   1.93577   2.03923   2.17586
  Beta virt. eigenvalues --    2.18137   2.30319   2.37012   2.39247   2.41409
  Beta virt. eigenvalues --    2.46617   2.52076   2.55058   2.58206   2.61678
  Beta virt. eigenvalues --    2.68853   2.71208   2.75157   2.80520   2.81693
  Beta virt. eigenvalues --    2.83923   2.85339   2.87885   2.95079   2.96517
  Beta virt. eigenvalues --    2.97001   3.00461   3.00621   3.06322   3.08534
  Beta virt. eigenvalues --    3.10161   3.13517   3.14678   3.15097   3.18176
  Beta virt. eigenvalues --    3.19496   3.20226   3.20756   3.22651   3.27211
  Beta virt. eigenvalues --    3.28429   3.32430   3.33004   3.38535   3.41001
  Beta virt. eigenvalues --    3.41665   3.43189   3.46544   3.50490   3.51465
  Beta virt. eigenvalues --    3.52350   3.54459   3.54990   3.57829   3.58754
  Beta virt. eigenvalues --    3.61395   3.69502   3.69914   3.73916   3.76373
  Beta virt. eigenvalues --    3.79515   3.85590   3.87558   3.88936   3.90487
  Beta virt. eigenvalues --    3.91368   3.92820   3.99738   4.01679   4.09964
  Beta virt. eigenvalues --    4.10245   4.13131   4.16804   4.17825   4.19754
  Beta virt. eigenvalues --    4.22214   4.26817   4.29942   4.31481   4.32866
  Beta virt. eigenvalues --    4.35718   4.39180   4.39950   4.42081   4.43323
  Beta virt. eigenvalues --    4.49503   4.51922   4.54538   4.68711   4.88324
  Beta virt. eigenvalues --    4.93593   5.06777   5.09186   5.12579   5.14687
  Beta virt. eigenvalues --    5.21252   5.24167   5.27373   5.34312   5.39620
  Beta virt. eigenvalues --    5.46186   5.46725   5.54444   5.55679   5.56591
  Beta virt. eigenvalues --    5.58018   5.59988   5.65203   5.74003   5.75004
  Beta virt. eigenvalues --    5.82704   5.98349   6.11570   6.34794   6.47775
  Beta virt. eigenvalues --    6.71142   6.84457   6.97156   7.10880   7.11828
  Beta virt. eigenvalues --    7.17814   7.20078   7.25525   7.31469   7.55970
  Beta virt. eigenvalues --    7.67820   7.78992   7.82737  24.26962  24.44396
  Beta virt. eigenvalues --   24.49304  24.91348  50.17654  50.31822
          Condensed to atoms (all electrons):
               1          2          3          4          5          6
     1  O    8.225913  -0.084508   0.012412   0.137605  -0.203638   0.212825
     2  O   -0.084508   8.224352  -0.006508  -0.042248  -0.030731   0.364288
     3  C    0.012412  -0.006508   5.053491  -0.013269   0.273843  -0.081662
     4  C    0.137605  -0.042248  -0.013269   4.988075  -0.117059  -0.057348
     5  C   -0.203638  -0.030731   0.273843  -0.117059   6.016917  -0.134574
     6  C    0.212825   0.364288  -0.081662  -0.057348  -0.134574   5.417918
     7  H   -0.000321   0.000850   0.411714   0.000122  -0.032588  -0.009395
     8  H    0.000229   0.000457   0.428998  -0.000881  -0.063358   0.015073
     9  H   -0.000319   0.000853   0.411681   0.000123  -0.032445  -0.009482
    10  H   -0.059368   0.003526   0.000397   0.419797   0.006133   0.014116
    11  H   -0.036126  -0.004275  -0.000762   0.431479  -0.002936   0.003429
    12  H   -0.036128  -0.004275  -0.000762   0.431478  -0.002938   0.003433
    13  H    0.003158   0.003615  -0.017284   0.004289   0.347121   0.019150
               7          8          9         10         11         12
     1  O   -0.000321   0.000229  -0.000319  -0.059368  -0.036126  -0.036128
     2  O    0.000850   0.000457   0.000853   0.003526  -0.004275  -0.004275
     3  C    0.411714   0.428998   0.411681   0.000397  -0.000762  -0.000762
     4  C    0.000122  -0.000881   0.000123   0.419797   0.431479   0.431478
     5  C   -0.032588  -0.063358  -0.032445   0.006133  -0.002936  -0.002938
     6  C   -0.009395   0.015073  -0.009482   0.014116   0.003429   0.003433
     7  H    0.565069  -0.023815  -0.042288  -0.000001  -0.000006   0.000004
     8  H   -0.023815   0.496849  -0.023831   0.000004  -0.000006  -0.000006
     9  H   -0.042288  -0.023831   0.565031  -0.000001   0.000004  -0.000006
    10  H   -0.000001   0.000004  -0.000001   0.534427  -0.025072  -0.025073
    11  H   -0.000006  -0.000006   0.000004  -0.025072   0.534432  -0.038141
    12  H    0.000004  -0.000006  -0.000006  -0.025073  -0.038141   0.534435
    13  H   -0.002364   0.003147  -0.002363  -0.000049  -0.000007  -0.000007
              13
     1  O    0.003158
     2  O    0.003615
     3  C   -0.017284
     4  C    0.004289
     5  C    0.347121
     6  C    0.019150
     7  H   -0.002364
     8  H    0.003147
     9  H   -0.002363
    10  H   -0.000049
    11  H   -0.000007
    12  H   -0.000007
    13  H    0.448842
          Atomic-Atomic Spin Densities.
               1          2          3          4          5          6
     1  O    0.035595   0.009132   0.002968  -0.002442  -0.030153   0.011330
     2  O    0.009132   0.197076   0.005949  -0.002052  -0.030364  -0.020605
     3  C    0.002968   0.005949  -0.013570   0.000861  -0.066477  -0.006436
     4  C   -0.002442  -0.002052   0.000861  -0.002648  -0.005840   0.007223
     5  C   -0.030153  -0.030364  -0.066477  -0.005840   1.036886   0.039492
     6  C    0.011330  -0.020605  -0.006436   0.007223   0.039492  -0.101659
     7  H    0.000089   0.000546   0.023266  -0.000069  -0.031195   0.000456
     8  H   -0.000053   0.000136  -0.004380   0.000060   0.002052   0.000810
     9  H    0.000090   0.000548   0.023209  -0.000069  -0.031110   0.000430
    10  H    0.000235  -0.000048  -0.000048   0.000131  -0.000019  -0.000357
    11  H   -0.000585  -0.000810  -0.000011   0.000489   0.000401   0.000170
    12  H   -0.000589  -0.000810  -0.000012   0.000492   0.000399   0.000173
    13  H   -0.000290   0.000209   0.002523   0.000341  -0.012885   0.011277
               7          8          9         10         11         12
     1  O    0.000089  -0.000053   0.000090   0.000235  -0.000585  -0.000589
     2  O    0.000546   0.000136   0.000548  -0.000048  -0.000810  -0.000810
     3  C    0.023266  -0.004380   0.023209  -0.000048  -0.000011  -0.000012
     4  C   -0.000069   0.000060  -0.000069   0.000131   0.000489   0.000492
     5  C   -0.031195   0.002052  -0.031110  -0.000019   0.000401   0.000399
     6  C    0.000456   0.000810   0.000430  -0.000357   0.000170   0.000173
     7  H    0.057080  -0.000041  -0.015836   0.000000  -0.000006   0.000003
     8  H   -0.000041   0.004527  -0.000046  -0.000000   0.000000   0.000000
     9  H   -0.015836  -0.000046   0.057108   0.000000   0.000003  -0.000006
    10  H    0.000000  -0.000000   0.000000   0.000072   0.000038   0.000037
    11  H   -0.000006   0.000000   0.000003   0.000038   0.002847  -0.000635
    12  H    0.000003   0.000000  -0.000006   0.000037  -0.000635   0.002848
    13  H    0.000250  -0.000204   0.000247  -0.000005   0.000007   0.000007
              13
     1  O   -0.000290
     2  O    0.000209
     3  C    0.002523
     4  C    0.000341
     5  C   -0.012885
     6  C    0.011277
     7  H    0.000250
     8  H   -0.000204
     9  H    0.000247
    10  H   -0.000005
    11  H    0.000007
    12  H    0.000007
    13  H   -0.039347
 Mulliken charges and spin densities:
               1          2
     1  O   -0.171733   0.025328
     2  O   -0.425395   0.158906
     3  C   -0.472287  -0.032157
     4  C   -0.182164  -0.003523
     5  C   -0.023748   0.871189
     6  C    0.242228  -0.057695
     7  H    0.133021   0.034542
     8  H    0.167141   0.002860
     9  H    0.133043   0.034569
    10  H    0.131165   0.000036
    11  H    0.137987   0.001908
    12  H    0.137987   0.001908
    13  H    0.192753  -0.037871
 Sum of Mulliken charges =  -0.00000   1.00000
 Mulliken charges and spin densities with hydrogens summed into heavy atoms:
               1          2
     1  O   -0.171733   0.025328
     2  O   -0.425395   0.158906
     3  C   -0.039082   0.039814
     4  C    0.224976   0.000329
     5  C    0.169006   0.833318
     6  C    0.242228  -0.057695
 Electronic spatial extent (au):  <R**2>=            675.7922
 Charge=             -0.0000 electrons
 Dipole moment (field-independent basis, Debye):
    X=             -0.3522    Y=             -1.7433    Z=             -0.0006  Tot=              1.7785
 Quadrupole moment (field-independent basis, Debye-Ang):
   XX=            -28.0398   YY=            -40.3381   ZZ=            -36.2286
   XY=              1.3617   XZ=              0.0003   YZ=             -0.0010
 Traceless Quadrupole moment (field-independent basis, Debye-Ang):
   XX=              6.8290   YY=             -5.4692   ZZ=             -1.3598
   XY=              1.3617   XZ=              0.0003   YZ=             -0.0010
 Octapole moment (field-independent basis, Debye-Ang**2):
  XXX=             11.5288  YYY=             -5.0259  ZZZ=             -0.0012  XYY=             -0.5152
  XXY=             -0.4578  XXZ=             -0.0033  XZZ=              1.9070  YZZ=              1.3513
  YYZ=             -0.0008  XYZ=              0.0014
 Hexadecapole moment (field-independent basis, Debye-Ang**3):
 XXXX=           -642.7287 YYYY=           -152.5694 ZZZZ=            -49.3328 XXXY=             -5.0816
 XXXZ=              0.0033 YYYX=             -2.0096 YYYZ=             -0.0018 ZZZX=              0.0030
 ZZZY=              0.0012 XXYY=           -138.0562 XXZZ=           -119.9842 YYZZ=            -34.3000
 XXYZ=             -0.0011 YYXZ=             -0.0003 ZZXY=              1.9532
 N-N= 2.357869086689D+02 E-N=-1.190070382780D+03  KE= 3.059454710943D+02
                          Isotropic Fermi Contact Couplings
        Atom                 a.u.       MegaHertz       Gauss      10(-4) cm-1
     1  O(17)              0.00138      -0.83510      -0.29799      -0.27856
     2  O(17)              0.03581     -21.70902      -7.74632      -7.24135
     3  C(13)             -0.02844     -31.97450     -11.40930     -10.66555
     4  C(13)             -0.00164      -1.83887      -0.65615      -0.61338
     5  C(13)              0.14018     157.59341      56.23325      52.56750
     6  C(13)             -0.04400     -49.46877     -17.65169     -16.50100
     7  H(1)               0.02091      93.45993      33.34883      31.17488
     8  H(1)               0.00020       0.89852       0.32061       0.29971
     9  H(1)               0.02091      93.47804      33.35529      31.18092
    10  H(1)              -0.00002      -0.08996      -0.03210      -0.03001
    11  H(1)               0.00130       5.81927       2.07646       1.94110
    12  H(1)               0.00130       5.81914       2.07642       1.94106
    13  H(1)              -0.01430     -63.92695     -22.81073     -21.32374
 --------------------------------------------------------
       Center         ----  Spin Dipole Couplings  ----
                      3XX-RR        3YY-RR        3ZZ-RR
 --------------------------------------------------------
     1   Atom       -0.068403     -0.086094      0.154497
     2   Atom       -0.329310     -0.332704      0.662015
     3   Atom       -0.003089     -0.014815      0.017904
     4   Atom        0.003950     -0.003248     -0.000702
     5   Atom       -0.482961     -0.476214      0.959176
     6   Atom        0.017911      0.019884     -0.037796
     7   Atom        0.012472     -0.007223     -0.005249
     8   Atom        0.001736      0.005734     -0.007469
     9   Atom        0.012454     -0.007219     -0.005235
    10   Atom        0.003802     -0.001837     -0.001964
    11   Atom        0.004128     -0.001797     -0.002332
    12   Atom        0.004127     -0.001796     -0.002330
    13   Atom       -0.062185      0.068720     -0.006534
 --------------------------------------------------------
                        XY            XZ            YZ
 --------------------------------------------------------
     1   Atom        0.003153      0.000119      0.000005
     2   Atom       -0.005024      0.000051     -0.000072
     3   Atom       -0.005032     -0.000001     -0.000003
     4   Atom        0.000042      0.000003      0.000001
     5   Atom        0.003548     -0.000339      0.000322
     6   Atom        0.015861      0.000023      0.000023
     7   Atom       -0.003024     -0.009185      0.000024
     8   Atom       -0.010627      0.000005     -0.000009
     9   Atom       -0.003020      0.009194     -0.000030
    10   Atom       -0.000741     -0.000001      0.000000
    11   Atom        0.001085      0.002085      0.000546
    12   Atom        0.001085     -0.002088     -0.000546
    13   Atom       -0.003622     -0.000012     -0.000001
 --------------------------------------------------------


 ---------------------------------------------------------------------------------
              Anisotropic Spin Dipole Couplings in Principal Axis System
 ---------------------------------------------------------------------------------

       Atom             a.u.   MegaHertz   Gauss  10(-4) cm-1        Axes

              Baa    -0.0866     6.269     2.237     2.091 -0.1704  0.9854  0.0001
     1 O(17)  Bbb    -0.0679     4.910     1.752     1.638  0.9854  0.1704 -0.0005
              Bcc     0.1545   -11.179    -3.989    -3.729  0.0005  0.0000  1.0000
 
              Baa    -0.3363    24.335     8.683     8.117  0.5831  0.8124  0.0000
     2 O(17)  Bbb    -0.3257    23.568     8.410     7.861  0.8124 -0.5831 -0.0001
              Bcc     0.6620   -47.903   -17.093   -15.979  0.0001 -0.0001  1.0000
 
              Baa    -0.0167    -2.238    -0.799    -0.747  0.3473  0.9378  0.0001
     3 C(13)  Bbb    -0.0012    -0.164    -0.059    -0.055  0.9378 -0.3473  0.0000
              Bcc     0.0179     2.403     0.857     0.801 -0.0000 -0.0001  1.0000
 
              Baa    -0.0032    -0.436    -0.156    -0.145 -0.0058  1.0000 -0.0005
     4 C(13)  Bbb    -0.0007    -0.094    -0.034    -0.031 -0.0007  0.0005  1.0000
              Bcc     0.0040     0.530     0.189     0.177  1.0000  0.0058  0.0007
 
              Baa    -0.4845   -65.013   -23.198   -21.686  0.9190 -0.3943  0.0003
     5 C(13)  Bbb    -0.4747   -63.699   -22.729   -21.248  0.3943  0.9190 -0.0001
              Bcc     0.9592   128.712    45.928    42.934 -0.0002  0.0002  1.0000
 
              Baa    -0.0378    -5.072    -1.810    -1.692 -0.0003 -0.0003  1.0000
     6 C(13)  Bbb     0.0030     0.403     0.144     0.135  0.7287 -0.6848  0.0000
              Bcc     0.0348     4.668     1.666     1.557  0.6848  0.7287  0.0004
 
              Baa    -0.0098    -5.204    -1.857    -1.736  0.3918  0.4606  0.7965
     7 H(1)   Bbb    -0.0069    -3.707    -1.323    -1.236 -0.0841  0.8800 -0.4675
              Bcc     0.0167     8.911     3.180     2.972  0.9162 -0.1162 -0.3835
 
              Baa    -0.0075    -3.985    -1.422    -1.329  0.0028  0.0030  1.0000
     8 H(1)   Bbb    -0.0071    -3.777    -1.348    -1.260  0.7697  0.6384 -0.0041
              Bcc     0.0145     7.762     2.770     2.589 -0.6384  0.7697 -0.0005
 
              Baa    -0.0097    -5.200    -1.856    -1.735 -0.3925 -0.4596  0.7967
     9 H(1)   Bbb    -0.0069    -3.707    -1.323    -1.236 -0.0840  0.8805  0.4665
              Bcc     0.0167     8.907     3.178     2.971  0.9159 -0.1162  0.3842
 
              Baa    -0.0020    -1.048    -0.374    -0.350 -0.0009 -0.0079  1.0000
    10 H(1)   Bbb    -0.0019    -1.031    -0.368    -0.344  0.1281  0.9917  0.0080
              Bcc     0.0039     2.080     0.742     0.694  0.9918 -0.1281 -0.0001
 
              Baa    -0.0030    -1.597    -0.570    -0.533 -0.2453 -0.2096  0.9465
    11 H(1)   Bbb    -0.0020    -1.047    -0.373    -0.349 -0.2244  0.9621  0.1549
              Bcc     0.0050     2.644     0.943     0.882  0.9431  0.1744  0.2830
 
              Baa    -0.0030    -1.597    -0.570    -0.533  0.2457  0.2093  0.9465
    12 H(1)   Bbb    -0.0020    -1.047    -0.373    -0.349 -0.2245  0.9622 -0.1545
              Bcc     0.0050     2.644     0.943     0.882  0.9430  0.1745 -0.2834
 
              Baa    -0.0623   -33.233   -11.858   -11.085  0.9996  0.0276  0.0002
    13 H(1)   Bbb    -0.0065    -3.486    -1.244    -1.163 -0.0002 -0.0000  1.0000
              Bcc     0.0688    36.719    13.102    12.248 -0.0276  0.9996 -0.0000
 

 ---------------------------------------------------------------------------------

 No NMR shielding tensors so no spin-rotation constants.
 Leave Link  601 at Tue Apr 23 23:27:19 2019, MaxMem=   671088640 cpu:               7.8 elap:               0.5
 (Enter /shared/centos7/gaussian/g16/l9999.exe)
 1\1\GINC-C0203\Scan\UM062X\6-311+G(2df,2p)\C4H7O2(2)\UNDERKOFFLER.C\23
 -Apr-2019\0\\#p m062x/6-311+g(2df,2p) Opt=(CalcFC,ModRedun)\\Gaussian 
 Input Prepared from Scan Object\\0,2\O,1.1518687148,-0.209512402,-0.54
 78529391\O,0.0035855929,0.0265588341,1.3723333336\C,-2.5115471925,0.10
 10700854,-0.1070729112\C,2.3463557683,-0.2390809384,0.2240182955\C,-1.
 1580078247,-0.0462580968,-0.6813861571\C,0.0152951469,-0.0684510789,0.
 1652153987\H,-3.1420641857,-0.7521135757,-0.3710181207\H,-2.4583378028
 ,0.1816294605,0.9755992144\H,-3.0107512168,0.987795268,-0.5066917436\H
 ,3.1585410347,-0.3554999817,-0.485862081\H,2.3272815177,-1.073074016,0
 .9234862061\H,2.4595143147,0.6862666827,0.786239073\H,-1.0095108675,-0
 .1405952413,-1.7470035685\\Version=EM64L-G16RevA.03\State=2-A\HF=-307.
 020178,-307.0201331,-307.0200171,-307.0198644,-307.0197213,-307.019620
 6,-307.0195761,-307.0195887,-307.0196638,-307.019799,-307.0199675,-307
 .020112,-307.0201773,-307.0201335,-307.0200017,-307.0198322,-307.01968
 7,-307.0195989,-307.019574,-307.0196064,-307.0196961,-307.0198324,-307
 .0199868,-307.0201137,-307.0201758,-307.0201484,-307.020039,-307.01987
 9,-307.0197224,-307.0196146,-307.0195742,-307.0196003,-307.019695,-307
 .0198442,-307.0200085,-307.0201317,-307.0201779\S2=0.758368,0.758332,0
 .758232,0.758093,0.757946,0.757827,0.757767,0.757787,0.757886,0.758034
 ,0.758192,0.758316,0.758367,0.758335,0.758222,0.758069,0.757914,0.7578
 03,0.757765,0.757809,0.757916,0.758062,0.758204,0.758315,0.758367,0.75
 8345,0.758252,0.758109,0.757951,0.757823,0.757766,0.757803,0.75792,0.7
 58076,0.758225,0.758333,0.758369\S2-1=0.,0.,0.,0.,0.,0.,0.,0.,0.,0.,0.
 ,0.,0.,0.,0.,0.,0.,0.,0.,0.,0.,0.,0.,0.,0.,0.,0.,0.,0.,0.,0.,0.,0.,0.,
 0.,0.,0.\S2A=0.75005,0.75005,0.750049,0.750048,0.750047,0.750046,0.750
 046,0.750046,0.750047,0.750048,0.750049,0.75005,0.75005,0.75005,0.7500
 49,0.750048,0.750047,0.750046,0.750046,0.750046,0.750047,0.750048,0.75
 0049,0.75005,0.75005,0.75005,0.750049,0.750048,0.750047,0.750046,0.750
 046,0.750046,0.750047,0.750048,0.750049,0.75005,0.75005\RMSD=2.922e-09
 ,5.535e-09,5.584e-09,9.095e-09,7.104e-09,5.096e-09,4.607e-09,5.073e-09
 ,9.547e-09,8.271e-09,6.038e-09,4.516e-09,4.329e-09,8.390e-09,1.984e-09
 ,6.136e-09,7.793e-09,5.350e-09,8.204e-09,9.049e-09,9.365e-09,6.790e-09
 ,3.102e-09,9.560e-09,8.792e-09,5.864e-09,7.016e-09,6.131e-09,7.156e-09
 ,6.283e-09,9.760e-09,8.121e-09,8.625e-09,3.236e-09,8.809e-09,8.761e-09
 ,7.017e-09\PG=C01 [X(C4H7O2)]\\@


 GARLIC THEN HAVE POWER TO SAVE FROM DEATH
 BEAR WITH IT THOUGH IT MAKETH UNSAVORY BREATH,
 AND SCORN NOT GARLIC LIKE SOME THAT THINK
 IT ONLY MAKETH MEN WINK AND DRINK AND STINK.
   --  SIR JOHN HARRINGTON,
       "THE ENGLISHMAN'S DOCTOR", 1609
 Job cpu time:       1 days  6 hours 16 minutes 27.6 seconds.
 Elapsed time:       0 days  1 hours 31 minutes 34.2 seconds.
 File lengths (MBytes):  RWF=   1392 Int=      0 D2E=      0 Chk=     32 Scr=     32
 Normal termination of Gaussian 16 at Tue Apr 23 23:27:19 2019.
