 Entering Gaussian System, Link 0=g16
 Input=DUEVIJNWLJUFDM-UHFFFAOYSA-N_GeoFreq_c1_a1.com
 Output=DUEVIJNWLJUFDM-UHFFFAOYSA-N_GeoFreq_c1_a1.log
 Initial command:
 /shared/centos7/gaussian/g16/l1.exe "/scratch/underkoffler.c/gaussian_scratch/Gau-33663.inp" -scrdir="/scratch/underkoffler.c/gaussian_scratch/"
 Entering Link 1 = /shared/centos7/gaussian/g16/l1.exe PID=     33664.
  
 Copyright (c) 1988,1990,1992,1993,1995,1998,2003,2009,2016,
            Gaussian, Inc.  All Rights Reserved.
  
 This is part of the Gaussian(R) 16 program.  It is based on
 the Gaussian(R) 09 system (copyright 2009, Gaussian, Inc.),
 the Gaussian(R) 03 system (copyright 2003, Gaussian, Inc.),
 the Gaussian(R) 98 system (copyright 1998, Gaussian, Inc.),
 the Gaussian(R) 94 system (copyright 1995, Gaussian, Inc.),
 the Gaussian 92(TM) system (copyright 1992, Gaussian, Inc.),
 the Gaussian 90(TM) system (copyright 1990, Gaussian, Inc.),
 the Gaussian 88(TM) system (copyright 1988, Gaussian, Inc.),
 the Gaussian 86(TM) system (copyright 1986, Carnegie Mellon
 University), and the Gaussian 82(TM) system (copyright 1983,
 Carnegie Mellon University). Gaussian is a federally registered
 trademark of Gaussian, Inc.
  
 This software contains proprietary and confidential information,
 including trade secrets, belonging to Gaussian, Inc.
  
 This software is provided under written license and may be
 used, copied, transmitted, or stored only in accord with that
 written license.
  
 The following legend is applicable only to US Government
 contracts under FAR:
  
                    RESTRICTED RIGHTS LEGEND
  
 Use, reproduction and disclosure by the US Government is
 subject to restrictions as set forth in subparagraphs (a)
 and (c) of the Commercial Computer Software - Restricted
 Rights clause in FAR 52.227-19.
  
 Gaussian, Inc.
 340 Quinnipiac St., Bldg. 40, Wallingford CT 06492
  
  
 ---------------------------------------------------------------
 Warning -- This program may not be used in any manner that
 competes with the business of Gaussian, Inc. or will provide
 assistance to any competitor of Gaussian, Inc.  The licensee
 of this program is prohibited from giving any competitor of
 Gaussian, Inc. access to this program.  By using this program,
 the user acknowledges that Gaussian, Inc. is engaged in the
 business of creating and licensing software in the field of
 computational chemistry and represents and warrants to the
 licensee that it is not a competitor of Gaussian, Inc. and that
 it will not use this program in any manner prohibited above.
 ---------------------------------------------------------------
  

 Cite this work as:
 Gaussian 16, Revision A.03,
 M. J. Frisch, G. W. Trucks, H. B. Schlegel, G. E. Scuseria, 
 M. A. Robb, J. R. Cheeseman, G. Scalmani, V. Barone, 
 G. A. Petersson, H. Nakatsuji, X. Li, M. Caricato, A. V. Marenich, 
 J. Bloino, B. G. Janesko, R. Gomperts, B. Mennucci, H. P. Hratchian, 
 J. V. Ortiz, A. F. Izmaylov, J. L. Sonnenberg, D. Williams-Young, 
 F. Ding, F. Lipparini, F. Egidi, J. Goings, B. Peng, A. Petrone, 
 T. Henderson, D. Ranasinghe, V. G. Zakrzewski, J. Gao, N. Rega, 
 G. Zheng, W. Liang, M. Hada, M. Ehara, K. Toyota, R. Fukuda, 
 J. Hasegawa, M. Ishida, T. Nakajima, Y. Honda, O. Kitao, H. Nakai, 
 T. Vreven, K. Throssell, J. A. Montgomery, Jr., J. E. Peralta, 
 F. Ogliaro, M. J. Bearpark, J. J. Heyd, E. N. Brothers, K. N. Kudin, 
 V. N. Staroverov, T. A. Keith, R. Kobayashi, J. Normand, 
 K. Raghavachari, A. P. Rendell, J. C. Burant, S. S. Iyengar, 
 J. Tomasi, M. Cossi, J. M. Millam, M. Klene, C. Adamo, R. Cammi, 
 J. W. Ochterski, R. L. Martin, K. Morokuma, O. Farkas, 
 J. B. Foresman, and D. J. Fox, Gaussian, Inc., Wallingford CT, 2016.
 
 ******************************************
 Gaussian 16:  EM64L-G16RevA.03 25-Dec-2016
                 9-Apr-2019 
 ******************************************
 %nprocshared=20
 Will use up to   20 processors via shared memory.
 %mem=5GB
 ----------------------------------------------------------------------
 #p m062x/6-311+g(2df,2p) opt=(calcfc,verytight,gdiis,maxcycles=900) fr
 eq iop(7/33=1,2/16=3)
 ----------------------------------------------------------------------

 Warning!  Use of Opt=GDIIS is deprecated since it is seldom a good choice.

 1/6=900,7=1,10=4,18=20,19=11,26=3,38=1/1,3;
 2/9=110,12=2,16=3,17=6,18=5,40=1/2;
 3/5=4,6=6,7=214,11=2,25=1,30=1,71=2,74=-55,140=1/1,2,3;
 4//1;
 5/5=2,38=5/2;
 8/6=4,10=90,11=11/1;
 11/6=1,8=1,9=11,15=111,16=1/1,2,10;
 10/6=1,13=1/2;
 6/7=2,8=2,9=2,10=2,28=1/1;
 7/10=1,18=20,25=1,33=1/1,2,3,16;
 1/6=900,7=1,10=4,18=20,19=11,26=3/3(2);
 2/9=110,16=3/2;
 99//99;
 2/9=110,16=3/2;
 3/5=4,6=6,7=214,11=2,25=1,30=1,71=1,74=-55/1,2,3;
 4/5=5,16=3,69=1/1;
 5/5=2,38=5/2;
 7/33=1/1,2,3,16;
 1/6=900,7=1,18=20,19=11,26=3/3(-5);
 2/9=110,16=3/2;
 6/7=2,8=2,9=2,10=2,19=2,28=1/1;
 99/9=1/99;
 Leave Link    1 at Tue Apr  9 01:51:17 2019, MaxMem=   671088640 cpu:              27.5 elap:               1.4
 (Enter /shared/centos7/gaussian/g16/l101.exe)
 ------------------------------
 Gaussian input prepared by ASE
 ------------------------------
 Symbolic Z-matrix:
 Charge =  0 Multiplicity = 2
 O                    -1.22389   0.42659   0.56935 
 O                    -0.48083  -0.7895   -1.25801 
 C                     2.39986  -0.34632  -0.39189 
 C                    -2.52438   0.05843   0.11538 
 C                     1.15918   0.20654   0.24269 
 C                    -0.21739  -0.10678  -0.24196 
 H                     2.22278  -1.38303  -0.7768 
 H                     2.72436   0.26932  -1.24657 
 H                     3.24817  -0.36789   0.33807 
 H                    -3.22623   0.21937   0.95375 
 H                    -2.55072  -1.0157   -0.19379 
 H                    -2.83035   0.70345  -0.74519 
 H                     1.27553   0.88863   1.1154 
 
 ITRead=  0  0  0  0  0  0  0  0  0  0  0  0  0
 MicOpt= -1 -1 -1 -1 -1 -1 -1 -1 -1 -1 -1 -1 -1
 NAtoms=     13 NQM=       13 NQMF=       0 NMMI=      0 NMMIF=      0
                NMic=       0 NMicF=      0.
                    Isotopes and Nuclear Properties:
 (Nuclear quadrupole moments (NQMom) in fm**2, nuclear magnetic moments (NMagM)
  in nuclear magnetons)

  Atom         1           2           3           4           5           6           7           8           9          10
 IAtWgt=          16          16          12          12          12          12           1           1           1           1
 AtmWgt=  15.9949146  15.9949146  12.0000000  12.0000000  12.0000000  12.0000000   1.0078250   1.0078250   1.0078250   1.0078250
 NucSpn=           0           0           0           0           0           0           1           1           1           1
 AtZEff=  -0.0000000  -0.0000000  -0.0000000  -0.0000000  -0.0000000  -0.0000000  -0.0000000  -0.0000000  -0.0000000  -0.0000000
 NQMom=    0.0000000   0.0000000   0.0000000   0.0000000   0.0000000   0.0000000   0.0000000   0.0000000   0.0000000   0.0000000
 NMagM=    0.0000000   0.0000000   0.0000000   0.0000000   0.0000000   0.0000000   2.7928460   2.7928460   2.7928460   2.7928460
 AtZNuc=   8.0000000   8.0000000   6.0000000   6.0000000   6.0000000   6.0000000   1.0000000   1.0000000   1.0000000   1.0000000

  Atom        11          12          13
 IAtWgt=           1           1           1
 AtmWgt=   1.0078250   1.0078250   1.0078250
 NucSpn=           1           1           1
 AtZEff=  -0.0000000  -0.0000000  -0.0000000
 NQMom=    0.0000000   0.0000000   0.0000000
 NMagM=    2.7928460   2.7928460   2.7928460
 AtZNuc=   1.0000000   1.0000000   1.0000000
 Leave Link  101 at Tue Apr  9 01:51:17 2019, MaxMem=   671088640 cpu:               5.0 elap:               0.3
 (Enter /shared/centos7/gaussian/g16/l103.exe)

 GradGradGradGradGradGradGradGradGradGradGradGradGradGradGradGradGradGrad
 Berny optimization.
 Initialization pass.
                           ----------------------------
                           !    Initial Parameters    !
                           ! (Angstroms and Degrees)  !
 --------------------------                            --------------------------
 ! Name  Definition              Value          Derivative Info.                !
 --------------------------------------------------------------------------------
 ! R1    R(1,4)                  1.4258         calculate D2E/DX2 analytically  !
 ! R2    R(1,6)                  1.3985         calculate D2E/DX2 analytically  !
 ! R3    R(2,6)                  1.2521         calculate D2E/DX2 analytically  !
 ! R4    R(3,5)                  1.4992         calculate D2E/DX2 analytically  !
 ! R5    R(3,7)                  1.12           calculate D2E/DX2 analytically  !
 ! R6    R(3,8)                  1.1022         calculate D2E/DX2 analytically  !
 ! R7    R(3,9)                  1.1193         calculate D2E/DX2 analytically  !
 ! R8    R(4,10)                 1.1051         calculate D2E/DX2 analytically  !
 ! R9    R(4,11)                 1.118          calculate D2E/DX2 analytically  !
 ! R10   R(4,12)                 1.1181         calculate D2E/DX2 analytically  !
 ! R11   R(5,6)                  1.4926         calculate D2E/DX2 analytically  !
 ! R12   R(5,13)                 1.1137         calculate D2E/DX2 analytically  !
 ! A1    A(4,1,6)              111.9173         calculate D2E/DX2 analytically  !
 ! A2    A(5,3,7)              110.8535         calculate D2E/DX2 analytically  !
 ! A3    A(5,3,8)              111.4628         calculate D2E/DX2 analytically  !
 ! A4    A(5,3,9)              110.9927         calculate D2E/DX2 analytically  !
 ! A5    A(7,3,8)              107.283          calculate D2E/DX2 analytically  !
 ! A6    A(7,3,9)              109.0336         calculate D2E/DX2 analytically  !
 ! A7    A(8,3,9)              107.0575         calculate D2E/DX2 analytically  !
 ! A8    A(1,4,10)             107.4643         calculate D2E/DX2 analytically  !
 ! A9    A(1,4,11)             110.9526         calculate D2E/DX2 analytically  !
 ! A10   A(1,4,12)             110.2234         calculate D2E/DX2 analytically  !
 ! A11   A(10,4,11)            109.5556         calculate D2E/DX2 analytically  !
 ! A12   A(10,4,12)            109.0303         calculate D2E/DX2 analytically  !
 ! A13   A(11,4,12)            109.5691         calculate D2E/DX2 analytically  !
 ! A14   A(3,5,6)              123.2547         calculate D2E/DX2 analytically  !
 ! A15   A(3,5,13)             118.1034         calculate D2E/DX2 analytically  !
 ! A16   A(6,5,13)             118.6411         calculate D2E/DX2 analytically  !
 ! A17   A(1,6,2)              121.8218         calculate D2E/DX2 analytically  !
 ! A18   A(1,6,5)              113.2861         calculate D2E/DX2 analytically  !
 ! A19   A(2,6,5)              124.8861         calculate D2E/DX2 analytically  !
 ! D1    D(6,1,4,10)           161.7982         calculate D2E/DX2 analytically  !
 ! D2    D(6,1,4,11)            42.0485         calculate D2E/DX2 analytically  !
 ! D3    D(6,1,4,12)           -79.5044         calculate D2E/DX2 analytically  !
 ! D4    D(4,1,6,2)              1.8599         calculate D2E/DX2 analytically  !
 ! D5    D(4,1,6,5)           -177.291          calculate D2E/DX2 analytically  !
 ! D6    D(7,3,5,6)            -34.1225         calculate D2E/DX2 analytically  !
 ! D7    D(7,3,5,13)           146.2079         calculate D2E/DX2 analytically  !
 ! D8    D(8,3,5,6)             85.3083         calculate D2E/DX2 analytically  !
 ! D9    D(8,3,5,13)           -94.3612         calculate D2E/DX2 analytically  !
 ! D10   D(9,3,5,6)           -155.4523         calculate D2E/DX2 analytically  !
 ! D11   D(9,3,5,13)            24.8781         calculate D2E/DX2 analytically  !
 ! D12   D(3,5,6,1)            174.8505         calculate D2E/DX2 analytically  !
 ! D13   D(3,5,6,2)             -4.2699         calculate D2E/DX2 analytically  !
 ! D14   D(13,5,6,1)            -5.4816         calculate D2E/DX2 analytically  !
 ! D15   D(13,5,6,2)           175.398          calculate D2E/DX2 analytically  !
 --------------------------------------------------------------------------------
 Trust Radius=3.00D-01 FncErr=1.00D-07 GrdErr=1.00D-06 EigMax=2.50D+02 EigMin=1.00D-04
 Number of steps in this run=    100 maximum allowed number of steps=    100.
 GradGradGradGradGradGradGradGradGradGradGradGradGradGradGradGradGradGrad

 Leave Link  103 at Tue Apr  9 01:51:17 2019, MaxMem=   671088640 cpu:               0.1 elap:               0.0
 (Enter /shared/centos7/gaussian/g16/l202.exe)
                          Input orientation:                          
 ---------------------------------------------------------------------
 Center     Atomic      Atomic             Coordinates (Angstroms)
 Number     Number       Type             X           Y           Z
 ---------------------------------------------------------------------
      1          8           0       -1.223892    0.426586    0.569346
      2          8           0       -0.480828   -0.789503   -1.258008
      3          6           0        2.399863   -0.346317   -0.391887
      4          6           0       -2.524385    0.058428    0.115377
      5          6           0        1.159177    0.206540    0.242693
      6          6           0       -0.217392   -0.106777   -0.241956
      7          1           0        2.222778   -1.383030   -0.776801
      8          1           0        2.724364    0.269321   -1.246570
      9          1           0        3.248167   -0.367889    0.338070
     10          1           0       -3.226226    0.219370    0.953749
     11          1           0       -2.550719   -1.015702   -0.193787
     12          1           0       -2.830348    0.703452   -0.745191
     13          1           0        1.275527    0.888633    1.115401
 ---------------------------------------------------------------------
                    Distance matrix (angstroms):
                    1          2          3          4          5
     1  O    0.000000
     2  O    2.317378   0.000000
     3  C    3.827917   3.040553   0.000000
     4  C    1.425801   2.604092   4.966825   0.000000
     5  C    2.415397   2.435944   1.499214   3.688736   0.000000
     6  C    1.398475   1.252148   2.632467   2.340341   1.492647
     7  H    4.119024   2.809506   1.119952   5.040767   2.167337
     8  H    4.348680   3.375574   1.102177   5.426669   2.161401
     9  H    4.547966   4.078067   1.119340   5.792555   2.168627
    10  H    2.049401   3.667002   5.812367   1.105147   4.442693
    11  H    2.103101   2.338414   4.999558   1.118048   3.930359
    12  H    2.094126   2.830572   5.346209   1.118145   4.139945
    13  H    2.599761   3.396174   2.249701   4.016045   1.113736
                    6          7          8          9         10
     6  C    0.000000
     7  H    2.805229   0.000000
     8  H    3.131234   1.789563   0.000000
     9  H    3.523451   1.823423   1.786474   0.000000
    10  H    3.254100   5.937519   6.344558   6.530061   0.000000
    11  H    2.504572   4.822977   5.530474   5.859147   1.816191
    12  H    2.781593   5.467037   5.594165   6.266544   1.810374
    13  H    2.249904   3.104540   2.839293   2.464630   4.554099
                   11         12         13
    11  H    0.000000
    12  H    1.826946   0.000000
    13  H    4.469969   4.511574   0.000000
 Stoichiometry    C4H7O2(2)
 Framework group  C1[X(C4H7O2)]
 Deg. of freedom    33
 Full point group                 C1      NOp   1
 Largest Abelian subgroup         C1      NOp   1
 Largest concise Abelian subgroup C1      NOp   1
                         Standard orientation:                         
 ---------------------------------------------------------------------
 Center     Atomic      Atomic             Coordinates (Angstroms)
 Number     Number       Type             X           Y           Z
 ---------------------------------------------------------------------
      1          8           0       -1.154597   -0.773689    0.014050
      2          8           0       -0.161139    1.319768    0.040892
      3          6           0        2.588478    0.025123   -0.051101
      4          6           0       -2.377867   -0.043861   -0.048151
      5          6           0        1.258007   -0.660090    0.038193
      6          6           0       -0.042044    0.073301    0.037867
      7          1           0        2.523615    0.939511   -0.694513
      8          1           0        2.943464    0.347538    0.941284
      9          1           0        3.366087   -0.662052   -0.470667
     10          1           0       -3.163025   -0.741260   -0.392408
     11          1           0       -2.297167    0.811496   -0.763610
     12          1           0       -2.650642    0.340470    0.965818
     13          1           0        1.244120   -1.771176    0.113717
 ---------------------------------------------------------------------
 Rotational constants (GHZ):           9.6981729           2.0797210           1.7531213
 Leave Link  202 at Tue Apr  9 01:51:17 2019, MaxMem=   671088640 cpu:               0.2 elap:               0.0
 (Enter /shared/centos7/gaussian/g16/l301.exe)
 Standard basis: 6-311+G(2df,2p) (5D, 7F)
 Ernie: Thresh=  0.10000D-02 Tol=  0.10000D-05 Strict=F.
 There are   297 symmetry adapted cartesian basis functions of A   symmetry.
 There are   267 symmetry adapted basis functions of A   symmetry.
   267 basis functions,   389 primitive gaussians,   297 cartesian basis functions
    24 alpha electrons       23 beta electrons
       nuclear repulsion energy       230.3083216277 Hartrees.
 IExCor= 4336 DFT=T Ex+Corr=M062X ExCW=0 ScaHFX=  0.540000
 ScaDFX=  1.000000  1.000000  1.000000  1.000000 ScalE2=  1.000000  1.000000
 IRadAn=      5 IRanWt=     -1 IRanGd=            0 ICorTp=0 IEmpDi=  4
 NAtoms=   13 NActive=   13 NUniq=   13 SFac= 1.00D+00 NAtFMM=   60 NAOKFM=F Big=F
 Integral buffers will be    131072 words long.
 Raffenetti 2 integral format.
 Two-electron integral symmetry is turned on.
 Leave Link  301 at Tue Apr  9 01:51:17 2019, MaxMem=   671088640 cpu:               1.1 elap:               0.1
 (Enter /shared/centos7/gaussian/g16/l302.exe)
 NPDir=0 NMtPBC=     1 NCelOv=     1 NCel=       1 NClECP=     1 NCelD=      1
         NCelK=      1 NCelE2=     1 NClLst=     1 CellRange=     0.0.
 One-electron integrals computed using PRISM.
 One-electron integral symmetry used in STVInt
 NBasis=   267 RedAO= T EigKep=  3.94D-05  NBF=   267
 NBsUse=   267 1.00D-06 EigRej= -1.00D+00 NBFU=   267
 Precomputing XC quadrature grid using
 IXCGrd= 4 IRadAn=           5 IRanWt=          -1 IRanGd=           0 AccXCQ= 0.00D+00.
 Generated NRdTot=       0 NPtTot=           0 NUsed=           0 NTot=          32
 NSgBfM=   297   297   297   297   297 MxSgAt=    13 MxSgA2=    13.
 Leave Link  302 at Tue Apr  9 01:51:18 2019, MaxMem=   671088640 cpu:               5.7 elap:               0.3
 (Enter /shared/centos7/gaussian/g16/l303.exe)
 DipDrv:  MaxL=1.
 Leave Link  303 at Tue Apr  9 01:51:18 2019, MaxMem=   671088640 cpu:               0.5 elap:               0.0
 (Enter /shared/centos7/gaussian/g16/l401.exe)
 ExpMin= 4.38D-02 ExpMax= 8.59D+03 ExpMxC= 1.30D+03 IAcc=3 IRadAn=         5 AccDes= 0.00D+00
 Harris functional with IExCor= 1009 and IRadAn=       5 diagonalized for initial guess.
 HarFok:  IExCor= 1009 AccDes= 0.00D+00 IRadAn=         5 IDoV= 1 UseB2=F ITyADJ=14
 ICtDFT=  3500011 ScaDFX=  1.000000  1.000000  1.000000  1.000000
 FoFCou: FMM=F IPFlag=           0 FMFlag=      100000 FMFlg1=           0
         NFxFlg=           0 DoJE=T BraDBF=F KetDBF=T FulRan=T
         wScrn=  0.000000 ICntrl=       500 IOpCl=  0 I1Cent=   200000004 NGrid=           0
         NMat0=    1 NMatS0=      1 NMatT0=    0 NMatD0=    1 NMtDS0=    0 NMtDT0=    0
 Petite list used in FoFCou.
 Harris En= -306.864664293059    
 JPrj=0 DoOrth=F DoCkMO=F.
 Initial guess <Sx>= 0.0000 <Sy>= 0.0000 <Sz>= 0.5000 <S**2>= 0.7500 S= 0.5000
 Leave Link  401 at Tue Apr  9 01:51:19 2019, MaxMem=   671088640 cpu:              17.8 elap:               0.9
 (Enter /shared/centos7/gaussian/g16/l502.exe)
 Integral symmetry usage will be decided dynamically.
 UHF open shell SCF:
 Using DIIS extrapolation, IDIIS=  1040.
 NGot=   671088640 LenX=   670903575 LenY=   670814925
 Requested convergence on RMS density matrix=1.00D-08 within 128 cycles.
 Requested convergence on MAX density matrix=1.00D-06.
 Requested convergence on             energy=1.00D-06.
 No special actions if energy rises.
 Fock matrices will be formed incrementally for  20 cycles.

 Cycle   1  Pass 1  IDiag  1:
 FoFJK:  IHMeth= 1 ICntrl=       0 DoSepK=F KAlg= 0 I1Cent=           0 FoldK=F
 IRaf= 950000000 NMat=       1 IRICut=       1 DoRegI=T DoRafI=F ISym2E= 0 IDoP0=0 IntGTp=1.
 FoFCou: FMM=F IPFlag=           0 FMFlag=      100000 FMFlg1=           0
         NFxFlg=           0 DoJE=F BraDBF=F KetDBF=F FulRan=T
         wScrn=  0.000000 ICntrl=         0 IOpCl=  1 I1Cent=           0 NGrid=           0
         NMat0=    1 NMatS0=      1 NMatT0=    0 NMatD0=    1 NMtDS0=    0 NMtDT0=    0
 Symmetry not used in FoFCou.
 E= -306.832423799278    
 DIIS: error= 3.00D-02 at cycle   1 NSaved=   1.
 NSaved= 1 IEnMin= 1 EnMin= -306.832423799278     IErMin= 1 ErrMin= 3.00D-02
 ErrMax= 3.00D-02  0.00D+00 EMaxC= 1.00D-01 BMatC= 9.79D-01 BMatP= 9.79D-01
 IDIUse=3 WtCom= 7.00D-01 WtEn= 3.00D-01
 Coeff-Com:  0.100D+01
 Coeff-En:   0.100D+01
 Coeff:      0.100D+01
 Gap=     0.337 Goal=   None    Shift=    0.000
 Gap=     0.230 Goal=   None    Shift=    0.000
 GapD=    0.230 DampG=1.000 DampE=0.500 DampFc=0.5000 IDamp=-1.
 Damping current iteration by 5.00D-01
 RMSDP=3.77D-03 MaxDP=2.97D-01              OVMax= 2.46D-01

 Cycle   2  Pass 1  IDiag  1:
 RMSU=  1.87D-03    CP:  1.02D+00
 E= -306.907257442146     Delta-E=       -0.074833642868 Rises=F Damp=T
 DIIS: error= 6.91D-03 at cycle   2 NSaved=   2.
 NSaved= 2 IEnMin= 2 EnMin= -306.907257442146     IErMin= 2 ErrMin= 6.91D-03
 ErrMax= 6.91D-03  0.00D+00 EMaxC= 1.00D-01 BMatC= 1.03D-01 BMatP= 9.79D-01
 IDIUse=3 WtCom= 9.31D-01 WtEn= 6.91D-02
 Coeff-Com:  0.389D-01 0.961D+00
 Coeff-En:   0.957D-01 0.904D+00
 Coeff:      0.428D-01 0.957D+00
 Gap=     0.363 Goal=   None    Shift=    0.000
 Gap=     0.304 Goal=   None    Shift=    0.000
 RMSDP=1.95D-03 MaxDP=2.34D-01 DE=-7.48D-02 OVMax= 1.26D-01

 Cycle   3  Pass 1  IDiag  1:
 RMSU=  1.40D-03    CP:  9.54D-01  3.78D-01
 E= -306.991790578024     Delta-E=       -0.084533135878 Rises=F Damp=F
 DIIS: error= 9.11D-03 at cycle   3 NSaved=   3.
 NSaved= 3 IEnMin= 3 EnMin= -306.991790578024     IErMin= 2 ErrMin= 6.91D-03
 ErrMax= 9.11D-03  0.00D+00 EMaxC= 1.00D-01 BMatC= 8.14D-02 BMatP= 1.03D-01
 IDIUse=3 WtCom= 9.09D-01 WtEn= 9.11D-02
 Coeff-Com: -0.751D-01 0.491D+00 0.584D+00
 Coeff-En:   0.000D+00 0.000D+00 0.100D+01
 Coeff:     -0.682D-01 0.446D+00 0.622D+00
 Gap=     0.309 Goal=   None    Shift=    0.000
 Gap=     0.285 Goal=   None    Shift=    0.000
 RMSDP=4.73D-04 MaxDP=1.92D-02 DE=-8.45D-02 OVMax= 6.95D-02

 Cycle   4  Pass 1  IDiag  1:
 RMSU=  4.40D-04    CP:  9.54D-01  4.69D-01  1.02D+00
 E= -307.005049739412     Delta-E=       -0.013259161389 Rises=F Damp=F
 DIIS: error= 2.79D-03 at cycle   4 NSaved=   4.
 NSaved= 4 IEnMin= 4 EnMin= -307.005049739412     IErMin= 4 ErrMin= 2.79D-03
 ErrMax= 2.79D-03  0.00D+00 EMaxC= 1.00D-01 BMatC= 1.32D-02 BMatP= 8.14D-02
 IDIUse=3 WtCom= 9.72D-01 WtEn= 2.79D-02
 Coeff-Com: -0.305D-01 0.793D-01 0.322D+00 0.629D+00
 Coeff-En:   0.000D+00 0.000D+00 0.116D+00 0.884D+00
 Coeff:     -0.296D-01 0.771D-01 0.316D+00 0.637D+00
 Gap=     0.304 Goal=   None    Shift=    0.000
 Gap=     0.279 Goal=   None    Shift=    0.000
 RMSDP=1.98D-04 MaxDP=1.55D-02 DE=-1.33D-02 OVMax= 1.41D-02

 Cycle   5  Pass 1  IDiag  1:
 RMSU=  8.73D-05    CP:  9.48D-01  4.05D-01  1.08D+00  8.02D-01
 E= -307.007584045914     Delta-E=       -0.002534306502 Rises=F Damp=F
 DIIS: error= 7.49D-04 at cycle   5 NSaved=   5.
 NSaved= 5 IEnMin= 5 EnMin= -307.007584045914     IErMin= 5 ErrMin= 7.49D-04
 ErrMax= 7.49D-04  0.00D+00 EMaxC= 1.00D-01 BMatC= 5.27D-04 BMatP= 1.32D-02
 IDIUse=3 WtCom= 9.93D-01 WtEn= 7.49D-03
 Coeff-Com: -0.724D-02 0.684D-02 0.101D+00 0.260D+00 0.639D+00
 Coeff-En:   0.000D+00 0.000D+00 0.000D+00 0.000D+00 0.100D+01
 Coeff:     -0.719D-02 0.678D-02 0.100D+00 0.258D+00 0.642D+00
 Gap=     0.303 Goal=   None    Shift=    0.000
 Gap=     0.281 Goal=   None    Shift=    0.000
 RMSDP=3.82D-05 MaxDP=2.40D-03 DE=-2.53D-03 OVMax= 7.29D-03

 Cycle   6  Pass 1  IDiag  1:
 RMSU=  3.35D-05    CP:  9.48D-01  4.00D-01  1.09D+00  8.21D-01  1.00D+00
 E= -307.007726621701     Delta-E=       -0.000142575787 Rises=F Damp=F
 DIIS: error= 3.08D-04 at cycle   6 NSaved=   6.
 NSaved= 6 IEnMin= 6 EnMin= -307.007726621701     IErMin= 6 ErrMin= 3.08D-04
 ErrMax= 3.08D-04  0.00D+00 EMaxC= 1.00D-01 BMatC= 1.12D-04 BMatP= 5.27D-04
 IDIUse=3 WtCom= 9.97D-01 WtEn= 3.08D-03
 Coeff-Com:  0.439D-02-0.159D-01-0.335D-01-0.592D-01 0.234D+00 0.870D+00
 Coeff-En:   0.000D+00 0.000D+00 0.000D+00 0.000D+00 0.000D+00 0.100D+01
 Coeff:      0.437D-02-0.158D-01-0.334D-01-0.591D-01 0.234D+00 0.870D+00
 Gap=     0.304 Goal=   None    Shift=    0.000
 Gap=     0.282 Goal=   None    Shift=    0.000
 RMSDP=3.56D-05 MaxDP=2.76D-03 DE=-1.43D-04 OVMax= 4.41D-03

 Cycle   7  Pass 1  IDiag  1:
 RMSU=  1.77D-05    CP:  9.47D-01  3.91D-01  1.10D+00  8.35D-01  1.20D+00
                    CP:  1.23D+00
 E= -307.007781726423     Delta-E=       -0.000055104722 Rises=F Damp=F
 DIIS: error= 1.10D-04 at cycle   7 NSaved=   7.
 NSaved= 7 IEnMin= 7 EnMin= -307.007781726423     IErMin= 7 ErrMin= 1.10D-04
 ErrMax= 1.10D-04  0.00D+00 EMaxC= 1.00D-01 BMatC= 1.87D-05 BMatP= 1.12D-04
 IDIUse=3 WtCom= 9.99D-01 WtEn= 1.10D-03
 Coeff-Com:  0.324D-02-0.578D-02-0.315D-01-0.866D-01-0.103D+00 0.186D+00
 Coeff-Com:  0.104D+01
 Coeff-En:   0.000D+00 0.000D+00 0.000D+00 0.000D+00 0.000D+00 0.000D+00
 Coeff-En:   0.100D+01
 Coeff:      0.324D-02-0.577D-02-0.314D-01-0.865D-01-0.103D+00 0.186D+00
 Coeff:      0.104D+01
 Gap=     0.305 Goal=   None    Shift=    0.000
 Gap=     0.283 Goal=   None    Shift=    0.000
 RMSDP=2.05D-05 MaxDP=1.36D-03 DE=-5.51D-05 OVMax= 3.78D-03

 Cycle   8  Pass 1  IDiag  1:
 RMSU=  8.95D-06    CP:  9.47D-01  3.87D-01  1.10D+00  8.36D-01  1.32D+00
                    CP:  1.53D+00  1.36D+00
 E= -307.007797119882     Delta-E=       -0.000015393459 Rises=F Damp=F
 DIIS: error= 7.14D-05 at cycle   8 NSaved=   8.
 NSaved= 8 IEnMin= 8 EnMin= -307.007797119882     IErMin= 8 ErrMin= 7.14D-05
 ErrMax= 7.14D-05  0.00D+00 EMaxC= 1.00D-01 BMatC= 3.56D-06 BMatP= 1.87D-05
 IDIUse=1 WtCom= 1.00D+00 WtEn= 0.00D+00
 Coeff-Com:  0.439D-03 0.177D-03-0.303D-02-0.174D-01-0.617D-01-0.543D-01
 Coeff-Com:  0.326D+00 0.810D+00
 Coeff:      0.439D-03 0.177D-03-0.303D-02-0.174D-01-0.617D-01-0.543D-01
 Coeff:      0.326D+00 0.810D+00
 Gap=     0.305 Goal=   None    Shift=    0.000
 Gap=     0.283 Goal=   None    Shift=    0.000
 RMSDP=5.81D-06 MaxDP=2.71D-04 DE=-1.54D-05 OVMax= 1.20D-03

 Cycle   9  Pass 1  IDiag  1:
 RMSU=  3.40D-06    CP:  9.47D-01  3.87D-01  1.10D+00  8.33D-01  1.33D+00
                    CP:  1.60D+00  1.53D+00  1.20D+00
 E= -307.007799516318     Delta-E=       -0.000002396436 Rises=F Damp=F
 DIIS: error= 4.09D-05 at cycle   9 NSaved=   9.
 NSaved= 9 IEnMin= 9 EnMin= -307.007799516318     IErMin= 9 ErrMin= 4.09D-05
 ErrMax= 4.09D-05  0.00D+00 EMaxC= 1.00D-01 BMatC= 6.89D-07 BMatP= 3.56D-06
 IDIUse=1 WtCom= 1.00D+00 WtEn= 0.00D+00
 Coeff-Com: -0.727D-03 0.139D-02 0.834D-02 0.202D-01 0.177D-01-0.523D-01
 Coeff-Com: -0.238D+00 0.258D-01 0.122D+01
 Coeff:     -0.727D-03 0.139D-02 0.834D-02 0.202D-01 0.177D-01-0.523D-01
 Coeff:     -0.238D+00 0.258D-01 0.122D+01
 Gap=     0.305 Goal=   None    Shift=    0.000
 Gap=     0.283 Goal=   None    Shift=    0.000
 RMSDP=4.66D-06 MaxDP=2.44D-04 DE=-2.40D-06 OVMax= 1.01D-03

 Cycle  10  Pass 1  IDiag  1:
 RMSU=  1.96D-06    CP:  9.47D-01  3.87D-01  1.10D+00  8.31D-01  1.33D+00
                    CP:  1.63D+00  1.63D+00  1.51D+00  1.54D+00
 E= -307.007800539654     Delta-E=       -0.000001023335 Rises=F Damp=F
 DIIS: error= 1.89D-05 at cycle  10 NSaved=  10.
 NSaved=10 IEnMin=10 EnMin= -307.007800539654     IErMin=10 ErrMin= 1.89D-05
 ErrMax= 1.89D-05  0.00D+00 EMaxC= 1.00D-01 BMatC= 1.25D-07 BMatP= 6.89D-07
 IDIUse=1 WtCom= 1.00D+00 WtEn= 0.00D+00
 Coeff-Com:  0.122D-03-0.385D-03-0.105D-02-0.968D-03 0.787D-02 0.180D-01
 Coeff-Com: -0.564D-02-0.166D+00-0.219D+00 0.137D+01
 Coeff:      0.122D-03-0.385D-03-0.105D-02-0.968D-03 0.787D-02 0.180D-01
 Coeff:     -0.564D-02-0.166D+00-0.219D+00 0.137D+01
 Gap=     0.305 Goal=   None    Shift=    0.000
 Gap=     0.283 Goal=   None    Shift=    0.000
 RMSDP=2.27D-06 MaxDP=1.37D-04 DE=-1.02D-06 OVMax= 5.20D-04

 Cycle  11  Pass 1  IDiag  1:
 RMSU=  8.09D-07    CP:  9.47D-01  3.87D-01  1.10D+00  8.31D-01  1.34D+00
                    CP:  1.64D+00  1.66D+00  1.60D+00  1.92D+00  1.66D+00
 E= -307.007800765826     Delta-E=       -0.000000226172 Rises=F Damp=F
 DIIS: error= 8.32D-06 at cycle  11 NSaved=  11.
 NSaved=11 IEnMin=11 EnMin= -307.007800765826     IErMin=11 ErrMin= 8.32D-06
 ErrMax= 8.32D-06  0.00D+00 EMaxC= 1.00D-01 BMatC= 2.66D-08 BMatP= 1.25D-07
 IDIUse=1 WtCom= 1.00D+00 WtEn= 0.00D+00
 Coeff-Com:  0.172D-03-0.372D-03-0.170D-02-0.393D-02-0.680D-03 0.119D-01
 Coeff-Com:  0.428D-01-0.524D-01-0.280D+00 0.343D+00 0.941D+00
 Coeff:      0.172D-03-0.372D-03-0.170D-02-0.393D-02-0.680D-03 0.119D-01
 Coeff:      0.428D-01-0.524D-01-0.280D+00 0.343D+00 0.941D+00
 Gap=     0.305 Goal=   None    Shift=    0.000
 Gap=     0.283 Goal=   None    Shift=    0.000
 RMSDP=9.16D-07 MaxDP=5.18D-05 DE=-2.26D-07 OVMax= 1.86D-04

 Cycle  12  Pass 1  IDiag  1:
 RMSU=  2.82D-07    CP:  9.47D-01  3.87D-01  1.10D+00  8.30D-01  1.34D+00
                    CP:  1.65D+00  1.67D+00  1.62D+00  2.05D+00  1.98D+00
                    CP:  1.25D+00
 E= -307.007800795688     Delta-E=       -0.000000029862 Rises=F Damp=F
 DIIS: error= 1.83D-06 at cycle  12 NSaved=  12.
 NSaved=12 IEnMin=12 EnMin= -307.007800795688     IErMin=12 ErrMin= 1.83D-06
 ErrMax= 1.83D-06  0.00D+00 EMaxC= 1.00D-01 BMatC= 4.68D-09 BMatP= 2.66D-08
 IDIUse=1 WtCom= 1.00D+00 WtEn= 0.00D+00
 Coeff-Com:  0.180D-04-0.182D-04-0.217D-03-0.837D-03-0.145D-02-0.897D-03
 Coeff-Com:  0.132D-01 0.169D-01-0.251D-01-0.194D+00 0.278D+00 0.914D+00
 Coeff:      0.180D-04-0.182D-04-0.217D-03-0.837D-03-0.145D-02-0.897D-03
 Coeff:      0.132D-01 0.169D-01-0.251D-01-0.194D+00 0.278D+00 0.914D+00
 Gap=     0.305 Goal=   None    Shift=    0.000
 Gap=     0.283 Goal=   None    Shift=    0.000
 RMSDP=3.02D-07 MaxDP=1.62D-05 DE=-2.99D-08 OVMax= 5.58D-05

 Cycle  13  Pass 1  IDiag  1:
 RMSU=  1.14D-07    CP:  9.47D-01  3.87D-01  1.10D+00  8.30D-01  1.34D+00
                    CP:  1.65D+00  1.67D+00  1.63D+00  2.08D+00  2.07D+00
                    CP:  1.46D+00  1.19D+00
 E= -307.007800798845     Delta-E=       -0.000000003157 Rises=F Damp=F
 DIIS: error= 4.29D-07 at cycle  13 NSaved=  13.
 NSaved=13 IEnMin=13 EnMin= -307.007800798845     IErMin=13 ErrMin= 4.29D-07
 ErrMax= 4.29D-07  0.00D+00 EMaxC= 1.00D-01 BMatC= 1.89D-10 BMatP= 4.68D-09
 IDIUse=1 WtCom= 1.00D+00 WtEn= 0.00D+00
 Coeff-Com: -0.168D-04 0.360D-04 0.149D-03 0.343D-03-0.784D-04-0.116D-02
 Coeff-Com: -0.356D-02 0.525D-02 0.298D-01-0.470D-01-0.746D-01 0.200D-01
 Coeff-Com:  0.107D+01
 Coeff:     -0.168D-04 0.360D-04 0.149D-03 0.343D-03-0.784D-04-0.116D-02
 Coeff:     -0.356D-02 0.525D-02 0.298D-01-0.470D-01-0.746D-01 0.200D-01
 Coeff:      0.107D+01
 Gap=     0.305 Goal=   None    Shift=    0.000
 Gap=     0.283 Goal=   None    Shift=    0.000
 RMSDP=8.19D-08 MaxDP=6.02D-06 DE=-3.16D-09 OVMax= 1.23D-05

 Cycle  14  Pass 1  IDiag  1:
 RMSU=  2.78D-08    CP:  9.47D-01  3.87D-01  1.10D+00  8.30D-01  1.34D+00
                    CP:  1.65D+00  1.67D+00  1.63D+00  2.08D+00  2.08D+00
                    CP:  1.50D+00  1.31D+00  1.23D+00
 E= -307.007800799010     Delta-E=       -0.000000000165 Rises=F Damp=F
 DIIS: error= 1.35D-07 at cycle  14 NSaved=  14.
 NSaved=14 IEnMin=14 EnMin= -307.007800799010     IErMin=14 ErrMin= 1.35D-07
 ErrMax= 1.35D-07  0.00D+00 EMaxC= 1.00D-01 BMatC= 2.21D-11 BMatP= 1.89D-10
 IDIUse=1 WtCom= 1.00D+00 WtEn= 0.00D+00
 Coeff-Com: -0.186D-05 0.338D-05 0.291D-04 0.742D-04 0.771D-04-0.817D-04
 Coeff-Com: -0.108D-02-0.551D-03 0.415D-02 0.692D-02-0.225D-01-0.536D-01
 Coeff-Com:  0.829D-01 0.984D+00
 Coeff:     -0.186D-05 0.338D-05 0.291D-04 0.742D-04 0.771D-04-0.817D-04
 Coeff:     -0.108D-02-0.551D-03 0.415D-02 0.692D-02-0.225D-01-0.536D-01
 Coeff:      0.829D-01 0.984D+00
 Gap=     0.305 Goal=   None    Shift=    0.000
 Gap=     0.283 Goal=   None    Shift=    0.000
 RMSDP=1.73D-08 MaxDP=6.71D-07 DE=-1.65D-10 OVMax= 2.13D-06

 Cycle  15  Pass 1  IDiag  1:
 RMSU=  1.03D-08    CP:  9.47D-01  3.87D-01  1.10D+00  8.30D-01  1.34D+00
                    CP:  1.65D+00  1.67D+00  1.63D+00  2.08D+00  2.08D+00
                    CP:  1.51D+00  1.33D+00  1.30D+00  1.20D+00
 E= -307.007800799022     Delta-E=       -0.000000000012 Rises=F Damp=F
 DIIS: error= 7.02D-08 at cycle  15 NSaved=  15.
 NSaved=15 IEnMin=15 EnMin= -307.007800799022     IErMin=15 ErrMin= 7.02D-08
 ErrMax= 7.02D-08  0.00D+00 EMaxC= 1.00D-01 BMatC= 6.15D-12 BMatP= 2.21D-11
 IDIUse=1 WtCom= 1.00D+00 WtEn= 0.00D+00
 Coeff-Com:  0.190D-05-0.441D-05-0.918D-05-0.213D-04 0.359D-04 0.132D-03
 Coeff-Com:  0.116D-03-0.921D-03-0.290D-02 0.953D-02 0.241D-02-0.228D-01
 Coeff-Com: -0.126D+00 0.339D+00 0.801D+00
 Coeff:      0.190D-05-0.441D-05-0.918D-05-0.213D-04 0.359D-04 0.132D-03
 Coeff:      0.116D-03-0.921D-03-0.290D-02 0.953D-02 0.241D-02-0.228D-01
 Coeff:     -0.126D+00 0.339D+00 0.801D+00
 Gap=     0.305 Goal=   None    Shift=    0.000
 Gap=     0.283 Goal=   None    Shift=    0.000
 RMSDP=7.26D-09 MaxDP=2.38D-07 DE=-1.23D-11 OVMax= 1.37D-06

 SCF Done:  E(UM062X) =  -307.007800799     A.U. after   15 cycles
            NFock= 15  Conv=0.73D-08     -V/T= 2.0056
 <Sx>= 0.0000 <Sy>= 0.0000 <Sz>= 0.5000 <S**2>= 0.7599 S= 0.5050
 <L.S>= 0.000000000000E+00
 KE= 3.053001839772D+02 PE=-1.178598561310D+03 EE= 3.359822549058D+02
 Annihilation of the first spin contaminant:
 S**2 before annihilation     0.7599,   after     0.7501
 Leave Link  502 at Tue Apr  9 01:52:05 2019, MaxMem=   671088640 cpu:             933.5 elap:              46.7
 (Enter /shared/centos7/gaussian/g16/l801.exe)
 DoSCS=F DFT=T ScalE2(SS,OS)=  1.000000  1.000000
 Range of M.O.s used for correlation:     1   267
 NBasis=   267 NAE=    24 NBE=    23 NFC=     0 NFV=     0
 NROrb=    267 NOA=    24 NOB=    23 NVA=   243 NVB=   244

 **** Warning!!: The largest alpha MO coefficient is  0.50872795D+02


 **** Warning!!: The largest beta MO coefficient is  0.53796220D+02

 Leave Link  801 at Tue Apr  9 01:52:05 2019, MaxMem=   671088640 cpu:               0.5 elap:               0.0
 (Enter /shared/centos7/gaussian/g16/l1101.exe)
 Using compressed storage, NAtomX=    13.
 Will process     14 centers per pass.
 Leave Link 1101 at Tue Apr  9 01:52:06 2019, MaxMem=   671088640 cpu:               6.5 elap:               0.4
 (Enter /shared/centos7/gaussian/g16/l1102.exe)
 Symmetrizing basis deriv contribution to polar:
 IMax=3 JMax=2 DiffMx= 0.00D+00
 Leave Link 1102 at Tue Apr  9 01:52:06 2019, MaxMem=   671088640 cpu:               0.5 elap:               0.1
 (Enter /shared/centos7/gaussian/g16/l1110.exe)
 Forming Gx(P) for the SCF density, NAtomX=    13.
 Integral derivatives from FoFJK, PRISM(SPDF).
 Do as many integral derivatives as possible in FoFJK.
 G2DrvN: MDV=     671087568.
 G2DrvN: will do    14 centers at a time, making    1 passes.
 Calling FoFCou, ICntrl=  3107 FMM=F I1Cent=   0 AccDes= 0.00D+00.
 FoFJK:  IHMeth= 1 ICntrl=    3107 DoSepK=F KAlg= 0 I1Cent=           0 FoldK=F
 IRaf=         0 NMat=       1 IRICut=       1 DoRegI=T DoRafI=F ISym2E= 0 IDoP0=0 IntGTp=1.
 FoFCou: FMM=F IPFlag=           0 FMFlag=      100000 FMFlg1=           0
         NFxFlg=           0 DoJE=F BraDBF=F KetDBF=F FulRan=T
         wScrn=  0.000000 ICntrl=      3107 IOpCl=  1 I1Cent=           0 NGrid=           0
         NMat0=    1 NMatS0=      1 NMatT0=    0 NMatD0=    1 NMtDS0=    0 NMtDT0=    0
 Symmetry not used in FoFCou.
 End of G2Drv F.D. properties file   721 does not exist.
 End of G2Drv F.D. properties file   722 does not exist.
 End of G2Drv F.D. properties file   788 does not exist.
 Leave Link 1110 at Tue Apr  9 01:53:23 2019, MaxMem=   671088640 cpu:            1538.1 elap:              76.9
 (Enter /shared/centos7/gaussian/g16/l1002.exe)
 Minotr:  UHF open shell wavefunction.
          IDoAtm=1111111111111
          Direct CPHF calculation.
          Differentiating once with respect to nuclear coordinates.
          Requested convergence is 1.0D-08 RMS, and 1.0D-07 maximum.
          Secondary convergence is 1.0D-12 RMS, and 1.0D-12 maximum.
          NewPWx=T KeepS1=F KeepF1=F KeepIn=T MapXYZ=F SortEE=F KeepMc=T.
         3980 words used for storage of precomputed grid.
 Two-electron integrals replicated using symmetry.
          MDV=     671088640 using IRadAn=       1.
          Solving linear equations simultaneously, MaxMat=     380.
 FoF2E skips out because all densities are zero.
 CalDSu exits because no D1Ps are significant.
 FoFJK:  IHMeth= 1 ICntrl=       0 DoSepK=F KAlg= 0 I1Cent=           0 FoldK=F
 IRaf= 940000000 NMat=      39 IRICut=      97 DoRegI=T DoRafI=T ISym2E= 2 IDoP0=3 IntGTp=3.
 FoFCou: FMM=F IPFlag=           0 FMFlag=      100000 FMFlg1=           0
         NFxFlg=           0 DoJE=F BraDBF=F KetDBF=F FulRan=T
         wScrn=  0.000000 ICntrl=         0 IOpCl=  1 I1Cent=           0 NGrid=           0
         NMat0=   39 NMatS0=     39 NMatT0=    0 NMatD0=   39 NMtDS0=    0 NMtDT0=    0
 Integrals replicated using symmetry in FoFCou.
 Raff kept on since  91.11% of shell-pairs survive, threshold=   0.20 IRatSp=91.
          There are    42 degrees of freedom in the 1st order CPHF.  IDoFFX=6 NUNeed=     0.
     36 vectors produced by pass  0 Test12= 2.72D-14 2.38D-09 XBig12= 1.49D-01 1.02D-01.
 AX will form    36 AO Fock derivatives at one time.
     36 vectors produced by pass  1 Test12= 2.72D-14 2.38D-09 XBig12= 1.67D-02 4.23D-02.
     36 vectors produced by pass  2 Test12= 2.72D-14 2.38D-09 XBig12= 8.72D-04 1.13D-02.
     36 vectors produced by pass  3 Test12= 2.72D-14 2.38D-09 XBig12= 1.36D-05 1.11D-03.
     36 vectors produced by pass  4 Test12= 2.72D-14 2.38D-09 XBig12= 1.50D-07 5.47D-05.
     36 vectors produced by pass  5 Test12= 2.72D-14 2.38D-09 XBig12= 1.75D-09 5.83D-06.
     36 vectors produced by pass  6 Test12= 2.72D-14 2.38D-09 XBig12= 1.73D-11 5.00D-07.
     18 vectors produced by pass  7 Test12= 2.72D-14 2.38D-09 XBig12= 1.49D-13 3.78D-08.
      3 vectors produced by pass  8 Test12= 2.72D-14 2.38D-09 XBig12= 1.38D-15 3.88D-09.
 InvSVY:  IOpt=1 It=  1 EMax= 3.77D-15
 Solved reduced A of dimension   273 with    36 vectors.
 End of Minotr F.D. properties file   721 does not exist.
 End of Minotr F.D. properties file   722 does not exist.
 End of Minotr F.D. properties file   788 does not exist.
 Leave Link 1002 at Tue Apr  9 01:55:22 2019, MaxMem=   671088640 cpu:            2389.6 elap:             119.5
 (Enter /shared/centos7/gaussian/g16/l601.exe)
 Copying SCF densities to generalized density rwf, IOpCl= 1 IROHF=0.

 **********************************************************************

            Population analysis using the SCF density.

 **********************************************************************

 Orbital symmetries:
 Alpha Orbitals:
       Occupied  (A) (A) (A) (A) (A) (A) (A) (A) (A) (A) (A) (A)
                 (A) (A) (A) (A) (A) (A) (A) (A) (A) (A) (A) (A)
       Virtual   (A) (A) (A) (A) (A) (A) (A) (A) (A) (A) (A) (A)
                 (A) (A) (A) (A) (A) (A) (A) (A) (A) (A) (A) (A)
                 (A) (A) (A) (A) (A) (A) (A) (A) (A) (A) (A) (A)
                 (A) (A) (A) (A) (A) (A) (A) (A) (A) (A) (A) (A)
                 (A) (A) (A) (A) (A) (A) (A) (A) (A) (A) (A) (A)
                 (A) (A) (A) (A) (A) (A) (A) (A) (A) (A) (A) (A)
                 (A) (A) (A) (A) (A) (A) (A) (A) (A) (A) (A) (A)
                 (A) (A) (A) (A) (A) (A) (A) (A) (A) (A) (A) (A)
                 (A) (A) (A) (A) (A) (A) (A) (A) (A) (A) (A) (A)
                 (A) (A) (A) (A) (A) (A) (A) (A) (A) (A) (A) (A)
                 (A) (A) (A) (A) (A) (A) (A) (A) (A) (A) (A) (A)
                 (A) (A) (A) (A) (A) (A) (A) (A) (A) (A) (A) (A)
                 (A) (A) (A) (A) (A) (A) (A) (A) (A) (A) (A) (A)
                 (A) (A) (A) (A) (A) (A) (A) (A) (A) (A) (A) (A)
                 (A) (A) (A) (A) (A) (A) (A) (A) (A) (A) (A) (A)
                 (A) (A) (A) (A) (A) (A) (A) (A) (A) (A) (A) (A)
                 (A) (A) (A) (A) (A) (A) (A) (A) (A) (A) (A) (A)
                 (A) (A) (A) (A) (A) (A) (A) (A) (A) (A) (A) (A)
                 (A) (A) (A) (A) (A) (A) (A) (A) (A) (A) (A) (A)
                 (A) (A) (A) (A) (A) (A) (A) (A) (A) (A) (A) (A)
                 (A) (A) (A)
 Beta  Orbitals:
       Occupied  (A) (A) (A) (A) (A) (A) (A) (A) (A) (A) (A) (A)
                 (A) (A) (A) (A) (A) (A) (A) (A) (A) (A) (A)
       Virtual   (A) (A) (A) (A) (A) (A) (A) (A) (A) (A) (A) (A)
                 (A) (A) (A) (A) (A) (A) (A) (A) (A) (A) (A) (A)
                 (A) (A) (A) (A) (A) (A) (A) (A) (A) (A) (A) (A)
                 (A) (A) (A) (A) (A) (A) (A) (A) (A) (A) (A) (A)
                 (A) (A) (A) (A) (A) (A) (A) (A) (A) (A) (A) (A)
                 (A) (A) (A) (A) (A) (A) (A) (A) (A) (A) (A) (A)
                 (A) (A) (A) (A) (A) (A) (A) (A) (A) (A) (A) (A)
                 (A) (A) (A) (A) (A) (A) (A) (A) (A) (A) (A) (A)
                 (A) (A) (A) (A) (A) (A) (A) (A) (A) (A) (A) (A)
                 (A) (A) (A) (A) (A) (A) (A) (A) (A) (A) (A) (A)
                 (A) (A) (A) (A) (A) (A) (A) (A) (A) (A) (A) (A)
                 (A) (A) (A) (A) (A) (A) (A) (A) (A) (A) (A) (A)
                 (A) (A) (A) (A) (A) (A) (A) (A) (A) (A) (A) (A)
                 (A) (A) (A) (A) (A) (A) (A) (A) (A) (A) (A) (A)
                 (A) (A) (A) (A) (A) (A) (A) (A) (A) (A) (A) (A)
                 (A) (A) (A) (A) (A) (A) (A) (A) (A) (A) (A) (A)
                 (A) (A) (A) (A) (A) (A) (A) (A) (A) (A) (A) (A)
                 (A) (A) (A) (A) (A) (A) (A) (A) (A) (A) (A) (A)
                 (A) (A) (A) (A) (A) (A) (A) (A) (A) (A) (A) (A)
                 (A) (A) (A) (A) (A) (A) (A) (A) (A) (A) (A) (A)
                 (A) (A) (A) (A)
 The electronic state is 2-A.
 Alpha  occ. eigenvalues --  -19.66986 -19.61902 -10.68204 -10.59440 -10.59030
 Alpha  occ. eigenvalues --  -10.55657  -1.21454  -1.12647  -0.89436  -0.81396
 Alpha  occ. eigenvalues --   -0.73414  -0.63658  -0.59284  -0.56005  -0.55575
 Alpha  occ. eigenvalues --   -0.50922  -0.50326  -0.47070  -0.45893  -0.44650
 Alpha  occ. eigenvalues --   -0.42571  -0.38030  -0.36372  -0.29348
 Alpha virt. eigenvalues --    0.01112   0.02435   0.03426   0.04678   0.04967
 Alpha virt. eigenvalues --    0.05777   0.05894   0.06296   0.08004   0.08946
 Alpha virt. eigenvalues --    0.10184   0.10586   0.11653   0.12253   0.14587
 Alpha virt. eigenvalues --    0.16115   0.17400   0.18170   0.19130   0.20376
 Alpha virt. eigenvalues --    0.21519   0.22160   0.22484   0.23273   0.24761
 Alpha virt. eigenvalues --    0.25719   0.27039   0.28476   0.28783   0.30246
 Alpha virt. eigenvalues --    0.30892   0.33844   0.33962   0.35169   0.38033
 Alpha virt. eigenvalues --    0.39324   0.43921   0.44727   0.45568   0.46418
 Alpha virt. eigenvalues --    0.49097   0.51064   0.51718   0.54390   0.54424
 Alpha virt. eigenvalues --    0.55698   0.56350   0.57197   0.59215   0.60795
 Alpha virt. eigenvalues --    0.61665   0.62735   0.63580   0.65327   0.65951
 Alpha virt. eigenvalues --    0.66518   0.67869   0.73721   0.74851   0.75665
 Alpha virt. eigenvalues --    0.80642   0.82191   0.85507   0.87101   0.88577
 Alpha virt. eigenvalues --    0.90721   0.91020   0.93296   0.96938   0.97683
 Alpha virt. eigenvalues --    1.01768   1.03646   1.05355   1.07011   1.08272
 Alpha virt. eigenvalues --    1.10320   1.11059   1.13409   1.15199   1.15385
 Alpha virt. eigenvalues --    1.16393   1.19016   1.21330   1.22393   1.22810
 Alpha virt. eigenvalues --    1.24230   1.25764   1.27952   1.29171   1.32216
 Alpha virt. eigenvalues --    1.35448   1.35559   1.37239   1.38955   1.39486
 Alpha virt. eigenvalues --    1.42993   1.43102   1.44509   1.46384   1.47983
 Alpha virt. eigenvalues --    1.50075   1.54823   1.56129   1.56332   1.63886
 Alpha virt. eigenvalues --    1.66633   1.67607   1.70770   1.74401   1.81585
 Alpha virt. eigenvalues --    1.84163   1.94440   2.00108   2.14918   2.16799
 Alpha virt. eigenvalues --    2.27966   2.35130   2.39970   2.43180   2.45099
 Alpha virt. eigenvalues --    2.46140   2.52088   2.54751   2.58445   2.63391
 Alpha virt. eigenvalues --    2.66829   2.70522   2.75148   2.78800   2.80725
 Alpha virt. eigenvalues --    2.82487   2.84597   2.92028   2.92522   2.96318
 Alpha virt. eigenvalues --    2.97036   2.98987   3.05796   3.07913   3.08996
 Alpha virt. eigenvalues --    3.10364   3.11804   3.13166   3.14464   3.16647
 Alpha virt. eigenvalues --    3.19200   3.19600   3.22154   3.23015   3.24519
 Alpha virt. eigenvalues --    3.28227   3.31112   3.32868   3.34982   3.35403
 Alpha virt. eigenvalues --    3.39268   3.43577   3.45231   3.46207   3.49008
 Alpha virt. eigenvalues --    3.51278   3.54461   3.54813   3.57298   3.58014
 Alpha virt. eigenvalues --    3.62186   3.64844   3.67831   3.71309   3.73170
 Alpha virt. eigenvalues --    3.78976   3.80915   3.82722   3.85387   3.85935
 Alpha virt. eigenvalues --    3.87551   3.95055   3.97103   3.99434   4.06083
 Alpha virt. eigenvalues --    4.07799   4.09029   4.12864   4.13282   4.13733
 Alpha virt. eigenvalues --    4.15798   4.20745   4.22663   4.24946   4.28048
 Alpha virt. eigenvalues --    4.29629   4.30573   4.36057   4.39153   4.41982
 Alpha virt. eigenvalues --    4.46784   4.50186   4.57657   4.80675   4.89733
 Alpha virt. eigenvalues --    4.91583   5.09349   5.09773   5.13645   5.19596
 Alpha virt. eigenvalues --    5.19904   5.21231   5.25587   5.34501   5.36149
 Alpha virt. eigenvalues --    5.38151   5.46090   5.46458   5.47680   5.49502
 Alpha virt. eigenvalues --    5.50602   5.55468   5.63068   5.70137   5.73611
 Alpha virt. eigenvalues --    5.83192   5.96451   6.17137   6.40009   6.57366
 Alpha virt. eigenvalues --    6.83125   6.85448   6.91561   7.00023   7.10080
 Alpha virt. eigenvalues --    7.17329   7.21975   7.27408   7.50881   7.60765
 Alpha virt. eigenvalues --    7.74437   7.77935  24.13654  24.31985  24.34870
 Alpha virt. eigenvalues --   24.67469  50.13958  50.23877
  Beta  occ. eigenvalues --  -19.66918 -19.61593 -10.68287 -10.59032 -10.58867
  Beta  occ. eigenvalues --  -10.55709  -1.21148  -1.11918  -0.87256  -0.81227
  Beta  occ. eigenvalues --   -0.72124  -0.63078  -0.58397  -0.55196  -0.55119
  Beta  occ. eigenvalues --   -0.50433  -0.48416  -0.46378  -0.44563  -0.44289
  Beta  occ. eigenvalues --   -0.42442  -0.36364  -0.35665
  Beta virt. eigenvalues --   -0.07356   0.00864   0.02476   0.03504   0.04293
  Beta virt. eigenvalues --    0.04911   0.05771   0.06257   0.07582   0.08058
  Beta virt. eigenvalues --    0.08376   0.09631   0.10504   0.12301   0.12636
  Beta virt. eigenvalues --    0.14298   0.15649   0.17410   0.18482   0.19434
  Beta virt. eigenvalues --    0.20263   0.21706   0.22207   0.22562   0.23669
  Beta virt. eigenvalues --    0.24889   0.25744   0.27158   0.28665   0.29108
  Beta virt. eigenvalues --    0.30766   0.31344   0.33984   0.34162   0.35317
  Beta virt. eigenvalues --    0.38124   0.39726   0.44052   0.44805   0.45550
  Beta virt. eigenvalues --    0.46897   0.49556   0.51423   0.52332   0.54615
  Beta virt. eigenvalues --    0.55019   0.56238   0.56885   0.57712   0.59474
  Beta virt. eigenvalues --    0.61283   0.61572   0.63563   0.64517   0.65345
  Beta virt. eigenvalues --    0.66246   0.66593   0.67747   0.73469   0.74718
  Beta virt. eigenvalues --    0.76040   0.80473   0.81681   0.85751   0.86693
  Beta virt. eigenvalues --    0.88533   0.90664   0.91152   0.93041   0.96358
  Beta virt. eigenvalues --    0.97328   1.01820   1.03793   1.05227   1.07144
  Beta virt. eigenvalues --    1.08252   1.10128   1.10815   1.13436   1.15475
  Beta virt. eigenvalues --    1.15731   1.16452   1.19256   1.21270   1.22669
  Beta virt. eigenvalues --    1.23139   1.24372   1.26067   1.28526   1.29389
  Beta virt. eigenvalues --    1.32571   1.35327   1.35664   1.37524   1.39213
  Beta virt. eigenvalues --    1.39730   1.43229   1.43353   1.44620   1.46382
  Beta virt. eigenvalues --    1.47775   1.51240   1.54894   1.55941   1.56831
  Beta virt. eigenvalues --    1.64060   1.67310   1.68097   1.71379   1.74568
  Beta virt. eigenvalues --    1.81856   1.84617   1.94649   2.00520   2.15539
  Beta virt. eigenvalues --    2.17246   2.28183   2.35867   2.40247   2.43740
  Beta virt. eigenvalues --    2.45888   2.47005   2.52522   2.55299   2.59030
  Beta virt. eigenvalues --    2.63970   2.68395   2.72920   2.78190   2.82687
  Beta virt. eigenvalues --    2.83273   2.84869   2.86743   2.93863   2.94833
  Beta virt. eigenvalues --    2.96970   2.97957   3.00425   3.07030   3.08350
  Beta virt. eigenvalues --    3.09316   3.11238   3.12664   3.14080   3.14788
  Beta virt. eigenvalues --    3.17162   3.19827   3.20608   3.23440   3.24562
  Beta virt. eigenvalues --    3.26392   3.30011   3.33487   3.33685   3.36175
  Beta virt. eigenvalues --    3.37401   3.39783   3.45210   3.45987   3.48201
  Beta virt. eigenvalues --    3.50035   3.53527   3.55469   3.56752   3.58623
  Beta virt. eigenvalues --    3.58830   3.64751   3.65487   3.68601   3.72101
  Beta virt. eigenvalues --    3.74103   3.79741   3.80980   3.83205   3.85884
  Beta virt. eigenvalues --    3.86289   3.88360   3.95398   3.98408   4.00667
  Beta virt. eigenvalues --    4.07272   4.10199   4.11117   4.13594   4.14420
  Beta virt. eigenvalues --    4.15553   4.17350   4.21963   4.24528   4.26375
  Beta virt. eigenvalues --    4.28558   4.30302   4.31076   4.36626   4.39656
  Beta virt. eigenvalues --    4.43196   4.48503   4.52259   4.62646   4.84753
  Beta virt. eigenvalues --    4.89972   4.94648   5.10159   5.10934   5.14035
  Beta virt. eigenvalues --    5.20363   5.21327   5.23372   5.25877   5.35140
  Beta virt. eigenvalues --    5.37690   5.39940   5.46200   5.46996   5.47682
  Beta virt. eigenvalues --    5.49511   5.51304   5.56447   5.64150   5.71154
  Beta virt. eigenvalues --    5.73903   5.83514   5.96634   6.17857   6.40155
  Beta virt. eigenvalues --    6.57534   6.85439   6.86488   6.93633   7.00349
  Beta virt. eigenvalues --    7.10498   7.18397   7.22389   7.28420   7.51333
  Beta virt. eigenvalues --    7.61496   7.74818   7.77903  24.14712  24.31977
  Beta virt. eigenvalues --   24.35333  24.67632  50.13873  50.23508
          Condensed to atoms (all electrons):
               1          2          3          4          5          6
     1  O    8.167849  -0.069964   0.012036   0.140846  -0.190596   0.228380
     2  O   -0.069964   8.172867   0.013055  -0.047834  -0.032006   0.368335
     3  C    0.012036   0.013055   5.049060  -0.010161   0.208376  -0.014703
     4  C    0.140846  -0.047834  -0.010161   5.001520  -0.103955  -0.079919
     5  C   -0.190596  -0.032006   0.208376  -0.103955   5.952553  -0.104079
     6  C    0.228380   0.368335  -0.014703  -0.079919  -0.104079   5.425622
     7  H    0.000186  -0.000156   0.407969  -0.000698  -0.044363   0.004704
     8  H   -0.000290  -0.001263   0.406093  -0.000469  -0.017838  -0.022706
     9  H   -0.000236   0.000416   0.410880   0.000680  -0.061561   0.027742
    10  H   -0.056090   0.004003   0.000463   0.411793   0.006133   0.016013
    11  H   -0.028650  -0.010307  -0.001931   0.426678  -0.003402   0.000648
    12  H   -0.044002  -0.004434  -0.000359   0.434890  -0.005146   0.004546
    13  H    0.004750   0.003160  -0.026009   0.003378   0.353517   0.010726
               7          8          9         10         11         12
     1  O    0.000186  -0.000290  -0.000236  -0.056090  -0.028650  -0.044002
     2  O   -0.000156  -0.001263   0.000416   0.004003  -0.010307  -0.004434
     3  C    0.407969   0.406093   0.410880   0.000463  -0.001931  -0.000359
     4  C   -0.000698  -0.000469   0.000680   0.411793   0.426678   0.434890
     5  C   -0.044363  -0.017838  -0.061561   0.006133  -0.003402  -0.005146
     6  C    0.004704  -0.022706   0.027742   0.016013   0.000648   0.004546
     7  H    0.527535  -0.027292  -0.022795   0.000001  -0.000010   0.000005
     8  H   -0.027292   0.543574  -0.030053  -0.000001   0.000009  -0.000004
     9  H   -0.022795  -0.030053   0.552859  -0.000001  -0.000000   0.000000
    10  H    0.000001  -0.000001  -0.000001   0.545218  -0.026978  -0.027939
    11  H   -0.000010   0.000009  -0.000000  -0.026978   0.542947  -0.033393
    12  H    0.000005  -0.000004   0.000000  -0.027939  -0.033393   0.541271
    13  H    0.003564   0.001860  -0.007371  -0.000038  -0.000005   0.000008
              13
     1  O    0.004750
     2  O    0.003160
     3  C   -0.026009
     4  C    0.003378
     5  C    0.353517
     6  C    0.010726
     7  H    0.003564
     8  H    0.001860
     9  H   -0.007371
    10  H   -0.000038
    11  H   -0.000005
    12  H    0.000008
    13  H    0.463452
          Atomic-Atomic Spin Densities.
               1          2          3          4          5          6
     1  O    0.028407   0.007517   0.003085  -0.002118  -0.025645   0.012265
     2  O    0.007517   0.198296   0.004372  -0.001819  -0.025244  -0.019180
     3  C    0.003085   0.004372  -0.026504   0.000631  -0.060183  -0.007788
     4  C   -0.002118  -0.001819   0.000631  -0.002604  -0.005655   0.006993
     5  C   -0.025645  -0.025244  -0.060183  -0.005655   1.048586   0.020861
     6  C    0.012265  -0.019180  -0.007788   0.006993   0.020861  -0.088701
     7  H    0.000121   0.001121   0.007084   0.000018  -0.013461   0.002145
     8  H   -0.000012   0.001360   0.033254  -0.000170  -0.034659  -0.004037
     9  H    0.000041  -0.000101   0.000462   0.000056  -0.008291   0.004261
    10  H    0.000310  -0.000094  -0.000035   0.000122   0.000271  -0.000506
    11  H   -0.000131  -0.001112  -0.000001   0.000522   0.001358  -0.000523
    12  H   -0.001086  -0.000389  -0.000021   0.000612  -0.000893   0.000922
    13  H   -0.000254   0.000148   0.006324   0.000249  -0.015570   0.009813
               7          8          9         10         11         12
     1  O    0.000121  -0.000012   0.000041   0.000310  -0.000131  -0.001086
     2  O    0.001121   0.001360  -0.000101  -0.000094  -0.001112  -0.000389
     3  C    0.007084   0.033254   0.000462  -0.000035  -0.000001  -0.000021
     4  C    0.000018  -0.000170   0.000056   0.000122   0.000522   0.000612
     5  C   -0.013461  -0.034659  -0.008291   0.000271   0.001358  -0.000893
     6  C    0.002145  -0.004037   0.004261  -0.000506  -0.000523   0.000922
     7  H    0.026475  -0.010065   0.004538  -0.000001  -0.000013   0.000006
     8  H   -0.010065   0.066160  -0.008254   0.000000   0.000005  -0.000007
     9  H    0.004538  -0.008254   0.018316  -0.000000  -0.000001   0.000001
    10  H   -0.000001   0.000000  -0.000000   0.000202   0.000170  -0.000251
    11  H   -0.000013   0.000005  -0.000001   0.000170   0.000755  -0.000519
    12  H    0.000006  -0.000007   0.000001  -0.000251  -0.000519   0.004871
    13  H   -0.000274   0.000202   0.000002  -0.000002   0.000005   0.000004
              13
     1  O   -0.000254
     2  O    0.000148
     3  C    0.006324
     4  C    0.000249
     5  C   -0.015570
     6  C    0.009813
     7  H   -0.000274
     8  H    0.000202
     9  H    0.000002
    10  H   -0.000002
    11  H    0.000005
    12  H    0.000004
    13  H   -0.039990
 Mulliken charges and spin densities:
               1          2
     1  O   -0.164220   0.022500
     2  O   -0.395872   0.164874
     3  C   -0.454771  -0.039320
     4  C   -0.176748  -0.003161
     5  C    0.042367   0.881475
     6  C    0.134691  -0.063476
     7  H    0.151351   0.017695
     8  H    0.148380   0.043778
     9  H    0.129440   0.011029
    10  H    0.127423   0.000186
    11  H    0.134394   0.000515
    12  H    0.134559   0.003251
    13  H    0.189007  -0.039345
 Sum of Mulliken charges =  -0.00000   1.00000
 Mulliken charges and spin densities with hydrogens summed into heavy atoms:
               1          2
     1  O   -0.164220   0.022500
     2  O   -0.395872   0.164874
     3  C   -0.025600   0.033181
     4  C    0.219627   0.000790
     5  C    0.231374   0.842130
     6  C    0.134691  -0.063476
 APT charges:
               1
     1  O   -0.063305
     2  O   -0.375689
     3  C   -1.310628
     4  C   -1.251569
     5  C   -0.225635
     6  C    0.167556
     7  H    0.299277
     8  H    0.425048
     9  H    0.578097
    10  H    0.585057
    11  H    0.303834
    12  H    0.408090
    13  H    0.459868
 Sum of APT charges =  -0.00000
 APT charges with hydrogens summed into heavy atoms:
               1
     1  O   -0.063305
     2  O   -0.375689
     3  C   -0.008206
     4  C    0.045411
     5  C    0.234233
     6  C    0.167556
 Electronic spatial extent (au):  <R**2>=            704.4490
 Charge=             -0.0000 electrons
 Dipole moment (field-independent basis, Debye):
    X=              0.7592    Y=             -1.6704    Z=             -0.0885  Tot=              1.8370
 Quadrupole moment (field-independent basis, Debye-Ang):
   XX=            -27.9650   YY=            -40.7498   ZZ=            -36.5691
   XY=             -1.4988   XZ=              0.2910   YZ=             -0.2662
 Traceless Quadrupole moment (field-independent basis, Debye-Ang):
   XX=              7.1297   YY=             -5.6552   ZZ=             -1.4745
   XY=             -1.4988   XZ=              0.2910   YZ=             -0.2662
 Octapole moment (field-independent basis, Debye-Ang**2):
  XXX=             -9.1648  YYY=             -5.5366  ZZZ=              1.1428  XYY=              1.7298
  XXY=             -0.3485  XXZ=             -0.4432  XZZ=             -2.4591  YZZ=              2.0610
  YYZ=             -1.0289  XYZ=             -0.0962
 Hexadecapole moment (field-independent basis, Debye-Ang**3):
 XXXX=           -671.3094 YYYY=           -159.6721 ZZZZ=            -51.6571 XXXY=              3.4652
 XXXZ=              1.9093 YYYX=             -1.5579 YYYZ=             -1.5717 ZZZX=              0.4752
 ZZZY=              0.2245 XXYY=           -143.8551 XXZZ=           -127.3104 YYZZ=            -35.2167
 XXYZ=              3.3655 YYXZ=              0.2232 ZZXY=              1.3838
 N-N= 2.303083216277D+02 E-N=-1.178598560745D+03  KE= 3.053001839772D+02
  Exact polarizability:   0.000   0.000   0.000   0.000   0.000   0.000
 Approx polarizability:  71.287  -0.912  73.047   0.124  -0.026  53.410
                          Isotropic Fermi Contact Couplings
        Atom                 a.u.       MegaHertz       Gauss      10(-4) cm-1
     1  O(17)              0.00070      -0.42530      -0.15176      -0.14186
     2  O(17)              0.03656     -22.16095      -7.90758      -7.39210
     3  C(13)             -0.02936     -33.00312     -11.77633     -11.00866
     4  C(13)             -0.00144      -1.62223      -0.57885      -0.54112
     5  C(13)              0.15143     170.23073      60.74256      56.78286
     6  C(13)             -0.04751     -53.41492     -19.05977     -17.81730
     7  H(1)               0.00889      39.72079      14.17337      13.24943
     8  H(1)               0.02635     117.78768      42.02957      39.28974
     9  H(1)               0.00498      22.25966       7.94280       7.42502
    10  H(1)               0.00004       0.17146       0.06118       0.05719
    11  H(1)               0.00076       3.39512       1.21146       1.13249
    12  H(1)               0.00160       7.13917       2.54743       2.38137
    13  H(1)              -0.01495     -66.83812     -23.84950     -22.29480
 --------------------------------------------------------
       Center         ----  Spin Dipole Couplings  ----
                      3XX-RR        3YY-RR        3ZZ-RR
 --------------------------------------------------------
     1   Atom       -0.060334     -0.074568      0.134902
     2   Atom       -0.330314     -0.340576      0.670890
     3   Atom       -0.003709     -0.012690      0.016399
     4   Atom        0.003849     -0.002968     -0.000881
     5   Atom       -0.484172     -0.468971      0.953143
     6   Atom        0.020282      0.020839     -0.041121
     7   Atom        0.002111      0.004851     -0.006962
     8   Atom        0.007540     -0.004455     -0.003085
     9   Atom        0.014113     -0.007420     -0.006693
    10   Atom        0.003427     -0.001612     -0.001815
    11   Atom        0.004596     -0.001799     -0.002797
    12   Atom        0.003681     -0.001797     -0.001884
    13   Atom       -0.059349      0.067099     -0.007750
 --------------------------------------------------------
                        XY            XZ            YZ
 --------------------------------------------------------
     1   Atom       -0.004284     -0.014203      0.007857
     2   Atom        0.006884      0.077139     -0.014985
     3   Atom        0.004400      0.002037      0.002639
     4   Atom        0.000383     -0.000373     -0.000598
     5   Atom        0.000492      0.052462      0.102903
     6   Atom       -0.012411      0.000066     -0.002069
     7   Atom        0.009304     -0.004776     -0.004511
     8   Atom        0.009076      0.007451      0.004732
     9   Atom       -0.000572     -0.003901     -0.000713
    10   Atom        0.000634      0.000526      0.000006
    11   Atom       -0.000937      0.002231     -0.000409
    12   Atom       -0.000589     -0.001774      0.000357
    13   Atom       -0.002379      0.002072     -0.006552
 --------------------------------------------------------


 ---------------------------------------------------------------------------------
              Anisotropic Spin Dipole Couplings in Principal Axis System
 ---------------------------------------------------------------------------------

       Atom             a.u.   MegaHertz   Gauss  10(-4) cm-1        Axes

              Baa    -0.0758     5.487     1.958     1.830  0.2500  0.9681 -0.0192
     1 O(17)  Bbb    -0.0604     4.372     1.560     1.458  0.9655 -0.2477  0.0802
              Bcc     0.1362    -9.859    -3.518    -3.288 -0.0728  0.0386  0.9966
 
              Baa    -0.3468    25.096     8.955     8.371 -0.6000  0.7979  0.0572
     2 O(17)  Bbb    -0.3302    23.891     8.525     7.969  0.7964  0.6026 -0.0523
              Bcc     0.6770   -48.987   -17.480   -16.340  0.0763 -0.0142  0.9970
 
              Baa    -0.0146    -1.956    -0.698    -0.653 -0.3658  0.9291 -0.0551
     3 C(13)  Bbb    -0.0024    -0.315    -0.113    -0.105  0.9229  0.3544 -0.1501
              Bcc     0.0169     2.272     0.811     0.758  0.1200  0.1058  0.9871
 
              Baa    -0.0031    -0.421    -0.150    -0.140 -0.0397  0.9675  0.2497
     4 C(13)  Bbb    -0.0008    -0.103    -0.037    -0.034  0.0983 -0.2449  0.9646
              Bcc     0.0039     0.524     0.187     0.175  0.9944  0.0628 -0.0854
 
              Baa    -0.4871   -65.360   -23.322   -21.802  0.9556  0.2895 -0.0555
     5 C(13)  Bbb    -0.4754   -63.791   -22.762   -21.278 -0.2926  0.9545 -0.0580
              Bcc     0.9624   129.151    46.084    43.080  0.0362  0.0717  0.9968
 
              Baa    -0.0412    -5.528    -1.972    -1.844  0.0059  0.0345  0.9994
     6 C(13)  Bbb     0.0082     1.098     0.392     0.366  0.7159  0.6976 -0.0283
              Bcc     0.0330     4.429     1.580     1.477 -0.6982  0.7156 -0.0206
 
              Baa    -0.0091    -4.829    -1.723    -1.611  0.3343  0.0809  0.9390
     7 H(1)   Bbb    -0.0058    -3.091    -1.103    -1.031  0.6983 -0.6904 -0.1891
              Bcc     0.0148     7.921     2.826     2.642  0.6330  0.7189 -0.2873
 
              Baa    -0.0095    -5.058    -1.805    -1.687 -0.3834  0.8976 -0.2176
     8 H(1)   Bbb    -0.0069    -3.693    -1.318    -1.232 -0.4656  0.0156  0.8848
              Bcc     0.0164     8.751     3.123     2.919  0.7976  0.4406  0.4120
 
              Baa    -0.0082    -4.385    -1.565    -1.463  0.1383  0.7131  0.6873
     9 H(1)   Bbb    -0.0066    -3.527    -1.259    -1.176  0.1132 -0.7008  0.7043
              Bcc     0.0148     7.912     2.823     2.639  0.9839 -0.0196 -0.1777
 
              Baa    -0.0019    -1.005    -0.359    -0.335 -0.1274  0.2774  0.9523
    10 H(1)   Bbb    -0.0017    -0.893    -0.319    -0.298 -0.0887  0.9530 -0.2895
              Bcc     0.0036     1.897     0.677     0.633  0.9879  0.1214  0.0968
 
              Baa    -0.0034    -1.831    -0.653    -0.611 -0.2564  0.0936  0.9620
    11 H(1)   Bbb    -0.0019    -1.029    -0.367    -0.343  0.1598  0.9857 -0.0533
              Bcc     0.0054     2.860     1.021     0.954  0.9533 -0.1401  0.2677
 
              Baa    -0.0025    -1.310    -0.467    -0.437  0.2402 -0.2883  0.9269
    12 H(1)   Bbb    -0.0018    -0.969    -0.346    -0.323  0.1822  0.9513  0.2486
              Bcc     0.0043     2.279     0.813     0.760  0.9535 -0.1091 -0.2811
 
              Baa    -0.0595   -31.729   -11.322   -10.584  0.9991  0.0168 -0.0379
    13 H(1)   Bbb    -0.0083    -4.403    -1.571    -1.469  0.0363  0.0877  0.9955
              Bcc     0.0677    36.132    12.893    12.052 -0.0201  0.9960 -0.0870
 

 ---------------------------------------------------------------------------------

 No NMR shielding tensors so no spin-rotation constants.
 Leave Link  601 at Tue Apr  9 01:55:23 2019, MaxMem=   671088640 cpu:               7.4 elap:               0.4
 (Enter /shared/centos7/gaussian/g16/l701.exe)
 SCFChk:  SCF convergence  7.26D-09 required  1.00D-08
 ... and contract with generalized density number  0.
 Compute integral second derivatives.
 Entering OneElI...
 Calculate overlap and kinetic energy integrals
    NBasis = 297  MinDer = 2  MaxDer = 2
 Requested accuracy = 0.1000D-12
 PrmmSu-InSpLW:  IPartL=    0 NPrtUS=   20 NPrtUL=    1 DoSpLW=F IThBeg=    0 IThEnd=   19 NThAct=   20.
 PrsmSu:  NPrtUS=  20 ThrOK=T IAlg=1 NPAlg=1 LenDen=           0 ISkipM=0 DoSpLW=F IThBeg=    0 IThEnd=   19.
 Prism:   IPart=     0 DynPar=F LinDyn=F Incr=           1.
 PRISM was handed    33456518 working-precision words and  3439 shell-pairs
 PRISM was handed    33456518 working-precision words and  3439 shell-pairs
 PRISM was handed    33456518 working-precision words and  3439 shell-pairs
 PRISM was handed    33456518 working-precision words and  3439 shell-pairs
 PRISM was handed    33456518 working-precision words and  3439 shell-pairs
 PRISM was handed    33456518 working-precision words and  3439 shell-pairs
 PRISM was handed    33456518 working-precision words and  3439 shell-pairs
 PRISM was handed    33456518 working-precision words and  3439 shell-pairs
 PRISM was handed    33456518 working-precision words and  3439 shell-pairs
 PRISM was handed    33456518 working-precision words and  3439 shell-pairs
 PRISM was handed    33456518 working-precision words and  3439 shell-pairs
 PRISM was handed    33456518 working-precision words and  3439 shell-pairs
 PRISM was handed    33456518 working-precision words and  3439 shell-pairs
 PRISM was handed    33456518 working-precision words and  3439 shell-pairs
 PRISM was handed    33456518 working-precision words and  3439 shell-pairs
 PRISM was handed    33456518 working-precision words and  3439 shell-pairs
 PRISM was handed    33456518 working-precision words and  3439 shell-pairs
 PRISM was handed    33456518 working-precision words and  3439 shell-pairs
 PRISM was handed    33456518 working-precision words and  3439 shell-pairs
 PRISM was handed    33456518 working-precision words and  3439 shell-pairs
 IPart=  7 NShTot=         176 NBatch=          35 AvBLen=         5.0
 IPart=  1 NShTot=         199 NBatch=          54 AvBLen=         3.7
 IPart=  6 NShTot=         180 NBatch=          38 AvBLen=         4.7
 IPart=  4 NShTot=         188 NBatch=          45 AvBLen=         4.2
 IPart=  5 NShTot=         185 NBatch=          42 AvBLen=         4.4
 IPart=  3 NShTot=         192 NBatch=          48 AvBLen=         4.0
 IPart=  8 NShTot=         174 NBatch=          34 AvBLen=         5.1
 IPart=  2 NShTot=         194 NBatch=          50 AvBLen=         3.9
 IPart=  0 NShTot=         207 NBatch=          61 AvBLen=         3.4
 IPart= 10 NShTot=         167 NBatch=          32 AvBLen=         5.2
 IPart= 13 NShTot=         161 NBatch=          32 AvBLen=         5.0
 IPart= 11 NShTot=         165 NBatch=          32 AvBLen=         5.2
 IPart= 14 NShTot=         159 NBatch=          31 AvBLen=         5.1
 IPart= 15 NShTot=         157 NBatch=          30 AvBLen=         5.2
 IPart= 19 NShTot=         148 NBatch=          30 AvBLen=         4.9
 IPart=  9 NShTot=         170 NBatch=          33 AvBLen=         5.2
 IPart= 17 NShTot=         151 NBatch=          30 AvBLen=         5.0
 IPart= 16 NShTot=         154 NBatch=          30 AvBLen=         5.1
 IPart= 12 NShTot=         162 NBatch=          32 AvBLen=         5.1
 IPart= 18 NShTot=         150 NBatch=          30 AvBLen=         5.0
 PrSmSu:  NxtVal=             21.
 Entering OneElI...
 Calculate potential energy integrals
    NBasis = 297  MinDer = 2  MaxDer = 2
 Requested accuracy = 0.1000D-12
 PrmmSu-InSpLW:  IPartL=    0 NPrtUS=   20 NPrtUL=    1 DoSpLW=F IThBeg=    0 IThEnd=   19 NThAct=   20.
 PrsmSu:  NPrtUS=  20 ThrOK=T IAlg=1 NPAlg=1 LenDen=           0 ISkipM=0 DoSpLW=F IThBeg=    0 IThEnd=   19.
 Prism:   IPart=     0 DynPar=F LinDyn=F Incr=          20.
 PRISM was handed    33471654 working-precision words and  3143 shell-pairs
 PRISM was handed    33471654 working-precision words and  3143 shell-pairs
 PRISM was handed    33471654 working-precision words and  3143 shell-pairs
 PRISM was handed    33471654 working-precision words and  3143 shell-pairs
 PRISM was handed    33471654 working-precision words and  3143 shell-pairs
 PRISM was handed    33471654 working-precision words and  3143 shell-pairs
 PRISM was handed    33471654 working-precision words and  3143 shell-pairs
 PRISM was handed    33471654 working-precision words and  3143 shell-pairs
 PRISM was handed    33471654 working-precision words and  3143 shell-pairs
 PRISM was handed    33471654 working-precision words and  3143 shell-pairs
 PRISM was handed    33471654 working-precision words and  3143 shell-pairs
 PRISM was handed    33471654 working-precision words and  3143 shell-pairs
 PRISM was handed    33471654 working-precision words and  3143 shell-pairs
 PRISM was handed    33471654 working-precision words and  3143 shell-pairs
 PRISM was handed    33471654 working-precision words and  3143 shell-pairs
 PRISM was handed    33471654 working-precision words and  3143 shell-pairs
 PRISM was handed    33471654 working-precision words and  3143 shell-pairs
 PRISM was handed    33471654 working-precision words and  3143 shell-pairs
 PRISM was handed    33471654 working-precision words and  3143 shell-pairs
 PRISM was handed    33471654 working-precision words and  3143 shell-pairs
 IPart= 19 NShTot=        1794 NBatch=         138 AvBLen=        13.0
 IPart= 13 NShTot=        1885 NBatch=         145 AvBLen=        13.0
 IPart= 14 NShTot=        1872 NBatch=         144 AvBLen=        13.0
 IPart= 15 NShTot=        1872 NBatch=         144 AvBLen=        13.0
 IPart= 11 NShTot=        1898 NBatch=         146 AvBLen=        13.0
 IPart=  8 NShTot=        2054 NBatch=         158 AvBLen=        13.0
 IPart=  7 NShTot=        2080 NBatch=         160 AvBLen=        13.0
 IPart=  6 NShTot=        2132 NBatch=         164 AvBLen=        13.0
 IPart=  0 NShTot=        2509 NBatch=         193 AvBLen=        13.0
 IPart= 10 NShTot=        1924 NBatch=         148 AvBLen=        13.0
 IPart=  4 NShTot=        2236 NBatch=         172 AvBLen=        13.0
 IPart=  3 NShTot=        2288 NBatch=         176 AvBLen=        13.0
 IPart=  2 NShTot=        2353 NBatch=         181 AvBLen=        13.0
 IPart=  1 NShTot=        2431 NBatch=         187 AvBLen=        13.0
 IPart=  5 NShTot=        2197 NBatch=         169 AvBLen=        13.0
 IPart= 17 NShTot=        1820 NBatch=         140 AvBLen=        13.0
 IPart= 16 NShTot=        1820 NBatch=         140 AvBLen=        13.0
 IPart= 18 NShTot=        1807 NBatch=         139 AvBLen=        13.0
 IPart= 12 NShTot=        1885 NBatch=         145 AvBLen=        13.0
 IPart=  9 NShTot=        2002 NBatch=         154 AvBLen=        13.0
 PrSmSu:  NxtVal=            401.
 Polarizability after L701:
                1             2             3 
      1  0.000000D+00
      2  0.000000D+00  0.000000D+00
      3  0.000000D+00  0.000000D+00  0.000000D+00
 Dipole Derivatives after L701:
                 1             2             3             4             5 
      1   0.294588D+00 -0.271461D+00  0.220962D-02 -0.331658D+00 -0.126427D-01
      2   0.379902D-01 -0.220529D+00  0.862078D-02 -0.607912D-01 -0.237267D+00
      3   0.413294D-02  0.240234D-01 -0.263975D+00  0.496018D-02  0.184085D-01
                 6             7             8             9            10 
      1   0.159235D-01 -0.192664D+01 -0.547167D+00  0.589174D-01 -0.216342D+01
      2  -0.459454D-01  0.983591D-01 -0.987310D+00 -0.105783D-01 -0.200019D+00
      3  -0.558141D+00  0.561159D-01 -0.212256D-01 -0.101794D+01  0.154899D-02
                11            12            13            14            15 
      1   0.623134D+00 -0.243090D-01  0.149050D+00  0.777813D+00 -0.124228D+00
      2  -0.696266D+00 -0.214337D-01  0.120458D+00 -0.750403D+00  0.242534D-01
      3  -0.546908D-02 -0.895023D+00 -0.752270D-01  0.403279D-01 -0.755511D-01
                16            17            18            19            20 
      1   0.614312D-02  0.779187D-01  0.709245D-01  0.979137D-01  0.910225D+00
      2   0.780972D-02 -0.673185D-01  0.594274D-01 -0.254022D-01  0.482001D+00
      3   0.208683D-01  0.130913D-01  0.563843D+00  0.276582D-01 -0.267859D+00
                21            22            23            24            25 
      1  -0.621932D+00  0.576231D+00  0.400706D+00  0.110703D+01  0.121510D+01
      2  -0.254574D+00  0.486517D-01  0.167032D+00  0.132805D+00 -0.218255D+00
      3   0.317916D+00  0.126084D+00  0.127112D+00  0.531881D+00 -0.159272D+00
                26            27            28            29            30 
      1  -0.887557D+00 -0.523805D+00  0.122231D+01  0.824306D+00  0.452567D+00
      2   0.326777D+00  0.128277D+00  0.249730D+00  0.363011D+00  0.126591D+00
      3   0.148697D+00  0.192413D+00  0.127007D+00  0.121841D+00  0.169844D+00
                31            32            33            34            35 
      1   0.139487D+00 -0.823159D+00  0.618886D+00  0.503741D+00 -0.439944D+00
      2   0.288264D-01  0.415318D+00 -0.221810D+00 -0.514505D-01  0.177665D+00
      3  -0.330518D-01 -0.273541D+00  0.356697D+00 -0.976196D-01  0.139308D+00
                36            37            38            39 
      1  -0.105507D+01  0.217146D+00 -0.632171D+00  0.228815D-01
      2   0.123143D+00 -0.359078D-01  0.102729D+01 -0.487774D-01
      3   0.542863D+00 -0.320514D-02 -0.647149D-01  0.135168D+00
 Hessian after L701:
                1             2             3             4             5 
      1  0.146314D+01
      2 -0.247516D+01  0.980678D+01
      3 -0.491256D+00  0.844308D-01  0.153904D+02
      4  0.226907D+00  0.628993D+00 -0.268595D-02  0.130143D+02
      5  0.753425D+00  0.329810D+00  0.166781D-01  0.114466D+01 -0.183856D+01
      6 -0.817422D-02 -0.621212D-03 -0.263973D-01 -0.109552D-01  0.807193D-02
      7  0.380582D+00  0.149631D+00 -0.179792D-01  0.361718D+00 -0.407307D+00
      8  0.135886D+00 -0.141913D+00 -0.259586D-02 -0.422404D+00 -0.641246D-01
      9 -0.193936D-01 -0.561300D-02 -0.175621D+00 -0.174920D-01  0.169744D-01
     10 -0.993449D+00 -0.306905D+01  0.299469D+00  0.320440D+00  0.419033D+00
     11 -0.303055D+01 -0.492388D+01 -0.131131D+00  0.532726D+00  0.381741D-01
     12  0.301598D+00 -0.132333D+00 -0.664398D+01  0.101901D-01  0.412503D-02
     13  0.449967D+00 -0.150837D+00  0.454467D-01  0.619663D+00 -0.654627D+00
     14 -0.559365D-01  0.624626D-01  0.103040D-01 -0.499635D+00 -0.603931D-01
     15  0.287771D-01  0.932055D-02  0.152167D+00 -0.911671D-02  0.293784D-01
     16 -0.158092D+01  0.469191D+01  0.150169D+00 -0.149022D+02 -0.128641D+01
     17  0.459423D+01 -0.534255D+01  0.863663D-01 -0.135345D+01  0.158377D+01
     18  0.178843D+00  0.106439D+00 -0.916308D+01  0.364143D-01 -0.770618D-01
     19  0.242667D-01  0.180905D-01 -0.612979D-02  0.855148D-01 -0.287688D-01
     20  0.448728D-01  0.262256D-02 -0.779293D-02  0.341913D-01 -0.657582D-01
     21 -0.258334D-01 -0.108150D-01 -0.114097D-01 -0.692845D-01  0.177262D-01
     22  0.279102D-01  0.914332D-02  0.579278D-02  0.482372D-01 -0.266471D-01
     23  0.169911D-01 -0.870149D-02  0.306811D-02 -0.404839D-02 -0.258756D-01
     24  0.314154D-01  0.665772D-02 -0.583669D-02  0.545843D-01 -0.257061D-01
     25  0.400513D-01  0.199911D-03 -0.468508D-02  0.450480D-01 -0.467137D-01
     26 -0.176447D-01 -0.908176D-02  0.190291D-02 -0.375765D-01  0.138038D-01
     27 -0.124314D-01  0.880524D-03 -0.986542D-02 -0.141755D-01  0.115389D-01
     28 -0.563206D-01  0.108011D+00  0.655360D-01  0.786497D-01  0.980920D-01
     29  0.152952D+00  0.103510D+00  0.469468D-01  0.689307D-01  0.347403D-01
     30  0.651955D-01  0.311431D-01  0.968805D-01  0.214406D-01  0.202103D-01
     31 -0.497187D-01  0.740755D-01  0.476898D-01  0.626135D-01  0.335151D-01
     32  0.390239D-02  0.124737D+00 -0.182763D+00 -0.404972D-01 -0.821184D-01
     33  0.620358D-01 -0.176915D+00  0.177760D+00  0.702045D-01  0.270387D-01
     34 -0.339914D-01  0.966896D-01 -0.945845D-01  0.713998D-01  0.518421D-01
     35  0.579229D-01 -0.533182D-02  0.801333D-01  0.149072D-01 -0.360923D-01
     36 -0.119320D+00  0.921396D-01  0.293156D+00 -0.709393D-01 -0.431569D-01
     37  0.101577D+00 -0.816928D-01  0.321681D-02 -0.323019D-01 -0.500969D-01
     38 -0.180885D+00  0.153232D-02 -0.554716D-02 -0.667952D-01  0.172624D+00
     39  0.854479D-02 -0.471481D-02 -0.741485D-01  0.181546D-02 -0.581718D-02
                6             7             8             9            10 
      6  0.167619D+02
      7 -0.273547D-01  0.924692D+01
      8  0.168708D-01 -0.781022D+00  0.123843D+02
      9 -0.331470D+00  0.174215D+00  0.150246D+00  0.133221D+02
     10  0.355661D-01  0.293480D-02 -0.847343D-03 -0.402440D-02  0.944395D+01
     11  0.210852D-01  0.114108D-01 -0.411765D-01  0.649808D-03  0.182698D+01
     12 -0.347134D+00 -0.307464D-02  0.711515D-03 -0.394870D-01 -0.227653D+00
     13 -0.695482D-02 -0.130595D+01  0.193385D+01 -0.223219D+00  0.144693D+00
     14  0.187623D-01  0.201056D+01 -0.452823D+01 -0.145073D+00 -0.268940D-01
     15  0.129947D-02 -0.221770D+00 -0.150060D+00 -0.546676D+01  0.860835D-02
     16  0.374378D-01  0.709753D-01 -0.629376D-01 -0.840660D-01  0.593484D+00
     17 -0.428296D-01 -0.241264D-01 -0.152840D+00 -0.855259D-03  0.615948D-01
     18 -0.158577D+02 -0.115908D+00  0.565663D-02 -0.100183D+00  0.832986D-01
     19 -0.223802D-01 -0.361603D+01  0.814467D-01 -0.255292D-01  0.264334D-02
     20 -0.886720D-02 -0.118161D+00 -0.170585D+01 -0.125856D+01  0.498246D-02
     21 -0.395992D-01  0.111725D+00 -0.128463D+01 -0.267025D+01 -0.379538D-02
     22  0.188714D-01 -0.318070D+01  0.333201D+00  0.889194D+00  0.416454D-02
[...]
 ! R1    R(1,4)                  1.4225         -DE/DX =    0.0                 !
 ! R2    R(1,6)                  1.3491         -DE/DX =    0.0                 !
 ! R3    R(2,6)                  1.2109         -DE/DX =    0.0                 !
 ! R4    R(3,5)                  1.4777         -DE/DX =    0.0                 !
 ! R5    R(3,7)                  1.087          -DE/DX =    0.0                 !
 ! R6    R(3,8)                  1.0932         -DE/DX =    0.0                 !
 ! R7    R(3,9)                  1.0932         -DE/DX =    0.0                 !
 ! R8    R(4,10)                 1.085          -DE/DX =    0.0                 !
 ! R9    R(4,11)                 1.0887         -DE/DX =    0.0                 !
 ! R10   R(4,12)                 1.0887         -DE/DX =    0.0                 !
 ! R11   R(5,6)                  1.4471         -DE/DX =    0.0                 !
 ! R12   R(5,13)                 1.08           -DE/DX =    0.0                 !
 ! A1    A(4,1,6)              115.0115         -DE/DX =    0.0                 !
 ! A2    A(5,3,7)              110.4915         -DE/DX =    0.0                 !
 ! A3    A(5,3,8)              110.8936         -DE/DX =    0.0                 !
 ! A4    A(5,3,9)              110.8937         -DE/DX =    0.0                 !
 ! A5    A(7,3,8)              109.0397         -DE/DX =    0.0                 !
 ! A6    A(7,3,9)              109.0398         -DE/DX =    0.0                 !
 ! A7    A(8,3,9)              106.3714         -DE/DX =    0.0                 !
 ! A8    A(1,4,10)             106.0097         -DE/DX =    0.0                 !
 ! A9    A(1,4,11)             110.4777         -DE/DX =    0.0                 !
 ! A10   A(1,4,12)             110.4777         -DE/DX =    0.0                 !
 ! A11   A(10,4,11)            110.5672         -DE/DX =    0.0                 !
 ! A12   A(10,4,12)            110.5672         -DE/DX =    0.0                 !
 ! A13   A(11,4,12)            108.7334         -DE/DX =    0.0                 !
 ! A14   A(3,5,6)              121.0974         -DE/DX =    0.0                 !
 ! A15   A(3,5,13)             121.2214         -DE/DX =    0.0                 !
 ! A16   A(6,5,13)             117.6812         -DE/DX =    0.0                 !
 ! A17   A(1,6,2)              122.906          -DE/DX =    0.0                 !
 ! A18   A(1,6,5)              112.0572         -DE/DX =    0.0                 !
 ! A19   A(2,6,5)              125.0368         -DE/DX =    0.0                 !
 ! D1    D(6,1,4,10)           179.9999         -DE/DX =    0.0                 !
 ! D2    D(6,1,4,11)            60.1793         -DE/DX =    0.0                 !
 ! D3    D(6,1,4,12)           -60.1795         -DE/DX =    0.0                 !
 ! D4    D(4,1,6,2)              0.0            -DE/DX =    0.0                 !
 ! D5    D(4,1,6,5)            180.0            -DE/DX =    0.0                 !
 ! D6    D(7,3,5,6)             -0.0004         -DE/DX =    0.0                 !
 ! D7    D(7,3,5,13)           179.9997         -DE/DX =    0.0                 !
 ! D8    D(8,3,5,6)            121.026          -DE/DX =    0.0                 !
 ! D9    D(8,3,5,13)           -58.9739         -DE/DX =    0.0                 !
 ! D10   D(9,3,5,6)           -121.0268         -DE/DX =    0.0                 !
 ! D11   D(9,3,5,13)            58.9733         -DE/DX =    0.0                 !
 ! D12   D(3,5,6,1)            180.0            -DE/DX =    0.0                 !
 ! D13   D(3,5,6,2)              0.0            -DE/DX =    0.0                 !
 ! D14   D(13,5,6,1)            -0.0001         -DE/DX =    0.0                 !
 ! D15   D(13,5,6,2)           179.9999         -DE/DX =    0.0                 !
 --------------------------------------------------------------------------------
 GradGradGradGradGradGradGradGradGradGradGradGradGradGradGradGradGradGrad

 Leave Link  103 at Tue Apr  9 02:11:18 2019, MaxMem=   671088640 cpu:               0.4 elap:               0.1
 (Enter /shared/centos7/gaussian/g16/l9999.exe)

 ----------------------------------------------------------------------

 Electric dipole moment (input orientation):
 (Debye = 10**-18 statcoulomb cm , SI units = C m)
                  (au)            (Debye)         (10**-30 SI)
   Tot        0.699495D+00      0.177794D+01      0.593057D+01
   x          0.217635D+00      0.553173D+00      0.184519D+01
   y          0.430253D+00      0.109359D+01      0.364784D+01
   z          0.506765D+00      0.128807D+01      0.429653D+01

 Dipole polarizability, Alpha (input orientation).
 (esu units = cm**3 , SI units = C**2 m**2 J**-1)
 Alpha(0;0):
               (au)            (10**-24 esu)      (10**-40 SI)
   iso        0.558307D+02      0.827325D+01      0.920524D+01
   aniso      0.270841D+02      0.401345D+01      0.446556D+01
   xx         0.725102D+02      0.107449D+02      0.119553D+02
   yx        -0.119539D+00     -0.177139D-01     -0.197094D-01
   yy         0.464304D+02      0.688028D+01      0.765534D+01
   zx        -0.125503D+01     -0.185976D+00     -0.206926D+00
   zy         0.575733D+01      0.853148D+00      0.949255D+00
   zz         0.485514D+02      0.719458D+01      0.800505D+01

 ----------------------------------------------------------------------

 Dipole orientation:
     8         -2.46430446          0.23305646          0.47037572
     8          0.13579921         -0.00879456         -2.88454694
     6          4.50282850         -0.41496596          0.45878400
     6         -4.52219623          0.42445411         -1.24846309
     6          1.83277752         -0.16661438          1.23783287
     6         -0.16814853          0.01948523         -0.61673292
     1          4.65590338         -0.42916039         -1.58964814
     1          5.63681082          1.14055527          1.20857465
     1          5.33044059         -2.15299434          1.20849564
     1         -6.20981160          0.58142450         -0.09481227
     1         -4.61784193         -1.24593075         -2.44552666
     1         -4.30814149          2.08381550         -2.44554084
     1          1.30605446         -0.11761857          3.20907869

 Electric dipole moment (dipole orientation):
 (Debye = 10**-18 statcoulomb cm , SI units = C m)
                  (au)            (Debye)         (10**-30 SI)
   Tot        0.699495D+00      0.177794D+01      0.593057D+01
   x          0.000000D+00      0.000000D+00      0.000000D+00
   y          0.000000D+00      0.000000D+00      0.000000D+00
   z          0.699495D+00      0.177794D+01      0.593057D+01

 Dipole polarizability, Alpha (dipole orientation).
 (esu units = cm**3 , SI units = C**2 m**2 J**-1)
 Alpha(0;0):
               (au)            (10**-24 esu)      (10**-40 SI)
   iso        0.558307D+02      0.827325D+01      0.920524D+01
   aniso      0.270841D+02      0.401345D+01      0.446556D+01
   xx         0.710295D+02      0.105255D+02      0.117112D+02
   yx        -0.273541D+01     -0.405345D+00     -0.451008D+00
   yy         0.418747D+02      0.620520D+01      0.690421D+01
   zx         0.481402D+01      0.713363D+00      0.793724D+00
   zy        -0.447698D+00     -0.663420D-01     -0.738154D-01
   zz         0.545878D+02      0.808908D+01      0.900032D+01

 ----------------------------------------------------------------------

 Test job not archived.
 1\1\GINC-C0269\Freq\UM062X\6-311+G(2df,2p)\C4H7O2(2)\UNDERKOFFLER.C\09
 -Apr-2019\0\\#P Geom=AllCheck Guess=TCheck SCRF=Check Test GenChk UM06
 2X/6-311+G(2df,2p) Freq\\Gaussian input prepared by ASE\\0,2\O,-1.1670
 930356,0.3940925126,0.5102041014\O,-0.4065781343,-0.9505052529,-1.1253
 569091\C,2.3489417441,-0.2865151538,-0.4304082346\C,-2.4891882773,0.03
 45375221,0.1277660752\C,1.1290069594,0.2264487696,0.2270296235\C,-0.18
 66709569,-0.1828181577,-0.2150972056\H,2.0889704757,-0.9681166745,-1.2
 363069813\H,2.9474333469,0.5334957957,-0.8359708783\H,2.9878130649,-0.
 8090358252,0.2864654284\H,-3.1513817173,0.5739895253,0.7968086928\H,-2
 .6359550518,-1.0394821442,0.228287425\H,-2.6768124436,0.3177756679,-0.
 9065146312\H,1.1875994558,0.9192452413,1.0535283735\\Version=EM64L-G16
 RevA.03\State=2-A\HF=-307.020178\S2=0.758368\S2-1=0.\S2A=0.75005\RMSD=
 7.171e-09\RMSF=3.736e-07\ZeroPoint=0.1058567\Thermal=0.1131039\Dipole=
 0.217635,0.4302533,0.506765\DipoleDeriv=-1.6657351,0.2050831,0.2949601
 ,0.2615991,-0.4679552,-0.2270406,0.3625554,-0.2250063,-0.5681685,-0.74
 67697,-0.1106768,-0.1183111,-0.0531002,-0.665148,-0.3676257,-0.0494466
 ,-0.3655521,-0.7916099,-0.1787945,0.0230523,0.0365294,-0.0345739,0.023
 7774,-0.0541754,-0.0324091,-0.0562511,0.0040034,0.837505,0.0068193,-0.
 0121644,0.1084759,0.2747502,-0.0019268,0.1094194,0.0017331,0.2712292,-
 0.1336903,-0.0837424,-0.1008047,-0.1611689,-0.0426369,0.1362411,-0.193
 4018,0.1334557,0.0148816,1.8823642,-0.075237,-0.1473865,-0.1730574,0.7
 291936,0.5339133,-0.2643848,0.5303909,0.931881,0.0817533,-0.0281981,-0
 .0337854,0.0207538,0.0379747,-0.0512172,0.024768,-0.0494552,0.0201253,
 0.0009685,-0.0452534,0.0335102,-0.042184,-0.0140831,0.043515,0.0917136
 ,0.0326587,0.0686602,-0.0058635,0.0405668,-0.0399522,0.0969524,0.05767
 57,0.0404204,-0.0270407,0.0534168,0.0037342,-0.0389184,0.0295667,0.039
 833,0.0643131,0.0381418,-0.0586495,0.0813906,-0.0573985,0.0136618,-0.0
 230726,0.0360674,-0.0008115,-0.0747218,-0.0776737,0.0343705,-0.0284171
 ,0.0267506,0.0614889,-0.0236341,-0.0080047,0.0324401,-0.0157134,0.0456
 601,0.0507439,-0.0816813,0.0540975,-0.0612835,0.0138873,0.0099567,0.01
 59431,0.0024254,0.0603232,-0.0785689,0.0069343,-0.07884,0.0313962\Pola
 r=72.5102286,-0.1195394,46.4304261,-1.2550259,5.7573255,48.5514076\Qua
 drupole=5.1816947,-2.3121101,-2.8695846,0.0586817,-0.1527293,-1.559208
 5\PG=C01 [X(C4H7O2)]\NImag=0\\0.54016479,-0.01652322,0.19919804,-0.036
 38687,0.14505053,0.25321364,0.01363227,0.02948200,0.03575105,0.1374945
 0,0.02562221,-0.02012670,-0.05756560,0.08011312,0.35028889,0.03113462,
 -0.05770457,-0.04290481,0.09205843,0.37650485,0.48007877,-0.00427653,-
 0.00067905,-0.00057092,-0.00015104,0.00158866,0.00188312,0.51635857,-0
 .00401362,0.00131578,-0.00118158,-0.00067734,-0.00154700,-0.00107986,0
 .02300997,0.53361598,-0.00455926,-0.00130156,0.00103193,-0.00082705,-0
 .00116172,-0.00198336,0.02718583,0.03085422,0.54305157,-0.19949289,-0.
 02991962,-0.03099226,0.00180682,-0.00964825,-0.01182726,0.00056776,-0.
 00020390,-0.00024726,0.50458476,-0.04863512,-0.08895630,-0.02524805,0.
 00312129,-0.00587071,0.00026076,0.00064770,0.00065550,0.00019592,-0.04
 196171,0.59510712,-0.05337655,-0.02592189,-0.09546396,0.00344551,0.000
 72052,-0.00544499,0.00077123,0.00022659,0.00071543,-0.04711360,0.00766
 638,0.60082594,-0.06086247,0.00121245,0.00400342,-0.00648092,-0.028000
 76,-0.03258493,-0.19342542,0.04915593,0.06401677,0.00365721,0.00298438
 ,0.00357778,0.58406722,0.01581190,0.01147463,0.00112842,-0.03064218,-0
 .01362694,-0.03749956,0.04258187,-0.08795518,-0.04895149,0.00269468,0.
 00098395,-0.00357190,0.00414100,0.32614552,0.02146492,0.00165396,0.011
 26056,-0.03574418,-0.03759450,-0.02502845,0.05615334,-0.04918766,-0.10
 916109,0.00323122,-0.00358233,-0.00051162,-0.01260667,0.27474019,0.425
 36302,-0.20284825,0.03046089,0.04141849,-0.14012970,-0.06850225,-0.079
 57864,-0.01973256,-0.00130980,-0.00062944,-0.06614422,0.01331730,0.018
 41303,-0.22864515,-0.03903685,-0.04070929,0.64433654,0.05227423,-0.109
 59689,-0.05599642,-0.07917764,-0.31425183,-0.28354262,0.00803980,0.009
 96005,0.00411921,0.00704988,0.01030548,0.00862654,-0.02823927,-0.07932
 512,-0.01906737,0.06385057,0.49227262,0.06750792,-0.05521103,-0.132816
 53,-0.09234667,-0.28392697,-0.41105927,0.01055188,0.00445534,0.0112232
 4,0.01091703,0.00840089,0.01253527,-0.02779458,-0.01867842,-0.08387256
 ,0.06001657,0.35900025,0.61740554,0.00123146,-0.00071448,-0.00089427,-
 0.00077502,-0.00128672,-0.00154394,-0.06487755,-0.04425766,-0.05234529
 ,-0.00019604,-0.00012787,-0.00014385,0.00849398,0.01973388,0.02324735,
 0.00011306,0.00211505,0.00251573,0.06981050,0.00017330,0.00015197,0.00
 002271,-0.00109800,0.00035010,0.00154867,-0.04112652,-0.15687430,-0.12
 817639,-0.00007794,0.00004143,-0.00001503,-0.00075879,-0.00886064,-0.0
 0890206,-0.00153126,-0.00124774,-0.00110831,0.04416110,0.16729220,0.00
 016756,0.00005469,0.00018714,-0.00131820,0.00155556,0.00099629,-0.0486
 0005,-0.12806371,-0.19990053,-0.00008413,-0.00001323,0.00004354,-0.001
 26362,-0.00963921,-0.01287876,-0.00184556,-0.00123979,-0.00169125,0.05
 200158,0.14223028,0.21529896,-0.00193537,0.00035346,-0.00026052,-0.000
 26613,-0.00032800,-0.00055989,-0.11497248,-0.11224816,0.05385314,0.000
 16971,0.00025971,0.00015259,-0.02229417,-0.01701322,0.00884736,0.00023
 378,0.00159118,0.00331109,-0.00441928,-0.00461898,0.00275163,0.1327588
 6,0.00063895,-0.00021986,0.00021545,-0.00022805,0.00092836,0.00067660,
 -0.10603407,-0.19354708,0.06787948,0.00001125,-0.00002761,-0.00006003,
 0.00691272,0.01152480,-0.00298497,-0.00016477,-0.00196989,-0.00079769,
 -0.00865518,-0.01392458,0.00866727,0.11717464,0.21014997,0.00110119,-0
 .00026731,0.00005798,-0.00028124,0.00120450,0.00102447,0.05420308,0.07
 174478,-0.08041504,-0.00017607,-0.00011878,-0.00001403,0.00944179,0.00
 906624,-0.00391649,-0.00225978,-0.00117916,-0.00289647,-0.01297815,-0.
 01755630,0.01134467,-0.06015776,-0.08003197,0.08326360,-0.00192114,-0.
 00038132,0.00035986,-0.00026027,-0.00050760,-0.00041770,-0.12609594,0.
 07474451,-0.10516130,0.00017978,0.00010822,0.00027926,-0.02313989,0.01
 088997,-0.01434818,0.00024991,0.00304605,0.00211812,-0.00457507,0.0033
 3176,-0.00390125,0.01029434,-0.00885857,0.01125254,0.14481945,0.000893
 15,0.00007889,-0.00023315,-0.00023544,0.00066741,0.00115433,0.07409917
 ,-0.10310517,0.08127273,-0.00017270,0.00001431,-0.00009569,0.00758215,
 -0.00381465,0.00542810,-0.00213323,-0.00249283,-0.00113876,-0.01220005
 ,0.01180785,-0.01266544,0.01400687,-0.01324686,0.01779141,-0.08181233,
 0.10942374,0.00086387,0.00030576,-0.00025503,-0.00025138,0.00063984,0.
 00127954,-0.09884949,0.07760737,-0.15973146,-0.00002524,-0.00005599,-0
 .00006600,0.00971746,-0.00588098,0.01226834,-0.00060623,-0.00100709,-0
 .00238939,-0.01157638,0.01285427,-0.01423226,-0.00752046,0.00635957,-0
 .00904390,0.10906855,-0.09095064,0.17192776,-0.03657749,0.01618234,0.0
 2067423,0.00173585,0.00064423,0.00073419,-0.00031884,-0.00023545,-0.00
 027236,-0.14033637,0.08022104,0.09908341,-0.00111486,0.00080940,0.0010
 1418,-0.00252488,-0.00462182,-0.00542533,0.00005229,-0.00000142,-0.000
 00358,-0.00011181,0.00003686,0.00004838,-0.00011203,0.00003699,0.00004
 865,0.16977377,-0.01052195,0.00603930,0.00751122,0.00147252,0.00106181
 ,0.00034756,-0.00005293,-0.00008749,-0.00002867,0.08899419,-0.12537046
 ,-0.08950068,-0.00033819,0.00036545,0.00025107,-0.00210849,-0.00137454
 ,-0.00195331,-0.00000812,0.00000750,0.00000915,-0.00001940,0.00001652,
 0.00000510,-0.00001179,0.00000601,0.00000142,-0.08904439,0.12600014,-0
 .01126491,0.00654976,0.00831521,0.00172485,0.00037738,0.00111614,-0.00
 005406,-0.00002210,-0.00008641,0.10957637,-0.08918481,-0.16383094,-0.0
 0035838,0.00020975,0.00042948,-0.00241932,-0.00186282,-0.00181879,-0.0
 0001159,0.00000891,0.00001117,-0.00001126,0.00000155,0.00000580,-0.000
 01734,0.00000118,0.00001652,-0.11091138,0.09740124,0.16773164,-0.02231
 270,-0.03771672,0.00197933,0.00028173,0.00175522,0.00223893,-0.0000645
 3,0.00000542,-0.00005145,-0.05136165,-0.01902167,0.00279040,-0.0006607
 4,0.00060114,-0.00062988,0.00379909,-0.00542049,-0.00469338,-0.0000283
 6,0.00002478,0.00002782,-0.00003000,0.00002880,0.00002910,-0.00006629,
 0.00004586,0.00002529,0.00437333,0.01850329,-0.00381874,0.06362931,-0.
 01186771,-0.00316946,-0.00249854,0.00099506,0.00113322,0.00056961,-0.0
 0001670,-0.00000320,-0.00003437,-0.02813747,-0.31468375,0.02949050,-0.
 00063233,-0.00028815,0.00025830,0.00315132,-0.00131513,-0.00242784,0.0
 0000518,0.00000754,0.00001903,-0.00001272,0.00000373,0.00000682,-0.000
 03834,0.00001908,0.00000817,-0.00077598,-0.01227062,0.00283197,0.03666
 441,0.33826100,-0.00533356,-0.01255014,0.00134197,-0.00107364,-0.00026
 130,-0.00032411,-0.00001807,0.00001539,-0.00001708,0.00389012,0.029793
 63,-0.05428509,-0.00023264,-0.00002128,-0.00019584,0.00137801,0.001033
 51,0.00108546,0.00003325,0.00000323,-0.00000030,-0.00001218,-0.0000029
 4,-0.00000049,-0.00002604,0.00000548,0.00000366,-0.00289764,-0.0202951
 0,0.00339425,0.00092434,-0.02872144,0.05123550,-0.02390715,0.00762398,
 -0.03580984,0.00034477,0.00192373,0.00216389,-0.00006274,-0.00005439,-
 0.00000258,-0.05362267,0.00897029,-0.02800357,-0.00063570,-0.00073246,
 0.00049221,0.00380954,-0.00362180,-0.00637009,-0.00002906,0.00002258,0
 .00003043,-0.00006585,0.00001448,0.00005206,-0.00002987,0.00002266,0.0
 0003461,0.00519574,-0.00688736,0.01753685,0.00228945,0.00062097,0.0034
 0688,0.06656269,-0.00445682,0.00397745,-0.01246530,-0.00122435,-0.0003
 0807,-0.00041262,-0.00001616,-0.00001576,0.00001392,0.01167962,-0.0721
 5756,0.07220323,-0.00013096,-0.00027030,0.00000828,0.00093091,0.001154
 84,0.00124801,0.00003094,-0.00000201,0.00000129,-0.00002113,0.00000161
 ,0.00000476,-0.00001086,-0.00000058,-0.00000229,-0.00324291,0.00559451
 ,-0.01630673,0.00452001,-0.00773745,0.03101713,-0.00801713,0.06977050,
 -0.01202974,-0.00191799,-0.00421048,0.00080207,0.00027757,0.00105414,-
 0.00001668,-0.00003527,-0.00000631,-0.03676564,0.07166944,-0.29455027,
 -0.00066091,0.00026510,-0.00023873,0.00325585,-0.00174081,-0.00139496,
 0.00001155,0.00001669,0.00000995,-0.00003991,0.00000313,0.00002068,-0.
 00001386,0.00000478,0.00000369,-0.00208399,0.00625743,-0.01529328,0.00
 106695,0.00045324,-0.00223178,0.04644191,-0.07528631,0.31679262,-0.000
 89453,0.00061928,0.00072830,-0.00723288,-0.00337360,-0.00370082,0.0070
 5129,0.01608449,0.01904026,0.00018780,0.00011643,0.00012437,-0.0589590
 8,-0.00983913,-0.01041237,0.00748286,-0.01688573,-0.02030829,-0.004800
 90,0.00149939,0.00203735,0.00063840,-0.00087707,-0.00027515,0.00065702
 ,-0.00013309,-0.00092926,-0.00003472,0.00002262,0.00002890,0.00015137,
 0.00004431,-0.00003884,0.00015085,-0.00004114,0.00003240,0.05560252,0.
 00060469,-0.00016684,0.00126031,-0.00190099,0.00130146,-0.00082314,-0.
 00204174,-0.00241213,-0.00468128,-0.00030802,-0.00004140,0.00023146,-0
 .01388835,-0.15635336,-0.16102101,0.00307566,-0.00211900,-0.00786216,0
 .00120394,0.00125070,-0.00091587,0.00087575,0.00031091,-0.00067009,-0.
 00049969,0.00064279,0.00012060,-0.00000887,0.00001188,-0.00000528,0.00
 000995,0.00004319,-0.00001618,0.00011444,-0.00000717,0.00003300,0.0127
 6323,0.15753896,0.00071082,0.00125979,0.00024238,-0.00193954,-0.000770
 15,0.00119563,-0.00263922,-0.00533351,-0.00472089,-0.00038328,0.000216
 18,0.00004671,-0.01525550,-0.16116688,-0.21351785,0.00356632,-0.007143
 43,-0.00431026,0.00168400,-0.00092665,0.00081138,-0.00035384,0.0000745
 6,0.00056923,0.00080734,-0.00057432,0.00021853,-0.00000877,-0.00000642
 ,0.00000921,0.00011130,0.00004456,-0.00000616,0.00002725,-0.00002338,0
 .00004473,0.01367314,0.17434965,0.21941737\\0.00000026,0.00000017,0.00
 000018,-0.00000038,0.,0.00000004,-0.00000011,-0.00000044,-0.00000049,0
 .00000010,0.00000044,0.00000054,0.00000014,-0.00000021,-0.00000027,-0.
 00000009,0.00000016,0.00000020,-0.00000040,-0.00000035,-0.00000045,-0.
 00000002,-0.00000052,-0.00000060,-0.00000005,-0.00000053,-0.00000063,0
 .00000031,0.00000056,0.00000065,-0.00000010,0.00000046,0.00000056,-0.0
 0000010,0.00000046,0.00000056,0.00000043,-0.00000022,-0.00000028\\\@


 WHAT THE SLIME CONTAINS, THE GLOWING REVEALS
 BY THE FLAME'S BRIGHT HUE WHEN YOU IGNITE IT.
   --  LEONARD THURNEYSSER, 1531-1596
 DESCRIBING HIS FLAME PHOTOLYSIS ANALYTIC METHOD
 Job cpu time:       0 days  1 hours 45 minutes  0.7 seconds.
 Elapsed time:       0 days  0 hours  5 minutes 15.7 seconds.
 File lengths (MBytes):  RWF=   1392 Int=      0 D2E=      0 Chk=     32 Scr=     32
 Normal termination of Gaussian 16 at Tue Apr  9 02:11:18 2019.
