 Entering Gaussian System, Link 0=g16
 Input=FBRHVBFWGRGMCF-UHFFFAOYSA-N_GeoFreq_c1_a1.com
 Output=FBRHVBFWGRGMCF-UHFFFAOYSA-N_GeoFreq_c1_a1.log
 Initial command:
 /shared/centos7/gaussian/g16/l1.exe "/scratch/underkoffler.c/gaussian_scratch/Gau-12440.inp" -scrdir="/scratch/underkoffler.c/gaussian_scratch/"
 Entering Link 1 = /shared/centos7/gaussian/g16/l1.exe PID=     12447.
  
 Copyright (c) 1988,1990,1992,1993,1995,1998,2003,2009,2016,
            Gaussian, Inc.  All Rights Reserved.
  
 This is part of the Gaussian(R) 16 program.  It is based on
 the Gaussian(R) 09 system (copyright 2009, Gaussian, Inc.),
 the Gaussian(R) 03 system (copyright 2003, Gaussian, Inc.),
 the Gaussian(R) 98 system (copyright 1998, Gaussian, Inc.),
 the Gaussian(R) 94 system (copyright 1995, Gaussian, Inc.),
 the Gaussian 92(TM) system (copyright 1992, Gaussian, Inc.),
 the Gaussian 90(TM) system (copyright 1990, Gaussian, Inc.),
 the Gaussian 88(TM) system (copyright 1988, Gaussian, Inc.),
 the Gaussian 86(TM) system (copyright 1986, Carnegie Mellon
 University), and the Gaussian 82(TM) system (copyright 1983,
 Carnegie Mellon University). Gaussian is a federally registered
 trademark of Gaussian, Inc.
  
 This software contains proprietary and confidential information,
 including trade secrets, belonging to Gaussian, Inc.
  
 This software is provided under written license and may be
 used, copied, transmitted, or stored only in accord with that
 written license.
  
 The following legend is applicable only to US Government
 contracts under FAR:
  
                    RESTRICTED RIGHTS LEGEND
  
 Use, reproduction and disclosure by the US Government is
 subject to restrictions as set forth in subparagraphs (a)
 and (c) of the Commercial Computer Software - Restricted
 Rights clause in FAR 52.227-19.
  
 Gaussian, Inc.
 340 Quinnipiac St., Bldg. 40, Wallingford CT 06492
  
  
 ---------------------------------------------------------------
 Warning -- This program may not be used in any manner that
 competes with the business of Gaussian, Inc. or will provide
 assistance to any competitor of Gaussian, Inc.  The licensee
 of this program is prohibited from giving any competitor of
 Gaussian, Inc. access to this program.  By using this program,
 the user acknowledges that Gaussian, Inc. is engaged in the
 business of creating and licensing software in the field of
 computational chemistry and represents and warrants to the
 licensee that it is not a competitor of Gaussian, Inc. and that
 it will not use this program in any manner prohibited above.
 ---------------------------------------------------------------
  

 Cite this work as:
 Gaussian 16, Revision A.03,
 M. J. Frisch, G. W. Trucks, H. B. Schlegel, G. E. Scuseria, 
 M. A. Robb, J. R. Cheeseman, G. Scalmani, V. Barone, 
 G. A. Petersson, H. Nakatsuji, X. Li, M. Caricato, A. V. Marenich, 
 J. Bloino, B. G. Janesko, R. Gomperts, B. Mennucci, H. P. Hratchian, 
 J. V. Ortiz, A. F. Izmaylov, J. L. Sonnenberg, D. Williams-Young, 
 F. Ding, F. Lipparini, F. Egidi, J. Goings, B. Peng, A. Petrone, 
 T. Henderson, D. Ranasinghe, V. G. Zakrzewski, J. Gao, N. Rega, 
 G. Zheng, W. Liang, M. Hada, M. Ehara, K. Toyota, R. Fukuda, 
 J. Hasegawa, M. Ishida, T. Nakajima, Y. Honda, O. Kitao, H. Nakai, 
 T. Vreven, K. Throssell, J. A. Montgomery, Jr., J. E. Peralta, 
 F. Ogliaro, M. J. Bearpark, J. J. Heyd, E. N. Brothers, K. N. Kudin, 
 V. N. Staroverov, T. A. Keith, R. Kobayashi, J. Normand, 
 K. Raghavachari, A. P. Rendell, J. C. Burant, S. S. Iyengar, 
 J. Tomasi, M. Cossi, J. M. Millam, M. Klene, C. Adamo, R. Cammi, 
 J. W. Ochterski, R. L. Martin, K. Morokuma, O. Farkas, 
 J. B. Foresman, and D. J. Fox, Gaussian, Inc., Wallingford CT, 2016.
 
 ******************************************
 Gaussian 16:  EM64L-G16RevA.03 25-Dec-2016
                 9-Apr-2019 
 ******************************************
 %nprocshared=20
 Will use up to   20 processors via shared memory.
 %mem=5GB
 ----------------------------------------------------------------------
 #p m062x/6-311+g(2df,2p) opt=(calcfc,verytight,gdiis,maxcycles=900) fr
 eq iop(7/33=1,2/16=3)
 ----------------------------------------------------------------------

 Warning!  Use of Opt=GDIIS is deprecated since it is seldom a good choice.

 1/6=900,7=1,10=4,18=20,19=11,26=3,38=1/1,3;
 2/9=110,12=2,16=3,17=6,18=5,40=1/2;
 3/5=4,6=6,7=214,11=2,25=1,30=1,71=2,74=-55,140=1/1,2,3;
 4//1;
 5/5=2,38=5/2;
 8/6=4,10=90,11=11/1;
 11/6=1,8=1,9=11,15=111,16=1/1,2,10;
 10/6=1,13=1/2;
 6/7=2,8=2,9=2,10=2,28=1/1;
 7/10=1,18=20,25=1,33=1/1,2,3,16;
 1/6=900,7=1,10=4,18=20,19=11,26=3/3(2);
 2/9=110,16=3/2;
 99//99;
 2/9=110,16=3/2;
 3/5=4,6=6,7=214,11=2,25=1,30=1,71=1,74=-55/1,2,3;
 4/5=5,16=3,69=1/1;
 5/5=2,38=5/2;
 7/33=1/1,2,3,16;
 1/6=900,7=1,18=20,19=11,26=3/3(-5);
 2/9=110,16=3/2;
 6/7=2,8=2,9=2,10=2,19=2,28=1/1;
 99/9=1/99;
 Leave Link    1 at Tue Apr  9 01:44:21 2019, MaxMem=   671088640 cpu:              25.1 elap:               1.3
 (Enter /shared/centos7/gaussian/g16/l101.exe)
 ------------------------------
 Gaussian input prepared by ASE
 ------------------------------
 Symbolic Z-matrix:
 Charge =  0 Multiplicity = 2
 O                     0.67678  -0.32586  -0.94093 
 C                    -0.26587  -0.25979   0.06988 
 C                    -0.25389  -1.478     0.96399 
 C                     1.97912  -0.30168  -0.46251 
 C                    -0.15452   1.00038   0.9028 
 H                    -1.24384  -0.26071  -0.43675 
 H                     0.64985  -1.51235   1.59398 
 H                    -0.28194  -2.4089    0.34912 
 H                    -1.13736  -1.4794    1.63417 
 H                     2.24403  -1.24882   0.03991 
 H                     2.66873  -0.15727  -1.328 
 H                     2.13018   0.53212   0.25341 
 H                     0.82804   1.50386   0.93107 
 H                    -0.73145   1.04386   1.84547 
 
 ITRead=  0  0  0  0  0  0  0  0  0  0  0  0  0  0
 MicOpt= -1 -1 -1 -1 -1 -1 -1 -1 -1 -1 -1 -1 -1 -1
 NAtoms=     14 NQM=       14 NQMF=       0 NMMI=      0 NMMIF=      0
                NMic=       0 NMicF=      0.
                    Isotopes and Nuclear Properties:
 (Nuclear quadrupole moments (NQMom) in fm**2, nuclear magnetic moments (NMagM)
  in nuclear magnetons)

  Atom         1           2           3           4           5           6           7           8           9          10
 IAtWgt=          16          12          12          12          12           1           1           1           1           1
 AtmWgt=  15.9949146  12.0000000  12.0000000  12.0000000  12.0000000   1.0078250   1.0078250   1.0078250   1.0078250   1.0078250
 NucSpn=           0           0           0           0           0           1           1           1           1           1
 AtZEff=  -0.0000000  -0.0000000  -0.0000000  -0.0000000  -0.0000000  -0.0000000  -0.0000000  -0.0000000  -0.0000000  -0.0000000
 NQMom=    0.0000000   0.0000000   0.0000000   0.0000000   0.0000000   0.0000000   0.0000000   0.0000000   0.0000000   0.0000000
 NMagM=    0.0000000   0.0000000   0.0000000   0.0000000   0.0000000   2.7928460   2.7928460   2.7928460   2.7928460   2.7928460
 AtZNuc=   8.0000000   6.0000000   6.0000000   6.0000000   6.0000000   1.0000000   1.0000000   1.0000000   1.0000000   1.0000000

  Atom        11          12          13          14
 IAtWgt=           1           1           1           1
 AtmWgt=   1.0078250   1.0078250   1.0078250   1.0078250
 NucSpn=           1           1           1           1
 AtZEff=  -0.0000000  -0.0000000  -0.0000000  -0.0000000
 NQMom=    0.0000000   0.0000000   0.0000000   0.0000000
 NMagM=    2.7928460   2.7928460   2.7928460   2.7928460
 AtZNuc=   1.0000000   1.0000000   1.0000000   1.0000000
 Leave Link  101 at Tue Apr  9 01:44:22 2019, MaxMem=   671088640 cpu:               5.6 elap:               0.3
 (Enter /shared/centos7/gaussian/g16/l103.exe)

 GradGradGradGradGradGradGradGradGradGradGradGradGradGradGradGradGradGrad
 Berny optimization.
 Initialization pass.
                           ----------------------------
                           !    Initial Parameters    !
                           ! (Angstroms and Degrees)  !
 --------------------------                            --------------------------
 ! Name  Definition              Value          Derivative Info.                !
 --------------------------------------------------------------------------------
 ! R1    R(1,2)                  1.3837         calculate D2E/DX2 analytically  !
 ! R2    R(1,4)                  1.3876         calculate D2E/DX2 analytically  !
 ! R3    R(2,3)                  1.5112         calculate D2E/DX2 analytically  !
 ! R4    R(2,5)                  1.5147         calculate D2E/DX2 analytically  !
 ! R5    R(2,6)                  1.1014         calculate D2E/DX2 analytically  !
 ! R6    R(3,7)                  1.1022         calculate D2E/DX2 analytically  !
 ! R7    R(3,8)                  1.116          calculate D2E/DX2 analytically  !
 ! R8    R(3,9)                  1.1089         calculate D2E/DX2 analytically  !
 ! R9    R(4,10)                 1.1044         calculate D2E/DX2 analytically  !
 ! R10   R(4,11)                 1.116          calculate D2E/DX2 analytically  !
 ! R11   R(4,12)                 1.1093         calculate D2E/DX2 analytically  !
 ! R12   R(5,13)                 1.1044         calculate D2E/DX2 analytically  !
 ! R13   R(5,14)                 1.1061         calculate D2E/DX2 analytically  !
 ! A1    A(2,1,4)              112.7481         calculate D2E/DX2 analytically  !
 ! A2    A(1,2,3)              112.85           calculate D2E/DX2 analytically  !
 ! A3    A(1,2,5)              113.0386         calculate D2E/DX2 analytically  !
 ! A4    A(1,2,6)              105.595          calculate D2E/DX2 analytically  !
 ! A5    A(3,2,5)              110.1668         calculate D2E/DX2 analytically  !
 ! A6    A(3,2,6)              106.1721         calculate D2E/DX2 analytically  !
 ! A7    A(5,2,6)              108.5975         calculate D2E/DX2 analytically  !
 ! A8    A(2,3,7)              111.7037         calculate D2E/DX2 analytically  !
 ! A9    A(2,3,8)              110.2589         calculate D2E/DX2 analytically  !
 ! A10   A(2,3,9)              110.6271         calculate D2E/DX2 analytically  !
 ! A11   A(7,3,8)              108.0309         calculate D2E/DX2 analytically  !
 ! A12   A(7,3,9)              107.9251         calculate D2E/DX2 analytically  !
 ! A13   A(8,3,9)              108.1747         calculate D2E/DX2 analytically  !
 ! A14   A(1,4,10)             111.5326         calculate D2E/DX2 analytically  !
 ! A15   A(1,4,11)             108.3504         calculate D2E/DX2 analytically  !
 ! A16   A(1,4,12)             111.3095         calculate D2E/DX2 analytically  !
 ! A17   A(10,4,11)            108.3937         calculate D2E/DX2 analytically  !
 ! A18   A(10,4,12)            108.5626         calculate D2E/DX2 analytically  !
 ! A19   A(11,4,12)            108.6083         calculate D2E/DX2 analytically  !
 ! A20   A(2,5,13)             117.3075         calculate D2E/DX2 analytically  !
 ! A21   A(2,5,14)             117.5829         calculate D2E/DX2 analytically  !
 ! A22   A(13,5,14)            115.1079         calculate D2E/DX2 analytically  !
 ! D1    D(4,1,2,3)            -65.8618         calculate D2E/DX2 analytically  !
 ! D2    D(4,1,2,5)             59.9936         calculate D2E/DX2 analytically  !
 ! D3    D(4,1,2,6)            178.5812         calculate D2E/DX2 analytically  !
 ! D4    D(2,1,4,10)            71.6631         calculate D2E/DX2 analytically  !
 ! D5    D(2,1,4,11)          -169.1101         calculate D2E/DX2 analytically  !
 ! D6    D(2,1,4,12)           -49.7531         calculate D2E/DX2 analytically  !
 ! D7    D(1,2,3,7)             70.4761         calculate D2E/DX2 analytically  !
 ! D8    D(1,2,3,8)            -49.6579         calculate D2E/DX2 analytically  !
 ! D9    D(1,2,3,9)           -169.2743         calculate D2E/DX2 analytically  !
 ! D10   D(5,2,3,7)            -56.9096         calculate D2E/DX2 analytically  !
 ! D11   D(5,2,3,8)           -177.0435         calculate D2E/DX2 analytically  !
 ! D12   D(5,2,3,9)             63.3401         calculate D2E/DX2 analytically  !
 ! D13   D(6,2,3,7)           -174.313          calculate D2E/DX2 analytically  !
 ! D14   D(6,2,3,8)             65.553          calculate D2E/DX2 analytically  !
 ! D15   D(6,2,3,9)            -54.0633         calculate D2E/DX2 analytically  !
 ! D16   D(1,2,5,13)           -24.3146         calculate D2E/DX2 analytically  !
 ! D17   D(1,2,5,14)          -168.2645         calculate D2E/DX2 analytically  !
 ! D18   D(3,2,5,13)           102.9664         calculate D2E/DX2 analytically  !
 ! D19   D(3,2,5,14)           -40.9835         calculate D2E/DX2 analytically  !
 ! D20   D(6,2,5,13)          -141.1437         calculate D2E/DX2 analytically  !
 ! D21   D(6,2,5,14)            74.9065         calculate D2E/DX2 analytically  !
 --------------------------------------------------------------------------------
 Trust Radius=3.00D-01 FncErr=1.00D-07 GrdErr=1.00D-06 EigMax=2.50D+02 EigMin=1.00D-04
 Number of steps in this run=    100 maximum allowed number of steps=    100.
 GradGradGradGradGradGradGradGradGradGradGradGradGradGradGradGradGradGrad

 Leave Link  103 at Tue Apr  9 01:44:22 2019, MaxMem=   671088640 cpu:               0.1 elap:               0.0
 (Enter /shared/centos7/gaussian/g16/l202.exe)
                          Input orientation:                          
 ---------------------------------------------------------------------
 Center     Atomic      Atomic             Coordinates (Angstroms)
 Number     Number       Type             X           Y           Z
 ---------------------------------------------------------------------
      1          8           0        0.676783   -0.325860   -0.940928
      2          6           0       -0.265871   -0.259789    0.069879
      3          6           0       -0.253894   -1.478005    0.963985
      4          6           0        1.979116   -0.301677   -0.462515
      5          6           0       -0.154523    1.000380    0.902797
      6          1           0       -1.243838   -0.260707   -0.436753
      7          1           0        0.649848   -1.512352    1.593976
      8          1           0       -0.281939   -2.408903    0.349124
      9          1           0       -1.137358   -1.479398    1.634171
     10          1           0        2.244034   -1.248816    0.039905
     11          1           0        2.668735   -0.157274   -1.327996
     12          1           0        2.130176    0.532120    0.253413
     13          1           0        0.828038    1.503862    0.931065
     14          1           0       -0.731450    1.043856    1.845469
 ---------------------------------------------------------------------
                    Distance matrix (angstroms):
                    1          2          3          4          5
     1  O    0.000000
     2  C    1.383724   0.000000
     3  C    2.412943   1.511165   0.000000
     4  C    1.387637   2.307632   2.899135   0.000000
     5  C    2.418534   1.514655   2.481131   2.848130   0.000000
     6  H    1.986762   1.101406   2.103300   3.223318   2.138070
     7  H    2.798969   2.174932   1.102188   2.731637   2.727374
     8  H    2.631055   2.167239   1.115980   3.195549   3.456299
     9  H    3.354533   2.166552   1.108900   3.936436   2.765894
    10  H    2.066436   2.697906   2.673219   1.104391   3.399492
    11  H    2.036201   3.252149   3.941988   1.116012   3.779866
    12  H    2.067590   2.530187   3.198328   1.109319   2.420912
    13  H    2.622045   2.246942   3.172254   2.554803   1.104409
    14  H    3.409288   2.251438   2.713826   3.805840   1.106058
                    6          7          8          9         10
     6  H    0.000000
     7  H    3.045738   0.000000
     8  H    2.481450   1.794906   0.000000
     9  H    2.405259   1.787962   1.801962   0.000000
    10  H    3.656339   2.241877   2.796777   3.745486   0.000000
    11  H    4.014130   3.801323   4.072965   5.000879   1.800830
    12  H    3.533960   2.858032   3.804875   4.077925   1.797298
    13  H    3.045867   3.093340   4.108581   3.641014   3.221249
    14  H    2.678238   2.916408   3.789808   2.564413   4.167722
                   11         12         13         14
    11  H    0.000000
    12  H    1.807253   0.000000
    13  H    3.354235   1.760414   0.000000
    14  H    4.803628   3.314426   1.865407   0.000000
 Stoichiometry    C4H9O(2)
 Framework group  C1[X(C4H9O)]
 Deg. of freedom    36
 Full point group                 C1      NOp   1
 Largest Abelian subgroup         C1      NOp   1
 Largest concise Abelian subgroup C1      NOp   1
                         Standard orientation:                         
 ---------------------------------------------------------------------
 Center     Atomic      Atomic             Coordinates (Angstroms)
 Number     Number       Type             X           Y           Z
 ---------------------------------------------------------------------
      1          8           0       -0.831961   -0.133113    0.731704
      2          6           0        0.518907    0.053307    0.496985
      3          6           0        1.132352   -1.061911   -0.317630
      4          6           0       -1.591223   -0.074553   -0.428308
      5          6           0        0.831317    1.394080   -0.134604
      6          1           0        1.000080    0.010647    1.486807
      7          1           0        0.786613   -1.040103   -1.363961
      8          1           0        0.858446   -2.053008    0.116090
      9          1           0        2.238207   -0.979900   -0.321819
     10          1           0       -1.433506   -0.965614   -1.061406
     11          1           0       -2.668855   -0.032854   -0.141157
     12          1           0       -1.348362    0.829274   -1.023879
     13          1           0        0.024280    1.884930   -0.706861
     14          1           0        1.850672    1.545988   -0.536107
 ---------------------------------------------------------------------
 Rotational constants (GHZ):           6.8986824           4.4897641           3.5709834
 Leave Link  202 at Tue Apr  9 01:44:22 2019, MaxMem=   671088640 cpu:               0.1 elap:               0.0
 (Enter /shared/centos7/gaussian/g16/l301.exe)
 Standard basis: 6-311+G(2df,2p) (5D, 7F)
 Ernie: Thresh=  0.10000D-02 Tol=  0.10000D-05 Strict=F.
 There are   276 symmetry adapted cartesian basis functions of A   symmetry.
 There are   251 symmetry adapted basis functions of A   symmetry.
   251 basis functions,   359 primitive gaussians,   276 cartesian basis functions
    21 alpha electrons       20 beta electrons
       nuclear repulsion energy       191.3682218018 Hartrees.
 IExCor= 4336 DFT=T Ex+Corr=M062X ExCW=0 ScaHFX=  0.540000
 ScaDFX=  1.000000  1.000000  1.000000  1.000000 ScalE2=  1.000000  1.000000
 IRadAn=      5 IRanWt=     -1 IRanGd=            0 ICorTp=0 IEmpDi=  4
 NAtoms=   14 NActive=   14 NUniq=   14 SFac= 1.00D+00 NAtFMM=   60 NAOKFM=F Big=F
 Integral buffers will be    131072 words long.
 Raffenetti 2 integral format.
 Two-electron integral symmetry is turned on.
 Leave Link  301 at Tue Apr  9 01:44:22 2019, MaxMem=   671088640 cpu:               0.7 elap:               0.1
 (Enter /shared/centos7/gaussian/g16/l302.exe)
 NPDir=0 NMtPBC=     1 NCelOv=     1 NCel=       1 NClECP=     1 NCelD=      1
         NCelK=      1 NCelE2=     1 NClLst=     1 CellRange=     0.0.
 One-electron integrals computed using PRISM.
 One-electron integral symmetry used in STVInt
 NBasis=   251 RedAO= T EigKep=  3.19D-05  NBF=   251
 NBsUse=   251 1.00D-06 EigRej= -1.00D+00 NBFU=   251
 Precomputing XC quadrature grid using
 IXCGrd= 4 IRadAn=           5 IRanWt=          -1 IRanGd=           0 AccXCQ= 0.00D+00.
 Generated NRdTot=       0 NPtTot=           0 NUsed=           0 NTot=          32
 NSgBfM=   276   276   276   276   276 MxSgAt=    14 MxSgA2=    14.
 Leave Link  302 at Tue Apr  9 01:44:22 2019, MaxMem=   671088640 cpu:               5.4 elap:               0.3
 (Enter /shared/centos7/gaussian/g16/l303.exe)
 DipDrv:  MaxL=1.
 Leave Link  303 at Tue Apr  9 01:44:22 2019, MaxMem=   671088640 cpu:               0.5 elap:               0.0
 (Enter /shared/centos7/gaussian/g16/l401.exe)
 ExpMin= 4.38D-02 ExpMax= 8.59D+03 ExpMxC= 1.30D+03 IAcc=3 IRadAn=         5 AccDes= 0.00D+00
 Harris functional with IExCor= 1009 and IRadAn=       5 diagonalized for initial guess.
 HarFok:  IExCor= 1009 AccDes= 0.00D+00 IRadAn=         5 IDoV= 1 UseB2=F ITyADJ=14
 ICtDFT=  3500011 ScaDFX=  1.000000  1.000000  1.000000  1.000000
 FoFCou: FMM=F IPFlag=           0 FMFlag=      100000 FMFlg1=           0
         NFxFlg=           0 DoJE=T BraDBF=F KetDBF=T FulRan=T
         wScrn=  0.000000 ICntrl=       500 IOpCl=  0 I1Cent=   200000004 NGrid=           0
         NMat0=    1 NMatS0=      1 NMatT0=    0 NMatD0=    1 NMtDS0=    0 NMtDT0=    0
 Petite list used in FoFCou.
 Harris En= -232.843202005399    
 JPrj=0 DoOrth=F DoCkMO=F.
 Initial guess <Sx>= 0.0000 <Sy>= 0.0000 <Sz>= 0.5000 <S**2>= 0.7500 S= 0.5000
 Leave Link  401 at Tue Apr  9 01:44:23 2019, MaxMem=   671088640 cpu:              20.3 elap:               1.0
 (Enter /shared/centos7/gaussian/g16/l502.exe)
 Integral symmetry usage will be decided dynamically.
 UHF open shell SCF:
 Using DIIS extrapolation, IDIIS=  1040.
 NGot=   671088640 LenX=   670928170 LenY=   670851553
 Requested convergence on RMS density matrix=1.00D-08 within 128 cycles.
 Requested convergence on MAX density matrix=1.00D-06.
 Requested convergence on             energy=1.00D-06.
 No special actions if energy rises.
 Fock matrices will be formed incrementally for  20 cycles.

 Cycle   1  Pass 1  IDiag  1:
 FoFJK:  IHMeth= 1 ICntrl=       0 DoSepK=F KAlg= 0 I1Cent=           0 FoldK=F
 IRaf= 990000000 NMat=       1 IRICut=       1 DoRegI=T DoRafI=F ISym2E= 0 IDoP0=0 IntGTp=1.
 FoFCou: FMM=F IPFlag=           0 FMFlag=      100000 FMFlg1=           0
         NFxFlg=           0 DoJE=F BraDBF=F KetDBF=F FulRan=T
         wScrn=  0.000000 ICntrl=         0 IOpCl=  1 I1Cent=           0 NGrid=           0
         NMat0=    1 NMatS0=      1 NMatT0=    0 NMatD0=    1 NMtDS0=    0 NMtDT0=    0
 Symmetry not used in FoFCou.
 E= -232.779991573263    
 DIIS: error= 2.00D-02 at cycle   1 NSaved=   1.
 NSaved= 1 IEnMin= 1 EnMin= -232.779991573263     IErMin= 1 ErrMin= 2.00D-02
 ErrMax= 2.00D-02  0.00D+00 EMaxC= 1.00D-01 BMatC= 7.65D-01 BMatP= 7.65D-01
 IDIUse=3 WtCom= 8.00D-01 WtEn= 2.00D-01
 Coeff-Com:  0.100D+01
 Coeff-En:   0.100D+01
 Coeff:      0.100D+01
 Gap=     0.254 Goal=   None    Shift=    0.000
 Gap=     0.308 Goal=   None    Shift=    0.000
 GapD=    0.254 DampG=1.000 DampE=0.500 DampFc=0.5000 IDamp=-1.
 Damping current iteration by 5.00D-01
 RMSDP=2.54D-03 MaxDP=1.10D-01              OVMax= 1.38D-01

 Cycle   2  Pass 1  IDiag  1:
 RMSU=  1.24D-03    CP:  9.72D-01
 E= -232.862687016629     Delta-E=       -0.082695443366 Rises=F Damp=T
 DIIS: error= 5.36D-03 at cycle   2 NSaved=   2.
 NSaved= 2 IEnMin= 2 EnMin= -232.862687016629     IErMin= 2 ErrMin= 5.36D-03
 ErrMax= 5.36D-03  0.00D+00 EMaxC= 1.00D-01 BMatC= 5.79D-02 BMatP= 7.65D-01
 IDIUse=3 WtCom= 9.46D-01 WtEn= 5.36D-02
 Coeff-Com: -0.144D+00 0.114D+01
 Coeff-En:   0.000D+00 0.100D+01
 Coeff:     -0.136D+00 0.114D+01
 Gap=     0.294 Goal=   None    Shift=    0.000
 Gap=     0.321 Goal=   None    Shift=    0.000
 RMSDP=1.22D-03 MaxDP=7.67D-02 DE=-8.27D-02 OVMax= 7.10D-02

 Cycle   3  Pass 1  IDiag  1:
 RMSU=  1.20D-03    CP:  9.76D-01  8.56D-01
 E= -232.938584137499     Delta-E=       -0.075897120870 Rises=F Damp=F
 DIIS: error= 2.86D-03 at cycle   3 NSaved=   3.
 NSaved= 3 IEnMin= 3 EnMin= -232.938584137499     IErMin= 3 ErrMin= 2.86D-03
 ErrMax= 2.86D-03  0.00D+00 EMaxC= 1.00D-01 BMatC= 9.77D-03 BMatP= 5.79D-02
 IDIUse=3 WtCom= 9.71D-01 WtEn= 2.86D-02
 Coeff-Com: -0.897D-01 0.307D+00 0.783D+00
 Coeff-En:   0.000D+00 0.000D+00 0.100D+01
 Coeff:     -0.871D-01 0.298D+00 0.789D+00
 Gap=     0.290 Goal=   None    Shift=    0.000
 Gap=     0.288 Goal=   None    Shift=    0.000
 RMSDP=2.14D-04 MaxDP=1.32D-02 DE=-7.59D-02 OVMax= 1.29D-02

 Cycle   4  Pass 1  IDiag  1:
 RMSU=  1.93D-04    CP:  9.71D-01  9.14D-01  9.68D-01
 E= -232.940321601027     Delta-E=       -0.001737463529 Rises=F Damp=F
 DIIS: error= 1.17D-03 at cycle   4 NSaved=   4.
 NSaved= 4 IEnMin= 4 EnMin= -232.940321601027     IErMin= 4 ErrMin= 1.17D-03
 ErrMax= 1.17D-03  0.00D+00 EMaxC= 1.00D-01 BMatC= 2.11D-03 BMatP= 9.77D-03
 IDIUse=3 WtCom= 9.88D-01 WtEn= 1.17D-02
 Coeff-Com: -0.302D-01 0.705D-01 0.358D+00 0.601D+00
 Coeff-En:   0.000D+00 0.000D+00 0.000D+00 0.100D+01
 Coeff:     -0.298D-01 0.696D-01 0.354D+00 0.606D+00
 Gap=     0.288 Goal=   None    Shift=    0.000
 Gap=     0.295 Goal=   None    Shift=    0.000
 RMSDP=8.11D-05 MaxDP=5.75D-03 DE=-1.74D-03 OVMax= 5.43D-03

 Cycle   5  Pass 1  IDiag  1:
 RMSU=  5.88D-05    CP:  9.71D-01  9.01D-01  1.00D+00  8.39D-01
 E= -232.940729090749     Delta-E=       -0.000407489722 Rises=F Damp=F
 DIIS: error= 2.96D-04 at cycle   5 NSaved=   5.
 NSaved= 5 IEnMin= 5 EnMin= -232.940729090749     IErMin= 5 ErrMin= 2.96D-04
 ErrMax= 2.96D-04  0.00D+00 EMaxC= 1.00D-01 BMatC= 1.51D-04 BMatP= 2.11D-03
 IDIUse=3 WtCom= 9.97D-01 WtEn= 2.96D-03
 Coeff-Com: -0.134D-02-0.668D-02 0.420D-01 0.210D+00 0.756D+00
 Coeff-En:   0.000D+00 0.000D+00 0.000D+00 0.000D+00 0.100D+01
 Coeff:     -0.134D-02-0.666D-02 0.418D-01 0.209D+00 0.757D+00
 Gap=     0.289 Goal=   None    Shift=    0.000
 Gap=     0.295 Goal=   None    Shift=    0.000
 RMSDP=4.72D-05 MaxDP=5.71D-03 DE=-4.07D-04 OVMax= 2.04D-03

 Cycle   6  Pass 1  IDiag  1:
 RMSU=  3.64D-05    CP:  9.72D-01  8.94D-01  1.02D+00  8.91D-01  1.18D+00
 E= -232.940773232463     Delta-E=       -0.000044141714 Rises=F Damp=F
 DIIS: error= 1.12D-04 at cycle   6 NSaved=   6.
 NSaved= 6 IEnMin= 6 EnMin= -232.940773232463     IErMin= 6 ErrMin= 1.12D-04
 ErrMax= 1.12D-04  0.00D+00 EMaxC= 1.00D-01 BMatC= 1.99D-05 BMatP= 1.51D-04
 IDIUse=3 WtCom= 9.99D-01 WtEn= 1.12D-03
 Coeff-Com:  0.540D-02-0.139D-01-0.616D-01-0.796D-01 0.120D+00 0.103D+01
 Coeff-En:   0.000D+00 0.000D+00 0.000D+00 0.000D+00 0.000D+00 0.100D+01
 Coeff:      0.539D-02-0.139D-01-0.615D-01-0.795D-01 0.119D+00 0.103D+01
 Gap=     0.290 Goal=   None    Shift=    0.000
 Gap=     0.295 Goal=   None    Shift=    0.000
 RMSDP=2.41D-05 MaxDP=1.23D-03 DE=-4.41D-05 OVMax= 1.78D-03

 Cycle   7  Pass 1  IDiag  1:
 RMSU=  1.43D-05    CP:  9.72D-01  8.92D-01  1.02D+00  9.58D-01  1.41D+00
                    CP:  1.09D+00
 E= -232.940783999837     Delta-E=       -0.000010767374 Rises=F Damp=F
 DIIS: error= 4.42D-05 at cycle   7 NSaved=   7.
 NSaved= 7 IEnMin= 7 EnMin= -232.940783999837     IErMin= 7 ErrMin= 4.42D-05
 ErrMax= 4.42D-05  0.00D+00 EMaxC= 1.00D-01 BMatC= 4.06D-06 BMatP= 1.99D-05
 IDIUse=1 WtCom= 1.00D+00 WtEn= 0.00D+00
 Coeff-Com:  0.185D-02-0.339D-02-0.287D-01-0.647D-01-0.825D-01 0.388D+00
 Coeff-Com:  0.789D+00
 Coeff:      0.185D-02-0.339D-02-0.287D-01-0.647D-01-0.825D-01 0.388D+00
 Coeff:      0.789D+00
 Gap=     0.290 Goal=   None    Shift=    0.000
 Gap=     0.295 Goal=   None    Shift=    0.000
 RMSDP=6.85D-06 MaxDP=4.58D-04 DE=-1.08D-05 OVMax= 5.81D-04

 Cycle   8  Pass 1  IDiag  1:
 RMSU=  4.25D-06    CP:  9.72D-01  8.91D-01  1.02D+00  9.65D-01  1.46D+00
                    CP:  1.15D+00  1.23D+00
 E= -232.940785550026     Delta-E=       -0.000001550189 Rises=F Damp=F
 DIIS: error= 1.25D-05 at cycle   8 NSaved=   8.
 NSaved= 8 IEnMin= 8 EnMin= -232.940785550026     IErMin= 8 ErrMin= 1.25D-05
 ErrMax= 1.25D-05  0.00D+00 EMaxC= 1.00D-01 BMatC= 2.15D-07 BMatP= 4.06D-06
 IDIUse=1 WtCom= 1.00D+00 WtEn= 0.00D+00
 Coeff-Com: -0.361D-03 0.983D-03 0.168D-02-0.273D-02-0.215D-01-0.430D-01
 Coeff-Com:  0.119D+00 0.946D+00
 Coeff:     -0.361D-03 0.983D-03 0.168D-02-0.273D-02-0.215D-01-0.430D-01
 Coeff:      0.119D+00 0.946D+00
 Gap=     0.290 Goal=   None    Shift=    0.000
 Gap=     0.295 Goal=   None    Shift=    0.000
 RMSDP=2.93D-06 MaxDP=2.66D-04 DE=-1.55D-06 OVMax= 1.51D-04

 Cycle   9  Pass 1  IDiag  1:
 RMSU=  1.64D-06    CP:  9.72D-01  8.92D-01  1.02D+00  9.66D-01  1.47D+00
                    CP:  1.15D+00  1.33D+00  1.21D+00
 E= -232.940785651392     Delta-E=       -0.000000101366 Rises=F Damp=F
 DIIS: error= 4.18D-06 at cycle   9 NSaved=   9.
 NSaved= 9 IEnMin= 9 EnMin= -232.940785651392     IErMin= 9 ErrMin= 4.18D-06
 ErrMax= 4.18D-06  0.00D+00 EMaxC= 1.00D-01 BMatC= 2.51D-08 BMatP= 2.15D-07
 IDIUse=1 WtCom= 1.00D+00 WtEn= 0.00D+00
 Coeff-Com: -0.268D-03 0.566D-03 0.342D-02 0.629D-02 0.687D-02-0.532D-01
 Coeff-Com: -0.671D-01 0.197D+00 0.906D+00
 Coeff:     -0.268D-03 0.566D-03 0.342D-02 0.629D-02 0.687D-02-0.532D-01
 Coeff:     -0.671D-01 0.197D+00 0.906D+00
 Gap=     0.290 Goal=   None    Shift=    0.000
 Gap=     0.295 Goal=   None    Shift=    0.000
 RMSDP=1.69D-06 MaxDP=2.59D-04 DE=-1.01D-07 OVMax= 5.35D-05

 Cycle  10  Pass 1  IDiag  1:
 RMSU=  5.80D-07    CP:  9.72D-01  8.92D-01  1.02D+00  9.67D-01  1.47D+00
                    CP:  1.13D+00  1.39D+00  1.33D+00  1.04D+00
 E= -232.940785662855     Delta-E=       -0.000000011463 Rises=F Damp=F
 DIIS: error= 1.54D-06 at cycle  10 NSaved=  10.
 NSaved=10 IEnMin=10 EnMin= -232.940785662855     IErMin=10 ErrMin= 1.54D-06
 ErrMax= 1.54D-06  0.00D+00 EMaxC= 1.00D-01 BMatC= 1.99D-09 BMatP= 2.51D-08
 IDIUse=1 WtCom= 1.00D+00 WtEn= 0.00D+00
 Coeff-Com: -0.189D-04 0.304D-04 0.549D-03 0.139D-02 0.265D-02-0.786D-02
 Coeff-Com: -0.205D-01-0.228D-01 0.170D+00 0.877D+00
 Coeff:     -0.189D-04 0.304D-04 0.549D-03 0.139D-02 0.265D-02-0.786D-02
 Coeff:     -0.205D-01-0.228D-01 0.170D+00 0.877D+00
 Gap=     0.290 Goal=   None    Shift=    0.000
 Gap=     0.295 Goal=   None    Shift=    0.000
 RMSDP=3.42D-07 MaxDP=4.82D-05 DE=-1.15D-08 OVMax= 2.00D-05

 Cycle  11  Pass 1  IDiag  1:
 RMSU=  1.23D-07    CP:  9.72D-01  8.92D-01  1.02D+00  9.67D-01  1.46D+00
                    CP:  1.12D+00  1.39D+00  1.34D+00  1.09D+00  1.26D+00
 E= -232.940785663833     Delta-E=       -0.000000000978 Rises=F Damp=F
 DIIS: error= 7.90D-07 at cycle  11 NSaved=  11.
 NSaved=11 IEnMin=11 EnMin= -232.940785663833     IErMin=11 ErrMin= 7.90D-07
 ErrMax= 7.90D-07  0.00D+00 EMaxC= 1.00D-01 BMatC= 4.27D-10 BMatP= 1.99D-09
 IDIUse=1 WtCom= 1.00D+00 WtEn= 0.00D+00
 Coeff-Com:  0.350D-04-0.757D-04-0.340D-03-0.478D-03-0.273D-03 0.550D-02
 Coeff-Com:  0.367D-02-0.352D-01-0.853D-01 0.284D+00 0.829D+00
 Coeff:      0.350D-04-0.757D-04-0.340D-03-0.478D-03-0.273D-03 0.550D-02
 Coeff:      0.367D-02-0.352D-01-0.853D-01 0.284D+00 0.829D+00
 Gap=     0.290 Goal=   None    Shift=    0.000
 Gap=     0.295 Goal=   None    Shift=    0.000
 RMSDP=1.29D-07 MaxDP=1.54D-05 DE=-9.78D-10 OVMax= 1.15D-05

 Cycle  12  Pass 1  IDiag  1:
 RMSU=  5.47D-08    CP:  9.72D-01  8.92D-01  1.02D+00  9.67D-01  1.46D+00
                    CP:  1.12D+00  1.39D+00  1.35D+00  1.10D+00  1.41D+00
                    CP:  1.12D+00
 E= -232.940785664050     Delta-E=       -0.000000000218 Rises=F Damp=F
 DIIS: error= 2.75D-07 at cycle  12 NSaved=  12.
 NSaved=12 IEnMin=12 EnMin= -232.940785664050     IErMin=12 ErrMin= 2.75D-07
 ErrMax= 2.75D-07  0.00D+00 EMaxC= 1.00D-01 BMatC= 2.88D-11 BMatP= 4.27D-10
 IDIUse=1 WtCom= 1.00D+00 WtEn= 0.00D+00
 Coeff-Com:  0.114D-05-0.276D-05-0.597D-04-0.127D-03-0.237D-03 0.818D-03
 Coeff-Com:  0.206D-02 0.227D-02-0.210D-01-0.960D-01 0.237D-03 0.111D+01
 Coeff:      0.114D-05-0.276D-05-0.597D-04-0.127D-03-0.237D-03 0.818D-03
 Coeff:      0.206D-02 0.227D-02-0.210D-01-0.960D-01 0.237D-03 0.111D+01
 Gap=     0.290 Goal=   None    Shift=    0.000
 Gap=     0.295 Goal=   None    Shift=    0.000
 RMSDP=4.39D-08 MaxDP=3.35D-06 DE=-2.18D-10 OVMax= 4.85D-06

 Cycle  13  Pass 1  IDiag  1:
 RMSU=  1.74D-08    CP:  9.72D-01  8.92D-01  1.02D+00  9.67D-01  1.46D+00
                    CP:  1.12D+00  1.39D+00  1.35D+00  1.11D+00  1.45D+00
                    CP:  1.28D+00  1.30D+00
 E= -232.940785664076     Delta-E=       -0.000000000025 Rises=F Damp=F
 DIIS: error= 7.21D-08 at cycle  13 NSaved=  13.
 NSaved=13 IEnMin=13 EnMin= -232.940785664076     IErMin=13 ErrMin= 7.21D-08
 ErrMax= 7.21D-08  0.00D+00 EMaxC= 1.00D-01 BMatC= 2.65D-12 BMatP= 2.88D-11
 IDIUse=1 WtCom= 1.00D+00 WtEn= 0.00D+00
 Coeff-Com: -0.362D-05 0.760D-05 0.316D-04 0.431D-04 0.360D-04-0.570D-03
 Coeff-Com: -0.244D-03 0.341D-02 0.811D-02-0.272D-01-0.807D-01-0.186D-01
 Coeff-Com:  0.112D+01
 Coeff:     -0.362D-05 0.760D-05 0.316D-04 0.431D-04 0.360D-04-0.570D-03
 Coeff:     -0.244D-03 0.341D-02 0.811D-02-0.272D-01-0.807D-01-0.186D-01
 Coeff:      0.112D+01
 Gap=     0.290 Goal=   None    Shift=    0.000
 Gap=     0.295 Goal=   None    Shift=    0.000
 RMSDP=1.09D-08 MaxDP=4.96D-07 DE=-2.51D-11 OVMax= 1.48D-06

 Cycle  14  Pass 1  IDiag  1:
 RMSU=  4.03D-09    CP:  9.72D-01  8.92D-01  1.02D+00  9.67D-01  1.46D+00
                    CP:  1.12D+00  1.39D+00  1.35D+00  1.11D+00  1.46D+00
                    CP:  1.31D+00  1.40D+00  1.34D+00
 E= -232.940785664084     Delta-E=       -0.000000000008 Rises=F Damp=F
 DIIS: error= 2.46D-08 at cycle  14 NSaved=  14.
 NSaved=14 IEnMin=14 EnMin= -232.940785664084     IErMin=14 ErrMin= 2.46D-08
 ErrMax= 2.46D-08  0.00D+00 EMaxC= 1.00D-01 BMatC= 2.72D-13 BMatP= 2.65D-12
 IDIUse=1 WtCom= 1.00D+00 WtEn= 0.00D+00
 Coeff-Com: -0.214D-06 0.584D-06 0.544D-05 0.949D-05 0.180D-04-0.926D-04
 Coeff-Com: -0.128D-03 0.564D-04 0.201D-02 0.572D-02-0.619D-02-0.854D-01
 Coeff-Com:  0.770D-01 0.101D+01
 Coeff:     -0.214D-06 0.584D-06 0.544D-05 0.949D-05 0.180D-04-0.926D-04
 Coeff:     -0.128D-03 0.564D-04 0.201D-02 0.572D-02-0.619D-02-0.854D-01
 Coeff:      0.770D-01 0.101D+01
 Gap=     0.290 Goal=   None    Shift=    0.000
 Gap=     0.295 Goal=   None    Shift=    0.000
 RMSDP=2.82D-09 MaxDP=1.98D-07 DE=-8.30D-12 OVMax= 4.76D-07

 SCF Done:  E(UM062X) =  -232.940785664     A.U. after   14 cycles
            NFock= 14  Conv=0.28D-08     -V/T= 2.0042
 <Sx>= 0.0000 <Sy>= 0.0000 <Sz>= 0.5000 <S**2>= 0.7551 S= 0.5026
 <L.S>= 0.000000000000E+00
 KE= 2.319683313490D+02 PE=-9.254295033495D+02 EE= 2.691521645346D+02
 Annihilation of the first spin contaminant:
 S**2 before annihilation     0.7551,   after     0.7500
 Leave Link  502 at Tue Apr  9 01:45:09 2019, MaxMem=   671088640 cpu:             918.1 elap:              46.0
 (Enter /shared/centos7/gaussian/g16/l801.exe)
 DoSCS=F DFT=T ScalE2(SS,OS)=  1.000000  1.000000
 Range of M.O.s used for correlation:     1   251
 NBasis=   251 NAE=    21 NBE=    20 NFC=     0 NFV=     0
 NROrb=    251 NOA=    21 NOB=    20 NVA=   230 NVB=   231

 **** Warning!!: The largest alpha MO coefficient is  0.50097233D+02


 **** Warning!!: The largest beta MO coefficient is  0.51201215D+02

 Leave Link  801 at Tue Apr  9 01:45:09 2019, MaxMem=   671088640 cpu:               0.4 elap:               0.0
 (Enter /shared/centos7/gaussian/g16/l1101.exe)
 Using compressed storage, NAtomX=    14.
 Will process     15 centers per pass.
 Leave Link 1101 at Tue Apr  9 01:45:09 2019, MaxMem=   671088640 cpu:               6.1 elap:               0.3
 (Enter /shared/centos7/gaussian/g16/l1102.exe)
 Symmetrizing basis deriv contribution to polar:
 IMax=3 JMax=2 DiffMx= 0.00D+00
 Leave Link 1102 at Tue Apr  9 01:45:10 2019, MaxMem=   671088640 cpu:               0.5 elap:               0.0
 (Enter /shared/centos7/gaussian/g16/l1110.exe)
 Forming Gx(P) for the SCF density, NAtomX=    14.
 Integral derivatives from FoFJK, PRISM(SPDF).
 Do as many integral derivatives as possible in FoFJK.
 G2DrvN: MDV=     671087496.
 G2DrvN: will do    15 centers at a time, making    1 passes.
 Calling FoFCou, ICntrl=  3107 FMM=F I1Cent=   0 AccDes= 0.00D+00.
 FoFJK:  IHMeth= 1 ICntrl=    3107 DoSepK=F KAlg= 0 I1Cent=           0 FoldK=F
 IRaf=         0 NMat=       1 IRICut=       1 DoRegI=T DoRafI=F ISym2E= 0 IDoP0=0 IntGTp=1.
 FoFCou: FMM=F IPFlag=           0 FMFlag=      100000 FMFlg1=           0
         NFxFlg=           0 DoJE=F BraDBF=F KetDBF=F FulRan=T
         wScrn=  0.000000 ICntrl=      3107 IOpCl=  1 I1Cent=           0 NGrid=           0
         NMat0=    1 NMatS0=      1 NMatT0=    0 NMatD0=    1 NMtDS0=    0 NMtDT0=    0
 Symmetry not used in FoFCou.
 End of G2Drv F.D. properties file   721 does not exist.
 End of G2Drv F.D. properties file   722 does not exist.
 End of G2Drv F.D. properties file   788 does not exist.
 Leave Link 1110 at Tue Apr  9 01:46:37 2019, MaxMem=   671088640 cpu:            1757.4 elap:              87.9
 (Enter /shared/centos7/gaussian/g16/l1002.exe)
 Minotr:  UHF open shell wavefunction.
          IDoAtm=11111111111111
          Direct CPHF calculation.
          Differentiating once with respect to nuclear coordinates.
          Requested convergence is 1.0D-08 RMS, and 1.0D-07 maximum.
          Secondary convergence is 1.0D-12 RMS, and 1.0D-12 maximum.
          NewPWx=T KeepS1=F KeepF1=F KeepIn=T MapXYZ=F SortEE=F KeepMc=T.
         4243 words used for storage of precomputed grid.
 Two-electron integrals replicated using symmetry.
          MDV=     671088640 using IRadAn=       1.
          Solving linear equations simultaneously, MaxMat=     380.
 FoF2E skips out because all densities are zero.
 CalDSu exits because no D1Ps are significant.
 FoFJK:  IHMeth= 1 ICntrl=       0 DoSepK=F KAlg= 0 I1Cent=           0 FoldK=F
 IRaf= 990000000 NMat=      42 IRICut=     105 DoRegI=T DoRafI=T ISym2E= 2 IDoP0=3 IntGTp=3.
 FoFCou: FMM=F IPFlag=           0 FMFlag=      100000 FMFlg1=           0
         NFxFlg=           0 DoJE=F BraDBF=F KetDBF=F FulRan=T
         wScrn=  0.000000 ICntrl=         0 IOpCl=  1 I1Cent=           0 NGrid=           0
         NMat0=   42 NMatS0=     42 NMatT0=    0 NMatD0=   42 NMtDS0=    0 NMtDT0=    0
 Integrals replicated using symmetry in FoFCou.
 Raff kept on since  97.76% of shell-pairs survive, threshold=   0.20 IRatSp=98.
          There are    45 degrees of freedom in the 1st order CPHF.  IDoFFX=6 NUNeed=     0.
     39 vectors produced by pass  0 Test12= 2.10D-14 2.22D-09 XBig12= 1.60D-01 8.93D-02.
 AX will form    39 AO Fock derivatives at one time.
     39 vectors produced by pass  1 Test12= 2.10D-14 2.22D-09 XBig12= 6.73D-03 1.31D-02.
     39 vectors produced by pass  2 Test12= 2.10D-14 2.22D-09 XBig12= 2.00D-04 2.53D-03.
     39 vectors produced by pass  3 Test12= 2.10D-14 2.22D-09 XBig12= 2.71D-06 3.08D-04.
     39 vectors produced by pass  4 Test12= 2.10D-14 2.22D-09 XBig12= 3.75D-08 2.11D-05.
     39 vectors produced by pass  5 Test12= 2.10D-14 2.22D-09 XBig12= 3.43D-10 1.58D-06.
     38 vectors produced by pass  6 Test12= 2.10D-14 2.22D-09 XBig12= 2.96D-12 1.63D-07.
     14 vectors produced by pass  7 Test12= 2.10D-14 2.22D-09 XBig12= 2.28D-14 1.18D-08.
 InvSVY:  IOpt=1 It=  1 EMax= 1.78D-15
 Solved reduced A of dimension   286 with    39 vectors.
 End of Minotr F.D. properties file   721 does not exist.
 End of Minotr F.D. properties file   722 does not exist.
 End of Minotr F.D. properties file   788 does not exist.
 Leave Link 1002 at Tue Apr  9 01:48:54 2019, MaxMem=   671088640 cpu:            2725.9 elap:             136.3
 (Enter /shared/centos7/gaussian/g16/l601.exe)
 Copying SCF densities to generalized density rwf, IOpCl= 1 IROHF=0.

 **********************************************************************

            Population analysis using the SCF density.

 **********************************************************************

 Orbital symmetries:
 Alpha Orbitals:
       Occupied  (A) (A) (A) (A) (A) (A) (A) (A) (A) (A) (A) (A)
                 (A) (A) (A) (A) (A) (A) (A) (A) (A)
       Virtual   (A) (A) (A) (A) (A) (A) (A) (A) (A) (A) (A) (A)
                 (A) (A) (A) (A) (A) (A) (A) (A) (A) (A) (A) (A)
                 (A) (A) (A) (A) (A) (A) (A) (A) (A) (A) (A) (A)
                 (A) (A) (A) (A) (A) (A) (A) (A) (A) (A) (A) (A)
                 (A) (A) (A) (A) (A) (A) (A) (A) (A) (A) (A) (A)
                 (A) (A) (A) (A) (A) (A) (A) (A) (A) (A) (A) (A)
                 (A) (A) (A) (A) (A) (A) (A) (A) (A) (A) (A) (A)
                 (A) (A) (A) (A) (A) (A) (A) (A) (A) (A) (A) (A)
                 (A) (A) (A) (A) (A) (A) (A) (A) (A) (A) (A) (A)
                 (A) (A) (A) (A) (A) (A) (A) (A) (A) (A) (A) (A)
                 (A) (A) (A) (A) (A) (A) (A) (A) (A) (A) (A) (A)
                 (A) (A) (A) (A) (A) (A) (A) (A) (A) (A) (A) (A)
                 (A) (A) (A) (A) (A) (A) (A) (A) (A) (A) (A) (A)
                 (A) (A) (A) (A) (A) (A) (A) (A) (A) (A) (A) (A)
                 (A) (A) (A) (A) (A) (A) (A) (A) (A) (A) (A) (A)
                 (A) (A) (A) (A) (A) (A) (A) (A) (A) (A) (A) (A)
                 (A) (A) (A) (A) (A) (A) (A) (A) (A) (A) (A) (A)
                 (A) (A) (A) (A) (A) (A) (A) (A) (A) (A) (A) (A)
                 (A) (A) (A) (A) (A) (A) (A) (A) (A) (A) (A) (A)
                 (A) (A)
 Beta  Orbitals:
       Occupied  (A) (A) (A) (A) (A) (A) (A) (A) (A) (A) (A) (A)
                 (A) (A) (A) (A) (A) (A) (A) (A)
       Virtual   (A) (A) (A) (A) (A) (A) (A) (A) (A) (A) (A) (A)
                 (A) (A) (A) (A) (A) (A) (A) (A) (A) (A) (A) (A)
                 (A) (A) (A) (A) (A) (A) (A) (A) (A) (A) (A) (A)
                 (A) (A) (A) (A) (A) (A) (A) (A) (A) (A) (A) (A)
                 (A) (A) (A) (A) (A) (A) (A) (A) (A) (A) (A) (A)
                 (A) (A) (A) (A) (A) (A) (A) (A) (A) (A) (A) (A)
                 (A) (A) (A) (A) (A) (A) (A) (A) (A) (A) (A) (A)
                 (A) (A) (A) (A) (A) (A) (A) (A) (A) (A) (A) (A)
                 (A) (A) (A) (A) (A) (A) (A) (A) (A) (A) (A) (A)
                 (A) (A) (A) (A) (A) (A) (A) (A) (A) (A) (A) (A)
                 (A) (A) (A) (A) (A) (A) (A) (A) (A) (A) (A) (A)
                 (A) (A) (A) (A) (A) (A) (A) (A) (A) (A) (A) (A)
                 (A) (A) (A) (A) (A) (A) (A) (A) (A) (A) (A) (A)
                 (A) (A) (A) (A) (A) (A) (A) (A) (A) (A) (A) (A)
                 (A) (A) (A) (A) (A) (A) (A) (A) (A) (A) (A) (A)
                 (A) (A) (A) (A) (A) (A) (A) (A) (A) (A) (A) (A)
                 (A) (A) (A) (A) (A) (A) (A) (A) (A) (A) (A) (A)
                 (A) (A) (A) (A) (A) (A) (A) (A) (A) (A) (A) (A)
                 (A) (A) (A) (A) (A) (A) (A) (A) (A) (A) (A) (A)
                 (A) (A) (A)
 The electronic state is 2-A.
 Alpha  occ. eigenvalues --  -19.62591 -10.59233 -10.57788 -10.55028 -10.53297
 Alpha  occ. eigenvalues --   -1.17844  -0.88440  -0.78582  -0.77513  -0.65117
 Alpha  occ. eigenvalues --   -0.58630  -0.54805  -0.54547  -0.48718  -0.46560
 Alpha  occ. eigenvalues --   -0.46103  -0.44746  -0.42275  -0.38152  -0.33467
 Alpha  occ. eigenvalues --   -0.27536
 Alpha virt. eigenvalues --    0.01475   0.02750   0.03652   0.04041   0.06135
 Alpha virt. eigenvalues --    0.06586   0.06782   0.07518   0.08756   0.09337
 Alpha virt. eigenvalues --    0.10669   0.11666   0.12857   0.13709   0.14092
 Alpha virt. eigenvalues --    0.16088   0.17592   0.19905   0.20567   0.22440
 Alpha virt. eigenvalues --    0.23032   0.23488   0.24519   0.24825   0.26714
 Alpha virt. eigenvalues --    0.27124   0.29553   0.30512   0.32416   0.33109
 Alpha virt. eigenvalues --    0.35209   0.35797   0.37648   0.41793   0.42773
 Alpha virt. eigenvalues --    0.44499   0.47582   0.48398   0.50836   0.52012
 Alpha virt. eigenvalues --    0.53606   0.54118   0.54323   0.56952   0.57674
 Alpha virt. eigenvalues --    0.57743   0.58430   0.59281   0.61468   0.61949
 Alpha virt. eigenvalues --    0.62803   0.63668   0.65435   0.67338   0.68918
 Alpha virt. eigenvalues --    0.70937   0.70977   0.76174   0.81557   0.83688
 Alpha virt. eigenvalues --    0.86543   0.86972   0.89341   0.91530   0.93993
 Alpha virt. eigenvalues --    0.96737   0.98779   1.00277   1.01142   1.03345
 Alpha virt. eigenvalues --    1.05862   1.08203   1.10802   1.12990   1.14600
 Alpha virt. eigenvalues --    1.15703   1.17029   1.17957   1.20443   1.22247
 Alpha virt. eigenvalues --    1.23155   1.24943   1.25879   1.28272   1.30242
 Alpha virt. eigenvalues --    1.31823   1.34053   1.34407   1.36071   1.38195
 Alpha virt. eigenvalues --    1.38548   1.39571   1.41658   1.43493   1.45046
 Alpha virt. eigenvalues --    1.48100   1.50369   1.51450   1.52262   1.54429
 Alpha virt. eigenvalues --    1.55468   1.56586   1.58429   1.61791   1.64386
 Alpha virt. eigenvalues --    1.68024   1.70843   1.71324   1.82420   2.04931
 Alpha virt. eigenvalues --    2.09006   2.15931   2.26933   2.36546   2.40718
 Alpha virt. eigenvalues --    2.46608   2.48464   2.52593   2.54744   2.58861
 Alpha virt. eigenvalues --    2.61918   2.68754   2.69674   2.74622   2.79727
 Alpha virt. eigenvalues --    2.82226   2.85359   2.90895   2.93227   2.95023
 Alpha virt. eigenvalues --    2.98055   2.98775   3.00239   3.04730   3.08339
 Alpha virt. eigenvalues --    3.09604   3.11458   3.12855   3.14781   3.16559
 Alpha virt. eigenvalues --    3.17981   3.19171   3.21357   3.24407   3.27522
 Alpha virt. eigenvalues --    3.29804   3.31191   3.33974   3.34818   3.38177
 Alpha virt. eigenvalues --    3.40261   3.42837   3.45427   3.47164   3.48846
 Alpha virt. eigenvalues --    3.53169   3.54593   3.57108   3.59932   3.64065
 Alpha virt. eigenvalues --    3.67064   3.68452   3.72963   3.73707   3.76943
 Alpha virt. eigenvalues --    3.79266   3.82844   3.84160   3.86346   3.89749
 Alpha virt. eigenvalues --    3.93191   3.94919   3.96061   4.00206   4.00724
 Alpha virt. eigenvalues --    4.06728   4.08314   4.10657   4.11233   4.14096
 Alpha virt. eigenvalues --    4.16882   4.18897   4.19765   4.22846   4.25321
 Alpha virt. eigenvalues --    4.28211   4.31372   4.33265   4.33511   4.37261
 Alpha virt. eigenvalues --    4.39702   4.42194   4.43110   4.49318   4.50235
 Alpha virt. eigenvalues --    4.51357   4.55469   4.59145   4.62827   4.73027
 Alpha virt. eigenvalues --    4.90776   4.92595   5.18572   5.25676   5.28539
 Alpha virt. eigenvalues --    5.33960   5.39915   5.43053   5.47824   5.52078
 Alpha virt. eigenvalues --    5.54704   5.55837   5.58067   5.60357   5.71946
 Alpha virt. eigenvalues --    5.85703   5.98884   6.28330   6.53490   6.81669
 Alpha virt. eigenvalues --    7.22575   7.24637   7.35855   7.70418   7.77557
 Alpha virt. eigenvalues --   24.17231  24.31099  24.41646  24.54320  50.20634
  Beta  occ. eigenvalues --  -19.62597 -10.59280 -10.57785 -10.54267 -10.53225
  Beta  occ. eigenvalues --   -1.17825  -0.87550  -0.78432  -0.74874  -0.64213
  Beta  occ. eigenvalues --   -0.58204  -0.54545  -0.53882  -0.48492  -0.46126
  Beta  occ. eigenvalues --   -0.45091  -0.43993  -0.42097  -0.37589  -0.33063
  Beta virt. eigenvalues --   -0.03552   0.01148   0.02720   0.03544   0.04278
  Beta virt. eigenvalues --    0.06089   0.06542   0.06650   0.07343   0.09229
  Beta virt. eigenvalues --    0.09450   0.10765   0.11607   0.12472   0.12786
  Beta virt. eigenvalues --    0.14033   0.15397   0.17951   0.20415   0.20885
  Beta virt. eigenvalues --    0.22578   0.22973   0.23775   0.24417   0.24904
  Beta virt. eigenvalues --    0.26886   0.27366   0.29947   0.30437   0.32358
  Beta virt. eigenvalues --    0.33110   0.35383   0.35611   0.38080   0.42151
  Beta virt. eigenvalues --    0.42917   0.44410   0.48015   0.49034   0.51160
  Beta virt. eigenvalues --    0.51984   0.53821   0.54303   0.54917   0.57177
  Beta virt. eigenvalues --    0.57704   0.57843   0.58838   0.59302   0.61559
  Beta virt. eigenvalues --    0.62129   0.62622   0.63816   0.65120   0.67153
  Beta virt. eigenvalues --    0.68924   0.70825   0.71030   0.76224   0.80981
  Beta virt. eigenvalues --    0.84068   0.86409   0.86956   0.89016   0.91472
  Beta virt. eigenvalues --    0.94143   0.96724   0.98506   0.99900   1.01467
  Beta virt. eigenvalues --    1.03467   1.06002   1.08214   1.10865   1.12794
  Beta virt. eigenvalues --    1.14552   1.15678   1.17046   1.18092   1.20557
  Beta virt. eigenvalues --    1.22092   1.23347   1.25080   1.25960   1.28536
  Beta virt. eigenvalues --    1.30361   1.31868   1.34210   1.34658   1.36406
  Beta virt. eigenvalues --    1.38567   1.38748   1.39952   1.41864   1.43980
  Beta virt. eigenvalues --    1.45403   1.48207   1.50311   1.51598   1.52555
  Beta virt. eigenvalues --    1.54433   1.55671   1.56881   1.59523   1.61858
  Beta virt. eigenvalues --    1.64248   1.68102   1.71320   1.71414   1.82521
  Beta virt. eigenvalues --    2.05120   2.09314   2.16128   2.27234   2.36602
  Beta virt. eigenvalues --    2.40962   2.46877   2.48895   2.53598   2.55221
  Beta virt. eigenvalues --    2.59231   2.62019   2.69241   2.71240   2.75180
  Beta virt. eigenvalues --    2.82528   2.84082   2.89693   2.93192   2.94372
  Beta virt. eigenvalues --    2.95836   2.98724   3.00914   3.01929   3.06154
  Beta virt. eigenvalues --    3.09159   3.11778   3.12393   3.14088   3.16168
  Beta virt. eigenvalues --    3.17755   3.19206   3.20504   3.22985   3.27600
  Beta virt. eigenvalues --    3.29890   3.31412   3.34689   3.35042   3.35647
  Beta virt. eigenvalues --    3.38760   3.42111   3.44125   3.46252   3.48095
  Beta virt. eigenvalues --    3.49902   3.55362   3.56428   3.59622   3.62054
  Beta virt. eigenvalues --    3.64546   3.67977   3.70722   3.73003   3.74779
  Beta virt. eigenvalues --    3.77741   3.79862   3.83481   3.84542   3.86603
  Beta virt. eigenvalues --    3.91341   3.94180   3.96063   3.97174   4.00939
  Beta virt. eigenvalues --    4.02351   4.08140   4.09415   4.11586   4.13890
  Beta virt. eigenvalues --    4.14589   4.17544   4.19908   4.20906   4.23762
  Beta virt. eigenvalues --    4.25986   4.29138   4.32126   4.33585   4.35841
  Beta virt. eigenvalues --    4.37801   4.40524   4.42714   4.44644   4.49889
  Beta virt. eigenvalues --    4.50855   4.52195   4.56761   4.59781   4.62967
  Beta virt. eigenvalues --    4.75683   4.92731   4.94186   5.20248   5.25692
  Beta virt. eigenvalues --    5.28546   5.35599   5.42613   5.46493   5.49066
  Beta virt. eigenvalues --    5.53230   5.54856   5.55966   5.58898   5.60456
  Beta virt. eigenvalues --    5.72123   5.85782   5.99078   6.28441   6.53489
  Beta virt. eigenvalues --    6.81699   7.22584   7.24653   7.35880   7.70443
  Beta virt. eigenvalues --    7.77563  24.18484  24.31314  24.41657  24.54428
  Beta virt. eigenvalues --   50.20639
          Condensed to atoms (all electrons):
               1          2          3          4          5          6
     1  O    8.159945   0.233789  -0.083560   0.133754  -0.083386  -0.078633
     2  C    0.233789   5.537116   0.024748  -0.130076   0.006469   0.525246
     3  C   -0.083560   0.024748   5.276534   0.023242   0.027531  -0.070186
     4  C    0.133754  -0.130076   0.023242   5.039723  -0.013277  -0.000131
     5  C   -0.083386   0.006469   0.027531  -0.013277   5.656871  -0.053965
     6  H   -0.078633   0.525246  -0.070186  -0.000131  -0.053965   0.528899
     7  H   -0.012266   0.029216   0.387325  -0.002906  -0.029979   0.006206
     8  H    0.000229  -0.052210   0.427633  -0.003580   0.015822  -0.004638
     9  H    0.011784  -0.054698   0.427585   0.002339  -0.003342  -0.008648
    10  H   -0.052961  -0.014170   0.006808   0.445139  -0.001246  -0.000197
    11  H   -0.058805   0.010394   0.000956   0.428976   0.000779   0.000066
    12  H   -0.049957   0.022269  -0.012384   0.415453  -0.009386  -0.000077
    13  H   -0.008490  -0.006501  -0.013276  -0.009014   0.408394   0.002837
    14  H    0.008466  -0.071339   0.021582   0.000697   0.413763  -0.001502
               7          8          9         10         11         12
     1  O   -0.012266   0.000229   0.011784  -0.052961  -0.058805  -0.049957
     2  C    0.029216  -0.052210  -0.054698  -0.014170   0.010394   0.022269
     3  C    0.387325   0.427633   0.427585   0.006808   0.000956  -0.012384
     4  C   -0.002906  -0.003580   0.002339   0.445139   0.428976   0.415453
     5  C   -0.029979   0.015822  -0.003342  -0.001246   0.000779  -0.009386
     6  H    0.006206  -0.004638  -0.008648  -0.000197   0.000066  -0.000077
     7  H    0.547899  -0.033306  -0.029940  -0.005996   0.000308  -0.000775
     8  H   -0.033306   0.513413  -0.017686  -0.000529  -0.000139   0.000518
     9  H   -0.029940  -0.017686   0.528574   0.000063   0.000022   0.000019
    10  H   -0.005996  -0.000529   0.000063   0.579100  -0.027820  -0.057285
    11  H    0.000308  -0.000139   0.000022  -0.027820   0.529971  -0.022885
    12  H   -0.000775   0.000518   0.000019  -0.057285  -0.022885   0.601972
    13  H    0.000257  -0.000390   0.000616   0.001072   0.000281  -0.004405
    14  H   -0.001429   0.000220  -0.001411   0.000170  -0.000001  -0.000835
              13         14
     1  O   -0.008490   0.008466
     2  C   -0.006501  -0.071339
     3  C   -0.013276   0.021582
     4  C   -0.009014   0.000697
     5  C    0.408394   0.413763
     6  H    0.002837  -0.001502
     7  H    0.000257  -0.001429
     8  H   -0.000390   0.000220
     9  H    0.000616  -0.001411
    10  H    0.001072   0.000170
    11  H    0.000281  -0.000001
    12  H   -0.004405  -0.000835
    13  H    0.501379  -0.030737
    14  H   -0.030737   0.513221
          Atomic-Atomic Spin Densities.
               1          2          3          4          5          6
     1  O    0.011579  -0.024608   0.016939   0.003387   0.002687  -0.005731
     2  C   -0.024608   0.072174  -0.060714  -0.024487  -0.056667   0.030360
     3  C    0.016939  -0.060714   0.112676   0.015616  -0.034293  -0.013119
     4  C    0.003387  -0.024487   0.015616   0.031540  -0.009194   0.000252
     5  C    0.002687  -0.056667  -0.034293  -0.009194   1.206869  -0.031290
     6  H   -0.005731   0.030360  -0.013119   0.000252  -0.031290   0.038433
     7  H    0.000950  -0.005335   0.006351   0.005016  -0.008991  -0.000131
     8  H   -0.003623   0.007735  -0.006276  -0.002727   0.005023   0.002341
     9  H    0.000567   0.000079   0.000361   0.000488  -0.001637  -0.001439
    10  H   -0.000708   0.001709  -0.000774  -0.000204  -0.001022  -0.000051
    11  H   -0.001157   0.003249  -0.001155  -0.003170   0.000722   0.000112
    12  H    0.000733   0.000214  -0.001162  -0.000930   0.002020   0.000118
    13  H   -0.000340   0.009601  -0.003640  -0.000133  -0.007008   0.000251
    14  H   -0.001102   0.006919  -0.000325  -0.000480  -0.007781   0.001327
               7          8          9         10         11         12
     1  O    0.000950  -0.003623   0.000567  -0.000708  -0.001157   0.000733
     2  C   -0.005335   0.007735   0.000079   0.001709   0.003249   0.000214
     3  C    0.006351  -0.006276   0.000361  -0.000774  -0.001155  -0.001162
     4  C    0.005016  -0.002727   0.000488  -0.000204  -0.003170  -0.000930
     5  C   -0.008991   0.005023  -0.001637  -0.001022   0.000722   0.002020
     6  H   -0.000131   0.002341  -0.001439  -0.000051   0.000112   0.000118
     7  H   -0.005804   0.000841   0.000703  -0.000540   0.000015  -0.000040
     8  H    0.000841   0.004535  -0.001243   0.000156   0.000036   0.000011
     9  H    0.000703  -0.001243  -0.000958   0.000019  -0.000009  -0.000001
    10  H   -0.000540   0.000156   0.000019  -0.001354   0.000270  -0.000370
    11  H    0.000015   0.000036  -0.000009   0.000270  -0.000022   0.000763
    12  H   -0.000040   0.000011  -0.000001  -0.000370   0.000763  -0.006080
    13  H    0.000292   0.000014  -0.000029  -0.000034   0.000031   0.000991
    14  H    0.000135   0.000017  -0.000570  -0.000013   0.000000  -0.000024
              13         14
     1  O   -0.000340  -0.001102
     2  C    0.009601   0.006919
     3  C   -0.003640  -0.000325
     4  C   -0.000133  -0.000480
     5  C   -0.007008  -0.007781
     6  H    0.000251   0.001327
     7  H    0.000292   0.000135
     8  H    0.000014   0.000017
     9  H   -0.000029  -0.000570
    10  H   -0.000034  -0.000013
    11  H    0.000031   0.000000
    12  H    0.000991  -0.000024
    13  H   -0.042214   0.002985
    14  H    0.002985  -0.037627
 Mulliken charges and spin densities:
               1          2
     1  O   -0.119908  -0.000427
     2  C   -0.060254  -0.039771
     3  C   -0.444540   0.030485
     4  C   -0.330338   0.014974
     5  C   -0.335048   1.059437
     6  H    0.154723   0.021435
     7  H    0.145385  -0.006539
     8  H    0.154641   0.006838
     9  H    0.144723  -0.003669
    10  H    0.127852  -0.002917
    11  H    0.137896  -0.000316
    12  H    0.117758  -0.003756
    13  H    0.157977  -0.039232
    14  H    0.149133  -0.036540
 Sum of Mulliken charges =  -0.00000   1.00000
 Mulliken charges and spin densities with hydrogens summed into heavy atoms:
               1          2
     1  O   -0.119908  -0.000427
     2  C    0.094470  -0.018337
     3  C    0.000209   0.027115
     4  C    0.053168   0.007984
     5  C   -0.027938   0.983665
 APT charges:
               1
     1  O   -0.097095
     2  C   -0.330868
     3  C   -1.172621
     4  C   -1.114609
     5  C   -0.754341
     6  H    0.440147
     7  H    0.299351
     8  H    0.383589
     9  H    0.460080
    10  H    0.312998
    11  H    0.535896
    12  H    0.266588
    13  H    0.310635
    14  H    0.460250
 Sum of APT charges =  -0.00000
 APT charges with hydrogens summed into heavy atoms:
               1
     1  O   -0.097095
     2  C    0.109279
     3  C   -0.029601
     4  C    0.000873
     5  C    0.016544
 Electronic spatial extent (au):  <R**2>=            442.4483
 Charge=             -0.0000 electrons
 Dipole moment (field-independent basis, Debye):
    X=              0.5654    Y=             -0.2277    Z=             -1.4379  Tot=              1.5617
 Quadrupole moment (field-independent basis, Debye-Ang):
   XX=            -31.0308   YY=            -34.1757   ZZ=            -34.3971
   XY=             -0.6324   XZ=              2.0259   YZ=             -0.8304
 Traceless Quadrupole moment (field-independent basis, Debye-Ang):
   XX=              2.1704   YY=             -0.9745   ZZ=             -1.1959
   XY=             -0.6324   XZ=              2.0259   YZ=             -0.8304
 Octapole moment (field-independent basis, Debye-Ang**2):
  XXX=             -5.8136  YYY=             -5.4833  ZZZ=              2.8781  XYY=             -2.9032
  XXY=             -0.0122  XXZ=             -0.5198  XZZ=              0.2726  YZZ=             -0.8744
  YYZ=             -1.5306  XYZ=             -1.0487
 Hexadecapole moment (field-independent basis, Debye-Ang**3):
 XXXX=           -283.2981 YYYY=           -210.1130 ZZZZ=           -103.9654 XXXY=              1.4508
 XXXZ=             -4.2320 YYYX=             -4.4363 YYYZ=             -7.4606 ZZZX=              2.4508
 ZZZY=             -0.2017 XXYY=            -87.5599 XXZZ=            -71.4869 YYZZ=            -51.9617
 XXYZ=             -2.1732 YYXZ=             -0.5220 ZZXY=             -0.8484
 N-N= 1.913682218018D+02 E-N=-9.254295020991D+02  KE= 2.319683313490D+02
  Exact polarizability:   0.000   0.000   0.000   0.000   0.000   0.000
 Approx polarizability:  63.453   0.636  60.961   0.814  -1.283  59.683
                          Isotropic Fermi Contact Couplings
        Atom                 a.u.       MegaHertz       Gauss      10(-4) cm-1
     1  O(17)              0.00042      -0.25204      -0.08993      -0.08407
     2  C(13)             -0.02362     -26.55154      -9.47425      -8.85664
     3  C(13)              0.05629      63.28209      22.58062      21.10863
     4  C(13)             -0.00000      -0.00396      -0.00141      -0.00132
     5  C(13)              0.25129     282.50088     100.80334      94.23215
     6  H(1)               0.01534      68.56324      24.46507      22.87024
     7  H(1)              -0.00049      -2.20828      -0.78797      -0.73660
     8  H(1)               0.00339      15.13202       5.39948       5.04750
     9  H(1)              -0.00025      -1.13449      -0.40482      -0.37843
    10  H(1)              -0.00012      -0.52368      -0.18686      -0.17468
    11  H(1)               0.00016       0.72613       0.25910       0.24221
    12  H(1)               0.00016       0.71873       0.25646       0.23974
    13  H(1)              -0.01297     -57.99349     -20.69352     -19.34455
    14  H(1)              -0.01251     -55.92596     -19.95577     -18.65489
 --------------------------------------------------------
       Center         ----  Spin Dipole Couplings  ----
                      3XX-RR        3YY-RR        3ZZ-RR
 --------------------------------------------------------
     1   Atom        0.008986     -0.005736     -0.003250
     2   Atom       -0.012346      0.013673     -0.001326
     3   Atom       -0.016821      0.036864     -0.020043
     4   Atom        0.003284      0.000170     -0.003453
     5   Atom       -0.524728      0.011076      0.513652
     6   Atom       -0.010524      0.006278      0.004246
     7   Atom       -0.009105      0.007452      0.001653
     8   Atom       -0.004270      0.007706     -0.003436
     9   Atom        0.002662      0.004425     -0.007087
    10   Atom        0.001448      0.001376     -0.002824
    11   Atom        0.003891     -0.001392     -0.002499
    12   Atom        0.012769     -0.007315     -0.005454
    13   Atom        0.009521     -0.015763      0.006242
    14   Atom        0.055367     -0.043778     -0.011588
 --------------------------------------------------------
                        XY            XZ            YZ
 --------------------------------------------------------
     1   Atom        0.004282     -0.003121     -0.002930
     2   Atom        0.007230     -0.000437      0.009567
     3   Atom       -0.024817     -0.007495      0.017937
     4   Atom        0.006756      0.000341     -0.003283
     5   Atom        0.029797      0.043777      0.754484
     6   Atom       -0.001656      0.002565     -0.015668
     7   Atom        0.000229      0.000777      0.008056
     8   Atom        0.000515     -0.000784     -0.001555
     9   Atom       -0.008325     -0.001296      0.000844
    10   Atom        0.004421      0.001721      0.001716
    11   Atom        0.002305     -0.000015      0.000029
    12   Atom        0.005057      0.006316      0.001690
    13   Atom       -0.048311      0.050706     -0.002576
    14   Atom        0.021348     -0.040142      0.021109
 --------------------------------------------------------


 ---------------------------------------------------------------------------------
              Anisotropic Spin Dipole Couplings in Principal Axis System
 ---------------------------------------------------------------------------------

       Atom             a.u.   MegaHertz   Gauss  10(-4) cm-1        Axes

              Baa    -0.0079     0.574     0.205     0.192 -0.1379  0.8784  0.4576
     1 O(17)  Bbb    -0.0032     0.232     0.083     0.078  0.3539 -0.3879  0.8511
              Bcc     0.0111    -0.807    -0.288    -0.269  0.9251  0.2793 -0.2574
 
              Baa    -0.0150    -2.007    -0.716    -0.669  0.9155 -0.3149  0.2504
     2 C(13)  Bbb    -0.0046    -0.623    -0.222    -0.208 -0.3510 -0.3209  0.8796
              Bcc     0.0196     2.629     0.938     0.877  0.1967  0.8932  0.4043
 
              Baa    -0.0267    -3.579    -1.277    -1.194  0.9169  0.2771  0.2871
     3 C(13)  Bbb    -0.0252    -3.377    -1.205    -1.126 -0.1856 -0.3408  0.9216
              Bcc     0.0518     6.956     2.482     2.320 -0.3532  0.8984  0.2610
 
              Baa    -0.0073    -0.982    -0.350    -0.328 -0.4424  0.6637  0.6031
     4 C(13)  Bbb    -0.0016    -0.216    -0.077    -0.072  0.4835 -0.3898  0.7837
              Bcc     0.0089     1.198     0.427     0.400  0.7553  0.6384 -0.1485
 
              Baa    -0.5332   -71.547   -25.530   -23.865  0.2093  0.7891 -0.5775
     5 C(13)  Bbb    -0.5262   -70.610   -25.195   -23.553  0.9773 -0.1890  0.0960
              Bcc     1.0594   142.156    50.725    47.418  0.0334  0.5845  0.8107
 
              Baa    -0.0114    -6.070    -2.166    -2.025  0.7838 -0.3695 -0.4992
     6 H(1)   Bbb    -0.0099    -5.262    -1.878    -1.755  0.6141  0.5813  0.5339
              Bcc     0.0212    11.332     4.044     3.780 -0.0929  0.7250 -0.6825
 
              Baa    -0.0092    -4.894    -1.746    -1.633  0.9949  0.0327 -0.0957
     7 H(1)   Bbb    -0.0040    -2.113    -0.754    -0.705  0.0971 -0.5753  0.8122
              Bcc     0.0131     7.007     2.500     2.337  0.0285  0.8173  0.5755
 
              Baa    -0.0048    -2.536    -0.905    -0.846  0.8414  0.0326  0.5394
     8 H(1)   Bbb    -0.0032    -1.706    -0.609    -0.569 -0.5380  0.1439  0.8306
              Bcc     0.0080     4.242     1.514     1.415  0.0505  0.9891 -0.1386
 
              Baa    -0.0073    -3.878    -1.384    -1.294  0.1708  0.0506  0.9840
     9 H(1)   Bbb    -0.0048    -2.541    -0.907    -0.848  0.7241  0.6708 -0.1602
              Bcc     0.0120     6.419     2.291     2.141 -0.6682  0.7399  0.0779
 
              Baa    -0.0035    -1.846    -0.659    -0.616 -0.1696 -0.1882  0.9674
    10 H(1)   Bbb    -0.0030    -1.605    -0.573    -0.536 -0.7068  0.7073  0.0137
              Bcc     0.0065     3.451     1.232     1.151  0.6868  0.6814  0.2530
 
              Baa    -0.0025    -1.336    -0.477    -0.446  0.0462 -0.1217  0.9915
    11 H(1)   Bbb    -0.0023    -1.202    -0.429    -0.401 -0.3480  0.9284  0.1302
              Bcc     0.0048     2.537     0.905     0.846  0.9364  0.3510 -0.0006
 
              Baa    -0.0085    -4.559    -1.627    -1.521 -0.1853  0.9708 -0.1521
    12 H(1)   Bbb    -0.0074    -3.959    -1.413    -1.321 -0.3173  0.0874  0.9443
              Bcc     0.0160     8.518     3.039     2.841  0.9300  0.2232  0.2919
 
              Baa    -0.0674   -35.963   -12.833   -11.996  0.6672  0.6023 -0.4383
    13 H(1)   Bbb    -0.0074    -3.974    -1.418    -1.326 -0.1562  0.6885  0.7082
              Bcc     0.0749    39.938    14.251    13.322  0.7283 -0.4040  0.5534
 
              Baa    -0.0665   -35.486   -12.662   -11.837 -0.3129  0.7873 -0.5313
    14 H(1)   Bbb    -0.0086    -4.599    -1.641    -1.534  0.2653  0.6096  0.7470
              Bcc     0.0751    40.084    14.303    13.371  0.9120  0.0928 -0.3996
 

 ---------------------------------------------------------------------------------

 No NMR shielding tensors so no spin-rotation constants.
 Leave Link  601 at Tue Apr  9 01:48:54 2019, MaxMem=   671088640 cpu:               7.3 elap:               0.4
 (Enter /shared/centos7/gaussian/g16/l701.exe)
 SCFChk:  SCF convergence  2.82D-09 required  1.00D-08
 ... and contract with generalized density number  0.
 Compute integral second derivatives.
 Entering OneElI...
 Calculate overlap and kinetic energy integrals
    NBasis = 276  MinDer = 2  MaxDer = 2
 Requested accuracy = 0.1000D-12
 PrmmSu-InSpLW:  IPartL=    0 NPrtUS=   20 NPrtUL=    1 DoSpLW=F IThBeg=    0 IThEnd=   19 NThAct=   20.
 PrsmSu:  NPrtUS=  20 ThrOK=T IAlg=1 NPAlg=1 LenDen=           0 ISkipM=0 DoSpLW=F IThBeg=    0 IThEnd=   19.
 Prism:   IPart=     0 DynPar=F LinDyn=F Incr=           1.
 PRISM was handed    33456026 working-precision words and  3655 shell-pairs
 PRISM was handed    33456026 working-precision words and  3655 shell-pairs
 PRISM was handed    33456026 working-precision words and  3655 shell-pairs
 PRISM was handed    33456026 working-precision words and  3655 shell-pairs
 PRISM was handed    33456026 working-precision words and  3655 shell-pairs
 PRISM was handed    33456026 working-precision words and  3655 shell-pairs
 PRISM was handed    33456026 working-precision words and  3655 shell-pairs
 PRISM was handed    33456026 working-precision words and  3655 shell-pairs
 PRISM was handed    33456026 working-precision words and  3655 shell-pairs
 PRISM was handed    33456026 working-precision words and  3655 shell-pairs
 PRISM was handed    33456026 working-precision words and  3655 shell-pairs
 PRISM was handed    33456026 working-precision words and  3655 shell-pairs
 PRISM was handed    33456026 working-precision words and  3655 shell-pairs
 PRISM was handed    33456026 working-precision words and  3655 shell-pairs
 PRISM was handed    33456026 working-precision words and  3655 shell-pairs
 PRISM was handed    33456026 working-precision words and  3655 shell-pairs
 PRISM was handed    33456026 working-precision words and  3655 shell-pairs
 PRISM was handed    33456026 working-precision words and  3655 shell-pairs
 PRISM was handed    33456026 working-precision words and  3655 shell-pairs
 PRISM was handed    33456026 working-precision words and  3655 shell-pairs
 IPart= 16 NShTot=         164 NBatch=          30 AvBLen=         5.5
 IPart=  0 NShTot=         212 NBatch=          52 AvBLen=         4.1
 IPart= 15 NShTot=         164 NBatch=          30 AvBLen=         5.5
 IPart=  9 NShTot=         186 NBatch=          37 AvBLen=         5.0
 IPart= 10 NShTot=         174 NBatch=          35 AvBLen=         5.0
 IPart=  4 NShTot=         202 NBatch=          46 AvBLen=         4.4
 IPart=  6 NShTot=         191 NBatch=          39 AvBLen=         4.9
 IPart=  3 NShTot=         204 NBatch=          47 AvBLen=         4.3
 IPart= 17 NShTot=         164 NBatch=          30 AvBLen=         5.5
 IPart=  2 NShTot=         205 NBatch=          47 AvBLen=         4.4
 IPart= 13 NShTot=         170 NBatch=          33 AvBLen=         5.2
 IPart= 12 NShTot=         171 NBatch=          33 AvBLen=         5.2
 IPart=  5 NShTot=         193 NBatch=          40 AvBLen=         4.8
 IPart=  7 NShTot=         191 NBatch=          39 AvBLen=         4.9
 IPart=  1 NShTot=         210 NBatch=          51 AvBLen=         4.1
 IPart= 18 NShTot=         164 NBatch=          30 AvBLen=         5.5
 IPart= 14 NShTot=         169 NBatch=          32 AvBLen=         5.3
 IPart=  8 NShTot=         187 NBatch=          38 AvBLen=         4.9
 IPart= 11 NShTot=         171 NBatch=          33 AvBLen=         5.2
 IPart= 19 NShTot=         163 NBatch=          29 AvBLen=         5.6
 PrSmSu:  NxtVal=             21.
 Entering OneElI...
 Calculate potential energy integrals
    NBasis = 276  MinDer = 2  MaxDer = 2
 Requested accuracy = 0.1000D-12
 PrmmSu-InSpLW:  IPartL=    0 NPrtUS=   20 NPrtUL=    1 DoSpLW=F IThBeg=    0 IThEnd=   19 NThAct=   20.
 PrsmSu:  NPrtUS=  20 ThrOK=T IAlg=1 NPAlg=1 LenDen=           0 ISkipM=0 DoSpLW=F IThBeg=    0 IThEnd=   19.
 Prism:   IPart=     0 DynPar=F LinDyn=F Incr=          24.
 PRISM was handed    33468279 working-precision words and  3548 shell-pairs
 PRISM was handed    33468279 working-precision words and  3548 shell-pairs
 PRISM was handed    33468279 working-precision words and  3548 shell-pairs
 PRISM was handed    33468279 working-precision words and  3548 shell-pairs
 PRISM was handed    33468279 working-precision words and  3548 shell-pairs
 PRISM was handed    33468279 working-precision words and  3548 shell-pairs
 PRISM was handed    33468279 working-precision words and  3548 shell-pairs
 PRISM was handed    33468279 working-precision words and  3548 shell-pairs
 PRISM was handed    33468279 working-precision words and  3548 shell-pairs
 PRISM was handed    33468279 working-precision words and  3548 shell-pairs
 PRISM was handed    33468279 working-precision words and  3548 shell-pairs
 PRISM was handed    33468279 working-precision words and  3548 shell-pairs
 PRISM was handed    33468279 working-precision words and  3548 shell-pairs
 PRISM was handed    33468279 working-precision words and  3548 shell-pairs
 PRISM was handed    33468279 working-precision words and  3548 shell-pairs
 PRISM was handed    33468279 working-precision words and  3548 shell-pairs
 PRISM was handed    33468279 working-precision words and  3548 shell-pairs
 PRISM was handed    33468279 working-precision words and  3548 shell-pairs
 PRISM was handed    33468279 working-precision words and  3548 shell-pairs
 PRISM was handed    33468279 working-precision words and  3548 shell-pairs
 IPart= 16 NShTot=        2226 NBatch=         159 AvBLen=        14.0
 IPart= 15 NShTot=        2268 NBatch=         162 AvBLen=        14.0
 IPart=  0 NShTot=        2940 NBatch=         210 AvBLen=        14.0
 IPart= 17 NShTot=        2212 NBatch=         158 AvBLen=        14.0
 IPart= 10 NShTot=        2394 NBatch=         171 AvBLen=        14.0
 IPart=  8 NShTot=        2506 NBatch=         179 AvBLen=        14.0
 IPart=  7 NShTot=        2548 NBatch=         182 AvBLen=        14.0
 IPart=  5 NShTot=        2604 NBatch=         186 AvBLen=        14.0
 IPart=  3 NShTot=        2772 NBatch=         198 AvBLen=        14.0
 IPart=  4 NShTot=        2702 NBatch=         193 AvBLen=        14.0
 IPart=  6 NShTot=        2548 NBatch=         182 AvBLen=        14.0
 IPart= 18 NShTot=        2198 NBatch=         157 AvBLen=        14.0
 IPart= 12 NShTot=        2366 NBatch=         169 AvBLen=        14.0
 IPart= 14 NShTot=        2324 NBatch=         166 AvBLen=        14.0
 IPart= 13 NShTot=        2352 NBatch=         168 AvBLen=        14.0
 IPart=  9 NShTot=        2478 NBatch=         177 AvBLen=        14.0
 IPart= 19 NShTot=        2184 NBatch=         156 AvBLen=        14.0
 IPart=  2 NShTot=        2800 NBatch=         200 AvBLen=        14.0
 IPart=  1 NShTot=        2884 NBatch=         206 AvBLen=        14.0
 IPart= 11 NShTot=        2366 NBatch=         169 AvBLen=        14.0
 PrSmSu:  NxtVal=            481.
 Polarizability after L701:
                1             2             3 
      1  0.000000D+00
      2  0.000000D+00  0.000000D+00
      3  0.000000D+00  0.000000D+00  0.000000D+00
 Dipole Derivatives after L701:
                 1             2             3             4             5 
      1  -0.285951D-01 -0.354684D-01  0.372508D+00 -0.343500D+00  0.115744D+00
      2  -0.348535D-01 -0.176778D+00  0.366428D-01  0.692457D-01  0.310106D+00
      3   0.185096D+00 -0.510423D-03 -0.859115D-01 -0.366539D+00  0.554165D-01
                 6             7             8             9            10 
      1  -0.454984D+00 -0.122456D+01  0.425755D+00  0.231856D+00 -0.152937D+01
      2   0.570795D-01  0.224108D+00 -0.143636D+01 -0.198470D+00 -0.505546D-01
      3  -0.959211D+00 -0.492505D-01 -0.182110D-01 -0.856944D+00 -0.610464D-01
                11            12            13            14            15 
      1  -0.880844D-02 -0.787598D+00 -0.968331D+00 -0.283661D+00  0.386151D+00
      2  -0.939739D+00 -0.105268D+00 -0.161286D+00 -0.907598D+00  0.937529D+00
      3  -0.666472D-01 -0.874722D+00 -0.473208D-02  0.306985D+00 -0.387095D+00
                16            17            18            19            20 
      1   0.412638D+00 -0.337197D-01  0.354775D+00  0.500898D-01 -0.203478D-01
      2   0.436438D-02  0.176914D+00  0.222175D-01  0.134812D+00  0.155990D+00
      3   0.285211D+00 -0.355746D-01  0.730889D+00  0.219279D+00 -0.114727D-01
                21            22            23            24            25 
      1  -0.272009D+00  0.192217D-01 -0.340524D+00  0.127954D+00  0.114276D+01
      2   0.373855D+00  0.231580D+00  0.956427D+00 -0.335784D+00 -0.427009D+00
      3   0.691973D+00 -0.175051D-01 -0.617311D-01  0.175119D+00 -0.129074D+00
                26            27            28            29            30 
      1   0.823636D-01 -0.150915D-01  0.520517D-01  0.429307D+00  0.382594D+00
      2   0.998258D-01  0.203387D-01 -0.107014D+00  0.487147D+00  0.222747D+00
      3  -0.275353D-02  0.137657D+00 -0.643863D-01  0.322745D+00  0.399794D+00
                31            32            33            34            35 
      1   0.133090D+01 -0.459355D-01 -0.293095D+00 -0.210180D-01 -0.405801D+00
      2   0.170220D-01  0.114463D+00  0.354373D-02  0.137377D+00  0.455518D+00
      3   0.604997D-01  0.479444D-02  0.162324D+00 -0.968261D-01 -0.308634D+00
                36            37            38            39            40 
      1   0.340547D+00  0.159675D+00  0.739972D-02 -0.181246D-01  0.948030D+00
      2  -0.161447D+00 -0.703298D+00  0.478803D+00 -0.553448D+00  0.665507D+00
      3   0.365264D+00  0.257201D+00 -0.140032D+00  0.293425D+00 -0.217927D+00
                41            42 
      1   0.113697D+00 -0.355482D+00
      2   0.225284D+00 -0.319536D+00
      3  -0.443750D-01  0.207437D+00
 Hessian after L701:
                1             2             3             4             5 
      1  0.406048D+01
      2 -0.866010D+00  0.138410D+02
      3 -0.149302D+01  0.374324D+00  0.100030D+02
      4 -0.323587D+00  0.108140D+01 -0.113528D+01  0.126620D+02
      5  0.108699D+01 -0.781501D+01 -0.207513D+00 -0.349970D+00  0.173474D+02
      6 -0.120813D+01 -0.209920D+00 -0.750991D+01  0.111890D+01  0.366322D+00
      7  0.250338D+00 -0.495711D+00 -0.284640D+00 -0.452398D+01 -0.160810D+01
      8 -0.385605D+00  0.636423D-01  0.219386D+00 -0.163353D+01 -0.309694D+01
      9 -0.287433D+00  0.256516D+00 -0.197011D-01 -0.114545D+01  0.166762D+01
     10 -0.445020D+01 -0.145174D+00  0.360739D+01  0.480573D+00 -0.639743D-02
     11 -0.144898D+00 -0.745295D+01 -0.189882D+00 -0.103340D-02 -0.155306D+00
     12  0.356777D+01 -0.185386D+00 -0.227007D+01  0.238298D+00 -0.719256D-02
     13  0.317440D-01  0.527413D+00 -0.116129D+00 -0.508772D+01  0.103650D+01
     14  0.440051D+00  0.447231D+00 -0.197049D+00  0.107399D+01 -0.193516D+01
     15 -0.958812D-01 -0.200616D+00 -0.130697D+00 -0.595901D+00 -0.172743D+01
     16 -0.126437D+00 -0.207397D-01  0.694810D-01 -0.347871D+01 -0.680149D-01
     17 -0.386325D-01  0.115242D+00 -0.642538D-02 -0.492128D-01 -0.428142D+01
     18  0.102466D+00  0.493191D-02  0.288485D+00  0.136922D+01 -0.118535D+00
     19 -0.409122D-02 -0.306743D-02  0.845374D-02 -0.207538D-01  0.695827D-03
     20 -0.443497D-02 -0.928241D-02 -0.471716D-02 -0.332056D-01 -0.571673D-01
     21 -0.302715D-01  0.165703D-01  0.109832D-01 -0.444555D-01 -0.335401D-02
     22  0.151468D-01 -0.554367D-01 -0.315000D-01  0.644240D-01  0.380900D-01
     23 -0.114234D+00  0.511417D-01  0.435905D-01 -0.466826D-01 -0.162301D-01
     24 -0.166527D-01  0.950786D-02 -0.443888D-01 -0.118091D-01 -0.533285D-01
     25  0.192282D+00 -0.480382D-01 -0.775002D-01 -0.253003D-01 -0.123865D-01
     26 -0.411676D-01 -0.545352D-01  0.131605D-01  0.565125D-01  0.753992D-01
     27 -0.629302D-01  0.956696D-02 -0.366313D-01  0.457146D-01  0.173335D-01
     28  0.367991D-01  0.154268D-02 -0.176016D+00  0.461049D-02 -0.828248D-02
     29  0.485144D-02  0.359203D+00  0.183981D+00  0.268619D-01 -0.427648D-03
     30 -0.106928D+00  0.202104D+00 -0.908518D-01  0.333052D-01  0.651809D-02
     31  0.167695D+00 -0.542681D-01 -0.141660D+00  0.190107D+00  0.168703D-01
     32 -0.407751D-01  0.684301D-01 -0.119952D-01  0.733236D-02 -0.508935D-01
     33 -0.177985D+00 -0.105919D-01 -0.485127D-01  0.249610D-01  0.416452D-02
     34  0.586779D-01  0.195465D-01 -0.170096D+00  0.476421D-02 -0.863102D-03
     35  0.169623D-02  0.392176D+00 -0.153296D+00 -0.584801D-01 -0.489624D-01
     36 -0.806957D-01 -0.168735D+00 -0.142997D+00  0.797310D-01 -0.823881D-02
     37 -0.360029D-01 -0.292270D-01  0.187539D-01  0.331301D-01 -0.666199D-02
     38  0.244039D-01  0.127613D-01 -0.280872D-01  0.714213D-01  0.177546D-01
     39 -0.297551D-01 -0.581792D-01  0.574779D-02 -0.427494D-01  0.112238D-01
     40  0.127158D+00  0.877694D-01 -0.782317D-01  0.204139D-01 -0.118471D+00
     41  0.777640D-01 -0.190375D-01 -0.354767D-01 -0.145401D+00  0.169213D-01
     42 -0.805516D-01 -0.400932D-01 -0.145079D-01  0.655121D-01  0.524110D-01
                6             7             8             9            10 
      6  0.182412D+02
      7 -0.112846D+01  0.117637D+02
      8  0.164172D+01  0.143355D+01  0.113272D+02
      9 -0.420590D+01  0.805776D+00 -0.104981D+01  0.126916D+02
     10  0.250789D+00  0.263746D+00 -0.155749D+00  0.546513D-01  0.121201D+02
[...]
 ! A20   A(2,5,13)             119.2536         -DE/DX =    0.0                 !
 ! A21   A(2,5,14)             120.8814         -DE/DX =    0.0                 !
 ! A22   A(13,5,14)            118.8395         -DE/DX =    0.0                 !
 ! D1    D(4,1,2,3)            -59.5345         -DE/DX =    0.0                 !
 ! D2    D(4,1,2,5)             67.8496         -DE/DX =    0.0                 !
 ! D3    D(4,1,2,6)           -175.5069         -DE/DX =    0.0                 !
 ! D4    D(2,1,4,10)            71.7158         -DE/DX =    0.0                 !
 ! D5    D(2,1,4,11)          -169.4961         -DE/DX =    0.0                 !
 ! D6    D(2,1,4,12)           -50.4203         -DE/DX =    0.0                 !
 ! D7    D(1,2,3,7)             71.6653         -DE/DX =    0.0                 !
 ! D8    D(1,2,3,8)            -49.4262         -DE/DX =    0.0                 !
 ! D9    D(1,2,3,9)           -168.9983         -DE/DX =    0.0                 !
 ! D10   D(5,2,3,7)            -55.2906         -DE/DX =    0.0                 !
 ! D11   D(5,2,3,8)           -176.3821         -DE/DX =    0.0                 !
 ! D12   D(5,2,3,9)             64.0457         -DE/DX =    0.0                 !
 ! D13   D(6,2,3,7)           -175.3489         -DE/DX =    0.0                 !
 ! D14   D(6,2,3,8)             63.5597         -DE/DX =    0.0                 !
 ! D15   D(6,2,3,9)            -56.0125         -DE/DX =    0.0                 !
 ! D16   D(1,2,5,13)            37.3558         -DE/DX =    0.0                 !
 ! D17   D(1,2,5,14)          -154.36           -DE/DX =    0.0                 !
 ! D18   D(3,2,5,13)           165.0087         -DE/DX =    0.0                 !
 ! D19   D(3,2,5,14)           -26.7071         -DE/DX =    0.0                 !
 ! D20   D(6,2,5,13)           -75.5633         -DE/DX =    0.0                 !
 ! D21   D(6,2,5,14)            92.7209         -DE/DX =    0.0                 !
 --------------------------------------------------------------------------------
 GradGradGradGradGradGradGradGradGradGradGradGradGradGradGradGradGradGrad

 Leave Link  103 at Tue Apr  9 02:10:47 2019, MaxMem=   671088640 cpu:               0.4 elap:               0.1
 (Enter /shared/centos7/gaussian/g16/l9999.exe)

 ----------------------------------------------------------------------

 Electric dipole moment (input orientation):
 (Debye = 10**-18 statcoulomb cm , SI units = C m)
                  (au)            (Debye)         (10**-30 SI)
   Tot        0.519509D+00      0.132046D+01      0.440458D+01
   x          0.266037D-01      0.676198D-01      0.225555D+00
   y         -0.893776D-01     -0.227175D+00     -0.757774D+00
   z          0.511071D+00      0.129901D+01      0.433304D+01

 Dipole polarizability, Alpha (input orientation).
 (esu units = cm**3 , SI units = C**2 m**2 J**-1)
 Alpha(0;0):
               (au)            (10**-24 esu)      (10**-40 SI)
   iso        0.537114D+02      0.795922D+01      0.885582D+01
   aniso      0.817994D+01      0.121214D+01      0.134869D+01
   xx         0.554931D+02      0.822323D+01      0.914958D+01
   yx        -0.156656D+00     -0.232140D-01     -0.258290D-01
   yy         0.544239D+02      0.806479D+01      0.897329D+01
   zx        -0.408673D+01     -0.605591D+00     -0.673811D+00
   zy         0.791580D+00      0.117300D+00      0.130514D+00
   zz         0.512173D+02      0.758963D+01      0.844460D+01

 ----------------------------------------------------------------------

 Dipole orientation:
     8          1.47612858         -0.70450062         -1.49736910
     6         -0.47771156         -0.36256679          0.31121790
     6         -0.59036748         -2.49412261          2.24942892
     6          3.93213883         -0.84993147         -0.48722927
     6         -0.32872968          2.17460800          1.52215782
     1         -2.19873502         -0.45874522         -0.84097152
     1          0.99915868         -2.40622893          3.55635309
     1         -0.57581172         -4.31967896          1.29915119
     1         -2.32284222         -2.33893708          3.35121330
     1          4.24581833         -2.62963222          0.51530226
     1          5.23598722         -0.74945966         -2.07200913
     1          4.32213293          0.71841430          0.80391487
     1          0.21927158          3.78629441          0.39650757
     1         -1.09129189          2.49086455          3.38812216

 Electric dipole moment (dipole orientation):
 (Debye = 10**-18 statcoulomb cm , SI units = C m)
                  (au)            (Debye)         (10**-30 SI)
   Tot        0.519509D+00      0.132046D+01      0.440458D+01
   x          0.000000D+00      0.000000D+00      0.000000D+00
   y          0.000000D+00      0.000000D+00      0.000000D+00
   z          0.519509D+00      0.132046D+01      0.440458D+01

 Dipole polarizability, Alpha (dipole orientation).
 (esu units = cm**3 , SI units = C**2 m**2 J**-1)
 Alpha(0;0):
               (au)            (10**-24 esu)      (10**-40 SI)
   iso        0.537114D+02      0.795922D+01      0.885582D+01
   aniso      0.817994D+01      0.121214D+01      0.134869D+01
   xx         0.558982D+02      0.828325D+01      0.921636D+01
   yx        -0.861684D+00     -0.127688D+00     -0.142072D+00
   yy         0.545897D+02      0.808936D+01      0.900062D+01
   zx        -0.375079D+01     -0.555809D+00     -0.618421D+00
   zy         0.139573D+00      0.206826D-01      0.230125D-01
   zz         0.506465D+02      0.750504D+01      0.835048D+01

 ----------------------------------------------------------------------

 Test job not archived.
 1\1\GINC-C0224\Freq\UM062X\6-311+G(2df,2p)\C4H9O1(2)\UNDERKOFFLER.C\09
 -Apr-2019\0\\#P Geom=AllCheck Guess=TCheck SCRF=Check Test GenChk UM06
 2X/6-311+G(2df,2p) Freq\\Gaussian input prepared by ASE\\0,2\O,0.73786
 8427,-0.2274521775,-0.8836432556\C,-0.2448783559,-0.2184556839,0.14195
 14402\C,-0.2569008217,-1.5063179366,0.959943344\C,2.0628467944,-0.3894
 546973,-0.4375776055\C,-0.1273669978,0.9942319315,0.9992946926\H,-1.18
 58498038,-0.1677399756,-0.419976273\H,0.6187508943,-1.5757485706,1.605
 2323644\H,-0.2792501417,-2.3713985237,0.2986509194\H,-1.1422533107,-1.
 5298016679,1.5945887705\H,2.2516042174,-1.4077142496,-0.0862036403\H,2
 .7091920686,-0.1897364556,-1.2887712858\H,2.3076242656,0.3114646908,0.
 3667842607\H,0.1355233948,1.9381426223,0.5451806335\H,-0.4790554793,0.
 9874193318,2.0201391318\\Version=EM64L-G16RevA.03\State=2-A\HF=-232.95
 24359\S2=0.755151\S2-1=0.\S2A=0.75002\RMSD=5.881e-09\RMSF=3.439e-07\Ze
 roPoint=0.1223369\Thermal=0.1293434\Dipole=0.0266037,-0.0893776,0.5110
 706\DipoleDeriv=-1.0982929,0.0758709,0.2127836,0.0459226,-0.5208206,-0
 .0184649,0.1575678,0.0017415,-0.6543644,0.6105892,-0.0729783,-0.283050
 1,-0.0114364,0.4724622,0.0329608,-0.3700822,0.0304327,0.5358143,0.0389
 191,0.0036312,0.0299176,-0.0327994,-0.0868236,0.1100451,0.0702282,0.05
 03099,-0.0265249,0.6945963,-0.0618151,0.01078,-0.0670588,0.3462944,0.0
 017708,0.1812815,-0.0233126,0.233727,-0.2929361,0.077926,-0.0785963,0.
 0858576,-0.0886066,-0.0808367,-0.0478318,0.0005588,0.0049583,-0.102327
 1,0.0134431,-0.0398322,-0.0003035,-0.0018925,-0.010804,-0.0684947,-0.0
 202944,-0.040439,-0.0493711,0.024568,-0.0970964,-0.0230522,0.0322666,-
 0.0044689,-0.0749262,0.0204589,0.0153287,0.0772163,0.0125136,-0.006451
 2,0.000392,-0.0751062,-0.0477444,-0.0098416,-0.0907636,-0.0033698,-0.0
 578306,-0.0151849,0.09834,0.0155431,0.0618622,-0.0034641,0.0887868,0.0
 17655,0.0053643,-0.0119792,-0.0045616,0.0007476,0.0780922,-0.142343,0.
 0559556,-0.0605111,0.0614982,0.0340805,-0.0396719,-0.0053847,0.0682483
 ,-0.0219155,0.066026,0.0343619,0.1193891,0.0276995,-0.0419797,0.001594
 4,0.0089663,-0.0020026,-0.0297209,-0.0393852,-0.0915126,-0.0890472,-0.
 0815815,-0.0446104,0.1245966,-0.0515974,0.0151784,-0.0299064,-0.053972
 4,0.012931,0.0304465,0.0302841,0.0223796,0.1048971,-0.0053972,0.071033
 5,-0.0096144,0.0300388,0.0092704,0.0730347,-0.0246865,-0.0403644\Polar
 =55.4931337,-0.1566555,54.4238794,-4.0867319,0.7915802,51.2173341\Quad
 rupole=1.5583408,0.1453243,-1.7036651,0.0617149,-0.7471325,0.0500035\P
 G=C01 [X(C4H9O1)]\NImag=0\\0.50330300,-0.04123196,0.10816885,-0.032923
 56,-0.01143492,0.32634813,-0.14351304,0.00815114,0.04824761,0.52582665
 ,0.00331672,-0.06442727,0.00700411,-0.00489854,0.49043871,0.07859398,0
 .00078533,-0.15976714,0.04991245,-0.00129109,0.49450995,-0.00891950,-0
 .02405093,0.02611773,-0.07961664,0.01235936,-0.00858993,0.58077179,-0.
 00386620,0.00280780,0.00283522,0.00950177,-0.16220599,0.05059163,-0.00
 580019,0.50964227,0.01281051,0.02243495,-0.02327483,-0.00502768,0.0456
 5083,-0.10595894,-0.00088245,0.05529377,0.55667928,-0.22708579,0.02275
 698,-0.03865413,-0.04515734,0.00133713,0.00306265,0.00336135,-0.001461
 23,0.00001065,0.51049604,0.02396957,-0.06477617,0.00772329,0.00120823,
 -0.00402734,-0.00026873,-0.00346775,0.00112988,-0.00135130,0.00817409,
 0.56577946,-0.07293662,0.01179952,-0.11619112,0.02733591,-0.00392952,0
 .01279484,0.00332431,-0.00058739,-0.00129820,-0.05041633,-0.00260336,0
 .59749713,-0.00390264,0.01818628,0.02221542,-0.05227795,-0.02307982,-0
 .00371333,0.00115050,-0.00211788,-0.00239953,0.00047289,0.00214935,0.0
 0300255,0.13134768,0.00385182,0.00262521,-0.00788924,-0.02246560,-0.18
 129247,-0.06243439,-0.00678806,-0.03424443,-0.01511495,0.00229228,0.00
 049786,0.00088229,0.10549417,0.55213420,0.01524167,-0.02731744,-0.0358
 6366,-0.00005561,-0.06289887,-0.12133961,-0.00135379,0.01224874,0.0129
 9129,-0.00292838,-0.00012834,-0.00096171,-0.15236920,-0.01712620,0.581
 50163,-0.03799861,0.00240629,-0.00302764,-0.21531251,0.01450000,-0.105
 70211,0.00077069,-0.00003963,-0.00098494,0.00004096,-0.00091289,0.0049
 2080,0.00003073,-0.00515808,-0.00677987,0.25343058,0.00088823,0.002623
 87,0.00074852,0.00237387,-0.04690602,0.00306516,0.02457750,-0.00399652
 ,0.01874518,0.00003778,0.00068251,-0.00007827,-0.01909891,-0.00356450,
 -0.01767689,-0.01000908,0.05451221,0.03239273,-0.00164874,0.00754948,-
 0.12340894,0.01015756,-0.11284707,-0.01464980,0.00352927,-0.01026832,0
 .00324080,0.00032526,-0.00263816,-0.01379815,-0.00705749,-0.01215343,0
 .11307007,-0.00665616,0.13024795,0.00063890,0.00048659,-0.00073247,0.0
 0074774,0.00062038,0.00089025,-0.22189355,0.01187879,-0.12821064,-0.00
 154161,0.00071002,0.00081730,0.00037751,-0.00008617,0.00005525,0.00126
 869,-0.00003638,0.00035932,0.24120190,-0.00079195,0.00105414,-0.001332
 55,0.02666870,-0.00231518,0.01608619,0.01104724,-0.04890728,0.00719639
 ,-0.00054999,0.00102470,0.00032874,0.00025424,0.00209985,0.00084412,-0
 .00040851,-0.00486428,0.00304563,-0.01341400,0.05124002,0.00126087,-0.
 00037380,0.00060215,-0.01508447,0.00096988,-0.01008037,-0.12775712,0.0
 0770661,-0.14010883,-0.00085257,0.00058865,-0.00047278,0.00049126,-0.0
 0143506,0.00033233,0.00029484,0.00326516,-0.00089227,0.13992274,-0.011
 37784,0.14953250,-0.00005257,-0.00005785,-0.00040697,-0.00101577,-0.00
 093512,0.00094873,-0.04814791,-0.00402715,-0.00519530,0.00018304,-0.00
 070012,-0.00017766,0.00076689,0.00003927,0.00005858,-0.00018847,0.0002
 9867,0.00039992,0.00042876,-0.02177708,-0.01547671,0.04656652,0.000595
 15,0.00344254,-0.00052907,0.00061636,-0.02343005,-0.01926260,-0.004424
 72,-0.21564741,-0.13116176,-0.00075206,-0.00020467,-0.00010564,-0.0005
 2866,-0.00392638,0.00469947,0.00020190,0.00105629,-0.00007006,-0.00045
 131,0.00240332,0.00228680,0.00456140,0.23572089,-0.00127357,-0.0013112
 0,0.00154882,0.00052366,0.01620898,0.01141846,-0.00461928,-0.13358624,
 -0.15042759,0.00051805,-0.00024007,0.00018170,0.00073493,0.00269798,-0
 .00214564,0.00000131,-0.00097302,0.00079275,0.00130572,-0.01366592,-0.
 01100671,0.00479293,0.14317994,0.15969541,0.00124784,0.00024830,-0.000
 69686,-0.00079286,0.00101241,-0.00140594,-0.22740727,-0.00430516,0.129
 11601,-0.00006822,0.00059989,0.00000852,0.00019292,0.00030984,0.000549
 82,0.00061235,-0.00043850,0.00003280,-0.02031645,-0.00044180,0.0156460
 6,0.00147168,0.00051455,-0.00180667,0.24453396,-0.00225724,-0.00480706
 ,0.00520762,-0.02339035,0.00149999,0.01384056,-0.00314455,-0.04693351,
 0.00148487,0.00198897,-0.00083421,0.00057839,0.00037157,0.00058954,-0.
 00030977,0.00024324,0.00136019,-0.00037951,0.00114820,-0.00115031,-0.0
 0128341,0.02205127,0.00160330,-0.01361286,0.00356232,0.04834141,0.0018
 2458,0.00491184,-0.00280920,0.01456662,-0.00296686,-0.01014677,0.12826
 738,0.00275641,-0.13675465,-0.00220980,0.00063219,-0.00034006,-0.00038
 393,-0.00064085,0.00015061,-0.00037778,-0.00061373,0.00005450,-0.01611
 839,-0.00059276,0.01248293,0.01530482,0.00174823,-0.01092297,-0.140914
 53,-0.00455173,0.14751351,-0.02271458,0.03488520,-0.01648399,0.0035414
 7,0.00244378,-0.00418171,0.00013469,-0.00049321,0.00145711,-0.05254920
 ,0.02525303,-0.00618324,-0.00041053,-0.00033116,0.00056466,-0.00013794
 ,-0.00022781,0.00024837,-0.00110125,-0.00054128,0.00115423,-0.00024028
 ,-0.00041995,-0.00008165,0.00019652,-0.00004419,-0.00022799,0.06650121
 ,0.01145455,0.00365284,0.00276275,-0.00170036,-0.00004967,0.00204513,0
 .00018168,-0.00001111,0.00127419,0.02937847,-0.27698509,0.07229039,0.0
 0022816,-0.00013797,-0.00027369,0.00017574,0.00005693,-0.00013307,-0.0
 0108539,-0.00012733,-0.00047433,0.00021973,-0.00028535,0.00006568,-0.0
 0047282,0.00042193,-0.00065940,-0.03880332,0.29743933,-0.01089828,0.01
 095224,-0.00314137,0.00123704,-0.00068219,-0.00089967,0.00030753,0.000
 22893,-0.00007482,-0.00825726,0.07221190,-0.07602980,-0.00018326,-0.00
 023367,0.00006094,-0.00010794,0.00011970,0.00003969,0.00143062,0.00018
 399,-0.00076046,-0.00020286,0.00000948,-0.00005191,-0.00005364,-0.0003
 3073,0.00018826,0.01621727,-0.08481356,0.07874476,-0.03551959,-0.00278
 366,0.02697958,-0.00296808,-0.00057844,-0.00510141,-0.00020039,0.00045
 163,-0.00044221,-0.13069043,-0.02889621,0.11872593,0.00020254,-0.00048
 612,-0.00011223,-0.00142914,0.00009966,0.00104370,0.00032172,-0.000037
 94,0.00021735,-0.00001354,-0.00004266,-0.00000823,0.00016667,-0.000172
 12,0.00023633,0.00414078,-0.00043696,-0.00279518,0.16062232,0.00423287
 ,0.00201809,-0.00473266,0.00133146,-0.00030854,0.00040840,0.00002812,0
 .00013147,0.00050539,-0.03148861,-0.06051028,0.04238602,0.00034008,0.0
 0015878,0.00008861,0.00020493,0.00015883,-0.00017917,-0.00032562,-0.00
 012813,-0.00037038,0.00019162,0.00003922,0.00003041,-0.00024993,0.0001
 3849,-0.00018420,-0.01743787,-0.00478299,0.02518460,0.03032586,0.05793
 902,-0.01006450,-0.00248451,0.01298262,-0.00252994,-0.00005851,0.00010
 184,-0.00038451,0.00006322,-0.00026395,0.13063196,0.04158589,-0.227801
 63,0.00036023,0.00004841,0.00015588,-0.00042319,0.00005041,0.00024729,
 0.00021421,-0.00011630,0.00027497,0.00003602,-0.00000268,0.00002201,0.
 00017746,-0.00008125,0.00013730,0.00439999,0.00094479,-0.00672401,-0.1
 3442423,-0.04566682,0.23757945,-0.02460601,-0.01984150,-0.03081514,0.0
 0479806,-0.00211232,-0.00403044,-0.00056656,0.00008910,0.00040756,-0.0
 5793631,-0.02820471,-0.02865199,-0.00043872,0.00075242,0.00098494,-0.0
 0004042,0.00040899,0.00032855,-0.00001715,-0.00023273,0.00009054,0.000
 04453,0.00013705,-0.00008830,0.00001676,-0.00019475,0.00020364,0.00268
 857,0.00090297,0.00332724,0.00541469,0.01289047,0.01207762,0.07104291,
 -0.00295262,0.00834858,0.00489088,-0.00003426,0.00094717,-0.00136220,-
 0.00024389,-0.00020457,-0.00031857,-0.03069335,-0.16172956,-0.12031294
 ,0.00083081,-0.00044272,0.00020774,-0.00014800,-0.00014047,0.00009354,
 0.00010665,-0.00036151,0.00021737,0.00021859,0.00013011,0.00013207,0.0
 0008359,0.00008742,0.00013496,-0.00440769,-0.01926538,-0.02300257,0.00
 228618,0.00515992,0.00564932,0.03471600,0.16782899,-0.01353899,-0.0053
 4145,-0.00779203,0.00187740,0.00160510,-0.00082345,-0.00021026,0.00009
 547,0.00047442,-0.03330779,-0.11869214,-0.18460138,0.00061322,-0.00100
 299,0.00030598,-0.00020813,-0.00007140,0.00001159,-0.00020462,-0.00007
 837,0.00003307,0.00004432,0.00008842,-0.00007704,-0.00002185,-0.000102
 20,0.00006310,0.00305325,0.00706800,0.00862562,-0.00444911,-0.01742438
 ,-0.01670926,0.04617091,0.13352723,0.20030227,0.00005350,0.00042461,-0
 .00102485,0.00090390,-0.00376690,0.00337210,0.00048112,0.00062848,-0.0
 0114309,0.00027443,0.00015226,0.00009395,-0.03212891,-0.06689505,0.038
 40229,0.00015551,0.00093762,0.00040407,0.00006293,-0.00005853,0.000082
 15,0.00031316,-0.00010304,0.00023887,0.00002324,0.00003786,-0.00011860
 ,-0.00004373,-0.00006947,-0.00005856,-0.00002960,-0.00000543,-0.000003
 38,-0.00022075,0.00030867,0.00000808,0.02904844,0.00038982,0.00269907,
 0.00052537,-0.00495417,-0.01420823,0.01431586,-0.00045201,-0.00283091,
 -0.00430594,0.00014211,-0.00030163,-0.00026106,-0.07267849,-0.27917775
 ,0.10648864,-0.00032515,-0.00014388,-0.00032231,0.00007268,0.00015529,
 0.00002315,-0.00003558,-0.00118100,0.00086048,-0.00012493,0.00027293,0
 .00006915,-0.00006966,0.00016552,0.00009327,0.00011783,0.00003835,0.00
 003460,0.00037431,-0.00024515,0.00016511,0.07609226,0.29029569,-0.0009
 8476,0.00196854,0.00146297,-0.00407443,-0.01601462,0.01045260,0.000125
 47,-0.00207286,-0.00238725,0.00068528,0.00006515,0.00032966,0.04249685
 ,0.10960250,-0.10722535,-0.00014645,0.00062109,0.00006418,0.00020135,-
 0.00013863,0.00004441,-0.00000477,-0.00095472,0.00080704,-0.00027920,-
 0.00011044,0.00003270,-0.00012779,-0.00000393,-0.00007496,0.00003111,-
 0.00003703,-0.00002437,0.00000075,-0.00011816,-0.00009260,-0.04288763,
 -0.11488671,0.10166747,-0.00093090,0.00042051,0.00120525,0.00483636,-0
 .00021863,-0.00405528,0.00008168,-0.00043910,0.00048400,0.00020020,-0.
 00003475,0.00013656,-0.04538290,-0.01052954,0.10774188,-0.00120241,0.0
 0018835,0.00033655,-0.00017815,0.00028362,0.00001085,-0.00011604,0.000
 09600,-0.00023778,0.00012287,-0.00020022,-0.00005234,-0.00000573,0.000
 02703,0.00003728,-0.00001793,-0.00003795,-0.00006774,-0.00017960,-0.00
 007067,0.00017357,0.00110678,0.00145096,0.00496421,0.04166577,0.002401
 23,-0.00343049,-0.00577929,0.00759176,0.00628489,-0.01651925,0.0001782
 3,0.00127032,-0.00033305,-0.00116256,0.00025452,-0.00038717,-0.0103509
 0,-0.05531921,0.00115387,-0.00073076,-0.00083516,-0.00070475,0.0003755
 5,-0.00012328,0.00025720,-0.00004763,0.00027916,0.00021376,-0.00029776
 ,-0.00059010,-0.00004326,0.00019414,-0.00009165,0.00007863,0.00015297,
 -0.00005223,0.00003344,0.00031470,-0.00011282,0.00016360,-0.00768334,0
 .00446171,0.02207982,0.00906437,0.04800434,0.00049595,-0.00294036,-0.0
 0165483,0.00648037,0.00624519,-0.00741465,0.00030471,0.00089723,0.0006
 7239,-0.00152313,0.00015161,-0.00046848,0.10293294,-0.00029633,-0.3158
 0925,-0.00052897,-0.00054576,-0.00020819,0.00006935,-0.00038268,0.0000
 1906,-0.00012104,0.00007420,0.00016568,-0.00035199,-0.00034955,0.00035
 074,0.00019150,-0.00009296,0.00009773,0.00009859,-0.00000877,0.0000218
 6,-0.00000588,0.00026133,0.00027969,0.00263460,-0.00279960,-0.00505648
 ,-0.11067700,-0.00021355,0.32900472\\-0.00000042,-0.00000027,-0.000000
 13,-0.00000035,-0.00000005,0.00000055,0.00000026,0.00000010,0.00000041
 ,0.,-0.00000013,-0.00000042,0.00000022,0.00000007,-0.00000013,-0.00000
 024,-0.00000021,0.00000045,0.00000041,0.00000024,0.00000018,0.00000004
 ,-0.00000006,0.00000062,0.00000046,0.00000019,0.00000070,-0.00000017,-
 0.00000001,-0.00000038,-0.00000056,-0.00000023,-0.00000077,-0.00000008
 ,0.00000006,-0.00000075,0.,0.00000003,-0.00000032,0.00000043,0.0000002
 9,-0.00000003\\\@


 THE RARE EARTHS PERPLEX US IN OUR RESEARCHES,
 BAFFLE US IN OUR SPECULATIONS, AND HAUNT US IN OUR
 VERY DREAMS.  THEY STRETCH LIKE AN UNKNOWN BEFORE US,
 MOCKING, MYSTIFYING, AND MURMURING STRANGE REVELATIONS
 AND POSSIBILITIES.  -- SIR WILLIAM CROOKE, 1832-1919
 Job cpu time:       0 days  1 hours 49 minutes 42.4 seconds.
 Elapsed time:       0 days  0 hours  5 minutes 29.5 seconds.
 File lengths (MBytes):  RWF=   1376 Int=      0 D2E=      0 Chk=     32 Scr=     32
 Normal termination of Gaussian 16 at Tue Apr  9 02:10:47 2019.
