 Entering Gaussian System, Link 0=g16
 Input=FBRHVBFWGRGMCF-UHFFFAOYSA-N_36by-10.0_tor03_a2.com
 Output=FBRHVBFWGRGMCF-UHFFFAOYSA-N_36by-10.0_tor03_a2.log
 Initial command:
 /shared/centos7/gaussian/g16/l1.exe "/scratch/underkoffler.c/gaussian_scratch/Gau-12487.inp" -scrdir="/scratch/underkoffler.c/gaussian_scratch/"
 Entering Link 1 = /shared/centos7/gaussian/g16/l1.exe PID=     12488.
  
 Copyright (c) 1988,1990,1992,1993,1995,1998,2003,2009,2016,
            Gaussian, Inc.  All Rights Reserved.
  
 This is part of the Gaussian(R) 16 program.  It is based on
 the Gaussian(R) 09 system (copyright 2009, Gaussian, Inc.),
 the Gaussian(R) 03 system (copyright 2003, Gaussian, Inc.),
 the Gaussian(R) 98 system (copyright 1998, Gaussian, Inc.),
 the Gaussian(R) 94 system (copyright 1995, Gaussian, Inc.),
 the Gaussian 92(TM) system (copyright 1992, Gaussian, Inc.),
 the Gaussian 90(TM) system (copyright 1990, Gaussian, Inc.),
 the Gaussian 88(TM) system (copyright 1988, Gaussian, Inc.),
 the Gaussian 86(TM) system (copyright 1986, Carnegie Mellon
 University), and the Gaussian 82(TM) system (copyright 1983,
 Carnegie Mellon University). Gaussian is a federally registered
 trademark of Gaussian, Inc.
  
 This software contains proprietary and confidential information,
 including trade secrets, belonging to Gaussian, Inc.
  
 This software is provided under written license and may be
 used, copied, transmitted, or stored only in accord with that
 written license.
  
 The following legend is applicable only to US Government
 contracts under FAR:
  
                    RESTRICTED RIGHTS LEGEND
  
 Use, reproduction and disclosure by the US Government is
 subject to restrictions as set forth in subparagraphs (a)
 and (c) of the Commercial Computer Software - Restricted
 Rights clause in FAR 52.227-19.
  
 Gaussian, Inc.
 340 Quinnipiac St., Bldg. 40, Wallingford CT 06492
  
  
 ---------------------------------------------------------------
 Warning -- This program may not be used in any manner that
 competes with the business of Gaussian, Inc. or will provide
 assistance to any competitor of Gaussian, Inc.  The licensee
 of this program is prohibited from giving any competitor of
 Gaussian, Inc. access to this program.  By using this program,
 the user acknowledges that Gaussian, Inc. is engaged in the
 business of creating and licensing software in the field of
 computational chemistry and represents and warrants to the
 licensee that it is not a competitor of Gaussian, Inc. and that
 it will not use this program in any manner prohibited above.
 ---------------------------------------------------------------
  

 Cite this work as:
 Gaussian 16, Revision A.03,
 M. J. Frisch, G. W. Trucks, H. B. Schlegel, G. E. Scuseria, 
 M. A. Robb, J. R. Cheeseman, G. Scalmani, V. Barone, 
 G. A. Petersson, H. Nakatsuji, X. Li, M. Caricato, A. V. Marenich, 
 J. Bloino, B. G. Janesko, R. Gomperts, B. Mennucci, H. P. Hratchian, 
 J. V. Ortiz, A. F. Izmaylov, J. L. Sonnenberg, D. Williams-Young, 
 F. Ding, F. Lipparini, F. Egidi, J. Goings, B. Peng, A. Petrone, 
 T. Henderson, D. Ranasinghe, V. G. Zakrzewski, J. Gao, N. Rega, 
 G. Zheng, W. Liang, M. Hada, M. Ehara, K. Toyota, R. Fukuda, 
 J. Hasegawa, M. Ishida, T. Nakajima, Y. Honda, O. Kitao, H. Nakai, 
 T. Vreven, K. Throssell, J. A. Montgomery, Jr., J. E. Peralta, 
 F. Ogliaro, M. J. Bearpark, J. J. Heyd, E. N. Brothers, K. N. Kudin, 
 V. N. Staroverov, T. A. Keith, R. Kobayashi, J. Normand, 
 K. Raghavachari, A. P. Rendell, J. C. Burant, S. S. Iyengar, 
 J. Tomasi, M. Cossi, J. M. Millam, M. Klene, C. Adamo, R. Cammi, 
 J. W. Ochterski, R. L. Martin, K. Morokuma, O. Farkas, 
 J. B. Foresman, and D. J. Fox, Gaussian, Inc., Wallingford CT, 2016.
 
 ******************************************
 Gaussian 16:  EM64L-G16RevA.03 25-Dec-2016
                23-Apr-2019 
 ******************************************
 %nprocshared=20
 Will use up to   20 processors via shared memory.
 %mem=5GB
 ----------------------------------------------
 #p m062x/6-311+g(2df,2p) Opt=(CalcFC,ModRedun)
 ----------------------------------------------
 1/10=4,18=120,19=15,26=3,38=1/1,3;
 2/9=110,12=2,17=6,18=5,40=1/2;
 3/5=4,6=6,7=214,11=2,25=1,30=1,71=2,74=-55,140=1/1,2,3;
 4//1;
 5/5=2,38=5/2;
 8/6=4,10=90,11=11/1;
 11/6=1,8=1,9=11,15=111,16=1/1,2,10;
 10/6=1,13=1/2;
 6/7=2,8=2,9=2,10=2,28=1/1;
 7/10=1,18=20,25=1/1,2,3,16;
 1/10=4,18=20,19=15,26=3/3(2);
 2/9=110/2;
 99//99;
 2/9=110/2;
 3/5=4,6=6,7=214,11=2,25=1,30=1,71=1,74=-55/1,2,3;
 4/5=5,16=3,69=1/1;
 5/5=2,38=5/2;
 7//1,2,3,16;
 1/18=20,19=15,26=3/3(-5);
 2/9=110/2;
 6/7=2,8=2,9=2,10=2,19=2,28=1/1;
 99/9=1/99;
 Leave Link    1 at Tue Apr 23 21:46:50 2019, MaxMem=   671088640 cpu:              59.3 elap:               3.1
 (Enter /shared/centos7/gaussian/g16/l101.exe)
 ----------------------------------------
 Gaussian Input Prepared from Scan Object
 ----------------------------------------
 Symbolic Z-matrix:
 Charge =  0 Multiplicity = 2
 O                    -0.65789  -0.60389  -0.31607 
 C                     0.42861   0.04352   0.31966 
 C                     1.67403  -0.76315  -0.03324 
 C                    -1.91358  -0.11386   0.08246 
 C                     0.55094   1.46464  -0.11197 
 H                     0.27762   0.00634   1.408 
 H                     2.55393  -0.33666   0.44578 
 H                     1.82124  -0.75066  -1.11268 
 H                     1.55256  -1.7953    0.29286 
 H                    -2.04978  -0.21799   1.16478 
 H                    -2.0407    0.93971  -0.18363 
 H                    -2.66903  -0.705    -0.42922 
 H                     0.98217   2.20985   0.5387 
 H                     0.39711   1.70646  -1.15434 
 
 The following ModRedundant input section has been read:
 B       2       3 B                                                           
 B       3       9 B                                                           
 B       5      13 B                                                           
 B       3       8 B                                                           
 B       4      12 B                                                           
 B       1       4 B                                                           
 B       2       6 B                                                           
 B       3       7 B                                                           
 B       5      14 B                                                           
 B       4      10 B                                                           
 B       4      11 B                                                           
 B       1       2 B                                                           
 B       2       5 B                                                           
 D       2       1       4      12 S  36 -10.00                                
 
 ITRead=  0  0  0  0  0  0  0  0  0  0  0  0  0  0
 MicOpt= -1 -1 -1 -1 -1 -1 -1 -1 -1 -1 -1 -1 -1 -1
 NAtoms=     14 NQM=       14 NQMF=       0 NMMI=      0 NMMIF=      0
                NMic=       0 NMicF=      0.
                    Isotopes and Nuclear Properties:
 (Nuclear quadrupole moments (NQMom) in fm**2, nuclear magnetic moments (NMagM)
  in nuclear magnetons)

  Atom         1           2           3           4           5           6           7           8           9          10
 IAtWgt=          16          12          12          12          12           1           1           1           1           1
 AtmWgt=  15.9949146  12.0000000  12.0000000  12.0000000  12.0000000   1.0078250   1.0078250   1.0078250   1.0078250   1.0078250
 NucSpn=           0           0           0           0           0           1           1           1           1           1
 AtZEff=  -0.0000000  -0.0000000  -0.0000000  -0.0000000  -0.0000000  -0.0000000  -0.0000000  -0.0000000  -0.0000000  -0.0000000
 NQMom=    0.0000000   0.0000000   0.0000000   0.0000000   0.0000000   0.0000000   0.0000000   0.0000000   0.0000000   0.0000000
 NMagM=    0.0000000   0.0000000   0.0000000   0.0000000   0.0000000   2.7928460   2.7928460   2.7928460   2.7928460   2.7928460
 AtZNuc=   8.0000000   6.0000000   6.0000000   6.0000000   6.0000000   1.0000000   1.0000000   1.0000000   1.0000000   1.0000000

  Atom        11          12          13          14
 IAtWgt=           1           1           1           1
 AtmWgt=   1.0078250   1.0078250   1.0078250   1.0078250
 NucSpn=           1           1           1           1
 AtZEff=  -0.0000000  -0.0000000  -0.0000000  -0.0000000
 NQMom=    0.0000000   0.0000000   0.0000000   0.0000000
 NMagM=    2.7928460   2.7928460   2.7928460   2.7928460
 AtZNuc=   1.0000000   1.0000000   1.0000000   1.0000000
 Leave Link  101 at Tue Apr 23 21:46:50 2019, MaxMem=   671088640 cpu:               2.6 elap:               0.1
 (Enter /shared/centos7/gaussian/g16/l103.exe)

 GradGradGradGradGradGradGradGradGradGradGradGradGradGradGradGradGradGrad
 Berny optimization.
 Initialization pass.
                           ----------------------------
                           !    Initial Parameters    !
                           ! (Angstroms and Degrees)  !
 --------------------------                            --------------------------
 ! Name  Definition              Value          Derivative Info.                !
 --------------------------------------------------------------------------------
 ! R1    R(1,2)                  1.4155         calculate D2E/DX2 analytically  !
 ! R2    R(1,4)                  1.4056         calculate D2E/DX2 analytically  !
 ! R3    R(2,3)                  1.5252         calculate D2E/DX2 analytically  !
 ! R4    R(2,5)                  1.4903         calculate D2E/DX2 analytically  !
 ! R5    R(2,6)                  1.0994         calculate D2E/DX2 analytically  !
 ! R6    R(3,7)                  1.0888         calculate D2E/DX2 analytically  !
 ! R7    R(3,8)                  1.0895         calculate D2E/DX2 analytically  !
 ! R8    R(3,9)                  1.0892         calculate D2E/DX2 analytically  !
 ! R9    R(4,10)                 1.0958         calculate D2E/DX2 analytically  !
 ! R10   R(4,11)                 1.0941         calculate D2E/DX2 analytically  !
 ! R11   R(4,12)                 1.0872         calculate D2E/DX2 analytically  !
 ! R12   R(5,13)                 1.0792         calculate D2E/DX2 analytically  !
 ! R13   R(5,14)                 1.0811         calculate D2E/DX2 analytically  !
 ! A1    A(2,1,4)              113.5099         calculate D2E/DX2 analytically  !
 ! A2    A(1,2,3)              106.316          calculate D2E/DX2 analytically  !
 ! A3    A(1,2,5)              111.6577         calculate D2E/DX2 analytically  !
 ! A4    A(1,2,6)              108.8873         calculate D2E/DX2 analytically  !
 ! A5    A(3,2,5)              111.7346         calculate D2E/DX2 analytically  !
 ! A6    A(3,2,6)              108.8635         calculate D2E/DX2 analytically  !
 ! A7    A(5,2,6)              109.284          calculate D2E/DX2 analytically  !
 ! A8    A(2,3,7)              110.5422         calculate D2E/DX2 analytically  !
 ! A9    A(2,3,8)              109.4816         calculate D2E/DX2 analytically  !
 ! A10   A(2,3,9)              109.9279         calculate D2E/DX2 analytically  !
 ! A11   A(7,3,8)              108.7953         calculate D2E/DX2 analytically  !
 ! A12   A(7,3,9)              109.2431         calculate D2E/DX2 analytically  !
 ! A13   A(8,3,9)              108.8178         calculate D2E/DX2 analytically  !
 ! A14   A(1,4,10)             110.9738         calculate D2E/DX2 analytically  !
 ! A15   A(1,4,11)             111.7503         calculate D2E/DX2 analytically  !
 ! A16   A(1,4,12)             107.3225         calculate D2E/DX2 analytically  !
 ! A17   A(10,4,11)            108.4993         calculate D2E/DX2 analytically  !
 ! A18   A(10,4,12)            109.076          calculate D2E/DX2 analytically  !
 ! A19   A(11,4,12)            109.172          calculate D2E/DX2 analytically  !
 ! A20   A(2,5,13)             121.1083         calculate D2E/DX2 analytically  !
 ! A21   A(2,5,14)             118.7449         calculate D2E/DX2 analytically  !
 ! A22   A(13,5,14)            118.9301         calculate D2E/DX2 analytically  !
 ! D1    D(4,1,2,3)            170.2605         calculate D2E/DX2 analytically  !
 ! D2    D(4,1,2,5)            -67.6399         calculate D2E/DX2 analytically  !
 ! D3    D(4,1,2,6)             53.1182         calculate D2E/DX2 analytically  !
 ! D4    D(2,1,4,10)           -58.4905         calculate D2E/DX2 analytically  !
 ! D5    D(2,1,4,11)            62.7608         calculate D2E/DX2 analytically  !
 ! D6    D(2,1,4,12)          -177.5818         Scan                            !
 ! D7    D(1,2,3,7)           -178.5178         calculate D2E/DX2 analytically  !
 ! D8    D(1,2,3,8)             61.6461         calculate D2E/DX2 analytically  !
 ! D9    D(1,2,3,9)            -57.8388         calculate D2E/DX2 analytically  !
 ! D10   D(5,2,3,7)             59.4313         calculate D2E/DX2 analytically  !
 ! D11   D(5,2,3,8)            -60.4048         calculate D2E/DX2 analytically  !
 ! D12   D(5,2,3,9)           -179.8896         calculate D2E/DX2 analytically  !
 ! D13   D(6,2,3,7)            -61.3596         calculate D2E/DX2 analytically  !
 ! D14   D(6,2,3,8)            178.8043         calculate D2E/DX2 analytically  !
 ! D15   D(6,2,3,9)             59.3194         calculate D2E/DX2 analytically  !
 ! D16   D(1,2,5,13)           152.0005         calculate D2E/DX2 analytically  !
 ! D17   D(1,2,5,14)           -40.7372         calculate D2E/DX2 analytically  !
 ! D18   D(3,2,5,13)           -89.0717         calculate D2E/DX2 analytically  !
 ! D19   D(3,2,5,14)            78.1907         calculate D2E/DX2 analytically  !
 ! D20   D(6,2,5,13)            31.4741         calculate D2E/DX2 analytically  !
 ! D21   D(6,2,5,14)          -161.2635         calculate D2E/DX2 analytically  !
 --------------------------------------------------------------------------------
 Trust Radius=3.00D-01 FncErr=1.00D-07 GrdErr=1.00D-06 EigMax=2.50D+02 EigMin=1.00D-04
 Number of optimizations in scan=  37
 Number of steps in this run=     66 maximum allowed number of steps=    100.
 GradGradGradGradGradGradGradGradGradGradGradGradGradGradGradGradGradGrad

 Leave Link  103 at Tue Apr 23 21:46:50 2019, MaxMem=   671088640 cpu:               0.2 elap:               0.0
 (Enter /shared/centos7/gaussian/g16/l202.exe)
                          Input orientation:                          
 ---------------------------------------------------------------------
 Center     Atomic      Atomic             Coordinates (Angstroms)
 Number     Number       Type             X           Y           Z
 ---------------------------------------------------------------------
      1          8           0       -0.657890   -0.603888   -0.316068
      2          6           0        0.428614    0.043518    0.319664
      3          6           0        1.674025   -0.763154   -0.033242
      4          6           0       -1.913582   -0.113857    0.082464
      5          6           0        0.550944    1.464636   -0.111975
      6          1           0        0.277622    0.006341    1.407998
      7          1           0        2.553929   -0.336655    0.445778
      8          1           0        1.821235   -0.750656   -1.112685
      9          1           0        1.552556   -1.795295    0.292859
     10          1           0       -2.049777   -0.217990    1.164776
     11          1           0       -2.040701    0.939705   -0.183631
     12          1           0       -2.669026   -0.705000   -0.429220
     13          1           0        0.982173    2.209850    0.538699
     14          1           0        0.397106    1.706459   -1.154340
 ---------------------------------------------------------------------
                    Distance matrix (angstroms):
                    1          2          3          4          5
     1  O    0.000000
     2  C    1.415550   0.000000
     3  C    2.354397   1.525225   0.000000
     4  C    1.405603   2.359431   3.647725   0.000000
     5  C    2.404521   1.490253   2.496109   2.933144   0.000000
     6  H    2.054255   1.099386   2.149241   2.563759   2.124063
     7  H    3.311738   2.162730   1.088849   4.487794   2.750943
     8  H    2.608103   2.149821   1.089507   3.972751   2.742732
     9  H    2.583857   2.155272   1.089225   3.858188   3.434278
    10  H    2.068614   2.631544   3.949577   1.095807   3.350383
    11  H    2.076628   2.674692   4.089198   1.094056   2.645242
    12  H    2.016853   3.273604   4.361454   1.087183   3.895660
    13  H    3.367129   2.246642   3.105564   3.740744   1.079203
    14  H    2.674588   2.222398   2.997728   3.191005   1.081050
                    6          7          8          9         10
     6  H    0.000000
     7  H    2.495013   0.000000
     8  H    3.051168   1.771171   0.000000
     9  H    2.472829   1.775884   1.771726   0.000000
    10  H    2.350801   4.661025   4.522753   4.028019   0.000000
    11  H    2.962950   4.809977   4.316829   4.540789   1.777229
    12  H    3.544589   5.308537   4.542208   4.419491   1.778053
    13  H    2.471341   2.993950   3.492233   4.053019   3.934349
    14  H    3.077377   3.374401   2.840298   3.961279   3.881886
                   11         12         13         14
    11  H    0.000000
    12  H    1.777685   0.000000
    13  H    3.357499   4.771213   0.000000
    14  H    2.733695   3.967632   1.860668   0.000000
 Stoichiometry    C4H9O(2)
 Framework group  C1[X(C4H9O)]
 Deg. of freedom    36
 Full point group                 C1      NOp   1
 Largest Abelian subgroup         C1      NOp   1
 Largest concise Abelian subgroup C1      NOp   1
                         Standard orientation:                         
 ---------------------------------------------------------------------
 Center     Atomic      Atomic             Coordinates (Angstroms)
 Number     Number       Type             X           Y           Z
 ---------------------------------------------------------------------
      1          8           0       -0.658214   -0.603707   -0.316013
      2          6           0        0.428566    0.042836    0.320124
      3          6           0        1.673605   -0.764260   -0.033123
      4          6           0       -1.913692   -0.113270    0.082694
      5          6           0        0.551617    1.464119   -0.110767
      6          1           0        0.277487    0.005167    1.408429
      7          1           0        2.553687   -0.338441    0.446174
      8          1           0        1.820889   -0.751272   -1.112551
      9          1           0        1.551611   -1.796512    0.292432
     10          1           0       -2.050006   -0.217900    1.164944
     11          1           0       -2.040279    0.940493   -0.182860
     12          1           0       -2.669392   -0.703777   -0.429345
     13          1           0        0.983170    2.208783    0.540322
     14          1           0        0.397964    1.706560   -1.153015
 ---------------------------------------------------------------------
 Rotational constants (GHZ):           8.1893560           3.9072900           2.9473901
 Leave Link  202 at Tue Apr 23 21:46:50 2019, MaxMem=   671088640 cpu:               0.2 elap:               0.0
 (Enter /shared/centos7/gaussian/g16/l301.exe)
 Standard basis: 6-311+G(2df,2p) (5D, 7F)
 Ernie: Thresh=  0.10000D-02 Tol=  0.10000D-05 Strict=F.
 There are   276 symmetry adapted cartesian basis functions of A   symmetry.
 There are   251 symmetry adapted basis functions of A   symmetry.
   251 basis functions,   359 primitive gaussians,   276 cartesian basis functions
    21 alpha electrons       20 beta electrons
       nuclear repulsion energy       187.9783437717 Hartrees.
 IExCor= 4336 DFT=T Ex+Corr=M062X ExCW=0 ScaHFX=  0.540000
 ScaDFX=  1.000000  1.000000  1.000000  1.000000 ScalE2=  1.000000  1.000000
 IRadAn=      5 IRanWt=     -1 IRanGd=            0 ICorTp=0 IEmpDi=  4
 NAtoms=   14 NActive=   14 NUniq=   14 SFac= 1.00D+00 NAtFMM=   60 NAOKFM=F Big=F
 Integral buffers will be    131072 words long.
 Raffenetti 2 integral format.
 Two-electron integral symmetry is turned on.
 Leave Link  301 at Tue Apr 23 21:46:50 2019, MaxMem=   671088640 cpu:               1.2 elap:               0.1
 (Enter /shared/centos7/gaussian/g16/l302.exe)
 NPDir=0 NMtPBC=     1 NCelOv=     1 NCel=       1 NClECP=     1 NCelD=      1
         NCelK=      1 NCelE2=     1 NClLst=     1 CellRange=     0.0.
 One-electron integrals computed using PRISM.
 One-electron integral symmetry used in STVInt
 NBasis=   251 RedAO= T EigKep=  4.74D-05  NBF=   251
 NBsUse=   251 1.00D-06 EigRej= -1.00D+00 NBFU=   251
 Precomputing XC quadrature grid using
 IXCGrd= 4 IRadAn=           5 IRanWt=          -1 IRanGd=           0 AccXCQ= 0.00D+00.
 Generated NRdTot=       0 NPtTot=           0 NUsed=           0 NTot=          32
 NSgBfM=   276   276   276   276   276 MxSgAt=    14 MxSgA2=    14.
 Leave Link  302 at Tue Apr 23 21:46:50 2019, MaxMem=   671088640 cpu:               6.2 elap:               0.3
 (Enter /shared/centos7/gaussian/g16/l303.exe)
 DipDrv:  MaxL=1.
 Leave Link  303 at Tue Apr 23 21:46:50 2019, MaxMem=   671088640 cpu:               0.5 elap:               0.0
 (Enter /shared/centos7/gaussian/g16/l401.exe)
 ExpMin= 4.38D-02 ExpMax= 8.59D+03 ExpMxC= 1.30D+03 IAcc=3 IRadAn=         5 AccDes= 0.00D+00
 Harris functional with IExCor= 1009 and IRadAn=       5 diagonalized for initial guess.
 HarFok:  IExCor= 1009 AccDes= 0.00D+00 IRadAn=         5 IDoV= 1 UseB2=F ITyADJ=14
 ICtDFT=  3500011 ScaDFX=  1.000000  1.000000  1.000000  1.000000
 FoFCou: FMM=F IPFlag=           0 FMFlag=      100000 FMFlg1=           0
         NFxFlg=           0 DoJE=T BraDBF=F KetDBF=T FulRan=T
         wScrn=  0.000000 ICntrl=       500 IOpCl=  0 I1Cent=   200000004 NGrid=           0
         NMat0=    1 NMatS0=      1 NMatT0=    0 NMatD0=    1 NMtDS0=    0 NMtDT0=    0
 Petite list used in FoFCou.
 Harris En= -232.868439841282    
 JPrj=0 DoOrth=F DoCkMO=F.
 Initial guess <Sx>= 0.0000 <Sy>= 0.0000 <Sz>= 0.5000 <S**2>= 0.7500 S= 0.5000
 Leave Link  401 at Tue Apr 23 21:46:51 2019, MaxMem=   671088640 cpu:              17.2 elap:               0.9
 (Enter /shared/centos7/gaussian/g16/l502.exe)
 Integral symmetry usage will be decided dynamically.
 UHF open shell SCF:
 Using DIIS extrapolation, IDIIS=  1040.
 NGot=   671088640 LenX=   670928170 LenY=   670851553
 Requested convergence on RMS density matrix=1.00D-08 within 128 cycles.
 Requested convergence on MAX density matrix=1.00D-06.
 Requested convergence on             energy=1.00D-06.
 No special actions if energy rises.
 Fock matrices will be formed incrementally for  20 cycles.

 Cycle   1  Pass 1  IDiag  1:
 FoFJK:  IHMeth= 1 ICntrl=       0 DoSepK=F KAlg= 0 I1Cent=           0 FoldK=F
 IRaf= 980000000 NMat=       1 IRICut=       1 DoRegI=T DoRafI=F ISym2E= 0 IDoP0=0 IntGTp=1.
 FoFCou: FMM=F IPFlag=           0 FMFlag=      100000 FMFlg1=           0
         NFxFlg=           0 DoJE=F BraDBF=F KetDBF=F FulRan=T
         wScrn=  0.000000 ICntrl=         0 IOpCl=  1 I1Cent=           0 NGrid=           0
         NMat0=    1 NMatS0=      1 NMatT0=    0 NMatD0=    1 NMtDS0=    0 NMtDT0=    0
 Symmetry not used in FoFCou.
 E= -232.785422882071    
 DIIS: error= 2.29D-02 at cycle   1 NSaved=   1.
 NSaved= 1 IEnMin= 1 EnMin= -232.785422882071     IErMin= 1 ErrMin= 2.29D-02
 ErrMax= 2.29D-02  0.00D+00 EMaxC= 1.00D-01 BMatC= 7.95D-01 BMatP= 7.95D-01
 IDIUse=3 WtCom= 7.71D-01 WtEn= 2.29D-01
 Coeff-Com:  0.100D+01
 Coeff-En:   0.100D+01
 Coeff:      0.100D+01
 Gap=     0.275 Goal=   None    Shift=    0.000
 Gap=     0.322 Goal=   None    Shift=    0.000
 GapD=    0.275 DampG=1.000 DampE=0.500 DampFc=0.5000 IDamp=-1.
 Damping current iteration by 5.00D-01
 RMSDP=2.50D-03 MaxDP=1.12D-01              OVMax= 1.47D-01

 Cycle   2  Pass 1  IDiag  1:
 RMSU=  1.24D-03    CP:  9.81D-01
 E= -232.873288482126     Delta-E=       -0.087865600055 Rises=F Damp=T
 DIIS: error= 5.52D-03 at cycle   2 NSaved=   2.
 NSaved= 2 IEnMin= 2 EnMin= -232.873288482126     IErMin= 2 ErrMin= 5.52D-03
 ErrMax= 5.52D-03  0.00D+00 EMaxC= 1.00D-01 BMatC= 5.83D-02 BMatP= 7.95D-01
 IDIUse=3 WtCom= 9.45D-01 WtEn= 5.52D-02
 Coeff-Com: -0.155D+00 0.115D+01
 Coeff-En:   0.000D+00 0.100D+01
 Coeff:     -0.146D+00 0.115D+01
 Gap=     0.294 Goal=   None    Shift=    0.000
 Gap=     0.328 Goal=   None    Shift=    0.000
 RMSDP=1.02D-03 MaxDP=5.97D-02 DE=-8.79D-02 OVMax= 7.27D-02

 Cycle   3  Pass 1  IDiag  1:
 RMSU=  9.99D-04    CP:  9.65D-01  9.10D-01
 E= -232.952326934772     Delta-E=       -0.079038452646 Rises=F Damp=F
 DIIS: error= 3.33D-03 at cycle   3 NSaved=   3.
 NSaved= 3 IEnMin= 3 EnMin= -232.952326934772     IErMin= 3 ErrMin= 3.33D-03
 ErrMax= 3.33D-03  0.00D+00 EMaxC= 1.00D-01 BMatC= 1.10D-02 BMatP= 5.83D-02
 IDIUse=3 WtCom= 9.67D-01 WtEn= 3.33D-02
 Coeff-Com: -0.906D-01 0.329D+00 0.762D+00
 Coeff-En:   0.000D+00 0.000D+00 0.100D+01
 Coeff:     -0.876D-01 0.318D+00 0.770D+00
 Gap=     0.293 Goal=   None    Shift=    0.000
 Gap=     0.292 Goal=   None    Shift=    0.000
 RMSDP=2.08D-04 MaxDP=1.02D-02 DE=-7.90D-02 OVMax= 1.56D-02

 Cycle   4  Pass 1  IDiag  1:
 RMSU=  1.88D-04    CP:  9.62D-01  9.78D-01  9.99D-01
 E= -232.953941383996     Delta-E=       -0.001614449224 Rises=F Damp=F
 DIIS: error= 1.50D-03 at cycle   4 NSaved=   4.
 NSaved= 4 IEnMin= 4 EnMin= -232.953941383996     IErMin= 4 ErrMin= 1.50D-03
 ErrMax= 1.50D-03  0.00D+00 EMaxC= 1.00D-01 BMatC= 3.70D-03 BMatP= 1.10D-02
 IDIUse=3 WtCom= 9.85D-01 WtEn= 1.50D-02
 Coeff-Com: -0.315D-01 0.733D-01 0.399D+00 0.559D+00
 Coeff-En:   0.000D+00 0.000D+00 0.159D+00 0.841D+00
 Coeff:     -0.310D-01 0.722D-01 0.395D+00 0.564D+00
 Gap=     0.291 Goal=   None    Shift=    0.000
 Gap=     0.301 Goal=   None    Shift=    0.000
 RMSDP=7.89D-05 MaxDP=4.46D-03 DE=-1.61D-03 OVMax= 6.93D-03

 Cycle   5  Pass 1  IDiag  1:
 RMSU=  5.88D-05    CP:  9.61D-01  9.64D-01  1.02D+00  7.57D-01
 E= -232.954617042984     Delta-E=       -0.000675658987 Rises=F Damp=F
 DIIS: error= 3.08D-04 at cycle   5 NSaved=   5.
 NSaved= 5 IEnMin= 5 EnMin= -232.954617042984     IErMin= 5 ErrMin= 3.08D-04
 ErrMax= 3.08D-04  0.00D+00 EMaxC= 1.00D-01 BMatC= 9.28D-05 BMatP= 3.70D-03
 IDIUse=3 WtCom= 9.97D-01 WtEn= 3.08D-03
 Coeff-Com:  0.501D-03-0.891D-02 0.271D-01 0.125D+00 0.856D+00
 Coeff-En:   0.000D+00 0.000D+00 0.000D+00 0.000D+00 0.100D+01
 Coeff:      0.500D-03-0.888D-02 0.270D-01 0.125D+00 0.856D+00
 Gap=     0.292 Goal=   None    Shift=    0.000
 Gap=     0.301 Goal=   None    Shift=    0.000
 RMSDP=2.99D-05 MaxDP=1.76D-03 DE=-6.76D-04 OVMax= 2.03D-03

 Cycle   6  Pass 1  IDiag  1:
 RMSU=  2.47D-05    CP:  9.61D-01  9.60D-01  1.02D+00  8.23D-01  1.17D+00
 E= -232.954649258265     Delta-E=       -0.000032215281 Rises=F Damp=F
 DIIS: error= 1.39D-04 at cycle   6 NSaved=   6.
 NSaved= 6 IEnMin= 6 EnMin= -232.954649258265     IErMin= 6 ErrMin= 1.39D-04
 ErrMax= 1.39D-04  0.00D+00 EMaxC= 1.00D-01 BMatC= 1.57D-05 BMatP= 9.28D-05
 IDIUse=3 WtCom= 9.99D-01 WtEn= 1.39D-03
 Coeff-Com:  0.459D-02-0.123D-01-0.528D-01-0.521D-01 0.180D+00 0.932D+00
 Coeff-En:   0.000D+00 0.000D+00 0.000D+00 0.000D+00 0.000D+00 0.100D+01
 Coeff:      0.458D-02-0.123D-01-0.527D-01-0.521D-01 0.180D+00 0.932D+00
 Gap=     0.292 Goal=   None    Shift=    0.000
 Gap=     0.302 Goal=   None    Shift=    0.000
 RMSDP=1.67D-05 MaxDP=1.22D-03 DE=-3.22D-05 OVMax= 1.28D-03

 Cycle   7  Pass 1  IDiag  1:
 RMSU=  9.06D-06    CP:  9.61D-01  9.59D-01  1.02D+00  8.60D-01  1.34D+00
                    CP:  1.26D+00
 E= -232.954656508200     Delta-E=       -0.000007249936 Rises=F Damp=F
 DIIS: error= 5.58D-05 at cycle   7 NSaved=   7.
 NSaved= 7 IEnMin= 7 EnMin= -232.954656508200     IErMin= 7 ErrMin= 5.58D-05
 ErrMax= 5.58D-05  0.00D+00 EMaxC= 1.00D-01 BMatC= 3.45D-06 BMatP= 1.57D-05
 IDIUse=1 WtCom= 1.00D+00 WtEn= 0.00D+00
 Coeff-Com:  0.132D-02-0.231D-02-0.243D-01-0.430D-01-0.964D-01 0.356D+00
 Coeff-Com:  0.809D+00
 Coeff:      0.132D-02-0.231D-02-0.243D-01-0.430D-01-0.964D-01 0.356D+00
 Coeff:      0.809D+00
 Gap=     0.292 Goal=   None    Shift=    0.000
 Gap=     0.302 Goal=   None    Shift=    0.000
 RMSDP=5.86D-06 MaxDP=3.61D-04 DE=-7.25D-06 OVMax= 4.99D-04

 Cycle   8  Pass 1  IDiag  1:
 RMSU=  3.40D-06    CP:  9.61D-01  9.58D-01  1.02D+00  8.67D-01  1.38D+00
                    CP:  1.41D+00  1.10D+00
 E= -232.954657767220     Delta-E=       -0.000001259019 Rises=F Damp=F
 DIIS: error= 1.09D-05 at cycle   8 NSaved=   8.
 NSaved= 8 IEnMin= 8 EnMin= -232.954657767220     IErMin= 8 ErrMin= 1.09D-05
 ErrMax= 1.09D-05  0.00D+00 EMaxC= 1.00D-01 BMatC= 1.10D-07 BMatP= 3.45D-06
 IDIUse=1 WtCom= 1.00D+00 WtEn= 0.00D+00
 Coeff-Com: -0.364D-03 0.923D-03 0.277D-02 0.719D-03-0.177D-01-0.494D-01
 Coeff-Com:  0.414D-01 0.102D+01
 Coeff:     -0.364D-03 0.923D-03 0.277D-02 0.719D-03-0.177D-01-0.494D-01
 Coeff:      0.414D-01 0.102D+01
 Gap=     0.292 Goal=   None    Shift=    0.000
 Gap=     0.302 Goal=   None    Shift=    0.000
 RMSDP=1.98D-06 MaxDP=1.30D-04 DE=-1.26D-06 OVMax= 1.13D-04

 Cycle   9  Pass 1  IDiag  1:
 RMSU=  1.03D-06    CP:  9.61D-01  9.58D-01  1.02D+00  8.67D-01  1.38D+00
                    CP:  1.44D+00  1.23D+00  1.23D+00
 E= -232.954657821071     Delta-E=       -0.000000053851 Rises=F Damp=F
 DIIS: error= 3.20D-06 at cycle   9 NSaved=   9.
 NSaved= 9 IEnMin= 9 EnMin= -232.954657821071     IErMin= 9 ErrMin= 3.20D-06
 ErrMax= 3.20D-06  0.00D+00 EMaxC= 1.00D-01 BMatC= 1.45D-08 BMatP= 1.10D-07
 IDIUse=1 WtCom= 1.00D+00 WtEn= 0.00D+00
 Coeff-Com: -0.205D-03 0.441D-03 0.286D-02 0.387D-02 0.451D-02-0.429D-01
 Coeff-Com: -0.640D-01 0.253D+00 0.842D+00
 Coeff:     -0.205D-03 0.441D-03 0.286D-02 0.387D-02 0.451D-02-0.429D-01
 Coeff:     -0.640D-01 0.253D+00 0.842D+00
 Gap=     0.292 Goal=   None    Shift=    0.000
 Gap=     0.302 Goal=   None    Shift=    0.000
 RMSDP=4.59D-07 MaxDP=2.26D-05 DE=-5.39D-08 OVMax= 3.79D-05

 Cycle  10  Pass 1  IDiag  1:
 RMSU=  2.70D-07    CP:  9.61D-01  9.59D-01  1.02D+00  8.67D-01  1.39D+00
                    CP:  1.45D+00  1.25D+00  1.30D+00  1.06D+00
 E= -232.954657826483     Delta-E=       -0.000000005412 Rises=F Damp=F
 DIIS: error= 1.19D-06 at cycle  10 NSaved=  10.
 NSaved=10 IEnMin=10 EnMin= -232.954657826483     IErMin=10 ErrMin= 1.19D-06
 ErrMax= 1.19D-06  0.00D+00 EMaxC= 1.00D-01 BMatC= 1.46D-09 BMatP= 1.45D-08
 IDIUse=1 WtCom= 1.00D+00 WtEn= 0.00D+00
 Coeff-Com: -0.121D-04 0.213D-04 0.470D-03 0.874D-03 0.244D-02-0.615D-02
 Coeff-Com: -0.192D-01-0.261D-01 0.207D+00 0.841D+00
 Coeff:     -0.121D-04 0.213D-04 0.470D-03 0.874D-03 0.244D-02-0.615D-02
 Coeff:     -0.192D-01-0.261D-01 0.207D+00 0.841D+00
 Gap=     0.292 Goal=   None    Shift=    0.000
 Gap=     0.302 Goal=   None    Shift=    0.000
 RMSDP=1.55D-07 MaxDP=6.36D-06 DE=-5.41D-09 OVMax= 1.11D-05

 Cycle  11  Pass 1  IDiag  1:
 RMSU=  1.10D-07    CP:  9.61D-01  9.58D-01  1.02D+00  8.67D-01  1.39D+00
                    CP:  1.44D+00  1.25D+00  1.32D+00  1.12D+00  1.15D+00
 E= -232.954657827036     Delta-E=       -0.000000000553 Rises=F Damp=F
 DIIS: error= 6.17D-07 at cycle  11 NSaved=  11.
 NSaved=11 IEnMin=11 EnMin= -232.954657827036     IErMin=11 ErrMin= 6.17D-07
 ErrMax= 6.17D-07  0.00D+00 EMaxC= 1.00D-01 BMatC= 1.46D-10 BMatP= 1.46D-09
 IDIUse=1 WtCom= 1.00D+00 WtEn= 0.00D+00
 Coeff-Com:  0.215D-04-0.465D-04-0.209D-03-0.213D-03-0.329D-04 0.346D-02
 Coeff-Com:  0.271D-02-0.341D-01-0.487D-01 0.197D+00 0.880D+00
 Coeff:      0.215D-04-0.465D-04-0.209D-03-0.213D-03-0.329D-04 0.346D-02
 Coeff:      0.271D-02-0.341D-01-0.487D-01 0.197D+00 0.880D+00
 Gap=     0.292 Goal=   None    Shift=    0.000
 Gap=     0.302 Goal=   None    Shift=    0.000
 RMSDP=5.00D-08 MaxDP=2.60D-06 DE=-5.53D-10 OVMax= 5.36D-06

 Cycle  12  Pass 1  IDiag  1:
 RMSU=  3.17D-08    CP:  9.61D-01  9.58D-01  1.02D+00  8.67D-01  1.39D+00
                    CP:  1.44D+00  1.25D+00  1.32D+00  1.15D+00  1.24D+00
                    CP:  1.09D+00
 E= -232.954657827109     Delta-E=       -0.000000000074 Rises=F Damp=F
 DIIS: error= 1.94D-07 at cycle  12 NSaved=  12.
 NSaved=12 IEnMin=12 EnMin= -232.954657827109     IErMin=12 ErrMin= 1.94D-07
 ErrMax= 1.94D-07  0.00D+00 EMaxC= 1.00D-01 BMatC= 8.96D-12 BMatP= 1.46D-10
 IDIUse=1 WtCom= 1.00D+00 WtEn= 0.00D+00
 Coeff-Com:  0.110D-05-0.277D-05-0.391D-04-0.612D-04-0.175D-03 0.579D-03
 Coeff-Com:  0.140D-02 0.148D-02-0.188D-01-0.644D-01 0.218D-01 0.106D+01
 Coeff:      0.110D-05-0.277D-05-0.391D-04-0.612D-04-0.175D-03 0.579D-03
 Coeff:      0.140D-02 0.148D-02-0.188D-01-0.644D-01 0.218D-01 0.106D+01
 Gap=     0.292 Goal=   None    Shift=    0.000
 Gap=     0.302 Goal=   None    Shift=    0.000
 RMSDP=1.99D-08 MaxDP=1.03D-06 DE=-7.36D-11 OVMax= 1.88D-06

 Cycle  13  Pass 1  IDiag  1:
 RMSU=  8.78D-09    CP:  9.61D-01  9.58D-01  1.02D+00  8.67D-01  1.39D+00
                    CP:  1.44D+00  1.25D+00  1.32D+00  1.15D+00  1.25D+00
                    CP:  1.18D+00  1.29D+00
 E= -232.954657827120     Delta-E=       -0.000000000011 Rises=F Damp=F
 DIIS: error= 5.33D-08 at cycle  13 NSaved=  13.
 NSaved=13 IEnMin=13 EnMin= -232.954657827120     IErMin=13 ErrMin= 5.33D-08
 ErrMax= 5.33D-08  0.00D+00 EMaxC= 1.00D-01 BMatC= 8.49D-13 BMatP= 8.96D-12
 IDIUse=1 WtCom= 1.00D+00 WtEn= 0.00D+00
 Coeff-Com: -0.185D-05 0.390D-05 0.160D-04 0.156D-04 0.153D-05-0.277D-03
 Coeff-Com: -0.174D-03 0.311D-02 0.288D-02-0.211D-01-0.760D-01 0.740D-01
 Coeff-Com:  0.102D+01
 Coeff:     -0.185D-05 0.390D-05 0.160D-04 0.156D-04 0.153D-05-0.277D-03
 Coeff:     -0.174D-03 0.311D-02 0.288D-02-0.211D-01-0.760D-01 0.740D-01
 Coeff:      0.102D+01
 Gap=     0.292 Goal=   None    Shift=    0.000
 Gap=     0.302 Goal=   None    Shift=    0.000
 RMSDP=6.60D-09 MaxDP=4.76D-07 DE=-1.09D-11 OVMax= 5.69D-07

 SCF Done:  E(UM062X) =  -232.954657827     A.U. after   13 cycles
            NFock= 13  Conv=0.66D-08     -V/T= 2.0039
 <Sx>= 0.0000 <Sy>= 0.0000 <Sz>= 0.5000 <S**2>= 0.7552 S= 0.5026
 <L.S>= 0.000000000000E+00
 KE= 2.320530371771D+02 PE=-9.188883543983D+02 EE= 2.659023156223D+02
 Annihilation of the first spin contaminant:
 S**2 before annihilation     0.7552,   after     0.7500
 Leave Link  502 at Tue Apr 23 21:47:32 2019, MaxMem=   671088640 cpu:             807.6 elap:              40.4
 (Enter /shared/centos7/gaussian/g16/l801.exe)
 DoSCS=F DFT=T ScalE2(SS,OS)=  1.000000  1.000000
 Range of M.O.s used for correlation:     1   251
 NBasis=   251 NAE=    21 NBE=    20 NFC=     0 NFV=     0
 NROrb=    251 NOA=    21 NOB=    20 NVA=   230 NVB=   231

 **** Warning!!: The largest alpha MO coefficient is  0.40483006D+02


 **** Warning!!: The largest beta MO coefficient is  0.40225799D+02

 Leave Link  801 at Tue Apr 23 21:47:32 2019, MaxMem=   671088640 cpu:               0.4 elap:               0.0
 (Enter /shared/centos7/gaussian/g16/l1101.exe)
 Using compressed storage, NAtomX=    14.
 Will process     15 centers per pass.
 Leave Link 1101 at Tue Apr 23 21:47:32 2019, MaxMem=   671088640 cpu:               7.0 elap:               0.4
 (Enter /shared/centos7/gaussian/g16/l1102.exe)
 Symmetrizing basis deriv contribution to polar:
 IMax=3 JMax=2 DiffMx= 0.00D+00
 Leave Link 1102 at Tue Apr 23 21:47:32 2019, MaxMem=   671088640 cpu:               0.5 elap:               0.0
 (Enter /shared/centos7/gaussian/g16/l1110.exe)
 Forming Gx(P) for the SCF density, NAtomX=    14.
 Integral derivatives from FoFJK, PRISM(SPDF).
 Do as many integral derivatives as possible in FoFJK.
 G2DrvN: MDV=     671087496.
 G2DrvN: will do    15 centers at a time, making    1 passes.
 Calling FoFCou, ICntrl=  3107 FMM=F I1Cent=   0 AccDes= 0.00D+00.
 FoFJK:  IHMeth= 1 ICntrl=    3107 DoSepK=F KAlg= 0 I1Cent=           0 FoldK=F
 IRaf=         0 NMat=       1 IRICut=       1 DoRegI=T DoRafI=F ISym2E= 0 IDoP0=0 IntGTp=1.
 FoFCou: FMM=F IPFlag=           0 FMFlag=      100000 FMFlg1=           0
         NFxFlg=           0 DoJE=F BraDBF=F KetDBF=F FulRan=T
         wScrn=  0.000000 ICntrl=      3107 IOpCl=  1 I1Cent=           0 NGrid=           0
         NMat0=    1 NMatS0=      1 NMatT0=    0 NMatD0=    1 NMtDS0=    0 NMtDT0=    0
 Symmetry not used in FoFCou.
 End of G2Drv F.D. properties file   721 does not exist.
 End of G2Drv F.D. properties file   722 does not exist.
 End of G2Drv F.D. properties file   788 does not exist.
 Leave Link 1110 at Tue Apr 23 21:48:57 2019, MaxMem=   671088640 cpu:            1693.4 elap:              84.7
 (Enter /shared/centos7/gaussian/g16/l1002.exe)
 Minotr:  UHF open shell wavefunction.
          IDoAtm=11111111111111
          Direct CPHF calculation.
          Differentiating once with respect to nuclear coordinates.
          Requested convergence is 1.0D-08 RMS, and 1.0D-07 maximum.
          Secondary convergence is 1.0D-12 RMS, and 1.0D-12 maximum.
          NewPWx=T KeepS1=F KeepF1=F KeepIn=T MapXYZ=F SortEE=F KeepMc=T.
         4257 words used for storage of precomputed grid.
 Two-electron integrals replicated using symmetry.
          MDV=     671088640 using IRadAn=       1.
          Solving linear equations simultaneously, MaxMat=     380.
 FoF2E skips out because all densities are zero.
 CalDSu exits because no D1Ps are significant.
 FoFJK:  IHMeth= 1 ICntrl=       0 DoSepK=F KAlg= 0 I1Cent=           0 FoldK=F
 IRaf= 980000000 NMat=      42 IRICut=     105 DoRegI=T DoRafI=T ISym2E= 2 IDoP0=3 IntGTp=3.
 FoFCou: FMM=F IPFlag=           0 FMFlag=      100000 FMFlg1=           0
         NFxFlg=           0 DoJE=F BraDBF=F KetDBF=F FulRan=T
         wScrn=  0.000000 ICntrl=         0 IOpCl=  1 I1Cent=           0 NGrid=           0
         NMat0=   42 NMatS0=     42 NMatT0=    0 NMatD0=   42 NMtDS0=    0 NMtDT0=    0
 Integrals replicated using symmetry in FoFCou.
 Raff kept on since  96.31% of shell-pairs survive, threshold=   0.20 IRatSp=96.
          There are    45 degrees of freedom in the 1st order CPHF.  IDoFFX=6 NUNeed=     0.
     39 vectors produced by pass  0 Test12= 2.10D-14 2.22D-09 XBig12= 1.36D-01 7.89D-02.
 AX will form    39 AO Fock derivatives at one time.
     39 vectors produced by pass  1 Test12= 2.10D-14 2.22D-09 XBig12= 6.69D-03 1.80D-02.
     39 vectors produced by pass  2 Test12= 2.10D-14 2.22D-09 XBig12= 1.79D-04 1.99D-03.
     39 vectors produced by pass  3 Test12= 2.10D-14 2.22D-09 XBig12= 2.44D-06 2.09D-04.
     39 vectors produced by pass  4 Test12= 2.10D-14 2.22D-09 XBig12= 2.80D-08 2.03D-05.
     39 vectors produced by pass  5 Test12= 2.10D-14 2.22D-09 XBig12= 3.08D-10 2.00D-06.
     38 vectors produced by pass  6 Test12= 2.10D-14 2.22D-09 XBig12= 2.58D-12 1.43D-07.
     14 vectors produced by pass  7 Test12= 2.10D-14 2.22D-09 XBig12= 1.66D-14 1.18D-08.
 InvSVY:  IOpt=1 It=  1 EMax= 1.67D-15
 Solved reduced A of dimension   286 with    39 vectors.
 End of Minotr F.D. properties file   721 does not exist.
 End of Minotr F.D. properties file   722 does not exist.
 End of Minotr F.D. properties file   788 does not exist.
 Leave Link 1002 at Tue Apr 23 21:51:11 2019, MaxMem=   671088640 cpu:            2676.2 elap:             133.8
 (Enter /shared/centos7/gaussian/g16/l601.exe)
 Copying SCF densities to generalized density rwf, IOpCl= 1 IROHF=0.

 **********************************************************************

            Population analysis using the SCF density.

 **********************************************************************

 Orbital symmetries:
 Alpha Orbitals:
       Occupied  (A) (A) (A) (A) (A) (A) (A) (A) (A) (A) (A) (A)
                 (A) (A) (A) (A) (A) (A) (A) (A) (A)
       Virtual   (A) (A) (A) (A) (A) (A) (A) (A) (A) (A) (A) (A)
                 (A) (A) (A) (A) (A) (A) (A) (A) (A) (A) (A) (A)
                 (A) (A) (A) (A) (A) (A) (A) (A) (A) (A) (A) (A)
                 (A) (A) (A) (A) (A) (A) (A) (A) (A) (A) (A) (A)
                 (A) (A) (A) (A) (A) (A) (A) (A) (A) (A) (A) (A)
                 (A) (A) (A) (A) (A) (A) (A) (A) (A) (A) (A) (A)
                 (A) (A) (A) (A) (A) (A) (A) (A) (A) (A) (A) (A)
                 (A) (A) (A) (A) (A) (A) (A) (A) (A) (A) (A) (A)
                 (A) (A) (A) (A) (A) (A) (A) (A) (A) (A) (A) (A)
                 (A) (A) (A) (A) (A) (A) (A) (A) (A) (A) (A) (A)
                 (A) (A) (A) (A) (A) (A) (A) (A) (A) (A) (A) (A)
                 (A) (A) (A) (A) (A) (A) (A) (A) (A) (A) (A) (A)
                 (A) (A) (A) (A) (A) (A) (A) (A) (A) (A) (A) (A)
                 (A) (A) (A) (A) (A) (A) (A) (A) (A) (A) (A) (A)
                 (A) (A) (A) (A) (A) (A) (A) (A) (A) (A) (A) (A)
                 (A) (A) (A) (A) (A) (A) (A) (A) (A) (A) (A) (A)
                 (A) (A) (A) (A) (A) (A) (A) (A) (A) (A) (A) (A)
                 (A) (A) (A) (A) (A) (A) (A) (A) (A) (A) (A) (A)
                 (A) (A) (A) (A) (A) (A) (A) (A) (A) (A) (A) (A)
                 (A) (A)
 Beta  Orbitals:
       Occupied  (A) (A) (A) (A) (A) (A) (A) (A) (A) (A) (A) (A)
                 (A) (A) (A) (A) (A) (A) (A) (A)
       Virtual   (A) (A) (A) (A) (A) (A) (A) (A) (A) (A) (A) (A)
                 (A) (A) (A) (A) (A) (A) (A) (A) (A) (A) (A) (A)
                 (A) (A) (A) (A) (A) (A) (A) (A) (A) (A) (A) (A)
                 (A) (A) (A) (A) (A) (A) (A) (A) (A) (A) (A) (A)
                 (A) (A) (A) (A) (A) (A) (A) (A) (A) (A) (A) (A)
                 (A) (A) (A) (A) (A) (A) (A) (A) (A) (A) (A) (A)
                 (A) (A) (A) (A) (A) (A) (A) (A) (A) (A) (A) (A)
                 (A) (A) (A) (A) (A) (A) (A) (A) (A) (A) (A) (A)
                 (A) (A) (A) (A) (A) (A) (A) (A) (A) (A) (A) (A)
                 (A) (A) (A) (A) (A) (A) (A) (A) (A) (A) (A) (A)
                 (A) (A) (A) (A) (A) (A) (A) (A) (A) (A) (A) (A)
                 (A) (A) (A) (A) (A) (A) (A) (A) (A) (A) (A) (A)
                 (A) (A) (A) (A) (A) (A) (A) (A) (A) (A) (A) (A)
                 (A) (A) (A) (A) (A) (A) (A) (A) (A) (A) (A) (A)
                 (A) (A) (A) (A) (A) (A) (A) (A) (A) (A) (A) (A)
                 (A) (A) (A) (A) (A) (A) (A) (A) (A) (A) (A) (A)
                 (A) (A) (A) (A) (A) (A) (A) (A) (A) (A) (A) (A)
                 (A) (A) (A) (A) (A) (A) (A) (A) (A) (A) (A) (A)
                 (A) (A) (A) (A) (A) (A) (A) (A) (A) (A) (A) (A)
                 (A) (A) (A)
 The electronic state is 2-A.
 Alpha  occ. eigenvalues --  -19.62176 -10.59114 -10.57153 -10.54414 -10.52443
 Alpha  occ. eigenvalues --   -1.16013  -0.88640  -0.78320  -0.76536  -0.66330
 Alpha  occ. eigenvalues --   -0.57858  -0.54384  -0.53342  -0.49522  -0.47818
 Alpha  occ. eigenvalues --   -0.45384  -0.43469  -0.41970  -0.38757  -0.33523
 Alpha  occ. eigenvalues --   -0.27142
 Alpha virt. eigenvalues --    0.02099   0.03269   0.03742   0.04112   0.05571
 Alpha virt. eigenvalues --    0.06798   0.06982   0.07682   0.07958   0.10004
 Alpha virt. eigenvalues --    0.10649   0.11844   0.12537   0.13499   0.14720
 Alpha virt. eigenvalues --    0.15628   0.19810   0.20612   0.21197   0.21856
 Alpha virt. eigenvalues --    0.23599   0.23969   0.24394   0.25779   0.26893
 Alpha virt. eigenvalues --    0.27753   0.28610   0.30649   0.31066   0.31762
 Alpha virt. eigenvalues --    0.34707   0.35549   0.38577   0.42268   0.43981
 Alpha virt. eigenvalues --    0.44332   0.45596   0.49262   0.50574   0.52205
 Alpha virt. eigenvalues --    0.53843   0.54709   0.55985   0.56564   0.57406
 Alpha virt. eigenvalues --    0.57960   0.58841   0.60861   0.62564   0.63173
 Alpha virt. eigenvalues --    0.64488   0.65095   0.65354   0.67159   0.67691
 Alpha virt. eigenvalues --    0.70871   0.71645   0.79117   0.80557   0.82537
 Alpha virt. eigenvalues --    0.83913   0.87883   0.89669   0.94291   0.95295
 Alpha virt. eigenvalues --    0.96622   0.98374   0.99930   1.01240   1.02493
 Alpha virt. eigenvalues --    1.06051   1.09193   1.09935   1.10495   1.13201
 Alpha virt. eigenvalues --    1.16296   1.18051   1.19268   1.19515   1.21561
 Alpha virt. eigenvalues --    1.23442   1.25181   1.27737   1.28220   1.29675
 Alpha virt. eigenvalues --    1.30562   1.32041   1.32681   1.36887   1.39063
 Alpha virt. eigenvalues --    1.40057   1.41144   1.42816   1.44404   1.46867
 Alpha virt. eigenvalues --    1.47320   1.48105   1.50082   1.50526   1.53186
 Alpha virt. eigenvalues --    1.55184   1.55542   1.59103   1.60929   1.64277
 Alpha virt. eigenvalues --    1.67374   1.69134   1.74086   1.84639   2.03868
 Alpha virt. eigenvalues --    2.11318   2.12958   2.27257   2.36148   2.41587
 Alpha virt. eigenvalues --    2.45898   2.49863   2.51173   2.56103   2.59538
 Alpha virt. eigenvalues --    2.63819   2.65513   2.68074   2.71415   2.80879
 Alpha virt. eigenvalues --    2.81640   2.88163   2.92179   2.94874   2.97747
 Alpha virt. eigenvalues --    2.98629   2.99544   3.00412   3.02984   3.06856
 Alpha virt. eigenvalues --    3.08314   3.09737   3.11895   3.13732   3.15476
 Alpha virt. eigenvalues --    3.17896   3.18702   3.20511   3.23473   3.24537
 Alpha virt. eigenvalues --    3.26253   3.29215   3.30796   3.33790   3.35943
 Alpha virt. eigenvalues --    3.37935   3.40984   3.44351   3.46513   3.50576
 Alpha virt. eigenvalues --    3.51577   3.54586   3.55982   3.58852   3.63873
 Alpha virt. eigenvalues --    3.65845   3.70467   3.71957   3.76612   3.76748
 Alpha virt. eigenvalues --    3.80484   3.83063   3.86322   3.88447   3.89712
 Alpha virt. eigenvalues --    3.90736   3.92953   3.98398   4.01607   4.03979
 Alpha virt. eigenvalues --    4.05509   4.10480   4.13023   4.16803   4.18447
 Alpha virt. eigenvalues --    4.19562   4.20761   4.22579   4.23339   4.25165
 Alpha virt. eigenvalues --    4.27264   4.28461   4.29898   4.34376   4.36245
 Alpha virt. eigenvalues --    4.39555   4.42795   4.44781   4.47550   4.49842
 Alpha virt. eigenvalues --    4.52394   4.54702   4.58606   4.68001   4.89572
 Alpha virt. eigenvalues --    4.94101   4.96136   5.20054   5.26811   5.29033
 Alpha virt. eigenvalues --    5.34936   5.41803   5.47273   5.51483   5.56424
 Alpha virt. eigenvalues --    5.57765   5.59540   5.60966   5.65568   5.69457
 Alpha virt. eigenvalues --    5.83190   5.89554   6.22928   6.49699   6.72595
 Alpha virt. eigenvalues --    7.21022   7.22080   7.36540   7.73677   7.77999
 Alpha virt. eigenvalues --   24.23959  24.40386  24.44424  24.52080  50.19479
  Beta  occ. eigenvalues --  -19.62150 -10.59179 -10.57141 -10.53733 -10.52359
  Beta  occ. eigenvalues --   -1.15892  -0.87656  -0.76579  -0.75433  -0.65267
  Beta  occ. eigenvalues --   -0.57438  -0.53879  -0.52888  -0.49075  -0.46956
  Beta  occ. eigenvalues --   -0.45013  -0.42785  -0.41640  -0.38389  -0.33247
  Beta virt. eigenvalues --   -0.03072   0.01434   0.03324   0.03472   0.04109
  Beta virt. eigenvalues --    0.05637   0.06683   0.06911   0.07449   0.07820
  Beta virt. eigenvalues --    0.09999   0.10469   0.11579   0.12284   0.13203
  Beta virt. eigenvalues --    0.13747   0.15890   0.19765   0.20701   0.21396
  Beta virt. eigenvalues --    0.22155   0.23888   0.24087   0.25075   0.25690
  Beta virt. eigenvalues --    0.27027   0.27935   0.28808   0.30804   0.31171
  Beta virt. eigenvalues --    0.31852   0.35002   0.35844   0.38771   0.42853
  Beta virt. eigenvalues --    0.44110   0.44789   0.46054   0.49419   0.50780
  Beta virt. eigenvalues --    0.52431   0.54519   0.55448   0.56352   0.56929
  Beta virt. eigenvalues --    0.57618   0.58553   0.58878   0.61629   0.63024
  Beta virt. eigenvalues --    0.63739   0.64825   0.65648   0.65941   0.67116
  Beta virt. eigenvalues --    0.67945   0.70860   0.71945   0.79398   0.80769
  Beta virt. eigenvalues --    0.82455   0.84035   0.87911   0.89798   0.94412
  Beta virt. eigenvalues --    0.95373   0.96668   0.98786   1.00013   1.01185
  Beta virt. eigenvalues --    1.02610   1.06277   1.08934   1.09670   1.10618
  Beta virt. eigenvalues --    1.12922   1.16266   1.18210   1.19332   1.19701
  Beta virt. eigenvalues --    1.21730   1.23833   1.25192   1.28192   1.28439
  Beta virt. eigenvalues --    1.29730   1.30943   1.32441   1.33081   1.37202
  Beta virt. eigenvalues --    1.39236   1.40203   1.41264   1.43274   1.44580
  Beta virt. eigenvalues --    1.47144   1.48069   1.48377   1.50308   1.51086
  Beta virt. eigenvalues --    1.53769   1.55490   1.56061   1.59677   1.61306
  Beta virt. eigenvalues --    1.64465   1.67634   1.69616   1.74140   1.84836
  Beta virt. eigenvalues --    2.04489   2.11561   2.13093   2.27379   2.36375
  Beta virt. eigenvalues --    2.41674   2.46441   2.50172   2.51668   2.56531
  Beta virt. eigenvalues --    2.60694   2.64175   2.66434   2.68889   2.74470
  Beta virt. eigenvalues --    2.82390   2.85258   2.89418   2.94797   2.97305
  Beta virt. eigenvalues --    2.98624   2.99302   3.02514   3.04118   3.04967
  Beta virt. eigenvalues --    3.08415   3.09675   3.11194   3.14157   3.15122
  Beta virt. eigenvalues --    3.16755   3.18908   3.20111   3.22956   3.24477
  Beta virt. eigenvalues --    3.27358   3.30037   3.31084   3.33383   3.36195
  Beta virt. eigenvalues --    3.39021   3.39632   3.42010   3.45270   3.47676
  Beta virt. eigenvalues --    3.51723   3.52653   3.55118   3.56905   3.60255
  Beta virt. eigenvalues --    3.65494   3.67601   3.71068   3.73728   3.77019
  Beta virt. eigenvalues --    3.79013   3.82155   3.83801   3.86977   3.88754
  Beta virt. eigenvalues --    3.90007   3.91635   3.94620   3.99831   4.02195
  Beta virt. eigenvalues --    4.05089   4.06385   4.11295   4.14848   4.18104
  Beta virt. eigenvalues --    4.19965   4.20607   4.22581   4.23523   4.25062
  Beta virt. eigenvalues --    4.26377   4.28930   4.29347   4.30664   4.35505
  Beta virt. eigenvalues --    4.37218   4.41210   4.43475   4.45912   4.48974
  Beta virt. eigenvalues --    4.50212   4.52834   4.56136   4.59032   4.68476
  Beta virt. eigenvalues --    4.92101   4.95408   5.00316   5.22797   5.27116
  Beta virt. eigenvalues --    5.29269   5.35797   5.42717   5.50910   5.53722
  Beta virt. eigenvalues --    5.57014   5.59620   5.60544   5.61832   5.66319
  Beta virt. eigenvalues --    5.69958   5.83404   5.89806   6.22994   6.49731
  Beta virt. eigenvalues --    6.72639   7.21134   7.22180   7.36655   7.73755
  Beta virt. eigenvalues --    7.78124  24.24944  24.40750  24.44443  24.52409
  Beta virt. eigenvalues --   50.19456
          Condensed to atoms (all electrons):
               1          2          3          4          5          6
     1  O    8.240844   0.263385  -0.133324   0.114698  -0.166924  -0.037856
     2  C    0.263385   5.257173   0.352732  -0.121506   0.084842   0.478082
     3  C   -0.133324   0.352732   5.201347  -0.023156  -0.152564  -0.033924
     4  C    0.114698  -0.121506  -0.023156   4.976834   0.016931   0.000211
     5  C   -0.166924   0.084842  -0.152564   0.016931   5.877718  -0.087265
     6  H   -0.037856   0.478082  -0.033924   0.000211  -0.087265   0.514561
     7  H    0.012885  -0.046580   0.423994   0.001442  -0.004836  -0.006499
     8  H   -0.011233  -0.006654   0.407673  -0.001203  -0.022643   0.005500
     9  H   -0.004210  -0.022142   0.383323  -0.000249   0.020941  -0.004765
    10  H   -0.046293  -0.007734   0.006197   0.436052  -0.006622   0.006500
    11  H   -0.047055  -0.012836  -0.011087   0.432688   0.023905  -0.002896
    12  H   -0.060543   0.013640   0.001225   0.428966   0.000618  -0.000239
    13  H    0.007140  -0.026011   0.001556  -0.000903   0.392070  -0.000853
    14  H    0.002747  -0.030075  -0.000285  -0.001134   0.398886   0.004004
               7          8          9         10         11         12
     1  O    0.012885  -0.011233  -0.004210  -0.046293  -0.047055  -0.060543
     2  C   -0.046580  -0.006654  -0.022142  -0.007734  -0.012836   0.013640
     3  C    0.423994   0.407673   0.383323   0.006197  -0.011087   0.001225
     4  C    0.001442  -0.001203  -0.000249   0.436052   0.432688   0.428966
     5  C   -0.004836  -0.022643   0.020941  -0.006622   0.023905   0.000618
     6  H   -0.006499   0.005500  -0.004765   0.006500  -0.002896  -0.000239
     7  H    0.532376  -0.031320  -0.023773  -0.000009   0.000039   0.000022
     8  H   -0.031320   0.521282  -0.024981  -0.000014  -0.000048   0.000025
     9  H   -0.023773  -0.024981   0.528655   0.000012  -0.000011  -0.000028
    10  H   -0.000009  -0.000014   0.000012   0.573898  -0.050992  -0.025531
    11  H    0.000039  -0.000048  -0.000011  -0.050992   0.573087  -0.026037
    12  H    0.000022   0.000025  -0.000028  -0.025531  -0.026037   0.535497
    13  H   -0.000815   0.000493  -0.000232   0.000369  -0.001591   0.000039
    14  H    0.000288   0.000025  -0.000192   0.000320  -0.002487  -0.000103
              13         14
     1  O    0.007140   0.002747
     2  C   -0.026011  -0.030075
     3  C    0.001556  -0.000285
     4  C   -0.000903  -0.001134
     5  C    0.392070   0.398886
     6  H   -0.000853   0.004004
     7  H   -0.000815   0.000288
     8  H    0.000493   0.000025
     9  H   -0.000232  -0.000192
    10  H    0.000369   0.000320
    11  H   -0.001591  -0.002487
    12  H    0.000039  -0.000103
    13  H    0.468027  -0.018340
    14  H   -0.018340   0.446966
          Atomic-Atomic Spin Densities.
               1          2          3          4          5          6
     1  O    0.028337   0.005178  -0.012792  -0.001148  -0.028071   0.004869
     2  C    0.005178  -0.062575  -0.004264   0.010219   0.003339   0.018685
     3  C   -0.012792  -0.004264   0.131152  -0.007829  -0.055664  -0.023039
     4  C   -0.001148   0.010219  -0.007829   0.042999  -0.020394   0.004237
     5  C   -0.028071   0.003339  -0.055664  -0.020394   1.225341  -0.018043
     6  H    0.004869   0.018685  -0.023039   0.004237  -0.018043   0.014889
     7  H   -0.000428   0.000373   0.012138  -0.000400  -0.012831  -0.000801
     8  H    0.000210   0.011486  -0.006729   0.000888  -0.006536  -0.000167
     9  H    0.000557   0.001377  -0.016275   0.000069   0.010802   0.002243
    10  H   -0.001282  -0.001065  -0.001431  -0.001130   0.002649  -0.000338
    11  H    0.003138   0.003275   0.000396   0.007494  -0.010968  -0.000161
    12  H   -0.000029   0.000306   0.001034  -0.005732   0.002090  -0.000087
    13  H   -0.000026   0.009273  -0.001379   0.000313  -0.010973   0.000678
    14  H    0.001876   0.002701  -0.000707   0.001249  -0.013132   0.000289
               7          8          9         10         11         12
     1  O   -0.000428   0.000210   0.000557  -0.001282   0.003138  -0.000029
     2  C    0.000373   0.011486   0.001377  -0.001065   0.003275   0.000306
     3  C    0.012138  -0.006729  -0.016275  -0.001431   0.000396   0.001034
     4  C   -0.000400   0.000888   0.000069  -0.001130   0.007494  -0.005732
     5  C   -0.012831  -0.006536   0.010802   0.002649  -0.010968   0.002090
     6  H   -0.000801  -0.000167   0.002243  -0.000338  -0.000161  -0.000087
     7  H   -0.004900   0.001329  -0.001526   0.000000  -0.000001   0.000001
     8  H    0.001329  -0.005019   0.000100  -0.000007  -0.000003   0.000004
     9  H   -0.001526   0.000100   0.014308   0.000033  -0.000010  -0.000021
    10  H    0.000000  -0.000007   0.000033  -0.001101   0.000471   0.000713
    11  H   -0.000001  -0.000003  -0.000010   0.000471  -0.019239   0.000633
    12  H    0.000001   0.000004  -0.000021   0.000713   0.000633   0.000845
    13  H    0.000125   0.000114  -0.000021  -0.000020   0.000390  -0.000014
    14  H    0.000041   0.000067   0.000002  -0.000066   0.000758  -0.000071
              13         14
     1  O   -0.000026   0.001876
     2  C    0.009273   0.002701
     3  C   -0.001379  -0.000707
     4  C    0.000313   0.001249
     5  C   -0.010973  -0.013132
     6  H    0.000678   0.000289
     7  H    0.000125   0.000041
     8  H    0.000114   0.000067
     9  H   -0.000021   0.000002
    10  H   -0.000020  -0.000066
    11  H    0.000390   0.000758
    12  H   -0.000014  -0.000071
    13  H   -0.048053   0.006797
    14  H    0.006797  -0.055775
 Mulliken charges and spin densities:
               1          2
     1  O   -0.134262   0.000389
     2  C   -0.176317  -0.001692
     3  C   -0.423708   0.014610
     4  C   -0.259670   0.030835
     5  C   -0.375057   1.067609
     6  H    0.165438   0.003252
     7  H    0.142783  -0.006880
     8  H    0.163098  -0.004261
     9  H    0.147651   0.011637
    10  H    0.113847  -0.002573
    11  H    0.125320  -0.013829
    12  H    0.132449  -0.000327
    13  H    0.179050  -0.042797
    14  H    0.199380  -0.055972
 Sum of Mulliken charges =  -0.00000   1.00000
 Mulliken charges and spin densities with hydrogens summed into heavy atoms:
               1          2
     1  O   -0.134262   0.000389
     2  C   -0.010878   0.001560
     3  C    0.029823   0.015105
     4  C    0.111945   0.014105
     5  C    0.003373   0.968840
 APT charges:
               1
     1  O   -0.077292
     2  C   -0.319300
     3  C   -1.152598
     4  C   -1.194817
     5  C   -0.865433
     6  H    0.359566
     7  H    0.458724
     8  H    0.343744
     9  H    0.368790
    10  H    0.340670
    11  H    0.319034
    12  H    0.519282
    13  H    0.509562
    14  H    0.390069
 Sum of APT charges =  -0.00000
 APT charges with hydrogens summed into heavy atoms:
               1
     1  O   -0.077292
     2  C    0.040266
     3  C    0.018660
     4  C   -0.015831
     5  C    0.034198
 Electronic spatial extent (au):  <R**2>=            482.3958
 Charge=             -0.0000 electrons
 Dipole moment (field-independent basis, Debye):
    X=              0.0662    Y=              0.8130    Z=              0.8379  Tot=              1.1694
 Quadrupole moment (field-independent basis, Debye-Ang):
   XX=            -30.7160   YY=            -33.8575   ZZ=            -32.6544
   XY=             -0.0136   XZ=              0.1209   YZ=             -0.7253
 Traceless Quadrupole moment (field-independent basis, Debye-Ang):
   XX=              1.6933   YY=             -1.4482   ZZ=             -0.2451
   XY=             -0.0136   XZ=              0.1209   YZ=             -0.7253
 Octapole moment (field-independent basis, Debye-Ang**2):
  XXX=            -10.1469  YYY=             -2.7507  ZZZ=             -1.0534  XYY=              0.7056
  XXY=             -2.9857  XXZ=             -0.0546  XZZ=             -0.5360  YZZ=             -0.1088
  YYZ=              0.2047  XYZ=              1.0895
 Hexadecapole moment (field-independent basis, Debye-Ang**3):
 XXXX=           -388.8369 YYYY=           -195.6134 ZZZZ=            -70.6670 XXXY=              6.1625
 XXXZ=              7.3869 YYYX=              3.6180 YYYZ=              0.5218 ZZZX=             -1.1163
 ZZZY=             -1.0068 XXYY=            -99.9221 XXZZ=            -77.9796 YYZZ=            -43.5716
 XXYZ=              3.1967 YYXZ=              3.6069 ZZXY=              1.4236
 N-N= 1.879783437717D+02 E-N=-9.188883551798D+02  KE= 2.320530371771D+02
  Exact polarizability:   0.000   0.000   0.000   0.000   0.000   0.000
 Approx polarizability:  61.517   0.173  60.613   0.403   0.475  59.436
                          Isotropic Fermi Contact Couplings
        Atom                 a.u.       MegaHertz       Gauss      10(-4) cm-1
     1  O(17)              0.01793     -10.86800      -3.87797      -3.62518
     2  C(13)             -0.03416     -38.40751     -13.70476     -12.81137
     3  C(13)              0.06433      72.32086      25.80588      24.12364
     4  C(13)              0.00411       4.61829       1.64792       1.54050
     5  C(13)              0.17192     193.27140      68.96404      64.46840
     6  H(1)               0.00554      24.75724       8.83400       8.25812
     7  H(1)               0.00041       1.83854       0.65604       0.61327
     8  H(1)              -0.00061      -2.71295      -0.96805      -0.90494
     9  H(1)               0.00486      21.74035       7.75750       7.25180
    10  H(1)              -0.00020      -0.89609      -0.31975      -0.29890
    11  H(1)               0.00029       1.28077       0.45701       0.42722
    12  H(1)              -0.00009      -0.42017      -0.14993      -0.14015
    13  H(1)              -0.01610     -71.94602     -25.67213     -23.99861
    14  H(1)              -0.01550     -69.26854     -24.71674     -23.10550
 --------------------------------------------------------
       Center         ----  Spin Dipole Couplings  ----
                      3XX-RR        3YY-RR        3ZZ-RR
 --------------------------------------------------------
     1   Atom       -0.000754      0.029342     -0.028588
     2   Atom       -0.008258      0.012995     -0.004738
     3   Atom        0.004362      0.026678     -0.031040
     4   Atom       -0.001406      0.014730     -0.013324
     5   Atom        0.884450     -0.450998     -0.433452
     6   Atom       -0.007743      0.005533      0.002211
     7   Atom        0.008396     -0.000377     -0.008018
     8   Atom       -0.005123      0.004711      0.000412
     9   Atom       -0.003585      0.008091     -0.004506
    10   Atom        0.001782     -0.000342     -0.001440
    11   Atom        0.014266     -0.002788     -0.011477
    12   Atom        0.002578      0.000459     -0.003036
    13   Atom        0.012736      0.001134     -0.013870
    14   Atom       -0.008250     -0.061047      0.069297
 --------------------------------------------------------
                        XY            XZ            YZ
 --------------------------------------------------------
     1   Atom        0.037679      0.014129      0.023659
     2   Atom       -0.001870     -0.003307      0.007044
     3   Atom       -0.044293     -0.007638      0.010209
     4   Atom        0.002648      0.000391     -0.004277
     5   Atom       -0.366906     -0.393023      0.102698
     6   Atom        0.001556     -0.002465     -0.015724
     7   Atom       -0.007174      0.006068     -0.002921
     8   Atom       -0.006804     -0.005666      0.006566
     9   Atom       -0.001872     -0.000696     -0.002898
    10   Atom        0.004743     -0.003449     -0.002769
    11   Atom        0.008669      0.001870     -0.000618
    12   Atom        0.003695      0.001352      0.000814
    13   Atom        0.025372      0.020415      0.065959
    14   Atom       -0.020142      0.006537     -0.027290
 --------------------------------------------------------


 ---------------------------------------------------------------------------------
              Anisotropic Spin Dipole Couplings in Principal Axis System
 ---------------------------------------------------------------------------------

       Atom             a.u.   MegaHertz   Gauss  10(-4) cm-1        Axes

              Baa    -0.0371     2.681     0.957     0.894 -0.0446 -0.3128  0.9488
     1 O(17)  Bbb    -0.0261     1.886     0.673     0.629  0.8449 -0.5185 -0.1312
              Bcc     0.0631    -4.568    -1.630    -1.524  0.5330  0.7958  0.2874
 
              Baa    -0.0105    -1.407    -0.502    -0.469  0.7922 -0.1166  0.5990
     2 C(13)  Bbb    -0.0053    -0.713    -0.254    -0.238 -0.5985 -0.3402  0.7253
              Bcc     0.0158     2.120     0.756     0.707 -0.1192  0.9331  0.3393
 
              Baa    -0.0328    -4.400    -1.570    -1.468  0.0082 -0.1633  0.9865
     3 C(13)  Bbb    -0.0301    -4.044    -1.443    -1.349  0.7933  0.6017  0.0930
              Bcc     0.0629     8.444     3.013     2.817 -0.6088  0.7818  0.1344
 
              Baa    -0.0140    -1.880    -0.671    -0.627 -0.0627  0.1526  0.9863
     4 C(13)  Bbb    -0.0017    -0.233    -0.083    -0.078  0.9870 -0.1369  0.0839
              Bcc     0.0158     2.114     0.754     0.705  0.1478  0.9788 -0.1420
 
              Baa    -0.5459   -73.256   -26.139   -24.435  0.1285  0.9137 -0.3854
     5 C(13)  Bbb    -0.5412   -72.627   -25.915   -24.226  0.3285  0.3275  0.8859
              Bcc     1.0871   145.883    52.055    48.661  0.9357 -0.2404 -0.2581
 
              Baa    -0.0121    -6.452    -2.302    -2.152  0.1894  0.6443  0.7410
     6 H(1)   Bbb    -0.0079    -4.202    -1.499    -1.402  0.9767 -0.2011 -0.0748
              Bcc     0.0200    10.654     3.802     3.554  0.1008  0.7379 -0.6674
 
              Baa    -0.0101    -5.367    -1.915    -1.790 -0.2839  0.0780  0.9557
     7 H(1)   Bbb    -0.0044    -2.332    -0.832    -0.778  0.4648  0.8830  0.0660
              Bcc     0.0144     7.700     2.747     2.568  0.8387 -0.4629  0.2869
 
              Baa    -0.0093    -4.985    -1.779    -1.663  0.9000  0.2794  0.3347
     8 H(1)   Bbb    -0.0043    -2.291    -0.817    -0.764 -0.0909 -0.6307  0.7707
              Bcc     0.0136     7.275     2.596     2.427 -0.4264  0.7240  0.5422
 
              Baa    -0.0057    -3.061    -1.092    -1.021  0.4826  0.2418  0.8418
     9 H(1)   Bbb    -0.0032    -1.715    -0.612    -0.572  0.8656  0.0150 -0.5006
              Bcc     0.0090     4.777     1.704     1.593 -0.1337  0.9702 -0.2020
 
              Baa    -0.0041    -2.209    -0.788    -0.737 -0.6222  0.7828  0.0081
    10 H(1)   Bbb    -0.0036    -1.908    -0.681    -0.637  0.3451  0.2649  0.9004
              Bcc     0.0077     4.118     1.469     1.374  0.7027  0.5630 -0.4350
 
              Baa    -0.0119    -6.327    -2.258    -2.111 -0.1341  0.1944  0.9717
    11 H(1)   Bbb    -0.0061    -3.263    -1.164    -1.088 -0.3629  0.9028 -0.2307
              Bcc     0.0180     9.590     3.422     3.199  0.9221  0.3835  0.0505
 
              Baa    -0.0033    -1.785    -0.637    -0.595 -0.2339  0.0192  0.9721
    12 H(1)   Bbb    -0.0023    -1.228    -0.438    -0.409 -0.5694  0.8077 -0.1529
              Bcc     0.0056     3.013     1.075     1.005  0.7881  0.5893  0.1780
 
              Baa    -0.0728   -38.836   -13.858   -12.954  0.0215 -0.6697  0.7423
    13 H(1)   Bbb    -0.0038    -2.027    -0.723    -0.676  0.8908 -0.3243 -0.3184
              Bcc     0.0766    40.863    14.581    13.630  0.4540  0.6681  0.5896
 
              Baa    -0.0719   -38.385   -13.697   -12.804  0.2813  0.9445  0.1695
    14 H(1)   Bbb    -0.0042    -2.215    -0.790    -0.739  0.9514 -0.2514 -0.1781
              Bcc     0.0761    40.600    14.487    13.543  0.1256 -0.2113  0.9693
 

 ---------------------------------------------------------------------------------

 No NMR shielding tensors so no spin-rotation constants.
 Leave Link  601 at Tue Apr 23 21:51:11 2019, MaxMem=   671088640 cpu:               8.6 elap:               0.5
 (Enter /shared/centos7/gaussian/g16/l701.exe)
 ... and contract with generalized density number  0.
 Compute integral second derivatives.
 Leave Link  701 at Tue Apr 23 21:51:12 2019, MaxMem=   671088640 cpu:               7.1 elap:               0.4
 (Enter /shared/centos7/gaussian/g16/l702.exe)
 L702 exits ... SP integral derivatives will be done elsewhere.
 Leave Link  702 at Tue Apr 23 21:51:12 2019, MaxMem=   671088640 cpu:               0.3 elap:               0.0
 (Enter /shared/centos7/gaussian/g16/l703.exe)
 Integral derivatives from FoFJK, PRISM(SPDF).
 Compute integral second derivatives, UseDBF=F ICtDFT=           0.
 Calling FoFJK, ICntrl=    100147 FMM=F ISym2X=0 I1Cent= 0 IOpClX= 1 NMat=1 NMatS=1 NMatT=0.
 FoFJK:  IHMeth= 1 ICntrl=  100147 DoSepK=F KAlg= 0 I1Cent=           0 FoldK=F
 IRaf=         0 NMat=       1 IRICut=       1 DoRegI=T DoRafI=F ISym2E= 0 IDoP0=0 IntGTp=1.
 FoFCou: FMM=F IPFlag=           0 FMFlag=      100000 FMFlg1=         800
         NFxFlg=           0 DoJE=F BraDBF=F KetDBF=F FulRan=T
         wScrn=  0.000000 ICntrl=    100147 IOpCl=  1 I1Cent=           0 NGrid=           0
         NMat0=    1 NMatS0=      1 NMatT0=    0 NMatD0=    1 NMtDS0=    0 NMtDT0=    0
 Symmetry not used in FoFCou.
 Leave Link  703 at Tue Apr 23 21:52:32 2019, MaxMem=   671088640 cpu:            1601.5 elap:              80.1
 (Enter /shared/centos7/gaussian/g16/l716.exe)
 Dipole        = 2.60433508D-02 3.19852453D-01 3.29671654D-01
 Polarizability= 0.00000000D+00 0.00000000D+00 0.00000000D+00
                 0.00000000D+00 0.00000000D+00 0.00000000D+00
 ***** Axes restored to original set *****
 -------------------------------------------------------------------
 Center     Atomic                   Forces (Hartrees/Bohr)
 Number     Number              X              Y              Z
 -------------------------------------------------------------------
      1        8           0.000000095   -0.000000404    0.000000555
      2        6           0.000000048    0.000000230   -0.000000034
      3        6           0.000000166    0.000000218    0.000000464
      4        6           0.000000070   -0.000000362    0.000000325
      5        6          -0.000000286   -0.000000039   -0.000001017
      6        1           0.000000138    0.000001017    0.000000031
      7        1           0.000000106    0.000000742    0.000000065
      8        1           0.000000047   -0.000000514    0.000000437
      9        1           0.000000378    0.000000451    0.000001206
     10        1           0.000000151    0.000000393    0.000000410
     11        1          -0.000000194   -0.000000569   -0.000000424
     12        1           0.000000091   -0.000000877    0.000000810
     13        1          -0.000000363    0.000000520   -0.000001615
     14        1          -0.000000446   -0.000000806   -0.000001212
 -------------------------------------------------------------------
 Cartesian Forces:  Max     0.000001615 RMS     0.000000571
 FormGI is forming the generalized inverse of G from B-inverse, IUseBI=4.
 Leave Link  716 at Tue Apr 23 21:52:32 2019, MaxMem=   671088640 cpu:               0.5 elap:               0.0
 (Enter /shared/centos7/gaussian/g16/l103.exe)

 GradGradGradGradGradGradGradGradGradGradGradGradGradGradGradGradGradGrad
 Berny optimization.
 Red2BG is reusing G-inverse.
 Internal  Forces:  Max     0.000000051 RMS     0.000000013
 Search for a local minimum.
 Step number   1 out of a maximum of   66 on scan point     1 out of    37
 All quantities printed in internal units (Hartrees-Bohrs-Radians)
 RMS Force = .12862D-07 SwitMx=.10000D-02 MixMth= 2
 Mixed Optimization -- En-DIIS/RFO-DIIS
 Second derivative matrix not updated -- analytic derivatives used.
 ITU=  0
     Eigenvalues ---    0.00054   0.00275   0.00687   0.00993   0.04265
     Eigenvalues ---    0.04462   0.04637   0.05305   0.06087   0.06984
     Eigenvalues ---    0.08773   0.09769   0.10366   0.12252   0.13188
     Eigenvalues ---    0.13370   0.14163   0.16994   0.18369   0.18560
     Eigenvalues ---    0.20279   0.24874   0.29136   0.30750   0.31699
     Eigenvalues ---    0.32618   0.33494   0.34395   0.34546   0.34892
     Eigenvalues ---    0.35133   0.36552   0.36886   0.39280   0.44361
     Eigenvalues --- 1000.000001000.000001000.000001000.000001000.00000
     Eigenvalues --- 1000.000001000.000001000.000001000.000001000.00000
     Eigenvalues --- 1000.000001000.000001000.000001000.000001000.00000
     Eigenvalues --- 1000.000001000.000001000.000001000.000001000.00000
     Eigenvalues --- 1000.00000
 RFO step:  Lambda= 0.00000000D+00 EMin= 5.38753562D-04
 Linear search not attempted -- first point.
 Iteration  1 RMS(Cart)=  0.00000261 RMS(Int)=  0.00000000
 Iteration  2 RMS(Cart)=  0.00000000 RMS(Int)=  0.00000000
 Iteration  1 RMS(Cart)=  0.00000000 RMS(Int)=  0.00000000
 ITry= 1 IFail=0 DXMaxC= 1.41D-05 DCOld= 1.00D+10 DXMaxT= 3.00D-01 DXLimC= 3.00D+00 Rises=F
 Variable       Old X    -DE/DX   Delta X   Delta X   Delta X     New X
                                 (Linear)    (Quad)   (Total)
    R1        2.67500  -0.00000   0.00000  -0.00000  -0.00000   2.67500
    R2        2.65620  -0.00000   0.00000  -0.00000  -0.00000   2.65620
    R3        2.88226   0.00000   0.00000   0.00000   0.00000   2.88226
    R4        2.81617   0.00000   0.00000  -0.00000  -0.00000   2.81617
    R5        2.07754  -0.00000   0.00000   0.00000   0.00000   2.07754
    R6        2.05763  -0.00000   0.00000  -0.00000  -0.00000   2.05763
    R7        2.05887  -0.00000   0.00000  -0.00000  -0.00000   2.05887
    R8        2.05834  -0.00000   0.00000  -0.00000  -0.00000   2.05834
    R9        2.07078   0.00000   0.00000   0.00000   0.00000   2.07078
   R10        2.06747   0.00000   0.00000   0.00000   0.00000   2.06747
   R11        2.05448   0.00000   0.00000   0.00000   0.00000   2.05448
   R12        2.03940   0.00000   0.00000   0.00000   0.00000   2.03940
   R13        2.04289   0.00000   0.00000   0.00000   0.00000   2.04289
    A1        1.98112  -0.00000   0.00000  -0.00000  -0.00000   1.98112
    A2        1.85556   0.00000   0.00000   0.00000   0.00000   1.85556
    A3        1.94879  -0.00000   0.00000  -0.00000  -0.00000   1.94879
    A4        1.90044   0.00000   0.00000   0.00000   0.00000   1.90044
    A5        1.95014   0.00000   0.00000   0.00000   0.00000   1.95014
    A6        1.90003  -0.00000   0.00000  -0.00000  -0.00000   1.90003
    A7        1.90737  -0.00000   0.00000  -0.00000  -0.00000   1.90736
    A8        1.92933  -0.00000   0.00000  -0.00000  -0.00000   1.92933
    A9        1.91081   0.00000   0.00000   0.00000   0.00000   1.91081
   A10        1.91860  -0.00000   0.00000  -0.00000  -0.00000   1.91860
   A11        1.89884   0.00000   0.00000   0.00000   0.00000   1.89884
   A12        1.90665  -0.00000   0.00000  -0.00000  -0.00000   1.90665
   A13        1.89923  -0.00000   0.00000   0.00000   0.00000   1.89923
   A14        1.93686   0.00000   0.00000   0.00000   0.00000   1.93686
   A15        1.95041   0.00000   0.00000   0.00000   0.00000   1.95041
   A16        1.87313   0.00000   0.00000   0.00000   0.00000   1.87313
   A17        1.89367  -0.00000   0.00000  -0.00000  -0.00000   1.89367
   A18        1.90373  -0.00000   0.00000  -0.00000  -0.00000   1.90373
   A19        1.90541  -0.00000   0.00000  -0.00000  -0.00000   1.90541
   A20        2.11374   0.00000   0.00000  -0.00000  -0.00000   2.11374
   A21        2.07249  -0.00000   0.00000   0.00000   0.00000   2.07249
   A22        2.07572  -0.00000   0.00000   0.00000   0.00000   2.07572
    D1        2.97161  -0.00000   0.00000   0.00000   0.00000   2.97161
    D2       -1.18054   0.00000   0.00000   0.00000   0.00000  -1.18054
    D3        0.92709   0.00000   0.00000   0.00000   0.00000   0.92709
    D4       -1.02085   0.00000   0.00000   0.00000   0.00000  -1.02085
    D5        1.09538   0.00000   0.00000   0.00000   0.00000   1.09538
    D6       -3.09939  -0.00000   0.00000   0.00000  -0.00000  -3.09939
    D7       -3.11572  -0.00000   0.00000   0.00000   0.00000  -3.11572
    D8        1.07593  -0.00000   0.00000  -0.00000  -0.00000   1.07593
    D9       -1.00948  -0.00000   0.00000  -0.00000  -0.00000  -1.00948
   D10        1.03727   0.00000   0.00000  -0.00000  -0.00000   1.03727
   D11       -1.05426   0.00000   0.00000  -0.00000  -0.00000  -1.05426
   D12       -3.13967   0.00000   0.00000  -0.00000  -0.00000  -3.13967
   D13       -1.07093   0.00000   0.00000   0.00000   0.00000  -1.07093
   D14        3.12072   0.00000   0.00000   0.00000   0.00000   3.12072
   D15        1.03532   0.00000   0.00000  -0.00000  -0.00000   1.03532
   D16        2.65291  -0.00000   0.00000   0.00001   0.00001   2.65292
   D17       -0.71100   0.00000   0.00000   0.00001   0.00001  -0.71099
   D18       -1.55459   0.00000   0.00000   0.00001   0.00001  -1.55459
   D19        1.36469   0.00000   0.00000   0.00001   0.00001   1.36469
   D20        0.54933   0.00000   0.00000   0.00001   0.00001   0.54933
   D21       -2.81458   0.00000   0.00000   0.00001   0.00001  -2.81457
         Item               Value     Threshold  Converged?
 Maximum Force            0.000000     0.000450     YES
 RMS     Force            0.000000     0.000300     YES
 Maximum Displacement     0.000014     0.001800     YES
 RMS     Displacement     0.000003     0.001200     YES
 Predicted change in Energy=-1.607347D-13
 Optimization completed.
    -- Stationary point found.
                           ----------------------------
                           !   Optimized Parameters   !
                           ! (Angstroms and Degrees)  !
 --------------------------                            --------------------------
 ! Name  Definition              Value          Derivative Info.                !
 --------------------------------------------------------------------------------
 ! R1    R(1,2)                  1.4155         -DE/DX =    0.0                 !
 ! R2    R(1,4)                  1.4056         -DE/DX =    0.0                 !
 ! R3    R(2,3)                  1.5252         -DE/DX =    0.0                 !
 ! R4    R(2,5)                  1.4903         -DE/DX =    0.0                 !
 ! R5    R(2,6)                  1.0994         -DE/DX =    0.0                 !
 ! R6    R(3,7)                  1.0888         -DE/DX =    0.0                 !
 ! R7    R(3,8)                  1.0895         -DE/DX =    0.0                 !
 ! R8    R(3,9)                  1.0892         -DE/DX =    0.0                 !
 ! R9    R(4,10)                 1.0958         -DE/DX =    0.0                 !
 ! R10   R(4,11)                 1.0941         -DE/DX =    0.0                 !
 ! R11   R(4,12)                 1.0872         -DE/DX =    0.0                 !
 ! R12   R(5,13)                 1.0792         -DE/DX =    0.0                 !
 ! R13   R(5,14)                 1.0811         -DE/DX =    0.0                 !
 ! A1    A(2,1,4)              113.5099         -DE/DX =    0.0                 !
 ! A2    A(1,2,3)              106.316          -DE/DX =    0.0                 !
 ! A3    A(1,2,5)              111.6577         -DE/DX =    0.0                 !
 ! A4    A(1,2,6)              108.8873         -DE/DX =    0.0                 !
 ! A5    A(3,2,5)              111.7346         -DE/DX =    0.0                 !
 ! A6    A(3,2,6)              108.8635         -DE/DX =    0.0                 !
 ! A7    A(5,2,6)              109.284          -DE/DX =    0.0                 !
 ! A8    A(2,3,7)              110.5422         -DE/DX =    0.0                 !
 ! A9    A(2,3,8)              109.4816         -DE/DX =    0.0                 !
 ! A10   A(2,3,9)              109.9279         -DE/DX =    0.0                 !
 ! A11   A(7,3,8)              108.7953         -DE/DX =    0.0                 !
 ! A12   A(7,3,9)              109.2431         -DE/DX =    0.0                 !
 ! A13   A(8,3,9)              108.8178         -DE/DX =    0.0                 !
 ! A14   A(1,4,10)             110.9738         -DE/DX =    0.0                 !
 ! A15   A(1,4,11)             111.7503         -DE/DX =    0.0                 !
 ! A16   A(1,4,12)             107.3225         -DE/DX =    0.0                 !
 ! A17   A(10,4,11)            108.4993         -DE/DX =    0.0                 !
 ! A18   A(10,4,12)            109.076          -DE/DX =    0.0                 !
 ! A19   A(11,4,12)            109.172          -DE/DX =    0.0                 !
 ! A20   A(2,5,13)             121.1083         -DE/DX =    0.0                 !
 ! A21   A(2,5,14)             118.7449         -DE/DX =    0.0                 !
 ! A22   A(13,5,14)            118.9301         -DE/DX =    0.0                 !
 ! D1    D(4,1,2,3)            170.2605         -DE/DX =    0.0                 !
 ! D2    D(4,1,2,5)            -67.6399         -DE/DX =    0.0                 !
 ! D3    D(4,1,2,6)             53.1182         -DE/DX =    0.0                 !
 ! D4    D(2,1,4,10)           -58.4905         -DE/DX =    0.0                 !
 ! D5    D(2,1,4,11)            62.7608         -DE/DX =    0.0                 !
 ! D6    D(2,1,4,12)          -177.5818         -DE/DX =    0.0                 !
 ! D7    D(1,2,3,7)           -178.5178         -DE/DX =    0.0                 !
[...]
  Beta virt. eigenvalues --    2.98620   2.99301   3.02517   3.04117   3.04969
  Beta virt. eigenvalues --    3.08418   3.09674   3.11191   3.14160   3.15126
  Beta virt. eigenvalues --    3.16757   3.18910   3.20109   3.22952   3.24479
  Beta virt. eigenvalues --    3.27359   3.30039   3.31085   3.33387   3.36188
  Beta virt. eigenvalues --    3.39023   3.39635   3.42012   3.45265   3.47673
  Beta virt. eigenvalues --    3.51725   3.52650   3.55117   3.56905   3.60257
  Beta virt. eigenvalues --    3.65492   3.67596   3.71070   3.73740   3.77021
  Beta virt. eigenvalues --    3.79007   3.82154   3.83802   3.86975   3.88755
  Beta virt. eigenvalues --    3.90006   3.91637   3.94623   3.99826   4.02192
  Beta virt. eigenvalues --    4.05090   4.06385   4.11294   4.14850   4.18106
  Beta virt. eigenvalues --    4.19964   4.20609   4.22584   4.23517   4.25062
  Beta virt. eigenvalues --    4.26375   4.28934   4.29355   4.30659   4.35507
  Beta virt. eigenvalues --    4.37219   4.41215   4.43474   4.45913   4.48976
  Beta virt. eigenvalues --    4.50209   4.52832   4.56140   4.59032   4.68477
  Beta virt. eigenvalues --    4.92092   4.95403   5.00311   5.22792   5.27116
  Beta virt. eigenvalues --    5.29271   5.35796   5.42714   5.50912   5.53724
  Beta virt. eigenvalues --    5.57010   5.59616   5.60543   5.61837   5.66317
  Beta virt. eigenvalues --    5.69955   5.83408   5.89816   6.23001   6.49735
  Beta virt. eigenvalues --    6.72648   7.21134   7.22177   7.36656   7.73761
  Beta virt. eigenvalues --    7.78124  24.24943  24.40750  24.44448  24.52410
  Beta virt. eigenvalues --   50.19457
          Condensed to atoms (all electrons):
               1          2          3          4          5          6
     1  O    8.240851   0.263374  -0.133341   0.114676  -0.166869  -0.037866
     2  C    0.263374   5.257073   0.352780  -0.121471   0.084834   0.478107
     3  C   -0.133341   0.352780   5.201455  -0.023173  -0.152617  -0.033975
     4  C    0.114676  -0.121471  -0.023173   4.976806   0.016960   0.000204
     5  C   -0.166869   0.084834  -0.152617   0.016960   5.877654  -0.087248
     6  H   -0.037866   0.478107  -0.033975   0.000204  -0.087248   0.514597
     7  H    0.012889  -0.046596   0.424020   0.001444  -0.004851  -0.006500
     8  H   -0.011234  -0.006644   0.407650  -0.001204  -0.022628   0.005500
     9  H   -0.004213  -0.022139   0.383319  -0.000251   0.020949  -0.004765
    10  H   -0.046315  -0.007703   0.006186   0.436045  -0.006626   0.006502
    11  H   -0.047042  -0.012867  -0.011080   0.432703   0.023909  -0.002894
    12  H   -0.060546   0.013638   0.001231   0.428971   0.000611  -0.000240
    13  H    0.007138  -0.025991   0.001543  -0.000899   0.392065  -0.000856
    14  H    0.002754  -0.030080  -0.000282  -0.001140   0.398883   0.004005
               7          8          9         10         11         12
     1  O    0.012889  -0.011234  -0.004213  -0.046315  -0.047042  -0.060546
     2  C   -0.046596  -0.006644  -0.022139  -0.007703  -0.012867   0.013638
     3  C    0.424020   0.407650   0.383319   0.006186  -0.011080   0.001231
     4  C    0.001444  -0.001204  -0.000251   0.436045   0.432703   0.428971
     5  C   -0.004851  -0.022628   0.020949  -0.006626   0.023909   0.000611
     6  H   -0.006500   0.005500  -0.004765   0.006502  -0.002894  -0.000240
     7  H    0.532374  -0.031321  -0.023770  -0.000009   0.000040   0.000022
     8  H   -0.031321   0.521280  -0.024981  -0.000013  -0.000048   0.000025
     9  H   -0.023770  -0.024981   0.528647   0.000012  -0.000011  -0.000028
    10  H   -0.000009  -0.000013   0.000012   0.573909  -0.050985  -0.025529
    11  H    0.000040  -0.000048  -0.000011  -0.050985   0.573075  -0.026047
    12  H    0.000022   0.000025  -0.000028  -0.025529  -0.026047   0.535510
    13  H   -0.000814   0.000493  -0.000231   0.000368  -0.001587   0.000040
    14  H    0.000288   0.000024  -0.000192   0.000320  -0.002490  -0.000103
              13         14
     1  O    0.007138   0.002754
     2  C   -0.025991  -0.030080
     3  C    0.001543  -0.000282
     4  C   -0.000899  -0.001140
     5  C    0.392065   0.398883
     6  H   -0.000856   0.004005
     7  H   -0.000814   0.000288
     8  H    0.000493   0.000024
     9  H   -0.000231  -0.000192
    10  H    0.000368   0.000320
    11  H   -0.001587  -0.002490
    12  H    0.000040  -0.000103
    13  H    0.468032  -0.018343
    14  H   -0.018343   0.446990
          Atomic-Atomic Spin Densities.
               1          2          3          4          5          6
     1  O    0.028279   0.005200  -0.012798  -0.001156  -0.028039   0.004871
     2  C    0.005200  -0.062568  -0.004277   0.010229   0.003313   0.018698
     3  C   -0.012798  -0.004277   0.131216  -0.007828  -0.055682  -0.023053
     4  C   -0.001156   0.010229  -0.007828   0.042966  -0.020376   0.004238
     5  C   -0.028039   0.003313  -0.055682  -0.020376   1.225298  -0.018061
     6  H    0.004871   0.018698  -0.023053   0.004238  -0.018061   0.014914
     7  H   -0.000428   0.000390   0.012114  -0.000400  -0.012823  -0.000802
     8  H    0.000211   0.011473  -0.006715   0.000889  -0.006540  -0.000167
     9  H    0.000556   0.001373  -0.016269   0.000068   0.010803   0.002244
    10  H   -0.001282  -0.001065  -0.001433  -0.001119   0.002644  -0.000338
    11  H    0.003136   0.003278   0.000395   0.007486  -0.010968  -0.000161
    12  H   -0.000029   0.000305   0.001035  -0.005732   0.002091  -0.000087
    13  H   -0.000026   0.009275  -0.001384   0.000315  -0.010964   0.000679
    14  H    0.001875   0.002703  -0.000710   0.001249  -0.013135   0.000290
               7          8          9         10         11         12
     1  O   -0.000428   0.000211   0.000556  -0.001282   0.003136  -0.000029
     2  C    0.000390   0.011473   0.001373  -0.001065   0.003278   0.000305
     3  C    0.012114  -0.006715  -0.016269  -0.001433   0.000395   0.001035
     4  C   -0.000400   0.000889   0.000068  -0.001119   0.007486  -0.005732
     5  C   -0.012823  -0.006540   0.010803   0.002644  -0.010968   0.002091
     6  H   -0.000802  -0.000167   0.002244  -0.000338  -0.000161  -0.000087
     7  H   -0.004894   0.001329  -0.001526   0.000000  -0.000001   0.000001
     8  H    0.001329  -0.005023   0.000101  -0.000007  -0.000003   0.000004
     9  H   -0.001526   0.000101   0.014305   0.000033  -0.000010  -0.000021
    10  H    0.000000  -0.000007   0.000033  -0.001105   0.000471   0.000713
    11  H   -0.000001  -0.000003  -0.000010   0.000471  -0.019222   0.000631
    12  H    0.000001   0.000004  -0.000021   0.000713   0.000631   0.000850
    13  H    0.000124   0.000114  -0.000021  -0.000020   0.000389  -0.000014
    14  H    0.000041   0.000068   0.000002  -0.000066   0.000759  -0.000072
              13         14
     1  O   -0.000026   0.001875
     2  C    0.009275   0.002703
     3  C   -0.001384  -0.000710
     4  C    0.000315   0.001249
     5  C   -0.010964  -0.013135
     6  H    0.000679   0.000290
     7  H    0.000124   0.000041
     8  H    0.000114   0.000068
     9  H   -0.000021   0.000002
    10  H   -0.000020  -0.000066
    11  H    0.000389   0.000759
    12  H   -0.000014  -0.000072
    13  H   -0.048048   0.006797
    14  H    0.006797  -0.055760
 Mulliken charges and spin densities:
               1          2
     1  O   -0.134254   0.000371
     2  C   -0.176315  -0.001674
     3  C   -0.423717   0.014612
     4  C   -0.259672   0.030827
     5  C   -0.375024   1.067561
     6  H    0.165429   0.003266
     7  H    0.142783  -0.006875
     8  H    0.163102  -0.004264
     9  H    0.147655   0.011638
    10  H    0.113837  -0.002574
    11  H    0.125324  -0.013819
    12  H    0.132445  -0.000325
    13  H    0.179043  -0.042785
    14  H    0.199365  -0.055959
 Sum of Mulliken charges =  -0.00000   1.00000
 Mulliken charges and spin densities with hydrogens summed into heavy atoms:
               1          2
     1  O   -0.134254   0.000371
     2  C   -0.010887   0.001591
     3  C    0.029822   0.015111
     4  C    0.111935   0.014109
     5  C    0.003384   0.968818
 Electronic spatial extent (au):  <R**2>=            482.4002
 Charge=             -0.0000 electrons
 Dipole moment (field-independent basis, Debye):
    X=              0.0666    Y=              0.8129    Z=              0.8374  Tot=              1.1690
 Quadrupole moment (field-independent basis, Debye-Ang):
   XX=            -30.7146   YY=            -33.8585   ZZ=            -32.6546
   XY=             -0.0129   XZ=              0.1220   YZ=             -0.7258
 Traceless Quadrupole moment (field-independent basis, Debye-Ang):
   XX=              1.6946   YY=             -1.4492   ZZ=             -0.2454
   XY=             -0.0129   XZ=              0.1220   YZ=             -0.7258
 Octapole moment (field-independent basis, Debye-Ang**2):
  XXX=            -10.1453  YYY=             -2.7543  ZZZ=             -1.0534  XYY=              0.7084
  XXY=             -2.9816  XXZ=             -0.0543  XZZ=             -0.5368  YZZ=             -0.1100
  YYZ=              0.2023  XYZ=              1.0907
 Hexadecapole moment (field-independent basis, Debye-Ang**3):
 XXXX=           -388.8440 YYYY=           -195.6220 ZZZZ=            -70.6638 XXXY=              6.1675
 XXXZ=              7.3907 YYYX=              3.6244 YYYZ=              0.5147 ZZZX=             -1.1150
 ZZZY=             -1.0076 XXYY=            -99.9164 XXZZ=            -77.9816 YYZZ=            -43.5731
 XXYZ=              3.1981 YYXZ=              3.6093 ZZXY=              1.4226
 N-N= 1.879783483453D+02 E-N=-9.188883258414D+02  KE= 2.320530689747D+02
                          Isotropic Fermi Contact Couplings
        Atom                 a.u.       MegaHertz       Gauss      10(-4) cm-1
     1  O(17)              0.01789     -10.84775      -3.87075      -3.61842
     2  C(13)             -0.03417     -38.40836     -13.70506     -12.81165
     3  C(13)              0.06436      72.35050      25.81646      24.13353
     4  C(13)              0.00410       4.61202       1.64568       1.53841
     5  C(13)              0.17198     193.33372      68.98628      64.48919
     6  H(1)               0.00555      24.80279       8.85025       8.27332
     7  H(1)               0.00041       1.83502       0.65478       0.61210
     8  H(1)              -0.00061      -2.71350      -0.96824      -0.90512
     9  H(1)               0.00486      21.74347       7.75861       7.25284
    10  H(1)              -0.00020      -0.89564      -0.31959      -0.29876
    11  H(1)               0.00029       1.28835       0.45972       0.42975
    12  H(1)              -0.00009      -0.41720      -0.14887      -0.13916
    13  H(1)              -0.01609     -71.93458     -25.66805     -23.99479
    14  H(1)              -0.01549     -69.25105     -24.71050     -23.09967
 --------------------------------------------------------
       Center         ----  Spin Dipole Couplings  ----
                      3XX-RR        3YY-RR        3ZZ-RR
 --------------------------------------------------------
     1   Atom       -0.000732      0.029251     -0.028519
     2   Atom       -0.008267      0.013011     -0.004744
     3   Atom        0.004374      0.026675     -0.031049
     4   Atom       -0.001404      0.014723     -0.013319
     5   Atom        0.883596     -0.450635     -0.432961
     6   Atom       -0.007747      0.005535      0.002212
     7   Atom        0.008398     -0.000379     -0.008019
     8   Atom       -0.005125      0.004710      0.000415
     9   Atom       -0.003586      0.008093     -0.004507
    10   Atom        0.001784     -0.000342     -0.001442
    11   Atom        0.014261     -0.002789     -0.011472
    12   Atom        0.002577      0.000458     -0.003035
    13   Atom        0.012798      0.001097     -0.013896
    14   Atom       -0.008267     -0.061025      0.069292
 --------------------------------------------------------
                        XY            XZ            YZ
 --------------------------------------------------------
     1   Atom        0.037591      0.014112      0.023621
     2   Atom       -0.001867     -0.003311      0.007055
     3   Atom       -0.044312     -0.007643      0.010210
     4   Atom        0.002650      0.000393     -0.004274
     5   Atom       -0.367467     -0.393767      0.103108
     6   Atom        0.001554     -0.002465     -0.015724
     7   Atom       -0.007173      0.006066     -0.002920
     8   Atom       -0.006804     -0.005667      0.006566
     9   Atom       -0.001873     -0.000697     -0.002898
    10   Atom        0.004744     -0.003449     -0.002769
    11   Atom        0.008666      0.001876     -0.000617
    12   Atom        0.003695      0.001352      0.000814
    13   Atom        0.025417      0.020440      0.065923
    14   Atom       -0.020177      0.006550     -0.027283
 --------------------------------------------------------


 ---------------------------------------------------------------------------------
              Anisotropic Spin Dipole Couplings in Principal Axis System
 ---------------------------------------------------------------------------------

       Atom             a.u.   MegaHertz   Gauss  10(-4) cm-1        Axes

              Baa    -0.0370     2.676     0.955     0.893 -0.0448 -0.3129  0.9487
     1 O(17)  Bbb    -0.0260     1.882     0.671     0.628  0.8448 -0.5187 -0.1312
              Bcc     0.0630    -4.557    -1.626    -1.520  0.5331  0.7956  0.2876
 
              Baa    -0.0105    -1.409    -0.503    -0.470  0.7920 -0.1169  0.5992
     2 C(13)  Bbb    -0.0053    -0.714    -0.255    -0.238 -0.5988 -0.3401  0.7251
              Bcc     0.0158     2.122     0.757     0.708 -0.1190  0.9331  0.3394
 
              Baa    -0.0328    -4.402    -1.571    -1.468  0.0085 -0.1630  0.9866
     3 C(13)  Bbb    -0.0301    -4.045    -1.443    -1.349  0.7932  0.6019  0.0927
              Bcc     0.0629     8.447     3.014     2.818 -0.6089  0.7817  0.1344
 
              Baa    -0.0140    -1.879    -0.671    -0.627 -0.0628  0.1525  0.9863
     4 C(13)  Bbb    -0.0017    -0.233    -0.083    -0.078  0.9870 -0.1371  0.0841
              Bcc     0.0157     2.113     0.754     0.705  0.1480  0.9787 -0.1419
 
              Baa    -0.5459   -73.254   -26.139   -24.435  0.1286  0.9136 -0.3857
     5 C(13)  Bbb    -0.5412   -72.625   -25.914   -24.225  0.3292  0.3276  0.8856
              Bcc     1.0871   145.879    52.053    48.660  0.9355 -0.2409 -0.2587
 
              Baa    -0.0121    -6.452    -2.302    -2.152  0.1900  0.6442  0.7409
     6 H(1)   Bbb    -0.0079    -4.203    -1.500    -1.402  0.9766 -0.2014 -0.0753
              Bcc     0.0200    10.655     3.802     3.554  0.1007  0.7379 -0.6674
 
              Baa    -0.0101    -5.367    -1.915    -1.790 -0.2838  0.0780  0.9557
     7 H(1)   Bbb    -0.0044    -2.333    -0.832    -0.778  0.4647  0.8830  0.0659
              Bcc     0.0144     7.700     2.747     2.568  0.8388 -0.4628  0.2868
 
              Baa    -0.0093    -4.986    -1.779    -1.663  0.9000  0.2794  0.3346
     8 H(1)   Bbb    -0.0043    -2.290    -0.817    -0.764 -0.0908 -0.6308  0.7706
              Bcc     0.0136     7.276     2.596     2.427 -0.4264  0.7239  0.5423
 
              Baa    -0.0057    -3.062    -1.093    -1.021  0.4827  0.2417  0.8417
     9 H(1)   Bbb    -0.0032    -1.715    -0.612    -0.572  0.8655  0.0150 -0.5007
              Bcc     0.0090     4.777     1.705     1.594 -0.1337  0.9702 -0.2020
 
              Baa    -0.0041    -2.209    -0.788    -0.737 -0.6218  0.7831  0.0091
    10 H(1)   Bbb    -0.0036    -1.909    -0.681    -0.637  0.3456  0.2640  0.9005
              Bcc     0.0077     4.118     1.469     1.374  0.7028  0.5630 -0.4348
 
              Baa    -0.0119    -6.325    -2.257    -2.110 -0.1344  0.1946  0.9716
    11 H(1)   Bbb    -0.0061    -3.262    -1.164    -1.088 -0.3628  0.9028 -0.2310
              Bcc     0.0180     9.587     3.421     3.198  0.9221  0.3835  0.0507
 
              Baa    -0.0033    -1.784    -0.637    -0.595 -0.2341  0.0194  0.9720
    12 H(1)   Bbb    -0.0023    -1.228    -0.438    -0.409 -0.5694  0.8077 -0.1533
              Bcc     0.0056     3.012     1.075     1.005  0.7881  0.5893  0.1780
 
              Baa    -0.0728   -38.834   -13.857   -12.954  0.0216 -0.6698  0.7423
    13 H(1)   Bbb    -0.0038    -2.029    -0.724    -0.677  0.8903 -0.3249 -0.3191
              Bcc     0.0766    40.863    14.581    13.630  0.4549  0.6677  0.5893
 
              Baa    -0.0719   -38.383   -13.696   -12.803  0.2818  0.9444  0.1694
    14 H(1)   Bbb    -0.0042    -2.216    -0.791    -0.739  0.9512 -0.2519 -0.1784
              Bcc     0.0761    40.599    14.487    13.542  0.1258 -0.2114  0.9693
 

 ---------------------------------------------------------------------------------

 No NMR shielding tensors so no spin-rotation constants.
 Leave Link  601 at Tue Apr 23 23:08:06 2019, MaxMem=   671088640 cpu:               8.4 elap:               0.5
 (Enter /shared/centos7/gaussian/g16/l9999.exe)
 1\1\GINC-C0264\Scan\UM062X\6-311+G(2df,2p)\C4H9O1(2)\UNDERKOFFLER.C\23
 -Apr-2019\0\\#p m062x/6-311+g(2df,2p) Opt=(CalcFC,ModRedun)\\Gaussian 
 Input Prepared from Scan Object\\0,2\O,-0.579199931,-0.6869825781,0.42
 93490423\C,0.456328198,0.2482235745,0.1910117735\C,1.7651018073,-0.530
 1154177,0.2784865589\C,-1.8423216355,-0.0940724988,0.5985921264\C,0.29
 96248572,0.9174241456,-1.1312789666\H,0.4403626121,1.0072296631,0.9861
 933834\H,2.6151928783,0.1339513093,0.1303211461\H,1.7823562208,-1.2997
 794267,-0.4924502423\H,1.8484566757,-1.0078255058,1.2538101312\H,-1.83
 39114386,0.6149701389,1.4340606221\H,-2.1659008442,0.4350994143,-0.302
 6263671\H,-2.5478428638,-0.8919505341,0.8167350854\H,0.6797588325,1.91
 31492368,-1.3007343445\H,-0.0107763688,0.3246924787,-1.9803919488\\Ver
 sion=EM64L-G16RevA.03\State=2-A\HF=-232.9546578,-232.9544635,-232.9539
 2,-232.9531356,-232.9523092,-232.9516806,-232.9514486,-232.9516967,-23
 2.9523447,-232.9531813,-232.9539564,-232.9544832,-232.9546575,-232.954
 4458,-232.9538796,-232.9530801,-232.9522634,-232.9516634,-232.9514486,
 -232.9516798,-232.9522896,-232.9530989,-232.9538785,-232.9544375,-232.
 9546563,-232.9544948,-232.9539727,-232.9531965,-232.9523616,-232.95170
 99,-232.9514488,-232.9516737,-232.9523123,-232.9531521,-232.9539364,-2
 32.9544728,-232.9546578\S2=0.755169,0.755178,0.755179,0.755175,0.75516
 7,0.755158,0.755147,0.755136,0.755127,0.755125,0.755135,0.755152,0.755
 169,0.755178,0.755179,0.755174,0.755167,0.755157,0.755147,0.755136,0.7
 55126,0.755124,0.755133,0.75515,0.755168,0.755176,0.755177,0.755173,0.
 755166,0.755158,0.755148,0.755137,0.755126,0.755125,0.755134,0.755152,
 0.755168\S2-1=0.,0.,0.,0.,0.,0.,0.,0.,0.,0.,0.,0.,0.,0.,0.,0.,0.,0.,0.
 ,0.,0.,0.,0.,0.,0.,0.,0.,0.,0.,0.,0.,0.,0.,0.,0.,0.,0.\S2A=0.75002,0.7
 5002,0.75002,0.75002,0.75002,0.75002,0.75002,0.75002,0.75002,0.75002,0
 .75002,0.75002,0.75002,0.75002,0.75002,0.75002,0.75002,0.75002,0.75002
 ,0.75002,0.75002,0.75002,0.75002,0.75002,0.75002,0.75002,0.75002,0.750
 02,0.75002,0.75002,0.75002,0.75002,0.75002,0.75002,0.75002,0.75002,0.7
 5002\RMSD=6.600e-09,5.156e-09,4.580e-09,4.164e-09,4.601e-09,6.113e-09,
 2.987e-09,7.988e-09,6.093e-09,5.360e-09,3.329e-09,3.116e-09,5.185e-09,
 4.370e-09,4.090e-09,3.192e-09,4.410e-09,4.137e-09,4.363e-09,4.695e-09,
 5.148e-09,4.484e-09,5.562e-09,4.017e-09,5.953e-09,6.582e-09,3.931e-09,
 3.575e-09,4.312e-09,4.405e-09,3.636e-09,5.240e-09,5.826e-09,9.806e-09,
 4.239e-09,8.938e-09,4.694e-09\PG=C01 [X(C4H9O1)]\\@


 YOU CAN WIPE THE SLATE CLEAN, BUT YOU'LL STILL
 HAVE TO EAT A LITTLE CHALK DUST.
 Job cpu time:       1 days  2 hours 41 minutes 54.2 seconds.
 Elapsed time:       0 days  1 hours 20 minutes 49.0 seconds.
 File lengths (MBytes):  RWF=   1376 Int=      0 D2E=      0 Chk=     32 Scr=     32
 Normal termination of Gaussian 16 at Tue Apr 23 23:08:06 2019.
