 Entering Gaussian System, Link 0=g16
 Input=JQCSUVJDBHJKNG-UHFFFAOYSA-N_12by30.0_tor13_a2.com
 Output=JQCSUVJDBHJKNG-UHFFFAOYSA-N_12by30.0_tor13_a2.log
 Initial command:
 /shared/centos7/gaussian/g16/l1.exe "/scratch/underkoffler.c/gaussian_scratch/Gau-47873.inp" -scrdir="/scratch/underkoffler.c/gaussian_scratch/"
 Entering Link 1 = /shared/centos7/gaussian/g16/l1.exe PID=     47874.
  
 Copyright (c) 1988,1990,1992,1993,1995,1998,2003,2009,2016,
            Gaussian, Inc.  All Rights Reserved.
  
 This is part of the Gaussian(R) 16 program.  It is based on
 the Gaussian(R) 09 system (copyright 2009, Gaussian, Inc.),
 the Gaussian(R) 03 system (copyright 2003, Gaussian, Inc.),
 the Gaussian(R) 98 system (copyright 1998, Gaussian, Inc.),
 the Gaussian(R) 94 system (copyright 1995, Gaussian, Inc.),
 the Gaussian 92(TM) system (copyright 1992, Gaussian, Inc.),
 the Gaussian 90(TM) system (copyright 1990, Gaussian, Inc.),
 the Gaussian 88(TM) system (copyright 1988, Gaussian, Inc.),
 the Gaussian 86(TM) system (copyright 1986, Carnegie Mellon
 University), and the Gaussian 82(TM) system (copyright 1983,
 Carnegie Mellon University). Gaussian is a federally registered
 trademark of Gaussian, Inc.
  
 This software contains proprietary and confidential information,
 including trade secrets, belonging to Gaussian, Inc.
  
 This software is provided under written license and may be
 used, copied, transmitted, or stored only in accord with that
 written license.
  
 The following legend is applicable only to US Government
 contracts under FAR:
  
                    RESTRICTED RIGHTS LEGEND
  
 Use, reproduction and disclosure by the US Government is
 subject to restrictions as set forth in subparagraphs (a)
 and (c) of the Commercial Computer Software - Restricted
 Rights clause in FAR 52.227-19.
  
 Gaussian, Inc.
 340 Quinnipiac St., Bldg. 40, Wallingford CT 06492
  
  
 ---------------------------------------------------------------
 Warning -- This program may not be used in any manner that
 competes with the business of Gaussian, Inc. or will provide
 assistance to any competitor of Gaussian, Inc.  The licensee
 of this program is prohibited from giving any competitor of
 Gaussian, Inc. access to this program.  By using this program,
 the user acknowledges that Gaussian, Inc. is engaged in the
 business of creating and licensing software in the field of
 computational chemistry and represents and warrants to the
 licensee that it is not a competitor of Gaussian, Inc. and that
 it will not use this program in any manner prohibited above.
 ---------------------------------------------------------------
  

 Cite this work as:
 Gaussian 16, Revision A.03,
 M. J. Frisch, G. W. Trucks, H. B. Schlegel, G. E. Scuseria, 
 M. A. Robb, J. R. Cheeseman, G. Scalmani, V. Barone, 
 G. A. Petersson, H. Nakatsuji, X. Li, M. Caricato, A. V. Marenich, 
 J. Bloino, B. G. Janesko, R. Gomperts, B. Mennucci, H. P. Hratchian, 
 J. V. Ortiz, A. F. Izmaylov, J. L. Sonnenberg, D. Williams-Young, 
 F. Ding, F. Lipparini, F. Egidi, J. Goings, B. Peng, A. Petrone, 
 T. Henderson, D. Ranasinghe, V. G. Zakrzewski, J. Gao, N. Rega, 
 G. Zheng, W. Liang, M. Hada, M. Ehara, K. Toyota, R. Fukuda, 
 J. Hasegawa, M. Ishida, T. Nakajima, Y. Honda, O. Kitao, H. Nakai, 
 T. Vreven, K. Throssell, J. A. Montgomery, Jr., J. E. Peralta, 
 F. Ogliaro, M. J. Bearpark, J. J. Heyd, E. N. Brothers, K. N. Kudin, 
 V. N. Staroverov, T. A. Keith, R. Kobayashi, J. Normand, 
 K. Raghavachari, A. P. Rendell, J. C. Burant, S. S. Iyengar, 
 J. Tomasi, M. Cossi, J. M. Millam, M. Klene, C. Adamo, R. Cammi, 
 J. W. Ochterski, R. L. Martin, K. Morokuma, O. Farkas, 
 J. B. Foresman, and D. J. Fox, Gaussian, Inc., Wallingford CT, 2016.
 
 ******************************************
 Gaussian 16:  EM64L-G16RevA.03 25-Dec-2016
                29-Mar-2019 
 ******************************************
 %nprocshared=20
 Will use up to   20 processors via shared memory.
 %mem=5GB
 ----------------------------------------------
 #p m062x/6-311+g(2df,2p) Opt=(CalcFC,ModRedun)
 ----------------------------------------------
 1/10=4,18=120,19=15,26=3,38=1/1,3;
 2/9=110,12=2,17=6,18=5,40=1/2;
 3/5=4,6=6,7=214,11=2,25=1,30=1,71=2,74=-55,140=1/1,2,3;
 4//1;
 5/5=2,38=5/2;
 8/6=4,10=90,11=11/1;
 11/6=1,8=1,9=11,15=111,16=1/1,2,10;
 10/6=1,13=1/2;
 6/7=2,8=2,9=2,10=2,28=1/1;
 7/10=1,18=20,25=1/1,2,3,16;
 1/10=4,18=20,19=15,26=3/3(2);
 2/9=110/2;
 99//99;
 2/9=110/2;
 3/5=4,6=6,7=214,11=2,25=1,30=1,71=1,74=-55/1,2,3;
 4/5=5,16=3,69=1/1;
 5/5=2,38=5/2;
 7//1,2,3,16;
 1/18=20,19=15,26=3/3(-5);
 2/9=110/2;
 6/7=2,8=2,9=2,10=2,19=2,28=1/1;
 99/9=1/99;
 Leave Link    1 at Fri Mar 29 10:35:14 2019, MaxMem=   671088640 cpu:              24.2 elap:               1.3
 (Enter /shared/centos7/gaussian/g16/l101.exe)
 ----------------------------------------
 Gaussian Input Prepared from Scan Object
 ----------------------------------------
 Symbolic Z-matrix:
 Charge =  0 Multiplicity = 2
 O                    -0.49167  -0.46869   0.03919 
 C                     1.86867  -0.09712   0.0057 
 C                    -1.79823   0.06058  -0.00576 
 C                     0.4955    0.45178  -0.08238 
 H                     2.0849   -0.50708   0.9996 
 H                     2.6003    0.68056  -0.20437 
 H                     2.00444  -0.90535  -0.7143 
 H                    -2.488    -0.76826   0.12397 
 H                    -1.94746   0.78687   0.79778 
 H                    -1.98288   0.54594  -0.96651 
 H                     0.26022   1.4542    0.26326 
 
 The following ModRedundant input section has been read:
 B       4      11 B                                                           
 B       3      10 B                                                           
 B       1       4 B                                                           
 B       3       8 B                                                           
 B       2       6 B                                                           
 B       2       5 B                                                           
 B       2       4 B                                                           
 B       1       3 B                                                           
 B       2       7 B                                                           
 B       3       9 B                                                           
 D       5       2       4      11 S  12 30.000                                
 
 ITRead=  0  0  0  0  0  0  0  0  0  0  0
 MicOpt= -1 -1 -1 -1 -1 -1 -1 -1 -1 -1 -1
 NAtoms=     11 NQM=       11 NQMF=       0 NMMI=      0 NMMIF=      0
                NMic=       0 NMicF=      0.
                    Isotopes and Nuclear Properties:
 (Nuclear quadrupole moments (NQMom) in fm**2, nuclear magnetic moments (NMagM)
  in nuclear magnetons)

  Atom         1           2           3           4           5           6           7           8           9          10
 IAtWgt=          16          12          12          12           1           1           1           1           1           1
 AtmWgt=  15.9949146  12.0000000  12.0000000  12.0000000   1.0078250   1.0078250   1.0078250   1.0078250   1.0078250   1.0078250
 NucSpn=           0           0           0           0           1           1           1           1           1           1
 AtZEff=  -0.0000000  -0.0000000  -0.0000000  -0.0000000  -0.0000000  -0.0000000  -0.0000000  -0.0000000  -0.0000000  -0.0000000
 NQMom=    0.0000000   0.0000000   0.0000000   0.0000000   0.0000000   0.0000000   0.0000000   0.0000000   0.0000000   0.0000000
 NMagM=    0.0000000   0.0000000   0.0000000   0.0000000   2.7928460   2.7928460   2.7928460   2.7928460   2.7928460   2.7928460
 AtZNuc=   8.0000000   6.0000000   6.0000000   6.0000000   1.0000000   1.0000000   1.0000000   1.0000000   1.0000000   1.0000000

  Atom        11
 IAtWgt=           1
 AtmWgt=   1.0078250
 NucSpn=           1
 AtZEff=  -0.0000000
 NQMom=    0.0000000
 NMagM=    2.7928460
 AtZNuc=   1.0000000
 Leave Link  101 at Fri Mar 29 10:35:15 2019, MaxMem=   671088640 cpu:               4.8 elap:               0.3
 (Enter /shared/centos7/gaussian/g16/l103.exe)

 GradGradGradGradGradGradGradGradGradGradGradGradGradGradGradGradGradGrad
 Berny optimization.
 Initialization pass.
                           ----------------------------
                           !    Initial Parameters    !
                           ! (Angstroms and Degrees)  !
 --------------------------                            --------------------------
 ! Name  Definition              Value          Derivative Info.                !
 --------------------------------------------------------------------------------
 ! R1    R(1,3)                  1.4104         calculate D2E/DX2 analytically  !
 ! R2    R(1,4)                  1.3552         calculate D2E/DX2 analytically  !
 ! R3    R(2,4)                  1.4814         calculate D2E/DX2 analytically  !
 ! R4    R(2,5)                  1.0967         calculate D2E/DX2 analytically  !
 ! R5    R(2,6)                  1.0882         calculate D2E/DX2 analytically  !
 ! R6    R(2,7)                  1.0909         calculate D2E/DX2 analytically  !
 ! R7    R(3,8)                  1.0861         calculate D2E/DX2 analytically  !
 ! R8    R(3,9)                  1.0934         calculate D2E/DX2 analytically  !
 ! R9    R(3,10)                 1.0921         calculate D2E/DX2 analytically  !
 ! R10   R(4,11)                 1.0861         calculate D2E/DX2 analytically  !
 ! A1    A(3,1,4)              114.6491         calculate D2E/DX2 analytically  !
 ! A2    A(4,2,5)              112.0343         calculate D2E/DX2 analytically  !
 ! A3    A(4,2,6)              110.2992         calculate D2E/DX2 analytically  !
 ! A4    A(4,2,7)              110.5264         calculate D2E/DX2 analytically  !
 ! A5    A(5,2,6)              108.0312         calculate D2E/DX2 analytically  !
 ! A6    A(5,2,7)              107.2571         calculate D2E/DX2 analytically  !
 ! A7    A(6,2,7)              108.5649         calculate D2E/DX2 analytically  !
 ! A8    A(1,3,8)              107.3465         calculate D2E/DX2 analytically  !
 ! A9    A(1,3,9)              110.6276         calculate D2E/DX2 analytically  !
 ! A10   A(1,3,10)             110.5753         calculate D2E/DX2 analytically  !
 ! A11   A(8,3,9)              109.4185         calculate D2E/DX2 analytically  !
 ! A12   A(8,3,10)             109.6851         calculate D2E/DX2 analytically  !
 ! A13   A(9,3,10)             109.1619         calculate D2E/DX2 analytically  !
 ! A14   A(1,4,2)              114.7211         calculate D2E/DX2 analytically  !
 ! A15   A(1,4,11)             116.1376         calculate D2E/DX2 analytically  !
 ! A16   A(2,4,11)             121.59           calculate D2E/DX2 analytically  !
 ! D1    D(4,1,3,8)           -178.7428         calculate D2E/DX2 analytically  !
 ! D2    D(4,1,3,9)            -59.4189         calculate D2E/DX2 analytically  !
 ! D3    D(4,1,3,10)            61.6402         calculate D2E/DX2 analytically  !
 ! D4    D(3,1,4,2)            178.2366         calculate D2E/DX2 analytically  !
 ! D5    D(3,1,4,11)            27.975          calculate D2E/DX2 analytically  !
 ! D6    D(5,2,4,1)            -65.5524         calculate D2E/DX2 analytically  !
 ! D7    D(5,2,4,11)            82.9285         Scan                            !
 ! D8    D(6,2,4,1)            174.0669         calculate D2E/DX2 analytically  !
 ! D9    D(6,2,4,11)           -37.4521         calculate D2E/DX2 analytically  !
 ! D10   D(7,2,4,1)             54.0029         calculate D2E/DX2 analytically  !
 ! D11   D(7,2,4,11)          -157.5162         calculate D2E/DX2 analytically  !
 --------------------------------------------------------------------------------
 Trust Radius=3.00D-01 FncErr=1.00D-07 GrdErr=1.00D-06 EigMax=2.50D+02 EigMin=1.00D-04
 Number of optimizations in scan=  13
 Number of steps in this run=     47 maximum allowed number of steps=    100.
 GradGradGradGradGradGradGradGradGradGradGradGradGradGradGradGradGradGrad

 Leave Link  103 at Fri Mar 29 10:35:15 2019, MaxMem=   671088640 cpu:               0.2 elap:               0.0
 (Enter /shared/centos7/gaussian/g16/l202.exe)
                          Input orientation:                          
 ---------------------------------------------------------------------
 Center     Atomic      Atomic             Coordinates (Angstroms)
 Number     Number       Type             X           Y           Z
 ---------------------------------------------------------------------
      1          8           0       -0.491671   -0.468688    0.039193
      2          6           0        1.868665   -0.097124    0.005696
      3          6           0       -1.798229    0.060581   -0.005759
      4          6           0        0.495497    0.451779   -0.082380
      5          1           0        2.084902   -0.507084    0.999595
      6          1           0        2.600298    0.680560   -0.204372
      7          1           0        2.004440   -0.905350   -0.714304
      8          1           0       -2.487999   -0.768259    0.123965
      9          1           0       -1.947463    0.786866    0.797782
     10          1           0       -1.982878    0.545937   -0.966510
     11          1           0        0.260218    1.454205    0.263260
 ---------------------------------------------------------------------
                    Distance matrix (angstroms):
                    1          2          3          4          5
     1  O    0.000000
     2  C    2.389638   0.000000
     3  C    1.410404   3.670301   0.000000
     4  C    1.355190   1.481433   2.328108   0.000000
     5  H    2.750014   1.096659   4.051134   2.148557   0.000000
     6  H    3.307623   1.088214   4.446444   2.120710   1.767956
     7  H    2.643672   1.090901   3.986897   2.125568   1.761403
     8  H    2.020458   4.409640   1.086088   3.229910   4.663300
     9  H    2.066689   3.996458   1.093361   2.618210   4.239694
    10  H    2.065090   4.024065   1.092112   2.633039   4.639101
    11  H    2.076791   2.249458   2.500353   1.086131   2.778186
                    6          7          8          9         10
     6  H    0.000000
     7  H    1.769235   0.000000
     8  H    5.300722   4.572034   0.000000
     9  H    4.658084   4.557141   1.778939   0.000000
    10  H    4.648062   4.250711   1.780841   1.781018   0.000000
    11  H    2.508621   3.092805   3.537152   2.367469   2.714547
                   11
    11  H    0.000000
 Stoichiometry    C3H7O(2)
 Framework group  C1[X(C3H7O)]
 Deg. of freedom    27
 Full point group                 C1      NOp   1
 Largest Abelian subgroup         C1      NOp   1
 Largest concise Abelian subgroup C1      NOp   1
                         Standard orientation:                         
 ---------------------------------------------------------------------
 Center     Atomic      Atomic             Coordinates (Angstroms)
 Number     Number       Type             X           Y           Z
 ---------------------------------------------------------------------
      1          8           0       -0.491618   -0.469341    0.036598
      2          6           0        1.868828   -0.098472    0.003149
      3          6           0       -1.798020    0.060147   -0.010254
      4          6           0        0.495839    0.450559   -0.086905
      5          1           0        2.084541   -0.505952    0.998181
      6          1           0        2.600751    0.678486   -0.208593
      7          1           0        2.004697   -0.908566   -0.714731
      8          1           0       -2.488058   -0.768182    0.121292
      9          1           0       -1.947405    0.788517    0.791369
     10          1           0       -1.982139    0.543099   -0.972317
     11          1           0        0.260674    1.453923    0.256079
 ---------------------------------------------------------------------
 Rotational constants (GHZ):          34.5786029           4.2047501           3.9431944
 Leave Link  202 at Fri Mar 29 10:35:15 2019, MaxMem=   671088640 cpu:               0.2 elap:               0.0
 (Enter /shared/centos7/gaussian/g16/l301.exe)
 Standard basis: 6-311+G(2df,2p) (5D, 7F)
 Ernie: Thresh=  0.10000D-02 Tol=  0.10000D-05 Strict=F.
 There are   219 symmetry adapted cartesian basis functions of A   symmetry.
 There are   199 symmetry adapted basis functions of A   symmetry.
   199 basis functions,   285 primitive gaussians,   219 cartesian basis functions
    17 alpha electrons       16 beta electrons
       nuclear repulsion energy       125.7650659138 Hartrees.
 IExCor= 4336 DFT=T Ex+Corr=M062X ExCW=0 ScaHFX=  0.540000
 ScaDFX=  1.000000  1.000000  1.000000  1.000000 ScalE2=  1.000000  1.000000
 IRadAn=      5 IRanWt=     -1 IRanGd=            0 ICorTp=0 IEmpDi=  4
 NAtoms=   11 NActive=   11 NUniq=   11 SFac= 1.00D+00 NAtFMM=   60 NAOKFM=F Big=F
 Integral buffers will be    131072 words long.
 Raffenetti 2 integral format.
 Two-electron integral symmetry is turned on.
 Leave Link  301 at Fri Mar 29 10:35:15 2019, MaxMem=   671088640 cpu:               0.9 elap:               0.1
 (Enter /shared/centos7/gaussian/g16/l302.exe)
 NPDir=0 NMtPBC=     1 NCelOv=     1 NCel=       1 NClECP=     1 NCelD=      1
         NCelK=      1 NCelE2=     1 NClLst=     1 CellRange=     0.0.
 One-electron integrals computed using PRISM.
 One-electron integral symmetry used in STVInt
 NBasis=   199 RedAO= T EigKep=  7.26D-05  NBF=   199
 NBsUse=   199 1.00D-06 EigRej= -1.00D+00 NBFU=   199
 Precomputing XC quadrature grid using
 IXCGrd= 4 IRadAn=           5 IRanWt=          -1 IRanGd=           0 AccXCQ= 0.00D+00.
 Generated NRdTot=       0 NPtTot=           0 NUsed=           0 NTot=          32
 NSgBfM=   219   219   219   219   219 MxSgAt=    11 MxSgA2=    11.
 Leave Link  302 at Fri Mar 29 10:35:15 2019, MaxMem=   671088640 cpu:               4.6 elap:               0.3
 (Enter /shared/centos7/gaussian/g16/l303.exe)
 DipDrv:  MaxL=1.
 Leave Link  303 at Fri Mar 29 10:35:15 2019, MaxMem=   671088640 cpu:               0.5 elap:               0.0
 (Enter /shared/centos7/gaussian/g16/l401.exe)
 ExpMin= 4.38D-02 ExpMax= 8.59D+03 ExpMxC= 1.30D+03 IAcc=3 IRadAn=         5 AccDes= 0.00D+00
 Harris functional with IExCor= 1009 and IRadAn=       5 diagonalized for initial guess.
 HarFok:  IExCor= 1009 AccDes= 0.00D+00 IRadAn=         5 IDoV= 1 UseB2=F ITyADJ=14
 ICtDFT=  3500011 ScaDFX=  1.000000  1.000000  1.000000  1.000000
 FoFCou: FMM=F IPFlag=           0 FMFlag=      100000 FMFlg1=           0
         NFxFlg=           0 DoJE=T BraDBF=F KetDBF=T FulRan=T
         wScrn=  0.000000 ICntrl=       500 IOpCl=  0 I1Cent=   200000004 NGrid=           0
         NMat0=    1 NMatS0=      1 NMatT0=    0 NMatD0=    1 NMtDS0=    0 NMtDT0=    0
 Petite list used in FoFCou.
 Harris En= -193.585025565778    
 JPrj=0 DoOrth=F DoCkMO=F.
 Initial guess <Sx>= 0.0000 <Sy>= 0.0000 <Sz>= 0.5000 <S**2>= 0.7500 S= 0.5000
 Leave Link  401 at Fri Mar 29 10:35:16 2019, MaxMem=   671088640 cpu:              12.7 elap:               0.7
 (Enter /shared/centos7/gaussian/g16/l502.exe)
 Keep R1 and R2 ints in memory in canonical form, NReq=416958841.
 FoFCou: FMM=F IPFlag=           0 FMFlag=           0 FMFlg1=           0
         NFxFlg=           0 DoJE=F BraDBF=F KetDBF=F FulRan=T
         wScrn=  0.000000 ICntrl=       600 IOpCl=  0 I1Cent=           0 NGrid=           0
         NMat0=    1 NMatS0=  19900 NMatT0=    0 NMatD0=    1 NMtDS0=    0 NMtDT0=    0
 Symmetry not used in FoFCou.
 Two-electron integral symmetry not used.
 UHF open shell SCF:
 Using DIIS extrapolation, IDIIS=  1040.
 NGot=   671088640 LenX=   274956345 LenY=   274907943
 Requested convergence on RMS density matrix=1.00D-08 within 128 cycles.
 Requested convergence on MAX density matrix=1.00D-06.
 Requested convergence on             energy=1.00D-06.
 No special actions if energy rises.

 Cycle   1  Pass 1  IDiag  1:
 E= -193.522041761261    
 DIIS: error= 3.49D-02 at cycle   1 NSaved=   1.
 NSaved= 1 IEnMin= 1 EnMin= -193.522041761261     IErMin= 1 ErrMin= 3.49D-02
 ErrMax= 3.49D-02  0.00D+00 EMaxC= 1.00D-01 BMatC= 6.34D-01 BMatP= 6.34D-01
 IDIUse=3 WtCom= 6.51D-01 WtEn= 3.49D-01
 Coeff-Com:  0.100D+01
 Coeff-En:   0.100D+01
 Coeff:      0.100D+01
 Gap=     0.235 Goal=   None    Shift=    0.000
 Gap=     0.396 Goal=   None    Shift=    0.000
 GapD=    0.235 DampG=1.000 DampE=0.500 DampFc=0.5000 IDamp=-1.
 Damping current iteration by 5.00D-01
 RMSDP=2.57D-03 MaxDP=1.13D-01              OVMax= 1.48D-01

 Cycle   2  Pass 1  IDiag  1:
 E= -193.592701196423     Delta-E=       -0.070659435162 Rises=F Damp=T
 DIIS: error= 5.61D-03 at cycle   2 NSaved=   2.
 NSaved= 2 IEnMin= 2 EnMin= -193.592701196423     IErMin= 2 ErrMin= 5.61D-03
 ErrMax= 5.61D-03  0.00D+00 EMaxC= 1.00D-01 BMatC= 4.73D-02 BMatP= 6.34D-01
 IDIUse=3 WtCom= 9.44D-01 WtEn= 5.61D-02
 Coeff-Com: -0.181D+00 0.118D+01
 Coeff-En:   0.000D+00 0.100D+01
 Coeff:     -0.171D+00 0.117D+01
 Gap=     0.242 Goal=   None    Shift=    0.000
 Gap=     0.403 Goal=   None    Shift=    0.000
 RMSDP=7.78D-04 MaxDP=3.61D-02 DE=-7.07D-02 OVMax= 7.34D-02

 Cycle   3  Pass 1  IDiag  1:
 E= -193.655386062656     Delta-E=       -0.062684866233 Rises=F Damp=F
 DIIS: error= 2.01D-03 at cycle   3 NSaved=   3.
 NSaved= 3 IEnMin= 3 EnMin= -193.655386062656     IErMin= 3 ErrMin= 2.01D-03
 ErrMax= 2.01D-03  0.00D+00 EMaxC= 1.00D-01 BMatC= 3.73D-03 BMatP= 4.73D-02
 IDIUse=3 WtCom= 9.80D-01 WtEn= 2.01D-02
 Coeff-Com: -0.734D-01 0.210D+00 0.863D+00
 Coeff-En:   0.000D+00 0.000D+00 0.100D+01
 Coeff:     -0.719D-01 0.206D+00 0.866D+00
 Gap=     0.236 Goal=   None    Shift=    0.000
 Gap=     0.366 Goal=   None    Shift=    0.000
 RMSDP=1.42D-04 MaxDP=5.13D-03 DE=-6.27D-02 OVMax= 1.08D-02

 Cycle   4  Pass 1  IDiag  1:
 E= -193.656247186419     Delta-E=       -0.000861123763 Rises=F Damp=F
 DIIS: error= 8.92D-04 at cycle   4 NSaved=   4.
 NSaved= 4 IEnMin= 4 EnMin= -193.656247186419     IErMin= 4 ErrMin= 8.92D-04
 ErrMax= 8.92D-04  0.00D+00 EMaxC= 1.00D-01 BMatC= 9.29D-04 BMatP= 3.73D-03
 IDIUse=3 WtCom= 9.91D-01 WtEn= 8.92D-03
 Coeff-Com: -0.237D-01 0.539D-01 0.371D+00 0.599D+00
 Coeff-En:   0.000D+00 0.000D+00 0.000D+00 0.100D+01
 Coeff:     -0.235D-01 0.534D-01 0.367D+00 0.603D+00
 Gap=     0.239 Goal=   None    Shift=    0.000
 Gap=     0.368 Goal=   None    Shift=    0.000
 RMSDP=6.31D-05 MaxDP=2.32D-03 DE=-8.61D-04 OVMax= 7.68D-03

 Cycle   5  Pass 1  IDiag  1:
 E= -193.656461920752     Delta-E=       -0.000214734332 Rises=F Damp=F
 DIIS: error= 4.17D-04 at cycle   5 NSaved=   5.
 NSaved= 5 IEnMin= 5 EnMin= -193.656461920752     IErMin= 5 ErrMin= 4.17D-04
 ErrMax= 4.17D-04  0.00D+00 EMaxC= 1.00D-01 BMatC= 1.63D-04 BMatP= 9.29D-04
 IDIUse=3 WtCom= 9.96D-01 WtEn= 4.17D-03
 Coeff-Com:  0.515D-02-0.204D-01-0.218D-01 0.240D+00 0.797D+00
 Coeff-En:   0.000D+00 0.000D+00 0.000D+00 0.000D+00 0.100D+01
 Coeff:      0.513D-02-0.204D-01-0.217D-01 0.239D+00 0.798D+00
 Gap=     0.240 Goal=   None    Shift=    0.000
 Gap=     0.368 Goal=   None    Shift=    0.000
 RMSDP=4.40D-05 MaxDP=1.91D-03 DE=-2.15D-04 OVMax= 4.14D-03

 Cycle   6  Pass 1  IDiag  1:
 E= -193.656522868771     Delta-E=       -0.000060948020 Rises=F Damp=F
 DIIS: error= 2.32D-04 at cycle   6 NSaved=   6.
 NSaved= 6 IEnMin= 6 EnMin= -193.656522868771     IErMin= 6 ErrMin= 2.32D-04
 ErrMax= 2.32D-04  0.00D+00 EMaxC= 1.00D-01 BMatC= 2.03D-05 BMatP= 1.63D-04
 IDIUse=3 WtCom= 9.98D-01 WtEn= 2.32D-03
 Coeff-Com:  0.606D-02-0.144D-01-0.918D-01-0.714D-01 0.686D-01 0.110D+01
 Coeff-En:   0.000D+00 0.000D+00 0.000D+00 0.000D+00 0.000D+00 0.100D+01
 Coeff:      0.605D-02-0.143D-01-0.916D-01-0.712D-01 0.685D-01 0.110D+01
 Gap=     0.240 Goal=   None    Shift=    0.000
 Gap=     0.369 Goal=   None    Shift=    0.000
 RMSDP=3.07D-05 MaxDP=1.30D-03 DE=-6.09D-05 OVMax= 4.87D-03

 Cycle   7  Pass 1  IDiag  1:
 E= -193.656542279346     Delta-E=       -0.000019410575 Rises=F Damp=F
 DIIS: error= 8.08D-05 at cycle   7 NSaved=   7.
 NSaved= 7 IEnMin= 7 EnMin= -193.656542279346     IErMin= 7 ErrMin= 8.08D-05
 ErrMax= 8.08D-05  0.00D+00 EMaxC= 1.00D-01 BMatC= 8.00D-06 BMatP= 2.03D-05
 IDIUse=1 WtCom= 1.00D+00 WtEn= 0.00D+00
 Coeff-Com:  0.103D-02-0.103D-02-0.333D-01-0.767D-01-0.173D+00 0.494D+00
 Coeff-Com:  0.789D+00
 Coeff:      0.103D-02-0.103D-02-0.333D-01-0.767D-01-0.173D+00 0.494D+00
 Coeff:      0.789D+00
 Gap=     0.241 Goal=   None    Shift=    0.000
 Gap=     0.369 Goal=   None    Shift=    0.000
 RMSDP=1.39D-05 MaxDP=5.63D-04 DE=-1.94D-05 OVMax= 1.59D-03

 Cycle   8  Pass 1  IDiag  1:
 E= -193.656545869757     Delta-E=       -0.000003590411 Rises=F Damp=F
 DIIS: error= 2.31D-05 at cycle   8 NSaved=   8.
 NSaved= 8 IEnMin= 8 EnMin= -193.656545869757     IErMin= 8 ErrMin= 2.31D-05
 ErrMax= 2.31D-05  0.00D+00 EMaxC= 1.00D-01 BMatC= 2.77D-07 BMatP= 8.00D-06
 IDIUse=1 WtCom= 1.00D+00 WtEn= 0.00D+00
 Coeff-Com: -0.109D-02 0.238D-02 0.162D-01 0.181D-01 0.763D-02-0.178D+00
 Coeff-Com: -0.856D-01 0.122D+01
 Coeff:     -0.109D-02 0.238D-02 0.162D-01 0.181D-01 0.763D-02-0.178D+00
 Coeff:     -0.856D-01 0.122D+01
 Gap=     0.241 Goal=   None    Shift=    0.000
 Gap=     0.369 Goal=   None    Shift=    0.000
 RMSDP=3.70D-06 MaxDP=1.67D-04 DE=-3.59D-06 OVMax= 5.59D-04

 Cycle   9  Pass 1  IDiag  1:
 E= -193.656546112456     Delta-E=       -0.000000242700 Rises=F Damp=F
 DIIS: error= 5.52D-06 at cycle   9 NSaved=   9.
 NSaved= 9 IEnMin= 9 EnMin= -193.656546112456     IErMin= 9 ErrMin= 5.52D-06
 ErrMax= 5.52D-06  0.00D+00 EMaxC= 1.00D-01 BMatC= 2.66D-08 BMatP= 2.77D-07
 IDIUse=1 WtCom= 1.00D+00 WtEn= 0.00D+00
 Coeff-Com: -0.152D-03 0.298D-03 0.393D-02 0.711D-02 0.989D-02-0.509D-01
 Coeff-Com: -0.666D-01 0.136D+00 0.961D+00
 Coeff:     -0.152D-03 0.298D-03 0.393D-02 0.711D-02 0.989D-02-0.509D-01
 Coeff:     -0.666D-01 0.136D+00 0.961D+00
 Gap=     0.241 Goal=   None    Shift=    0.000
 Gap=     0.369 Goal=   None    Shift=    0.000
 RMSDP=7.46D-07 MaxDP=3.52D-05 DE=-2.43D-07 OVMax= 1.11D-04

 Cycle  10  Pass 1  IDiag  1:
 E= -193.656546126966     Delta-E=       -0.000000014510 Rises=F Damp=F
 DIIS: error= 2.88D-06 at cycle  10 NSaved=  10.
 NSaved=10 IEnMin=10 EnMin= -193.656546126966     IErMin=10 ErrMin= 2.88D-06
 ErrMax= 2.88D-06  0.00D+00 EMaxC= 1.00D-01 BMatC= 4.83D-09 BMatP= 2.66D-08
 IDIUse=1 WtCom= 1.00D+00 WtEn= 0.00D+00
 Coeff-Com:  0.948D-04-0.207D-03-0.722D-03 0.208D-03 0.162D-02 0.715D-02
 Coeff-Com: -0.100D-01-0.105D+00 0.262D+00 0.845D+00
 Coeff:      0.948D-04-0.207D-03-0.722D-03 0.208D-03 0.162D-02 0.715D-02
 Coeff:     -0.100D-01-0.105D+00 0.262D+00 0.845D+00
 Gap=     0.241 Goal=   None    Shift=    0.000
 Gap=     0.369 Goal=   None    Shift=    0.000
 RMSDP=2.55D-07 MaxDP=8.09D-06 DE=-1.45D-08 OVMax= 2.43D-05

 Cycle  11  Pass 1  IDiag  1:
 E= -193.656546128831     Delta-E=       -0.000000001865 Rises=F Damp=F
 DIIS: error= 1.12D-06 at cycle  11 NSaved=  11.
 NSaved=11 IEnMin=11 EnMin= -193.656546128831     IErMin=11 ErrMin= 1.12D-06
 ErrMax= 1.12D-06  0.00D+00 EMaxC= 1.00D-01 BMatC= 5.39D-10 BMatP= 4.83D-09
 IDIUse=1 WtCom= 1.00D+00 WtEn= 0.00D+00
 Coeff-Com:  0.361D-04-0.778D-04-0.612D-03-0.775D-03-0.102D-02 0.769D-02
 Coeff-Com:  0.579D-02-0.379D-01-0.784D-01 0.196D+00 0.909D+00
 Coeff:      0.361D-04-0.778D-04-0.612D-03-0.775D-03-0.102D-02 0.769D-02
 Coeff:      0.579D-02-0.379D-01-0.784D-01 0.196D+00 0.909D+00
 Gap=     0.241 Goal=   None    Shift=    0.000
 Gap=     0.369 Goal=   None    Shift=    0.000
 RMSDP=9.87D-08 MaxDP=3.48D-06 DE=-1.86D-09 OVMax= 7.79D-06

 Cycle  12  Pass 1  IDiag  1:
 E= -193.656546129054     Delta-E=       -0.000000000223 Rises=F Damp=F
 DIIS: error= 1.55D-07 at cycle  12 NSaved=  12.
 NSaved=12 IEnMin=12 EnMin= -193.656546129054     IErMin=12 ErrMin= 1.55D-07
 ErrMax= 1.55D-07  0.00D+00 EMaxC= 1.00D-01 BMatC= 2.40D-11 BMatP= 5.39D-10
 IDIUse=1 WtCom= 1.00D+00 WtEn= 0.00D+00
 Coeff-Com: -0.752D-05 0.152D-04 0.431D-04 0.317D-05-0.449D-04-0.397D-03
 Coeff-Com:  0.557D-03 0.731D-02-0.233D-01-0.545D-01 0.259D-01 0.104D+01
 Coeff:     -0.752D-05 0.152D-04 0.431D-04 0.317D-05-0.449D-04-0.397D-03
 Coeff:      0.557D-03 0.731D-02-0.233D-01-0.545D-01 0.259D-01 0.104D+01
 Gap=     0.241 Goal=   None    Shift=    0.000
 Gap=     0.369 Goal=   None    Shift=    0.000
 RMSDP=3.57D-08 MaxDP=9.56D-07 DE=-2.23D-10 OVMax= 2.28D-06

 Cycle  13  Pass 1  IDiag  1:
 E= -193.656546129068     Delta-E=       -0.000000000015 Rises=F Damp=F
 DIIS: error= 4.03D-08 at cycle  13 NSaved=  13.
 NSaved=13 IEnMin=13 EnMin= -193.656546129068     IErMin=13 ErrMin= 4.03D-08
 ErrMax= 4.03D-08  0.00D+00 EMaxC= 1.00D-01 BMatC= 1.60D-12 BMatP= 2.40D-11
 IDIUse=1 WtCom= 1.00D+00 WtEn= 0.00D+00
 Coeff-Com: -0.184D-05 0.410D-05 0.309D-04 0.349D-04 0.450D-04-0.385D-03
 Coeff-Com: -0.324D-03 0.227D-02 0.394D-02-0.128D-01-0.584D-01-0.109D-01
 Coeff-Com:  0.108D+01
 Coeff:     -0.184D-05 0.410D-05 0.309D-04 0.349D-04 0.450D-04-0.385D-03
 Coeff:     -0.324D-03 0.227D-02 0.394D-02-0.128D-01-0.584D-01-0.109D-01
 Coeff:      0.108D+01
 Gap=     0.241 Goal=   None    Shift=    0.000
 Gap=     0.369 Goal=   None    Shift=    0.000
 RMSDP=9.01D-09 MaxDP=3.17D-07 DE=-1.46D-11 OVMax= 6.52D-07

 SCF Done:  E(UM062X) =  -193.656546129     A.U. after   13 cycles
            NFock= 13  Conv=0.90D-08     -V/T= 2.0037
 <Sx>= 0.0000 <Sy>= 0.0000 <Sz>= 0.5000 <S**2>= 0.7543 S= 0.5022
 <L.S>= 0.000000000000E+00
 KE= 1.929334244656D+02 PE=-7.034076073805D+02 EE= 1.910525708721D+02
 Annihilation of the first spin contaminant:
 S**2 before annihilation     0.7543,   after     0.7500
 Leave Link  502 at Fri Mar 29 10:35:45 2019, MaxMem=   671088640 cpu:             389.0 elap:              28.7
 (Enter /shared/centos7/gaussian/g16/l801.exe)
 DoSCS=F DFT=T ScalE2(SS,OS)=  1.000000  1.000000
 Range of M.O.s used for correlation:     1   199
 NBasis=   199 NAE=    17 NBE=    16 NFC=     0 NFV=     0
 NROrb=    199 NOA=    17 NOB=    16 NVA=   182 NVB=   183

 **** Warning!!: The largest alpha MO coefficient is  0.30318716D+02


 **** Warning!!: The largest beta MO coefficient is  0.39753871D+02

 Leave Link  801 at Fri Mar 29 10:35:45 2019, MaxMem=   671088640 cpu:               0.4 elap:               0.0
 (Enter /shared/centos7/gaussian/g16/l1101.exe)
 Using compressed storage, NAtomX=    11.
 Will process     12 centers per pass.
 Leave Link 1101 at Fri Mar 29 10:35:45 2019, MaxMem=   671088640 cpu:               5.1 elap:               0.3
 (Enter /shared/centos7/gaussian/g16/l1102.exe)
 Symmetrizing basis deriv contribution to polar:
 IMax=3 JMax=2 DiffMx= 0.00D+00
 Leave Link 1102 at Fri Mar 29 10:35:45 2019, MaxMem=   671088640 cpu:               0.5 elap:               0.0
 (Enter /shared/centos7/gaussian/g16/l1110.exe)
 Forming Gx(P) for the SCF density, NAtomX=    11.
 Integral derivatives from FoFJK, PRISM(SPDF).
 Do as many integral derivatives as possible in FoFJK.
 G2DrvN: MDV=     671087712.
 G2DrvN: will do    12 centers at a time, making    1 passes.
 Calling FoFCou, ICntrl=  3107 FMM=F I1Cent=   0 AccDes= 0.00D+00.
 FoFJK:  IHMeth= 1 ICntrl=    3107 DoSepK=F KAlg= 0 I1Cent=           0 FoldK=F
 IRaf=         0 NMat=       1 IRICut=       1 DoRegI=T DoRafI=F ISym2E= 0 IDoP0=0 IntGTp=1.
 FoFCou: FMM=F IPFlag=           0 FMFlag=      100000 FMFlg1=           0
         NFxFlg=           0 DoJE=F BraDBF=F KetDBF=F FulRan=T
         wScrn=  0.000000 ICntrl=      3107 IOpCl=  1 I1Cent=           0 NGrid=           0
         NMat0=    1 NMatS0=      1 NMatT0=    0 NMatD0=    1 NMtDS0=    0 NMtDT0=    0
 Symmetry not used in FoFCou.
 End of G2Drv F.D. properties file   721 does not exist.
 End of G2Drv F.D. properties file   722 does not exist.
 End of G2Drv F.D. properties file   788 does not exist.
 Leave Link 1110 at Fri Mar 29 10:36:23 2019, MaxMem=   671088640 cpu:             766.5 elap:              38.4
 (Enter /shared/centos7/gaussian/g16/l1002.exe)
 Minotr:  UHF open shell wavefunction.
          IDoAtm=11111111111
          Direct CPHF calculation.
          Differentiating once with respect to nuclear coordinates.
          Requested convergence is 1.0D-08 RMS, and 1.0D-07 maximum.
          Secondary convergence is 1.0D-12 RMS, and 1.0D-12 maximum.
          NewPWx=T KeepS1=F KeepF1=F KeepIn=T MapXYZ=F SortEE=F KeepMc=T.
         3349 words used for storage of precomputed grid.
 Keep R1 and R2 ints in memory in canonical form, NReq=416899978.
 FoFCou: FMM=F IPFlag=           0 FMFlag=           0 FMFlg1=           0
         NFxFlg=           0 DoJE=F BraDBF=F KetDBF=F FulRan=T
         wScrn=  0.000000 ICntrl=       600 IOpCl=  0 I1Cent=           0 NGrid=           0
         NMat0=    1 NMatS0=  19900 NMatT0=    0 NMatD0=    1 NMtDS0=    0 NMtDT0=    0
 Symmetry not used in FoFCou.
 Two-electron integral symmetry not used.
          MDV=     671088640 using IRadAn=       1.
          Solving linear equations simultaneously, MaxMat=       0.
          There are    36 degrees of freedom in the 1st order CPHF.  IDoFFX=6 NUNeed=     0.
     30 vectors produced by pass  0 Test12= 1.67D-14 2.78D-09 XBig12= 1.46D-01 6.71D-02.
 AX will form    30 AO Fock derivatives at one time.
     30 vectors produced by pass  1 Test12= 1.67D-14 2.78D-09 XBig12= 8.72D-03 2.49D-02.
     30 vectors produced by pass  2 Test12= 1.67D-14 2.78D-09 XBig12= 4.30D-04 4.43D-03.
     30 vectors produced by pass  3 Test12= 1.67D-14 2.78D-09 XBig12= 5.82D-06 3.65D-04.
     30 vectors produced by pass  4 Test12= 1.67D-14 2.78D-09 XBig12= 9.07D-08 3.49D-05.
     30 vectors produced by pass  5 Test12= 1.67D-14 2.78D-09 XBig12= 1.17D-09 3.25D-06.
     30 vectors produced by pass  6 Test12= 1.67D-14 2.78D-09 XBig12= 9.50D-12 3.55D-07.
     12 vectors produced by pass  7 Test12= 1.67D-14 2.78D-09 XBig12= 7.12D-14 2.70D-08.
 InvSVY:  IOpt=1 It=  1 EMax= 1.78D-15
 Solved reduced A of dimension   222 with    30 vectors.
 End of Minotr F.D. properties file   721 does not exist.
 End of Minotr F.D. properties file   722 does not exist.
 End of Minotr F.D. properties file   788 does not exist.
 Leave Link 1002 at Fri Mar 29 10:37:13 2019, MaxMem=   671088640 cpu:             995.9 elap:              49.8
 (Enter /shared/centos7/gaussian/g16/l601.exe)
 Copying SCF densities to generalized density rwf, IOpCl= 1 IROHF=0.

 **********************************************************************

            Population analysis using the SCF density.

 **********************************************************************

 Orbital symmetries:
 Alpha Orbitals:
       Occupied  (A) (A) (A) (A) (A) (A) (A) (A) (A) (A) (A) (A)
                 (A) (A) (A) (A) (A)
       Virtual   (A) (A) (A) (A) (A) (A) (A) (A) (A) (A) (A) (A)
                 (A) (A) (A) (A) (A) (A) (A) (A) (A) (A) (A) (A)
                 (A) (A) (A) (A) (A) (A) (A) (A) (A) (A) (A) (A)
                 (A) (A) (A) (A) (A) (A) (A) (A) (A) (A) (A) (A)
                 (A) (A) (A) (A) (A) (A) (A) (A) (A) (A) (A) (A)
                 (A) (A) (A) (A) (A) (A) (A) (A) (A) (A) (A) (A)
                 (A) (A) (A) (A) (A) (A) (A) (A) (A) (A) (A) (A)
                 (A) (A) (A) (A) (A) (A) (A) (A) (A) (A) (A) (A)
                 (A) (A) (A) (A) (A) (A) (A) (A) (A) (A) (A) (A)
                 (A) (A) (A) (A) (A) (A) (A) (A) (A) (A) (A) (A)
                 (A) (A) (A) (A) (A) (A) (A) (A) (A) (A) (A) (A)
                 (A) (A) (A) (A) (A) (A) (A) (A) (A) (A) (A) (A)
                 (A) (A) (A) (A) (A) (A) (A) (A) (A) (A) (A) (A)
                 (A) (A) (A) (A) (A) (A) (A) (A) (A) (A) (A) (A)
                 (A) (A) (A) (A) (A) (A) (A) (A) (A) (A) (A) (A)
                 (A) (A)
 Beta  Orbitals:
       Occupied  (A) (A) (A) (A) (A) (A) (A) (A) (A) (A) (A) (A)
                 (A) (A) (A) (A)
       Virtual   (A) (A) (A) (A) (A) (A) (A) (A) (A) (A) (A) (A)
                 (A) (A) (A) (A) (A) (A) (A) (A) (A) (A) (A) (A)
                 (A) (A) (A) (A) (A) (A) (A) (A) (A) (A) (A) (A)
                 (A) (A) (A) (A) (A) (A) (A) (A) (A) (A) (A) (A)
                 (A) (A) (A) (A) (A) (A) (A) (A) (A) (A) (A) (A)
                 (A) (A) (A) (A) (A) (A) (A) (A) (A) (A) (A) (A)
                 (A) (A) (A) (A) (A) (A) (A) (A) (A) (A) (A) (A)
                 (A) (A) (A) (A) (A) (A) (A) (A) (A) (A) (A) (A)
                 (A) (A) (A) (A) (A) (A) (A) (A) (A) (A) (A) (A)
                 (A) (A) (A) (A) (A) (A) (A) (A) (A) (A) (A) (A)
                 (A) (A) (A) (A) (A) (A) (A) (A) (A) (A) (A) (A)
                 (A) (A) (A) (A) (A) (A) (A) (A) (A) (A) (A) (A)
                 (A) (A) (A) (A) (A) (A) (A) (A) (A) (A) (A) (A)
                 (A) (A) (A) (A) (A) (A) (A) (A) (A) (A) (A) (A)
                 (A) (A) (A) (A) (A) (A) (A) (A) (A) (A) (A) (A)
                 (A) (A) (A)
 The electronic state is 2-A.
 Alpha  occ. eigenvalues --  -19.64973 -10.58346 -10.57739 -10.52558  -1.19023
 Alpha  occ. eigenvalues --   -0.86378  -0.78125  -0.68317  -0.57985  -0.55380
 Alpha  occ. eigenvalues --   -0.54130  -0.48226  -0.45279  -0.44364  -0.41035
 Alpha  occ. eigenvalues --   -0.39503  -0.21936
 Alpha virt. eigenvalues --    0.02127   0.03119   0.04369   0.05103   0.05645
 Alpha virt. eigenvalues --    0.07027   0.07620   0.09350   0.10248   0.12166
 Alpha virt. eigenvalues --    0.14874   0.15717   0.18482   0.18878   0.19824
 Alpha virt. eigenvalues --    0.21646   0.21763   0.23473   0.24625   0.25238
 Alpha virt. eigenvalues --    0.28440   0.28837   0.30399   0.32579   0.36401
 Alpha virt. eigenvalues --    0.37287   0.42763   0.43990   0.45402   0.47360
 Alpha virt. eigenvalues --    0.50206   0.52081   0.53700   0.54778   0.56640
 Alpha virt. eigenvalues --    0.57822   0.58640   0.59739   0.60507   0.62623
 Alpha virt. eigenvalues --    0.64458   0.65680   0.68613   0.71206   0.74366
 Alpha virt. eigenvalues --    0.78368   0.79068   0.82926   0.86481   0.89477
 Alpha virt. eigenvalues --    0.91901   0.92558   0.96188   0.98499   1.01062
 Alpha virt. eigenvalues --    1.04026   1.05783   1.07624   1.11955   1.13094
 Alpha virt. eigenvalues --    1.14106   1.16727   1.17877   1.20605   1.23356
 Alpha virt. eigenvalues --    1.24701   1.27907   1.30433   1.31208   1.34836
 Alpha virt. eigenvalues --    1.37396   1.38019   1.40672   1.42059   1.43369
 Alpha virt. eigenvalues --    1.44121   1.46020   1.49507   1.50928   1.53414
 Alpha virt. eigenvalues --    1.57684   1.59123   1.62783   1.69153   1.73992
 Alpha virt. eigenvalues --    1.97118   2.00772   2.14587   2.25059   2.34829
 Alpha virt. eigenvalues --    2.39238   2.43632   2.44548   2.52117   2.54796
 Alpha virt. eigenvalues --    2.58528   2.65855   2.77693   2.83271   2.86655
 Alpha virt. eigenvalues --    2.88553   2.96122   2.96809   3.00400   3.04675
 Alpha virt. eigenvalues --    3.06923   3.08340   3.10126   3.12541   3.13701
 Alpha virt. eigenvalues --    3.14418   3.16592   3.18811   3.24464   3.29155
 Alpha virt. eigenvalues --    3.31411   3.33488   3.33888   3.38492   3.42561
 Alpha virt. eigenvalues --    3.45324   3.45743   3.49429   3.51431   3.54013
 Alpha virt. eigenvalues --    3.56792   3.60385   3.64839   3.68258   3.74819
 Alpha virt. eigenvalues --    3.79685   3.85608   3.87071   3.89289   3.91996
 Alpha virt. eigenvalues --    3.96597   3.98086   4.00038   4.08185   4.08879
 Alpha virt. eigenvalues --    4.12454   4.15056   4.19223   4.22712   4.23177
 Alpha virt. eigenvalues --    4.26851   4.29786   4.32025   4.35231   4.37621
 Alpha virt. eigenvalues --    4.41913   4.45850   4.50757   4.55095   4.66759
 Alpha virt. eigenvalues --    4.69435   4.92965   5.13433   5.18448   5.27230
 Alpha virt. eigenvalues --    5.29336   5.46767   5.48458   5.56760   5.57057
 Alpha virt. eigenvalues --    5.62166   5.62913   5.68947   5.82541   5.88048
 Alpha virt. eigenvalues --    6.29037   6.46958   6.77936   7.11992   7.20111
 Alpha virt. eigenvalues --    7.27955   7.69531   7.73115  24.33932  24.43291
 Alpha virt. eigenvalues --   24.53968  50.16566
  Beta  occ. eigenvalues --  -19.64618 -10.58351 -10.57013 -10.52604  -1.17806
  Beta  occ. eigenvalues --   -0.85086  -0.77874  -0.66382  -0.57041  -0.53665
  Beta  occ. eigenvalues --   -0.53068  -0.46794  -0.45072  -0.43818  -0.40061
  Beta  occ. eigenvalues --   -0.37306
  Beta virt. eigenvalues --   -0.00438   0.01985   0.03040   0.04093   0.05168
  Beta virt. eigenvalues --    0.05505   0.06959   0.07539   0.09139   0.09710
  Beta virt. eigenvalues --    0.12368   0.13678   0.14782   0.18219   0.18837
  Beta virt. eigenvalues --    0.19888   0.21510   0.21883   0.24066   0.24567
  Beta virt. eigenvalues --    0.25371   0.28313   0.28651   0.30968   0.33586
  Beta virt. eigenvalues --    0.36542   0.37319   0.43001   0.43977   0.45615
  Beta virt. eigenvalues --    0.47401   0.50646   0.52424   0.53539   0.54879
  Beta virt. eigenvalues --    0.56432   0.57541   0.58840   0.60496   0.61212
  Beta virt. eigenvalues --    0.62862   0.64605   0.65861   0.68545   0.71488
  Beta virt. eigenvalues --    0.74625   0.78334   0.79065   0.83112   0.86336
  Beta virt. eigenvalues --    0.88968   0.91854   0.92173   0.96181   0.98190
  Beta virt. eigenvalues --    1.01273   1.04209   1.05757   1.08046   1.12008
  Beta virt. eigenvalues --    1.13057   1.13940   1.16637   1.17775   1.20806
  Beta virt. eigenvalues --    1.23837   1.24417   1.27584   1.30928   1.31686
  Beta virt. eigenvalues --    1.35339   1.37666   1.38211   1.40705   1.42151
  Beta virt. eigenvalues --    1.43086   1.44276   1.45908   1.49835   1.50778
  Beta virt. eigenvalues --    1.53719   1.57563   1.59000   1.62730   1.69062
  Beta virt. eigenvalues --    1.74646   1.97973   2.01156   2.15114   2.25554
  Beta virt. eigenvalues --    2.35514   2.39555   2.44152   2.45319   2.52574
  Beta virt. eigenvalues --    2.55379   2.59144   2.66725   2.81016   2.86406
  Beta virt. eigenvalues --    2.89945   2.90969   2.96661   2.97360   3.02616
  Beta virt. eigenvalues --    3.05889   3.07942   3.08808   3.11889   3.13060
  Beta virt. eigenvalues --    3.14886   3.15367   3.16894   3.19677   3.25749
  Beta virt. eigenvalues --    3.30559   3.33854   3.34966   3.36309   3.40177
  Beta virt. eigenvalues --    3.45384   3.45704   3.48064   3.51195   3.51984
  Beta virt. eigenvalues --    3.55328   3.58538   3.61804   3.67405   3.70584
  Beta virt. eigenvalues --    3.75809   3.80968   3.85733   3.87356   3.89914
  Beta virt. eigenvalues --    3.92280   3.97651   3.99517   4.01130   4.09051
  Beta virt. eigenvalues --    4.09694   4.13434   4.15222   4.19804   4.23009
  Beta virt. eigenvalues --    4.24348   4.28427   4.29960   4.32210   4.36332
  Beta virt. eigenvalues --    4.37926   4.42026   4.46338   4.51849   4.56554
  Beta virt. eigenvalues --    4.70556   4.72300   4.93124   5.16034   5.19850
  Beta virt. eigenvalues --    5.27842   5.29975   5.47869   5.50553   5.56729
  Beta virt. eigenvalues --    5.57301   5.62113   5.63654   5.69641   5.83383
  Beta virt. eigenvalues --    5.88827   6.29407   6.47306   6.78614   7.12768
  Beta virt. eigenvalues --    7.20991   7.28893   7.69881   7.73055  24.34374
  Beta virt. eigenvalues --   24.43273  24.54948  50.16326
          Condensed to atoms (all electrons):
               1          2          3          4          5          6
     1  O    8.195011  -0.106008   0.150403   0.047948   0.002219   0.010852
     2  C   -0.106008   5.075141  -0.034291   0.325594   0.399966   0.422809
     3  C    0.150403  -0.034291   4.931454  -0.103934   0.000903   0.001675
     4  C    0.047948   0.325594  -0.103934   5.570175  -0.045502  -0.048296
     5  H    0.002219   0.399966   0.000903  -0.045502   0.586865  -0.030005
     6  H    0.010852   0.422809   0.001675  -0.048296  -0.030005   0.542085
     7  H   -0.000633   0.408199   0.001138  -0.049706  -0.042341  -0.022687
     8  H   -0.054764   0.002635   0.422476   0.014565   0.000038   0.000008
     9  H   -0.047588  -0.001036   0.432552  -0.008325  -0.000310   0.000019
    10  H   -0.041278  -0.006364   0.434689   0.006893   0.000079   0.000013
    11  H   -0.043629  -0.033502   0.010251   0.401848  -0.002455  -0.004624
               7          8          9         10         11
     1  O   -0.000633  -0.054764  -0.047588  -0.041278  -0.043629
     2  C    0.408199   0.002635  -0.001036  -0.006364  -0.033502
     3  C    0.001138   0.422476   0.432552   0.434689   0.010251
     4  C   -0.049706   0.014565  -0.008325   0.006893   0.401848
     5  H   -0.042341   0.000038  -0.000310   0.000079  -0.002455
     6  H   -0.022687   0.000008   0.000019   0.000013  -0.004624
     7  H    0.559399   0.000009   0.000085  -0.000130   0.005462
     8  H    0.000009   0.536262  -0.025653  -0.023575  -0.000213
     9  H    0.000085  -0.025653   0.576125  -0.050009   0.006464
    10  H   -0.000130  -0.023575  -0.050009   0.554387  -0.004003
    11  H    0.005462  -0.000213   0.006464  -0.004003   0.515230
          Atomic-Atomic Spin Densities.
               1          2          3          4          5          6
     1  O    0.256337   0.020569   0.019989  -0.237137   0.009455  -0.000232
     2  C    0.020569  -0.035409  -0.002346  -0.063984   0.010154   0.009229
     3  C    0.019989  -0.002346   0.018367  -0.013322   0.001800  -0.000389
     4  C   -0.237137  -0.063984  -0.013322   1.314680  -0.032128  -0.011356
     5  H    0.009455   0.010154   0.001800  -0.032128   0.089596  -0.004791
     6  H   -0.000232   0.009229  -0.000389  -0.011356  -0.004791   0.008072
     7  H    0.004418   0.012346   0.000221  -0.028671  -0.018891   0.003049
     8  H   -0.000074   0.000221  -0.004317   0.002570   0.000006   0.000001
     9  H   -0.007074   0.000588  -0.002040   0.000326  -0.000492   0.000031
    10  H   -0.007494  -0.002052   0.002635   0.015141   0.000197  -0.000032
    11  H   -0.000215   0.005329   0.002251  -0.024105  -0.004967   0.001177
               7          8          9         10         11
     1  O    0.004418  -0.000074  -0.007074  -0.007494  -0.000215
     2  C    0.012346   0.000221   0.000588  -0.002052   0.005329
     3  C    0.000221  -0.004317  -0.002040   0.002635   0.002251
     4  C   -0.028671   0.002570   0.000326   0.015141  -0.024105
     5  H   -0.018891   0.000006  -0.000492   0.000197  -0.004967
     6  H    0.003049   0.000001   0.000031  -0.000032   0.001177
     7  H    0.046374  -0.000008   0.000192  -0.000264   0.001903
     8  H   -0.000008  -0.000672   0.000357   0.001673  -0.000060
     9  H    0.000192   0.000357   0.012012  -0.004663   0.003966
    10  H   -0.000264   0.001673  -0.004663  -0.001994  -0.001871
    11  H    0.001903  -0.000060   0.003966  -0.001871  -0.021001
 Mulliken charges and spin densities:
               1          2
     1  O   -0.112534   0.058544
     2  C   -0.453144  -0.045356
     3  C   -0.247315   0.022848
     4  C   -0.111260   0.922014
     5  H    0.130543   0.049940
     6  H    0.128151   0.004760
     7  H    0.141203   0.020669
     8  H    0.128211  -0.000304
     9  H    0.117676   0.003202
    10  H    0.129298   0.001275
    11  H    0.149170  -0.037593
 Sum of Mulliken charges =  -0.00000   1.00000
 Mulliken charges and spin densities with hydrogens summed into heavy atoms:
               1          2
     1  O   -0.112534   0.058544
     2  C   -0.053247   0.030014
     3  C    0.127871   0.027021
     4  C    0.037910   0.884421
 APT charges:
               1
     1  O   -0.049530
     2  C   -1.175719
     3  C   -1.161416
     4  C   -0.273760
     5  H    0.328221
     6  H    0.472281
     7  H    0.336265
     8  H    0.478847
     9  H    0.338709
    10  H    0.359955
    11  H    0.346146
 Sum of APT charges =  -0.00000
 APT charges with hydrogens summed into heavy atoms:
               1
     1  O   -0.049530
     2  C   -0.038952
     3  C    0.016096
     4  C    0.072386
 Electronic spatial extent (au):  <R**2>=            357.7357
 Charge=             -0.0000 electrons
 Dipole moment (field-independent basis, Debye):
    X=             -0.6272    Y=              0.8352    Z=              0.3178  Tot=              1.0917
 Quadrupole moment (field-independent basis, Debye-Ang):
   XX=            -22.2999   YY=            -26.6204   ZZ=            -27.0924
   XY=             -0.2224   XZ=              0.0635   YZ=              0.6543
 Traceless Quadrupole moment (field-independent basis, Debye-Ang):
   XX=              3.0377   YY=             -1.2828   ZZ=             -1.7548
   XY=             -0.2224   XZ=              0.0635   YZ=              0.6543
 Octapole moment (field-independent basis, Debye-Ang**2):
  XXX=             -7.9150  YYY=             -1.3919  ZZZ=              1.3822  XYY=             -0.9658
  XXY=             -1.4239  XXZ=             -0.1007  XZZ=             -1.6098  YZZ=             -1.5507
  YYZ=              0.7439  XYZ=              0.2094
 Hexadecapole moment (field-independent basis, Debye-Ang**3):
 XXXX=           -371.8924 YYYY=            -65.7321 ZZZZ=            -44.8365 XXXY=              7.9285
 XXXZ=             -1.7545 YYYX=              2.3874 YYYZ=              2.2369 ZZZX=              1.6381
 ZZZY=              1.0209 XXYY=            -71.2768 XXZZ=            -70.8380 YYZZ=            -18.9176
 XXYZ=             -0.4634 YYXZ=             -1.2238 ZZXY=             -2.3756
 N-N= 1.257650659138D+02 E-N=-7.034076070847D+02  KE= 1.929334244656D+02
  Exact polarizability:   0.000   0.000   0.000   0.000   0.000   0.000
 Approx polarizability:  50.374   0.016  46.851   0.457  -0.600  43.990
                          Isotropic Fermi Contact Couplings
        Atom                 a.u.       MegaHertz       Gauss      10(-4) cm-1
     1  O(17)              0.02759     -16.72645      -5.96841      -5.57934
     2  C(13)             -0.01993     -22.40212      -7.99363      -7.47254
     3  C(13)             -0.00059      -0.66647      -0.23781      -0.22231
     4  C(13)              0.20738     233.13963      83.19002      77.76701
     5  H(1)               0.02398     107.18861      38.24756      35.75427
     6  H(1)               0.00161       7.18834       2.56498       2.39777
     7  H(1)               0.01027      45.90033      16.37838      15.31070
     8  H(1)              -0.00049      -2.18114      -0.77829      -0.72755
     9  H(1)               0.00169       7.54883       2.69361       2.51802
    10  H(1)               0.00132       5.91827       2.11178       1.97412
    11  H(1)              -0.00727     -32.47637     -11.58838     -10.83295
 --------------------------------------------------------
       Center         ----  Spin Dipole Couplings  ----
                      3XX-RR        3YY-RR        3ZZ-RR
 --------------------------------------------------------
     1   Atom       -0.364951     -0.389130      0.754081
     2   Atom        0.010671     -0.006581     -0.004091
     3   Atom        0.017817     -0.007521     -0.010296
     4   Atom       -0.498296     -0.470229      0.968525
     5   Atom        0.006060     -0.003787     -0.002272
     6   Atom        0.018453     -0.010373     -0.008080
     7   Atom        0.005651      0.002835     -0.008486
     8   Atom        0.009352     -0.004778     -0.004574
     9   Atom        0.009327     -0.005229     -0.004098
    10   Atom        0.013599     -0.006710     -0.006889
    11   Atom       -0.056685      0.050721      0.005964
 --------------------------------------------------------
                        XY            XZ            YZ
 --------------------------------------------------------
     1   Atom       -0.027944     -0.022822     -0.093840
     2   Atom       -0.011616      0.008636     -0.004003
     3   Atom       -0.000973     -0.005649     -0.000428
     4   Atom       -0.018757      0.094694     -0.211584
     5   Atom       -0.007755      0.007415     -0.005148
     6   Atom        0.001385      0.001098      0.000022
     7   Atom       -0.013493     -0.004235      0.002970
     8   Atom        0.004046     -0.001109     -0.000551
     9   Atom       -0.003795     -0.006469      0.001262
    10   Atom       -0.001424      0.005345     -0.001334
    11   Atom       -0.029379     -0.002585      0.026276
 --------------------------------------------------------


 ---------------------------------------------------------------------------------
              Anisotropic Spin Dipole Couplings in Principal Axis System
 ---------------------------------------------------------------------------------

       Atom             a.u.   MegaHertz   Gauss  10(-4) cm-1        Axes

              Baa    -0.4147    30.005    10.706    10.008  0.5157  0.8532  0.0786
     1 O(17)  Bbb    -0.3474    25.141     8.971     8.386  0.8566 -0.5153 -0.0262
              Bcc     0.7621   -55.145   -19.677   -18.395 -0.0182 -0.0808  0.9966
 
              Baa    -0.0124    -1.669    -0.596    -0.557  0.4656  0.8831 -0.0581
     2 C(13)  Bbb    -0.0078    -1.046    -0.373    -0.349 -0.2975  0.2180  0.9295
              Bcc     0.0202     2.715     0.969     0.906  0.8335 -0.4154  0.3643
 
              Baa    -0.0115    -1.541    -0.550    -0.514  0.1920  0.1519  0.9696
     3 C(13)  Bbb    -0.0075    -1.001    -0.357    -0.334  0.0033  0.9878 -0.1554
              Bcc     0.0189     2.541     0.907     0.848  0.9814 -0.0330 -0.1891
 
              Baa    -0.5080   -68.167   -24.324   -22.738  0.8199  0.5718  0.0294
     4 C(13)  Bbb    -0.4972   -66.718   -23.807   -22.255 -0.5690  0.8079  0.1534
              Bcc     1.0052   134.885    48.130    44.993  0.0640 -0.1425  0.9877
 
              Baa    -0.0085    -4.537    -1.619    -1.513  0.2471  0.8707  0.4253
     5 H(1)   Bbb    -0.0065    -3.466    -1.237    -1.156 -0.5909 -0.2125  0.7783
              Bcc     0.0150     8.003     2.856     2.669  0.7680 -0.4436  0.4619
 
              Baa    -0.0104    -5.570    -1.988    -1.858 -0.0484  0.9987  0.0131
     6 H(1)   Bbb    -0.0081    -4.335    -1.547    -1.446 -0.0405 -0.0151  0.9991
              Bcc     0.0186     9.905     3.534     3.304  0.9980  0.0478  0.0412
 
              Baa    -0.0100    -5.340    -1.906    -1.781  0.5482  0.4069  0.7307
     7 H(1)   Bbb    -0.0088    -4.678    -1.669    -1.560 -0.4031 -0.6370  0.6571
              Bcc     0.0188    10.019     3.575     3.342  0.7328 -0.6548 -0.1852
 
              Baa    -0.0059    -3.150    -1.124    -1.051 -0.2381  0.9514  0.1955
     8 H(1)   Bbb    -0.0046    -2.466    -0.880    -0.823  0.1266 -0.1692  0.9774
              Bcc     0.0105     5.616     2.004     1.873  0.9630  0.2575 -0.0801
 
              Baa    -0.0068    -3.625    -1.294    -1.209  0.4173  0.3285  0.8473
     9 H(1)   Bbb    -0.0060    -3.215    -1.147    -1.072  0.0638  0.9195 -0.3879
              Bcc     0.0128     6.840     2.441     2.282  0.9065 -0.2160 -0.3628
 
              Baa    -0.0087    -4.637    -1.655    -1.547 -0.1796  0.4572  0.8710
    10 H(1)   Bbb    -0.0064    -3.389    -1.209    -1.130  0.1780  0.8859 -0.4283
              Bcc     0.0150     8.026     2.864     2.677  0.9675 -0.0781  0.2405
 
              Baa    -0.0644   -34.384   -12.269   -11.469  0.9637  0.2599 -0.0616
    11 H(1)   Bbb    -0.0046    -2.457    -0.877    -0.820  0.1548 -0.3555  0.9217
              Bcc     0.0690    36.841    13.146    12.289 -0.2177  0.8978  0.3829
 

 ---------------------------------------------------------------------------------

 No NMR shielding tensors so no spin-rotation constants.
 Leave Link  601 at Fri Mar 29 10:37:14 2019, MaxMem=   671088640 cpu:               7.3 elap:               0.4
 (Enter /shared/centos7/gaussian/g16/l701.exe)
 ... and contract with generalized density number  0.
 Compute integral second derivatives.
 Leave Link  701 at Fri Mar 29 10:37:14 2019, MaxMem=   671088640 cpu:               6.9 elap:               0.4
 (Enter /shared/centos7/gaussian/g16/l702.exe)
 L702 exits ... SP integral derivatives will be done elsewhere.
 Leave Link  702 at Fri Mar 29 10:37:14 2019, MaxMem=   671088640 cpu:               0.3 elap:               0.0
 (Enter /shared/centos7/gaussian/g16/l703.exe)
 Integral derivatives from FoFJK, PRISM(SPDF).
 Compute integral second derivatives, UseDBF=F ICtDFT=           0.
 Calling FoFJK, ICntrl=    100147 FMM=F ISym2X=0 I1Cent= 0 IOpClX= 1 NMat=1 NMatS=1 NMatT=0.
 FoFJK:  IHMeth= 1 ICntrl=  100147 DoSepK=F KAlg= 0 I1Cent=           0 FoldK=F
 IRaf=         0 NMat=       1 IRICut=       1 DoRegI=T DoRafI=F ISym2E= 0 IDoP0=0 IntGTp=1.
 FoFCou: FMM=F IPFlag=           0 FMFlag=      100000 FMFlg1=         800
         NFxFlg=           0 DoJE=F BraDBF=F KetDBF=F FulRan=T
         wScrn=  0.000000 ICntrl=    100147 IOpCl=  1 I1Cent=           0 NGrid=           0
         NMat0=    1 NMatS0=      1 NMatT0=    0 NMatD0=    1 NMtDS0=    0 NMtDT0=    0
 Symmetry not used in FoFCou.
 Leave Link  703 at Fri Mar 29 10:37:55 2019, MaxMem=   671088640 cpu:             810.9 elap:              40.6
 (Enter /shared/centos7/gaussian/g16/l716.exe)
 Dipole        =-2.46752070D-01 3.28579352D-01 1.25017353D-01
 Polarizability= 0.00000000D+00 0.00000000D+00 0.00000000D+00
                 0.00000000D+00 0.00000000D+00 0.00000000D+00
 ***** Axes restored to original set *****
 -------------------------------------------------------------------
 Center     Atomic                   Forces (Hartrees/Bohr)
 Number     Number              X              Y              Z
 -------------------------------------------------------------------
      1        8          -0.000000348    0.000000286    0.000000840
      2        6          -0.000000136   -0.000000959    0.000000349
      3        6          -0.000000041    0.000000918    0.000000026
      4        6           0.000000261   -0.000000337   -0.000000498
      5        1          -0.000000342    0.000000383    0.000000971
      6        1           0.000000296   -0.000001661   -0.000000773
      7        1          -0.000000510   -0.000002108    0.000001555
      8        1          -0.000000459    0.000001466    0.000001234
      9        1           0.000000336    0.000002186   -0.000001042
     10        1           0.000000256   -0.000000403   -0.000000693
     11        1           0.000000688    0.000000230   -0.000001968
 -------------------------------------------------------------------
 Cartesian Forces:  Max     0.000002186 RMS     0.000000953
 Force constants in Cartesian coordinates: 
                1             2             3             4             5 
      1  0.568254D+00
      2  0.599272D-01  0.362784D+00
      3 -0.152069D-01 -0.213848D-01  0.626894D-01
      4 -0.358301D-01  0.597052D-02 -0.315018D-02  0.523983D+00
      5 -0.323599D-01  0.127417D-01 -0.121947D-02  0.390171D-01  0.563979D+00
      6  0.305841D-02 -0.344796D-02  0.818474D-03 -0.140736D-01  0.126699D-01
      7 -0.221959D+00  0.453493D-01 -0.472774D-02 -0.306588D-03 -0.259601D-02
      8  0.845154D-01 -0.116917D+00  0.391158D-02 -0.287966D-02 -0.334189D-02
      9 -0.766054D-02  0.466457D-02 -0.621320D-01 -0.310989D-03 -0.994096D-04
     10 -0.219066D+00 -0.102292D+00  0.295402D-01 -0.214906D+00  0.694851D-01
     11 -0.149824D+00 -0.232227D+00  0.282838D-01  0.575488D-01 -0.115500D+00
     12  0.265657D-01  0.143063D-01 -0.210530D-01 -0.379031D-03 -0.409089D-02
     13  0.560260D-03 -0.242757D-02  0.198492D-02 -0.518271D-01  0.155676D-01
     14  0.102360D-02  0.200847D-02 -0.132151D-02  0.133381D-01 -0.771922D-01
     15 -0.131386D-02 -0.145113D-02  0.471860D-03 -0.360609D-01  0.813186D-01
     16 -0.729398D-02  0.391734D-02  0.319816D-03 -0.169299D+00 -0.129367D+00
     17  0.333914D-02 -0.176554D-04  0.125492D-03 -0.132619D+00 -0.189266D+00
     18 -0.702496D-03  0.202194D-03  0.772947D-03  0.372813D-01  0.378082D-01
     19  0.203819D-02 -0.159670D-02 -0.271542D-04 -0.497235D-01  0.204956D-01
     20 -0.461238D-03  0.128854D-02  0.347217D-03  0.196418D-01 -0.189401D+00
     21  0.838399D-03  0.413250D-03 -0.501703D-03  0.206742D-01 -0.132077D+00
     22 -0.343820D-01 -0.253426D-01  0.394367D-02 -0.703356D-03 -0.148358D-02
     23  0.141653D-01  0.143283D-01 -0.213407D-02  0.587036D-03  0.694457D-03
     24 -0.110909D-02 -0.165892D-02  0.486033D-03 -0.283775D-04  0.438352D-04
     25 -0.237502D-01  0.267665D-01  0.257871D-01 -0.452668D-03 -0.176361D-03
     26  0.136870D-01 -0.111451D-01 -0.846743D-02  0.213344D-04  0.340009D-03
     27  0.435118D-02  0.147056D-02  0.719801D-02  0.654578D-04  0.494472D-03
     28 -0.254132D-01  0.195737D-01 -0.310638D-01 -0.613551D-03 -0.314795D-03
     29  0.117298D-01 -0.732233D-02  0.117966D-01  0.438551D-04  0.172718D-05
     30 -0.581228D-02  0.186858D-02  0.610170D-02 -0.407959D-04 -0.183680D-03
     31 -0.315795D-02 -0.298457D-01 -0.740000D-02 -0.321568D-03  0.217319D-01
     32 -0.574272D-02 -0.255219D-01 -0.993746D-02 -0.670260D-03 -0.305604D-02
     33 -0.300852D-02  0.501730D-02  0.514828D-02 -0.397720D-02  0.533551D-02
                6             7             8             9            10 
      6  0.514029D+00
      7  0.175584D-02  0.522699D+00
      8 -0.173434D-03  0.602819D-01  0.594047D+00
      9  0.149412D-02 -0.534345D-02 -0.459329D-02  0.572713D+00
     10 -0.160856D-01 -0.535420D-01 -0.290973D-01  0.571001D-02  0.584557D+00
     11  0.519413D-02  0.474690D-02  0.715727D-02 -0.219640D-02 -0.151088D-01
     12 -0.504858D-01 -0.129549D-02  0.409164D-03 -0.305207D-02 -0.413332D-01
     13 -0.446017D-01  0.599523D-03 -0.316339D-03  0.470077D-03 -0.118250D-01
     14  0.847884D-01 -0.558960D-03  0.316874D-03 -0.106356D-03  0.714996D-02
     15 -0.252406D+00  0.251829D-03 -0.256986D-03  0.119173D-03 -0.593091D-02
     16  0.362188D-01  0.363854D-04 -0.135272D-02  0.136164D-03 -0.164432D-01
     17  0.375896D-01  0.665301D-03  0.501725D-03  0.208303D-03  0.804226D-02
     18 -0.550229D-01 -0.253937D-03  0.580548D-04  0.635635D-03 -0.237352D-02
     19  0.222747D-01 -0.558383D-04  0.419232D-04 -0.251746D-03 -0.487847D-02
     20 -0.131916D+00 -0.641213D-04  0.224751D-03  0.233394D-03  0.488537D-02
     21 -0.162777D+00 -0.678879D-04  0.248103D-03  0.118952D-03  0.355105D-03
     22  0.151149D-03 -0.147643D+00 -0.125379D+00  0.194422D-01 -0.307503D-02
     23 -0.430139D-04 -0.139635D+00 -0.222960D+00  0.265988D-01  0.203287D-02
     24  0.540636D-03  0.213642D-01  0.265897D-01 -0.557746D-01 -0.300162D-03
     25 -0.280045D-03 -0.511893D-01  0.971622D-02  0.149235D-01  0.492802D-02
     26  0.477639D-03  0.146159D-01 -0.159603D+00 -0.123360D+00 -0.249344D-02
     27  0.344693D-03  0.186369D-01 -0.125404D+00 -0.196351D+00 -0.979962D-03
     28  0.368917D-03 -0.525561D-01  0.914484D-02 -0.252412D-01  0.588927D-02
     29  0.549482D-04  0.130176D-01 -0.997606D-01  0.975632D-01 -0.142735D-02
     30 -0.710539D-04 -0.308775D-01  0.993395D-01 -0.258559D+00  0.627801D-03
     31  0.112131D-01  0.391707D-02 -0.467480D-02 -0.187404D-02 -0.716390D-01
     32 -0.519430D-02  0.417761D-02  0.335046D-03  0.108693D-02  0.588232D-01
     33  0.353482D-02  0.557255D-03 -0.127892D-03  0.787637D-03  0.307702D-01
               11            12            13            14            15 
     11  0.632879D+00
     12  0.654066D-01  0.115805D+00
     13  0.176291D-01 -0.289679D-01  0.575177D-01
     14 -0.901046D-02  0.120503D-01 -0.215393D-01  0.831653D-01
     15  0.429469D-02  0.199513D-02  0.467281D-01 -0.935242D-01  0.276306D+00
     16 -0.260891D-01  0.384214D-02  0.437711D-02  0.481207D-02 -0.303407D-03
     17  0.103054D-01 -0.254418D-02 -0.698310D-02 -0.844053D-02  0.136581D-02
     18 -0.222748D-02 -0.214787D-02  0.204778D-01  0.210602D-01 -0.519914D-02
     19  0.279571D-01  0.179472D-01  0.553571D-03 -0.442333D-02 -0.311733D-02
     20 -0.138173D-01 -0.536616D-02 -0.167659D-02  0.917890D-02  0.815876D-02
     21  0.288610D-02  0.424563D-02  0.270252D-02 -0.222048D-01 -0.211044D-01
     22  0.508881D-02 -0.882654D-04 -0.573530D-04  0.363575D-04 -0.888211D-04
     23 -0.686074D-03 -0.194721D-03 -0.803306D-04  0.411049D-04 -0.782035D-05
     24 -0.236586D-03  0.554637D-03  0.104538D-03 -0.425361D-04 -0.179437D-04
     25  0.671861D-02  0.103229D-02 -0.814499D-04  0.288589D-04  0.322797D-04
     26  0.392365D-03  0.890445D-03  0.164764D-03 -0.115353D-03  0.342715D-04
     27 -0.518914D-03 -0.921191D-04  0.358957D-04 -0.220925D-04  0.214068D-04
     28  0.518882D-02 -0.148748D-02  0.224674D-03 -0.126119D-03  0.129177D-03
     29  0.582163D-03 -0.119630D-02  0.502401D-04 -0.110178D-03  0.392529D-04
     30 -0.285190D-03  0.106085D-02  0.318189D-05  0.417608D-04 -0.210073D-04
     31  0.661433D-01  0.241640D-01 -0.420517D-04  0.258782D-03 -0.326239D-03
     32 -0.280076D+00 -0.796706D-01 -0.388393D-03  0.158108D-03  0.287898D-04
     33 -0.100601D+00 -0.468309D-01  0.106245D-02 -0.719120D-03 -0.164983D-03
               16            17            18            19            20 
     16  0.185276D+00
     17  0.143091D+00  0.202142D+00
     18 -0.383732D-01 -0.426534D-01  0.562630D-01
     19  0.314675D-02 -0.149383D-01 -0.160508D-01  0.533257D-01
     20  0.385015D-02 -0.153351D-01 -0.143020D-01 -0.283580D-01  0.207204D+00
     21 -0.216918D-02  0.623280D-02  0.485666D-02 -0.212085D-01  0.143827D+00
     22 -0.505836D-03  0.213044D-03 -0.390970D-04  0.303862D-04  0.320080D-04
     23  0.199364D-03 -0.109180D-03  0.159992D-04 -0.114113D-03  0.369386D-04
     24 -0.260389D-04  0.134812D-04 -0.279615D-05 -0.825875D-04  0.139663D-04
     25 -0.145842D-03 -0.554806D-04 -0.115734D-03  0.157476D-03 -0.227211D-03
     26  0.928511D-04  0.149831D-04  0.940276D-05 -0.193594D-03 -0.968194D-05
     27  0.952954D-04 -0.319693D-04 -0.408751D-04 -0.175232D-03  0.457475D-04
     28 -0.140780D-03  0.288847D-04  0.117909D-03  0.165714D-04 -0.501254D-05
     29  0.612360D-04  0.574569D-05 -0.349279D-04  0.819743D-04 -0.346716D-04
     30 -0.101076D-03  0.755604D-05 -0.153518D-04 -0.983727D-05 -0.159636D-04
     31  0.992520D-03 -0.784077D-03  0.317236D-04 -0.461090D-02  0.238292D-02
     32  0.784608D-03  0.198754D-03  0.636781D-04  0.104744D-02  0.664830D-03
     33  0.360662D-03 -0.313497D-03 -0.992513D-04  0.701354D-03 -0.102607D-02
               21            22            23            24            25 
     21  0.175356D+00
     22  0.616561D-04  0.177139D+00
     23 -0.234407D-04  0.141367D+00  0.231503D+00
     24 -0.170654D-04 -0.223237D-01 -0.284340D-01  0.516583D-01
     25 -0.991827D-04  0.423484D-02 -0.116181D-01 -0.156597D-01  0.635220D-01
     26 -0.953021D-05  0.230410D-02 -0.143557D-01 -0.191200D-01 -0.263965D-01
     27 -0.425272D-04 -0.133452D-02  0.388033D-02  0.426952D-02 -0.232165D-01
     28 -0.538725D-04  0.498120D-02 -0.711763D-02  0.180162D-01  0.229673D-02
     29  0.000000D+00  0.336769D-02 -0.902244D-02  0.225333D-01 -0.351002D-02
     30  0.370847D-04  0.483003D-03  0.365118D-04 -0.150905D-02 -0.189945D-02
     31 -0.103325D-02 -0.184768D-04  0.214058D-03  0.447339D-04  0.480405D-03
     32  0.707878D-03 -0.203325D-03  0.529883D-03  0.297789D-03 -0.124659D-02
     33 -0.171677D-03 -0.207326D-03  0.305459D-03 -0.187667D-03 -0.504477D-03
               26            27            28            29            30 
     26  0.173015D+00
     27  0.139217D+00  0.205156D+00
     28 -0.232299D-02  0.171554D-02  0.655891D-01
     29  0.108145D-01 -0.196325D-01 -0.235911D-01  0.104812D+00
     30  0.106708D-01 -0.203390D-01  0.377370D-01 -0.111225D+00  0.274113D+00
     31  0.520630D-03  0.806015D-03 -0.273859D-03  0.176062D-03 -0.110039D-03
     32  0.652114D-03  0.501534D-03 -0.458537D-03  0.339045D-04 -0.255306D-03
     33 -0.343191D-03 -0.124521D-03 -0.238407D-03  0.101189D-03 -0.797475D-03
               31            32            33 
     31  0.746738D-01
     32 -0.561231D-01  0.306081D+00
     33 -0.255160D-01  0.923711D-01  0.389057D-01
 FormGI is forming the generalized inverse of G from B-inverse, IUseBI=4.
 Force constants in internal coordinates: 
                1             2             3             4             5 
      1  0.375847D+00
      2  0.856389D-02  0.438899D+00
      3 -0.983227D-03  0.219728D-01  0.325323D+00
      4 -0.711585D-03  0.262745D-02  0.140148D-01  0.324051D+00
      5 -0.295934D-03  0.164101D-03  0.382257D-02  0.299144D-02  0.348314D+00
      6 -0.412321D-03  0.895675D-03  0.851734D-02  0.397143D-02  0.211849D-02
      7  0.973399D-02 -0.144788D-02  0.210545D-03  0.972373D-04  0.741807D-04
      8  0.159614D-01 -0.122148D-02 -0.309679D-04  0.100015D-03  0.963804D-04
      9  0.152297D-01 -0.109885D-02  0.240902D-03  0.280180D-04  0.913875D-04
     10 -0.225505D-03  0.119165D-01  0.280409D-02  0.916975D-04  0.599008D-03
     11  0.552405D-01  0.558284D-01  0.581671D-02 -0.356216D-03  0.681285D-03
     12 -0.128366D-02  0.169357D-03  0.149445D-01  0.155228D-02 -0.690494D-02
     13  0.126026D-02  0.783577D-02  0.136360D-01 -0.589153D-02  0.499613D-02
     14 -0.134139D-03 -0.276191D-02  0.169519D-01 -0.655951D-02 -0.609570D-02
     15 -0.113735D-03 -0.285462D-02 -0.156170D-01  0.588328D-02  0.479892D-02
     16  0.487239D-03 -0.382221D-03 -0.180411D-01  0.700365D-02 -0.765754D-03
     17 -0.218274D-03 -0.233712D-02 -0.142568D-01 -0.148589D-02  0.436075D-02
     18  0.283158D-01  0.779897D-02  0.100184D-02  0.192068D-03  0.213905D-03
     19  0.288481D-01 -0.994466D-02  0.271790D-03  0.000000D+00  0.947927D-04
     20  0.290388D-01 -0.919577D-02  0.183211D-03 -0.322277D-03  0.623637D-04
     21 -0.285639D-01  0.359464D-02 -0.540396D-03  0.212234D-04 -0.142661D-03
     22 -0.285267D-01  0.374773D-02 -0.447583D-03  0.125732D-03 -0.131276D-03
     23 -0.292880D-01  0.419645D-02 -0.464356D-03 -0.103376D-04 -0.974432D-04
     24  0.968918D-02  0.225956D-01  0.177440D-01 -0.307291D-02  0.517138D-02
     25 -0.957749D-02  0.132244D-01 -0.186094D-01  0.836647D-03 -0.230218D-02
     26  0.125937D-02 -0.331136D-01  0.573824D-02  0.149406D-02 -0.240792D-02
     27  0.194207D-03  0.935846D-04 -0.443676D-04 -0.552058D-04 -0.484059D-05
     28 -0.765234D-03  0.351633D-02  0.644312D-04  0.872586D-04  0.630048D-05
     29  0.882957D-03 -0.393463D-02 -0.217314D-03 -0.140064D-03 -0.117989D-04
     30  0.125552D-02 -0.184908D-02  0.586683D-02 -0.628800D-03 -0.129008D-04
     31 -0.167408D-02  0.368667D-02 -0.481320D-02  0.246123D-03 -0.111395D-03
     32  0.139688D-03 -0.358061D-02 -0.155944D-02  0.622037D-03  0.498010D-02
     33 -0.725410D-04  0.694467D-02  0.214119D-02 -0.628860D-03  0.530114D-02
     34  0.274320D-03 -0.544950D-02 -0.106740D-02 -0.382933D-02  0.675070D-04
     35  0.620905D-04  0.507578D-02  0.263324D-02 -0.508022D-02  0.388544D-03
     36 -0.182124D-03 -0.582360D-02 -0.302657D-02  0.605889D-02 -0.467521D-02
     37 -0.394353D-03  0.470167D-02  0.674066D-03  0.480799D-02 -0.435417D-02
                6             7             8             9            10 
      6  0.340319D+00
      7  0.590171D-04  0.352615D+00
      8 -0.598704D-04  0.302359D-02  0.333718D+00
      9  0.226972D-04  0.300622D-02  0.377963D-02  0.336451D+00
     10 -0.105159D-03 -0.228407D-03  0.620897D-03  0.493693D-03  0.348381D+00
     11 -0.338500D-04  0.483335D-02 -0.313500D-02 -0.316891D-02 -0.500464D-02
     12 -0.689066D-02  0.886745D-04  0.256500D-03 -0.274011D-04 -0.756309D-03
     13 -0.557902D-02  0.197775D-03  0.224156D-03  0.157013D-03 -0.157605D-03
     14  0.375822D-02  0.127694D-04 -0.492908D-03  0.291492D-05  0.351367D-02
     15 -0.970865D-03 -0.131929D-03 -0.115923D-03 -0.295240D-04 -0.193259D-03
     16  0.572577D-02 -0.771851D-04  0.455272D-04 -0.285028D-04 -0.127015D-02
     17  0.448639D-02 -0.106780D-03  0.818157D-04 -0.828344D-04 -0.126687D-02
     18  0.153771D-03  0.341478D-02 -0.499661D-02 -0.479596D-02  0.218064D-03
     19 -0.373367D-03 -0.485751D-02  0.159222D-02 -0.511824D-02  0.191552D-02
     20 -0.179017D-04 -0.497474D-02 -0.533481D-02  0.157957D-02  0.318001D-04
     21  0.144206D-03  0.581089D-02  0.640439D-02 -0.528228D-02 -0.113243D-02
     22  0.421736D-04  0.574492D-02 -0.542105D-02  0.614710D-02 -0.541704D-03
     23  0.558832D-04 -0.476482D-02  0.757542D-02  0.726585D-02 -0.509995D-03
     24 -0.356518D-02  0.706929D-03 -0.201299D-03  0.249013D-03 -0.786035D-02
     25  0.195844D-03 -0.484730D-03  0.123812D-02  0.280634D-04  0.429363D-02
     26  0.312927D-02 -0.130508D-03 -0.109942D-02 -0.415387D-03  0.584171D-02
     27  0.446842D-04 -0.199285D-03 -0.599113D-02  0.590757D-02  0.691653D-04
     28  0.999628D-04  0.614319D-02 -0.362955D-03 -0.631674D-02 -0.783891D-04
     29 -0.898792D-04 -0.639383D-02  0.667902D-02  0.475307D-03  0.574606D-03
     30  0.583119D-03 -0.133238D-03 -0.979668D-03  0.489846D-03  0.151455D-02
     31  0.434365D-04 -0.261193D-03 -0.515750D-03  0.867415D-03 -0.434976D-02
     32 -0.532085D-02 -0.119028D-04 -0.653979D-04  0.178324D-03 -0.302568D-02
     33 -0.586273D-02  0.288024D-04  0.223810D-03 -0.618895D-04  0.235856D-02
     34  0.432665D-02 -0.393711D-04 -0.243034D-03  0.126296D-03 -0.216881D-02
     35  0.378478D-02  0.133416D-05  0.461736D-04 -0.113918D-03  0.321542D-02
     36 -0.806591D-04 -0.423438D-04 -0.172536D-03  0.126171D-03 -0.275029D-02
     37 -0.622531D-03 -0.163854D-05  0.116672D-03 -0.114042D-03  0.263395D-02
               11            12            13            14            15 
     11  0.271565D+00
     12 -0.122297D-02  0.992956D-01
     13  0.414458D-02 -0.194020D-01  0.100014D+00
     14 -0.492020D-03 -0.188749D-01 -0.195262D-01  0.101194D+00
     15 -0.134294D-02 -0.362966D-01 -0.383810D-01  0.976709D-02  0.544672D-01
     16  0.183064D-03 -0.370889D-01  0.101311D-01 -0.391849D-01  0.659242D-02
     17 -0.142782D-02  0.967495D-02 -0.368134D-01 -0.365071D-01  0.719859D-02
     18  0.167812D-01 -0.170869D-03  0.125176D-02 -0.384658D-03 -0.432022D-03
     19 -0.448447D-02  0.321982D-03 -0.110162D-03 -0.234563D-03 -0.143263D-03
     20 -0.394458D-02 -0.448927D-03  0.295531D-04  0.148591D-03  0.255214D-03
     21 -0.530023D-02  0.967426D-05 -0.467063D-03  0.304134D-03  0.175338D-03
     22 -0.458774D-02  0.351504D-03 -0.539633D-03  0.100325D-03  0.680920D-04
     23  0.157618D-02 -0.568315D-04 -0.161977D-03  0.665155D-04  0.727953D-04
     24  0.142194D-01 -0.947791D-02  0.221430D-01 -0.133945D-01 -0.367201D-02
     25 -0.447555D-02  0.467589D-02 -0.753507D-02 -0.217757D-04  0.149321D-02
     26 -0.844098D-02  0.199792D-02 -0.125278D-01  0.136860D-01  0.255785D-02
     27 -0.864945D-03  0.874038D-04  0.399157D-05 -0.157039D-03  0.219654D-04
     28  0.351807D-03  0.178802D-03  0.135741D-03 -0.155964D-03 -0.109662D-03
     29 -0.327150D-02  0.226076D-04 -0.121686D-03 -0.129331D-03  0.565385D-04
     30  0.335946D-02 -0.291775D-02  0.163988D-03  0.301691D-02  0.109748D-02
     31  0.360704D-02  0.153297D-02  0.261207D-03 -0.171941D-02 -0.365640D-03
     32 -0.394614D-03  0.328130D-02  0.590565D-02 -0.794093D-02  0.808679D-02
     33  0.117613D-02 -0.842828D-03  0.825836D-02 -0.802454D-02  0.914213D-02
     34 -0.720596D-03 -0.352567D-02 -0.111965D-02  0.564224D-02 -0.104647D-01
     35  0.850148D-03 -0.764979D-02  0.123306D-02  0.555863D-02 -0.940933D-02
     36 -0.130354D-02  0.911484D-02 -0.731621D-02 -0.138526D-02 -0.910889D-03
     37  0.267210D-03  0.499071D-02 -0.496350D-02 -0.146887D-02  0.144455D-03
               16            17            18            19            20 
     16  0.557201D-01
     17  0.693104D-02  0.534010D-01
     18  0.426459D-04 -0.352416D-03  0.140210D+00
     19 -0.614021D-05  0.175859D-03 -0.308395D-01  0.142545D+00
     20  0.977549D-04 -0.703397D-04 -0.307017D-01 -0.320647D-01  0.140960D+00
     21 -0.820470D-04  0.714673D-04 -0.382580D-01 -0.377318D-01 -0.194685D-02
     22 -0.110178D-03  0.139136D-03 -0.383280D-01 -0.194142D-02 -0.370940D-01
     23  0.536695D-04  0.346002D-04 -0.135602D-02 -0.403071D-01 -0.399555D-01
     24  0.661514D-02 -0.236554D-02  0.321108D-02  0.663106D-03  0.205731D-03
     25 -0.564682D-03  0.215861D-02 -0.113011D-02 -0.106553D-02  0.491294D-03
     26 -0.529896D-02 -0.467967D-03 -0.180038D-02  0.261688D-03 -0.408197D-03
     27  0.231998D-04  0.233808D-04  0.428928D-04 -0.190558D-01  0.189299D-01
     28 -0.537538D-04 -0.388020D-05  0.212834D-01 -0.226195D-02 -0.203372D-01
     29  0.747624D-04  0.109784D-03 -0.213609D-01  0.204528D-01  0.186835D-02
     30 -0.203134D-03 -0.118018D-02  0.127537D-03 -0.624571D-03  0.868539D-03
     31  0.895526D-04  0.194130D-03  0.174096D-03 -0.461803D-03  0.480821D-03
     32 -0.100928D-01  0.629468D-03  0.335281D-04  0.382114D-03 -0.417388D-03
     33 -0.857851D-02 -0.197523D-04  0.322444D-03 -0.211956D-03  0.300610D-03
     34 -0.698129D-03  0.103126D-01 -0.163630D-03  0.424866D-03 -0.462228D-03
     35  0.816149D-03  0.966341D-02  0.125286D-03 -0.169205D-03  0.255770D-03
     36  0.934641D-02 -0.895685D-02 -0.285932D-03  0.427895D-03 -0.489336D-03
     37  0.108607D-01 -0.960607D-02  0.298402D-05 -0.166175D-03  0.228662D-03
               21            22            23            24            25 
     21  0.704999D-01
     22  0.387378D-02  0.702769D-01
     23  0.435103D-02  0.404475D-02  0.720828D-01
     24 -0.181379D-02 -0.175377D-02 -0.522905D-03  0.143930D+00
     25  0.769121D-03  0.751042D-03  0.191096D-03 -0.784088D-01  0.975758D-01
     26  0.965291D-03  0.749725D-03  0.234499D-03 -0.519914D-01 -0.295343D-01
     27 -0.200310D-01  0.199273D-01  0.110999D-03 -0.164568D-03  0.507873D-03
     28  0.206103D-01  0.239047D-03 -0.184071D-01 -0.333216D-04  0.145948D-03
     29 -0.298007D-03 -0.206477D-01  0.189174D-01 -0.113571D-03  0.491217D-05
     30  0.280581D-03 -0.833263D-03  0.167400D-03  0.462192D-02 -0.141977D-01
     31  0.129373D-03 -0.605966D-03  0.270770D-03 -0.414386D-02  0.143744D-01
     32 -0.120051D-03  0.987731D-04  0.237667D-04  0.131220D-02 -0.584156D-02
     33 -0.903201D-04 -0.201958D-03 -0.118130D-03  0.673407D-02  0.398871D-02
     34 -0.283929D-04  0.148513D-03  0.804412D-04 -0.290958D-02 -0.568003D-02
     35  0.133762D-05 -0.152219D-03 -0.614554D-04  0.251228D-02  0.415024D-02
     36 -0.113534D-04  0.259378D-03  0.992038D-04 -0.565241D-02 -0.348475D-02
     37  0.183772D-04 -0.413540D-04 -0.426927D-04 -0.230544D-03  0.634551D-02
               26            27            28            29            30 
     26  0.816416D-01
     27 -0.338676D-03  0.246766D-01
     28 -0.113926D-03 -0.104091D-01  0.261825D-01
     29  0.835326D-04 -0.103420D-01 -0.120211D-01  0.266291D-01
     30  0.131761D-01 -0.524119D-03 -0.462748D-03 -0.893465D-04  0.105076D-01
     31 -0.126341D-01 -0.423120D-03 -0.423845D-03 -0.701533D-04 -0.163372D-03
     32  0.295775D-02 -0.740135D-04  0.186698D-04  0.248803D-04 -0.152186D-02
     33 -0.901289D-02  0.981258D-04  0.637937D-04 -0.257478D-04  0.691591D-03
     34  0.697807D-02 -0.162815D-03 -0.545029D-04  0.216168D-04 -0.108245D-02
     35 -0.499257D-02  0.932474D-05 -0.937900D-05 -0.290113D-04  0.113100D-02
     36  0.684821D-02 -0.934007D-04 -0.369917D-04  0.467151D-04 -0.166004D-02
     37 -0.512243D-02  0.787386D-04  0.813212D-05 -0.391301D-05  0.553415D-03
               31            32            33            34            35 
     31  0.819219D-02
     32  0.333483D-03  0.137466D-01
     33  0.454319D-03  0.888159D-02  0.137357D-01
     34 -0.403148D-03 -0.274278D-02 -0.781294D-02  0.136410D-01
     35 -0.282312D-03 -0.760782D-02 -0.295887D-02  0.857086D-02  0.132198D-01
     36  0.293340D-03 -0.223215D-02 -0.796041D-02 -0.212926D-02 -0.785752D-02
     37  0.414176D-03 -0.709719D-02 -0.310633D-02 -0.719942D-02 -0.320856D-02
               36            37 
     36  0.146640D-01
     37  0.893571D-02  0.129266D-01
 Leave Link  716 at Fri Mar 29 10:37:55 2019, MaxMem=   671088640 cpu:               0.6 elap:               0.0
 (Enter /shared/centos7/gaussian/g16/l103.exe)

 GradGradGradGradGradGradGradGradGradGradGradGradGradGradGradGradGradGrad
 Berny optimization.
 Red2BG is reusing G-inverse.
 Internal  Forces:  Max     0.000000057 RMS     0.000000012
 Search for a local minimum.
[...]
                 (A) (A) (A)
 The electronic state is 2-A.
 Alpha  occ. eigenvalues --  -19.64978 -10.58298 -10.57664 -10.52525  -1.18968
 Alpha  occ. eigenvalues --   -0.86250  -0.78053  -0.68354  -0.57918  -0.55311
 Alpha  occ. eigenvalues --   -0.54012  -0.48307  -0.45006  -0.44210  -0.41194
 Alpha  occ. eigenvalues --   -0.39570  -0.21867
 Alpha virt. eigenvalues --    0.02092   0.03059   0.04392   0.04966   0.05616
 Alpha virt. eigenvalues --    0.06793   0.07819   0.09395   0.10422   0.11645
 Alpha virt. eigenvalues --    0.14034   0.15788   0.17783   0.19720   0.20720
 Alpha virt. eigenvalues --    0.21761   0.21904   0.22916   0.24169   0.25378
 Alpha virt. eigenvalues --    0.27510   0.28190   0.30548   0.34510   0.36626
 Alpha virt. eigenvalues --    0.36927   0.43290   0.44391   0.45659   0.46812
 Alpha virt. eigenvalues --    0.49548   0.51935   0.53496   0.55175   0.56511
 Alpha virt. eigenvalues --    0.57190   0.58209   0.58518   0.61005   0.62536
 Alpha virt. eigenvalues --    0.64021   0.65416   0.68294   0.70608   0.74176
 Alpha virt. eigenvalues --    0.77295   0.80706   0.83984   0.86078   0.87403
 Alpha virt. eigenvalues --    0.90817   0.92760   0.98495   0.98994   1.01945
 Alpha virt. eigenvalues --    1.05522   1.07407   1.10668   1.12378   1.14229
 Alpha virt. eigenvalues --    1.14786   1.17546   1.17925   1.20076   1.21967
 Alpha virt. eigenvalues --    1.22401   1.27101   1.29139   1.30951   1.31886
 Alpha virt. eigenvalues --    1.35327   1.38165   1.40370   1.42822   1.43968
 Alpha virt. eigenvalues --    1.44675   1.45373   1.49757   1.50088   1.53117
 Alpha virt. eigenvalues --    1.58401   1.58958   1.63475   1.69382   1.75181
 Alpha virt. eigenvalues --    1.96477   2.02358   2.10647   2.25304   2.30782
 Alpha virt. eigenvalues --    2.36605   2.43786   2.44668   2.50996   2.54698
 Alpha virt. eigenvalues --    2.59220   2.66467   2.77469   2.80851   2.85916
 Alpha virt. eigenvalues --    2.92003   2.96465   2.97211   2.99189   3.02390
 Alpha virt. eigenvalues --    3.06309   3.08880   3.09752   3.13741   3.14793
 Alpha virt. eigenvalues --    3.15628   3.17495   3.19877   3.24833   3.26551
 Alpha virt. eigenvalues --    3.29646   3.30631   3.34140   3.36630   3.42477
 Alpha virt. eigenvalues --    3.44099   3.45764   3.50500   3.52619   3.53797
 Alpha virt. eigenvalues --    3.58775   3.62512   3.68858   3.69593   3.73938
 Alpha virt. eigenvalues --    3.80634   3.85316   3.86468   3.88374   3.90964
 Alpha virt. eigenvalues --    3.94033   3.98396   3.99929   4.07240   4.08284
 Alpha virt. eigenvalues --    4.12382   4.15083   4.19686   4.20625   4.24293
 Alpha virt. eigenvalues --    4.27483   4.29601   4.32633   4.35663   4.37159
 Alpha virt. eigenvalues --    4.42239   4.46305   4.52151   4.54273   4.67439
 Alpha virt. eigenvalues --    4.68444   4.93028   5.13319   5.18292   5.25979
 Alpha virt. eigenvalues --    5.28980   5.46281   5.48944   5.55521   5.57203
 Alpha virt. eigenvalues --    5.60478   5.63868   5.68959   5.82714   5.87866
 Alpha virt. eigenvalues --    6.28032   6.46937   6.78225   7.12054   7.19772
 Alpha virt. eigenvalues --    7.27921   7.68194   7.72985  24.31902  24.43433
 Alpha virt. eigenvalues --   24.53438  50.16319
  Beta  occ. eigenvalues --  -19.64602 -10.58304 -10.56926 -10.52565  -1.17699
  Beta  occ. eigenvalues --   -0.84966  -0.77791  -0.66401  -0.56973  -0.53590
  Beta  occ. eigenvalues --   -0.52936  -0.46901  -0.44718  -0.43688  -0.40096
  Beta  occ. eigenvalues --   -0.37330
  Beta virt. eigenvalues --   -0.00207   0.02040   0.03123   0.04184   0.05138
  Beta virt. eigenvalues --    0.05524   0.06822   0.07818   0.09264   0.10071
  Beta virt. eigenvalues --    0.11813   0.13057   0.14686   0.17802   0.19688
  Beta virt. eigenvalues --    0.20560   0.21573   0.21909   0.22953   0.24673
  Beta virt. eigenvalues --    0.25580   0.27828   0.28026   0.31190   0.34893
  Beta virt. eigenvalues --    0.36874   0.37165   0.43457   0.44510   0.45641
  Beta virt. eigenvalues --    0.47220   0.50269   0.52113   0.54216   0.55024
  Beta virt. eigenvalues --    0.56320   0.57310   0.58746   0.59438   0.61251
  Beta virt. eigenvalues --    0.62639   0.64241   0.65447   0.68423   0.70868
  Beta virt. eigenvalues --    0.73664   0.77959   0.80307   0.84092   0.86092
  Beta virt. eigenvalues --    0.87171   0.90913   0.92234   0.98506   0.99373
  Beta virt. eigenvalues --    1.01970   1.05396   1.07782   1.10696   1.12536
  Beta virt. eigenvalues --    1.14200   1.14742   1.17575   1.18140   1.20095
  Beta virt. eigenvalues --    1.22208   1.22523   1.27323   1.29267   1.31147
  Beta virt. eigenvalues --    1.32574   1.35779   1.38337   1.40604   1.42971
  Beta virt. eigenvalues --    1.43993   1.44487   1.45095   1.49924   1.50499
  Beta virt. eigenvalues --    1.53523   1.58386   1.58895   1.63660   1.69325
  Beta virt. eigenvalues --    1.75807   1.97293   2.02863   2.11210   2.25733
  Beta virt. eigenvalues --    2.31477   2.37107   2.44443   2.45013   2.51366
  Beta virt. eigenvalues --    2.55185   2.60078   2.67334   2.81008   2.83272
  Beta virt. eigenvalues --    2.89992   2.93675   2.96848   2.97801   3.00494
  Beta virt. eigenvalues --    3.05374   3.07100   3.09342   3.11271   3.14166
  Beta virt. eigenvalues --    3.16380   3.16839   3.18187   3.20377   3.25743
  Beta virt. eigenvalues --    3.27859   3.30884   3.33320   3.36145   3.39173
  Beta virt. eigenvalues --    3.44414   3.45381   3.47976   3.51520   3.53427
  Beta virt. eigenvalues --    3.54910   3.61485   3.63672   3.70550   3.72412
  Beta virt. eigenvalues --    3.75974   3.82187   3.85537   3.86837   3.88534
  Beta virt. eigenvalues --    3.91638   3.94566   3.99424   4.01144   4.08890
  Beta virt. eigenvalues --    4.09257   4.13302   4.15097   4.19970   4.21485
  Beta virt. eigenvalues --    4.24689   4.28161   4.30266   4.32985   4.36417
  Beta virt. eigenvalues --    4.37684   4.42513   4.47140   4.53561   4.55376
  Beta virt. eigenvalues --    4.70291   4.72027   4.93258   5.15726   5.19777
  Beta virt. eigenvalues --    5.26650   5.29708   5.48843   5.49762   5.55659
  Beta virt. eigenvalues --    5.57475   5.60319   5.64428   5.69625   5.83505
  Beta virt. eigenvalues --    5.88636   6.28359   6.47283   6.78915   7.12867
  Beta virt. eigenvalues --    7.20682   7.28893   7.68572   7.72912  24.32373
  Beta virt. eigenvalues --   24.43413  24.54368  50.16066
          Condensed to atoms (all electrons):
               1          2          3          4          5          6
     1  O    8.190648  -0.092635   0.150440   0.042937   0.007391   0.005669
     2  C   -0.092635   5.052853  -0.029698   0.304046   0.427095   0.416910
     3  C    0.150440  -0.029698   4.934067  -0.111829  -0.000553   0.000351
     4  C    0.042937   0.304046  -0.111829   5.587012  -0.064565  -0.049083
     5  H    0.007391   0.427095  -0.000553  -0.064565   0.564669  -0.039821
     6  H    0.005669   0.416910   0.000351  -0.049083  -0.039821   0.577654
     7  H   -0.007187   0.404865   0.004228  -0.021175  -0.027311  -0.027860
     8  H   -0.054237   0.003010   0.422370   0.013904   0.000011   0.000028
     9  H   -0.040937  -0.005423   0.433925   0.006907  -0.000065   0.000055
    10  H   -0.046956  -0.001493   0.431067  -0.007271   0.000067  -0.000169
    11  H   -0.044345  -0.032755   0.008707   0.404393   0.001212  -0.006544
               7          8          9         10         11
     1  O   -0.007187  -0.054237  -0.040937  -0.046956  -0.044345
     2  C    0.404865   0.003010  -0.005423  -0.001493  -0.032755
     3  C    0.004228   0.422370   0.433925   0.431067   0.008707
     4  C   -0.021175   0.013904   0.006907  -0.007271   0.404393
     5  H   -0.027311   0.000011  -0.000065   0.000067   0.001212
     6  H   -0.027860   0.000028   0.000055  -0.000169  -0.006544
     7  H    0.536502  -0.000034  -0.000033  -0.000021   0.003961
     8  H   -0.000034   0.536460  -0.023470  -0.025731  -0.000209
     9  H   -0.000033  -0.023470   0.555450  -0.050332  -0.004078
    10  H   -0.000021  -0.025731  -0.050332   0.577774   0.006648
    11  H    0.003961  -0.000209  -0.004078   0.006648   0.518149
          Atomic-Atomic Spin Densities.
               1          2          3          4          5          6
     1  O    0.267300   0.029245   0.021798  -0.250019   0.001448   0.004365
     2  C    0.029245   0.004058  -0.001366  -0.101542   0.031248   0.020379
     3  C    0.021798  -0.001366   0.018053  -0.012094  -0.000755   0.001357
     4  C   -0.250019  -0.101542  -0.012094   1.349822  -0.042608  -0.026945
     5  H    0.001448   0.031248  -0.000755  -0.042608   0.039624  -0.012990
     6  H    0.004365   0.020379   0.001357  -0.026945  -0.012990   0.048955
     7  H   -0.000482  -0.011255   0.000360   0.009048   0.000900  -0.000530
     8  H   -0.000153   0.000104  -0.004166   0.002702  -0.000003   0.000001
     9  H   -0.008326  -0.001134   0.003245   0.014212  -0.000167   0.000114
    10  H   -0.006456  -0.000455  -0.003479   0.001803   0.000116  -0.000280
    11  H   -0.000365  -0.005807   0.001392  -0.012002   0.003194  -0.004061
               7          8          9         10         11
     1  O   -0.000482  -0.000153  -0.008326  -0.006456  -0.000365
     2  C   -0.011255   0.000104  -0.001134  -0.000455  -0.005807
     3  C    0.000360  -0.004166   0.003245  -0.003479   0.001392
     4  C    0.009048   0.002702   0.014212   0.001803  -0.012002
     5  H    0.000900  -0.000003  -0.000167   0.000116   0.003194
     6  H   -0.000530   0.000001   0.000114  -0.000280  -0.004061
     7  H    0.004252   0.000015  -0.000021   0.000009  -0.000104
     8  H    0.000015  -0.000761   0.001709   0.000283  -0.000048
     9  H   -0.000021   0.001709  -0.000888  -0.005079  -0.001856
    10  H    0.000009   0.000283  -0.005079   0.013261   0.003891
    11  H   -0.000104  -0.000048  -0.001856   0.003891  -0.020460
 Mulliken charges and spin densities:
               1          2
     1  O   -0.110790   0.058357
     2  C   -0.446777  -0.036524
     3  C   -0.243075   0.024343
     4  C   -0.105277   0.932377
     5  H    0.131870   0.020008
     6  H    0.122809   0.030366
     7  H    0.134064   0.002194
     8  H    0.127897  -0.000317
     9  H    0.128000   0.001809
    10  H    0.116417   0.003614
    11  H    0.144860  -0.036227
 Sum of Mulliken charges =  -0.00000   1.00000
 Mulliken charges and spin densities with hydrogens summed into heavy atoms:
               1          2
     1  O   -0.110790   0.058357
     2  C   -0.058033   0.016043
     3  C    0.129239   0.029449
     4  C    0.039583   0.896150
 Electronic spatial extent (au):  <R**2>=            358.6224
 Charge=             -0.0000 electrons
 Dipole moment (field-independent basis, Debye):
    X=             -0.6031    Y=              0.7905    Z=             -0.3337  Tot=              1.0488
 Quadrupole moment (field-independent basis, Debye-Ang):
   XX=            -22.3548   YY=            -26.6024   ZZ=            -27.0402
   XY=             -0.3202   XZ=             -0.0728   YZ=             -0.6474
 Traceless Quadrupole moment (field-independent basis, Debye-Ang):
   XX=              2.9776   YY=             -1.2699   ZZ=             -1.7077
   XY=             -0.3202   XZ=             -0.0728   YZ=             -0.6474
 Octapole moment (field-independent basis, Debye-Ang**2):
  XXX=             -8.1806  YYY=             -2.4295  ZZZ=             -1.1447  XYY=             -1.2674
  XXY=             -1.8186  XXZ=              0.0748  XZZ=             -1.0610  YZZ=             -0.5357
  YYZ=             -1.1089  XYZ=             -0.2264
 Hexadecapole moment (field-independent basis, Debye-Ang**3):
 XXXX=           -375.1004 YYYY=            -64.1730 ZZZZ=            -44.6762 XXXY=              6.1167
 XXXZ=              1.7620 YYYX=              0.3925 YYYZ=             -1.9146 ZZZX=             -1.0007
 ZZZY=             -1.1090 XXYY=            -73.2040 XXZZ=            -68.9027 YYZZ=            -19.3542
 XXYZ=              0.2854 YYXZ=              0.5106 ZZXY=             -0.1036
 N-N= 1.256510728030D+02 E-N=-7.031927696736D+02  KE= 1.929312506930D+02
                          Isotropic Fermi Contact Couplings
        Atom                 a.u.       MegaHertz       Gauss      10(-4) cm-1
     1  O(17)              0.03003     -18.20318      -6.49535      -6.07193
     2  C(13)             -0.01799     -20.22045      -7.21516      -6.74482
     3  C(13)             -0.00092      -1.03291      -0.36857      -0.34454
     4  C(13)              0.21271     239.12571      85.32600      79.76375
     5  H(1)               0.01581      70.68491      25.22213      23.57795
     6  H(1)               0.01775      79.35019      28.31412      26.46837
     7  H(1)              -0.00013      -0.57908      -0.20663      -0.19316
     8  H(1)              -0.00050      -2.23520      -0.79758      -0.74558
     9  H(1)               0.00140       6.23576       2.22507       2.08003
    10  H(1)               0.00183       8.16701       2.91419       2.72422
    11  H(1)              -0.00651     -29.10585     -10.38569      -9.70867
 --------------------------------------------------------
       Center         ----  Spin Dipole Couplings  ----
                      3XX-RR        3YY-RR        3ZZ-RR
 --------------------------------------------------------
     1   Atom       -0.384891     -0.412122      0.797013
     2   Atom        0.009723     -0.012069      0.002346
     3   Atom        0.018047     -0.007571     -0.010476
     4   Atom       -0.500825     -0.473681      0.974506
     5   Atom        0.018042     -0.009826     -0.008216
     6   Atom        0.009730     -0.006575     -0.003155
     7   Atom        0.002401      0.005075     -0.007476
     8   Atom        0.009584     -0.004930     -0.004654
     9   Atom        0.013841     -0.006806     -0.007036
    10   Atom        0.009339     -0.005222     -0.004116
    11   Atom       -0.056341      0.051009      0.005333
 --------------------------------------------------------
                        XY            XZ            YZ
 --------------------------------------------------------
     1   Atom       -0.028964      0.024073      0.084385
     2   Atom       -0.010862     -0.009309      0.008018
     3   Atom       -0.001194      0.005817      0.000514
     4   Atom       -0.019719     -0.101016      0.210519
     5   Atom       -0.003422      0.007222     -0.000303
     6   Atom       -0.003492     -0.009703      0.000337
     7   Atom       -0.012551     -0.001986      0.001707
     8   Atom        0.004091      0.001180      0.000555
     9   Atom       -0.001495     -0.005425      0.001387
    10   Atom       -0.003950      0.006594     -0.001322
    11   Atom       -0.029652      0.003133     -0.026828
 --------------------------------------------------------


 ---------------------------------------------------------------------------------
              Anisotropic Spin Dipole Couplings in Principal Axis System
 ---------------------------------------------------------------------------------

       Atom             a.u.   MegaHertz   Gauss  10(-4) cm-1        Axes

              Baa    -0.4363    31.570    11.265    10.531  0.5139  0.8551 -0.0685
     1 O(17)  Bbb    -0.3670    26.555     9.475     8.858  0.8576 -0.5139  0.0195
              Bcc     0.8033   -58.125   -20.740   -19.388  0.0185  0.0688  0.9975
 
              Baa    -0.0175    -2.350    -0.839    -0.784  0.2880  0.9272 -0.2394
     2 C(13)  Bbb    -0.0040    -0.532    -0.190    -0.177  0.5787  0.0307  0.8150
              Bcc     0.0215     2.882     1.028     0.961  0.7630 -0.3732 -0.5278
 
              Baa    -0.0117    -1.576    -0.562    -0.526 -0.1954 -0.1748  0.9650
     3 C(13)  Bbb    -0.0075    -1.004    -0.358    -0.335  0.0052  0.9838  0.1792
              Bcc     0.0192     2.581     0.921     0.861  0.9807 -0.0400  0.1913
 
              Baa    -0.5114   -68.625   -24.487   -22.891  0.8247  0.5651 -0.0240
     4 C(13)  Bbb    -0.5001   -67.105   -23.945   -22.384 -0.5615  0.8129 -0.1545
              Bcc     1.0115   135.730    48.432    45.275 -0.0678  0.1409  0.9877
 
              Baa    -0.0107    -5.708    -2.037    -1.904  0.2447  0.7445 -0.6212
     5 H(1)   Bbb    -0.0096    -5.112    -1.824    -1.705 -0.1131  0.6582  0.7443
              Bcc     0.0203    10.820     3.861     3.609  0.9630 -0.1119  0.2453
 
              Baa    -0.0092    -4.907    -1.751    -1.637  0.4630  0.5248  0.7143
     6 H(1)   Bbb    -0.0062    -3.316    -1.183    -1.106 -0.1372  0.8386 -0.5272
              Bcc     0.0154     8.224     2.934     2.743  0.8757 -0.1461 -0.4603
 
              Baa    -0.0090    -4.789    -1.709    -1.597  0.7353  0.6249  0.2625
     7 H(1)   Bbb    -0.0077    -4.089    -1.459    -1.364 -0.1269 -0.2535  0.9590
              Bcc     0.0166     8.878     3.168     2.961 -0.6658  0.7384  0.1071
 
              Baa    -0.0060    -3.226    -1.151    -1.076 -0.2363  0.9548 -0.1801
     8 H(1)   Bbb    -0.0047    -2.517    -0.898    -0.840 -0.1249  0.1540  0.9801
              Bcc     0.0108     5.743     2.049     1.916  0.9636  0.2541  0.0829
 
              Baa    -0.0089    -4.733    -1.689    -1.579  0.1781 -0.4566  0.8717
     9 H(1)   Bbb    -0.0064    -3.436    -1.226    -1.146  0.1796  0.8860  0.4274
              Bcc     0.0153     8.169     2.915     2.725  0.9675 -0.0804 -0.2399
 
              Baa    -0.0069    -3.683    -1.314    -1.229 -0.4229 -0.3300  0.8440
    10 H(1)   Bbb    -0.0061    -3.242    -1.157    -1.082  0.0672  0.9173  0.3924
              Bcc     0.0130     6.926     2.471     2.310  0.9037 -0.2226  0.3657
 
              Baa    -0.0642   -34.253   -12.222   -11.426  0.9635  0.2614  0.0574
    11 H(1)   Bbb    -0.0056    -2.980    -1.063    -0.994 -0.1519  0.3573  0.9216
              Bcc     0.0698    37.233    13.286    12.420 -0.2203  0.8967 -0.3840
 

 ---------------------------------------------------------------------------------

 No NMR shielding tensors so no spin-rotation constants.
 Leave Link  601 at Fri Mar 29 11:20:32 2019, MaxMem=   671088640 cpu:               7.2 elap:               0.4
 (Enter /shared/centos7/gaussian/g16/l9999.exe)
 1\1\GINC-C0282\Scan\UM062X\6-311+G(2df,2p)\C3H7O1(2)\UNDERKOFFLER.C\29
 -Mar-2019\0\\#p m062x/6-311+g(2df,2p) Opt=(CalcFC,ModRedun)\\Gaussian 
 Input Prepared from Scan Object\\0,2\O,-0.3971268687,0.3356898799,0.64
 50541279\C,1.8771430146,-0.0608944109,-0.0081603177\C,-1.7587637373,0.
 4055080001,0.2853372784\C,0.4441190478,0.0635307383,-0.3852423266\H,2.
 5181635676,0.5428755971,-0.653228385\H,2.2351157073,-1.092691951,-0.05
 64209782\H,2.0083196668,0.2962338853,1.0122961923\H,-2.3227198802,0.60
 7376713,1.19136043\H,-1.9243190903,1.2071042078,-0.4377649292\H,-2.092
 4422107,-0.5417064988,-0.1472425785\H,0.0182917832,-0.5296031607,-1.18
 98225135\\Version=EM64L-G16RevA.03\State=2-A\HF=-193.6565461,-193.6558
 017,-193.6563334,-193.6562684,-193.6546544,-193.6557827,-193.656347,-1
 93.6562579,-193.654656,-193.6557914,-193.6563371,-193.6562707,-193.654
 6781\S2=0.754321,0.754539,0.754402,0.754287,0.754399,0.754544,0.754399
 ,0.75429,0.754399,0.754542,0.754402,0.754288,0.754397\S2-1=0.,0.,0.,0.
 ,0.,0.,0.,0.,0.,0.,0.,0.,0.\S2A=0.750015,0.750017,0.750015,0.750014,0.
 750015,0.750017,0.750015,0.750014,0.750015,0.750017,0.750015,0.750014,
 0.750015\RMSD=9.012e-09,3.424e-09,3.037e-09,8.653e-09,3.729e-09,6.593e
 -09,6.073e-09,6.578e-09,3.559e-09,8.947e-09,6.630e-09,6.757e-09,5.944e
 -09\PG=C01 [X(C3H7O1)]\\@


 EDUCATION WITHOUT COMMON SENSE IS A LOAD OF BOOKS ON THE BACK OF AN ASS.
 Job cpu time:       0 days 11 hours 18 minutes 37.2 seconds.
 Elapsed time:       0 days  0 hours 45 minutes 10.7 seconds.
 File lengths (MBytes):  RWF=   1328 Int=      0 D2E=      0 Chk=     32 Scr=     32
 Normal termination of Gaussian 16 at Fri Mar 29 11:20:33 2019.
