 Entering Gaussian System, Link 0=g16
 Input=JQCSUVJDBHJKNG-UHFFFAOYSA-N_GeoFreq_a1.com
 Output=JQCSUVJDBHJKNG-UHFFFAOYSA-N_GeoFreq_a1.log
 Initial command:
 /shared/centos7/gaussian/g16/l1.exe "/scratch/underkoffler.c/gaussian_scratch/Gau-37213.inp" -scrdir="/scratch/underkoffler.c/gaussian_scratch/"
 Entering Link 1 = /shared/centos7/gaussian/g16/l1.exe PID=     37214.
  
 Copyright (c) 1988,1990,1992,1993,1995,1998,2003,2009,2016,
            Gaussian, Inc.  All Rights Reserved.
  
 This is part of the Gaussian(R) 16 program.  It is based on
 the Gaussian(R) 09 system (copyright 2009, Gaussian, Inc.),
 the Gaussian(R) 03 system (copyright 2003, Gaussian, Inc.),
 the Gaussian(R) 98 system (copyright 1998, Gaussian, Inc.),
 the Gaussian(R) 94 system (copyright 1995, Gaussian, Inc.),
 the Gaussian 92(TM) system (copyright 1992, Gaussian, Inc.),
 the Gaussian 90(TM) system (copyright 1990, Gaussian, Inc.),
 the Gaussian 88(TM) system (copyright 1988, Gaussian, Inc.),
 the Gaussian 86(TM) system (copyright 1986, Carnegie Mellon
 University), and the Gaussian 82(TM) system (copyright 1983,
 Carnegie Mellon University). Gaussian is a federally registered
 trademark of Gaussian, Inc.
  
 This software contains proprietary and confidential information,
 including trade secrets, belonging to Gaussian, Inc.
  
 This software is provided under written license and may be
 used, copied, transmitted, or stored only in accord with that
 written license.
  
 The following legend is applicable only to US Government
 contracts under FAR:
  
                    RESTRICTED RIGHTS LEGEND
  
 Use, reproduction and disclosure by the US Government is
 subject to restrictions as set forth in subparagraphs (a)
 and (c) of the Commercial Computer Software - Restricted
 Rights clause in FAR 52.227-19.
  
 Gaussian, Inc.
 340 Quinnipiac St., Bldg. 40, Wallingford CT 06492
  
  
 ---------------------------------------------------------------
 Warning -- This program may not be used in any manner that
 competes with the business of Gaussian, Inc. or will provide
 assistance to any competitor of Gaussian, Inc.  The licensee
 of this program is prohibited from giving any competitor of
 Gaussian, Inc. access to this program.  By using this program,
 the user acknowledges that Gaussian, Inc. is engaged in the
 business of creating and licensing software in the field of
 computational chemistry and represents and warrants to the
 licensee that it is not a competitor of Gaussian, Inc. and that
 it will not use this program in any manner prohibited above.
 ---------------------------------------------------------------
  

 Cite this work as:
 Gaussian 16, Revision A.03,
 M. J. Frisch, G. W. Trucks, H. B. Schlegel, G. E. Scuseria, 
 M. A. Robb, J. R. Cheeseman, G. Scalmani, V. Barone, 
 G. A. Petersson, H. Nakatsuji, X. Li, M. Caricato, A. V. Marenich, 
 J. Bloino, B. G. Janesko, R. Gomperts, B. Mennucci, H. P. Hratchian, 
 J. V. Ortiz, A. F. Izmaylov, J. L. Sonnenberg, D. Williams-Young, 
 F. Ding, F. Lipparini, F. Egidi, J. Goings, B. Peng, A. Petrone, 
 T. Henderson, D. Ranasinghe, V. G. Zakrzewski, J. Gao, N. Rega, 
 G. Zheng, W. Liang, M. Hada, M. Ehara, K. Toyota, R. Fukuda, 
 J. Hasegawa, M. Ishida, T. Nakajima, Y. Honda, O. Kitao, H. Nakai, 
 T. Vreven, K. Throssell, J. A. Montgomery, Jr., J. E. Peralta, 
 F. Ogliaro, M. J. Bearpark, J. J. Heyd, E. N. Brothers, K. N. Kudin, 
 V. N. Staroverov, T. A. Keith, R. Kobayashi, J. Normand, 
 K. Raghavachari, A. P. Rendell, J. C. Burant, S. S. Iyengar, 
 J. Tomasi, M. Cossi, J. M. Millam, M. Klene, C. Adamo, R. Cammi, 
 J. W. Ochterski, R. L. Martin, K. Morokuma, O. Farkas, 
 J. B. Foresman, and D. J. Fox, Gaussian, Inc., Wallingford CT, 2016.
 
 ******************************************
 Gaussian 16:  EM64L-G16RevA.03 25-Dec-2016
                11-Mar-2019 
 ******************************************
 %nprocshared=20
 Will use up to   20 processors via shared memory.
 %mem=5GB
 ----------------------------------------------------------------------
 #p m062x/6-311+g(2df,2p) opt=(calcfc,verytight,gdiis,maxcycles=900) fr
 eq iop(7/33=1,2/16=3)
 ----------------------------------------------------------------------

 Warning!  Use of Opt=GDIIS is deprecated since it is seldom a good choice.

 1/6=900,7=1,10=4,18=20,19=11,26=3,38=1/1,3;
 2/9=110,12=2,16=3,17=6,18=5,40=1/2;
 3/5=4,6=6,7=214,11=2,25=1,30=1,71=2,74=-55,140=1/1,2,3;
 4//1;
 5/5=2,38=5/2;
 8/6=4,10=90,11=11/1;
 11/6=1,8=1,9=11,15=111,16=1/1,2,10;
 10/6=1,13=1/2;
 6/7=2,8=2,9=2,10=2,28=1/1;
 7/10=1,18=20,25=1,33=1/1,2,3,16;
 1/6=900,7=1,10=4,18=20,19=11,26=3/3(2);
 2/9=110,16=3/2;
 99//99;
 2/9=110,16=3/2;
 3/5=4,6=6,7=214,11=2,25=1,30=1,71=1,74=-55/1,2,3;
 4/5=5,16=3,69=1/1;
 5/5=2,38=5/2;
 7/33=1/1,2,3,16;
 1/6=900,7=1,18=20,19=11,26=3/3(-5);
 2/9=110,16=3/2;
 6/7=2,8=2,9=2,10=2,19=2,28=1/1;
 99/9=1/99;
 Leave Link    1 at Mon Mar 11 15:41:23 2019, MaxMem=   671088640 cpu:              32.7 elap:               1.7
 (Enter /shared/centos7/gaussian/g16/l101.exe)
 ------------------------------
 Gaussian input prepared by ASE
 ------------------------------
 Symbolic Z-matrix:
 Charge =  0 Multiplicity = 2
 O                    -0.69352   0.68559   0.14933 
 C                     1.46461  -0.52302   0.04236 
 C                    -1.39406  -0.52239  -0.05203 
 C                     0.62494   0.68632  -0.179 
 H                     1.47114  -0.83638   1.09507 
 H                     2.49091  -0.3015   -0.24271 
 H                     1.13333  -1.37934  -0.54793 
 H                    -2.43733  -0.31928   0.17154 
 H                    -1.30193  -0.85415  -1.08927 
 H                    -1.03238  -1.31122   0.61058 
 H                     1.05153   1.67165  -0.05992 
 
 ITRead=  0  0  0  0  0  0  0  0  0  0  0
 MicOpt= -1 -1 -1 -1 -1 -1 -1 -1 -1 -1 -1
 NAtoms=     11 NQM=       11 NQMF=       0 NMMI=      0 NMMIF=      0
                NMic=       0 NMicF=      0.
                    Isotopes and Nuclear Properties:
 (Nuclear quadrupole moments (NQMom) in fm**2, nuclear magnetic moments (NMagM)
  in nuclear magnetons)

  Atom         1           2           3           4           5           6           7           8           9          10
 IAtWgt=          16          12          12          12           1           1           1           1           1           1
 AtmWgt=  15.9949146  12.0000000  12.0000000  12.0000000   1.0078250   1.0078250   1.0078250   1.0078250   1.0078250   1.0078250
 NucSpn=           0           0           0           0           1           1           1           1           1           1
 AtZEff=  -0.0000000  -0.0000000  -0.0000000  -0.0000000  -0.0000000  -0.0000000  -0.0000000  -0.0000000  -0.0000000  -0.0000000
 NQMom=    0.0000000   0.0000000   0.0000000   0.0000000   0.0000000   0.0000000   0.0000000   0.0000000   0.0000000   0.0000000
 NMagM=    0.0000000   0.0000000   0.0000000   0.0000000   2.7928460   2.7928460   2.7928460   2.7928460   2.7928460   2.7928460
 AtZNuc=   8.0000000   6.0000000   6.0000000   6.0000000   1.0000000   1.0000000   1.0000000   1.0000000   1.0000000   1.0000000

  Atom        11
 IAtWgt=           1
 AtmWgt=   1.0078250
 NucSpn=           1
 AtZEff=  -0.0000000
 NQMom=    0.0000000
 NMagM=    2.7928460
 AtZNuc=   1.0000000
 Leave Link  101 at Mon Mar 11 15:41:23 2019, MaxMem=   671088640 cpu:               5.1 elap:               0.3
 (Enter /shared/centos7/gaussian/g16/l103.exe)

 GradGradGradGradGradGradGradGradGradGradGradGradGradGradGradGradGradGrad
 Berny optimization.
 Initialization pass.
                           ----------------------------
                           !    Initial Parameters    !
                           ! (Angstroms and Degrees)  !
 --------------------------                            --------------------------
 ! Name  Definition              Value          Derivative Info.                !
 --------------------------------------------------------------------------------
 ! R1    R(1,3)                  1.4109         calculate D2E/DX2 analytically  !
 ! R2    R(1,4)                  1.3587         calculate D2E/DX2 analytically  !
 ! R3    R(2,4)                  1.4888         calculate D2E/DX2 analytically  !
 ! R4    R(2,5)                  1.0984         calculate D2E/DX2 analytically  !
 ! R5    R(2,6)                  1.088          calculate D2E/DX2 analytically  !
 ! R6    R(2,7)                  1.0915         calculate D2E/DX2 analytically  !
 ! R7    R(3,8)                  1.0861         calculate D2E/DX2 analytically  !
 ! R8    R(3,9)                  1.0929         calculate D2E/DX2 analytically  !
 ! R9    R(3,10)                 1.0918         calculate D2E/DX2 analytically  !
 ! R10   R(4,11)                 1.0803         calculate D2E/DX2 analytically  !
 ! A1    A(3,1,4)              116.602          calculate D2E/DX2 analytically  !
 ! A2    A(4,2,5)              112.1848         calculate D2E/DX2 analytically  !
 ! A3    A(4,2,6)              109.128          calculate D2E/DX2 analytically  !
 ! A4    A(4,2,7)              112.685          calculate D2E/DX2 analytically  !
 ! A5    A(5,2,6)              107.6747         calculate D2E/DX2 analytically  !
 ! A6    A(5,2,7)              107.2351         calculate D2E/DX2 analytically  !
 ! A7    A(6,2,7)              107.718          calculate D2E/DX2 analytically  !
 ! A8    A(1,3,8)              106.7053         calculate D2E/DX2 analytically  !
 ! A9    A(1,3,9)              110.7017         calculate D2E/DX2 analytically  !
 ! A10   A(1,3,10)             111.5608         calculate D2E/DX2 analytically  !
 ! A11   A(8,3,9)              109.4573         calculate D2E/DX2 analytically  !
 ! A12   A(8,3,10)             109.1702         calculate D2E/DX2 analytically  !
 ! A13   A(9,3,10)             109.1922         calculate D2E/DX2 analytically  !
 ! A14   A(1,4,2)              120.7247         calculate D2E/DX2 analytically  !
 ! A15   A(1,4,11)             110.9185         calculate D2E/DX2 analytically  !
 ! A16   A(2,4,11)             120.1177         calculate D2E/DX2 analytically  !
 ! D1    D(4,1,3,8)           -174.897          calculate D2E/DX2 analytically  !
 ! D2    D(4,1,3,9)            -55.8713         calculate D2E/DX2 analytically  !
 ! D3    D(4,1,3,10)            65.9447         calculate D2E/DX2 analytically  !
 ! D4    D(3,1,4,2)            -35.8514         calculate D2E/DX2 analytically  !
 ! D5    D(3,1,4,11)           175.7104         calculate D2E/DX2 analytically  !
 ! D6    D(5,2,4,1)            -58.2474         calculate D2E/DX2 analytically  !
 ! D7    D(5,2,4,11)            87.3346         calculate D2E/DX2 analytically  !
 ! D8    D(6,2,4,1)           -177.4879         calculate D2E/DX2 analytically  !
 ! D9    D(6,2,4,11)           -31.9059         calculate D2E/DX2 analytically  !
 ! D10   D(7,2,4,1)             62.9016         calculate D2E/DX2 analytically  !
 ! D11   D(7,2,4,11)          -151.5164         calculate D2E/DX2 analytically  !
 --------------------------------------------------------------------------------
 Trust Radius=3.00D-01 FncErr=1.00D-07 GrdErr=1.00D-06 EigMax=2.50D+02 EigMin=1.00D-04
 Number of steps in this run=    100 maximum allowed number of steps=    100.
 GradGradGradGradGradGradGradGradGradGradGradGradGradGradGradGradGradGrad

 Leave Link  103 at Mon Mar 11 15:41:23 2019, MaxMem=   671088640 cpu:               0.2 elap:               0.0
 (Enter /shared/centos7/gaussian/g16/l202.exe)
                          Input orientation:                          
 ---------------------------------------------------------------------
 Center     Atomic      Atomic             Coordinates (Angstroms)
 Number     Number       Type             X           Y           Z
 ---------------------------------------------------------------------
      1          8           0       -0.693521    0.685591    0.149327
      2          6           0        1.464606   -0.523019    0.042364
      3          6           0       -1.394058   -0.522389   -0.052033
      4          6           0        0.624935    0.686319   -0.178995
      5          1           0        1.471137   -0.836381    1.095074
      6          1           0        2.490909   -0.301497   -0.242707
      7          1           0        1.133327   -1.379337   -0.547931
      8          1           0       -2.437329   -0.319275    0.171539
      9          1           0       -1.301927   -0.854145   -1.089275
     10          1           0       -1.032377   -1.311216    0.610584
     11          1           0        1.051532    1.671650   -0.059915
 ---------------------------------------------------------------------
                    Distance matrix (angstroms):
                    1          2          3          4          5
     1  O    0.000000
     2  C    2.475821   0.000000
     3  C    1.410856   2.860222   0.000000
     4  C    1.358721   1.488807   2.356571   0.000000
     5  H    2.810085   1.098379   3.102223   2.158223   0.000000
     6  H    3.356878   1.087950   3.895910   2.112273   1.765133
     7  H    2.843848   1.091547   2.714397   2.159053   1.763060
     8  H    2.012738   3.909385   1.086119   3.242153   4.049250
     9  H    2.067627   3.007317   1.092896   2.629532   3.530096
    10  H    2.077214   2.679375   1.091844   2.712981   2.593797
    11  H    2.015268   2.235545   3.285541   1.080297   2.792899
                    6          7          8          9         10
     6  H    0.000000
     7  H    1.760094   0.000000
     8  H    4.945649   3.793541   0.000000
     9  H    3.925265   2.549381   1.779010   0.000000
    10  H    3.763135   2.457045   1.774992   1.780756   0.000000
    11  H    2.449189   3.090853   4.023618   3.602498   3.699964
                   11
    11  H    0.000000
 Stoichiometry    C3H7O(2)
 Framework group  C1[X(C3H7O)]
 Deg. of freedom    27
 Full point group                 C1      NOp   1
 Largest Abelian subgroup         C1      NOp   1
 Largest concise Abelian subgroup C1      NOp   1
                         Standard orientation:                         
 ---------------------------------------------------------------------
 Center     Atomic      Atomic             Coordinates (Angstroms)
 Number     Number       Type             X           Y           Z
 ---------------------------------------------------------------------
      1          8           0       -0.693521    0.685591    0.149327
      2          6           0        1.464606   -0.523019    0.042364
      3          6           0       -1.394058   -0.522389   -0.052033
      4          6           0        0.624935    0.686319   -0.178995
      5          1           0        1.471137   -0.836381    1.095074
      6          1           0        2.490909   -0.301497   -0.242707
      7          1           0        1.133327   -1.379337   -0.547931
      8          1           0       -2.437329   -0.319275    0.171539
      9          1           0       -1.301927   -0.854145   -1.089275
     10          1           0       -1.032377   -1.311216    0.610584
     11          1           0        1.051532    1.671650   -0.059915
 ---------------------------------------------------------------------
 Rotational constants (GHZ):          16.0062986           5.9437030           4.6504352
 Leave Link  202 at Mon Mar 11 15:41:23 2019, MaxMem=   671088640 cpu:               0.2 elap:               0.0
 (Enter /shared/centos7/gaussian/g16/l301.exe)
 Standard basis: 6-311+G(2df,2p) (5D, 7F)
 Ernie: Thresh=  0.10000D-02 Tol=  0.10000D-05 Strict=F.
 There are   219 symmetry adapted cartesian basis functions of A   symmetry.
 There are   199 symmetry adapted basis functions of A   symmetry.
   199 basis functions,   285 primitive gaussians,   219 cartesian basis functions
    17 alpha electrons       16 beta electrons
       nuclear repulsion energy       127.9074429397 Hartrees.
 IExCor= 4336 DFT=T Ex+Corr=M062X ExCW=0 ScaHFX=  0.540000
 ScaDFX=  1.000000  1.000000  1.000000  1.000000 ScalE2=  1.000000  1.000000
 IRadAn=      5 IRanWt=     -1 IRanGd=            0 ICorTp=0 IEmpDi=  4
 NAtoms=   11 NActive=   11 NUniq=   11 SFac= 1.00D+00 NAtFMM=   60 NAOKFM=F Big=F
 Integral buffers will be    131072 words long.
 Raffenetti 2 integral format.
 Two-electron integral symmetry is turned on.
 Leave Link  301 at Mon Mar 11 15:41:23 2019, MaxMem=   671088640 cpu:               0.9 elap:               0.1
 (Enter /shared/centos7/gaussian/g16/l302.exe)
 NPDir=0 NMtPBC=     1 NCelOv=     1 NCel=       1 NClECP=     1 NCelD=      1
         NCelK=      1 NCelE2=     1 NClLst=     1 CellRange=     0.0.
 One-electron integrals computed using PRISM.
 One-electron integral symmetry used in STVInt
 NBasis=   199 RedAO= T EigKep=  1.11D-04  NBF=   199
 NBsUse=   199 1.00D-06 EigRej= -1.00D+00 NBFU=   199
 Precomputing XC quadrature grid using
 IXCGrd= 4 IRadAn=           5 IRanWt=          -1 IRanGd=           0 AccXCQ= 0.00D+00.
 Generated NRdTot=       0 NPtTot=           0 NUsed=           0 NTot=          32
 NSgBfM=   219   219   219   219   219 MxSgAt=    11 MxSgA2=    11.
 Leave Link  302 at Mon Mar 11 15:41:24 2019, MaxMem=   671088640 cpu:               4.5 elap:               0.2
 (Enter /shared/centos7/gaussian/g16/l303.exe)
 DipDrv:  MaxL=1.
 Leave Link  303 at Mon Mar 11 15:41:24 2019, MaxMem=   671088640 cpu:               0.4 elap:               0.0
 (Enter /shared/centos7/gaussian/g16/l401.exe)
 ExpMin= 4.38D-02 ExpMax= 8.59D+03 ExpMxC= 1.30D+03 IAcc=3 IRadAn=         5 AccDes= 0.00D+00
 Harris functional with IExCor= 1009 and IRadAn=       5 diagonalized for initial guess.
 HarFok:  IExCor= 1009 AccDes= 0.00D+00 IRadAn=         5 IDoV= 1 UseB2=F ITyADJ=14
 ICtDFT=  3500011 ScaDFX=  1.000000  1.000000  1.000000  1.000000
 FoFCou: FMM=F IPFlag=           0 FMFlag=      100000 FMFlg1=           0
         NFxFlg=           0 DoJE=T BraDBF=F KetDBF=T FulRan=T
         wScrn=  0.000000 ICntrl=       500 IOpCl=  0 I1Cent=   200000004 NGrid=           0
         NMat0=    1 NMatS0=      1 NMatT0=    0 NMatD0=    1 NMtDS0=    0 NMtDT0=    0
 Petite list used in FoFCou.
 Harris En= -193.581019501184    
 JPrj=0 DoOrth=F DoCkMO=F.
 Initial guess <Sx>= 0.0000 <Sy>= 0.0000 <Sz>= 0.5000 <S**2>= 0.7500 S= 0.5000
 Leave Link  401 at Mon Mar 11 15:41:24 2019, MaxMem=   671088640 cpu:              10.7 elap:               0.6
 (Enter /shared/centos7/gaussian/g16/l502.exe)
 Keep R1 and R2 ints in memory in canonical form, NReq=416958841.
 FoFCou: FMM=F IPFlag=           0 FMFlag=           0 FMFlg1=           0
         NFxFlg=           0 DoJE=F BraDBF=F KetDBF=F FulRan=T
         wScrn=  0.000000 ICntrl=       600 IOpCl=  0 I1Cent=           0 NGrid=           0
         NMat0=    1 NMatS0=  19900 NMatT0=    0 NMatD0=    1 NMtDS0=    0 NMtDT0=    0
 Symmetry not used in FoFCou.
 Two-electron integral symmetry not used.
 UHF open shell SCF:
 Using DIIS extrapolation, IDIIS=  1040.
 NGot=   671088640 LenX=   274956345 LenY=   274907943
 Requested convergence on RMS density matrix=1.00D-08 within 128 cycles.
 Requested convergence on MAX density matrix=1.00D-06.
 Requested convergence on             energy=1.00D-06.
 No special actions if energy rises.

 Cycle   1  Pass 1  IDiag  1:
 E= -193.521633253754    
 DIIS: error= 2.76D-02 at cycle   1 NSaved=   1.
 NSaved= 1 IEnMin= 1 EnMin= -193.521633253754     IErMin= 1 ErrMin= 2.76D-02
 ErrMax= 2.76D-02  0.00D+00 EMaxC= 1.00D-01 BMatC= 6.28D-01 BMatP= 6.28D-01
 IDIUse=3 WtCom= 7.24D-01 WtEn= 2.76D-01
 Coeff-Com:  0.100D+01
 Coeff-En:   0.100D+01
 Coeff:      0.100D+01
 Gap=     0.202 Goal=   None    Shift=    0.000
 Gap=     0.391 Goal=   None    Shift=    0.000
 GapD=    0.202 DampG=1.000 DampE=0.500 DampFc=0.5000 IDamp=-1.
 Damping current iteration by 5.00D-01
 RMSDP=2.35D-03 MaxDP=1.13D-01              OVMax= 1.49D-01

 Cycle   2  Pass 1  IDiag  1:
 E= -193.590927677015     Delta-E=       -0.069294423261 Rises=F Damp=T
 DIIS: error= 5.61D-03 at cycle   2 NSaved=   2.
 NSaved= 2 IEnMin= 2 EnMin= -193.590927677015     IErMin= 2 ErrMin= 5.61D-03
 ErrMax= 5.61D-03  0.00D+00 EMaxC= 1.00D-01 BMatC= 4.87D-02 BMatP= 6.28D-01
 IDIUse=3 WtCom= 9.44D-01 WtEn= 5.61D-02
 Coeff-Com: -0.180D+00 0.118D+01
 Coeff-En:   0.000D+00 0.100D+01
 Coeff:     -0.170D+00 0.117D+01
 Gap=     0.236 Goal=   None    Shift=    0.000
 Gap=     0.392 Goal=   None    Shift=    0.000
 RMSDP=7.34D-04 MaxDP=2.10D-02 DE=-6.93D-02 OVMax= 7.23D-02

 Cycle   3  Pass 1  IDiag  1:
 E= -193.652596909839     Delta-E=       -0.061669232824 Rises=F Damp=F
 DIIS: error= 2.93D-03 at cycle   3 NSaved=   3.
 NSaved= 3 IEnMin= 3 EnMin= -193.652596909839     IErMin= 3 ErrMin= 2.93D-03
 ErrMax= 2.93D-03  0.00D+00 EMaxC= 1.00D-01 BMatC= 4.18D-03 BMatP= 4.87D-02
 IDIUse=3 WtCom= 9.71D-01 WtEn= 2.93D-02
 Coeff-Com: -0.784D-01 0.237D+00 0.842D+00
 Coeff-En:   0.000D+00 0.000D+00 0.100D+01
 Coeff:     -0.762D-01 0.230D+00 0.846D+00
 Gap=     0.231 Goal=   None    Shift=    0.000
 Gap=     0.362 Goal=   None    Shift=    0.000
 RMSDP=1.60D-04 MaxDP=7.83D-03 DE=-6.17D-02 OVMax= 9.64D-03

 Cycle   4  Pass 1  IDiag  1:
 E= -193.653662371121     Delta-E=       -0.001065461282 Rises=F Damp=F
 DIIS: error= 7.25D-04 at cycle   4 NSaved=   4.
 NSaved= 4 IEnMin= 4 EnMin= -193.653662371121     IErMin= 4 ErrMin= 7.25D-04
 ErrMax= 7.25D-04  0.00D+00 EMaxC= 1.00D-01 BMatC= 3.22D-04 BMatP= 4.18D-03
 IDIUse=3 WtCom= 9.93D-01 WtEn= 7.25D-03
 Coeff-Com: -0.978D-02 0.146D-01 0.202D+00 0.793D+00
 Coeff-En:   0.000D+00 0.000D+00 0.000D+00 0.100D+01
 Coeff:     -0.971D-02 0.145D-01 0.200D+00 0.795D+00
 Gap=     0.234 Goal=   None    Shift=    0.000
 Gap=     0.363 Goal=   None    Shift=    0.000
 RMSDP=6.05D-05 MaxDP=2.11D-03 DE=-1.07D-03 OVMax= 6.57D-03

 Cycle   5  Pass 1  IDiag  1:
 E= -193.653785909141     Delta-E=       -0.000123538020 Rises=F Damp=F
 DIIS: error= 3.56D-04 at cycle   5 NSaved=   5.
 NSaved= 5 IEnMin= 5 EnMin= -193.653785909141     IErMin= 5 ErrMin= 3.56D-04
 ErrMax= 3.56D-04  0.00D+00 EMaxC= 1.00D-01 BMatC= 1.04D-04 BMatP= 3.22D-04
 IDIUse=3 WtCom= 9.96D-01 WtEn= 3.56D-03
 Coeff-Com:  0.400D-02-0.184D-01-0.790D-02 0.291D+00 0.731D+00
 Coeff-En:   0.000D+00 0.000D+00 0.000D+00 0.000D+00 0.100D+01
 Coeff:      0.399D-02-0.183D-01-0.787D-02 0.290D+00 0.732D+00
 Gap=     0.234 Goal=   None    Shift=    0.000
 Gap=     0.362 Goal=   None    Shift=    0.000
 RMSDP=3.38D-05 MaxDP=1.39D-03 DE=-1.24D-04 OVMax= 2.96D-03

 Cycle   6  Pass 1  IDiag  1:
 E= -193.653825828584     Delta-E=       -0.000039919442 Rises=F Damp=F
 DIIS: error= 2.42D-04 at cycle   6 NSaved=   6.
 NSaved= 6 IEnMin= 6 EnMin= -193.653825828584     IErMin= 6 ErrMin= 2.42D-04
 ErrMax= 2.42D-04  0.00D+00 EMaxC= 1.00D-01 BMatC= 2.33D-05 BMatP= 1.04D-04
 IDIUse=3 WtCom= 9.98D-01 WtEn= 2.42D-03
 Coeff-Com:  0.568D-02-0.117D-01-0.952D-01-0.227D+00 0.252D+00 0.108D+01
 Coeff-En:   0.000D+00 0.000D+00 0.000D+00 0.000D+00 0.000D+00 0.100D+01
 Coeff:      0.566D-02-0.117D-01-0.950D-01-0.226D+00 0.251D+00 0.108D+01
 Gap=     0.235 Goal=   None    Shift=    0.000
 Gap=     0.363 Goal=   None    Shift=    0.000
 RMSDP=3.31D-05 MaxDP=1.16D-03 DE=-3.99D-05 OVMax= 4.63D-03

 Cycle   7  Pass 1  IDiag  1:
 E= -193.653845741623     Delta-E=       -0.000019913039 Rises=F Damp=F
 DIIS: error= 5.68D-05 at cycle   7 NSaved=   7.
 NSaved= 7 IEnMin= 7 EnMin= -193.653845741623     IErMin= 7 ErrMin= 5.68D-05
 ErrMax= 5.68D-05  0.00D+00 EMaxC= 1.00D-01 BMatC= 3.40D-06 BMatP= 2.33D-05
 IDIUse=1 WtCom= 1.00D+00 WtEn= 0.00D+00
 Coeff-Com:  0.606D-03-0.404D-03-0.234D-01-0.913D-01-0.433D-01 0.313D+00
 Coeff-Com:  0.845D+00
 Coeff:      0.606D-03-0.404D-03-0.234D-01-0.913D-01-0.433D-01 0.313D+00
 Coeff:      0.845D+00
 Gap=     0.235 Goal=   None    Shift=    0.000
 Gap=     0.363 Goal=   None    Shift=    0.000
 RMSDP=7.94D-06 MaxDP=2.71D-04 DE=-1.99D-05 OVMax= 9.76D-04

 Cycle   8  Pass 1  IDiag  1:
 E= -193.653847357481     Delta-E=       -0.000001615858 Rises=F Damp=F
 DIIS: error= 3.89D-05 at cycle   8 NSaved=   8.
 NSaved= 8 IEnMin= 8 EnMin= -193.653847357481     IErMin= 8 ErrMin= 3.89D-05
 ErrMax= 3.89D-05  0.00D+00 EMaxC= 1.00D-01 BMatC= 4.53D-07 BMatP= 3.40D-06
 IDIUse=1 WtCom= 1.00D+00 WtEn= 0.00D+00
 Coeff-Com: -0.110D-02 0.251D-02 0.131D-01 0.224D-01-0.611D-01-0.118D+00
 Coeff-Com:  0.227D+00 0.915D+00
 Coeff:     -0.110D-02 0.251D-02 0.131D-01 0.224D-01-0.611D-01-0.118D+00
 Coeff:      0.227D+00 0.915D+00
 Gap=     0.235 Goal=   None    Shift=    0.000
 Gap=     0.363 Goal=   None    Shift=    0.000
 RMSDP=3.25D-06 MaxDP=1.58D-04 DE=-1.62D-06 OVMax= 4.48D-04

 Cycle   9  Pass 1  IDiag  1:
 E= -193.653847594101     Delta-E=       -0.000000236621 Rises=F Damp=F
 DIIS: error= 7.92D-06 at cycle   9 NSaved=   9.
 NSaved= 9 IEnMin= 9 EnMin= -193.653847594101     IErMin= 9 ErrMin= 7.92D-06
 ErrMax= 7.92D-06  0.00D+00 EMaxC= 1.00D-01 BMatC= 5.29D-08 BMatP= 4.53D-07
 IDIUse=1 WtCom= 1.00D+00 WtEn= 0.00D+00
 Coeff-Com: -0.277D-03 0.554D-03 0.568D-02 0.163D-01-0.843D-02-0.656D-01
 Coeff-Com: -0.715D-01 0.206D+00 0.918D+00
 Coeff:     -0.277D-03 0.554D-03 0.568D-02 0.163D-01-0.843D-02-0.656D-01
 Coeff:     -0.715D-01 0.206D+00 0.918D+00
 Gap=     0.235 Goal=   None    Shift=    0.000
 Gap=     0.363 Goal=   None    Shift=    0.000
 RMSDP=1.17D-06 MaxDP=5.84D-05 DE=-2.37D-07 OVMax= 1.38D-04

 Cycle  10  Pass 1  IDiag  1:
 E= -193.653847621665     Delta-E=       -0.000000027564 Rises=F Damp=F
 DIIS: error= 1.80D-06 at cycle  10 NSaved=  10.
 NSaved=10 IEnMin=10 EnMin= -193.653847621665     IErMin=10 ErrMin= 1.80D-06
 ErrMax= 1.80D-06  0.00D+00 EMaxC= 1.00D-01 BMatC= 3.42D-09 BMatP= 5.29D-08
 IDIUse=1 WtCom= 1.00D+00 WtEn= 0.00D+00
 Coeff-Com:  0.110D-03-0.238D-03-0.960D-03-0.138D-02 0.428D-02 0.104D-01
 Coeff-Com: -0.254D-01-0.777D-01 0.243D-01 0.107D+01
 Coeff:      0.110D-03-0.238D-03-0.960D-03-0.138D-02 0.428D-02 0.104D-01
 Coeff:     -0.254D-01-0.777D-01 0.243D-01 0.107D+01
 Gap=     0.235 Goal=   None    Shift=    0.000
 Gap=     0.363 Goal=   None    Shift=    0.000
 RMSDP=2.99D-07 MaxDP=1.05D-05 DE=-2.76D-08 OVMax= 3.82D-05

 Cycle  11  Pass 1  IDiag  1:
 E= -193.653847623686     Delta-E=       -0.000000002021 Rises=F Damp=F
 DIIS: error= 6.21D-07 at cycle  11 NSaved=  11.
 NSaved=11 IEnMin=11 EnMin= -193.653847623686     IErMin=11 ErrMin= 6.21D-07
 ErrMax= 6.21D-07  0.00D+00 EMaxC= 1.00D-01 BMatC= 4.64D-10 BMatP= 3.42D-09
 IDIUse=1 WtCom= 1.00D+00 WtEn= 0.00D+00
 Coeff-Com:  0.425D-04-0.912D-04-0.619D-03-0.144D-02 0.133D-02 0.727D-02
 Coeff-Com: -0.158D-02-0.320D-01-0.659D-01 0.247D+00 0.846D+00
 Coeff:      0.425D-04-0.912D-04-0.619D-03-0.144D-02 0.133D-02 0.727D-02
 Coeff:     -0.158D-02-0.320D-01-0.659D-01 0.247D+00 0.846D+00
 Gap=     0.235 Goal=   None    Shift=    0.000
 Gap=     0.363 Goal=   None    Shift=    0.000
 RMSDP=9.68D-08 MaxDP=3.69D-06 DE=-2.02D-09 OVMax= 7.59D-06

 Cycle  12  Pass 1  IDiag  1:
 E= -193.653847623855     Delta-E=       -0.000000000168 Rises=F Damp=F
 DIIS: error= 3.13D-07 at cycle  12 NSaved=  12.
 NSaved=12 IEnMin=12 EnMin= -193.653847623855     IErMin=12 ErrMin= 3.13D-07
 ErrMax= 3.13D-07  0.00D+00 EMaxC= 1.00D-01 BMatC= 6.73D-11 BMatP= 4.64D-10
 IDIUse=1 WtCom= 1.00D+00 WtEn= 0.00D+00
 Coeff-Com: -0.395D-05 0.759D-05-0.361D-04-0.139D-03-0.154D-03 0.618D-03
 Coeff-Com:  0.260D-02 0.171D-02-0.222D-01-0.721D-01 0.239D+00 0.850D+00
 Coeff:     -0.395D-05 0.759D-05-0.361D-04-0.139D-03-0.154D-03 0.618D-03
 Coeff:      0.260D-02 0.171D-02-0.222D-01-0.721D-01 0.239D+00 0.850D+00
 Gap=     0.235 Goal=   None    Shift=    0.000
 Gap=     0.363 Goal=   None    Shift=    0.000
 RMSDP=4.18D-08 MaxDP=1.97D-06 DE=-1.68D-10 OVMax= 2.77D-06

 Cycle  13  Pass 1  IDiag  1:
 E= -193.653847623883     Delta-E=       -0.000000000028 Rises=F Damp=F
 DIIS: error= 7.36D-08 at cycle  13 NSaved=  13.
 NSaved=13 IEnMin=13 EnMin= -193.653847623883     IErMin=13 ErrMin= 7.36D-08
 ErrMax= 7.36D-08  0.00D+00 EMaxC= 1.00D-01 BMatC= 3.73D-12 BMatP= 6.73D-11
 IDIUse=1 WtCom= 1.00D+00 WtEn= 0.00D+00
 Coeff-Com: -0.388D-05 0.821D-05 0.471D-04 0.104D-03-0.112D-03-0.590D-03
 Coeff-Com:  0.387D-03 0.287D-02 0.389D-02-0.265D-01-0.718D-01 0.503D-01
 Coeff-Com:  0.104D+01
 Coeff:     -0.388D-05 0.821D-05 0.471D-04 0.104D-03-0.112D-03-0.590D-03
 Coeff:      0.387D-03 0.287D-02 0.389D-02-0.265D-01-0.718D-01 0.503D-01
 Coeff:      0.104D+01
 Gap=     0.235 Goal=   None    Shift=    0.000
 Gap=     0.363 Goal=   None    Shift=    0.000
 RMSDP=1.45D-08 MaxDP=6.26D-07 DE=-2.84D-11 OVMax= 9.08D-07

 Cycle  14  Pass 1  IDiag  1:
 E= -193.653847623883     Delta-E=        0.000000000000 Rises=F Damp=F
 DIIS: error= 1.30D-08 at cycle  14 NSaved=  14.
 NSaved=14 IEnMin=13 EnMin= -193.653847623883     IErMin=14 ErrMin= 1.30D-08
 ErrMax= 1.30D-08  0.00D+00 EMaxC= 1.00D-01 BMatC= 1.92D-13 BMatP= 3.73D-12
 IDIUse=1 WtCom= 1.00D+00 WtEn= 0.00D+00
 Coeff-Com:  0.672D-06-0.121D-05-0.290D-05-0.770D-05 0.153D-04 0.333D-04
 Coeff-Com: -0.166D-03-0.231D-03 0.728D-03 0.608D-02-0.965D-02-0.523D-01
 Coeff-Com: -0.686D-01 0.112D+01
 Coeff:      0.672D-06-0.121D-05-0.290D-05-0.770D-05 0.153D-04 0.333D-04
 Coeff:     -0.166D-03-0.231D-03 0.728D-03 0.608D-02-0.965D-02-0.523D-01
 Coeff:     -0.686D-01 0.112D+01
 Gap=     0.235 Goal=   None    Shift=    0.000
 Gap=     0.363 Goal=   None    Shift=    0.000
 RMSDP=3.94D-09 MaxDP=1.54D-07 DE= 0.00D+00 OVMax= 2.80D-07

 SCF Done:  E(UM062X) =  -193.653847624     A.U. after   14 cycles
            NFock= 14  Conv=0.39D-08     -V/T= 2.0038
 <Sx>= 0.0000 <Sy>= 0.0000 <Sz>= 0.5000 <S**2>= 0.7544 S= 0.5022
 <L.S>= 0.000000000000E+00
 KE= 1.929295692172D+02 PE=-7.076509358030D+02 EE= 1.931600760222D+02
 Annihilation of the first spin contaminant:
 S**2 before annihilation     0.7544,   after     0.7500
 Leave Link  502 at Mon Mar 11 15:41:54 2019, MaxMem=   671088640 cpu:             409.6 elap:              29.2
 (Enter /shared/centos7/gaussian/g16/l801.exe)
 DoSCS=F DFT=T ScalE2(SS,OS)=  1.000000  1.000000
 Range of M.O.s used for correlation:     1   199
 NBasis=   199 NAE=    17 NBE=    16 NFC=     0 NFV=     0
 NROrb=    199 NOA=    17 NOB=    16 NVA=   182 NVB=   183

 **** Warning!!: The largest alpha MO coefficient is  0.32853264D+02


 **** Warning!!: The largest beta MO coefficient is  0.40085200D+02

 Leave Link  801 at Mon Mar 11 15:41:54 2019, MaxMem=   671088640 cpu:               0.3 elap:               0.0
 (Enter /shared/centos7/gaussian/g16/l1101.exe)
 Using compressed storage, NAtomX=    11.
 Will process     12 centers per pass.
 Leave Link 1101 at Mon Mar 11 15:41:54 2019, MaxMem=   671088640 cpu:               4.5 elap:               0.2
 (Enter /shared/centos7/gaussian/g16/l1102.exe)
 Symmetrizing basis deriv contribution to polar:
 IMax=3 JMax=2 DiffMx= 0.00D+00
 Leave Link 1102 at Mon Mar 11 15:41:54 2019, MaxMem=   671088640 cpu:               0.4 elap:               0.0
 (Enter /shared/centos7/gaussian/g16/l1110.exe)
 Forming Gx(P) for the SCF density, NAtomX=    11.
 Integral derivatives from FoFJK, PRISM(SPDF).
 Do as many integral derivatives as possible in FoFJK.
 G2DrvN: MDV=     671087712.
 G2DrvN: will do    12 centers at a time, making    1 passes.
 Calling FoFCou, ICntrl=  3107 FMM=F I1Cent=   0 AccDes= 0.00D+00.
 FoFJK:  IHMeth= 1 ICntrl=    3107 DoSepK=F KAlg= 0 I1Cent=           0 FoldK=F
 IRaf=         0 NMat=       1 IRICut=       1 DoRegI=T DoRafI=F ISym2E= 0 IDoP0=0 IntGTp=1.
 FoFCou: FMM=F IPFlag=           0 FMFlag=      100000 FMFlg1=           0
         NFxFlg=           0 DoJE=F BraDBF=F KetDBF=F FulRan=T
         wScrn=  0.000000 ICntrl=      3107 IOpCl=  1 I1Cent=           0 NGrid=           0
         NMat0=    1 NMatS0=      1 NMatT0=    0 NMatD0=    1 NMtDS0=    0 NMtDT0=    0
 Symmetry not used in FoFCou.
 End of G2Drv F.D. properties file   721 does not exist.
 End of G2Drv F.D. properties file   722 does not exist.
 End of G2Drv F.D. properties file   788 does not exist.
 Leave Link 1110 at Mon Mar 11 15:42:33 2019, MaxMem=   671088640 cpu:             775.1 elap:              38.8
 (Enter /shared/centos7/gaussian/g16/l1002.exe)
 Minotr:  UHF open shell wavefunction.
          IDoAtm=11111111111
          Direct CPHF calculation.
          Differentiating once with respect to nuclear coordinates.
          Requested convergence is 1.0D-08 RMS, and 1.0D-07 maximum.
          Secondary convergence is 1.0D-12 RMS, and 1.0D-12 maximum.
          NewPWx=T KeepS1=F KeepF1=F KeepIn=T MapXYZ=F SortEE=F KeepMc=T.
         3335 words used for storage of precomputed grid.
 Keep R1 and R2 ints in memory in canonical form, NReq=416899964.
 FoFCou: FMM=F IPFlag=           0 FMFlag=           0 FMFlg1=           0
         NFxFlg=           0 DoJE=F BraDBF=F KetDBF=F FulRan=T
         wScrn=  0.000000 ICntrl=       600 IOpCl=  0 I1Cent=           0 NGrid=           0
         NMat0=    1 NMatS0=  19900 NMatT0=    0 NMatD0=    1 NMtDS0=    0 NMtDT0=    0
 Symmetry not used in FoFCou.
 Two-electron integral symmetry not used.
          MDV=     671088640 using IRadAn=       1.
          Solving linear equations simultaneously, MaxMat=       0.
          There are    36 degrees of freedom in the 1st order CPHF.  IDoFFX=6 NUNeed=     0.
     30 vectors produced by pass  0 Test12= 1.67D-14 2.78D-09 XBig12= 1.43D-01 7.32D-02.
 AX will form    30 AO Fock derivatives at one time.
     30 vectors produced by pass  1 Test12= 1.67D-14 2.78D-09 XBig12= 9.52D-03 2.12D-02.
     30 vectors produced by pass  2 Test12= 1.67D-14 2.78D-09 XBig12= 6.20D-04 5.39D-03.
     30 vectors produced by pass  3 Test12= 1.67D-14 2.78D-09 XBig12= 1.01D-05 5.54D-04.
     30 vectors produced by pass  4 Test12= 1.67D-14 2.78D-09 XBig12= 1.44D-07 7.34D-05.
     30 vectors produced by pass  5 Test12= 1.67D-14 2.78D-09 XBig12= 1.47D-09 4.01D-06.
     30 vectors produced by pass  6 Test12= 1.67D-14 2.78D-09 XBig12= 1.05D-11 3.24D-07.
     12 vectors produced by pass  7 Test12= 1.67D-14 2.78D-09 XBig12= 8.02D-14 3.88D-08.
 InvSVY:  IOpt=1 It=  1 EMax= 1.44D-15
 Solved reduced A of dimension   222 with    30 vectors.
 End of Minotr F.D. properties file   721 does not exist.
 End of Minotr F.D. properties file   722 does not exist.
 End of Minotr F.D. properties file   788 does not exist.
 Leave Link 1002 at Mon Mar 11 15:43:24 2019, MaxMem=   671088640 cpu:            1035.4 elap:              51.8
 (Enter /shared/centos7/gaussian/g16/l601.exe)
 Copying SCF densities to generalized density rwf, IOpCl= 1 IROHF=0.

 **********************************************************************

            Population analysis using the SCF density.

 **********************************************************************

 Orbital symmetries:
 Alpha Orbitals:
       Occupied  (A) (A) (A) (A) (A) (A) (A) (A) (A) (A) (A) (A)
                 (A) (A) (A) (A) (A)
       Virtual   (A) (A) (A) (A) (A) (A) (A) (A) (A) (A) (A) (A)
                 (A) (A) (A) (A) (A) (A) (A) (A) (A) (A) (A) (A)
                 (A) (A) (A) (A) (A) (A) (A) (A) (A) (A) (A) (A)
                 (A) (A) (A) (A) (A) (A) (A) (A) (A) (A) (A) (A)
                 (A) (A) (A) (A) (A) (A) (A) (A) (A) (A) (A) (A)
                 (A) (A) (A) (A) (A) (A) (A) (A) (A) (A) (A) (A)
                 (A) (A) (A) (A) (A) (A) (A) (A) (A) (A) (A) (A)
                 (A) (A) (A) (A) (A) (A) (A) (A) (A) (A) (A) (A)
                 (A) (A) (A) (A) (A) (A) (A) (A) (A) (A) (A) (A)
                 (A) (A) (A) (A) (A) (A) (A) (A) (A) (A) (A) (A)
                 (A) (A) (A) (A) (A) (A) (A) (A) (A) (A) (A) (A)
                 (A) (A) (A) (A) (A) (A) (A) (A) (A) (A) (A) (A)
                 (A) (A) (A) (A) (A) (A) (A) (A) (A) (A) (A) (A)
                 (A) (A) (A) (A) (A) (A) (A) (A) (A) (A) (A) (A)
                 (A) (A) (A) (A) (A) (A) (A) (A) (A) (A) (A) (A)
                 (A) (A)
 Beta  Orbitals:
       Occupied  (A) (A) (A) (A) (A) (A) (A) (A) (A) (A) (A) (A)
                 (A) (A) (A) (A)
       Virtual   (A) (A) (A) (A) (A) (A) (A) (A) (A) (A) (A) (A)
                 (A) (A) (A) (A) (A) (A) (A) (A) (A) (A) (A) (A)
                 (A) (A) (A) (A) (A) (A) (A) (A) (A) (A) (A) (A)
                 (A) (A) (A) (A) (A) (A) (A) (A) (A) (A) (A) (A)
                 (A) (A) (A) (A) (A) (A) (A) (A) (A) (A) (A) (A)
                 (A) (A) (A) (A) (A) (A) (A) (A) (A) (A) (A) (A)
                 (A) (A) (A) (A) (A) (A) (A) (A) (A) (A) (A) (A)
                 (A) (A) (A) (A) (A) (A) (A) (A) (A) (A) (A) (A)
                 (A) (A) (A) (A) (A) (A) (A) (A) (A) (A) (A) (A)
                 (A) (A) (A) (A) (A) (A) (A) (A) (A) (A) (A) (A)
                 (A) (A) (A) (A) (A) (A) (A) (A) (A) (A) (A) (A)
                 (A) (A) (A) (A) (A) (A) (A) (A) (A) (A) (A) (A)
                 (A) (A) (A) (A) (A) (A) (A) (A) (A) (A) (A) (A)
                 (A) (A) (A) (A) (A) (A) (A) (A) (A) (A) (A) (A)
                 (A) (A) (A) (A) (A) (A) (A) (A) (A) (A) (A) (A)
                 (A) (A) (A)
 The electronic state is 2-A.
 Alpha  occ. eigenvalues --  -19.64784 -10.58316 -10.57698 -10.53285  -1.18693
 Alpha  occ. eigenvalues --   -0.85770  -0.80215  -0.66974  -0.57992  -0.55498
 Alpha  occ. eigenvalues --   -0.54289  -0.48109  -0.46750  -0.44436  -0.41814
 Alpha  occ. eigenvalues --   -0.38358  -0.21984
 Alpha virt. eigenvalues --    0.01544   0.03182   0.03590   0.04810   0.06400
 Alpha virt. eigenvalues --    0.07244   0.07749   0.09013   0.09693   0.11433
 Alpha virt. eigenvalues --    0.13108   0.15138   0.16981   0.18084   0.21283
 Alpha virt. eigenvalues --    0.22198   0.22733   0.23895   0.24808   0.26609
 Alpha virt. eigenvalues --    0.27574   0.29472   0.31070   0.33181   0.33579
 Alpha virt. eigenvalues --    0.34606   0.41539   0.43755   0.44284   0.47581
 Alpha virt. eigenvalues --    0.51021   0.53185   0.54102   0.54968   0.55219
 Alpha virt. eigenvalues --    0.57021   0.59415   0.60808   0.62363   0.62706
 Alpha virt. eigenvalues --    0.64921   0.66121   0.67627   0.69820   0.74695
 Alpha virt. eigenvalues --    0.76751   0.78923   0.83850   0.85041   0.88299
 Alpha virt. eigenvalues --    0.88768   0.94456   0.96615   0.98122   1.04541
 Alpha virt. eigenvalues --    1.06317   1.06992   1.11269   1.13992   1.14425
 Alpha virt. eigenvalues --    1.14842   1.17283   1.18365   1.22329   1.23716
 Alpha virt. eigenvalues --    1.26174   1.27224   1.30313   1.33495   1.33787
 Alpha virt. eigenvalues --    1.34983   1.39206   1.40769   1.42749   1.44532
 Alpha virt. eigenvalues --    1.45871   1.47796   1.48371   1.52234   1.55242
 Alpha virt. eigenvalues --    1.57695   1.60222   1.65179   1.68114   1.72476
 Alpha virt. eigenvalues --    1.95210   2.04126   2.11695   2.28860   2.32137
 Alpha virt. eigenvalues --    2.39920   2.42746   2.43702   2.53541   2.55970
 Alpha virt. eigenvalues --    2.61447   2.71434   2.79789   2.81158   2.85162
 Alpha virt. eigenvalues --    2.87047   2.96103   2.97441   3.00501   3.03950
 Alpha virt. eigenvalues --    3.05986   3.09211   3.11935   3.13496   3.14279
 Alpha virt. eigenvalues --    3.16745   3.17659   3.22865   3.26979   3.28864
 Alpha virt. eigenvalues --    3.32545   3.33085   3.36889   3.39173   3.41347
 Alpha virt. eigenvalues --    3.44710   3.45832   3.49481   3.51888   3.54419
 Alpha virt. eigenvalues --    3.56511   3.59766   3.70621   3.71305   3.75150
 Alpha virt. eigenvalues --    3.84798   3.85892   3.87394   3.90258   3.92600
 Alpha virt. eigenvalues --    3.93578   3.98805   4.03384   4.04355   4.07647
 Alpha virt. eigenvalues --    4.13903   4.18923   4.20301   4.22984   4.24278
 Alpha virt. eigenvalues --    4.27848   4.32921   4.33632   4.34954   4.41617
 Alpha virt. eigenvalues --    4.46136   4.49353   4.51456   4.57780   4.61094
 Alpha virt. eigenvalues --    4.70231   4.91277   5.12422   5.19985   5.25112
 Alpha virt. eigenvalues --    5.26475   5.46847   5.49808   5.54802   5.57913
 Alpha virt. eigenvalues --    5.60443   5.64059   5.67960   5.78347   5.95129
 Alpha virt. eigenvalues --    6.31517   6.44708   6.80182   7.13476   7.19662
 Alpha virt. eigenvalues --    7.28364   7.69304   7.71128  24.30365  24.44497
 Alpha virt. eigenvalues --   24.51757  50.16778
  Beta  occ. eigenvalues --  -19.64424 -10.58319 -10.56967 -10.53320  -1.17456
  Beta  occ. eigenvalues --   -0.84318  -0.79895  -0.65304  -0.57121  -0.53710
  Beta  occ. eigenvalues --   -0.53062  -0.46854  -0.46465  -0.43957  -0.39937
  Beta  occ. eigenvalues --   -0.36783
  Beta virt. eigenvalues --   -0.00495   0.01867   0.03204   0.03719   0.04714
  Beta virt. eigenvalues --    0.06349   0.07117   0.07674   0.08460   0.10092
  Beta virt. eigenvalues --    0.11350   0.12314   0.13920   0.16858   0.18422
  Beta virt. eigenvalues --    0.21413   0.22240   0.23159   0.24089   0.25200
  Beta virt. eigenvalues --    0.26712   0.27835   0.29423   0.31808   0.33239
  Beta virt. eigenvalues --    0.33766   0.35147   0.41639   0.43822   0.44290
  Beta virt. eigenvalues --    0.47853   0.51639   0.53211   0.54092   0.55154
  Beta virt. eigenvalues --    0.55487   0.57203   0.60532   0.61089   0.62870
  Beta virt. eigenvalues --    0.63433   0.64860   0.65951   0.67682   0.69411
  Beta virt. eigenvalues --    0.75121   0.77420   0.78339   0.83403   0.85704
  Beta virt. eigenvalues --    0.88201   0.88760   0.94261   0.96521   0.97818
  Beta virt. eigenvalues --    1.04490   1.06427   1.07019   1.11359   1.13963
  Beta virt. eigenvalues --    1.14444   1.14818   1.17470   1.18146   1.22551
  Beta virt. eigenvalues --    1.23581   1.26415   1.27300   1.30949   1.33600
  Beta virt. eigenvalues --    1.34315   1.35349   1.39292   1.40709   1.42762
  Beta virt. eigenvalues --    1.44588   1.45801   1.47790   1.48813   1.52376
  Beta virt. eigenvalues --    1.55062   1.57501   1.60001   1.65547   1.68812
  Beta virt. eigenvalues --    1.72361   1.95983   2.04595   2.12307   2.29431
  Beta virt. eigenvalues --    2.32780   2.40423   2.43104   2.44393   2.53903
  Beta virt. eigenvalues --    2.56827   2.62056   2.71997   2.82180   2.84595
  Beta virt. eigenvalues --    2.89379   2.89916   2.96429   2.97858   3.02991
  Beta virt. eigenvalues --    3.05388   3.06691   3.10070   3.12871   3.14513
  Beta virt. eigenvalues --    3.15296   3.17203   3.18440   3.24457   3.28809
  Beta virt. eigenvalues --    3.30153   3.34317   3.35514   3.38776   3.39890
  Beta virt. eigenvalues --    3.43246   3.46289   3.47466   3.51316   3.54017
  Beta virt. eigenvalues --    3.56438   3.58204   3.60261   3.72214   3.73942
  Beta virt. eigenvalues --    3.76885   3.85266   3.86169   3.87706   3.91254
  Beta virt. eigenvalues --    3.93175   3.94637   4.00447   4.04313   4.05052
  Beta virt. eigenvalues --    4.09433   4.14773   4.19070   4.21412   4.23233
  Beta virt. eigenvalues --    4.26214   4.28887   4.33186   4.33742   4.35332
  Beta virt. eigenvalues --    4.41906   4.46394   4.50351   4.52067   4.59263
  Beta virt. eigenvalues --    4.63901   4.73303   4.91438   5.15286   5.21263
  Beta virt. eigenvalues --    5.25725   5.27286   5.47686   5.52160   5.55256
  Beta virt. eigenvalues --    5.58096   5.61154   5.64437   5.68493   5.78728
  Beta virt. eigenvalues --    5.96079   6.32001   6.45064   6.80983   7.14272
  Beta virt. eigenvalues --    7.20575   7.29245   7.69672   7.71077  24.30797
  Beta virt. eigenvalues --   24.44508  24.52710  50.16531
          Condensed to atoms (all electrons):
               1          2          3          4          5          6
     1  O    8.165199  -0.053070   0.125312   0.068797   0.008652   0.007011
     2  C   -0.053070   5.045985  -0.016972   0.203092   0.427402   0.415259
     3  C    0.125312  -0.016972   4.985158  -0.081351  -0.009458   0.002103
     4  C    0.068797   0.203092  -0.081351   5.693610  -0.061521  -0.040055
     5  H    0.008652   0.427402  -0.009458  -0.061521   0.569085  -0.023164
     6  H    0.007011   0.415259   0.002103  -0.040055  -0.023164   0.525395
     7  H   -0.001733   0.404413   0.006729  -0.057474  -0.055060  -0.019491
     8  H   -0.055414  -0.000100   0.433618   0.008628  -0.000111   0.000023
     9  H   -0.045057  -0.004063   0.419194   0.014736   0.001806  -0.000155
    10  H   -0.040728  -0.000587   0.428130  -0.008225  -0.003395   0.000292
    11  H   -0.052435  -0.040208   0.005892   0.443784   0.000100  -0.005718
               7          8          9         10         11
     1  O   -0.001733  -0.055414  -0.045057  -0.040728  -0.052435
     2  C    0.404413  -0.000100  -0.004063  -0.000587  -0.040208
     3  C    0.006729   0.433618   0.419194   0.428130   0.005892
     4  C   -0.057474   0.008628   0.014736  -0.008225   0.443784
     5  H   -0.055060  -0.000111   0.001806  -0.003395   0.000100
     6  H   -0.019491   0.000023  -0.000155   0.000292  -0.005718
     7  H    0.586865   0.000535  -0.004281  -0.004610   0.004679
     8  H    0.000535   0.523486  -0.020457  -0.025989  -0.000023
     9  H   -0.004281  -0.020457   0.555646  -0.053708  -0.000008
    10  H   -0.004610  -0.025989  -0.053708   0.574664  -0.000404
    11  H    0.004679  -0.000023  -0.000008  -0.000404   0.484581
          Atomic-Atomic Spin Densities.
               1          2          3          4          5          6
     1  O    0.253202   0.012527   0.017621  -0.223754   0.010260  -0.000192
     2  C    0.012527  -0.026193   0.005504  -0.067158   0.007638   0.002614
     3  C    0.017621   0.005504   0.008128  -0.023338  -0.004545   0.000380
     4  C   -0.223754  -0.067158  -0.023338   1.303658  -0.024726  -0.005273
     5  H    0.010260   0.007638  -0.004545  -0.024726   0.095490  -0.003625
     6  H   -0.000192   0.002614   0.000380  -0.005273  -0.003625   0.005329
     7  H    0.001723   0.015424   0.007903  -0.042193  -0.023372   0.002863
     8  H   -0.000553  -0.000535  -0.001206   0.001700  -0.000010   0.000001
     9  H   -0.010185  -0.001380  -0.007610   0.024799   0.001767  -0.000111
    10  H   -0.004483   0.000251   0.004536  -0.004411  -0.004545   0.000088
    11  H    0.002279   0.005648   0.000660  -0.007474  -0.002275   0.000505
               7          8          9         10         11
     1  O    0.001723  -0.000553  -0.010185  -0.004483   0.002279
     2  C    0.015424  -0.000535  -0.001380   0.000251   0.005648
     3  C    0.007903  -0.001206  -0.007610   0.004536   0.000660
     4  C   -0.042193   0.001700   0.024799  -0.004411  -0.007474
     5  H   -0.023372  -0.000010   0.001767  -0.004545  -0.002275
     6  H    0.002863   0.000001  -0.000111   0.000088   0.000505
     7  H    0.059075  -0.000009  -0.005155   0.004059   0.000790
     8  H   -0.000009  -0.000721   0.000674   0.000313   0.000007
     9  H   -0.005155   0.000674   0.009453  -0.004761  -0.000316
    10  H    0.004059   0.000313  -0.004761   0.010764   0.000264
    11  H    0.000790   0.000007  -0.000316   0.000264  -0.037389
 Mulliken charges and spin densities:
               1          2
     1  O   -0.126535   0.058445
     2  C   -0.381152  -0.045661
     3  C   -0.298355   0.008034
     4  C   -0.184021   0.931831
     5  H    0.145664   0.052058
     6  H    0.138498   0.002579
     7  H    0.139428   0.021107
     8  H    0.135803  -0.000340
     9  H    0.136347   0.007175
    10  H    0.134560   0.002075
    11  H    0.159762  -0.037302
 Sum of Mulliken charges =  -0.00000   1.00000
 Mulliken charges and spin densities with hydrogens summed into heavy atoms:
               1          2
     1  O   -0.126535   0.058445
     2  C    0.042439   0.030083
     3  C    0.108355   0.016943
     4  C   -0.024259   0.894529
 APT charges:
               1
     1  O   -0.123923
     2  C   -1.140381
     3  C   -1.035192
     4  C   -0.371492
     5  H    0.307978
     6  H    0.486023
     7  H    0.292707
     8  H    0.498488
     9  H    0.317970
    10  H    0.295591
    11  H    0.472230
 Sum of APT charges =  -0.00000
 APT charges with hydrogens summed into heavy atoms:
               1
     1  O   -0.123923
     2  C   -0.053673
     3  C    0.076858
     4  C    0.100738
 Electronic spatial extent (au):  <R**2>=            313.5783
 Charge=             -0.0000 electrons
 Dipole moment (field-independent basis, Debye):
    X=              0.1958    Y=             -1.4406    Z=              0.1131  Tot=              1.4583
 Quadrupole moment (field-independent basis, Debye-Ang):
   XX=            -23.8564   YY=            -26.4672   ZZ=            -27.3778
   XY=              1.9759   XZ=              0.4808   YZ=              0.1515
 Traceless Quadrupole moment (field-independent basis, Debye-Ang):
   XX=              2.0441   YY=             -0.5668   ZZ=             -1.4774
   XY=              1.9759   XZ=              0.4808   YZ=              0.1515
 Octapole moment (field-independent basis, Debye-Ang**2):
  XXX=             -6.0460  YYY=              2.6321  ZZZ=              2.4236  XYY=              0.5766
  XXY=              0.0228  XXZ=              0.2292  XZZ=             -2.0504  YZZ=             -1.4091
  YYZ=              0.4165  XYZ=              0.3338
 Hexadecapole moment (field-independent basis, Debye-Ang**3):
 XXXX=           -250.0107 YYYY=           -108.8280 ZZZZ=            -47.1157 XXXY=              1.1522
 XXXZ=             -3.8097 YYYX=              2.9164 YYYZ=              1.4971 ZZZX=              2.5249
 ZZZY=              1.8814 XXYY=            -65.3119 XXZZ=            -54.2861 YYZZ=            -26.9668
 XXYZ=              0.4569 YYXZ=              0.1472 ZZXY=             -1.0566
 N-N= 1.279074429397D+02 E-N=-7.076509359578D+02  KE= 1.929295692172D+02
  Exact polarizability:   0.000   0.000   0.000   0.000   0.000   0.000
 Approx polarizability:  49.481   1.045  46.856  -0.436  -0.666  44.430
                          Isotropic Fermi Contact Couplings
        Atom                 a.u.       MegaHertz       Gauss      10(-4) cm-1
     1  O(17)              0.02710     -16.42787      -5.86187      -5.47975
     2  C(13)             -0.01182     -13.28468      -4.74030      -4.43129
     3  C(13)              0.00286       3.21329       1.14658       1.07184
     4  C(13)              0.20846     234.35249      83.62280      78.17158
     5  H(1)               0.02457     109.80725      39.18196      36.62776
     6  H(1)               0.00042       1.87631       0.66951       0.62587
     7  H(1)               0.01200      53.65553      19.14563      17.89756
     8  H(1)              -0.00045      -2.02792      -0.72361      -0.67644
     9  H(1)               0.00238      10.62266       3.79043       3.54334
    10  H(1)               0.00196       8.77140       3.12985       2.92582
    11  H(1)              -0.00986     -44.07364     -15.72657     -14.70138
 --------------------------------------------------------
       Center         ----  Spin Dipole Couplings  ----
                      3XX-RR        3YY-RR        3ZZ-RR
 --------------------------------------------------------
     1   Atom       -0.410962     -0.349156      0.760118
     2   Atom       -0.004908      0.011090     -0.006183
     3   Atom        0.006420      0.006546     -0.012966
     4   Atom       -0.497087     -0.497151      0.994237
     5   Atom       -0.003808      0.003529      0.000279
     6   Atom        0.011841     -0.003843     -0.007999
     7   Atom       -0.008127      0.017370     -0.009243
     8   Atom        0.007649     -0.003089     -0.004560
     9   Atom        0.004309      0.001760     -0.006069
    10   Atom       -0.001219      0.005604     -0.004385
    11   Atom       -0.044436      0.049071     -0.004635
 --------------------------------------------------------
                        XY            XZ            YZ
 --------------------------------------------------------
     1   Atom        0.015714      0.068042     -0.122888
     2   Atom       -0.017471      0.010586     -0.010882
     3   Atom        0.014372     -0.003818     -0.002403
     4   Atom        0.009534      0.147711      0.050532
     5   Atom       -0.007678      0.003960     -0.009024
     6   Atom       -0.012726      0.001441     -0.000941
     7   Atom       -0.007052     -0.000995      0.001930
     8   Atom        0.006132     -0.001326     -0.000531
     9   Atom        0.010398      0.003611      0.004349
    10   Atom        0.007012     -0.003372     -0.004347
    11   Atom        0.046873      0.011076      0.011575
 --------------------------------------------------------


 ---------------------------------------------------------------------------------
              Anisotropic Spin Dipole Couplings in Principal Axis System
 ---------------------------------------------------------------------------------

       Atom             a.u.   MegaHertz   Gauss  10(-4) cm-1        Axes

              Baa    -0.4233    30.631    10.930    10.218  0.9338 -0.3464 -0.0897
     1 O(17)  Bbb    -0.3539    25.608     9.138     8.542  0.3535  0.9319  0.0812
              Bcc     0.7772   -56.240   -20.068   -18.760  0.0554 -0.1075  0.9927
 
              Baa    -0.0177    -2.371    -0.846    -0.791  0.8294  0.3345 -0.4475
     2 C(13)  Bbb    -0.0110    -1.479    -0.528    -0.493  0.2076  0.5590  0.8027
              Bcc     0.0287     3.850     1.374     1.284 -0.5187  0.7587 -0.3942
 
              Baa    -0.0137    -1.839    -0.656    -0.613  0.2082 -0.0318  0.9776
     3 C(13)  Bbb    -0.0077    -1.036    -0.370    -0.345 -0.6801  0.7136  0.1680
              Bcc     0.0214     2.874     1.026     0.959  0.7029  0.6998 -0.1270
 
              Baa    -0.5130   -68.845   -24.566   -22.964  0.9484 -0.3061 -0.0827
     4 C(13)  Bbb    -0.4974   -66.750   -23.818   -22.265  0.3017  0.9514 -0.0621
              Bcc     1.0105   135.595    48.384    45.230  0.0977  0.0340  0.9946
 
              Baa    -0.0092    -4.897    -1.747    -1.633  0.6827  0.6498  0.3342
     5 H(1)   Bbb    -0.0057    -3.055    -1.090    -1.019 -0.6025  0.2418  0.7606
              Bcc     0.0149     7.952     2.837     2.652 -0.4135  0.7206 -0.5566
 
              Baa    -0.0110    -5.844    -2.085    -1.950  0.4850  0.8735  0.0418
     6 H(1)   Bbb    -0.0081    -4.323    -1.543    -1.442 -0.0757 -0.0057  0.9971
              Bcc     0.0191    10.168     3.628     3.392  0.8712 -0.4868  0.0633
 
              Baa    -0.0102    -5.456    -1.947    -1.820  0.8466  0.1814  0.5003
     7 H(1)   Bbb    -0.0091    -4.867    -1.737    -1.623 -0.4695 -0.1879  0.8627
              Bcc     0.0193    10.323     3.683     3.443 -0.2504  0.9653  0.0739
 
              Baa    -0.0059    -3.134    -1.118    -1.045 -0.4168  0.9074 -0.0542
     8 H(1)   Bbb    -0.0047    -2.503    -0.893    -0.835  0.0630  0.0883  0.9941
              Bcc     0.0106     5.637     2.011     1.880  0.9068  0.4109 -0.0939
 
              Baa    -0.0083    -4.446    -1.587    -1.483  0.3179 -0.6320  0.7067
     9 H(1)   Bbb    -0.0067    -3.554    -1.268    -1.185 -0.6201  0.4252  0.6593
              Bcc     0.0150     8.000     2.855     2.669  0.7172  0.6479  0.2567
 
              Baa    -0.0065    -3.484    -1.243    -1.162  0.5638 -0.0302  0.8253
    10 H(1)   Bbb    -0.0053    -2.833    -1.011    -0.945  0.6488 -0.6022 -0.4652
              Bcc     0.0118     6.316     2.254     2.107  0.5110  0.7978 -0.3200
 
              Baa    -0.0645   -34.395   -12.273   -11.473  0.9233 -0.3711 -0.0991
    11 H(1)   Bbb    -0.0070    -3.734    -1.332    -1.246  0.0178 -0.2164  0.9761
              Bcc     0.0715    38.129    13.605    12.718  0.3837  0.9030  0.1932
 

 ---------------------------------------------------------------------------------

 No NMR shielding tensors so no spin-rotation constants.
 Leave Link  601 at Mon Mar 11 15:43:25 2019, MaxMem=   671088640 cpu:               7.8 elap:               0.4
 (Enter /shared/centos7/gaussian/g16/l701.exe)
 SCFChk:  SCF convergence  3.94D-09 required  1.00D-08
 ... and contract with generalized density number  0.
 Compute integral second derivatives.
 Entering OneElI...
 Calculate overlap and kinetic energy integrals
    NBasis = 219  MinDer = 2  MaxDer = 2
 Requested accuracy = 0.1000D-12
 PrmmSu-InSpLW:  IPartL=    0 NPrtUS=   20 NPrtUL=    1 DoSpLW=F IThBeg=    0 IThEnd=   19 NThAct=   20.
 PrsmSu:  NPrtUS=  20 ThrOK=T IAlg=1 NPAlg=1 LenDen=           0 ISkipM=0 DoSpLW=F IThBeg=    0 IThEnd=   19.
 Prism:   IPart=     0 DynPar=F LinDyn=F Incr=           1.
 PRISM was handed    33491713 working-precision words and  2278 shell-pairs
 PRISM was handed    33491713 working-precision words and  2278 shell-pairs
 PRISM was handed    33491713 working-precision words and  2278 shell-pairs
 PRISM was handed    33491713 working-precision words and  2278 shell-pairs
 PRISM was handed    33491713 working-precision words and  2278 shell-pairs
 PRISM was handed    33491713 working-precision words and  2278 shell-pairs
 PRISM was handed    33491713 working-precision words and  2278 shell-pairs
 PRISM was handed    33491713 working-precision words and  2278 shell-pairs
 PRISM was handed    33491713 working-precision words and  2278 shell-pairs
 PRISM was handed    33491713 working-precision words and  2278 shell-pairs
 PRISM was handed    33491713 working-precision words and  2278 shell-pairs
 PRISM was handed    33491713 working-precision words and  2278 shell-pairs
 PRISM was handed    33491713 working-precision words and  2278 shell-pairs
 PRISM was handed    33491713 working-precision words and  2278 shell-pairs
 PRISM was handed    33491713 working-precision words and  2278 shell-pairs
 PRISM was handed    33491713 working-precision words and  2278 shell-pairs
 PRISM was handed    33491713 working-precision words and  2278 shell-pairs
 PRISM was handed    33491713 working-precision words and  2278 shell-pairs
 PRISM was handed    33491713 working-precision words and  2278 shell-pairs
 PRISM was handed    33491713 working-precision words and  2278 shell-pairs
 IPart=  1 NShTot=         138 NBatch=          48 AvBLen=         2.9
 IPart=  2 NShTot=         136 NBatch=          46 AvBLen=         3.0
 IPart=  3 NShTot=         135 NBatch=          45 AvBLen=         3.0
 IPart= 10 NShTot=         111 NBatch=          29 AvBLen=         3.8
 IPart=  7 NShTot=         121 NBatch=          34 AvBLen=         3.6
 IPart=  8 NShTot=         114 NBatch=          32 AvBLen=         3.6
 IPart=  6 NShTot=         123 NBatch=          36 AvBLen=         3.4
 IPart= 13 NShTot=         104 NBatch=          29 AvBLen=         3.6
 IPart= 11 NShTot=         111 NBatch=          29 AvBLen=         3.8
 IPart=  9 NShTot=         112 NBatch=          30 AvBLen=         3.7
 IPart= 12 NShTot=         104 NBatch=          29 AvBLen=         3.6
 IPart= 14 NShTot=         103 NBatch=          28 AvBLen=         3.7
 IPart= 15 NShTot=         102 NBatch=          28 AvBLen=         3.6
 IPart=  5 NShTot=         125 NBatch=          37 AvBLen=         3.4
 IPart=  0 NShTot=         142 NBatch=          52 AvBLen=         2.7
 IPart= 18 NShTot=          91 NBatch=          26 AvBLen=         3.5
 IPart= 19 NShTot=          91 NBatch=          26 AvBLen=         3.5
 IPart= 16 NShTot=          94 NBatch=          26 AvBLen=         3.6
 IPart=  4 NShTot=         127 NBatch=          38 AvBLen=         3.3
 IPart= 17 NShTot=          94 NBatch=          26 AvBLen=         3.6
 PrSmSu:  NxtVal=             21.
 Entering OneElI...
 Calculate potential energy integrals
    NBasis = 219  MinDer = 2  MaxDer = 2
 Requested accuracy = 0.1000D-12
 PrmmSu-InSpLW:  IPartL=    0 NPrtUS=   20 NPrtUL=    1 DoSpLW=F IThBeg=    0 IThEnd=   19 NThAct=   20.
 PrsmSu:  NPrtUS=  20 ThrOK=T IAlg=1 NPAlg=1 LenDen=           0 ISkipM=0 DoSpLW=F IThBeg=    0 IThEnd=   19.
 Prism:   IPart=     0 DynPar=F LinDyn=F Incr=          12.
 PRISM was handed    33498937 working-precision words and  2216 shell-pairs
 PRISM was handed    33498937 working-precision words and  2216 shell-pairs
 PRISM was handed    33498937 working-precision words and  2216 shell-pairs
 PRISM was handed    33498937 working-precision words and  2216 shell-pairs
 PRISM was handed    33498937 working-precision words and  2216 shell-pairs
 PRISM was handed    33498937 working-precision words and  2216 shell-pairs
 PRISM was handed    33498937 working-precision words and  2216 shell-pairs
 PRISM was handed    33498937 working-precision words and  2216 shell-pairs
 PRISM was handed    33498937 working-precision words and  2216 shell-pairs
 PRISM was handed    33498937 working-precision words and  2216 shell-pairs
 PRISM was handed    33498937 working-precision words and  2216 shell-pairs
 PRISM was handed    33498937 working-precision words and  2216 shell-pairs
 PRISM was handed    33498937 working-precision words and  2216 shell-pairs
 PRISM was handed    33498937 working-precision words and  2216 shell-pairs
 PRISM was handed    33498937 working-precision words and  2216 shell-pairs
 PRISM was handed    33498937 working-precision words and  2216 shell-pairs
 PRISM was handed    33498937 working-precision words and  2216 shell-pairs
 PRISM was handed    33498937 working-precision words and  2216 shell-pairs
 PRISM was handed    33498937 working-precision words and  2216 shell-pairs
 PRISM was handed    33498937 working-precision words and  2216 shell-pairs
 IPart=  1 NShTot=        1507 NBatch=         137 AvBLen=        11.0
 IPart=  3 NShTot=        1397 NBatch=         127 AvBLen=        11.0
 IPart=  2 NShTot=        1452 NBatch=         132 AvBLen=        11.0
 IPart=  6 NShTot=        1298 NBatch=         118 AvBLen=        11.0
 IPart=  0 NShTot=        1584 NBatch=         144 AvBLen=        11.0
 IPart=  8 NShTot=        1232 NBatch=         112 AvBLen=        11.0
 IPart=  7 NShTot=        1254 NBatch=         114 AvBLen=        11.0
 IPart= 10 NShTot=        1166 NBatch=         106 AvBLen=        11.0
 IPart=  9 NShTot=        1188 NBatch=         108 AvBLen=        11.0
 IPart=  4 NShTot=        1309 NBatch=         119 AvBLen=        11.0
 IPart= 11 NShTot=        1133 NBatch=         103 AvBLen=        11.0
 IPart= 16 NShTot=        1045 NBatch=          95 AvBLen=        11.0
 IPart= 13 NShTot=        1122 NBatch=         102 AvBLen=        11.0
 IPart=  5 NShTot=        1309 NBatch=         119 AvBLen=        11.0
 IPart= 14 NShTot=        1111 NBatch=         101 AvBLen=        11.0
 IPart= 18 NShTot=        1023 NBatch=          93 AvBLen=        11.0
 IPart= 12 NShTot=        1122 NBatch=         102 AvBLen=        11.0
 IPart= 17 NShTot=        1034 NBatch=          94 AvBLen=        11.0
 IPart= 15 NShTot=        1100 NBatch=         100 AvBLen=        11.0
 IPart= 19 NShTot=         990 NBatch=          90 AvBLen=        11.0
 PrSmSu:  NxtVal=            241.
 Polarizability after L701:
                1             2             3 
      1  0.000000D+00
      2  0.000000D+00  0.000000D+00
      3  0.000000D+00  0.000000D+00  0.000000D+00
 Dipole Derivatives after L701:
                 1             2             3             4             5 
      1  -0.296553D-01  0.297175D+00  0.477455D-01 -0.136455D+01  0.515551D+00
      2   0.165072D+00 -0.141394D+00 -0.255962D-01  0.806118D-01 -0.101346D+01
      3  -0.399603D-01 -0.136354D-01 -0.200719D+00 -0.126216D-01 -0.567191D-01
                 6             7             8             9            10 
      1  -0.230585D+00 -0.132980D+01 -0.637848D+00 -0.114117D+00 -0.313730D+00
      2   0.110647D-01 -0.289532D-01 -0.871278D+00  0.138158D-01 -0.568339D+00
      3  -0.104314D+01  0.142203D-01  0.297908D-01 -0.904497D+00  0.875786D-01
                11            12            13            14            15 
      1  -0.697169D+00  0.132836D+00  0.998341D-01 -0.182905D+00  0.538797D+00
      2  -0.770871D+00 -0.527894D-01  0.670417D-02  0.242426D+00 -0.286017D+00
      3   0.370837D-01 -0.298758D-01 -0.122711D-01 -0.110212D+00  0.581675D+00
                16            17            18            19            20 
      1   0.121152D+01  0.234688D+00 -0.291854D+00 -0.695368D-02 -0.346062D+00
      2  -0.119800D+00  0.103169D+00  0.200106D-01  0.200519D+00  0.581770D+00
      3  -0.114370D+00 -0.355494D-01  0.143382D+00  0.107802D+00  0.186872D+00
                21            22            23            24            25 
      1  -0.163708D+00  0.122868D+01 -0.212132D+00 -0.246976D+00  0.806061D-01
      2   0.259745D+00  0.137981D+00  0.137252D+00 -0.205707D-01 -0.263769D-01
      3   0.303306D+00 -0.758179D-01  0.267802D-01  0.129534D+00 -0.486717D-01
                26            27            28            29            30 
      1   0.235218D+00  0.499286D+00  0.193239D-01  0.344939D+00 -0.194676D+00
      2   0.282138D+00  0.293179D+00 -0.185917D+00  0.542385D+00 -0.283967D+00
      3   0.146945D+00  0.591167D+00  0.121930D+00 -0.189437D+00  0.325065D+00
                31            32            33 
      1   0.404729D+00  0.448546D+00  0.232512D-01
      2   0.338498D+00  0.907858D+00  0.711253D-01
      3  -0.278177D-01 -0.219192D-01  0.104102D+00
 Hessian after L701:
                1             2             3             4             5 
      1  0.273038D+01
      2 -0.279092D+01  0.817105D+01
      3  0.127801D+01 -0.615967D+00  0.127155D+02
      4  0.468721D+00 -0.489562D+00  0.375887D-01  0.975338D+01
      5 -0.477511D+00  0.556509D-01 -0.220620D-01  0.176860D+01  0.998572D+01
      6 -0.476425D-01  0.538194D-02 -0.246902D+00 -0.954421D-01  0.155578D+00
      7 -0.407710D+01  0.326637D+01  0.371748D+00  0.362857D+00  0.534629D-01
      8  0.325657D+01 -0.126470D+01  0.757020D+00 -0.715581D-01 -0.237748D+00
      9  0.383739D+00  0.758638D+00 -0.635768D+01 -0.198991D-01  0.217847D-02
     10  0.529099D+00  0.421219D+00 -0.171054D+01 -0.337739D+01 -0.229424D+01
     11  0.333841D+00 -0.710924D+01  0.326281D-01 -0.230993D+01 -0.204116D+01
     12 -0.166822D+01 -0.865269D-02 -0.656634D+01  0.226051D+00 -0.321103D+00
     13  0.425440D-01 -0.736144D-01  0.150112D-01 -0.315997D+01 -0.313844D-01
     14 -0.816206D-01  0.181749D-03 -0.170782D-01  0.824127D-02 -0.291432D+01
     15  0.643521D-01 -0.442109D-01 -0.413695D-01  0.283948D-01 -0.680237D+00
     16  0.154845D+00 -0.484596D-01 -0.247166D-01 -0.108925D+01  0.395741D+00
     17 -0.295255D-01 -0.380587D-01  0.538395D-02  0.340981D+00 -0.307527D+01
     18 -0.340605D-01  0.851002D-02 -0.399367D-01 -0.516560D+00 -0.979601D-01
     19  0.129230D-01 -0.479115D-01  0.546716D-02 -0.311652D+01  0.459871D+00
     20 -0.880245D-01  0.441617D-01  0.236874D-02  0.610603D+00 -0.167904D+01
     21 -0.233142D-01  0.207881D-01 -0.395819D-01  0.353973D+00  0.969371D+00
     22  0.187721D+00 -0.711514D-01 -0.327513D-01  0.417280D-01  0.251603D-02
     23 -0.125574D+00 -0.687130D-01  0.931819D-03 -0.689123D-02 -0.146673D-01
     24 -0.508748D-01 -0.113726D-01  0.377964D-01 -0.607268D-02 -0.122129D-02
     25  0.125392D-01 -0.747690D-01  0.183189D-01 -0.114409D-03  0.132960D-01
     26 -0.229959D-01 -0.100784D+00  0.102367D+00  0.158567D-01 -0.905219D-02
     27  0.469116D-01  0.100279D+00  0.343979D+00  0.387673D-01  0.175505D-01
     28  0.117766D-01 -0.135109D+00  0.971111D-02  0.544315D-01  0.510235D-01
     29 -0.719972D-01  0.103610D+00 -0.260826D+00  0.893400D-01 -0.681480D-02
     30  0.981910D-02 -0.239409D+00  0.165495D+00 -0.512601D-01 -0.266345D-01
     31 -0.734528D-01  0.439112D-01  0.321492D-01  0.621221D-01  0.586238D-01
     32  0.977581D-01  0.206844D+00  0.152339D-01  0.443226D-01 -0.632923D-01
     33  0.412797D-01  0.260145D-01  0.290533D-01  0.445946D-02  0.453973D-02
                6             7             8             9            10 
      6  0.122626D+02
      7 -0.237050D-01  0.109928D+02
      8  0.995670D-04 -0.267832D+01  0.974615D+01
      9 -0.261719D+00 -0.233041D+00 -0.610993D+00  0.139632D+02
     10  0.280850D+00  0.348838D+00  0.199183D+00 -0.301148D-01  0.514160D+01
     11 -0.314314D+00  0.235078D+00 -0.504795D-01  0.143703D-01  0.416387D+00
     12 -0.509475D+01  0.174204D-01  0.370413D-01 -0.115017D+00  0.137612D+01
     13  0.144507D+00  0.206129D-01 -0.194122D-01  0.116360D-01  0.639111D-01
     14 -0.726617D+00 -0.146735D-01 -0.785752D-02 -0.360672D-02  0.218782D-01
     15 -0.103466D+01  0.347884D-01 -0.208159D-01 -0.189024D-02  0.388151D-01
     16 -0.528164D+00  0.526676D-01 -0.687617D-02 -0.874631D-02  0.418662D-01
     17 -0.870512D-01  0.636214D-02 -0.202516D-01 -0.102854D-02  0.194151D-01
     18 -0.299089D+01 -0.773851D-02  0.193586D-02 -0.160519D-01 -0.273197D-01
     19  0.275287D+00  0.505216D-01 -0.508919D-01 -0.451736D-02  0.788711D-01
     20  0.984272D+00 -0.920057D-01 -0.332446D-02  0.140443D-01  0.411675D-02
     21 -0.263430D+01 -0.357892D-01  0.233351D-01 -0.463521D-01 -0.434038D-02
     22 -0.741366D-02 -0.107937D+01 -0.265291D+00 -0.441170D+00  0.149328D+00
     23  0.636549D-03 -0.211035D+00 -0.331013D+01  0.444598D-01  0.403477D-01
     24 -0.135842D-01 -0.425551D+00  0.542751D-01 -0.325635D+01 -0.285026D-01
     25  0.922857D-02 -0.341418D+01  0.186240D-02  0.370938D-01  0.142495D-01
     26  0.480908D-02 -0.651416D-01 -0.302704D+01  0.939875D+00  0.771312D-01
     27 -0.134754D-02 -0.103212D+00  0.877988D+00 -0.123108D+01  0.567815D-01
     28 -0.159128D-01 -0.331412D+01 -0.444384D+00  0.303127D+00  0.621682D-03
     29 -0.215890D-01 -0.603319D+00 -0.186619D+01 -0.115665D+01  0.305309D-01
     30 -0.354671D-01  0.400296D+00 -0.112322D+01 -0.263812D+01 -0.979156D-02
     31  0.840854D-02  0.564464D-01  0.791163D-01  0.189247D-02 -0.299099D+01
     32 -0.120602D-02  0.103222D+00  0.415719D-01 -0.128474D-02  0.106403D+01
     33  0.510548D-01  0.478288D-02  0.333801D-02 -0.388953D-01  0.580347D-01
               11            12            13            14            15 
     11  0.107301D+02
     12  0.625347D-02  0.150089D+02
     13  0.760949D-01  0.107529D-01  0.289328D+01
     14 -0.656165D-01 -0.125597D-01  0.988139D-01  0.283109D+01
     15  0.932291D-02  0.244780D+00 -0.184267D+00  0.841162D+00  0.102714D+01
     16 -0.301515D-01 -0.185295D-01  0.181437D-01 -0.154310D-01  0.361979D-01
     17  0.326232D-01 -0.107521D-01 -0.212503D-01  0.265223D-01  0.193104D-01
     18 -0.276567D-02  0.662946D-02  0.729247D-01  0.317516D-01 -0.269509D-01
     19  0.799458D-01 -0.834586D-02  0.119048D+00 -0.113675D-01 -0.421024D-01
     20 -0.611308D-01  0.142779D+00 -0.277142D-01  0.114484D+00 -0.108179D+00
     21  0.956121D-01  0.144136D+00 -0.869534D-01 -0.100001D+00 -0.179241D+00
     22  0.475232D-01 -0.253424D-01  0.534129D-02 -0.403357D-02  0.105559D-01
     23 -0.325052D-01 -0.733396D-02 -0.109014D-02 -0.762998D-03 -0.170191D-02
     24 -0.714736D-02 -0.392573D-01  0.339155D-03  0.400159D-03 -0.199416D-02
     25  0.576298D-01  0.460746D-02  0.120978D-01 -0.226769D-02  0.169911D-01
     26 -0.126390D-02  0.108705D-01  0.301161D-02 -0.724450D-02  0.499346D-02
     27  0.398560D-01 -0.423927D-01  0.179524D-01 -0.380347D-02  0.173181D-01
     28 -0.477802D-02  0.177783D-01 -0.895728D-02 -0.117413D-02  0.803700D-03
     29  0.289435D-02  0.135287D-01  0.222563D-02 -0.122903D-02  0.833279D-02
     30 -0.367851D-02 -0.139368D-01 -0.416001D-02  0.119550D-02 -0.370420D-02
     31  0.109836D+01  0.677022D-01 -0.605489D-02  0.163467D-02 -0.452924D-02
     32 -0.140425D+01  0.149928D+00 -0.568030D-02  0.247526D-01 -0.279776D-01
     33  0.129862D+00 -0.353280D+01  0.225794D-02 -0.108439D-01  0.572203D-03
               16            17            18            19            20 
     16  0.819987D+00
     17 -0.280145D+00  0.308873D+01
     18  0.549855D+00  0.734638D-01  0.303263D+01
     19 -0.132190D-01 -0.557542D-01 -0.354155D-01  0.291206D+01
     20 -0.289852D-01 -0.100034D-02 -0.139653D-01 -0.377674D+00  0.151623D+01
     21 -0.596842D-02  0.423933D-02  0.319993D-01 -0.201294D+00 -0.103205D+01
     22  0.129185D-01  0.149303D-02 -0.255211D-02  0.954005D-02 -0.141352D-01
     23 -0.120379D-02 -0.641619D-03  0.387797D-03 -0.253653D-02  0.297912D-03
     24 -0.234577D-02 -0.360549D-03 -0.465153D-03 -0.265279D-02  0.307742D-02
     25  0.477860D-02  0.113817D-02  0.182517D-03 -0.124014D-01 -0.454139D-03
     26  0.547055D-02 -0.587898D-03 -0.662357D-03  0.263655D-02 -0.118447D-02
     27  0.111182D-01  0.201061D-02 -0.223376D-02 -0.541950D-03 -0.865334D-02
     28  0.608900D-02  0.149888D-02 -0.213596D-02 -0.259695D-01  0.108622D-02
     29  0.125352D-01  0.444023D-03 -0.308704D-02  0.457474D-03 -0.604956D-03
     30 -0.902912D-02 -0.250155D-02 -0.553433D-03  0.141603D-01  0.550216D-02
     31 -0.882716D-02  0.157870D-01  0.282047D-02 -0.148614D-01  0.131876D-01
     32 -0.249398D-02 -0.125102D-01  0.239144D-02  0.322509D-02  0.711183D-01
     33  0.328784D-03 -0.271419D-02  0.582641D-02 -0.444505D-04  0.108052D-01
               21            22            23            24            25 
     21  0.273434D+01
     22 -0.821425D-02  0.698536D+00
     23  0.214517D-02  0.207360D+00  0.339260D+01
     24 -0.144114D-02  0.493539D+00 -0.332757D-01  0.324654D+01
     25 -0.479158D-02  0.190923D-02  0.237756D-01  0.772403D-01  0.324728D+01
     26 -0.109868D-02  0.160545D-01  0.272402D-01 -0.295480D-01 -0.458784D-01
     27 -0.173659D-02  0.376683D-01 -0.172881D-01 -0.175042D-01 -0.825747D-01
     28  0.143861D-01 -0.376557D-01  0.769983D-01 -0.528449D-01  0.131690D+00
     29 -0.491511D-02  0.638287D-01  0.759625D-02  0.278560D-01  0.195721D-01
     30  0.354076D-02 -0.249653D-01  0.106704D-01  0.479192D-01 -0.781403D-01
     31  0.230624D-02  0.100004D-01 -0.150858D-03 -0.227477D-02  0.214829D-02
     32  0.225748D-01  0.158364D-01 -0.319188D-03 -0.268321D-02  0.609513D-02
     33 -0.113603D-01  0.645007D-03  0.368193D-03 -0.165566D-02  0.184393D-02
               26            27            28            29            30 
     26  0.298654D+01
     27 -0.112579D+01  0.114635D+01
     28  0.566767D-02 -0.318161D-01  0.318429D+01
     29  0.123501D+00  0.103459D+00  0.450161D+00  0.162469D+01
     30  0.913940D-01 -0.211138D+00 -0.242985D+00  0.129399D+01  0.268741D+01
     31  0.818710D-02  0.894570D-02 -0.220223D-02  0.666491D-02 -0.394446D-02
     32  0.987801D-02  0.143919D-01 -0.990448D-03  0.121054D-01 -0.730799D-02
     33  0.278917D-02 -0.212545D-03 -0.111651D-03 -0.981775D-04 -0.145129D-02
               31            32            33 
     31  0.296568D+01
     32 -0.132532D+01  0.111410D+01
     33 -0.113476D+00 -0.164061D+00  0.349987D+01
 Leave Link  701 at Mon Mar 11 15:43:25 2019, MaxMem=   671088640 cpu:               6.9 elap:               0.4
 (Enter /shared/centos7/gaussian/g16/l702.exe)
 L702 exits ... SP integral derivatives will be done elsewhere.
 Leave Link  702 at Mon Mar 11 15:43:25 2019, MaxMem=   671088640 cpu:               0.3 elap:               0.0
 (Enter /shared/centos7/gaussian/g16/l703.exe)
 Integral derivatives from FoFJK, PRISM(SPDF).
 Compute integral second derivatives, UseDBF=F ICtDFT=           0.
 ICntrl=    100147.
 Calling FoFJK, ICntrl=    100147 FMM=F ISym2X=0 I1Cent= 0 IOpClX= 1 NMat=1 NMatS=1 NMatT=0.
 FoFJK:  IHMeth= 1 ICntrl=  100147 DoSepK=F KAlg= 0 I1Cent=           0 FoldK=F
 IRaf=         0 NMat=       1 IRICut=       1 DoRegI=T DoRafI=F ISym2E= 0 IDoP0=0 IntGTp=1.
 FoFCou: FMM=F IPFlag=           0 FMFlag=      100000 FMFlg1=         800
         NFxFlg=           0 DoJE=F BraDBF=F KetDBF=F FulRan=T
         wScrn=  0.000000 ICntrl=    100147 IOpCl=  1 I1Cent=           0 NGrid=           0
         NMat0=    1 NMatS0=      1 NMatT0=    0 NMatD0=    1 NMtDS0=    0 NMtDT0=    0
 Symmetry not used in FoFCou.
 FoFCou:  KetSym=F NOpSet=  1 NOpAb=1 NOp=  1.
 FoFCou:  CnvScl= 1.00D+00 Thresh= 1.00D-08 IAcrcy=      12.
 PrismS was handed   670825361 working-precision words and  2264 shell-pairs
 FoFCou: LinMIO=F DoNuc=F BraDBF=F KetDBF=F HaveP=T PDBF=F HaveZ=T HaveW=F
         NIJTC =      15 NIJTAt=       0 NIJTCD=       0 NIJTT =      15
         IJTBeg=       1 IJTEnd=      15 KLTBeg=       1 KLTEnd=      15
         IPTBeg=       1 IPTEnd=      15 IPTBCv=       1 IPTECv=      15
         IZTBeg=       1 IZTEnd=      15 IZTBCv=       1 IZTECv=      15
         IWTBeg=      16 IWTEnd=      15 IWTBCv=      16 IWTECv=      15
         INTBeg=       1 INTEnd=       0 IFTBCv=       1 IFTECv=      15
 NCel replicated for PrismC:     1
 CoulSu-InSpLW:  IPartL=    0 NPrtUS=   20 NPrtUL=    1 DoSpLW=F IThBeg=    0 IThEnd=   19 NThAct=   20.
 CoulSu:  IncDef=  1024 NBBP=        2563980 NTPThr=   100 NPartT=   20 Incr=        1024 LDynOK=F GPUOK=T.
 CoulSu:  NPrtUS=  20 ThrOK=T IAlg=1 NPAlg=1 LenDen=           0 LWGrdD=           0 DoCopy=F ISkipM=0
          DoSpLW=F IThBeg=    0 IThEnd=   19.
 Enter PrismC:  IPart=  0 JobTyp=22 DoJE=F Cont=F.
 PrismC:  IPart=     0 DynPar=T LinDyn=F Incr=        1024 UseFst=F UseS4=T ISplat=2.
 PrismC was handed    33498069 working-precision words and  2264 shell-pairs
 Enter PrismC:  IPart=  8 JobTyp=22 DoJE=F Cont=F.
 PrismC:  IPart=     8 DynPar=T LinDyn=F Incr=        1024 UseFst=F UseS4=T ISplat=2.
 Enter PrismC:  IPart=  1 JobTyp=22 DoJE=F Cont=F.
 PrismC was handed    33498069 working-precision words and  2264 shell-pairs
 PrismC:  IPart=     1 DynPar=T LinDyn=F Incr=        1024 UseFst=F UseS4=T ISplat=2.
 PrismC was handed    33498069 working-precision words and  2264 shell-pairs
 Enter PrismC:  IPart=  7 JobTyp=22 DoJE=F Cont=F.
 Enter PrismC:  IPart=  9 JobTyp=22 DoJE=F Cont=F.
 Enter PrismC:  IPart=  2 JobTyp=22 DoJE=F Cont=F.
 PrismC:  IPart=     9 DynPar=T LinDyn=F Incr=        1024 UseFst=F UseS4=T ISplat=2.
 PrismC was handed    33498069 working-precision words and  2264 shell-pairs
 Enter PrismC:  IPart=  4 JobTyp=22 DoJE=F Cont=F.
 Enter PrismC:  IPart=  5 JobTyp=22 DoJE=F Cont=F.
 PrismC:  IPart=     7 DynPar=T LinDyn=F Incr=        1024 UseFst=F UseS4=T ISplat=2.
 Enter PrismC:  IPart= 11 JobTyp=22 DoJE=F Cont=F.
 PrismC was handed    33498069 working-precision words and  2264 shell-pairs
 PrismC:  IPart=     2 DynPar=T LinDyn=F Incr=        1024 UseFst=F UseS4=T ISplat=2.
 Enter PrismC:  IPart=  3 JobTyp=22 DoJE=F Cont=F.
 PrismC:  IPart=     4 DynPar=T LinDyn=F Incr=        1024 UseFst=F UseS4=T ISplat=2.
 PrismC was handed    33498069 working-precision words and  2264 shell-pairs
 PrismC:  IPart=     3 DynPar=T LinDyn=F Incr=        1024 UseFst=F UseS4=T ISplat=2.
 PrismC was handed    33498069 working-precision words and  2264 shell-pairs
 PrismC:  IPart=    11 DynPar=T LinDyn=F Incr=        1024 UseFst=F UseS4=T ISplat=2.
 PrismC was handed    33498069 working-precision words and  2264 shell-pairs
 PrismC:  IPart=     5 DynPar=T LinDyn=F Incr=        1024 UseFst=F UseS4=T ISplat=2.
 PrismC was handed    33498069 working-precision words and  2264 shell-pairs
 PrismC was handed    33498069 working-precision words and  2264 shell-pairs
 Enter PrismC:  IPart= 17 JobTyp=22 DoJE=F Cont=F.
 Enter PrismC:  IPart= 16 JobTyp=22 DoJE=F Cont=F.
 Enter PrismC:  IPart= 12 JobTyp=22 DoJE=F Cont=F.
 PrismC:  IPart=    17 DynPar=T LinDyn=F Incr=        1024 UseFst=F UseS4=T ISplat=2.
 PrismC was handed    33498069 working-precision words and  2264 shell-pairs
 PrismC:  IPart=    16 DynPar=T LinDyn=F Incr=        1024 UseFst=F UseS4=T ISplat=2.
 PrismC:  IPart=    12 DynPar=T LinDyn=F Incr=        1024 UseFst=F UseS4=T ISplat=2.
 PrismC was handed    33498069 working-precision words and  2264 shell-pairs
 PrismC was handed    33498069 working-precision words and  2264 shell-pairs
 Enter PrismC:  IPart=  6 JobTyp=22 DoJE=F Cont=F.
 Enter PrismC:  IPart= 19 JobTyp=22 DoJE=F Cont=F.
 Enter PrismC:  IPart= 14 JobTyp=22 DoJE=F Cont=F.
 PrismC:  IPart=     6 DynPar=T LinDyn=F Incr=        1024 UseFst=F UseS4=T ISplat=2.
 PrismC was handed    33498069 working-precision words and  2264 shell-pairs
 PrismC:  IPart=    19 DynPar=T LinDyn=F Incr=        1024 UseFst=F UseS4=T ISplat=2.
 PrismC was handed    33498069 working-precision words and  2264 shell-pairs
 PrismC:  IPart=    14 DynPar=T LinDyn=F Incr=        1024 UseFst=F UseS4=T ISplat=2.
[...]
     Eigenvalues ---    0.40133   0.51025
 Angle between quadratic step and forces=  90.00 degrees.
 Linear search not attempted -- option 19 set.
 Iteration  1 RMS(Cart)=  0.00000055 RMS(Int)=  0.00000000
 ITry= 1 IFail=0 DXMaxC= 1.49D-06 DCOld= 1.00D+10 DXMaxT= 3.00D-01 DXLimC= 3.00D+00 Rises=F
 Variable       Old X    -DE/DX   Delta X   Delta X   Delta X     New X
                                 (Linear)    (Quad)   (Total)
    R1        2.66613   0.00000   0.00000   0.00000   0.00000   2.66613
    R2        2.56761   0.00000   0.00000   0.00000   0.00000   2.56761
    R3        2.81344  -0.00000   0.00000  -0.00000  -0.00000   2.81344
    R4        2.07564   0.00000   0.00000   0.00000   0.00000   2.07564
    R5        2.05593   0.00000   0.00000   0.00000   0.00000   2.05593
    R6        2.06272  -0.00000   0.00000  -0.00000  -0.00000   2.06272
    R7        2.05247  -0.00000   0.00000  -0.00000  -0.00000   2.05247
    R8        2.06527  -0.00000   0.00000  -0.00000  -0.00000   2.06527
    R9        2.06329   0.00000   0.00000   0.00000   0.00000   2.06329
   R10        2.04147   0.00000   0.00000   0.00000   0.00000   2.04147
    A1        2.03509   0.00000   0.00000   0.00000   0.00000   2.03509
    A2        1.95799  -0.00000   0.00000   0.00000   0.00000   1.95799
    A3        1.90464  -0.00000   0.00000  -0.00000  -0.00000   1.90464
    A4        1.96673   0.00000   0.00000  -0.00000  -0.00000   1.96673
    A5        1.87928  -0.00000   0.00000  -0.00000  -0.00000   1.87928
    A6        1.87160  -0.00000   0.00000   0.00000   0.00000   1.87160
    A7        1.88003  -0.00000   0.00000  -0.00000  -0.00000   1.88003
    A8        1.86236  -0.00000   0.00000  -0.00000  -0.00000   1.86236
    A9        1.93211  -0.00000   0.00000   0.00000   0.00000   1.93211
   A10        1.94710  -0.00000   0.00000  -0.00000  -0.00000   1.94710
   A11        1.91039   0.00000   0.00000   0.00000   0.00000   1.91039
   A12        1.90538   0.00000   0.00000   0.00000   0.00000   1.90538
   A13        1.90576   0.00000   0.00000   0.00000   0.00000   1.90576
   A14        2.10704   0.00000   0.00000   0.00000   0.00000   2.10704
   A15        1.93589  -0.00000   0.00000  -0.00000  -0.00000   1.93589
   A16        2.09645  -0.00000   0.00000   0.00000   0.00000   2.09645
    D1       -3.05253   0.00000   0.00000   0.00000   0.00000  -3.05253
    D2       -0.97514   0.00000   0.00000   0.00000   0.00000  -0.97514
    D3        1.15095   0.00000   0.00000   0.00000   0.00000   1.15095
    D4       -0.62573   0.00000   0.00000   0.00000   0.00000  -0.62573
    D5        3.06672   0.00000   0.00000   0.00000   0.00000   3.06672
    D6       -1.01660  -0.00000   0.00000  -0.00000  -0.00000  -1.01660
    D7        1.52428  -0.00000   0.00000  -0.00000  -0.00000   1.52428
    D8       -3.09774  -0.00000   0.00000  -0.00000  -0.00000  -3.09774
    D9       -0.55686   0.00000   0.00000  -0.00000  -0.00000  -0.55686
   D10        1.09785  -0.00000   0.00000  -0.00000  -0.00000   1.09784
   D11       -2.64446   0.00000   0.00000  -0.00000  -0.00000  -2.64446
         Item               Value     Threshold  Converged?
 Maximum Force            0.000000     0.000002     YES
 RMS     Force            0.000000     0.000001     YES
 Maximum Displacement     0.000001     0.000006     YES
 RMS     Displacement     0.000001     0.000004     YES
 Predicted change in Energy=-1.024370D-14
 Optimization completed.
    -- Stationary point found.
                           ----------------------------
                           !   Optimized Parameters   !
                           ! (Angstroms and Degrees)  !
 --------------------------                            --------------------------
 ! Name  Definition              Value          Derivative Info.                !
 --------------------------------------------------------------------------------
 ! R1    R(1,3)                  1.4109         -DE/DX =    0.0                 !
 ! R2    R(1,4)                  1.3587         -DE/DX =    0.0                 !
 ! R3    R(2,4)                  1.4888         -DE/DX =    0.0                 !
 ! R4    R(2,5)                  1.0984         -DE/DX =    0.0                 !
 ! R5    R(2,6)                  1.088          -DE/DX =    0.0                 !
 ! R6    R(2,7)                  1.0915         -DE/DX =    0.0                 !
 ! R7    R(3,8)                  1.0861         -DE/DX =    0.0                 !
 ! R8    R(3,9)                  1.0929         -DE/DX =    0.0                 !
 ! R9    R(3,10)                 1.0918         -DE/DX =    0.0                 !
 ! R10   R(4,11)                 1.0803         -DE/DX =    0.0                 !
 ! A1    A(3,1,4)              116.602          -DE/DX =    0.0                 !
 ! A2    A(4,2,5)              112.1848         -DE/DX =    0.0                 !
 ! A3    A(4,2,6)              109.128          -DE/DX =    0.0                 !
 ! A4    A(4,2,7)              112.6851         -DE/DX =    0.0                 !
 ! A5    A(5,2,6)              107.6747         -DE/DX =    0.0                 !
 ! A6    A(5,2,7)              107.235          -DE/DX =    0.0                 !
 ! A7    A(6,2,7)              107.718          -DE/DX =    0.0                 !
 ! A8    A(1,3,8)              106.7053         -DE/DX =    0.0                 !
 ! A9    A(1,3,9)              110.7017         -DE/DX =    0.0                 !
 ! A10   A(1,3,10)             111.5608         -DE/DX =    0.0                 !
 ! A11   A(8,3,9)              109.4574         -DE/DX =    0.0                 !
 ! A12   A(8,3,10)             109.1702         -DE/DX =    0.0                 !
 ! A13   A(9,3,10)             109.1922         -DE/DX =    0.0                 !
 ! A14   A(1,4,2)              120.7246         -DE/DX =    0.0                 !
 ! A15   A(1,4,11)             110.9185         -DE/DX =    0.0                 !
 ! A16   A(2,4,11)             120.1178         -DE/DX =    0.0                 !
 ! D1    D(4,1,3,8)           -174.8971         -DE/DX =    0.0                 !
 ! D2    D(4,1,3,9)            -55.8714         -DE/DX =    0.0                 !
 ! D3    D(4,1,3,10)            65.9445         -DE/DX =    0.0                 !
 ! D4    D(3,1,4,2)            -35.8514         -DE/DX =    0.0                 !
 ! D5    D(3,1,4,11)           175.7104         -DE/DX =    0.0                 !
 ! D6    D(5,2,4,1)            -58.247          -DE/DX =    0.0                 !
 ! D7    D(5,2,4,11)            87.3349         -DE/DX =    0.0                 !
 ! D8    D(6,2,4,1)           -177.4876         -DE/DX =    0.0                 !
 ! D9    D(6,2,4,11)           -31.9056         -DE/DX =    0.0                 !
 ! D10   D(7,2,4,1)             62.9019         -DE/DX =    0.0                 !
 ! D11   D(7,2,4,11)          -151.5162         -DE/DX =    0.0                 !
 --------------------------------------------------------------------------------
 GradGradGradGradGradGradGradGradGradGradGradGradGradGradGradGradGradGrad

 Leave Link  103 at Mon Mar 11 15:46:58 2019, MaxMem=   671088640 cpu:               0.4 elap:               0.0
 (Enter /shared/centos7/gaussian/g16/l9999.exe)

 ----------------------------------------------------------------------

 Electric dipole moment (input orientation):
 (Debye = 10**-18 statcoulomb cm , SI units = C m)
                  (au)            (Debye)         (10**-30 SI)
   Tot        0.573721D+00      0.145825D+01      0.486421D+01
   x          0.770174D-01      0.195759D+00      0.652981D+00
   y         -0.566785D+00     -0.144062D+01     -0.480540D+01
   z          0.444859D-01      0.113072D+00      0.377167D+00

 Dipole polarizability, Alpha (input orientation).
 (esu units = cm**3 , SI units = C**2 m**2 J**-1)
 Alpha(0;0):
               (au)            (10**-24 esu)      (10**-40 SI)
   iso        0.427872D+02      0.634040D+01      0.705465D+01
   aniso      0.102843D+02      0.152398D+01      0.169565D+01
   xx         0.488709D+02      0.724193D+01      0.805773D+01
   yx         0.163175D+01      0.241801D+00      0.269040D+00
   yy         0.414635D+02      0.614425D+01      0.683640D+01
   zx        -0.195519D+00     -0.289730D-01     -0.322368D-01
   zy        -0.135766D+01     -0.201184D+00     -0.223848D+00
   zz         0.380271D+02      0.563503D+01      0.626981D+01

 ----------------------------------------------------------------------

 Dipole orientation:
     8         -1.16707249          0.23960138         -1.43396819
     6          2.58902673          0.32656016          1.35416367
     6         -2.69862800         -0.51442249          0.61396691
     6          1.36623754         -0.06656208         -1.14896841
     1          2.26122000          2.23754037          2.09508372
     1          4.61986252          0.07253234          1.15918963
     1          1.92406046         -1.00503872          2.78227181
     1         -4.64662830         -0.30349609          0.00288117
     1         -2.34147359         -2.48849940          1.10470034
     1         -2.37813421          0.66620447          2.27545708
     1          2.35786627          0.43047960         -2.86279605

 Electric dipole moment (dipole orientation):
 (Debye = 10**-18 statcoulomb cm , SI units = C m)
                  (au)            (Debye)         (10**-30 SI)
   Tot        0.573721D+00      0.145825D+01      0.486421D+01
   x          0.000000D+00      0.000000D+00      0.000000D+00
   y          0.000000D+00      0.000000D+00      0.000000D+00
   z          0.573721D+00      0.145825D+01      0.486421D+01

 Dipole polarizability, Alpha (dipole orientation).
 (esu units = cm**3 , SI units = C**2 m**2 J**-1)
 Alpha(0;0):
               (au)            (10**-24 esu)      (10**-40 SI)
   iso        0.427872D+02      0.634040D+01      0.705465D+01
   aniso      0.102843D+02      0.152398D+01      0.169565D+01
   xx         0.490547D+02      0.726916D+01      0.808803D+01
   yx         0.119354D+01      0.176864D+00      0.196788D+00
   yy         0.379593D+02      0.562499D+01      0.625864D+01
   zx        -0.748964D+00     -0.110985D+00     -0.123487D+00
   zy         0.968708D+00      0.143548D+00      0.159718D+00
   zz         0.413474D+02      0.612706D+01      0.681727D+01

 ----------------------------------------------------------------------

 Test job not archived.
 1\1\GINC-C0287\Freq\UM062X\6-311+G(2df,2p)\C3H7O1(2)\UNDERKOFFLER.C\11
 -Mar-2019\0\\#P Geom=AllCheck Guess=TCheck SCRF=Check Test GenChk UM06
 2X/6-311+G(2df,2p) Freq\\Gaussian input prepared by ASE\\0,2\O,-0.6935
 20514,0.6855909532,0.1493263832\C,1.464606314,-0.5230191078,0.04236426
 6\C,-1.394058412,-0.5223886054,-0.0520326525\C,0.6249352033,0.68631860
 48,-0.1789963213\H,1.4711330115,-0.8363830925,1.0950738821\H,2.4909102
 733,-0.3014959098,-0.2427026126\H,1.1333303514,-1.3793363626,-0.547932
 569\H,-2.4373286903,-0.319275182,0.1715429658\H,-1.3019301679,-0.85414
 3962,-1.0892755006\H,-1.0323751768,-1.3112162742,0.6105821731\H,1.0515
 318075,1.6716499383,-0.0599180143\\Version=EM64L-G16RevA.03\State=2-A\
 HF=-193.6538476\S2=0.754439\S2-1=0.\S2A=0.750016\RMSD=1.112e-09\RMSF=7
 .023e-07\ZeroPoint=0.0954714\Thermal=0.1009545\Dipole=0.0770174,-0.566
 7846,0.0444859\DipoleDeriv=-1.323457,-0.2065489,0.1343593,-0.2374635,-
 0.6777947,-0.0224457,0.2619286,-0.0011918,-0.3446285,-0.0623459,0.0028
 078,0.040546,0.0917684,-0.0152856,-0.0406204,-0.0203391,0.0366478,0.12
 936,0.4873515,0.1752526,0.0258661,0.3645826,0.5684702,0.0246167,0.0720
 05,0.0397618,0.3334449,0.982661,0.050978,-0.2236018,-0.12146,0.2458851
 ,-0.0094427,-0.2111953,-0.0310887,-0.155627,0.0469466,0.024587,0.01048
 63,0.0665845,0.000959,0.0635361,-0.0324661,0.0934021,-0.1202979,-0.085
 3461,-0.0167657,0.0318849,-0.0477321,0.066493,0.0188208,0.0469694,0.01
 46765,0.0703777,0.0457004,-0.0518778,-0.0460412,-0.0084311,-0.0688887,
 -0.0475387,-0.037607,-0.0690415,0.0129289,-0.1120787,-0.0136456,0.0272
 782,0.0456225,0.0466777,-0.0151377,0.0398298,-0.0083101,0.0773799,0.04
 27169,-0.0000071,0.062046,-0.074058,-0.0049571,-0.0121841,-0.0419692,-
 0.0870118,-0.1216561,0.0156139,0.0593065,-0.0661657,-0.0469401,-0.0785
 217,0.0562095,-0.0521217,0.0840556,-0.0260034,-0.0377627,-0.024087,0.0
 033421,-0.0324731,-0.0830371,-0.0158139,-0.0250346,-0.0719,0.1447215\P
 olar=48.8709334,1.6317523,41.4634643,-0.1955194,-1.3576577,38.0270573\
 Quadrupole=1.5197458,-0.4213668,-1.0983789,1.4690317,0.3574299,0.11264
 15\PG=C01 [X(C3H7O1)]\NImag=0\\0.52017557,0.11300898,0.36530962,-0.072
 63357,0.04709892,0.09050010,-0.03138300,0.02747641,-0.00679319,0.55698
 237,-0.00063840,0.00739682,0.00233656,0.04100834,0.51574226,0.00690526
 ,-0.01138169,0.00685058,-0.02149450,0.01777119,0.50453444,-0.11701728,
 -0.04897011,-0.00291527,-0.00203837,0.00012218,0.00067640,0.60071411,-
 0.07798474,-0.21313597,-0.02488968,0.00342904,0.00431074,0.00106867,-0
 .05011134,0.51094245,-0.01228740,-0.03303724,-0.06799099,0.00138775,-0
 .00123817,-0.00137044,-0.02112517,-0.01173880,0.57329032,-0.32370013,-
 0.01816469,0.08698211,-0.12120244,0.05876197,-0.01207675,-0.03700133,-
 0.01430449,0.00510759,0.56825431,0.01361657,-0.10046095,-0.00964724,0.
 06001359,-0.19406754,0.03181177,-0.03912351,-0.00274015,0.01138734,0.0
 4876519,0.63761099,0.08258943,0.00123625,-0.04485840,-0.00222521,0.011
 54445,-0.05575826,-0.00351541,0.00037455,-0.00061793,-0.06102126,0.001
 46763,0.11916115,0.00002365,-0.00179354,0.00276482,-0.04580585,-0.0000
 4077,-0.00172772,0.00022755,0.00051925,-0.00080265,0.00094132,0.008853
 30,-0.01928134,0.04448717,0.00145168,0.00214172,-0.00446980,-0.0018885
 2,-0.06009788,0.06680833,-0.00009966,-0.00058663,-0.00021726,0.0007980
 6,-0.01466798,0.02913281,-0.00141775,0.06863046,-0.00327491,-0.0007921
 1,0.00183872,0.00486896,0.05856928,-0.27124633,0.00044657,0.00127566,-
 0.00060842,-0.00206948,0.00904461,-0.00291982,-0.00019629,-0.07274325,
 0.29901610,-0.00160571,0.00336775,-0.00078785,-0.29104277,-0.05337844,
 0.06832914,0.00081578,0.00106300,0.00019528,-0.01787970,-0.00730380,0.
 00463692,0.00122827,0.00011795,0.00006236,0.31551931,0.00570212,-0.004
 88359,0.00111779,-0.05610409,-0.05827985,0.01540297,-0.00147006,-0.002
 07205,0.00031372,0.02624881,0.00845105,-0.00764098,-0.00779849,-0.0025
 9281,0.00125933,0.05745589,0.06262793,-0.00082157,0.00095002,0.0013260
 3,0.06954707,0.01474307,-0.06370066,-0.00025025,0.00014042,-0.00013402
 ,-0.00578572,-0.00168237,-0.00097803,0.02965124,0.00622033,-0.00746982
 ,-0.07464668,-0.01764923,0.06606655,-0.00046751,-0.00126274,-0.0001259
 7,-0.07255821,-0.06246788,-0.04402636,-0.00108467,0.00032015,0.0013366
 6,0.00937677,0.01432903,0.00959151,-0.00029640,0.00025178,0.00084683,-
 0.00829565,-0.02299422,-0.01776644,0.07642398,0.00122694,0.00137558,-0
 .00009519,-0.06523201,-0.20165463,-0.11487141,-0.00104994,-0.00047582,
 -0.00049183,-0.00868187,-0.02571489,-0.00745000,0.00240371,0.00697174,
 0.00414131,-0.00164404,-0.00468755,-0.00250680,0.06927887,0.22557950,0
 .00066443,-0.00032563,-0.00025161,-0.04540237,-0.11276975,-0.12299466,
 -0.00086224,-0.00118717,0.00061811,0.00445474,0.00663652,0.00487255,-0
 .01074583,-0.02433517,-0.01877696,0.00209621,0.00809936,0.00466374,0.0
 5102651,0.12193967,0.13289313,-0.02174512,-0.00451381,0.00335487,0.000
 23733,-0.00028034,0.00009024,-0.29902098,0.05545860,0.05450449,0.00158
 258,-0.00265183,-0.00129502,0.00000232,0.00007516,-0.00002355,-0.00006
 258,-0.00001168,-0.00000314,0.00010429,-0.00001723,-0.00006391,0.32873
 889,-0.04227330,-0.00127831,0.00696977,0.00053965,-0.00059101,-0.00050
 300,0.06849747,-0.06127739,-0.01416723,-0.00080410,-0.00499210,-0.0012
 8116,-0.00016969,0.00001422,-0.00020537,0.00005631,0.00045723,0.000116
 16,0.00018324,0.00051163,0.00045441,-0.05291724,0.07099815,-0.00713189
 ,0.00024810,0.00193686,-0.00014987,-0.00010757,0.00006421,0.05823418,-
 0.01186366,-0.06479456,-0.00021290,-0.00054319,0.00039613,0.00021120,0
 .00009479,0.00014293,0.00000685,-0.00006943,0.00010599,-0.00021830,0.0
 0017216,-0.00017936,-0.05982239,0.01447044,0.06093841,-0.00339610,-0.0
 1388936,-0.01906690,-0.00035066,0.00005449,-0.00031490,-0.05577398,0.0
 1050553,0.02942141,0.00474445,0.00005314,-0.00195550,0.00004150,-0.000
 06155,-0.00003521,0.00003643,0.00014275,0.00010366,-0.00061670,0.00029
 927,-0.00031778,-0.00026950,0.00768114,0.02953918,0.05371968,-0.009216
 01,-0.02319919,-0.03247820,-0.00042561,0.00018560,0.00032872,0.0079857
 3,-0.06678399,-0.06097437,0.00540503,0.00081086,-0.00035135,-0.0000167
 1,0.00014953,-0.00017188,-0.00006244,0.00003429,-0.00010655,-0.0001371
 9,0.00011132,-0.00013423,0.00143829,-0.00093912,-0.00669168,-0.0025698
 5,0.08112075,-0.00440719,-0.00920434,0.00086524,0.00024087,-0.00023851
 ,-0.00086930,0.02559480,-0.06540169,-0.28667099,0.00055380,-0.00050888
 ,0.00104000,-0.00008446,0.00026609,0.00017157,0.00006286,0.00020698,0.
 00026409,-0.00045428,0.00064737,0.00024499,0.00061898,0.00000024,-0.00
 426779,-0.02550673,0.07892949,0.30743142,0.00477962,-0.02035261,0.0129
 6447,-0.00109255,0.00069102,0.00087632,-0.08629215,0.06832477,-0.06018
 813,0.00346252,-0.00148771,0.00035238,-0.00072500,0.00031181,-0.000288
 69,0.00024573,-0.00039670,-0.00022434,-0.00127536,-0.00006292,0.000149
 72,-0.00873283,0.02063013,-0.02031837,0.00188322,-0.00230390,0.0036597
 9,0.08799452,-0.00387394,-0.03699958,0.01467377,0.00017311,0.00070687,
 0.00006772,0.06317300,-0.17048985,0.11025286,0.00582278,-0.00076087,-0
 .00030474,-0.00043339,0.00029115,-0.00049762,0.00004728,0.00041522,-0.
 00015364,-0.00000633,0.00038606,0.00006732,0.00344048,-0.00287869,0.00
 429375,-0.00228617,0.00853425,-0.00482546,-0.06556205,0.20066143,0.005
 63135,-0.00505942,0.00870878,-0.00054494,0.00058535,0.00055615,-0.0577
 9727,0.11269974,-0.15387041,-0.00103943,0.00039306,0.00056448,-0.00017
 816,0.00019424,0.00023123,-0.00007861,-0.00054899,-0.00017918,0.000208
 96,-0.00022568,-0.00089032,0.00253414,-0.00612817,0.00535453,-0.012222
 21,0.02135837,-0.01805238,0.06332915,-0.12321163,0.15769450,-0.0256639
 8,-0.03490629,-0.00374351,0.00825415,0.01616782,0.00276288,-0.00352868
 ,0.00278023,0.00245018,-0.08857836,-0.09506399,-0.00787649,-0.00012454
 ,0.00046104,-0.00033658,0.00104089,-0.00077434,0.00019618,-0.00131054,
 0.00347923,-0.00099947,-0.00083440,-0.00142361,-0.00013768,-0.00001835
 ,-0.00009733,-0.00027843,-0.00024772,-0.00049478,0.00015700,0.11101153
 ,-0.00101990,0.00373385,-0.00061669,-0.00898991,-0.01365139,-0.0065032
 7,0.00104623,0.00230866,-0.00008902,-0.10384671,-0.30346841,-0.0267274
 6,-0.00010592,-0.00025352,0.00012005,0.00028053,0.00053013,-0.00007140
 ,0.00250530,-0.00240294,0.00155468,-0.00002041,-0.00002461,-0.00000371
 ,0.00007060,-0.00002429,0.00012871,0.00020816,0.00013403,-0.00005687,0
 .10987203,0.31311849,0.00476606,0.01026713,0.00107470,0.00056543,0.008
 80409,0.00393427,0.00151367,-0.00047803,0.00214934,-0.01489269,-0.0483
 5924,-0.02090186,0.00038921,-0.00095110,-0.00037919,0.00012352,-0.0004
 9151,0.00003531,-0.00041911,-0.00125959,-0.00019963,0.00010530,0.00027
 391,0.00030265,0.00035498,0.00029167,-0.00015685,-0.00031229,-0.000362
 32,-0.00011737,0.00780592,0.03226498,0.01425865\\0.00000055,0.00000047
 ,-0.00000005,-0.00000017,-0.00000084,0.00000038,-0.00000014,0.00000095
 ,-0.00000053,0.00000063,-0.00000027,0.00000036,-0.00000070,-0.00000107
 ,0.00000030,0.00000006,-0.00000141,0.00000075,-0.00000051,-0.00000051,
 0.00000008,-0.00000009,0.00000154,-0.00000082,-0.00000002,0.00000111,-
 0.00000058,-0.00000084,0.00000058,-0.00000059,0.00000121,-0.00000056,0
 .00000071\\\@


 JUST WHEN YOU THINK YOU'VE GOT THE WORLD ON A STRING,
 YOU FIND OUT IT'S YOUR LEASH.
 Job cpu time:       0 days  0 hours 52 minutes 17.8 seconds.
 Elapsed time:       0 days  0 hours  2 minutes 38.0 seconds.
 File lengths (MBytes):  RWF=   1328 Int=      0 D2E=      0 Chk=     32 Scr=     32
 Normal termination of Gaussian 16 at Mon Mar 11 15:46:58 2019.
