 Entering Gaussian System, Link 0=g16
 Input=JQCSUVJDBHJKNG-UHFFFAOYSA-N_36by-10.0_tor02_a1.com
 Output=JQCSUVJDBHJKNG-UHFFFAOYSA-N_36by-10.0_tor02_a1.log
 Initial command:
 /shared/centos7/gaussian/g16/l1.exe "/scratch/underkoffler.c/gaussian_scratch/Gau-811.inp" -scrdir="/scratch/underkoffler.c/gaussian_scratch/"
 Entering Link 1 = /shared/centos7/gaussian/g16/l1.exe PID=       812.
  
 Copyright (c) 1988,1990,1992,1993,1995,1998,2003,2009,2016,
            Gaussian, Inc.  All Rights Reserved.
  
 This is part of the Gaussian(R) 16 program.  It is based on
 the Gaussian(R) 09 system (copyright 2009, Gaussian, Inc.),
 the Gaussian(R) 03 system (copyright 2003, Gaussian, Inc.),
 the Gaussian(R) 98 system (copyright 1998, Gaussian, Inc.),
 the Gaussian(R) 94 system (copyright 1995, Gaussian, Inc.),
 the Gaussian 92(TM) system (copyright 1992, Gaussian, Inc.),
 the Gaussian 90(TM) system (copyright 1990, Gaussian, Inc.),
 the Gaussian 88(TM) system (copyright 1988, Gaussian, Inc.),
 the Gaussian 86(TM) system (copyright 1986, Carnegie Mellon
 University), and the Gaussian 82(TM) system (copyright 1983,
 Carnegie Mellon University). Gaussian is a federally registered
 trademark of Gaussian, Inc.
  
 This software contains proprietary and confidential information,
 including trade secrets, belonging to Gaussian, Inc.
  
 This software is provided under written license and may be
 used, copied, transmitted, or stored only in accord with that
 written license.
  
 The following legend is applicable only to US Government
 contracts under FAR:
  
                    RESTRICTED RIGHTS LEGEND
  
 Use, reproduction and disclosure by the US Government is
 subject to restrictions as set forth in subparagraphs (a)
 and (c) of the Commercial Computer Software - Restricted
 Rights clause in FAR 52.227-19.
  
 Gaussian, Inc.
 340 Quinnipiac St., Bldg. 40, Wallingford CT 06492
  
  
 ---------------------------------------------------------------
 Warning -- This program may not be used in any manner that
 competes with the business of Gaussian, Inc. or will provide
 assistance to any competitor of Gaussian, Inc.  The licensee
 of this program is prohibited from giving any competitor of
 Gaussian, Inc. access to this program.  By using this program,
 the user acknowledges that Gaussian, Inc. is engaged in the
 business of creating and licensing software in the field of
 computational chemistry and represents and warrants to the
 licensee that it is not a competitor of Gaussian, Inc. and that
 it will not use this program in any manner prohibited above.
 ---------------------------------------------------------------
  

 Cite this work as:
 Gaussian 16, Revision A.03,
 M. J. Frisch, G. W. Trucks, H. B. Schlegel, G. E. Scuseria, 
 M. A. Robb, J. R. Cheeseman, G. Scalmani, V. Barone, 
 G. A. Petersson, H. Nakatsuji, X. Li, M. Caricato, A. V. Marenich, 
 J. Bloino, B. G. Janesko, R. Gomperts, B. Mennucci, H. P. Hratchian, 
 J. V. Ortiz, A. F. Izmaylov, J. L. Sonnenberg, D. Williams-Young, 
 F. Ding, F. Lipparini, F. Egidi, J. Goings, B. Peng, A. Petrone, 
 T. Henderson, D. Ranasinghe, V. G. Zakrzewski, J. Gao, N. Rega, 
 G. Zheng, W. Liang, M. Hada, M. Ehara, K. Toyota, R. Fukuda, 
 J. Hasegawa, M. Ishida, T. Nakajima, Y. Honda, O. Kitao, H. Nakai, 
 T. Vreven, K. Throssell, J. A. Montgomery, Jr., J. E. Peralta, 
 F. Ogliaro, M. J. Bearpark, J. J. Heyd, E. N. Brothers, K. N. Kudin, 
 V. N. Staroverov, T. A. Keith, R. Kobayashi, J. Normand, 
 K. Raghavachari, A. P. Rendell, J. C. Burant, S. S. Iyengar, 
 J. Tomasi, M. Cossi, J. M. Millam, M. Klene, C. Adamo, R. Cammi, 
 J. W. Ochterski, R. L. Martin, K. Morokuma, O. Farkas, 
 J. B. Foresman, and D. J. Fox, Gaussian, Inc., Wallingford CT, 2016.
 
 ******************************************
 Gaussian 16:  EM64L-G16RevA.03 25-Dec-2016
                12-Mar-2019 
 ******************************************
 %nprocshared=20
 Will use up to   20 processors via shared memory.
 %mem=5GB
 ----------------------------------------------
 #p m062x/6-311+g(2df,2p) Opt=(CalcFC,ModRedun)
 ----------------------------------------------
 1/10=4,18=120,19=15,26=3,38=1/1,3;
 2/9=110,12=2,17=6,18=5,40=1/2;
 3/5=4,6=6,7=214,11=2,25=1,30=1,71=2,74=-55,140=1/1,2,3;
 4//1;
 5/5=2,38=5/2;
 8/6=4,10=90,11=11/1;
 11/6=1,8=1,9=11,15=111,16=1/1,2,10;
 10/6=1,13=1/2;
 6/7=2,8=2,9=2,10=2,28=1/1;
 7/10=1,18=20,25=1/1,2,3,16;
 1/10=4,18=20,19=15,26=3/3(2);
 2/9=110/2;
 99//99;
 2/9=110/2;
 3/5=4,6=6,7=214,11=2,25=1,30=1,71=1,74=-55/1,2,3;
 4/5=5,16=3,69=1/1;
 5/5=2,38=5/2;
 7//1,2,3,16;
 1/18=20,19=15,26=3/3(-5);
 2/9=110/2;
 6/7=2,8=2,9=2,10=2,19=2,28=1/1;
 99/9=1/99;
 Leave Link    1 at Tue Mar 12 00:33:33 2019, MaxMem=   671088640 cpu:              20.0 elap:               1.1
 (Enter /shared/centos7/gaussian/g16/l101.exe)
 ----------------------------------------
 Gaussian Input Prepared from Scan Object
 ----------------------------------------
 Symbolic Z-matrix:
 Charge =  0 Multiplicity = 2
 O                    -0.69352   0.68559   0.14933 
 C                     1.46461  -0.52302   0.04236 
 C                    -1.39406  -0.52239  -0.05203 
 C                     0.62494   0.68632  -0.179 
 H                     1.47113  -0.83638   1.09507 
 H                     2.49091  -0.3015   -0.2427 
 H                     1.13333  -1.37934  -0.54793 
 H                    -2.43733  -0.31928   0.17154 
 H                    -1.30193  -0.85414  -1.08928 
 H                    -1.03238  -1.31122   0.61058 
 H                     1.05153   1.67165  -0.05992 
 
 The following ModRedundant input section has been read:
 B       3       9 B                                                           
 B       4      11 B                                                           
 B       3      10 B                                                           
 B       1       4 B                                                           
 B       3       8 B                                                           
 B       2       6 B                                                           
 B       2       5 B                                                           
 B       2       4 B                                                           
 B       1       3 B                                                           
 B       2       7 B                                                           
 D       4       1       3      10 S  36 -10.00                                
 
 ITRead=  0  0  0  0  0  0  0  0  0  0  0
 MicOpt= -1 -1 -1 -1 -1 -1 -1 -1 -1 -1 -1
 NAtoms=     11 NQM=       11 NQMF=       0 NMMI=      0 NMMIF=      0
                NMic=       0 NMicF=      0.
                    Isotopes and Nuclear Properties:
 (Nuclear quadrupole moments (NQMom) in fm**2, nuclear magnetic moments (NMagM)
  in nuclear magnetons)

  Atom         1           2           3           4           5           6           7           8           9          10
 IAtWgt=          16          12          12          12           1           1           1           1           1           1
 AtmWgt=  15.9949146  12.0000000  12.0000000  12.0000000   1.0078250   1.0078250   1.0078250   1.0078250   1.0078250   1.0078250
 NucSpn=           0           0           0           0           1           1           1           1           1           1
 AtZEff=  -0.0000000  -0.0000000  -0.0000000  -0.0000000  -0.0000000  -0.0000000  -0.0000000  -0.0000000  -0.0000000  -0.0000000
 NQMom=    0.0000000   0.0000000   0.0000000   0.0000000   0.0000000   0.0000000   0.0000000   0.0000000   0.0000000   0.0000000
 NMagM=    0.0000000   0.0000000   0.0000000   0.0000000   2.7928460   2.7928460   2.7928460   2.7928460   2.7928460   2.7928460
 AtZNuc=   8.0000000   6.0000000   6.0000000   6.0000000   1.0000000   1.0000000   1.0000000   1.0000000   1.0000000   1.0000000

  Atom        11
 IAtWgt=           1
 AtmWgt=   1.0078250
 NucSpn=           1
 AtZEff=  -0.0000000
 NQMom=    0.0000000
 NMagM=    2.7928460
 AtZNuc=   1.0000000
 Leave Link  101 at Tue Mar 12 00:33:33 2019, MaxMem=   671088640 cpu:               4.1 elap:               0.3
 (Enter /shared/centos7/gaussian/g16/l103.exe)

 GradGradGradGradGradGradGradGradGradGradGradGradGradGradGradGradGradGrad
 Berny optimization.
 Initialization pass.
                           ----------------------------
                           !    Initial Parameters    !
                           ! (Angstroms and Degrees)  !
 --------------------------                            --------------------------
 ! Name  Definition              Value          Derivative Info.                !
 --------------------------------------------------------------------------------
 ! R1    R(1,3)                  1.4109         calculate D2E/DX2 analytically  !
 ! R2    R(1,4)                  1.3587         calculate D2E/DX2 analytically  !
 ! R3    R(2,4)                  1.4888         calculate D2E/DX2 analytically  !
 ! R4    R(2,5)                  1.0984         calculate D2E/DX2 analytically  !
 ! R5    R(2,6)                  1.088          calculate D2E/DX2 analytically  !
 ! R6    R(2,7)                  1.0915         calculate D2E/DX2 analytically  !
 ! R7    R(3,8)                  1.0861         calculate D2E/DX2 analytically  !
 ! R8    R(3,9)                  1.0929         calculate D2E/DX2 analytically  !
 ! R9    R(3,10)                 1.0918         calculate D2E/DX2 analytically  !
 ! R10   R(4,11)                 1.0803         calculate D2E/DX2 analytically  !
 ! A1    A(3,1,4)              116.602          calculate D2E/DX2 analytically  !
 ! A2    A(4,2,5)              112.1848         calculate D2E/DX2 analytically  !
 ! A3    A(4,2,6)              109.128          calculate D2E/DX2 analytically  !
 ! A4    A(4,2,7)              112.6851         calculate D2E/DX2 analytically  !
 ! A5    A(5,2,6)              107.6747         calculate D2E/DX2 analytically  !
 ! A6    A(5,2,7)              107.235          calculate D2E/DX2 analytically  !
 ! A7    A(6,2,7)              107.718          calculate D2E/DX2 analytically  !
 ! A8    A(1,3,8)              106.7053         calculate D2E/DX2 analytically  !
 ! A9    A(1,3,9)              110.7017         calculate D2E/DX2 analytically  !
 ! A10   A(1,3,10)             111.5608         calculate D2E/DX2 analytically  !
 ! A11   A(8,3,9)              109.4574         calculate D2E/DX2 analytically  !
 ! A12   A(8,3,10)             109.1702         calculate D2E/DX2 analytically  !
 ! A13   A(9,3,10)             109.1922         calculate D2E/DX2 analytically  !
 ! A14   A(1,4,2)              120.7246         calculate D2E/DX2 analytically  !
 ! A15   A(1,4,11)             110.9185         calculate D2E/DX2 analytically  !
 ! A16   A(2,4,11)             120.1178         calculate D2E/DX2 analytically  !
 ! D1    D(4,1,3,8)           -174.8971         calculate D2E/DX2 analytically  !
 ! D2    D(4,1,3,9)            -55.8714         calculate D2E/DX2 analytically  !
 ! D3    D(4,1,3,10)            65.9445         Scan                            !
 ! D4    D(3,1,4,2)            -35.8514         calculate D2E/DX2 analytically  !
 ! D5    D(3,1,4,11)           175.7104         calculate D2E/DX2 analytically  !
 ! D6    D(5,2,4,1)            -58.247          calculate D2E/DX2 analytically  !
 ! D7    D(5,2,4,11)            87.3349         calculate D2E/DX2 analytically  !
 ! D8    D(6,2,4,1)           -177.4876         calculate D2E/DX2 analytically  !
 ! D9    D(6,2,4,11)           -31.9056         calculate D2E/DX2 analytically  !
 ! D10   D(7,2,4,1)             62.9019         calculate D2E/DX2 analytically  !
 ! D11   D(7,2,4,11)          -151.5162         calculate D2E/DX2 analytically  !
 --------------------------------------------------------------------------------
 Trust Radius=3.00D-01 FncErr=1.00D-07 GrdErr=1.00D-06 EigMax=2.50D+02 EigMin=1.00D-04
 Number of optimizations in scan=  37
 Number of steps in this run=     47 maximum allowed number of steps=    100.
 GradGradGradGradGradGradGradGradGradGradGradGradGradGradGradGradGradGrad

 Leave Link  103 at Tue Mar 12 00:33:33 2019, MaxMem=   671088640 cpu:               0.2 elap:               0.0
 (Enter /shared/centos7/gaussian/g16/l202.exe)
                          Input orientation:                          
 ---------------------------------------------------------------------
 Center     Atomic      Atomic             Coordinates (Angstroms)
 Number     Number       Type             X           Y           Z
 ---------------------------------------------------------------------
      1          8           0       -0.693521    0.685591    0.149326
      2          6           0        1.464606   -0.523019    0.042364
      3          6           0       -1.394058   -0.522389   -0.052033
      4          6           0        0.624935    0.686319   -0.178996
      5          1           0        1.471133   -0.836383    1.095074
      6          1           0        2.490910   -0.301496   -0.242703
      7          1           0        1.133330   -1.379336   -0.547933
      8          1           0       -2.437329   -0.319275    0.171543
      9          1           0       -1.301930   -0.854144   -1.089276
     10          1           0       -1.032375   -1.311216    0.610582
     11          1           0        1.051532    1.671650   -0.059918
 ---------------------------------------------------------------------
                    Distance matrix (angstroms):
                    1          2          3          4          5
     1  O    0.000000
     2  C    2.475821   0.000000
     3  C    1.410856   2.860223   0.000000
     4  C    1.358721   1.488807   2.356571   0.000000
     5  H    2.810083   1.098379   3.102220   2.158223   0.000000
     6  H    3.356878   1.087950   3.895912   2.112273   1.765133
     7  H    2.843849   1.091546   2.714401   2.159053   1.763060
     8  H    2.012739   3.909386   1.086119   3.242153   4.049245
     9  H    2.067627   3.007320   1.092896   2.629533   3.530096
    10  H    2.077214   2.679374   1.091844   2.712979   2.593791
    11  H    2.015268   2.235546   3.285541   1.080297   2.792902
                    6          7          8          9         10
     6  H    0.000000
     7  H    1.760093   0.000000
     8  H    4.945650   3.793545   0.000000
     9  H    3.925270   2.549387   1.779010   0.000000
    10  H    3.763133   2.457046   1.774992   1.780756   0.000000
    11  H    2.449189   3.090852   4.023618   3.602498   3.699963
                   11
    11  H    0.000000
 Stoichiometry    C3H7O(2)
 Framework group  C1[X(C3H7O)]
 Deg. of freedom    27
 Full point group                 C1      NOp   1
 Largest Abelian subgroup         C1      NOp   1
 Largest concise Abelian subgroup C1      NOp   1
                         Standard orientation:                         
 ---------------------------------------------------------------------
 Center     Atomic      Atomic             Coordinates (Angstroms)
 Number     Number       Type             X           Y           Z
 ---------------------------------------------------------------------
      1          8           0       -0.693521    0.685591    0.149327
      2          6           0        1.464606   -0.523019    0.042364
      3          6           0       -1.394059   -0.522389   -0.052032
      4          6           0        0.624935    0.686319   -0.178996
      5          1           0        1.471133   -0.836383    1.095074
      6          1           0        2.490910   -0.301495   -0.242702
      7          1           0        1.133330   -1.379336   -0.547932
      8          1           0       -2.437329   -0.319275    0.171543
      9          1           0       -1.301930   -0.854144   -1.089275
     10          1           0       -1.032375   -1.311216    0.610582
     11          1           0        1.051531    1.671650   -0.059918
 ---------------------------------------------------------------------
 Rotational constants (GHZ):          16.0063031           5.9437013           4.6504347
 Leave Link  202 at Tue Mar 12 00:33:34 2019, MaxMem=   671088640 cpu:               0.8 elap:               0.1
 (Enter /shared/centos7/gaussian/g16/l301.exe)
 Standard basis: 6-311+G(2df,2p) (5D, 7F)
 Ernie: Thresh=  0.10000D-02 Tol=  0.10000D-05 Strict=F.
 There are   219 symmetry adapted cartesian basis functions of A   symmetry.
 There are   199 symmetry adapted basis functions of A   symmetry.
   199 basis functions,   285 primitive gaussians,   219 cartesian basis functions
    17 alpha electrons       16 beta electrons
       nuclear repulsion energy       127.9074417347 Hartrees.
 IExCor= 4336 DFT=T Ex+Corr=M062X ExCW=0 ScaHFX=  0.540000
 ScaDFX=  1.000000  1.000000  1.000000  1.000000 ScalE2=  1.000000  1.000000
 IRadAn=      5 IRanWt=     -1 IRanGd=            0 ICorTp=0 IEmpDi=  4
 NAtoms=   11 NActive=   11 NUniq=   11 SFac= 1.00D+00 NAtFMM=   60 NAOKFM=F Big=F
 Integral buffers will be    131072 words long.
 Raffenetti 2 integral format.
 Two-electron integral symmetry is turned on.
 Leave Link  301 at Tue Mar 12 00:33:34 2019, MaxMem=   671088640 cpu:               1.0 elap:               0.1
 (Enter /shared/centos7/gaussian/g16/l302.exe)
 NPDir=0 NMtPBC=     1 NCelOv=     1 NCel=       1 NClECP=     1 NCelD=      1
         NCelK=      1 NCelE2=     1 NClLst=     1 CellRange=     0.0.
 One-electron integrals computed using PRISM.
 One-electron integral symmetry used in STVInt
 NBasis=   199 RedAO= T EigKep=  1.11D-04  NBF=   199
 NBsUse=   199 1.00D-06 EigRej= -1.00D+00 NBFU=   199
 Precomputing XC quadrature grid using
 IXCGrd= 4 IRadAn=           5 IRanWt=          -1 IRanGd=           0 AccXCQ= 0.00D+00.
 Generated NRdTot=       0 NPtTot=           0 NUsed=           0 NTot=          32
 NSgBfM=   219   219   219   219   219 MxSgAt=    11 MxSgA2=    11.
 Leave Link  302 at Tue Mar 12 00:33:34 2019, MaxMem=   671088640 cpu:               7.1 elap:               0.4
 (Enter /shared/centos7/gaussian/g16/l303.exe)
 DipDrv:  MaxL=1.
 Leave Link  303 at Tue Mar 12 00:33:34 2019, MaxMem=   671088640 cpu:               0.7 elap:               0.2
 (Enter /shared/centos7/gaussian/g16/l401.exe)
 ExpMin= 4.38D-02 ExpMax= 8.59D+03 ExpMxC= 1.30D+03 IAcc=3 IRadAn=         5 AccDes= 0.00D+00
 Harris functional with IExCor= 1009 and IRadAn=       5 diagonalized for initial guess.
 HarFok:  IExCor= 1009 AccDes= 0.00D+00 IRadAn=         5 IDoV= 1 UseB2=F ITyADJ=14
 ICtDFT=  3500011 ScaDFX=  1.000000  1.000000  1.000000  1.000000
 FoFCou: FMM=F IPFlag=           0 FMFlag=      100000 FMFlg1=           0
         NFxFlg=           0 DoJE=T BraDBF=F KetDBF=T FulRan=T
         wScrn=  0.000000 ICntrl=       500 IOpCl=  0 I1Cent=   200000004 NGrid=           0
         NMat0=    1 NMatS0=      1 NMatT0=    0 NMatD0=    1 NMtDS0=    0 NMtDT0=    0
 Petite list used in FoFCou.
 Harris En= -193.581019509981    
 JPrj=0 DoOrth=F DoCkMO=F.
 Initial guess <Sx>= 0.0000 <Sy>= 0.0000 <Sz>= 0.5000 <S**2>= 0.7500 S= 0.5000
 Leave Link  401 at Tue Mar 12 00:33:35 2019, MaxMem=   671088640 cpu:              12.9 elap:               0.7
 (Enter /shared/centos7/gaussian/g16/l502.exe)
 Keep R1 and R2 ints in memory in canonical form, NReq=416958841.
 FoFCou: FMM=F IPFlag=           0 FMFlag=           0 FMFlg1=           0
         NFxFlg=           0 DoJE=F BraDBF=F KetDBF=F FulRan=T
         wScrn=  0.000000 ICntrl=       600 IOpCl=  0 I1Cent=           0 NGrid=           0
         NMat0=    1 NMatS0=  19900 NMatT0=    0 NMatD0=    1 NMtDS0=    0 NMtDT0=    0
 Symmetry not used in FoFCou.
 Two-electron integral symmetry not used.
 UHF open shell SCF:
 Using DIIS extrapolation, IDIIS=  1040.
 NGot=   671088640 LenX=   274956345 LenY=   274907943
 Requested convergence on RMS density matrix=1.00D-08 within 128 cycles.
 Requested convergence on MAX density matrix=1.00D-06.
 Requested convergence on             energy=1.00D-06.
 No special actions if energy rises.

 Cycle   1  Pass 1  IDiag  1:
 E= -193.521633247127    
 DIIS: error= 2.76D-02 at cycle   1 NSaved=   1.
 NSaved= 1 IEnMin= 1 EnMin= -193.521633247127     IErMin= 1 ErrMin= 2.76D-02
 ErrMax= 2.76D-02  0.00D+00 EMaxC= 1.00D-01 BMatC= 6.28D-01 BMatP= 6.28D-01
 IDIUse=3 WtCom= 7.24D-01 WtEn= 2.76D-01
 Coeff-Com:  0.100D+01
 Coeff-En:   0.100D+01
 Coeff:      0.100D+01
 Gap=     0.202 Goal=   None    Shift=    0.000
 Gap=     0.391 Goal=   None    Shift=    0.000
 GapD=    0.202 DampG=1.000 DampE=0.500 DampFc=0.5000 IDamp=-1.
 Damping current iteration by 5.00D-01
 RMSDP=2.35D-03 MaxDP=1.13D-01              OVMax= 1.49D-01

 Cycle   2  Pass 1  IDiag  1:
 E= -193.590927674245     Delta-E=       -0.069294427118 Rises=F Damp=T
 DIIS: error= 5.61D-03 at cycle   2 NSaved=   2.
 NSaved= 2 IEnMin= 2 EnMin= -193.590927674245     IErMin= 2 ErrMin= 5.61D-03
 ErrMax= 5.61D-03  0.00D+00 EMaxC= 1.00D-01 BMatC= 4.87D-02 BMatP= 6.28D-01
 IDIUse=3 WtCom= 9.44D-01 WtEn= 5.61D-02
 Coeff-Com: -0.180D+00 0.118D+01
 Coeff-En:   0.000D+00 0.100D+01
 Coeff:     -0.170D+00 0.117D+01
 Gap=     0.236 Goal=   None    Shift=    0.000
 Gap=     0.392 Goal=   None    Shift=    0.000
 RMSDP=7.34D-04 MaxDP=2.10D-02 DE=-6.93D-02 OVMax= 7.23D-02

 Cycle   3  Pass 1  IDiag  1:
 E= -193.652596909907     Delta-E=       -0.061669235662 Rises=F Damp=F
 DIIS: error= 2.93D-03 at cycle   3 NSaved=   3.
 NSaved= 3 IEnMin= 3 EnMin= -193.652596909907     IErMin= 3 ErrMin= 2.93D-03
 ErrMax= 2.93D-03  0.00D+00 EMaxC= 1.00D-01 BMatC= 4.18D-03 BMatP= 4.87D-02
 IDIUse=3 WtCom= 9.71D-01 WtEn= 2.93D-02
 Coeff-Com: -0.784D-01 0.237D+00 0.842D+00
 Coeff-En:   0.000D+00 0.000D+00 0.100D+01
 Coeff:     -0.762D-01 0.230D+00 0.846D+00
 Gap=     0.231 Goal=   None    Shift=    0.000
 Gap=     0.362 Goal=   None    Shift=    0.000
 RMSDP=1.60D-04 MaxDP=7.83D-03 DE=-6.17D-02 OVMax= 9.64D-03

 Cycle   4  Pass 1  IDiag  1:
 E= -193.653662370903     Delta-E=       -0.001065460996 Rises=F Damp=F
 DIIS: error= 7.25D-04 at cycle   4 NSaved=   4.
 NSaved= 4 IEnMin= 4 EnMin= -193.653662370903     IErMin= 4 ErrMin= 7.25D-04
 ErrMax= 7.25D-04  0.00D+00 EMaxC= 1.00D-01 BMatC= 3.22D-04 BMatP= 4.18D-03
 IDIUse=3 WtCom= 9.93D-01 WtEn= 7.25D-03
 Coeff-Com: -0.978D-02 0.146D-01 0.202D+00 0.793D+00
 Coeff-En:   0.000D+00 0.000D+00 0.000D+00 0.100D+01
 Coeff:     -0.971D-02 0.145D-01 0.200D+00 0.795D+00
 Gap=     0.234 Goal=   None    Shift=    0.000
 Gap=     0.363 Goal=   None    Shift=    0.000
 RMSDP=6.05D-05 MaxDP=2.11D-03 DE=-1.07D-03 OVMax= 6.57D-03

 Cycle   5  Pass 1  IDiag  1:
 E= -193.653785908940     Delta-E=       -0.000123538038 Rises=F Damp=F
 DIIS: error= 3.56D-04 at cycle   5 NSaved=   5.
 NSaved= 5 IEnMin= 5 EnMin= -193.653785908940     IErMin= 5 ErrMin= 3.56D-04
 ErrMax= 3.56D-04  0.00D+00 EMaxC= 1.00D-01 BMatC= 1.04D-04 BMatP= 3.22D-04
 IDIUse=3 WtCom= 9.96D-01 WtEn= 3.56D-03
 Coeff-Com:  0.400D-02-0.184D-01-0.790D-02 0.291D+00 0.731D+00
 Coeff-En:   0.000D+00 0.000D+00 0.000D+00 0.000D+00 0.100D+01
 Coeff:      0.399D-02-0.183D-01-0.787D-02 0.290D+00 0.732D+00
 Gap=     0.234 Goal=   None    Shift=    0.000
 Gap=     0.362 Goal=   None    Shift=    0.000
 RMSDP=3.38D-05 MaxDP=1.39D-03 DE=-1.24D-04 OVMax= 2.96D-03

 Cycle   6  Pass 1  IDiag  1:
 E= -193.653825828505     Delta-E=       -0.000039919565 Rises=F Damp=F
 DIIS: error= 2.42D-04 at cycle   6 NSaved=   6.
 NSaved= 6 IEnMin= 6 EnMin= -193.653825828505     IErMin= 6 ErrMin= 2.42D-04
 ErrMax= 2.42D-04  0.00D+00 EMaxC= 1.00D-01 BMatC= 2.33D-05 BMatP= 1.04D-04
 IDIUse=3 WtCom= 9.98D-01 WtEn= 2.42D-03
 Coeff-Com:  0.568D-02-0.117D-01-0.952D-01-0.227D+00 0.252D+00 0.108D+01
 Coeff-En:   0.000D+00 0.000D+00 0.000D+00 0.000D+00 0.000D+00 0.100D+01
 Coeff:      0.566D-02-0.117D-01-0.950D-01-0.226D+00 0.251D+00 0.108D+01
 Gap=     0.235 Goal=   None    Shift=    0.000
 Gap=     0.363 Goal=   None    Shift=    0.000
 RMSDP=3.31D-05 MaxDP=1.16D-03 DE=-3.99D-05 OVMax= 4.63D-03

 Cycle   7  Pass 1  IDiag  1:
 E= -193.653845741626     Delta-E=       -0.000019913121 Rises=F Damp=F
 DIIS: error= 5.68D-05 at cycle   7 NSaved=   7.
 NSaved= 7 IEnMin= 7 EnMin= -193.653845741626     IErMin= 7 ErrMin= 5.68D-05
 ErrMax= 5.68D-05  0.00D+00 EMaxC= 1.00D-01 BMatC= 3.40D-06 BMatP= 2.33D-05
 IDIUse=1 WtCom= 1.00D+00 WtEn= 0.00D+00
 Coeff-Com:  0.606D-03-0.404D-03-0.234D-01-0.913D-01-0.433D-01 0.313D+00
 Coeff-Com:  0.845D+00
 Coeff:      0.606D-03-0.404D-03-0.234D-01-0.913D-01-0.433D-01 0.313D+00
 Coeff:      0.845D+00
 Gap=     0.235 Goal=   None    Shift=    0.000
 Gap=     0.363 Goal=   None    Shift=    0.000
 RMSDP=7.94D-06 MaxDP=2.71D-04 DE=-1.99D-05 OVMax= 9.76D-04

 Cycle   8  Pass 1  IDiag  1:
 E= -193.653847357484     Delta-E=       -0.000001615858 Rises=F Damp=F
 DIIS: error= 3.89D-05 at cycle   8 NSaved=   8.
 NSaved= 8 IEnMin= 8 EnMin= -193.653847357484     IErMin= 8 ErrMin= 3.89D-05
 ErrMax= 3.89D-05  0.00D+00 EMaxC= 1.00D-01 BMatC= 4.53D-07 BMatP= 3.40D-06
 IDIUse=1 WtCom= 1.00D+00 WtEn= 0.00D+00
 Coeff-Com: -0.110D-02 0.251D-02 0.131D-01 0.224D-01-0.611D-01-0.118D+00
 Coeff-Com:  0.227D+00 0.915D+00
 Coeff:     -0.110D-02 0.251D-02 0.131D-01 0.224D-01-0.611D-01-0.118D+00
 Coeff:      0.227D+00 0.915D+00
 Gap=     0.235 Goal=   None    Shift=    0.000
 Gap=     0.363 Goal=   None    Shift=    0.000
 RMSDP=3.25D-06 MaxDP=1.58D-04 DE=-1.62D-06 OVMax= 4.48D-04

 Cycle   9  Pass 1  IDiag  1:
 E= -193.653847594110     Delta-E=       -0.000000236626 Rises=F Damp=F
 DIIS: error= 7.92D-06 at cycle   9 NSaved=   9.
 NSaved= 9 IEnMin= 9 EnMin= -193.653847594110     IErMin= 9 ErrMin= 7.92D-06
 ErrMax= 7.92D-06  0.00D+00 EMaxC= 1.00D-01 BMatC= 5.29D-08 BMatP= 4.53D-07
 IDIUse=1 WtCom= 1.00D+00 WtEn= 0.00D+00
 Coeff-Com: -0.277D-03 0.554D-03 0.568D-02 0.163D-01-0.843D-02-0.656D-01
 Coeff-Com: -0.715D-01 0.206D+00 0.918D+00
 Coeff:     -0.277D-03 0.554D-03 0.568D-02 0.163D-01-0.843D-02-0.656D-01
 Coeff:     -0.715D-01 0.206D+00 0.918D+00
 Gap=     0.235 Goal=   None    Shift=    0.000
 Gap=     0.363 Goal=   None    Shift=    0.000
 RMSDP=1.17D-06 MaxDP=5.84D-05 DE=-2.37D-07 OVMax= 1.38D-04

 Cycle  10  Pass 1  IDiag  1:
 E= -193.653847621673     Delta-E=       -0.000000027563 Rises=F Damp=F
 DIIS: error= 1.80D-06 at cycle  10 NSaved=  10.
 NSaved=10 IEnMin=10 EnMin= -193.653847621673     IErMin=10 ErrMin= 1.80D-06
 ErrMax= 1.80D-06  0.00D+00 EMaxC= 1.00D-01 BMatC= 3.42D-09 BMatP= 5.29D-08
 IDIUse=1 WtCom= 1.00D+00 WtEn= 0.00D+00
 Coeff-Com:  0.110D-03-0.238D-03-0.960D-03-0.138D-02 0.428D-02 0.104D-01
 Coeff-Com: -0.254D-01-0.777D-01 0.243D-01 0.107D+01
 Coeff:      0.110D-03-0.238D-03-0.960D-03-0.138D-02 0.428D-02 0.104D-01
 Coeff:     -0.254D-01-0.777D-01 0.243D-01 0.107D+01
 Gap=     0.235 Goal=   None    Shift=    0.000
 Gap=     0.363 Goal=   None    Shift=    0.000
 RMSDP=2.99D-07 MaxDP=1.05D-05 DE=-2.76D-08 OVMax= 3.82D-05

 Cycle  11  Pass 1  IDiag  1:
 E= -193.653847623689     Delta-E=       -0.000000002017 Rises=F Damp=F
 DIIS: error= 6.21D-07 at cycle  11 NSaved=  11.
 NSaved=11 IEnMin=11 EnMin= -193.653847623689     IErMin=11 ErrMin= 6.21D-07
 ErrMax= 6.21D-07  0.00D+00 EMaxC= 1.00D-01 BMatC= 4.64D-10 BMatP= 3.42D-09
 IDIUse=1 WtCom= 1.00D+00 WtEn= 0.00D+00
 Coeff-Com:  0.425D-04-0.912D-04-0.619D-03-0.144D-02 0.133D-02 0.727D-02
 Coeff-Com: -0.158D-02-0.320D-01-0.659D-01 0.247D+00 0.846D+00
 Coeff:      0.425D-04-0.912D-04-0.619D-03-0.144D-02 0.133D-02 0.727D-02
 Coeff:     -0.158D-02-0.320D-01-0.659D-01 0.247D+00 0.846D+00
 Gap=     0.235 Goal=   None    Shift=    0.000
 Gap=     0.363 Goal=   None    Shift=    0.000
 RMSDP=9.68D-08 MaxDP=3.69D-06 DE=-2.02D-09 OVMax= 7.59D-06

 Cycle  12  Pass 1  IDiag  1:
 E= -193.653847623862     Delta-E=       -0.000000000172 Rises=F Damp=F
 DIIS: error= 3.13D-07 at cycle  12 NSaved=  12.
 NSaved=12 IEnMin=12 EnMin= -193.653847623862     IErMin=12 ErrMin= 3.13D-07
 ErrMax= 3.13D-07  0.00D+00 EMaxC= 1.00D-01 BMatC= 6.73D-11 BMatP= 4.64D-10
 IDIUse=1 WtCom= 1.00D+00 WtEn= 0.00D+00
 Coeff-Com: -0.395D-05 0.759D-05-0.361D-04-0.139D-03-0.154D-03 0.618D-03
 Coeff-Com:  0.260D-02 0.171D-02-0.222D-01-0.721D-01 0.239D+00 0.850D+00
 Coeff:     -0.395D-05 0.759D-05-0.361D-04-0.139D-03-0.154D-03 0.618D-03
 Coeff:      0.260D-02 0.171D-02-0.222D-01-0.721D-01 0.239D+00 0.850D+00
 Gap=     0.235 Goal=   None    Shift=    0.000
 Gap=     0.363 Goal=   None    Shift=    0.000
 RMSDP=4.18D-08 MaxDP=1.97D-06 DE=-1.72D-10 OVMax= 2.77D-06

 Cycle  13  Pass 1  IDiag  1:
 E= -193.653847623887     Delta-E=       -0.000000000025 Rises=F Damp=F
 DIIS: error= 7.36D-08 at cycle  13 NSaved=  13.
 NSaved=13 IEnMin=13 EnMin= -193.653847623887     IErMin=13 ErrMin= 7.36D-08
 ErrMax= 7.36D-08  0.00D+00 EMaxC= 1.00D-01 BMatC= 3.73D-12 BMatP= 6.73D-11
 IDIUse=1 WtCom= 1.00D+00 WtEn= 0.00D+00
 Coeff-Com: -0.388D-05 0.821D-05 0.471D-04 0.104D-03-0.112D-03-0.590D-03
 Coeff-Com:  0.387D-03 0.287D-02 0.389D-02-0.265D-01-0.718D-01 0.503D-01
 Coeff-Com:  0.104D+01
 Coeff:     -0.388D-05 0.821D-05 0.471D-04 0.104D-03-0.112D-03-0.590D-03
 Coeff:      0.387D-03 0.287D-02 0.389D-02-0.265D-01-0.718D-01 0.503D-01
 Coeff:      0.104D+01
 Gap=     0.235 Goal=   None    Shift=    0.000
 Gap=     0.363 Goal=   None    Shift=    0.000
 RMSDP=1.45D-08 MaxDP=6.26D-07 DE=-2.52D-11 OVMax= 9.08D-07

 Cycle  14  Pass 1  IDiag  1:
 E= -193.653847623889     Delta-E=       -0.000000000002 Rises=F Damp=F
 DIIS: error= 1.30D-08 at cycle  14 NSaved=  14.
 NSaved=14 IEnMin=14 EnMin= -193.653847623889     IErMin=14 ErrMin= 1.30D-08
 ErrMax= 1.30D-08  0.00D+00 EMaxC= 1.00D-01 BMatC= 1.92D-13 BMatP= 3.73D-12
 IDIUse=1 WtCom= 1.00D+00 WtEn= 0.00D+00
 Coeff-Com:  0.672D-06-0.121D-05-0.290D-05-0.770D-05 0.153D-04 0.333D-04
 Coeff-Com: -0.166D-03-0.231D-03 0.728D-03 0.608D-02-0.965D-02-0.523D-01
 Coeff-Com: -0.686D-01 0.112D+01
 Coeff:      0.672D-06-0.121D-05-0.290D-05-0.770D-05 0.153D-04 0.333D-04
 Coeff:     -0.166D-03-0.231D-03 0.728D-03 0.608D-02-0.965D-02-0.523D-01
 Coeff:     -0.686D-01 0.112D+01
 Gap=     0.235 Goal=   None    Shift=    0.000
 Gap=     0.363 Goal=   None    Shift=    0.000
 RMSDP=3.94D-09 MaxDP=1.54D-07 DE=-2.27D-12 OVMax= 2.80D-07

 SCF Done:  E(UM062X) =  -193.653847624     A.U. after   14 cycles
            NFock= 14  Conv=0.39D-08     -V/T= 2.0038
 <Sx>= 0.0000 <Sy>= 0.0000 <Sz>= 0.5000 <S**2>= 0.7544 S= 0.5022
 <L.S>= 0.000000000000E+00
 KE= 1.929295694190D+02 PE=-7.076509333728D+02 EE= 1.931600745953D+02
 Annihilation of the first spin contaminant:
 S**2 before annihilation     0.7544,   after     0.7500
 Leave Link  502 at Tue Mar 12 00:34:04 2019, MaxMem=   671088640 cpu:             417.2 elap:              29.0
 (Enter /shared/centos7/gaussian/g16/l801.exe)
 DoSCS=F DFT=T ScalE2(SS,OS)=  1.000000  1.000000
 Range of M.O.s used for correlation:     1   199
 NBasis=   199 NAE=    17 NBE=    16 NFC=     0 NFV=     0
 NROrb=    199 NOA=    17 NOB=    16 NVA=   182 NVB=   183

 **** Warning!!: The largest alpha MO coefficient is  0.32853225D+02


 **** Warning!!: The largest beta MO coefficient is  0.40085191D+02

 Leave Link  801 at Tue Mar 12 00:34:04 2019, MaxMem=   671088640 cpu:               0.6 elap:               0.0
 (Enter /shared/centos7/gaussian/g16/l1101.exe)
 Using compressed storage, NAtomX=    11.
 Will process     12 centers per pass.
 Leave Link 1101 at Tue Mar 12 00:34:04 2019, MaxMem=   671088640 cpu:               4.5 elap:               0.2
 (Enter /shared/centos7/gaussian/g16/l1102.exe)
 Symmetrizing basis deriv contribution to polar:
 IMax=3 JMax=2 DiffMx= 0.00D+00
 Leave Link 1102 at Tue Mar 12 00:34:04 2019, MaxMem=   671088640 cpu:               0.4 elap:               0.0
 (Enter /shared/centos7/gaussian/g16/l1110.exe)
 Forming Gx(P) for the SCF density, NAtomX=    11.
 Integral derivatives from FoFJK, PRISM(SPDF).
 Do as many integral derivatives as possible in FoFJK.
 G2DrvN: MDV=     671087712.
 G2DrvN: will do    12 centers at a time, making    1 passes.
 Calling FoFCou, ICntrl=  3107 FMM=F I1Cent=   0 AccDes= 0.00D+00.
 FoFJK:  IHMeth= 1 ICntrl=    3107 DoSepK=F KAlg= 0 I1Cent=           0 FoldK=F
 IRaf=         0 NMat=       1 IRICut=       1 DoRegI=T DoRafI=F ISym2E= 0 IDoP0=0 IntGTp=1.
 FoFCou: FMM=F IPFlag=           0 FMFlag=      100000 FMFlg1=           0
         NFxFlg=           0 DoJE=F BraDBF=F KetDBF=F FulRan=T
         wScrn=  0.000000 ICntrl=      3107 IOpCl=  1 I1Cent=           0 NGrid=           0
         NMat0=    1 NMatS0=      1 NMatT0=    0 NMatD0=    1 NMtDS0=    0 NMtDT0=    0
 Symmetry not used in FoFCou.
 End of G2Drv F.D. properties file   721 does not exist.
 End of G2Drv F.D. properties file   722 does not exist.
 End of G2Drv F.D. properties file   788 does not exist.
 Leave Link 1110 at Tue Mar 12 00:34:43 2019, MaxMem=   671088640 cpu:             762.7 elap:              38.2
 (Enter /shared/centos7/gaussian/g16/l1002.exe)
 Minotr:  UHF open shell wavefunction.
          IDoAtm=11111111111
          Direct CPHF calculation.
          Differentiating once with respect to nuclear coordinates.
          Requested convergence is 1.0D-08 RMS, and 1.0D-07 maximum.
          Secondary convergence is 1.0D-12 RMS, and 1.0D-12 maximum.
          NewPWx=T KeepS1=F KeepF1=F KeepIn=T MapXYZ=F SortEE=F KeepMc=T.
         3335 words used for storage of precomputed grid.
 Keep R1 and R2 ints in memory in canonical form, NReq=416899964.
 FoFCou: FMM=F IPFlag=           0 FMFlag=           0 FMFlg1=           0
         NFxFlg=           0 DoJE=F BraDBF=F KetDBF=F FulRan=T
         wScrn=  0.000000 ICntrl=       600 IOpCl=  0 I1Cent=           0 NGrid=           0
         NMat0=    1 NMatS0=  19900 NMatT0=    0 NMatD0=    1 NMtDS0=    0 NMtDT0=    0
 Symmetry not used in FoFCou.
 Two-electron integral symmetry not used.
          MDV=     671088640 using IRadAn=       1.
          Solving linear equations simultaneously, MaxMat=       0.
          There are    36 degrees of freedom in the 1st order CPHF.  IDoFFX=6 NUNeed=     0.
     30 vectors produced by pass  0 Test12= 1.67D-14 2.78D-09 XBig12= 1.43D-01 7.32D-02.
 AX will form    30 AO Fock derivatives at one time.
     30 vectors produced by pass  1 Test12= 1.67D-14 2.78D-09 XBig12= 9.52D-03 2.12D-02.
     30 vectors produced by pass  2 Test12= 1.67D-14 2.78D-09 XBig12= 6.20D-04 5.39D-03.
     30 vectors produced by pass  3 Test12= 1.67D-14 2.78D-09 XBig12= 1.01D-05 5.54D-04.
     30 vectors produced by pass  4 Test12= 1.67D-14 2.78D-09 XBig12= 1.44D-07 7.34D-05.
     30 vectors produced by pass  5 Test12= 1.67D-14 2.78D-09 XBig12= 1.47D-09 4.01D-06.
     30 vectors produced by pass  6 Test12= 1.67D-14 2.78D-09 XBig12= 1.05D-11 3.24D-07.
     12 vectors produced by pass  7 Test12= 1.67D-14 2.78D-09 XBig12= 8.02D-14 3.88D-08.
 InvSVY:  IOpt=1 It=  1 EMax= 2.33D-15
 Solved reduced A of dimension   222 with    30 vectors.
 End of Minotr F.D. properties file   721 does not exist.
 End of Minotr F.D. properties file   722 does not exist.
 End of Minotr F.D. properties file   788 does not exist.
 Leave Link 1002 at Tue Mar 12 00:35:33 2019, MaxMem=   671088640 cpu:            1002.1 elap:              50.2
 (Enter /shared/centos7/gaussian/g16/l601.exe)
 Copying SCF densities to generalized density rwf, IOpCl= 1 IROHF=0.

 **********************************************************************

            Population analysis using the SCF density.

 **********************************************************************

 Orbital symmetries:
 Alpha Orbitals:
       Occupied  (A) (A) (A) (A) (A) (A) (A) (A) (A) (A) (A) (A)
                 (A) (A) (A) (A) (A)
       Virtual   (A) (A) (A) (A) (A) (A) (A) (A) (A) (A) (A) (A)
                 (A) (A) (A) (A) (A) (A) (A) (A) (A) (A) (A) (A)
                 (A) (A) (A) (A) (A) (A) (A) (A) (A) (A) (A) (A)
                 (A) (A) (A) (A) (A) (A) (A) (A) (A) (A) (A) (A)
                 (A) (A) (A) (A) (A) (A) (A) (A) (A) (A) (A) (A)
                 (A) (A) (A) (A) (A) (A) (A) (A) (A) (A) (A) (A)
                 (A) (A) (A) (A) (A) (A) (A) (A) (A) (A) (A) (A)
                 (A) (A) (A) (A) (A) (A) (A) (A) (A) (A) (A) (A)
                 (A) (A) (A) (A) (A) (A) (A) (A) (A) (A) (A) (A)
                 (A) (A) (A) (A) (A) (A) (A) (A) (A) (A) (A) (A)
                 (A) (A) (A) (A) (A) (A) (A) (A) (A) (A) (A) (A)
                 (A) (A) (A) (A) (A) (A) (A) (A) (A) (A) (A) (A)
                 (A) (A) (A) (A) (A) (A) (A) (A) (A) (A) (A) (A)
                 (A) (A) (A) (A) (A) (A) (A) (A) (A) (A) (A) (A)
                 (A) (A) (A) (A) (A) (A) (A) (A) (A) (A) (A) (A)
                 (A) (A)
 Beta  Orbitals:
       Occupied  (A) (A) (A) (A) (A) (A) (A) (A) (A) (A) (A) (A)
                 (A) (A) (A) (A)
       Virtual   (A) (A) (A) (A) (A) (A) (A) (A) (A) (A) (A) (A)
                 (A) (A) (A) (A) (A) (A) (A) (A) (A) (A) (A) (A)
                 (A) (A) (A) (A) (A) (A) (A) (A) (A) (A) (A) (A)
                 (A) (A) (A) (A) (A) (A) (A) (A) (A) (A) (A) (A)
                 (A) (A) (A) (A) (A) (A) (A) (A) (A) (A) (A) (A)
                 (A) (A) (A) (A) (A) (A) (A) (A) (A) (A) (A) (A)
                 (A) (A) (A) (A) (A) (A) (A) (A) (A) (A) (A) (A)
                 (A) (A) (A) (A) (A) (A) (A) (A) (A) (A) (A) (A)
                 (A) (A) (A) (A) (A) (A) (A) (A) (A) (A) (A) (A)
                 (A) (A) (A) (A) (A) (A) (A) (A) (A) (A) (A) (A)
                 (A) (A) (A) (A) (A) (A) (A) (A) (A) (A) (A) (A)
                 (A) (A) (A) (A) (A) (A) (A) (A) (A) (A) (A) (A)
                 (A) (A) (A) (A) (A) (A) (A) (A) (A) (A) (A) (A)
                 (A) (A) (A) (A) (A) (A) (A) (A) (A) (A) (A) (A)
                 (A) (A) (A) (A) (A) (A) (A) (A) (A) (A) (A) (A)
                 (A) (A) (A)
 The electronic state is 2-A.
 Alpha  occ. eigenvalues --  -19.64784 -10.58316 -10.57698 -10.53285  -1.18693
 Alpha  occ. eigenvalues --   -0.85770  -0.80215  -0.66974  -0.57992  -0.55498
 Alpha  occ. eigenvalues --   -0.54289  -0.48109  -0.46750  -0.44436  -0.41814
 Alpha  occ. eigenvalues --   -0.38358  -0.21984
 Alpha virt. eigenvalues --    0.01544   0.03182   0.03590   0.04810   0.06400
 Alpha virt. eigenvalues --    0.07244   0.07749   0.09013   0.09693   0.11433
 Alpha virt. eigenvalues --    0.13108   0.15138   0.16981   0.18084   0.21283
 Alpha virt. eigenvalues --    0.22198   0.22733   0.23895   0.24808   0.26609
 Alpha virt. eigenvalues --    0.27574   0.29472   0.31070   0.33181   0.33579
 Alpha virt. eigenvalues --    0.34606   0.41539   0.43755   0.44284   0.47581
 Alpha virt. eigenvalues --    0.51021   0.53185   0.54102   0.54968   0.55219
 Alpha virt. eigenvalues --    0.57021   0.59415   0.60808   0.62363   0.62706
 Alpha virt. eigenvalues --    0.64921   0.66121   0.67627   0.69820   0.74695
 Alpha virt. eigenvalues --    0.76751   0.78923   0.83850   0.85041   0.88299
 Alpha virt. eigenvalues --    0.88768   0.94456   0.96615   0.98122   1.04541
 Alpha virt. eigenvalues --    1.06317   1.06992   1.11269   1.13992   1.14425
 Alpha virt. eigenvalues --    1.14842   1.17283   1.18365   1.22329   1.23716
 Alpha virt. eigenvalues --    1.26174   1.27224   1.30313   1.33495   1.33787
 Alpha virt. eigenvalues --    1.34983   1.39207   1.40769   1.42749   1.44532
 Alpha virt. eigenvalues --    1.45871   1.47796   1.48371   1.52234   1.55242
 Alpha virt. eigenvalues --    1.57695   1.60222   1.65179   1.68114   1.72476
 Alpha virt. eigenvalues --    1.95210   2.04126   2.11695   2.28860   2.32137
 Alpha virt. eigenvalues --    2.39920   2.42746   2.43702   2.53541   2.55970
 Alpha virt. eigenvalues --    2.61447   2.71434   2.79789   2.81158   2.85162
 Alpha virt. eigenvalues --    2.87047   2.96103   2.97441   3.00501   3.03950
 Alpha virt. eigenvalues --    3.05986   3.09211   3.11935   3.13496   3.14279
 Alpha virt. eigenvalues --    3.16745   3.17659   3.22865   3.26979   3.28865
 Alpha virt. eigenvalues --    3.32545   3.33085   3.36889   3.39172   3.41347
 Alpha virt. eigenvalues --    3.44710   3.45832   3.49482   3.51888   3.54419
 Alpha virt. eigenvalues --    3.56511   3.59766   3.70621   3.71305   3.75150
 Alpha virt. eigenvalues --    3.84798   3.85892   3.87394   3.90258   3.92600
 Alpha virt. eigenvalues --    3.93578   3.98805   4.03384   4.04355   4.07647
 Alpha virt. eigenvalues --    4.13903   4.18923   4.20301   4.22984   4.24278
 Alpha virt. eigenvalues --    4.27848   4.32921   4.33632   4.34954   4.41617
 Alpha virt. eigenvalues --    4.46135   4.49353   4.51456   4.57780   4.61094
 Alpha virt. eigenvalues --    4.70231   4.91277   5.12422   5.19985   5.25112
 Alpha virt. eigenvalues --    5.26475   5.46847   5.49808   5.54802   5.57913
 Alpha virt. eigenvalues --    5.60443   5.64059   5.67960   5.78347   5.95129
 Alpha virt. eigenvalues --    6.31517   6.44708   6.80182   7.13476   7.19662
 Alpha virt. eigenvalues --    7.28364   7.69304   7.71128  24.30365  24.44497
 Alpha virt. eigenvalues --   24.51757  50.16778
  Beta  occ. eigenvalues --  -19.64424 -10.58319 -10.56967 -10.53320  -1.17456
  Beta  occ. eigenvalues --   -0.84318  -0.79895  -0.65304  -0.57121  -0.53710
  Beta  occ. eigenvalues --   -0.53062  -0.46854  -0.46465  -0.43957  -0.39937
  Beta  occ. eigenvalues --   -0.36783
  Beta virt. eigenvalues --   -0.00495   0.01867   0.03204   0.03719   0.04714
  Beta virt. eigenvalues --    0.06349   0.07117   0.07674   0.08460   0.10092
  Beta virt. eigenvalues --    0.11350   0.12314   0.13920   0.16858   0.18422
  Beta virt. eigenvalues --    0.21413   0.22240   0.23159   0.24089   0.25200
  Beta virt. eigenvalues --    0.26712   0.27835   0.29423   0.31808   0.33239
  Beta virt. eigenvalues --    0.33766   0.35147   0.41639   0.43822   0.44290
  Beta virt. eigenvalues --    0.47853   0.51639   0.53211   0.54092   0.55154
  Beta virt. eigenvalues --    0.55487   0.57203   0.60532   0.61089   0.62870
  Beta virt. eigenvalues --    0.63433   0.64860   0.65951   0.67682   0.69411
  Beta virt. eigenvalues --    0.75121   0.77420   0.78339   0.83403   0.85705
  Beta virt. eigenvalues --    0.88201   0.88760   0.94261   0.96521   0.97818
  Beta virt. eigenvalues --    1.04490   1.06427   1.07019   1.11359   1.13963
  Beta virt. eigenvalues --    1.14445   1.14818   1.17470   1.18146   1.22551
  Beta virt. eigenvalues --    1.23581   1.26415   1.27300   1.30949   1.33600
  Beta virt. eigenvalues --    1.34315   1.35349   1.39292   1.40709   1.42762
  Beta virt. eigenvalues --    1.44588   1.45801   1.47791   1.48813   1.52376
  Beta virt. eigenvalues --    1.55062   1.57501   1.60001   1.65547   1.68812
  Beta virt. eigenvalues --    1.72361   1.95983   2.04595   2.12307   2.29431
  Beta virt. eigenvalues --    2.32780   2.40423   2.43104   2.44393   2.53903
  Beta virt. eigenvalues --    2.56827   2.62056   2.71997   2.82180   2.84595
  Beta virt. eigenvalues --    2.89379   2.89916   2.96429   2.97858   3.02991
  Beta virt. eigenvalues --    3.05388   3.06691   3.10070   3.12871   3.14513
  Beta virt. eigenvalues --    3.15296   3.17203   3.18440   3.24457   3.28809
  Beta virt. eigenvalues --    3.30153   3.34317   3.35514   3.38776   3.39890
  Beta virt. eigenvalues --    3.43246   3.46289   3.47466   3.51316   3.54017
  Beta virt. eigenvalues --    3.56438   3.58204   3.60261   3.72214   3.73942
  Beta virt. eigenvalues --    3.76885   3.85266   3.86169   3.87706   3.91254
  Beta virt. eigenvalues --    3.93175   3.94638   4.00447   4.04313   4.05052
  Beta virt. eigenvalues --    4.09433   4.14773   4.19070   4.21412   4.23233
  Beta virt. eigenvalues --    4.26214   4.28887   4.33186   4.33742   4.35332
  Beta virt. eigenvalues --    4.41906   4.46394   4.50351   4.52067   4.59263
  Beta virt. eigenvalues --    4.63901   4.73303   4.91438   5.15286   5.21263
  Beta virt. eigenvalues --    5.25725   5.27286   5.47686   5.52160   5.55256
  Beta virt. eigenvalues --    5.58096   5.61154   5.64437   5.68493   5.78728
  Beta virt. eigenvalues --    5.96079   6.32001   6.45064   6.80983   7.14272
  Beta virt. eigenvalues --    7.20575   7.29245   7.69672   7.71077  24.30797
  Beta virt. eigenvalues --   24.44508  24.52710  50.16531
          Condensed to atoms (all electrons):
               1          2          3          4          5          6
     1  O    8.165199  -0.053070   0.125313   0.068797   0.008652   0.007011
     2  C   -0.053070   5.045986  -0.016972   0.203091   0.427402   0.415259
     3  C    0.125313  -0.016972   4.985157  -0.081351  -0.009458   0.002103
     4  C    0.068797   0.203091  -0.081351   5.693609  -0.061521  -0.040055
     5  H    0.008652   0.427402  -0.009458  -0.061521   0.569085  -0.023164
     6  H    0.007011   0.415259   0.002103  -0.040055  -0.023164   0.525395
     7  H   -0.001733   0.404413   0.006729  -0.057474  -0.055060  -0.019491
     8  H   -0.055414  -0.000100   0.433619   0.008628  -0.000111   0.000023
     9  H   -0.045057  -0.004063   0.419194   0.014736   0.001806  -0.000155
    10  H   -0.040728  -0.000587   0.428129  -0.008225  -0.003395   0.000292
    11  H   -0.052435  -0.040208   0.005892   0.443784   0.000100  -0.005718
               7          8          9         10         11
     1  O   -0.001733  -0.055414  -0.045057  -0.040728  -0.052435
     2  C    0.404413  -0.000100  -0.004063  -0.000587  -0.040208
     3  C    0.006729   0.433619   0.419194   0.428129   0.005892
     4  C   -0.057474   0.008628   0.014736  -0.008225   0.443784
     5  H   -0.055060  -0.000111   0.001806  -0.003395   0.000100
     6  H   -0.019491   0.000023  -0.000155   0.000292  -0.005718
     7  H    0.586865   0.000535  -0.004281  -0.004610   0.004679
     8  H    0.000535   0.523486  -0.020457  -0.025989  -0.000023
     9  H   -0.004281  -0.020457   0.555646  -0.053708  -0.000008
    10  H   -0.004610  -0.025989  -0.053708   0.574664  -0.000404
    11  H    0.004679  -0.000023  -0.000008  -0.000404   0.484581
          Atomic-Atomic Spin Densities.
               1          2          3          4          5          6
     1  O    0.253202   0.012527   0.017621  -0.223754   0.010260  -0.000192
     2  C    0.012527  -0.026193   0.005504  -0.067158   0.007638   0.002614
     3  C    0.017621   0.005504   0.008128  -0.023338  -0.004545   0.000380
     4  C   -0.223754  -0.067158  -0.023338   1.303658  -0.024726  -0.005273
     5  H    0.010260   0.007638  -0.004545  -0.024726   0.095490  -0.003625
     6  H   -0.000192   0.002614   0.000380  -0.005273  -0.003625   0.005329
     7  H    0.001723   0.015424   0.007903  -0.042193  -0.023372   0.002863
     8  H   -0.000553  -0.000535  -0.001206   0.001700  -0.000010   0.000001
     9  H   -0.010185  -0.001380  -0.007610   0.024799   0.001767  -0.000111
    10  H   -0.004483   0.000251   0.004536  -0.004411  -0.004545   0.000088
    11  H    0.002279   0.005648   0.000660  -0.007474  -0.002275   0.000505
               7          8          9         10         11
     1  O    0.001723  -0.000553  -0.010185  -0.004483   0.002279
     2  C    0.015424  -0.000535  -0.001380   0.000251   0.005648
     3  C    0.007903  -0.001206  -0.007610   0.004536   0.000660
     4  C   -0.042193   0.001700   0.024799  -0.004411  -0.007474
     5  H   -0.023372  -0.000010   0.001767  -0.004545  -0.002275
     6  H    0.002863   0.000001  -0.000111   0.000088   0.000505
     7  H    0.059075  -0.000009  -0.005155   0.004059   0.000790
     8  H   -0.000009  -0.000721   0.000674   0.000313   0.000007
     9  H   -0.005155   0.000674   0.009453  -0.004761  -0.000316
    10  H    0.004059   0.000313  -0.004761   0.010764   0.000264
    11  H    0.000790   0.000007  -0.000316   0.000264  -0.037389
 Mulliken charges and spin densities:
               1          2
     1  O   -0.126535   0.058445
     2  C   -0.381153  -0.045661
     3  C   -0.298355   0.008034
     4  C   -0.184020   0.931831
     5  H    0.145664   0.052058
     6  H    0.138498   0.002579
     7  H    0.139428   0.021107
     8  H    0.135803  -0.000340
     9  H    0.136347   0.007175
    10  H    0.134560   0.002075
    11  H    0.159762  -0.037302
 Sum of Mulliken charges =  -0.00000   1.00000
 Mulliken charges and spin densities with hydrogens summed into heavy atoms:
               1          2
     1  O   -0.126535   0.058445
     2  C    0.042438   0.030083
     3  C    0.108355   0.016943
     4  C   -0.024258   0.894529
 APT charges:
               1
     1  O   -0.123923
     2  C   -1.140381
     3  C   -1.035191
     4  C   -0.371492
     5  H    0.307977
     6  H    0.486023
     7  H    0.292708
     8  H    0.498488
     9  H    0.317971
    10  H    0.295591
    11  H    0.472230
 Sum of APT charges =  -0.00000
 APT charges with hydrogens summed into heavy atoms:
               1
     1  O   -0.123923
     2  C   -0.053673
     3  C    0.076858
     4  C    0.100738
 Electronic spatial extent (au):  <R**2>=            313.5784
 Charge=             -0.0000 electrons
 Dipole moment (field-independent basis, Debye):
    X=              0.1958    Y=             -1.4406    Z=              0.1131  Tot=              1.4583
 Quadrupole moment (field-independent basis, Debye-Ang):
   XX=            -23.8564   YY=            -26.4672   ZZ=            -27.3778
   XY=              1.9759   XZ=              0.4808   YZ=              0.1515
 Traceless Quadrupole moment (field-independent basis, Debye-Ang):
   XX=              2.0441   YY=             -0.5668   ZZ=             -1.4774
   XY=              1.9759   XZ=              0.4808   YZ=              0.1515
 Octapole moment (field-independent basis, Debye-Ang**2):
  XXX=             -6.0460  YYY=              2.6321  ZZZ=              2.4236  XYY=              0.5766
  XXY=              0.0228  XXZ=              0.2293  XZZ=             -2.0504  YZZ=             -1.4091
  YYZ=              0.4165  XYZ=              0.3338
 Hexadecapole moment (field-independent basis, Debye-Ang**3):
 XXXX=           -250.0107 YYYY=           -108.8280 ZZZZ=            -47.1158 XXXY=              1.1522
 XXXZ=             -3.8097 YYYX=              2.9164 YYYZ=              1.4971 ZZZX=              2.5249
 ZZZY=              1.8815 XXYY=            -65.3119 XXZZ=            -54.2861 YYZZ=            -26.9668
 XXYZ=              0.4569 YYXZ=              0.1472 ZZXY=             -1.0566
 N-N= 1.279074417347D+02 E-N=-7.076509335277D+02  KE= 1.929295694190D+02
  Exact polarizability:   0.000   0.000   0.000   0.000   0.000   0.000
 Approx polarizability:  49.481   1.045  46.856  -0.436  -0.666  44.430
                          Isotropic Fermi Contact Couplings
        Atom                 a.u.       MegaHertz       Gauss      10(-4) cm-1
     1  O(17)              0.02710     -16.42784      -5.86186      -5.47974
     2  C(13)             -0.01182     -13.28463      -4.74029      -4.43128
     3  C(13)              0.00286       3.21338       1.14661       1.07187
     4  C(13)              0.20846     234.35239      83.62276      78.17154
     5  H(1)               0.02457     109.80692      39.18184      36.62765
     6  H(1)               0.00042       1.87613       0.66945       0.62581
     7  H(1)               0.01200      53.65602      19.14580      17.89772
     8  H(1)              -0.00045      -2.02793      -0.72362      -0.67645
     9  H(1)               0.00238      10.62271       3.79045       3.54336
    10  H(1)               0.00196       8.77140       3.12985       2.92582
    11  H(1)              -0.00986     -44.07364     -15.72657     -14.70138
 --------------------------------------------------------
       Center         ----  Spin Dipole Couplings  ----
                      3XX-RR        3YY-RR        3ZZ-RR
 --------------------------------------------------------
     1   Atom       -0.410962     -0.349156      0.760118
     2   Atom       -0.004908      0.011090     -0.006183
     3   Atom        0.006420      0.006546     -0.012966
     4   Atom       -0.497086     -0.497151      0.994237
     5   Atom       -0.003808      0.003529      0.000279
     6   Atom        0.011841     -0.003843     -0.007999
     7   Atom       -0.008127      0.017370     -0.009243
     8   Atom        0.007649     -0.003089     -0.004560
     9   Atom        0.004309      0.001760     -0.006069
    10   Atom       -0.001219      0.005604     -0.004385
    11   Atom       -0.044436      0.049071     -0.004635
 --------------------------------------------------------
                        XY            XZ            YZ
 --------------------------------------------------------
     1   Atom        0.015714      0.068042     -0.122887
     2   Atom       -0.017471      0.010586     -0.010882
     3   Atom        0.014372     -0.003818     -0.002403
     4   Atom        0.009535      0.147712      0.050534
     5   Atom       -0.007678      0.003960     -0.009024
     6   Atom       -0.012726      0.001441     -0.000941
     7   Atom       -0.007052     -0.000995      0.001930
     8   Atom        0.006132     -0.001326     -0.000531
     9   Atom        0.010398      0.003611      0.004349
    10   Atom        0.007012     -0.003372     -0.004347
    11   Atom        0.046873      0.011076      0.011575
 --------------------------------------------------------


 ---------------------------------------------------------------------------------
              Anisotropic Spin Dipole Couplings in Principal Axis System
 ---------------------------------------------------------------------------------

       Atom             a.u.   MegaHertz   Gauss  10(-4) cm-1        Axes

              Baa    -0.4233    30.631    10.930    10.218  0.9338 -0.3464 -0.0897
     1 O(17)  Bbb    -0.3539    25.608     9.138     8.542  0.3535  0.9319  0.0812
              Bcc     0.7772   -56.240   -20.068   -18.760  0.0554 -0.1075  0.9927
 
              Baa    -0.0177    -2.371    -0.846    -0.791  0.8294  0.3345 -0.4475
     2 C(13)  Bbb    -0.0110    -1.479    -0.528    -0.493  0.2076  0.5590  0.8027
              Bcc     0.0287     3.850     1.374     1.284 -0.5187  0.7587 -0.3942
 
              Baa    -0.0137    -1.839    -0.656    -0.613  0.2082 -0.0318  0.9776
     3 C(13)  Bbb    -0.0077    -1.036    -0.370    -0.345 -0.6801  0.7136  0.1680
              Bcc     0.0214     2.874     1.026     0.959  0.7029  0.6998 -0.1270
 
              Baa    -0.5130   -68.845   -24.566   -22.964  0.9484 -0.3061 -0.0827
     4 C(13)  Bbb    -0.4974   -66.750   -23.818   -22.265  0.3017  0.9514 -0.0621
              Bcc     1.0105   135.595    48.384    45.230  0.0977  0.0340  0.9946
 
              Baa    -0.0092    -4.897    -1.747    -1.633  0.6827  0.6498  0.3342
     5 H(1)   Bbb    -0.0057    -3.055    -1.090    -1.019 -0.6025  0.2418  0.7606
              Bcc     0.0149     7.952     2.837     2.652 -0.4135  0.7206 -0.5566
 
              Baa    -0.0110    -5.844    -2.085    -1.950  0.4850  0.8735  0.0418
     6 H(1)   Bbb    -0.0081    -4.323    -1.543    -1.442 -0.0757 -0.0057  0.9971
              Bcc     0.0191    10.168     3.628     3.392  0.8712 -0.4868  0.0633
 
              Baa    -0.0102    -5.456    -1.947    -1.820  0.8466  0.1814  0.5003
     7 H(1)   Bbb    -0.0091    -4.867    -1.737    -1.623 -0.4695 -0.1879  0.8627
              Bcc     0.0193    10.323     3.683     3.443 -0.2504  0.9653  0.0739
 
              Baa    -0.0059    -3.134    -1.118    -1.045 -0.4168  0.9074 -0.0542
     8 H(1)   Bbb    -0.0047    -2.503    -0.893    -0.835  0.0630  0.0883  0.9941
              Bcc     0.0106     5.637     2.011     1.880  0.9068  0.4109 -0.0939
 
              Baa    -0.0083    -4.446    -1.587    -1.483  0.3179 -0.6320  0.7067
     9 H(1)   Bbb    -0.0067    -3.554    -1.268    -1.185 -0.6201  0.4252  0.6593
              Bcc     0.0150     8.000     2.855     2.669  0.7172  0.6479  0.2567
 
              Baa    -0.0065    -3.484    -1.243    -1.162  0.5638 -0.0302  0.8253
    10 H(1)   Bbb    -0.0053    -2.833    -1.011    -0.945  0.6488 -0.6022 -0.4652
              Bcc     0.0118     6.316     2.254     2.107  0.5110  0.7978 -0.3200
 
              Baa    -0.0645   -34.395   -12.273   -11.473  0.9233 -0.3711 -0.0991
    11 H(1)   Bbb    -0.0070    -3.734    -1.332    -1.246  0.0178 -0.2164  0.9761
              Bcc     0.0715    38.129    13.605    12.718  0.3837  0.9030  0.1932
 

 ---------------------------------------------------------------------------------

 No NMR shielding tensors so no spin-rotation constants.
 Leave Link  601 at Tue Mar 12 00:35:33 2019, MaxMem=   671088640 cpu:               7.9 elap:               0.4
 (Enter /shared/centos7/gaussian/g16/l701.exe)
 ... and contract with generalized density number  0.
 Compute integral second derivatives.
 Leave Link  701 at Tue Mar 12 00:35:34 2019, MaxMem=   671088640 cpu:               6.3 elap:               0.3
 (Enter /shared/centos7/gaussian/g16/l702.exe)
 L702 exits ... SP integral derivatives will be done elsewhere.
 Leave Link  702 at Tue Mar 12 00:35:34 2019, MaxMem=   671088640 cpu:               0.3 elap:               0.0
 (Enter /shared/centos7/gaussian/g16/l703.exe)
 Integral derivatives from FoFJK, PRISM(SPDF).
 Compute integral second derivatives, UseDBF=F ICtDFT=           0.
 Calling FoFJK, ICntrl=    100147 FMM=F ISym2X=0 I1Cent= 0 IOpClX= 1 NMat=1 NMatS=1 NMatT=0.
 FoFJK:  IHMeth= 1 ICntrl=  100147 DoSepK=F KAlg= 0 I1Cent=           0 FoldK=F
 IRaf=         0 NMat=       1 IRICut=       1 DoRegI=T DoRafI=F ISym2E= 0 IDoP0=0 IntGTp=1.
 FoFCou: FMM=F IPFlag=           0 FMFlag=      100000 FMFlg1=         800
         NFxFlg=           0 DoJE=F BraDBF=F KetDBF=F FulRan=T
         wScrn=  0.000000 ICntrl=    100147 IOpCl=  1 I1Cent=           0 NGrid=           0
         NMat0=    1 NMatS0=      1 NMatT0=    0 NMatD0=    1 NMtDS0=    0 NMtDT0=    0
 Symmetry not used in FoFCou.
 Leave Link  703 at Tue Mar 12 00:36:15 2019, MaxMem=   671088640 cpu:             837.5 elap:              41.9
 (Enter /shared/centos7/gaussian/g16/l716.exe)
 Dipole        = 7.70175031D-02-5.66784526D-01 4.44859804D-02
 Polarizability= 0.00000000D+00 0.00000000D+00 0.00000000D+00
                 0.00000000D+00 0.00000000D+00 0.00000000D+00
 ***** Axes restored to original set *****
 -------------------------------------------------------------------
 Center     Atomic                   Forces (Hartrees/Bohr)
 Number     Number              X              Y              Z
 -------------------------------------------------------------------
      1        8          -0.000000540   -0.000000471    0.000000055
      2        6           0.000000170    0.000000836   -0.000000372
      3        6           0.000000140   -0.000000944    0.000000536
      4        6          -0.000000645    0.000000271   -0.000000365
      5        1           0.000000698    0.000001066   -0.000000307
      6        1          -0.000000057    0.000001407   -0.000000745
      7        1           0.000000510    0.000000505   -0.000000083
      8        1           0.000000086   -0.000001540    0.000000824
      9        1           0.000000015   -0.000001110    0.000000578
     10        1           0.000000836   -0.000000580    0.000000590
     11        1          -0.000001214    0.000000560   -0.000000710
 -------------------------------------------------------------------
 Cartesian Forces:  Max     0.000001540 RMS     0.000000702
 Force constants in Cartesian coordinates: 
                1             2             3             4             5 
      1  0.520176D+00
      2  0.113009D+00  0.365310D+00
      3 -0.726336D-01  0.470989D-01  0.905001D-01
      4 -0.313834D-01  0.274767D-01 -0.679316D-02  0.556983D+00
      5 -0.638145D-03  0.739670D-02  0.233654D-02  0.410080D-01  0.515742D+00
      6  0.690528D-02 -0.113817D-01  0.685060D-02 -0.214945D-01  0.177712D-01
      7 -0.117017D+00 -0.489702D-01 -0.291527D-02 -0.203842D-02  0.122179D-03
      8 -0.779848D-01 -0.213136D+00 -0.248897D-01  0.342904D-02  0.431074D-02
      9 -0.122874D-01 -0.330373D-01 -0.679910D-01  0.138775D-02 -0.123817D-02
     10 -0.323700D+00 -0.181647D-01  0.869822D-01 -0.121202D+00  0.587620D-01
     11  0.136166D-01 -0.100461D+00 -0.964724D-02  0.600137D-01 -0.194068D+00
     12  0.825895D-01  0.123625D-02 -0.448584D-01 -0.222522D-02  0.115445D-01
     13  0.236367D-04 -0.179353D-02  0.276481D-02 -0.458059D-01 -0.407707D-04
     14  0.145169D-02  0.214171D-02 -0.446980D-02 -0.188852D-02 -0.600979D-01
     15 -0.327492D-02 -0.792101D-03  0.183871D-02  0.486896D-02  0.585693D-01
     16 -0.160559D-02  0.336771D-02 -0.787867D-03 -0.291043D+00 -0.533784D-01
     17  0.570208D-02 -0.488358D-02  0.111780D-02 -0.561041D-01 -0.582799D-01
     18 -0.821589D-03  0.950024D-03  0.132603D-02  0.695471D-01  0.147431D-01
     19 -0.467529D-03 -0.126272D-02 -0.125960D-03 -0.725582D-01 -0.624679D-01
     20  0.122696D-02  0.137555D-02 -0.952023D-04 -0.652320D-01 -0.201655D+00
     21  0.664435D-03 -0.325639D-03 -0.251608D-03 -0.454024D-01 -0.112770D+00
     22 -0.217451D-01 -0.451381D-02  0.335487D-02  0.237393D-03 -0.280343D-03
     23 -0.422733D-01 -0.127831D-02  0.696977D-02  0.539645D-03 -0.591009D-03
     24 -0.713189D-02  0.248098D-03  0.193686D-02 -0.149875D-03 -0.107572D-03
     25 -0.339610D-02 -0.138894D-01 -0.190669D-01 -0.350660D-03  0.544951D-04
     26 -0.921601D-02 -0.231992D-01 -0.324782D-01 -0.425610D-03  0.185596D-03
     27 -0.440719D-02 -0.920433D-02  0.865247D-03  0.240867D-03 -0.238507D-03
     28  0.477962D-02 -0.203526D-01  0.129645D-01 -0.109256D-02  0.691013D-03
     29 -0.387393D-02 -0.369996D-01  0.146738D-01  0.173111D-03  0.706868D-03
     30  0.563135D-02 -0.505942D-02  0.870878D-02 -0.544937D-03  0.585356D-03
     31 -0.256640D-01 -0.349063D-01 -0.374351D-02  0.825415D-02  0.161678D-01
     32 -0.101989D-02  0.373386D-02 -0.616688D-03 -0.898991D-02 -0.136514D-01
     33  0.476606D-02  0.102671D-01  0.107470D-02  0.565428D-03  0.880410D-02
                6             7             8             9            10 
      6  0.504534D+00
      7  0.676405D-03  0.600714D+00
      8  0.106867D-02 -0.501114D-01  0.510943D+00
      9 -0.137044D-02 -0.211252D-01 -0.117388D-01  0.573290D+00
     10 -0.120768D-01 -0.370012D-01 -0.143044D-01  0.510758D-02  0.568254D+00
     11  0.318118D-01 -0.391234D-01 -0.274010D-02  0.113873D-01  0.487651D-01
     12 -0.557583D-01 -0.351543D-02  0.374539D-03 -0.617936D-03 -0.610213D-01
     13 -0.172772D-02  0.227551D-03  0.519247D-03 -0.802654D-03  0.941322D-03
     14  0.668083D-01 -0.996539D-04 -0.586631D-03 -0.217255D-03  0.798066D-03
     15 -0.271246D+00  0.446568D-03  0.127566D-02 -0.608419D-03 -0.206948D-02
     16  0.683291D-01  0.815821D-03  0.106301D-02  0.195274D-03 -0.178797D-01
     17  0.154030D-01 -0.147006D-02 -0.207205D-02  0.313724D-03  0.262488D-01
     18 -0.637007D-01 -0.250252D-03  0.140420D-03 -0.134018D-03 -0.578572D-02
     19 -0.440264D-01 -0.108471D-02  0.320165D-03  0.133666D-02  0.937676D-02
     20 -0.114871D+00 -0.104993D-02 -0.475824D-03 -0.491835D-03 -0.868187D-02
     21 -0.122995D+00 -0.862237D-03 -0.118717D-02  0.618111D-03  0.445474D-02
     22  0.902377D-04 -0.299021D+00  0.554586D-01  0.545045D-01  0.158257D-02
     23 -0.502997D-03  0.684975D-01 -0.612774D-01 -0.141672D-01 -0.804097D-03
     24  0.642123D-04  0.582342D-01 -0.118637D-01 -0.647946D-01 -0.212901D-03
     25 -0.314904D-03 -0.557740D-01  0.105055D-01  0.294214D-01  0.474443D-02
     26  0.328724D-03  0.798573D-02 -0.667840D-01 -0.609744D-01  0.540502D-02
     27 -0.869299D-03  0.255948D-01 -0.654017D-01 -0.286671D+00  0.553795D-03
     28  0.876317D-03 -0.862921D-01  0.683248D-01 -0.601881D-01  0.346249D-02
     29  0.677173D-04  0.631730D-01 -0.170490D+00  0.110253D+00  0.582274D-02
     30  0.556153D-03 -0.577973D-01  0.112700D+00 -0.153870D+00 -0.103941D-02
     31  0.276288D-02 -0.352870D-02  0.278021D-02  0.245018D-02 -0.885784D-01
     32 -0.650327D-02  0.104621D-02  0.230865D-02 -0.890246D-04 -0.103847D+00
     33  0.393426D-02  0.151367D-02 -0.478033D-03  0.214934D-02 -0.148927D-01
               11            12            13            14            15 
     11  0.637611D+00
     12  0.146761D-02  0.119161D+00
     13  0.885331D-02 -0.192813D-01  0.444872D-01
     14 -0.146680D-01  0.291328D-01 -0.141777D-02  0.686305D-01
     15  0.904461D-02 -0.291983D-02 -0.196289D-03 -0.727433D-01  0.299016D+00
     16 -0.730380D-02  0.463692D-02  0.122826D-02  0.117954D-03  0.623619D-04
     17  0.845105D-02 -0.764098D-02 -0.779849D-02 -0.259281D-02  0.125933D-02
     18 -0.168237D-02 -0.978033D-03  0.296512D-01  0.622033D-02 -0.746982D-02
     19  0.143290D-01  0.959151D-02 -0.296399D-03  0.251776D-03  0.846828D-03
     20 -0.257149D-01 -0.745000D-02  0.240371D-02  0.697173D-02  0.414131D-02
     21  0.663652D-02  0.487255D-02 -0.107458D-01 -0.243352D-01 -0.187770D-01
     22 -0.265182D-02 -0.129502D-02  0.233293D-05  0.751543D-04 -0.235419D-04
     23 -0.499211D-02 -0.128116D-02 -0.169688D-03  0.142220D-04 -0.205375D-03
     24 -0.543192D-03  0.396131D-03  0.211199D-03  0.947862D-04  0.142928D-03
     25  0.531240D-04 -0.195551D-02  0.415021D-04 -0.615448D-04 -0.352128D-04
     26  0.810850D-03 -0.351355D-03 -0.167135D-04  0.149527D-03 -0.171876D-03
     27 -0.508889D-03  0.104000D-02 -0.844647D-04  0.266087D-03  0.171567D-03
     28 -0.148776D-02  0.352395D-03 -0.724994D-03  0.311810D-03 -0.288692D-03
     29 -0.760921D-03 -0.304722D-03 -0.433390D-03  0.291154D-03 -0.497624D-03
     30  0.393073D-03  0.564472D-03 -0.178155D-03  0.194237D-03  0.231232D-03
     31 -0.950640D-01 -0.787649D-02 -0.124538D-03  0.461042D-03 -0.336584D-03
     32 -0.303468D+00 -0.267275D-01 -0.105916D-03 -0.253543D-03  0.120060D-03
     33 -0.483592D-01 -0.209019D-01  0.389207D-03 -0.951085D-03 -0.379197D-03
               16            17            18            19            20 
     16  0.315519D+00
     17  0.574559D-01  0.626279D-01
     18 -0.746467D-01 -0.176492D-01  0.660666D-01
     19 -0.829565D-02 -0.229942D-01 -0.177664D-01  0.764240D-01
     20 -0.164404D-02 -0.468755D-02 -0.250680D-02  0.692788D-01  0.225580D+00
     21  0.209621D-02  0.809936D-02  0.466374D-02  0.510265D-01  0.121940D+00
     22 -0.625473D-04 -0.116790D-04 -0.314519D-05  0.104288D-03 -0.172270D-04
     23  0.563118D-04  0.457228D-03  0.116162D-03  0.183236D-03  0.511634D-03
     24  0.684538D-05 -0.694274D-04  0.105986D-03 -0.218303D-03  0.172161D-03
     25  0.364377D-04  0.142751D-03  0.103662D-03 -0.616707D-03  0.299271D-03
     26 -0.624367D-04  0.342921D-04 -0.106553D-03 -0.137192D-03  0.111320D-03
     27  0.628657D-04  0.206979D-03  0.264087D-03 -0.454279D-03  0.647372D-03
     28  0.245729D-03 -0.396699D-03 -0.224344D-03 -0.127536D-02 -0.629166D-04
     29  0.472837D-04  0.415218D-03 -0.153642D-03 -0.633349D-05  0.386061D-03
     30 -0.786045D-04 -0.548994D-03 -0.179180D-03  0.208962D-03 -0.225678D-03
     31  0.104089D-02 -0.774334D-03  0.196180D-03 -0.131054D-02  0.347923D-02
     32  0.280528D-03  0.530130D-03 -0.713962D-04  0.250530D-02 -0.240293D-02
     33  0.123517D-03 -0.491513D-03  0.353097D-04 -0.419107D-03 -0.125959D-02
               21            22            23            24            25 
     21  0.132893D+00
     22 -0.639112D-04  0.328739D+00
     23  0.454410D-03 -0.529172D-01  0.709981D-01
     24 -0.179361D-03 -0.598224D-01  0.144704D-01  0.609384D-01
     25 -0.317780D-03 -0.269497D-03  0.768114D-02  0.295392D-01  0.537197D-01
     26 -0.134230D-03  0.143828D-02 -0.939124D-03 -0.669168D-02 -0.256984D-02
     27  0.244989D-03  0.618975D-03  0.000000D+00 -0.426779D-02 -0.255067D-01
     28  0.149719D-03 -0.873283D-02  0.206301D-01 -0.203184D-01  0.188322D-02
     29  0.673158D-04  0.344048D-02 -0.287869D-02  0.429375D-02 -0.228617D-02
     30 -0.890320D-03  0.253414D-02 -0.612817D-02  0.535453D-02 -0.122222D-01
     31 -0.999472D-03 -0.834377D-03 -0.142360D-02 -0.137678D-03 -0.183521D-04
     32  0.155468D-02 -0.203918D-04 -0.246003D-04 -0.370800D-05  0.705959D-04
     33 -0.199628D-03  0.105301D-03  0.273913D-03  0.302650D-03  0.354982D-03
               26            27            28            29            30 
     26  0.811208D-01
     27  0.789295D-01  0.307431D+00
     28 -0.230390D-02  0.365978D-02  0.879946D-01
     29  0.853424D-02 -0.482546D-02 -0.655620D-01  0.200661D+00
     30  0.213584D-01 -0.180524D-01  0.633291D-01 -0.123212D+00  0.157695D+00
     31 -0.973329D-04 -0.278431D-03 -0.247725D-03 -0.494785D-03  0.157004D-03
     32 -0.242957D-04  0.128709D-03  0.208160D-03  0.134024D-03 -0.568686D-04
     33  0.291670D-03 -0.156849D-03 -0.312287D-03 -0.362316D-03 -0.117375D-03
               31            32            33 
     31  0.111012D+00
     32  0.109872D+00  0.313119D+00
     33  0.780592D-02  0.322650D-01  0.142587D-01
 FormGI is forming the generalized inverse of G from B-inverse, IUseBI=4.
 Force constants in internal coordinates: 
                1             2             3             4             5 
      1  0.368825D+00
      2  0.144918D-01  0.437905D+00
      3  0.879183D-03  0.256859D-01  0.307649D+00
      4 -0.354499D-03  0.412643D-02  0.145989D-01  0.320040D+00
      5 -0.105688D-02 -0.750952D-03  0.322309D-02  0.271244D-02  0.348767D+00
      6 -0.931524D-03 -0.896610D-03  0.903753D-02  0.422067D-02  0.253192D-02
      7  0.100655D-01 -0.161048D-02 -0.350637D-03  0.299248D-04  0.689444D-04
      8  0.155282D-01 -0.909046D-03  0.986362D-03 -0.259020D-04 -0.160749D-04
      9  0.154020D-01 -0.461876D-02  0.315611D-03  0.381960D-03 -0.135477D-03
     10 -0.201649D-02  0.104650D-01  0.296549D-02 -0.228492D-04  0.665719D-03
     11  0.516325D-01  0.753163D-01  0.850810D-02  0.693645D-03 -0.760506D-03
     12  0.642184D-03  0.103735D-02  0.123419D-01  0.165339D-02 -0.611810D-02
     13 -0.359956D-02  0.430365D-02  0.146966D-01 -0.572435D-02  0.393502D-02
     14  0.248488D-02  0.282377D-02  0.179387D-01 -0.682649D-02 -0.587116D-02
     15  0.612727D-03 -0.288494D-02 -0.144646D-01  0.590543D-02  0.473758D-02
     16 -0.883987D-03 -0.198063D-02 -0.179582D-01  0.701789D-02 -0.576688D-03
     17  0.751061D-03 -0.385376D-02 -0.154843D-01 -0.143073D-02  0.470346D-02
     18  0.313010D-01  0.440380D-02 -0.135497D-02  0.487662D-04 -0.148969D-04
     19  0.264892D-01 -0.914029D-02  0.916038D-03  0.188513D-03  0.163646D-04
     20  0.271732D-01 -0.325587D-02  0.391329D-02  0.689180D-03 -0.277936D-03
     21 -0.279042D-01  0.294379D-02 -0.105090D-02 -0.101649D-03  0.513363D-04
     22 -0.290311D-01  0.149039D-02 -0.143832D-02 -0.517772D-03  0.253274D-03
     23 -0.286176D-01  0.376562D-02 -0.108960D-02 -0.319925D-03 -0.181060D-04
     24 -0.230231D-02  0.335190D-01  0.161421D-01 -0.255278D-02  0.482341D-02
     25  0.322939D-02  0.108752D-01 -0.193878D-01  0.486815D-03 -0.177539D-02
     26 -0.998260D-03 -0.407152D-01  0.876868D-02  0.137784D-02 -0.248097D-02
     27 -0.326576D-03  0.150136D-02  0.471864D-03  0.415667D-04 -0.205374D-04
     28 -0.523838D-03  0.262713D-02 -0.109769D-02  0.526575D-04  0.413777D-04
     29  0.190869D-03 -0.120161D-02  0.850723D-03  0.251250D-03 -0.162047D-03
     30  0.513415D-03 -0.777855D-02  0.489752D-02 -0.742039D-03  0.131698D-03
     31  0.800351D-03 -0.681592D-05 -0.647645D-02 -0.993591D-04  0.169281D-03
     32 -0.127866D-02 -0.455603D-02 -0.204682D-02  0.761306D-03  0.468149D-02
     33 -0.356171D-03  0.580648D-02  0.207690D-02 -0.375693D-03  0.516070D-02
     34 -0.642148D-04 -0.445116D-02 -0.143771D-02 -0.385754D-02 -0.621320D-05
     35  0.858277D-03  0.591135D-02  0.268601D-02 -0.499454D-02  0.473002D-03
     36 -0.149681D-03 -0.432206D-02 -0.335581D-02  0.616629D-02 -0.484871D-02
     37  0.772811D-03  0.604045D-02  0.767916D-03  0.502929D-02 -0.436950D-02
                6             7             8             9            10 
      6  0.337940D+00
      7 -0.138407D-03  0.352164D+00
      8  0.480992D-03  0.294130D-02  0.334470D+00
      9  0.724276D-03  0.330120D-02  0.367416D-02  0.337363D+00
     10 -0.312797D-03  0.211815D-03  0.314600D-04  0.101594D-03  0.364290D+00
     11 -0.676088D-02  0.395417D-02 -0.317029D-02 -0.829952D-02  0.338740D-02
     12 -0.698628D-02  0.740683D-04  0.369662D-03 -0.220637D-03 -0.585880D-03
     13 -0.534471D-02 -0.858248D-05 -0.824139D-04  0.108792D-02 -0.476896D-03
     14  0.128431D-02 -0.178704D-03  0.669813D-03 -0.476232D-03  0.328159D-02
     15 -0.111315D-02 -0.198872D-04 -0.793120D-04 -0.205379D-03 -0.100047D-03
     16  0.657870D-02  0.000000D+00 -0.431480D-03  0.203152D-03 -0.123918D-02
     17  0.613123D-02  0.143646D-03 -0.512900D-03 -0.410227D-03 -0.103577D-02
     18  0.115622D-02  0.326214D-02 -0.469746D-02 -0.425662D-02  0.102868D-02
     19 -0.354975D-03 -0.475156D-02  0.205145D-02 -0.511698D-02 -0.254326D-03
     20 -0.569997D-03 -0.493538D-02 -0.533821D-02 -0.529175D-03 -0.132698D-03
     21 -0.913931D-04  0.573167D-02  0.630335D-02 -0.546056D-02 -0.186492D-03
     22 -0.304938D-03  0.598821D-02 -0.549948D-02  0.768339D-02 -0.281393D-03
     23  0.180502D-03 -0.470059D-02  0.699846D-02  0.743776D-02 -0.158539D-03
     24 -0.634535D-02 -0.393467D-03 -0.146224D-03 -0.450877D-02 -0.739417D-02
     25  0.152350D-02  0.612508D-03  0.296440D-03  0.235869D-02  0.473857D-02
     26  0.423999D-02 -0.279293D-03 -0.203492D-03  0.163856D-02  0.418301D-02
     27 -0.229192D-03 -0.631085D-04 -0.556451D-02  0.522996D-02 -0.478826D-04
     28  0.156785D-03  0.616110D-02  0.343721D-03 -0.671989D-02  0.202929D-03
     29 -0.254136D-03 -0.657231D-02  0.703662D-02 -0.116220D-02 -0.269042D-03
     30  0.765111D-03  0.449113D-04  0.231948D-03  0.541973D-03  0.238983D-02
     31  0.134012D-03  0.211118D-03  0.377947D-03  0.678657D-03 -0.199459D-02
     32 -0.515262D-02 -0.165144D-04  0.354926D-05  0.203519D-03 -0.248671D-02
     33 -0.573494D-02  0.695216D-04  0.000000D+00  0.175206D-04  0.198210D-02
     34  0.414395D-02 -0.323638D-04 -0.742607D-04 -0.121719D-03 -0.167976D-02
     35  0.356162D-02  0.536722D-04 -0.785912D-04 -0.307717D-03  0.278906D-02
     36 -0.756757D-03 -0.933544D-04  0.199953D-03 -0.404827D-04 -0.214329D-02
     37 -0.133908D-02 -0.731835D-05  0.195623D-03 -0.226481D-03  0.232553D-02
               11            12            13            14            15 
     11  0.313645D+00
     12  0.633408D-03  0.950188D-01
     13 -0.748403D-02 -0.173516D-01  0.983031D-01
     14  0.108657D-01 -0.198752D-01 -0.195794D-01  0.100771D+00
     15  0.209165D-03 -0.340375D-01 -0.377475D-01  0.977989D-02  0.531094D-01
     16 -0.197153D-02 -0.374063D-01  0.100712D-01 -0.392162D-01  0.638635D-02
     17 -0.267460D-02  0.989890D-02 -0.376801D-01 -0.360612D-01  0.706954D-02
     18  0.104418D-01 -0.104197D-03  0.109358D-02 -0.106873D-02 -0.592479D-04
     19 -0.398817D-02 -0.654118D-03  0.131627D-03  0.940104D-03  0.556545D-04
     20  0.340856D-02  0.156681D-02 -0.150013D-02  0.184038D-02 -0.786592D-03
     21 -0.441979D-02  0.111654D-03  0.641003D-04 -0.111128D-02  0.289598D-04
     22 -0.828766D-02 -0.567121D-03  0.211086D-03 -0.653214D-03  0.466578D-03
     23  0.264441D-02 -0.363480D-03  0.392788D-04 -0.408414D-04  0.303316D-03
     24  0.510866D-01 -0.104545D-01  0.190624D-01 -0.483549D-02 -0.337180D-02
     25 -0.140233D-01  0.520215D-02 -0.618190D-02 -0.414758D-02  0.123419D-02
     26 -0.334790D-01  0.224857D-02 -0.105200D-01  0.945081D-02  0.237204D-02
     27  0.303829D-02  0.322313D-03 -0.666494D-03  0.547971D-03  0.611847D-04
     28  0.176537D-02  0.326347D-04  0.138177D-03 -0.909569D-03  0.913390D-04
     29  0.470556D-02  0.191651D-03 -0.754473D-03  0.965449D-03 -0.248874D-04
     30 -0.118501D-01 -0.425949D-02  0.961240D-03  0.186938D-02  0.159638D-02
     31 -0.503236D-02 -0.281633D-03  0.111457D-02 -0.208123D-02  0.269742D-03
     32 -0.217420D-02  0.208029D-02  0.585365D-02 -0.715877D-02  0.917135D-02
     33 -0.144563D-03 -0.188794D-02  0.824496D-02 -0.759487D-02  0.100315D-01
     34  0.211899D-02 -0.341685D-02 -0.120070D-02  0.602318D-02 -0.108479D-01
     35  0.414862D-02 -0.738509D-02  0.119062D-02  0.558708D-02 -0.998769D-02
     36  0.363832D-02  0.855407D-02 -0.801787D-02  0.482515D-03 -0.369310D-03
     37  0.566796D-02  0.458584D-02 -0.562656D-02  0.464164D-04  0.490855D-03
               16            17            18            19            20 
     16  0.567567D-01
     17  0.704152D-02  0.542780D-01
     18  0.225997D-03 -0.674305D-04  0.141320D+00
     19 -0.131349D-03 -0.372323D-03 -0.302320D-01  0.138841D+00
     20 -0.911257D-03 -0.368936D-03 -0.310587D-01 -0.323652D-01  0.140982D+00
     21  0.451101D-03  0.520627D-03 -0.383640D-01 -0.359846D-01 -0.183481D-02
     22  0.678421D-04  0.564858D-03 -0.390322D-01 -0.156786D-02 -0.373915D-01
     23  0.318197D-03 -0.235898D-03 -0.144065D-02 -0.401101D-01 -0.397626D-01
     24  0.602499D-02 -0.665557D-02 -0.664809D-02  0.173901D-02  0.652398D-02
     25 -0.344893D-04  0.427259D-02  0.510843D-02 -0.949417D-03 -0.286624D-02
     26 -0.497171D-02  0.131956D-02  0.101116D-02 -0.715401D-03 -0.312738D-02
     27 -0.204355D-03 -0.824197D-04 -0.760009D-04 -0.191638D-01  0.194733D-01
     28  0.401250D-03  0.297944D-03  0.216456D-01 -0.380538D-02 -0.192258D-01
     29  0.872304D-04 -0.518364D-03 -0.227675D-01  0.197393D-01  0.459800D-02
     30  0.757410D-03 -0.816733D-03  0.591847D-03 -0.220892D-02  0.417971D-03
     31  0.821088D-03  0.257180D-03  0.818600D-03 -0.202020D-02  0.816119D-03
     32 -0.971880D-02  0.281191D-03 -0.183051D-03  0.472163D-04 -0.670446D-03
     33 -0.782276D-02 -0.322161D-03  0.500007D-03 -0.127576D-03 -0.622169D-03
     34 -0.944585D-03  0.101881D-01 -0.767291D-03  0.300001D-03  0.323210D-03
     35  0.951449D-03  0.958473D-02 -0.842331D-04  0.125209D-03  0.371487D-03
     36  0.833816D-02 -0.953907D-02 -0.743643D-03  0.803867D-04  0.632495D-03
     37  0.102342D-01 -0.101424D-01 -0.605859D-04 -0.944056D-04  0.680772D-03
               21            22            23            24            25 
     21  0.702991D-01
     22  0.368312D-02  0.712911D-01
     23  0.394388D-02  0.424365D-02  0.719765D-01
     24 -0.221788D-03 -0.185969D-02  0.209536D-03  0.179441D+00
     25 -0.735729D-03  0.000000D+00 -0.435344D-03 -0.923844D-01  0.104153D+00
     26  0.102997D-02  0.166570D-02  0.253041D-03 -0.677027D-01 -0.248662D-01
     27 -0.201142D-01  0.197738D-01 -0.100232D-03  0.300469D-02 -0.149292D-02
     28  0.216285D-01 -0.294975D-04 -0.183938D-01 -0.281030D-03  0.155142D-03
     29  0.231286D-03 -0.215001D-01  0.180711D-01  0.570373D-02 -0.304243D-02
     30  0.134036D-02 -0.304654D-03  0.217417D-03 -0.410656D-02 -0.102229D-01
     31  0.890356D-03 -0.574898D-03  0.106108D-03 -0.703432D-02  0.147298D-01
     32  0.166447D-03  0.500759D-03  0.153664D-03  0.476365D-03 -0.551507D-02
     33  0.663223D-04  0.140043D-03  0.632292D-04  0.645644D-02  0.381334D-02
     34  0.180309D-04  0.133652D-03 -0.234498D-04 -0.138272D-02 -0.622154D-02
     35 -0.820939D-04 -0.227064D-03 -0.113885D-03  0.459736D-02  0.310687D-02
     36  0.275049D-04 -0.303662D-03  0.272422D-03 -0.286191D-02 -0.476123D-02
     37 -0.726198D-04 -0.664378D-03  0.181987D-03  0.311816D-02  0.456719D-02
               26            27            28            29            30 
     26  0.905206D-01
     27 -0.105794D-02  0.255484D-01
     28  0.391513D-03 -0.930154D-02  0.275849D-01
     29 -0.194311D-02 -0.939988D-02 -0.118385D-01  0.282265D-01
     30  0.165856D-01  0.929460D-03  0.167565D-02  0.696697D-03  0.109325D-01
     31 -0.110606D-01  0.629623D-03  0.107431D-02  0.359828D-03  0.173925D-02
     32  0.334290D-02 -0.151403D-03 -0.345640D-04 -0.267751D-03 -0.167510D-03
     33 -0.831175D-02  0.212543D-03  0.521189D-03  0.835144D-04  0.817156D-03
     34  0.593408D-02  0.114195D-04 -0.260393D-03  0.142462D-03 -0.130464D-03
     35 -0.572057D-02  0.375366D-03  0.295360D-03  0.493727D-03  0.854202D-03
     36  0.539172D-02  0.218055D-03 -0.149626D-03  0.690966D-03 -0.945361D-03
     37 -0.626293D-02  0.582001D-03  0.406127D-03  0.104223D-02  0.393043D-04
               31            32            33            34            35 
     31  0.105546D-01
[...]
 Alpha virt. eigenvalues --    0.76747   0.78922   0.83852   0.85044   0.88297
 Alpha virt. eigenvalues --    0.88772   0.94459   0.96613   0.98120   1.04542
 Alpha virt. eigenvalues --    1.06316   1.06991   1.11268   1.13992   1.14427
 Alpha virt. eigenvalues --    1.14841   1.17285   1.18364   1.22328   1.23715
 Alpha virt. eigenvalues --    1.26176   1.27223   1.30312   1.33494   1.33785
 Alpha virt. eigenvalues --    1.34984   1.39205   1.40766   1.42747   1.44532
 Alpha virt. eigenvalues --    1.45870   1.47798   1.48372   1.52233   1.55242
 Alpha virt. eigenvalues --    1.57694   1.60223   1.65177   1.68114   1.72478
 Alpha virt. eigenvalues --    1.95208   2.04124   2.11697   2.28861   2.32138
 Alpha virt. eigenvalues --    2.39923   2.42746   2.43702   2.53536   2.55967
 Alpha virt. eigenvalues --    2.61447   2.71423   2.79791   2.81156   2.85160
 Alpha virt. eigenvalues --    2.87048   2.96104   2.97443   3.00500   3.03952
 Alpha virt. eigenvalues --    3.05985   3.09211   3.11935   3.13498   3.14280
 Alpha virt. eigenvalues --    3.16746   3.17658   3.22865   3.26977   3.28863
 Alpha virt. eigenvalues --    3.32546   3.33082   3.36892   3.39167   3.41347
 Alpha virt. eigenvalues --    3.44712   3.45831   3.49483   3.51885   3.54419
 Alpha virt. eigenvalues --    3.56510   3.59764   3.70629   3.71306   3.75147
 Alpha virt. eigenvalues --    3.84800   3.85890   3.87393   3.90256   3.92601
 Alpha virt. eigenvalues --    3.93581   3.98808   4.03383   4.04355   4.07643
 Alpha virt. eigenvalues --    4.13904   4.18923   4.20303   4.22982   4.24274
 Alpha virt. eigenvalues --    4.27852   4.32918   4.33628   4.34956   4.41620
 Alpha virt. eigenvalues --    4.46132   4.49351   4.51454   4.57773   4.61100
 Alpha virt. eigenvalues --    4.70229   4.91275   5.12416   5.19986   5.25112
 Alpha virt. eigenvalues --    5.26477   5.46846   5.49813   5.54804   5.57912
 Alpha virt. eigenvalues --    5.60443   5.64055   5.67957   5.78351   5.95134
 Alpha virt. eigenvalues --    6.31516   6.44709   6.80183   7.13477   7.19657
 Alpha virt. eigenvalues --    7.28367   7.69306   7.71128  24.30362  24.44500
 Alpha virt. eigenvalues --   24.51757  50.16776
  Beta  occ. eigenvalues --  -19.64424 -10.58318 -10.56967 -10.53320  -1.17456
  Beta  occ. eigenvalues --   -0.84318  -0.79894  -0.65305  -0.57121  -0.53710
  Beta  occ. eigenvalues --   -0.53062  -0.46855  -0.46466  -0.43956  -0.39937
  Beta  occ. eigenvalues --   -0.36782
  Beta virt. eigenvalues --   -0.00495   0.01867   0.03204   0.03719   0.04714
  Beta virt. eigenvalues --    0.06349   0.07117   0.07674   0.08460   0.10092
  Beta virt. eigenvalues --    0.11350   0.12314   0.13920   0.16859   0.18421
  Beta virt. eigenvalues --    0.21414   0.22240   0.23158   0.24089   0.25200
  Beta virt. eigenvalues --    0.26712   0.27835   0.29424   0.31808   0.33238
  Beta virt. eigenvalues --    0.33765   0.35148   0.41637   0.43823   0.44290
  Beta virt. eigenvalues --    0.47853   0.51639   0.53212   0.54090   0.55155
  Beta virt. eigenvalues --    0.55486   0.57203   0.60533   0.61088   0.62872
  Beta virt. eigenvalues --    0.63432   0.64859   0.65951   0.67681   0.69411
  Beta virt. eigenvalues --    0.75119   0.77417   0.78337   0.83406   0.85707
  Beta virt. eigenvalues --    0.88201   0.88763   0.94263   0.96519   0.97816
  Beta virt. eigenvalues --    1.04491   1.06427   1.07017   1.11357   1.13965
  Beta virt. eigenvalues --    1.14446   1.14817   1.17472   1.18146   1.22550
  Beta virt. eigenvalues --    1.23581   1.26417   1.27298   1.30947   1.33601
  Beta virt. eigenvalues --    1.34312   1.35349   1.39291   1.40707   1.42761
  Beta virt. eigenvalues --    1.44588   1.45801   1.47792   1.48813   1.52374
  Beta virt. eigenvalues --    1.55062   1.57500   1.60002   1.65545   1.68812
  Beta virt. eigenvalues --    1.72363   1.95982   2.04593   2.12308   2.29432
  Beta virt. eigenvalues --    2.32782   2.40425   2.43103   2.44392   2.53898
  Beta virt. eigenvalues --    2.56823   2.62057   2.71985   2.82180   2.84594
  Beta virt. eigenvalues --    2.89379   2.89916   2.96430   2.97860   3.02990
  Beta virt. eigenvalues --    3.05390   3.06691   3.10071   3.12871   3.14512
  Beta virt. eigenvalues --    3.15298   3.17204   3.18440   3.24458   3.28806
  Beta virt. eigenvalues --    3.30151   3.34314   3.35515   3.38779   3.39884
  Beta virt. eigenvalues --    3.43248   3.46288   3.47465   3.51316   3.54017
  Beta virt. eigenvalues --    3.56436   3.58204   3.60261   3.72218   3.73946
  Beta virt. eigenvalues --    3.76883   3.85268   3.86168   3.87704   3.91253
  Beta virt. eigenvalues --    3.93174   3.94643   4.00450   4.04311   4.05053
  Beta virt. eigenvalues --    4.09430   4.14775   4.19070   4.21411   4.23232
  Beta virt. eigenvalues --    4.26209   4.28892   4.33182   4.33738   4.35335
  Beta virt. eigenvalues --    4.41909   4.46391   4.50347   4.52065   4.59258
  Beta virt. eigenvalues --    4.63908   4.73301   4.91437   5.15281   5.21263
  Beta virt. eigenvalues --    5.25725   5.27288   5.47686   5.52163   5.55259
  Beta virt. eigenvalues --    5.58095   5.61153   5.64434   5.68491   5.78732
  Beta virt. eigenvalues --    5.96084   6.32001   6.45065   6.80984   7.14272
  Beta virt. eigenvalues --    7.20571   7.29247   7.69673   7.71077  24.30794
  Beta virt. eigenvalues --   24.44511  24.52710  50.16529
          Condensed to atoms (all electrons):
               1          2          3          4          5          6
     1  O    8.165171  -0.053085   0.125316   0.068842   0.008652   0.007011
     2  C   -0.053085   5.046031  -0.016955   0.203089   0.427399   0.415246
     3  C    0.125316  -0.016955   4.985133  -0.081365  -0.009459   0.002103
     4  C    0.068842   0.203089  -0.081365   5.693562  -0.061521  -0.040043
     5  H    0.008652   0.427399  -0.009459  -0.061521   0.569081  -0.023159
     6  H    0.007011   0.415246   0.002103  -0.040043  -0.023159   0.525395
     7  H   -0.001729   0.404421   0.006728  -0.057485  -0.055059  -0.019490
     8  H   -0.055402  -0.000102   0.433619   0.008626  -0.000111   0.000023
     9  H   -0.045062  -0.004060   0.419196   0.014736   0.001806  -0.000154
    10  H   -0.040740  -0.000577   0.428130  -0.008228  -0.003395   0.000292
    11  H   -0.052434  -0.040220   0.005891   0.443790   0.000103  -0.005721
               7          8          9         10         11
     1  O   -0.001729  -0.055402  -0.045062  -0.040740  -0.052434
     2  C    0.404421  -0.000102  -0.004060  -0.000577  -0.040220
     3  C    0.006728   0.433619   0.419196   0.428130   0.005891
     4  C   -0.057485   0.008626   0.014736  -0.008228   0.443790
     5  H   -0.055059  -0.000111   0.001806  -0.003395   0.000103
     6  H   -0.019490   0.000023  -0.000154   0.000292  -0.005721
     7  H    0.586842   0.000535  -0.004278  -0.004608   0.004679
     8  H    0.000535   0.523487  -0.020457  -0.025996  -0.000023
     9  H   -0.004278  -0.020457   0.555645  -0.053705  -0.000008
    10  H   -0.004608  -0.025996  -0.053705   0.574680  -0.000405
    11  H    0.004679  -0.000023  -0.000008  -0.000405   0.484578
          Atomic-Atomic Spin Densities.
               1          2          3          4          5          6
     1  O    0.253160   0.012521   0.017616  -0.223718   0.010262  -0.000192
     2  C    0.012521  -0.026190   0.005508  -0.067155   0.007629   0.002602
     3  C    0.017616   0.005508   0.008145  -0.023344  -0.004545   0.000379
     4  C   -0.223718  -0.067155  -0.023344   1.303632  -0.024718  -0.005257
     5  H    0.010262   0.007629  -0.004545  -0.024718   0.095467  -0.003615
     6  H   -0.000192   0.002602   0.000379  -0.005257  -0.003615   0.005322
     7  H    0.001722   0.015444   0.007902  -0.042213  -0.023374   0.002856
     8  H   -0.000553  -0.000535  -0.001206   0.001700  -0.000010   0.000001
     9  H   -0.010182  -0.001380  -0.007609   0.024797   0.001767  -0.000111
    10  H   -0.004484   0.000252   0.004536  -0.004413  -0.004544   0.000088
    11  H    0.002278   0.005649   0.000660  -0.007473  -0.002274   0.000504
               7          8          9         10         11
     1  O    0.001722  -0.000553  -0.010182  -0.004484   0.002278
     2  C    0.015444  -0.000535  -0.001380   0.000252   0.005649
     3  C    0.007902  -0.001206  -0.007609   0.004536   0.000660
     4  C   -0.042213   0.001700   0.024797  -0.004413  -0.007473
     5  H   -0.023374  -0.000010   0.001767  -0.004544  -0.002274
     6  H    0.002856   0.000001  -0.000111   0.000088   0.000504
     7  H    0.059097  -0.000009  -0.005153   0.004058   0.000790
     8  H   -0.000009  -0.000723   0.000674   0.000313   0.000007
     9  H   -0.005153   0.000674   0.009445  -0.004760  -0.000316
    10  H    0.004058   0.000313  -0.004760   0.010762   0.000264
    11  H    0.000790   0.000007  -0.000316   0.000264  -0.037393
 Mulliken charges and spin densities:
               1          2
     1  O   -0.126542   0.058431
     2  C   -0.381187  -0.045656
     3  C   -0.298337   0.008042
     4  C   -0.184002   0.931839
     5  H    0.145663   0.052047
     6  H    0.138497   0.002577
     7  H    0.139444   0.021119
     8  H    0.135801  -0.000341
     9  H    0.136342   0.007174
    10  H    0.134551   0.002072
    11  H    0.159769  -0.037303
 Sum of Mulliken charges =  -0.00000   1.00000
 Mulliken charges and spin densities with hydrogens summed into heavy atoms:
               1          2
     1  O   -0.126542   0.058431
     2  C    0.042417   0.030088
     3  C    0.108357   0.016947
     4  C   -0.024233   0.894535
 Electronic spatial extent (au):  <R**2>=            313.5888
 Charge=             -0.0000 electrons
 Dipole moment (field-independent basis, Debye):
    X=              0.1958    Y=             -1.4404    Z=              0.1129  Tot=              1.4580
 Quadrupole moment (field-independent basis, Debye-Ang):
   XX=            -23.8556   YY=            -26.4673   ZZ=            -27.3779
   XY=              1.9760   XZ=              0.4808   YZ=              0.1511
 Traceless Quadrupole moment (field-independent basis, Debye-Ang):
   XX=              2.0446   YY=             -0.5670   ZZ=             -1.4776
   XY=              1.9760   XZ=              0.4808   YZ=              0.1511
 Octapole moment (field-independent basis, Debye-Ang**2):
  XXX=             -6.0463  YYY=              2.6324  ZZZ=              2.4238  XYY=              0.5770
  XXY=              0.0230  XXZ=              0.2302  XZZ=             -2.0506  YZZ=             -1.4091
  YYZ=              0.4160  XYZ=              0.3337
 Hexadecapole moment (field-independent basis, Debye-Ang**3):
 XXXX=           -250.0284 YYYY=           -108.8198 ZZZZ=            -47.1177 XXXY=              1.1554
 XXXZ=             -3.8090 YYYX=              2.9161 YYYZ=              1.4960 ZZZX=              2.5248
 ZZZY=              1.8816 XXYY=            -65.3136 XXZZ=            -54.2908 YYZZ=            -26.9653
 XXYZ=              0.4565 YYXZ=              0.1463 ZZXY=             -1.0567
 N-N= 1.279065390741D+02 E-N=-7.076491421078D+02  KE= 1.929295612808D+02
                          Isotropic Fermi Contact Couplings
        Atom                 a.u.       MegaHertz       Gauss      10(-4) cm-1
     1  O(17)              0.02709     -16.42160      -5.85963      -5.47765
     2  C(13)             -0.01182     -13.28245      -4.73951      -4.43055
     3  C(13)              0.00287       3.22851       1.15201       1.07692
     4  C(13)              0.20846     234.34874      83.62146      78.17032
     5  H(1)               0.02456     109.77515      39.17050      36.61705
     6  H(1)               0.00042       1.86128       0.66415       0.62086
     7  H(1)               0.01201      53.69451      19.15954      17.91056
     8  H(1)              -0.00045      -2.02863      -0.72387      -0.67668
     9  H(1)               0.00238      10.62065       3.78971       3.54267
    10  H(1)               0.00196       8.77085       3.12966       2.92564
    11  H(1)              -0.00986     -44.08013     -15.72889     -14.70355
 --------------------------------------------------------
       Center         ----  Spin Dipole Couplings  ----
                      3XX-RR        3YY-RR        3ZZ-RR
 --------------------------------------------------------
     1   Atom       -0.410902     -0.349101      0.760003
     2   Atom       -0.004905      0.011087     -0.006181
     3   Atom        0.006424      0.006545     -0.012970
     4   Atom       -0.497073     -0.497150      0.994223
     5   Atom       -0.003808      0.003529      0.000278
     6   Atom        0.011843     -0.003846     -0.007997
     7   Atom       -0.008126      0.017369     -0.009243
     8   Atom        0.007649     -0.003089     -0.004559
     9   Atom        0.004312      0.001757     -0.006068
    10   Atom       -0.001219      0.005604     -0.004385
    11   Atom       -0.044436      0.049074     -0.004638
 --------------------------------------------------------
                        XY            XZ            YZ
 --------------------------------------------------------
     1   Atom        0.015709      0.068068     -0.122901
     2   Atom       -0.017475      0.010593     -0.010879
     3   Atom        0.014377     -0.003819     -0.002403
     4   Atom        0.009554      0.147840      0.050685
     5   Atom       -0.007677      0.003959     -0.009026
     6   Atom       -0.012724      0.001444     -0.000944
     7   Atom       -0.007057     -0.000995      0.001933
     8   Atom        0.006131     -0.001326     -0.000531
     9   Atom        0.010398      0.003612      0.004349
    10   Atom        0.007012     -0.003372     -0.004347
    11   Atom        0.046876      0.011074      0.011566
 --------------------------------------------------------


 ---------------------------------------------------------------------------------
              Anisotropic Spin Dipole Couplings in Principal Axis System
 ---------------------------------------------------------------------------------

       Atom             a.u.   MegaHertz   Gauss  10(-4) cm-1        Axes

              Baa    -0.4233    30.627    10.929    10.216  0.9338 -0.3464 -0.0897
     1 O(17)  Bbb    -0.3539    25.605     9.136     8.541  0.3535  0.9319  0.0812
              Bcc     0.7771   -56.232   -20.065   -18.757  0.0555 -0.1076  0.9927
 
              Baa    -0.0177    -2.372    -0.846    -0.791  0.8293  0.3345 -0.4477
     2 C(13)  Bbb    -0.0110    -1.479    -0.528    -0.493  0.2077  0.5592  0.8026
              Bcc     0.0287     3.850     1.374     1.284 -0.5188  0.7586 -0.3942
 
              Baa    -0.0137    -1.839    -0.656    -0.613  0.2082 -0.0318  0.9776
     3 C(13)  Bbb    -0.0077    -1.036    -0.370    -0.346 -0.6800  0.7137  0.1681
              Bcc     0.0214     2.875     1.026     0.959  0.7030  0.6998 -0.1270
 
              Baa    -0.5131   -68.847   -24.566   -22.965  0.9484 -0.3061 -0.0827
     4 C(13)  Bbb    -0.4974   -66.751   -23.818   -22.266  0.3017  0.9514 -0.0622
              Bcc     1.0105   135.598    48.385    45.231  0.0978  0.0341  0.9946
 
              Baa    -0.0092    -4.897    -1.747    -1.633  0.6823  0.6499  0.3347
     5 H(1)   Bbb    -0.0057    -3.055    -1.090    -1.019 -0.6029  0.2414  0.7604
              Bcc     0.0149     7.952     2.838     2.653 -0.4134  0.7206 -0.5566
 
              Baa    -0.0110    -5.844    -2.085    -1.950  0.4849  0.8736  0.0421
     6 H(1)   Bbb    -0.0081    -4.323    -1.542    -1.442 -0.0759 -0.0059  0.9971
              Bcc     0.0191    10.167     3.628     3.391  0.8713 -0.4867  0.0635
 
              Baa    -0.0102    -5.456    -1.947    -1.820  0.8467  0.1815  0.5002
     7 H(1)   Bbb    -0.0091    -4.867    -1.737    -1.624 -0.4694 -0.1880  0.8627
              Bcc     0.0193    10.324     3.684     3.444 -0.2506  0.9653  0.0740
 
              Baa    -0.0059    -3.134    -1.118    -1.045 -0.4167  0.9074 -0.0542
     8 H(1)   Bbb    -0.0047    -2.503    -0.893    -0.835  0.0630  0.0884  0.9941
              Bcc     0.0106     5.636     2.011     1.880  0.9068  0.4109 -0.0940
 
              Baa    -0.0083    -4.447    -1.587    -1.483  0.3181 -0.6322  0.7065
     9 H(1)   Bbb    -0.0067    -3.554    -1.268    -1.185 -0.6200  0.4251  0.6595
              Bcc     0.0150     8.001     2.855     2.669  0.7173  0.6478  0.2568
 
              Baa    -0.0065    -3.484    -1.243    -1.162  0.5639 -0.0302  0.8253
    10 H(1)   Bbb    -0.0053    -2.833    -1.011    -0.945  0.6488 -0.6022 -0.4653
              Bcc     0.0118     6.317     2.254     2.107  0.5110  0.7978 -0.3200
 
              Baa    -0.0645   -34.396   -12.273   -11.473  0.9233 -0.3711 -0.0992
    11 H(1)   Bbb    -0.0070    -3.734    -1.332    -1.245  0.0179 -0.2163  0.9762
              Bcc     0.0715    38.130    13.606    12.719  0.3837  0.9031  0.1931
 

 ---------------------------------------------------------------------------------

 No NMR shielding tensors so no spin-rotation constants.
 Leave Link  601 at Tue Mar 12 01:44:07 2019, MaxMem=   671088640 cpu:               8.3 elap:               0.5
 (Enter /shared/centos7/gaussian/g16/l9999.exe)
 1\1\GINC-C0304\Scan\UM062X\6-311+G(2df,2p)\C3H7O1(2)\UNDERKOFFLER.C\12
 -Mar-2019\0\\#p m062x/6-311+g(2df,2p) Opt=(CalcFC,ModRedun)\\Gaussian 
 Input Prepared from Scan Object\\0,2\O,-0.2761885834,0.1846132541,-1.1
 244991111\C,1.1111634567,-0.069220013,0.9103361644\C,-1.1898016217,-0.
 7731735144,-0.6362232686\C,0.9523058139,0.2048446068,-0.5443767789\H,0
 .5323537991,0.6293118987,1.5295788027\H,2.1592041795,0.0396947701,1.18
 12410344\H,0.8002533418,-1.0788729253,1.1849347368\H,-2.0732249023,-0.
 7111350171,-1.2650199676\H,-0.7667480358,-1.7787920451,-0.7009756465\H
 ,-1.4712260797,-0.5681254509,0.3985944548\H,1.5991426317,0.917155436,-
 1.0355584205\\Version=EM64L-G16RevA.03\State=2-A\HF=-193.6538476,-193.
 6536064,-193.6529598,-193.6521018,-193.6512607,-193.65061,-193.6502711
 ,-193.6503465,-193.6509342,-193.6518263,-193.652765,-193.6535049,-193.
 6538392,-193.6536855,-193.6531036,-193.6522628,-193.6513846,-193.65067
 14,-193.6502808,-193.6503504,-193.6509945,-193.6519192,-193.652854,-19
 3.6535587,-193.6538458,-193.6536445,-193.653021,-193.6521542,-193.6512
 792,-193.6505978,-193.6502606,-193.6503969,-193.6510806,-193.652009,-1
 93.6529275,-193.6536009,-193.6538476\S2=0.754439,0.754486,0.754529,0.7
 54561,0.754582,0.754593,0.75458,0.754502,0.754397,0.754372,0.75437,0.7
 54391,0.75443,0.754479,0.754524,0.754562,0.754587,0.754599,0.754585,0.
 754493,0.754389,0.754369,0.754372,0.754395,0.754435,0.754484,0.754528,
 0.754563,0.754585,0.754597,0.754578,0.754479,0.754391,0.754374,0.75437
 7,0.7544,0.754438\S2-1=0.,0.,0.,0.,0.,0.,0.,0.,0.,0.,0.,0.,0.,0.,0.,0.
 ,0.,0.,0.,0.,0.,0.,0.,0.,0.,0.,0.,0.,0.,0.,0.,0.,0.,0.,0.,0.,0.\S2A=0.
 750016,0.750016,0.750016,0.750016,0.750016,0.750017,0.750016,0.750016,
 0.750015,0.750015,0.750015,0.750015,0.750015,0.750016,0.750016,0.75001
 6,0.750017,0.750017,0.750016,0.750016,0.750015,0.750015,0.750015,0.750
 015,0.750015,0.750016,0.750016,0.750016,0.750017,0.750017,0.750016,0.7
 50016,0.750015,0.750015,0.750015,0.750015,0.750016\RMSD=3.939e-09,7.60
 3e-09,9.375e-09,4.368e-09,8.183e-09,7.900e-09,8.147e-09,4.784e-09,6.29
 9e-09,8.352e-09,8.852e-09,6.959e-09,8.557e-09,7.549e-09,6.776e-09,8.05
 1e-09,5.736e-09,7.739e-09,6.729e-09,8.250e-09,3.673e-09,9.975e-09,6.96
 8e-09,7.251e-09,9.237e-09,6.612e-09,6.122e-09,5.889e-09,3.716e-09,5.78
 8e-09,7.878e-09,9.536e-09,7.134e-09,5.279e-09,9.578e-09,9.327e-09,7.51
 2e-09\PG=C01 [X(C3H7O1)]\\@


 EDUCATION WITHOUT COMMON SENSE IS A LOAD OF BOOKS ON THE BACK OF AN ASS.
 Job cpu time:       0 days 17 hours 38 minutes  3.1 seconds.
 Elapsed time:       0 days  1 hours 10 minutes 20.3 seconds.
 File lengths (MBytes):  RWF=   1328 Int=      0 D2E=      0 Chk=     32 Scr=     32
 Normal termination of Gaussian 16 at Tue Mar 12 01:44:07 2019.
