 Entering Gaussian System, Link 0=g16
 Input=LRHPLDYGYMQRHN-UHFFFAOYSA-N_36by10.0_tor12_a2_F.com
 Output=LRHPLDYGYMQRHN-UHFFFAOYSA-N_36by10.0_tor12_a2_F.log
 Initial command:
 /shared/centos7/gaussian/g16/l1.exe "/scratch/underkoffler.c/gaussian_scratch/Gau-10457.inp" -scrdir="/scratch/underkoffler.c/gaussian_scratch/"
 Entering Link 1 = /shared/centos7/gaussian/g16/l1.exe PID=     10458.
  
 Copyright (c) 1988,1990,1992,1993,1995,1998,2003,2009,2016,
            Gaussian, Inc.  All Rights Reserved.
  
 This is part of the Gaussian(R) 16 program.  It is based on
 the Gaussian(R) 09 system (copyright 2009, Gaussian, Inc.),
 the Gaussian(R) 03 system (copyright 2003, Gaussian, Inc.),
 the Gaussian(R) 98 system (copyright 1998, Gaussian, Inc.),
 the Gaussian(R) 94 system (copyright 1995, Gaussian, Inc.),
 the Gaussian 92(TM) system (copyright 1992, Gaussian, Inc.),
 the Gaussian 90(TM) system (copyright 1990, Gaussian, Inc.),
 the Gaussian 88(TM) system (copyright 1988, Gaussian, Inc.),
 the Gaussian 86(TM) system (copyright 1986, Carnegie Mellon
 University), and the Gaussian 82(TM) system (copyright 1983,
 Carnegie Mellon University). Gaussian is a federally registered
 trademark of Gaussian, Inc.
  
 This software contains proprietary and confidential information,
 including trade secrets, belonging to Gaussian, Inc.
  
 This software is provided under written license and may be
 used, copied, transmitted, or stored only in accord with that
 written license.
  
 The following legend is applicable only to US Government
 contracts under FAR:
  
                    RESTRICTED RIGHTS LEGEND
  
 Use, reproduction and disclosure by the US Government is
 subject to restrictions as set forth in subparagraphs (a)
 and (c) of the Commercial Computer Software - Restricted
 Rights clause in FAR 52.227-19.
  
 Gaussian, Inc.
 340 Quinnipiac St., Bldg. 40, Wallingford CT 06492
  
  
 ---------------------------------------------------------------
 Warning -- This program may not be used in any manner that
 competes with the business of Gaussian, Inc. or will provide
 assistance to any competitor of Gaussian, Inc.  The licensee
 of this program is prohibited from giving any competitor of
 Gaussian, Inc. access to this program.  By using this program,
 the user acknowledges that Gaussian, Inc. is engaged in the
 business of creating and licensing software in the field of
 computational chemistry and represents and warrants to the
 licensee that it is not a competitor of Gaussian, Inc. and that
 it will not use this program in any manner prohibited above.
 ---------------------------------------------------------------
  

 Cite this work as:
 Gaussian 16, Revision A.03,
 M. J. Frisch, G. W. Trucks, H. B. Schlegel, G. E. Scuseria, 
 M. A. Robb, J. R. Cheeseman, G. Scalmani, V. Barone, 
 G. A. Petersson, H. Nakatsuji, X. Li, M. Caricato, A. V. Marenich, 
 J. Bloino, B. G. Janesko, R. Gomperts, B. Mennucci, H. P. Hratchian, 
 J. V. Ortiz, A. F. Izmaylov, J. L. Sonnenberg, D. Williams-Young, 
 F. Ding, F. Lipparini, F. Egidi, J. Goings, B. Peng, A. Petrone, 
 T. Henderson, D. Ranasinghe, V. G. Zakrzewski, J. Gao, N. Rega, 
 G. Zheng, W. Liang, M. Hada, M. Ehara, K. Toyota, R. Fukuda, 
 J. Hasegawa, M. Ishida, T. Nakajima, Y. Honda, O. Kitao, H. Nakai, 
 T. Vreven, K. Throssell, J. A. Montgomery, Jr., J. E. Peralta, 
 F. Ogliaro, M. J. Bearpark, J. J. Heyd, E. N. Brothers, K. N. Kudin, 
 V. N. Staroverov, T. A. Keith, R. Kobayashi, J. Normand, 
 K. Raghavachari, A. P. Rendell, J. C. Burant, S. S. Iyengar, 
 J. Tomasi, M. Cossi, J. M. Millam, M. Klene, C. Adamo, R. Cammi, 
 J. W. Ochterski, R. L. Martin, K. Morokuma, O. Farkas, 
 J. B. Foresman, and D. J. Fox, Gaussian, Inc., Wallingford CT, 2016.
 
 ******************************************
 Gaussian 16:  EM64L-G16RevA.03 25-Dec-2016
                23-Apr-2019 
 ******************************************
 %nprocshared=20
 Will use up to   20 processors via shared memory.
 %mem=5GB
 ----------------------------------------------
 #p m062x/6-311+g(2df,2p) Opt=(CalcFC,ModRedun)
 ----------------------------------------------
 1/10=4,18=120,19=15,26=3,38=1/1,3;
 2/9=110,12=2,17=6,18=5,40=1/2;
 3/5=4,6=6,7=214,11=2,25=1,30=1,71=2,74=-55,140=1/1,2,3;
 4//1;
 5/5=2,38=5/2;
 8/6=4,10=90,11=11/1;
 11/6=1,8=1,9=11,15=111,16=1/1,2,10;
 10/6=1,13=1/2;
 6/7=2,8=2,9=2,10=2,28=1/1;
 7/10=1,18=20,25=1/1,2,3,16;
 1/10=4,18=20,19=15,26=3/3(2);
 2/9=110/2;
 99//99;
 2/9=110/2;
 3/5=4,6=6,7=214,11=2,25=1,30=1,71=1,74=-55/1,2,3;
 4/5=5,16=3,69=1/1;
 5/5=2,38=5/2;
 7//1,2,3,16;
 1/18=20,19=15,26=3/3(-5);
 2/9=110/2;
 6/7=2,8=2,9=2,10=2,19=2,28=1/1;
 99/9=1/99;
 Leave Link    1 at Tue Apr 23 21:46:48 2019, MaxMem=   671088640 cpu:              49.5 elap:               2.6
 (Enter /shared/centos7/gaussian/g16/l101.exe)
 ----------------------------------------
 Gaussian Input Prepared from Scan Object
 ----------------------------------------
 Symbolic Z-matrix:
 Charge =  0 Multiplicity = 1
 O                     1.89471  -0.72534  -0.26845 
 C                    -0.00012   0.70613  -0.22812 
 C                    -0.94499  -0.34222   0.34844 
 C                     1.43443   0.52307   0.2228 
 C                    -2.37941  -0.14882  -0.12828 
 H                    -0.90793  -0.29387   1.44035 
 H                    -0.58665  -1.33316   0.0682 
 H                    -0.33226   1.70597   0.06448 
 H                    -0.02824   0.66658  -1.3203 
 H                     1.48303   0.54525   1.31774 
 H                     2.05554   1.33833  -0.16099 
 H                    -2.43843  -0.22048  -1.21519 
 H                    -3.04657  -0.90033   0.29223 
 H                    -2.75799   0.83354   0.15879 
 H                     2.79567  -0.87018   0.02327 
 
 The following ModRedundant input section has been read:
 B       2       9 B                                                           
 B       5      12 B                                                           
 B       4      10 B                                                           
 B       5      13 B                                                           
 B       3       5 B                                                           
 B       4      11 B                                                           
 B       5      14 B                                                           
 B       1      15 B                                                           
 B       3       6 B                                                           
 B       2       3 B                                                           
 B       3       7 B                                                           
 B       2       4 B                                                           
 B       2       8 B                                                           
 B       1       4 B                                                           
 D       9       2       3       6 S  36 10.000                                
 D      15       1       4      11 F                                           
 D       3       2       4      11 F                                           
 D       6       3       5      14 F                                           
 
 ITRead=  0  0  0  0  0  0  0  0  0  0  0  0  0  0  0
 MicOpt= -1 -1 -1 -1 -1 -1 -1 -1 -1 -1 -1 -1 -1 -1 -1
 NAtoms=     15 NQM=       15 NQMF=       0 NMMI=      0 NMMIF=      0
                NMic=       0 NMicF=      0.
                    Isotopes and Nuclear Properties:
 (Nuclear quadrupole moments (NQMom) in fm**2, nuclear magnetic moments (NMagM)
  in nuclear magnetons)

  Atom         1           2           3           4           5           6           7           8           9          10
 IAtWgt=          16          12          12          12          12           1           1           1           1           1
 AtmWgt=  15.9949146  12.0000000  12.0000000  12.0000000  12.0000000   1.0078250   1.0078250   1.0078250   1.0078250   1.0078250
 NucSpn=           0           0           0           0           0           1           1           1           1           1
 AtZEff=  -0.0000000  -0.0000000  -0.0000000  -0.0000000  -0.0000000  -0.0000000  -0.0000000  -0.0000000  -0.0000000  -0.0000000
 NQMom=    0.0000000   0.0000000   0.0000000   0.0000000   0.0000000   0.0000000   0.0000000   0.0000000   0.0000000   0.0000000
 NMagM=    0.0000000   0.0000000   0.0000000   0.0000000   0.0000000   2.7928460   2.7928460   2.7928460   2.7928460   2.7928460
 AtZNuc=   8.0000000   6.0000000   6.0000000   6.0000000   6.0000000   1.0000000   1.0000000   1.0000000   1.0000000   1.0000000

  Atom        11          12          13          14          15
 IAtWgt=           1           1           1           1           1
 AtmWgt=   1.0078250   1.0078250   1.0078250   1.0078250   1.0078250
 NucSpn=           1           1           1           1           1
 AtZEff=  -0.0000000  -0.0000000  -0.0000000  -0.0000000  -0.0000000
 NQMom=    0.0000000   0.0000000   0.0000000   0.0000000   0.0000000
 NMagM=    2.7928460   2.7928460   2.7928460   2.7928460   2.7928460
 AtZNuc=   1.0000000   1.0000000   1.0000000   1.0000000   1.0000000
 Leave Link  101 at Tue Apr 23 21:46:49 2019, MaxMem=   671088640 cpu:               6.0 elap:               0.3
 (Enter /shared/centos7/gaussian/g16/l103.exe)

 GradGradGradGradGradGradGradGradGradGradGradGradGradGradGradGradGradGrad
 Berny optimization.
 Initialization pass.
                           ----------------------------
                           !    Initial Parameters    !
                           ! (Angstroms and Degrees)  !
 --------------------------                            --------------------------
 ! Name  Definition              Value          Derivative Info.                !
 --------------------------------------------------------------------------------
 ! R1    R(1,4)                  1.4183         calculate D2E/DX2 analytically  !
 ! R2    R(1,15)                 0.958          calculate D2E/DX2 analytically  !
 ! R3    R(2,3)                  1.5245         calculate D2E/DX2 analytically  !
 ! R4    R(2,4)                  1.5149         calculate D2E/DX2 analytically  !
 ! R5    R(2,8)                  1.0934         calculate D2E/DX2 analytically  !
 ! R6    R(2,9)                  1.0933         calculate D2E/DX2 analytically  !
 ! R7    R(3,5)                  1.5239         calculate D2E/DX2 analytically  !
 ! R8    R(3,6)                  1.0936         calculate D2E/DX2 analytically  !
 ! R9    R(3,7)                  1.0904         calculate D2E/DX2 analytically  !
 ! R10   R(4,10)                 1.0962         calculate D2E/DX2 analytically  !
 ! R11   R(4,11)                 1.0944         calculate D2E/DX2 analytically  !
 ! R12   R(5,12)                 1.0909         calculate D2E/DX2 analytically  !
 ! R13   R(5,13)                 1.0894         calculate D2E/DX2 analytically  !
 ! R14   R(5,14)                 1.0912         calculate D2E/DX2 analytically  !
 ! A1    A(4,1,15)             109.4386         calculate D2E/DX2 analytically  !
 ! A2    A(3,2,4)              113.032          calculate D2E/DX2 analytically  !
 ! A3    A(3,2,8)              109.8357         calculate D2E/DX2 analytically  !
 ! A4    A(3,2,9)              109.6941         calculate D2E/DX2 analytically  !
 ! A5    A(4,2,8)              108.5721         calculate D2E/DX2 analytically  !
 ! A6    A(4,2,9)              108.5032         calculate D2E/DX2 analytically  !
 ! A7    A(8,2,9)              107.0136         calculate D2E/DX2 analytically  !
 ! A8    A(2,3,5)              112.1981         calculate D2E/DX2 analytically  !
 ! A9    A(2,3,6)              109.038          calculate D2E/DX2 analytically  !
 ! A10   A(2,3,7)              108.9089         calculate D2E/DX2 analytically  !
 ! A11   A(5,3,6)              109.7935         calculate D2E/DX2 analytically  !
 ! A12   A(5,3,7)              110.1379         calculate D2E/DX2 analytically  !
 ! A13   A(6,3,7)              106.5979         calculate D2E/DX2 analytically  !
 ! A14   A(1,4,2)              108.0944         calculate D2E/DX2 analytically  !
 ! A15   A(1,4,10)             110.4487         calculate D2E/DX2 analytically  !
 ! A16   A(1,4,11)             110.4904         calculate D2E/DX2 analytically  !
 ! A17   A(2,4,10)             109.6852         calculate D2E/DX2 analytically  !
 ! A18   A(2,4,11)             110.0622         calculate D2E/DX2 analytically  !
 ! A19   A(10,4,11)            108.0607         calculate D2E/DX2 analytically  !
 ! A20   A(3,5,12)             110.7497         calculate D2E/DX2 analytically  !
 ! A21   A(3,5,13)             111.6028         calculate D2E/DX2 analytically  !
 ! A22   A(3,5,14)             111.0093         calculate D2E/DX2 analytically  !
 ! A23   A(12,5,13)            107.8282         calculate D2E/DX2 analytically  !
 ! A24   A(12,5,14)            107.6069         calculate D2E/DX2 analytically  !
 ! A25   A(13,5,14)            107.8796         calculate D2E/DX2 analytically  !
 ! D1    D(15,1,4,2)          -178.7026         calculate D2E/DX2 analytically  !
 ! D2    D(15,1,4,10)          -58.6998         calculate D2E/DX2 analytically  !
 ! D3    D(15,1,4,11)           60.8091         frozen, calculate D2E/DX2 analyt!
 ! D4    D(4,2,3,5)           -179.4202         calculate D2E/DX2 analytically  !
 ! D5    D(4,2,3,6)             58.7291         calculate D2E/DX2 analytically  !
 ! D6    D(4,2,3,7)            -57.2233         calculate D2E/DX2 analytically  !
 ! D7    D(8,2,3,5)             59.1622         calculate D2E/DX2 analytically  !
 ! D8    D(8,2,3,6)            -62.6886         calculate D2E/DX2 analytically  !
 ! D9    D(8,2,3,7)           -178.6409         calculate D2E/DX2 analytically  !
 ! D10   D(9,2,3,5)            -58.1924         calculate D2E/DX2 analytically  !
 ! D11   D(9,2,3,6)            179.9569         Scan                            !
 ! D12   D(9,2,3,7)             64.0045         calculate D2E/DX2 analytically  !
 ! D13   D(3,2,4,1)             63.1821         calculate D2E/DX2 analytically  !
 ! D14   D(3,2,4,10)           -57.299          calculate D2E/DX2 analytically  !
 ! D15   D(3,2,4,11)          -176.0623         frozen, calculate D2E/DX2 analyt!
 ! D16   D(8,2,4,1)           -174.6897         calculate D2E/DX2 analytically  !
 ! D17   D(8,2,4,10)            64.8292         calculate D2E/DX2 analytically  !
 ! D18   D(8,2,4,11)           -53.934          calculate D2E/DX2 analytically  !
 ! D19   D(9,2,4,1)            -58.717          calculate D2E/DX2 analytically  !
 ! D20   D(9,2,4,10)          -179.1981         calculate D2E/DX2 analytically  !
 ! D21   D(9,2,4,11)            62.0387         calculate D2E/DX2 analytically  !
 ! D22   D(2,3,5,12)            60.0729         calculate D2E/DX2 analytically  !
 ! D23   D(2,3,5,13)          -179.7843         calculate D2E/DX2 analytically  !
 ! D24   D(2,3,5,14)           -59.3994         calculate D2E/DX2 analytically  !
 ! D25   D(6,3,5,12)          -178.5087         calculate D2E/DX2 analytically  !
 ! D26   D(6,3,5,13)           -58.3658         calculate D2E/DX2 analytically  !
 ! D27   D(6,3,5,14)            62.0191         frozen, calculate D2E/DX2 analyt!
 ! D28   D(7,3,5,12)           -61.4224         calculate D2E/DX2 analytically  !
 ! D29   D(7,3,5,13)            58.7204         calculate D2E/DX2 analytically  !
 ! D30   D(7,3,5,14)           179.1053         calculate D2E/DX2 analytically  !
 --------------------------------------------------------------------------------
 Trust Radius=3.00D-01 FncErr=1.00D-07 GrdErr=1.00D-06 EigMax=2.50D+02 EigMin=1.00D-04
 Number of optimizations in scan=  37
 Number of steps in this run=     79 maximum allowed number of steps=    100.
 GradGradGradGradGradGradGradGradGradGradGradGradGradGradGradGradGradGrad

 Leave Link  103 at Tue Apr 23 21:46:49 2019, MaxMem=   671088640 cpu:               0.2 elap:               0.0
 (Enter /shared/centos7/gaussian/g16/l202.exe)
                          Input orientation:                          
 ---------------------------------------------------------------------
 Center     Atomic      Atomic             Coordinates (Angstroms)
 Number     Number       Type             X           Y           Z
 ---------------------------------------------------------------------
      1          8           0        1.894708   -0.725344   -0.268446
      2          6           0       -0.000122    0.706128   -0.228122
      3          6           0       -0.944989   -0.342219    0.348436
      4          6           0        1.434430    0.523065    0.222801
      5          6           0       -2.379412   -0.148821   -0.128279
      6          1           0       -0.907928   -0.293873    1.440354
      7          1           0       -0.586654   -1.333157    0.068198
      8          1           0       -0.332261    1.705975    0.064481
      9          1           0       -0.028238    0.666581   -1.320296
     10          1           0        1.483032    0.545254    1.317739
     11          1           0        2.055542    1.338330   -0.160986
     12          1           0       -2.438435   -0.220482   -1.215192
     13          1           0       -3.046571   -0.900332    0.292234
     14          1           0       -2.757995    0.833541    0.158792
     15          1           0        2.795671   -0.870182    0.023267
 ---------------------------------------------------------------------
                    Distance matrix (angstroms):
                    1          2          3          4          5
     1  O    0.000000
     2  C    2.375103   0.000000
     3  C    2.931076   1.524541   0.000000
     4  C    1.418346   1.514854   2.534982   0.000000
     5  C    4.315104   2.530203   1.523886   3.888454   0.000000
     6  H    3.310730   2.146608   1.093615   2.763415   2.155670
     7  H    2.576805   2.142547   1.090365   2.748499   2.157599
     8  H    3.313841   1.093447   2.156655   2.132027   2.769160
     9  H    2.596452   1.093251   2.154710   2.130995   2.759312
    10  H    2.073615   2.148327   2.760877   1.096241   4.182246
    11  H    2.072719   2.151729   3.476627   1.094408   4.677766
    12  H    4.464005   2.788957   2.165672   4.197591   1.090871
    13  H    4.976065   3.483150   2.175154   4.702154   1.089358
    14  H    4.925474   2.787795   2.169186   4.204392   1.091224
    15  H    0.958023   3.219379   3.791703   1.958042   5.227314
                    6          7          8          9         10
     6  H    0.000000
     7  H    1.751040   0.000000
     8  H    2.494756   3.049762   0.000000
     9  H    3.052460   2.497738   1.757946   0.000000
    10  H    2.536899   3.061598   2.492633   3.042677   0.000000
    11  H    3.743063   3.764381   2.426438   2.477374   1.772954
    12  H    3.065903   2.512813   3.128060   2.570404   4.730750
    13  H    2.501953   2.507732   3.769905   3.763748   4.864019
    14  H    2.517183   3.068795   2.579577   3.109204   4.405970
    15  H    4.007107   3.414160   4.052437   3.484431   2.324250
                   11         12         13         14         15
    11  H    0.000000
    12  H    4.872070   0.000000
    13  H    5.590042   1.761919   0.000000
    14  H    4.850485   1.760941   1.762781   0.000000
    15  H    2.336507   5.417726   5.848508   5.810700   0.000000
 Stoichiometry    C4H10O
 Framework group  C1[X(C4H10O)]
 Deg. of freedom    39
 Full point group                 C1      NOp   1
 Largest Abelian subgroup         C1      NOp   1
 Largest concise Abelian subgroup C1      NOp   1
                         Standard orientation:                         
 ---------------------------------------------------------------------
 Center     Atomic      Atomic             Coordinates (Angstroms)
 Number     Number       Type             X           Y           Z
 ---------------------------------------------------------------------
      1          8           0        1.893113   -0.731068   -0.256784
      2          6           0        0.000245    0.703219   -0.225419
      3          6           0       -0.947728   -0.342276    0.351218
      4          6           0        1.433275    0.519266    0.229957
      5          6           0       -2.380543   -0.148055   -0.129976
      6          1           0       -0.913626   -0.291159    1.443106
      7          1           0       -0.590047   -1.334449    0.074536
      8          1           0       -0.331264    1.704295    0.063677
      9          1           0       -0.024899    0.660888   -1.317561
     10          1           0        1.478871    0.544217    1.324966
     11          1           0        2.056623    1.332643   -0.154207
     12          1           0       -2.436655   -0.222441   -1.216861
     13          1           0       -3.049949   -0.897517    0.290621
     14          1           0       -2.758504    0.835588    0.153505
     15          1           0        2.793054   -0.876444    0.037804
 ---------------------------------------------------------------------
 Rotational constants (GHZ):          12.5691688           2.4011663           2.2136012
 Leave Link  202 at Tue Apr 23 21:46:49 2019, MaxMem=   671088640 cpu:               0.2 elap:               0.0
 (Enter /shared/centos7/gaussian/g16/l301.exe)
 Standard basis: 6-311+G(2df,2p) (5D, 7F)
 Ernie: Thresh=  0.10000D-02 Tol=  0.10000D-05 Strict=F.
 There are   285 symmetry adapted cartesian basis functions of A   symmetry.
 There are   260 symmetry adapted basis functions of A   symmetry.
   260 basis functions,   370 primitive gaussians,   285 cartesian basis functions
    21 alpha electrons       21 beta electrons
       nuclear repulsion energy       188.7530017249 Hartrees.
 IExCor= 4336 DFT=T Ex+Corr=M062X ExCW=0 ScaHFX=  0.540000
 ScaDFX=  1.000000  1.000000  1.000000  1.000000 ScalE2=  1.000000  1.000000
 IRadAn=      5 IRanWt=     -1 IRanGd=            0 ICorTp=0 IEmpDi=  4
 NAtoms=   15 NActive=   15 NUniq=   15 SFac= 1.00D+00 NAtFMM=   60 NAOKFM=F Big=F
 Integral buffers will be    131072 words long.
 Raffenetti 2 integral format.
 Two-electron integral symmetry is turned on.
 Leave Link  301 at Tue Apr 23 21:46:49 2019, MaxMem=   671088640 cpu:               1.0 elap:               0.1
 (Enter /shared/centos7/gaussian/g16/l302.exe)
 NPDir=0 NMtPBC=     1 NCelOv=     1 NCel=       1 NClECP=     1 NCelD=      1
         NCelK=      1 NCelE2=     1 NClLst=     1 CellRange=     0.0.
 One-electron integrals computed using PRISM.
 One-electron integral symmetry used in STVInt
 NBasis=   260 RedAO= T EigKep=  1.73D-05  NBF=   260
 NBsUse=   260 1.00D-06 EigRej= -1.00D+00 NBFU=   260
 Precomputing XC quadrature grid using
 IXCGrd= 4 IRadAn=           5 IRanWt=          -1 IRanGd=           0 AccXCQ= 0.00D+00.
 Generated NRdTot=       0 NPtTot=           0 NUsed=           0 NTot=          32
 NSgBfM=   285   285   285   285   285 MxSgAt=    15 MxSgA2=    15.
 Leave Link  302 at Tue Apr 23 21:46:49 2019, MaxMem=   671088640 cpu:               6.4 elap:               0.4
 (Enter /shared/centos7/gaussian/g16/l303.exe)
 DipDrv:  MaxL=1.
 Leave Link  303 at Tue Apr 23 21:46:50 2019, MaxMem=   671088640 cpu:               0.5 elap:               0.0
 (Enter /shared/centos7/gaussian/g16/l401.exe)
 ExpMin= 4.38D-02 ExpMax= 8.59D+03 ExpMxC= 1.30D+03 IAcc=3 IRadAn=         5 AccDes= 0.00D+00
 Harris functional with IExCor= 1009 and IRadAn=       5 diagonalized for initial guess.
 HarFok:  IExCor= 1009 AccDes= 0.00D+00 IRadAn=         5 IDoV= 1 UseB2=F ITyADJ=14
 ICtDFT=  3500011 ScaDFX=  1.000000  1.000000  1.000000  1.000000
 FoFCou: FMM=F IPFlag=           0 FMFlag=      100000 FMFlg1=           0
         NFxFlg=           0 DoJE=T BraDBF=F KetDBF=T FulRan=T
         wScrn=  0.000000 ICntrl=       500 IOpCl=  0 I1Cent=   200000004 NGrid=           0
         NMat0=    1 NMatS0=      1 NMatT0=    0 NMatD0=    1 NMtDS0=    0 NMtDT0=    0
 Petite list used in FoFCou.
 Harris En= -233.603620310998    
 JPrj=0 DoOrth=F DoCkMO=F.
 Leave Link  401 at Tue Apr 23 21:46:50 2019, MaxMem=   671088640 cpu:              17.2 elap:               0.9
 (Enter /shared/centos7/gaussian/g16/l502.exe)
 Integral symmetry usage will be decided dynamically.
 Closed shell SCF:
 Using DIIS extrapolation, IDIIS=  1040.
 NGot=   671088640 LenX=   670917793 LenY=   670836127
 Requested convergence on RMS density matrix=1.00D-08 within 128 cycles.
 Requested convergence on MAX density matrix=1.00D-06.
 Requested convergence on             energy=1.00D-06.
 No special actions if energy rises.
 Fock matrices will be formed incrementally for  20 cycles.

 Cycle   1  Pass 1  IDiag  1:
 FoFJK:  IHMeth= 1 ICntrl=       0 DoSepK=F KAlg= 0 I1Cent=           0 FoldK=F
 IRaf= 970000000 NMat=       1 IRICut=       1 DoRegI=T DoRafI=F ISym2E= 0 IDoP0=0 IntGTp=1.
 FoFCou: FMM=F IPFlag=           0 FMFlag=      100000 FMFlg1=           0
         NFxFlg=           0 DoJE=F BraDBF=F KetDBF=F FulRan=T
         wScrn=  0.000000 ICntrl=         0 IOpCl=  0 I1Cent=           0 NGrid=           0
         NMat0=    1 NMatS0=      1 NMatT0=    0 NMatD0=    1 NMtDS0=    0 NMtDT0=    0
 Symmetry not used in FoFCou.
 E= -233.408371492206    
 DIIS: error= 2.23D-02 at cycle   1 NSaved=   1.
 NSaved= 1 IEnMin= 1 EnMin= -233.408371492206     IErMin= 1 ErrMin= 2.23D-02
 ErrMax= 2.23D-02  0.00D+00 EMaxC= 1.00D-01 BMatC= 2.66D-01 BMatP= 2.66D-01
 IDIUse=3 WtCom= 7.77D-01 WtEn= 2.23D-01
 Coeff-Com:  0.100D+01
 Coeff-En:   0.100D+01
 Coeff:      0.100D+01
 Gap=     0.305 Goal=   None    Shift=    0.000
 GapD=    0.305 DampG=1.000 DampE=0.500 DampFc=0.5000 IDamp=-1.
 Damping current iteration by 5.00D-01
 RMSDP=3.79D-03 MaxDP=1.09D-01              OVMax= 1.59D-01

 Cycle   2  Pass 1  IDiag  1:
 RMSU=  1.82D-03    CP:  9.44D-01
 E= -233.518856738967     Delta-E=       -0.110485246761 Rises=F Damp=T
 DIIS: error= 4.88D-03 at cycle   2 NSaved=   2.
 NSaved= 2 IEnMin= 2 EnMin= -233.518856738967     IErMin= 2 ErrMin= 4.88D-03
 ErrMax= 4.88D-03  0.00D+00 EMaxC= 1.00D-01 BMatC= 1.49D-02 BMatP= 2.66D-01
 IDIUse=3 WtCom= 9.51D-01 WtEn= 4.88D-02
 Coeff-Com: -0.493D-01 0.105D+01
 Coeff-En:   0.000D+00 0.100D+01
 Coeff:     -0.469D-01 0.105D+01
 Gap=     0.394 Goal=   None    Shift=    0.000
 RMSDP=1.40D-03 MaxDP=3.76D-02 DE=-1.10D-01 OVMax= 8.38D-02

 Cycle   3  Pass 1  IDiag  1:
 RMSU=  1.27D-03    CP:  9.49D-01  6.75D-01
 E= -233.630471375104     Delta-E=       -0.111614636136 Rises=F Damp=F
 DIIS: error= 2.57D-03 at cycle   3 NSaved=   3.
 NSaved= 3 IEnMin= 3 EnMin= -233.630471375104     IErMin= 3 ErrMin= 2.57D-03
 ErrMax= 2.57D-03  0.00D+00 EMaxC= 1.00D-01 BMatC= 3.86D-03 BMatP= 1.49D-02
 IDIUse=3 WtCom= 9.74D-01 WtEn= 2.57D-02
 Coeff-Com: -0.666D-01 0.319D+00 0.748D+00
 Coeff-En:   0.000D+00 0.000D+00 0.100D+01
 Coeff:     -0.649D-01 0.311D+00 0.754D+00
 Gap=     0.359 Goal=   None    Shift=    0.000
 RMSDP=2.39D-04 MaxDP=1.04D-02 DE=-1.12D-01 OVMax= 1.41D-02

 Cycle   4  Pass 1  IDiag  1:
 RMSU=  2.07D-04    CP:  9.50D-01  7.39D-01  9.84D-01
 E= -233.632644236390     Delta-E=       -0.002172861286 Rises=F Damp=F
 DIIS: error= 1.05D-03 at cycle   4 NSaved=   4.
 NSaved= 4 IEnMin= 4 EnMin= -233.632644236390     IErMin= 4 ErrMin= 1.05D-03
 ErrMax= 1.05D-03  0.00D+00 EMaxC= 1.00D-01 BMatC= 7.83D-04 BMatP= 3.86D-03
 IDIUse=3 WtCom= 9.89D-01 WtEn= 1.05D-02
 Coeff-Com: -0.268D-01 0.751D-01 0.359D+00 0.593D+00
 Coeff-En:   0.000D+00 0.000D+00 0.886D-01 0.911D+00
 Coeff:     -0.265D-01 0.743D-01 0.356D+00 0.596D+00
 Gap=     0.360 Goal=   None    Shift=    0.000
 RMSDP=1.23D-04 MaxDP=7.23D-03 DE=-2.17D-03 OVMax= 4.67D-03

 Cycle   5  Pass 1  IDiag  1:
 RMSU=  6.66D-05    CP:  9.47D-01  7.21D-01  9.92D-01  5.59D-01
 E= -233.633222595902     Delta-E=       -0.000578359512 Rises=F Damp=F
 DIIS: error= 2.04D-04 at cycle   5 NSaved=   5.
 NSaved= 5 IEnMin= 5 EnMin= -233.633222595902     IErMin= 5 ErrMin= 2.04D-04
 ErrMax= 2.04D-04  0.00D+00 EMaxC= 1.00D-01 BMatC= 1.70D-05 BMatP= 7.83D-04
 IDIUse=3 WtCom= 9.98D-01 WtEn= 2.04D-03
 Coeff-Com: -0.391D-02 0.557D-02 0.618D-01 0.181D+00 0.756D+00
 Coeff-En:   0.000D+00 0.000D+00 0.000D+00 0.000D+00 0.100D+01
 Coeff:     -0.390D-02 0.556D-02 0.617D-01 0.181D+00 0.756D+00
 Gap=     0.360 Goal=   None    Shift=    0.000
 RMSDP=3.95D-05 MaxDP=3.17D-03 DE=-5.78D-04 OVMax= 8.16D-04

 Cycle   6  Pass 1  IDiag  1:
 RMSU=  2.34D-05    CP:  9.48D-01  7.12D-01  1.00D+00  6.44D-01  8.27D-01
 E= -233.633235637483     Delta-E=       -0.000013041581 Rises=F Damp=F
 DIIS: error= 4.86D-05 at cycle   6 NSaved=   6.
 NSaved= 6 IEnMin= 6 EnMin= -233.633235637483     IErMin= 6 ErrMin= 4.86D-05
 ErrMax= 4.86D-05  0.00D+00 EMaxC= 1.00D-01 BMatC= 9.46D-07 BMatP= 1.70D-05
 IDIUse=1 WtCom= 1.00D+00 WtEn= 0.00D+00
 Coeff-Com:  0.177D-03-0.184D-02 0.171D-02 0.298D-01 0.232D+00 0.739D+00
 Coeff:      0.177D-03-0.184D-02 0.171D-02 0.298D-01 0.232D+00 0.739D+00
 Gap=     0.360 Goal=   None    Shift=    0.000
 RMSDP=7.16D-06 MaxDP=3.73D-04 DE=-1.30D-05 OVMax= 2.25D-04

 Cycle   7  Pass 1  IDiag  1:
 RMSU=  4.05D-06    CP:  9.48D-01  7.10D-01  1.00D+00  6.49D-01  8.44D-01
                    CP:  1.12D+00
 E= -233.633236474496     Delta-E=       -0.000000837013 Rises=F Damp=F
 DIIS: error= 1.53D-05 at cycle   7 NSaved=   7.
 NSaved= 7 IEnMin= 7 EnMin= -233.633236474496     IErMin= 7 ErrMin= 1.53D-05
 ErrMax= 1.53D-05  0.00D+00 EMaxC= 1.00D-01 BMatC= 1.05D-07 BMatP= 9.46D-07
 IDIUse=1 WtCom= 1.00D+00 WtEn= 0.00D+00
 Coeff-Com:  0.636D-03-0.144D-02-0.840D-02-0.149D-01-0.265D-01 0.239D+00
 Coeff-Com:  0.812D+00
 Coeff:      0.636D-03-0.144D-02-0.840D-02-0.149D-01-0.265D-01 0.239D+00
 Coeff:      0.812D+00
 Gap=     0.360 Goal=   None    Shift=    0.000
 RMSDP=4.13D-06 MaxDP=3.16D-04 DE=-8.37D-07 OVMax= 7.84D-05

 Cycle   8  Pass 1  IDiag  1:
 RMSU=  1.09D-06    CP:  9.48D-01  7.09D-01  1.01D+00  6.54D-01  8.34D-01
                    CP:  1.22D+00  1.09D+00
 E= -233.633236580433     Delta-E=       -0.000000105937 Rises=F Damp=F
 DIIS: error= 2.09D-06 at cycle   8 NSaved=   8.
 NSaved= 8 IEnMin= 8 EnMin= -233.633236580433     IErMin= 8 ErrMin= 2.09D-06
 ErrMax= 2.09D-06  0.00D+00 EMaxC= 1.00D-01 BMatC= 1.96D-09 BMatP= 1.05D-07
 IDIUse=1 WtCom= 1.00D+00 WtEn= 0.00D+00
 Coeff-Com:  0.105D-03-0.213D-03-0.168D-02-0.390D-02-0.127D-01 0.230D-01
 Coeff-Com:  0.164D+00 0.831D+00
 Coeff:      0.105D-03-0.213D-03-0.168D-02-0.390D-02-0.127D-01 0.230D-01
 Coeff:      0.164D+00 0.831D+00
 Gap=     0.360 Goal=   None    Shift=    0.000
 RMSDP=6.06D-07 MaxDP=3.26D-05 DE=-1.06D-07 OVMax= 1.12D-05

 Cycle   9  Pass 1  IDiag  1:
 RMSU=  2.86D-07    CP:  9.48D-01  7.08D-01  1.01D+00  6.54D-01  8.32D-01
                    CP:  1.23D+00  1.15D+00  1.10D+00
 E= -233.633236582485     Delta-E=       -0.000000002052 Rises=F Damp=F
 DIIS: error= 4.88D-07 at cycle   9 NSaved=   9.
 NSaved= 9 IEnMin= 9 EnMin= -233.633236582485     IErMin= 9 ErrMin= 4.88D-07
 ErrMax= 4.88D-07  0.00D+00 EMaxC= 1.00D-01 BMatC= 9.37D-11 BMatP= 1.96D-09
 IDIUse=1 WtCom= 1.00D+00 WtEn= 0.00D+00
 Coeff-Com: -0.129D-04 0.291D-04 0.656D-04-0.373D-04-0.107D-02-0.521D-02
 Coeff-Com: -0.730D-02 0.144D+00 0.869D+00
 Coeff:     -0.129D-04 0.291D-04 0.656D-04-0.373D-04-0.107D-02-0.521D-02
 Coeff:     -0.730D-02 0.144D+00 0.869D+00
 Gap=     0.360 Goal=   None    Shift=    0.000
 RMSDP=1.11D-07 MaxDP=7.13D-06 DE=-2.05D-09 OVMax= 2.75D-06

 Cycle  10  Pass 1  IDiag  1:
 RMSU=  5.20D-08    CP:  9.48D-01  7.08D-01  1.01D+00  6.55D-01  8.31D-01
                    CP:  1.23D+00  1.16D+00  1.15D+00  9.96D-01
 E= -233.633236582585     Delta-E=       -0.000000000100 Rises=F Damp=F
 DIIS: error= 1.64D-07 at cycle  10 NSaved=  10.
 NSaved=10 IEnMin=10 EnMin= -233.633236582585     IErMin=10 ErrMin= 1.64D-07
 ErrMax= 1.64D-07  0.00D+00 EMaxC= 1.00D-01 BMatC= 1.10D-11 BMatP= 9.37D-11
 IDIUse=1 WtCom= 1.00D+00 WtEn= 0.00D+00
 Coeff-Com: -0.784D-05 0.171D-04 0.868D-04 0.140D-03 0.168D-03-0.242D-02
 Coeff-Com: -0.921D-02 0.791D-02 0.284D+00 0.719D+00
 Coeff:     -0.784D-05 0.171D-04 0.868D-04 0.140D-03 0.168D-03-0.242D-02
 Coeff:     -0.921D-02 0.791D-02 0.284D+00 0.719D+00
 Gap=     0.360 Goal=   None    Shift=    0.000
 RMSDP=2.28D-08 MaxDP=8.01D-07 DE=-1.00D-10 OVMax= 7.59D-07

 Cycle  11  Pass 1  IDiag  1:
 RMSU=  1.51D-08    CP:  9.48D-01  7.08D-01  1.01D+00  6.55D-01  8.31D-01
                    CP:  1.23D+00  1.16D+00  1.15D+00  1.03D+00  9.91D-01
 E= -233.633236582591     Delta-E=       -0.000000000006 Rises=F Damp=F
 DIIS: error= 5.37D-08 at cycle  11 NSaved=  11.
 NSaved=11 IEnMin=11 EnMin= -233.633236582591     IErMin=11 ErrMin= 5.37D-08
 ErrMax= 5.37D-08  0.00D+00 EMaxC= 1.00D-01 BMatC= 9.97D-13 BMatP= 1.10D-11
 IDIUse=1 WtCom= 1.00D+00 WtEn= 0.00D+00
 Coeff-Com: -0.106D-05 0.261D-05 0.202D-04 0.378D-04 0.909D-04-0.350D-03
 Coeff-Com: -0.224D-02-0.946D-02 0.193D-01 0.234D+00 0.759D+00
 Coeff:     -0.106D-05 0.261D-05 0.202D-04 0.378D-04 0.909D-04-0.350D-03
 Coeff:     -0.224D-02-0.946D-02 0.193D-01 0.234D+00 0.759D+00
 Gap=     0.360 Goal=   None    Shift=    0.000
 RMSDP=8.77D-09 MaxDP=3.12D-07 DE=-5.80D-12 OVMax= 2.86D-07

 SCF Done:  E(RM062X) =  -233.633236583     A.U. after   11 cycles
            NFock= 11  Conv=0.88D-08     -V/T= 2.0040
 KE= 2.327040942671D+02 PE=-9.220670389738D+02 EE= 2.669767063992D+02
 Leave Link  502 at Tue Apr 23 21:47:15 2019, MaxMem=   671088640 cpu:             497.5 elap:              24.9
 (Enter /shared/centos7/gaussian/g16/l801.exe)
 DoSCS=F DFT=T ScalE2(SS,OS)=  1.000000  1.000000
 Range of M.O.s used for correlation:     1   260
 NBasis=   260 NAE=    21 NBE=    21 NFC=     0 NFV=     0
 NROrb=    260 NOA=    21 NOB=    21 NVA=   239 NVB=   239

 **** Warning!!: The largest alpha MO coefficient is  0.53720724D+02

 Leave Link  801 at Tue Apr 23 21:47:15 2019, MaxMem=   671088640 cpu:               0.4 elap:               0.0
 (Enter /shared/centos7/gaussian/g16/l1101.exe)
 Using compressed storage, NAtomX=    15.
 Will process     16 centers per pass.
 Leave Link 1101 at Tue Apr 23 21:47:16 2019, MaxMem=   671088640 cpu:              11.3 elap:               0.6
 (Enter /shared/centos7/gaussian/g16/l1102.exe)
 Symmetrizing basis deriv contribution to polar:
 IMax=3 JMax=2 DiffMx= 0.00D+00
 Leave Link 1102 at Tue Apr 23 21:47:16 2019, MaxMem=   671088640 cpu:               0.5 elap:               0.1
 (Enter /shared/centos7/gaussian/g16/l1110.exe)
 Forming Gx(P) for the SCF density, NAtomX=    15.
 Integral derivatives from FoFJK, PRISM(SPDF).
 Do as many integral derivatives as possible in FoFJK.
 G2DrvN: MDV=     671087424.
 G2DrvN: will do    16 centers at a time, making    1 passes.
 Calling FoFCou, ICntrl=  3107 FMM=F I1Cent=   0 AccDes= 0.00D+00.
 FoFJK:  IHMeth= 1 ICntrl=    3107 DoSepK=F KAlg= 0 I1Cent=           0 FoldK=F
 IRaf=         0 NMat=       1 IRICut=       1 DoRegI=T DoRafI=F ISym2E= 0 IDoP0=0 IntGTp=1.
 FoFCou: FMM=F IPFlag=           0 FMFlag=      100000 FMFlg1=           0
         NFxFlg=           0 DoJE=F BraDBF=F KetDBF=F FulRan=T
         wScrn=  0.000000 ICntrl=      3107 IOpCl=  0 I1Cent=           0 NGrid=           0
         NMat0=    1 NMatS0=      1 NMatT0=    0 NMatD0=    1 NMtDS0=    0 NMtDT0=    0
 Symmetry not used in FoFCou.
 End of G2Drv F.D. properties file   721 does not exist.
 End of G2Drv F.D. properties file   722 does not exist.
 End of G2Drv F.D. properties file   788 does not exist.
 Leave Link 1110 at Tue Apr 23 21:48:09 2019, MaxMem=   671088640 cpu:            1063.5 elap:              53.2
 (Enter /shared/centos7/gaussian/g16/l1002.exe)
 Minotr:  Closed shell wavefunction.
          IDoAtm=111111111111111
          Direct CPHF calculation.
          Differentiating once with respect to nuclear coordinates.
          Requested convergence is 1.0D-08 RMS, and 1.0D-07 maximum.
          Secondary convergence is 1.0D-12 RMS, and 1.0D-12 maximum.
          NewPWx=T KeepS1=F KeepF1=F KeepIn=T MapXYZ=F SortEE=F KeepMc=T.
         4569 words used for storage of precomputed grid.
 Keep R1 ints in memory in canonical form, NReq=597923371.
 FoFCou: FMM=F IPFlag=           0 FMFlag=           0 FMFlg1=           0
         NFxFlg=           0 DoJE=F BraDBF=F KetDBF=F FulRan=T
         wScrn=  0.000000 ICntrl=       600 IOpCl=  0 I1Cent=           0 NGrid=           0
         NMat0=    1 NMatS0=  33930 NMatT0=    0 NMatD0=    1 NMtDS0=    0 NMtDT0=    0
 Symmetry not used in FoFCou.
 Two-electron integral symmetry not used.
          MDV=     671088640 using IRadAn=       1.
          Solving linear equations simultaneously, MaxMat=       0.
          There are    48 degrees of freedom in the 1st order CPHF.  IDoFFX=6 NUNeed=     0.
     42 vectors produced by pass  0 Test12= 1.05D-14 2.08D-09 XBig12= 6.42D-02 4.26D-02.
 AX will form    42 AO Fock derivatives at one time.
     42 vectors produced by pass  1 Test12= 1.05D-14 2.08D-09 XBig12= 5.95D-03 1.20D-02.
     42 vectors produced by pass  2 Test12= 1.05D-14 2.08D-09 XBig12= 2.69D-04 2.94D-03.
     42 vectors produced by pass  3 Test12= 1.05D-14 2.08D-09 XBig12= 3.07D-06 3.03D-04.
     42 vectors produced by pass  4 Test12= 1.05D-14 2.08D-09 XBig12= 1.65D-08 1.48D-05.
     42 vectors produced by pass  5 Test12= 1.05D-14 2.08D-09 XBig12= 9.32D-11 9.01D-07.
     17 vectors produced by pass  6 Test12= 1.05D-14 2.08D-09 XBig12= 3.58D-13 6.52D-08.
      1 vectors produced by pass  7 Test12= 1.05D-14 2.08D-09 XBig12= 1.18D-15 3.24D-09.
 InvSVY:  IOpt=1 It=  1 EMax= 2.22D-15
 Solved reduced A of dimension   270 with    42 vectors.
 End of Minotr F.D. properties file   721 does not exist.
 End of Minotr F.D. properties file   722 does not exist.
 End of Minotr F.D. properties file   788 does not exist.
 Leave Link 1002 at Tue Apr 23 21:49:09 2019, MaxMem=   671088640 cpu:            1159.6 elap:              59.2
 (Enter /shared/centos7/gaussian/g16/l601.exe)
 Copying SCF densities to generalized density rwf, IOpCl= 0 IROHF=0.

 **********************************************************************

            Population analysis using the SCF density.

 **********************************************************************

 Orbital symmetries:
       Occupied  (A) (A) (A) (A) (A) (A) (A) (A) (A) (A) (A) (A)
                 (A) (A) (A) (A) (A) (A) (A) (A) (A)
       Virtual   (A) (A) (A) (A) (A) (A) (A) (A) (A) (A) (A) (A)
                 (A) (A) (A) (A) (A) (A) (A) (A) (A) (A) (A) (A)
                 (A) (A) (A) (A) (A) (A) (A) (A) (A) (A) (A) (A)
                 (A) (A) (A) (A) (A) (A) (A) (A) (A) (A) (A) (A)
                 (A) (A) (A) (A) (A) (A) (A) (A) (A) (A) (A) (A)
                 (A) (A) (A) (A) (A) (A) (A) (A) (A) (A) (A) (A)
                 (A) (A) (A) (A) (A) (A) (A) (A) (A) (A) (A) (A)
                 (A) (A) (A) (A) (A) (A) (A) (A) (A) (A) (A) (A)
                 (A) (A) (A) (A) (A) (A) (A) (A) (A) (A) (A) (A)
                 (A) (A) (A) (A) (A) (A) (A) (A) (A) (A) (A) (A)
                 (A) (A) (A) (A) (A) (A) (A) (A) (A) (A) (A) (A)
                 (A) (A) (A) (A) (A) (A) (A) (A) (A) (A) (A) (A)
                 (A) (A) (A) (A) (A) (A) (A) (A) (A) (A) (A) (A)
                 (A) (A) (A) (A) (A) (A) (A) (A) (A) (A) (A) (A)
                 (A) (A) (A) (A) (A) (A) (A) (A) (A) (A) (A) (A)
                 (A) (A) (A) (A) (A) (A) (A) (A) (A) (A) (A) (A)
                 (A) (A) (A) (A) (A) (A) (A) (A) (A) (A) (A) (A)
                 (A) (A) (A) (A) (A) (A) (A) (A) (A) (A) (A) (A)
                 (A) (A) (A) (A) (A) (A) (A) (A) (A) (A) (A) (A)
                 (A) (A) (A) (A) (A) (A) (A) (A) (A) (A) (A)
 The electronic state is 1-A.
 Alpha  occ. eigenvalues --  -19.61954 -10.57863 -10.52543 -10.52137 -10.51630
 Alpha  occ. eigenvalues --   -1.14353  -0.89185  -0.81399  -0.71335  -0.65698
 Alpha  occ. eigenvalues --   -0.59980  -0.53701  -0.51384  -0.50073  -0.45568
 Alpha  occ. eigenvalues --   -0.44161  -0.42681  -0.39545  -0.38468  -0.37871
 Alpha  occ. eigenvalues --   -0.34703
 Alpha virt. eigenvalues --    0.01274   0.02685   0.03452   0.03992   0.05675
 Alpha virt. eigenvalues --    0.06156   0.06632   0.08094   0.08657   0.09167
 Alpha virt. eigenvalues --    0.10243   0.10964   0.13183   0.15202   0.16368
 Alpha virt. eigenvalues --    0.17754   0.18636   0.19795   0.21053   0.21179
 Alpha virt. eigenvalues --    0.22301   0.23120   0.23799   0.25008   0.25955
 Alpha virt. eigenvalues --    0.26989   0.27646   0.28554   0.29207   0.30370
 Alpha virt. eigenvalues --    0.31131   0.31735   0.34216   0.37551   0.42445
 Alpha virt. eigenvalues --    0.43297   0.45421   0.46202   0.47549   0.49587
 Alpha virt. eigenvalues --    0.52716   0.53555   0.55065   0.56331   0.57323
 Alpha virt. eigenvalues --    0.58051   0.59183   0.60465   0.61775   0.62711
 Alpha virt. eigenvalues --    0.63212   0.64875   0.65146   0.66075   0.68246
 Alpha virt. eigenvalues --    0.69636   0.70416   0.72205   0.74835   0.78522
 Alpha virt. eigenvalues --    0.80960   0.82300   0.83571   0.85632   0.88092
 Alpha virt. eigenvalues --    0.88922   0.92745   0.94397   0.96355   1.01271
 Alpha virt. eigenvalues --    1.04455   1.04779   1.06577   1.10186   1.12045
 Alpha virt. eigenvalues --    1.13354   1.14065   1.17252   1.18215   1.18948
 Alpha virt. eigenvalues --    1.19442   1.20806   1.22243   1.24424   1.25509
 Alpha virt. eigenvalues --    1.26661   1.27744   1.29773   1.31104   1.32215
 Alpha virt. eigenvalues --    1.35994   1.37883   1.39782   1.40988   1.42282
 Alpha virt. eigenvalues --    1.44007   1.44927   1.46299   1.47183   1.48828
 Alpha virt. eigenvalues --    1.49347   1.54062   1.54931   1.56657   1.58576
 Alpha virt. eigenvalues --    1.60209   1.61857   1.63029   1.64297   1.65864
 Alpha virt. eigenvalues --    1.68972   1.69962   1.74423   1.85141   1.91328
 Alpha virt. eigenvalues --    2.09845   2.13040   2.27766   2.35048   2.41341
 Alpha virt. eigenvalues --    2.47819   2.50426   2.51997   2.55981   2.58026
 Alpha virt. eigenvalues --    2.63274   2.67319   2.75832   2.76971   2.79092
 Alpha virt. eigenvalues --    2.81363   2.84172   2.85751   2.89573   2.91533
 Alpha virt. eigenvalues --    2.94321   2.95906   2.99489   3.04365   3.04540
 Alpha virt. eigenvalues --    3.09339   3.14334   3.15425   3.16714   3.17898
 Alpha virt. eigenvalues --    3.22628   3.24142   3.26570   3.27877   3.32359
 Alpha virt. eigenvalues --    3.35159   3.36083   3.38984   3.39178   3.40354
 Alpha virt. eigenvalues --    3.45556   3.46836   3.52665   3.54033   3.56893
 Alpha virt. eigenvalues --    3.58846   3.59784   3.61622   3.62904   3.66201
 Alpha virt. eigenvalues --    3.70609   3.70881   3.72337   3.76061   3.78030
 Alpha virt. eigenvalues --    3.79666   3.84663   3.87976   3.89139   3.92669
 Alpha virt. eigenvalues --    3.97129   3.99285   4.01222   4.02393   4.03135
 Alpha virt. eigenvalues --    4.04989   4.08509   4.09827   4.14734   4.15718
 Alpha virt. eigenvalues --    4.19460   4.21040   4.23116   4.24524   4.25931
 Alpha virt. eigenvalues --    4.28396   4.30016   4.32082   4.33138   4.36585
 Alpha virt. eigenvalues --    4.39776   4.44013   4.44668   4.48113   4.53435
 Alpha virt. eigenvalues --    4.53895   4.56102   4.57388   4.60570   4.63910
 Alpha virt. eigenvalues --    4.65806   4.68273   4.79831   4.80778   5.02490
 Alpha virt. eigenvalues --    5.20081   5.21329   5.23310   5.28015   5.36286
 Alpha virt. eigenvalues --    5.41984   5.47050   5.49683   5.53871   5.54634
 Alpha virt. eigenvalues --    5.59707   5.60262   5.65811   5.67627   5.70065
 Alpha virt. eigenvalues --    5.84826   5.94507   6.49647   6.98558   7.17293
 Alpha virt. eigenvalues --    7.21313   7.24418   7.55764   7.65315  24.28233
 Alpha virt. eigenvalues --   24.39451  24.44801  24.51533  50.15261
          Condensed to atoms (all electrons):
               1          2          3          4          5          6
     1  O    8.154740  -0.082956  -0.003155   0.152268  -0.000393  -0.001202
     2  C   -0.082956   5.714147  -0.220738  -0.006942   0.169115  -0.031103
     3  C   -0.003155  -0.220738   5.519408   0.160640   0.019554   0.428813
     4  C    0.152268  -0.006942   0.160640   5.255258  -0.108042  -0.014854
     5  C   -0.000393   0.169115   0.019554  -0.108042   5.293519  -0.029341
     6  H   -0.001202  -0.031103   0.428813  -0.014854  -0.029341   0.539046
     7  H   -0.006106  -0.062464   0.476627   0.011007  -0.057086  -0.034050
     8  H    0.008923   0.395653  -0.004752  -0.016050  -0.018191  -0.007516
     9  H   -0.009792   0.496855  -0.084552  -0.062201   0.007481   0.005177
    10  H   -0.049848   0.005792  -0.047026   0.433358   0.006479   0.002773
    11  H   -0.043777  -0.074522   0.023283   0.465258  -0.000642   0.000098
    12  H   -0.000285  -0.010330  -0.032722  -0.003552   0.420489   0.006228
    13  H    0.000093   0.020713  -0.048027   0.002472   0.409588  -0.004589
    14  H   -0.000107  -0.031963   0.006830   0.003037   0.393385  -0.008284
    15  H    0.231117  -0.030466   0.008438   0.027489  -0.001817  -0.000103
               7          8          9         10         11         12
     1  O   -0.006106   0.008923  -0.009792  -0.049848  -0.043777  -0.000285
     2  C   -0.062464   0.395653   0.496855   0.005792  -0.074522  -0.010330
     3  C    0.476627  -0.004752  -0.084552  -0.047026   0.023283  -0.032722
     4  C    0.011007  -0.016050  -0.062201   0.433358   0.465258  -0.003552
     5  C   -0.057086  -0.018191   0.007481   0.006479  -0.000642   0.420489
     6  H   -0.034050  -0.007516   0.005177   0.002773   0.000098   0.006228
     7  H    0.494748   0.004370  -0.003511   0.001202  -0.000808  -0.006809
     8  H    0.004370   0.518148  -0.028880  -0.005022  -0.003309  -0.000579
     9  H   -0.003511  -0.028880   0.489904   0.006026  -0.006733   0.001345
    10  H    0.001202  -0.005022   0.006026   0.561165  -0.046489  -0.000014
    11  H   -0.000808  -0.003309  -0.006733  -0.046489   0.556405  -0.000004
    12  H   -0.006809  -0.000579   0.001345  -0.000014  -0.000004   0.551055
    13  H   -0.004633  -0.000009  -0.000089  -0.000024   0.000015  -0.024342
    14  H    0.006008   0.002525  -0.000432  -0.000014  -0.000039  -0.038813
    15  H   -0.000015  -0.000280   0.000233  -0.006998  -0.005089  -0.000003
              13         14         15
     1  O    0.000093  -0.000107   0.231117
     2  C    0.020713  -0.031963  -0.030466
     3  C   -0.048027   0.006830   0.008438
     4  C    0.002472   0.003037   0.027489
     5  C    0.409588   0.393385  -0.001817
     6  H   -0.004589  -0.008284  -0.000103
     7  H   -0.004633   0.006008  -0.000015
     8  H   -0.000009   0.002525  -0.000280
     9  H   -0.000089  -0.000432   0.000233
    10  H   -0.000024  -0.000014  -0.006998
    11  H    0.000015  -0.000039  -0.005089
    12  H   -0.024342  -0.038813  -0.000003
    13  H    0.540374  -0.025623  -0.000001
    14  H   -0.025623   0.561282   0.000004
    15  H   -0.000001   0.000004   0.525492
 Mulliken charges:
               1
     1  O   -0.349522
     2  C   -0.250792
     3  C   -0.202621
     4  C   -0.299146
     5  C   -0.504098
     6  H    0.148906
     7  H    0.181520
     8  H    0.154969
     9  H    0.189170
    10  H    0.138640
    11  H    0.136354
    12  H    0.138339
    13  H    0.134081
    14  H    0.132202
    15  H    0.251998
 Sum of Mulliken charges =  -0.00000
 Mulliken charges with hydrogens summed into heavy atoms:
               1
     1  O   -0.097524
     2  C    0.093347
     3  C    0.127805
     4  C   -0.024152
     5  C   -0.099475
 APT charges:
               1
     1  O   -0.867115
     2  C   -0.634326
     3  C   -0.567793
     4  C   -0.801210
     5  C   -1.292583
     6  H    0.344212
     7  H    0.320679
     8  H    0.387352
     9  H    0.353227
    10  H    0.340565
    11  H    0.468703
    12  H    0.328047
    13  H    0.504941
    14  H    0.372791
    15  H    0.742510
 Sum of APT charges =  -0.00000
 APT charges with hydrogens summed into heavy atoms:
               1
     1  O   -0.124605
     2  C    0.106253
     3  C    0.097099
     4  C    0.008058
     5  C   -0.086805
 Electronic spatial extent (au):  <R**2>=            597.8674
 Charge=             -0.0000 electrons
 Dipole moment (field-independent basis, Debye):
    X=              0.8779    Y=              0.9001    Z=              0.8864  Tot=              1.5384
 Quadrupole moment (field-independent basis, Debye-Ang):
   XX=            -28.9053   YY=            -34.0755   ZZ=            -33.9862
   XY=              0.4382   XZ=              1.8047   YZ=             -0.5449
 Traceless Quadrupole moment (field-independent basis, Debye-Ang):
   XX=              3.4170   YY=             -1.7532   ZZ=             -1.6638
   XY=              0.4382   XZ=              1.8047   YZ=             -0.5449
 Octapole moment (field-independent basis, Debye-Ang**2):
  XXX=             34.0101  YYY=             -2.0652  ZZZ=             -0.4023  XYY=              3.1561
  XXY=             -5.2688  XXZ=              4.4591  XZZ=              1.9380  YZZ=             -0.4963
  YYZ=              0.4615  XYZ=             -1.7679
 Hexadecapole moment (field-independent basis, Debye-Ang**3):
 XXXX=           -526.0763 YYYY=           -124.4632 ZZZZ=            -76.6172 XXXY=            -23.5456
 XXXZ=              4.0162 YYYX=             -6.9021 YYYZ=              1.1684 ZZZX=              1.5948
 ZZZY=              0.2675 XXYY=           -112.5992 XXZZ=           -115.4975 YYZZ=            -36.0698
 XXYZ=             -3.8718 YYXZ=             -1.5399 ZZXY=             -0.5554
 N-N= 1.887530017249D+02 E-N=-9.220670430020D+02  KE= 2.327040942671D+02
  Exact polarizability:   0.000   0.000   0.000   0.000   0.000   0.000
 Approx polarizability:  62.751  -0.711  61.608   0.669   0.331  60.827
 No NMR shielding tensors so no spin-rotation constants.
 Leave Link  601 at Tue Apr 23 21:49:09 2019, MaxMem=   671088640 cpu:               4.9 elap:               0.3
 (Enter /shared/centos7/gaussian/g16/l701.exe)
 ... and contract with generalized density number  0.
 Compute integral second derivatives.
 Leave Link  701 at Tue Apr 23 21:49:09 2019, MaxMem=   671088640 cpu:               5.5 elap:               0.3
 (Enter /shared/centos7/gaussian/g16/l702.exe)
 L702 exits ... SP integral derivatives will be done elsewhere.
 Leave Link  702 at Tue Apr 23 21:49:09 2019, MaxMem=   671088640 cpu:               0.6 elap:               0.1
 (Enter /shared/centos7/gaussian/g16/l703.exe)
 Integral derivatives from FoFJK, PRISM(SPDF).
 Compute integral second derivatives, UseDBF=F ICtDFT=           0.
 Calling FoFJK, ICntrl=    100147 FMM=F ISym2X=0 I1Cent= 0 IOpClX= 0 NMat=1 NMatS=1 NMatT=0.
 FoFJK:  IHMeth= 1 ICntrl=  100147 DoSepK=F KAlg= 0 I1Cent=           0 FoldK=F
 IRaf=         0 NMat=       1 IRICut=       1 DoRegI=T DoRafI=F ISym2E= 0 IDoP0=0 IntGTp=1.
 FoFCou: FMM=F IPFlag=           0 FMFlag=      100000 FMFlg1=         800
         NFxFlg=           0 DoJE=F BraDBF=F KetDBF=F FulRan=T
         wScrn=  0.000000 ICntrl=    100147 IOpCl=  0 I1Cent=           0 NGrid=           0
         NMat0=    1 NMatS0=      1 NMatT0=    0 NMatD0=    1 NMtDS0=    0 NMtDT0=    0
 Symmetry not used in FoFCou.
 Leave Link  703 at Tue Apr 23 21:50:20 2019, MaxMem=   671088640 cpu:            1409.9 elap:              70.5
 (Enter /shared/centos7/gaussian/g16/l716.exe)
 Dipole        = 3.45409351D-01 3.54144115D-01 3.48718648D-01
 Polarizability= 0.00000000D+00 0.00000000D+00 0.00000000D+00
                 0.00000000D+00 0.00000000D+00 0.00000000D+00
 ***** Axes restored to original set *****
 -------------------------------------------------------------------
 Center     Atomic                   Forces (Hartrees/Bohr)
 Number     Number              X              Y              Z
 -------------------------------------------------------------------
      1        8           0.000000367    0.000000254    0.000000734
      2        6           0.000000058    0.000000244    0.000000587
      3        6          -0.000000156   -0.000000183   -0.000000601
      4        6          -0.000000174   -0.000000081    0.000001238
      5        6           0.000000077    0.000000056   -0.000001302
      6        1          -0.000000772   -0.000000873   -0.000000657
      7        1           0.000000043   -0.000000042   -0.000001069
      8        1          -0.000000081   -0.000000023    0.000000920
      9        1           0.000000751    0.000000833    0.000000429
     10        1          -0.000000723   -0.000000708    0.000001190
     11        1           0.000000090    0.000000197    0.000002034
     12        1           0.000000716    0.000000684   -0.000001445
     13        1          -0.000000092   -0.000000239   -0.000002187
     14        1          -0.000000078   -0.000000195   -0.000000971
     15        1          -0.000000027    0.000000074    0.000001098
 -------------------------------------------------------------------
 Cartesian Forces:  Max     0.000002187 RMS     0.000000772
 FormGI is forming the generalized inverse of G from B-inverse, IUseBI=4.
 Leave Link  716 at Tue Apr 23 21:50:20 2019, MaxMem=   671088640 cpu:               0.5 elap:               0.0
 (Enter /shared/centos7/gaussian/g16/l103.exe)

 GradGradGradGradGradGradGradGradGradGradGradGradGradGradGradGradGradGrad
 Berny optimization.
 Red2BG is reusing G-inverse.
 Internal  Forces:  Max     0.000000091 RMS     0.000000026
 Search for a local minimum.
 Step number   1 out of a maximum of   79 on scan point     1 out of    37
 All quantities printed in internal units (Hartrees-Bohrs-Radians)
 RMS Force = .26689D-07 SwitMx=.10000D-02 MixMth= 2
 Mixed Optimization -- En-DIIS/RFO-DIIS
 Second derivative matrix not updated -- analytic derivatives used.
 ITU=  0
     Eigenvalues ---    0.01183   0.01482   0.02023   0.03615   0.03929
     Eigenvalues ---    0.04146   0.04543   0.05479   0.05989   0.07060
     Eigenvalues ---    0.07504   0.09018   0.11301   0.12106   0.12971
     Eigenvalues ---    0.13461   0.15637   0.15737   0.18111   0.22208
     Eigenvalues ---    0.24511   0.29196   0.30336   0.32060   0.32259
     Eigenvalues ---    0.32581   0.33171   0.33357   0.33827   0.34029
     Eigenvalues ---    0.34160   0.34508   0.35027   0.39677   0.55192
     Eigenvalues --- 1000.000001000.000001000.000001000.000001000.00000
     Eigenvalues --- 1000.000001000.000001000.000001000.000001000.00000
     Eigenvalues --- 1000.000001000.000001000.000001000.000001000.00000
     Eigenvalues --- 1000.000001000.000001000.000001000.000001000.00000
     Eigenvalues --- 1000.000001000.000001000.000001000.000001000.00000
     Eigenvalues --- 1000.000001000.000001000.000001000.000001000.00000
     Eigenvalues --- 1000.000001000.000001000.000001000.00000
 RFO step:  Lambda= 0.00000000D+00 EMin= 1.18347383D-02
 Linear search not attempted -- first point.
 Iteration  1 RMS(Cart)=  0.00000034 RMS(Int)=  0.00000000
 Iteration  1 RMS(Cart)=  0.00000000 RMS(Int)=  0.00000000
 ITry= 1 IFail=0 DXMaxC= 1.16D-06 DCOld= 1.00D+10 DXMaxT= 3.00D-01 DXLimC= 3.00D+00 Rises=F
 Variable       Old X    -DE/DX   Delta X   Delta X   Delta X     New X
                                 (Linear)    (Quad)   (Total)
    R1        2.68029   0.00000   0.00000   0.00000   0.00000   2.68029
    R2        1.81040  -0.00000   0.00000  -0.00000  -0.00000   1.81040
    R3        2.88096  -0.00000   0.00000  -0.00000  -0.00000   2.88096
    R4        2.86266   0.00000   0.00000   0.00000   0.00000   2.86266
    R5        2.06632  -0.00000   0.00000  -0.00000  -0.00000   2.06632
    R6        2.06594   0.00000   0.00000   0.00000   0.00000   2.06594
    R7        2.87973  -0.00000   0.00000  -0.00000  -0.00000   2.87973
    R8        2.06663  -0.00000   0.00000  -0.00000  -0.00000   2.06663
    R9        2.06049   0.00000   0.00000   0.00000   0.00000   2.06049
   R10        2.07160  -0.00000   0.00000  -0.00000  -0.00000   2.07160
   R11        2.06813   0.00000   0.00000   0.00000   0.00000   2.06813
   R12        2.06145   0.00000   0.00000   0.00000   0.00000   2.06145
   R13        2.05859  -0.00000   0.00000  -0.00000  -0.00000   2.05859
   R14        2.06211  -0.00000   0.00000  -0.00000  -0.00000   2.06211
    A1        1.91006   0.00000   0.00000   0.00000   0.00000   1.91007
    A2        1.97278  -0.00000   0.00000  -0.00000  -0.00000   1.97278
    A3        1.91700   0.00000   0.00000   0.00000   0.00000   1.91700
    A4        1.91452   0.00000   0.00000   0.00000   0.00000   1.91452
    A5        1.89494   0.00000   0.00000   0.00000   0.00000   1.89494
    A6        1.89374  -0.00000   0.00000  -0.00000  -0.00000   1.89374
    A7        1.86774  -0.00000   0.00000   0.00000   0.00000   1.86774
    A8        1.95823   0.00000   0.00000   0.00000   0.00000   1.95823
    A9        1.90307  -0.00000   0.00000   0.00000   0.00000   1.90307
   A10        1.90082  -0.00000   0.00000  -0.00000  -0.00000   1.90082
   A11        1.91626  -0.00000   0.00000   0.00000   0.00000   1.91626
   A12        1.92227  -0.00000   0.00000  -0.00000  -0.00000   1.92227
   A13        1.86048   0.00000   0.00000  -0.00000  -0.00000   1.86048
   A14        1.88660   0.00000   0.00000   0.00000   0.00000   1.88660
   A15        1.92769  -0.00000   0.00000  -0.00000  -0.00000   1.92769
   A16        1.92842  -0.00000   0.00000  -0.00000  -0.00000   1.92842
   A17        1.91437  -0.00000   0.00000  -0.00000  -0.00000   1.91437
   A18        1.92095  -0.00000   0.00000   0.00000   0.00000   1.92095
   A19        1.88601   0.00000   0.00000  -0.00000  -0.00000   1.88601
   A20        1.93295  -0.00000   0.00000  -0.00000  -0.00000   1.93295
   A21        1.94784  -0.00000   0.00000  -0.00000  -0.00000   1.94784
   A22        1.93748   0.00000   0.00000   0.00000   0.00000   1.93748
   A23        1.88196  -0.00000   0.00000  -0.00000  -0.00000   1.88196
   A24        1.87809   0.00000   0.00000   0.00000   0.00000   1.87809
   A25        1.88285   0.00000   0.00000   0.00000   0.00000   1.88285
    D1       -3.11895   0.00000   0.00000   0.00000   0.00000  -3.11895
    D2       -1.02451   0.00000   0.00000   0.00000   0.00000  -1.02451
    D3        1.06132  -0.00000   0.00000   0.00000   0.00000   1.06132
    D4       -3.13147   0.00000   0.00000   0.00000   0.00000  -3.13147
    D5        1.02502   0.00000   0.00000   0.00000   0.00000   1.02502
    D6       -0.99873   0.00000   0.00000   0.00000   0.00000  -0.99873
    D7        1.03257   0.00000   0.00000   0.00000   0.00000   1.03258
    D8       -1.09412  -0.00000   0.00000   0.00000   0.00000  -1.09412
    D9       -3.11787  -0.00000   0.00000   0.00000   0.00000  -3.11787
   D10       -1.01565  -0.00000   0.00000   0.00000   0.00000  -1.01565
   D11        3.14084  -0.00000   0.00000   0.00000   0.00000   3.14084
   D12        1.11709  -0.00000   0.00000   0.00000   0.00000   1.11709
   D13        1.10273  -0.00000   0.00000  -0.00000  -0.00000   1.10273
   D14       -1.00006  -0.00000   0.00000  -0.00000  -0.00000  -1.00006
   D15       -3.07287  -0.00000   0.00000   0.00000   0.00000  -3.07287
   D16       -3.04891  -0.00000   0.00000  -0.00000  -0.00000  -3.04891
   D17        1.13148  -0.00000   0.00000  -0.00000  -0.00000   1.13148
   D18       -0.94133   0.00000   0.00000   0.00000   0.00000  -0.94133
   D19       -1.02480   0.00000   0.00000   0.00000   0.00000  -1.02480
   D20       -3.12760  -0.00000   0.00000  -0.00000  -0.00000  -3.12760
   D21        1.08278   0.00000   0.00000   0.00000   0.00000   1.08278
   D22        1.04847  -0.00000   0.00000  -0.00000  -0.00000   1.04847
   D23       -3.13783  -0.00000   0.00000  -0.00000  -0.00000  -3.13783
   D24       -1.03671  -0.00000   0.00000  -0.00000  -0.00000  -1.03672
   D25       -3.11556   0.00000   0.00000   0.00000   0.00000  -3.11556
   D26       -1.01868  -0.00000   0.00000  -0.00000  -0.00000  -1.01868
   D27        1.08244   0.00000   0.00000   0.00000   0.00000   1.08244
   D28       -1.07202   0.00000   0.00000  -0.00000  -0.00000  -1.07202
   D29        1.02486  -0.00000   0.00000  -0.00000  -0.00000   1.02486
   D30        3.12598   0.00000   0.00000  -0.00000  -0.00000   3.12598
         Item               Value     Threshold  Converged?
 Maximum Force            0.000000     0.000450     YES
 RMS     Force            0.000000     0.000300     YES
 Maximum Displacement     0.000001     0.001800     YES
 RMS     Displacement     0.000000     0.001200     YES
 Predicted change in Energy=-1.004303D-13
 Optimization completed.
    -- Stationary point found.
                           ----------------------------
                           !   Optimized Parameters   !
                           ! (Angstroms and Degrees)  !
 --------------------------                            --------------------------
 ! Name  Definition              Value          Derivative Info.                !
 --------------------------------------------------------------------------------
 ! R1    R(1,4)                  1.4183         -DE/DX =    0.0                 !
 ! R2    R(1,15)                 0.958          -DE/DX =    0.0                 !
 ! R3    R(2,3)                  1.5245         -DE/DX =    0.0                 !
 ! R4    R(2,4)                  1.5149         -DE/DX =    0.0                 !
 ! R5    R(2,8)                  1.0934         -DE/DX =    0.0                 !
 ! R6    R(2,9)                  1.0933         -DE/DX =    0.0                 !
 ! R7    R(3,5)                  1.5239         -DE/DX =    0.0                 !
 ! R8    R(3,6)                  1.0936         -DE/DX =    0.0                 !
 ! R9    R(3,7)                  1.0904         -DE/DX =    0.0                 !
 ! R10   R(4,10)                 1.0962         -DE/DX =    0.0                 !
 ! R11   R(4,11)                 1.0944         -DE/DX =    0.0                 !
 ! R12   R(5,12)                 1.0909         -DE/DX =    0.0                 !
 ! R13   R(5,13)                 1.0894         -DE/DX =    0.0                 !
 ! R14   R(5,14)                 1.0912         -DE/DX =    0.0                 !
 ! A1    A(4,1,15)             109.4386         -DE/DX =    0.0                 !
 ! A2    A(3,2,4)              113.032          -DE/DX =    0.0                 !
 ! A3    A(3,2,8)              109.8357         -DE/DX =    0.0                 !
 ! A4    A(3,2,9)              109.6941         -DE/DX =    0.0                 !
 ! A5    A(4,2,8)              108.5721         -DE/DX =    0.0                 !
 ! A6    A(4,2,9)              108.5032         -DE/DX =    0.0                 !
 ! A7    A(8,2,9)              107.0136         -DE/DX =    0.0                 !
 ! A8    A(2,3,5)              112.1981         -DE/DX =    0.0                 !
 ! A9    A(2,3,6)              109.038          -DE/DX =    0.0                 !
 ! A10   A(2,3,7)              108.9089         -DE/DX =    0.0                 !
 ! A11   A(5,3,6)              109.7935         -DE/DX =    0.0                 !
 ! A12   A(5,3,7)              110.1379         -DE/DX =    0.0                 !
 ! A13   A(6,3,7)              106.5979         -DE/DX =    0.0                 !
 ! A14   A(1,4,2)              108.0944         -DE/DX =    0.0                 !
 ! A15   A(1,4,10)             110.4487         -DE/DX =    0.0                 !
 ! A16   A(1,4,11)             110.4904         -DE/DX =    0.0                 !
 ! A17   A(2,4,10)             109.6852         -DE/DX =    0.0                 !
 ! A18   A(2,4,11)             110.0622         -DE/DX =    0.0                 !
 ! A19   A(10,4,11)            108.0607         -DE/DX =    0.0                 !
 ! A20   A(3,5,12)             110.7497         -DE/DX =    0.0                 !
 ! A21   A(3,5,13)             111.6028         -DE/DX =    0.0                 !
 ! A22   A(3,5,14)             111.0093         -DE/DX =    0.0                 !
 ! A23   A(12,5,13)            107.8282         -DE/DX =    0.0                 !
 ! A24   A(12,5,14)            107.6069         -DE/DX =    0.0                 !
 ! A25   A(13,5,14)            107.8796         -DE/DX =    0.0                 !
 ! D1    D(15,1,4,2)          -178.7026         -DE/DX =    0.0                 !
 ! D2    D(15,1,4,10)          -58.6998         -DE/DX =    0.0                 !
 ! D3    D(15,1,4,11)           60.8091         -DE/DX =    0.0                 !
 ! D4    D(4,2,3,5)           -179.4202         -DE/DX =    0.0                 !
 ! D5    D(4,2,3,6)             58.7291         -DE/DX =    0.0                 !
 ! D6    D(4,2,3,7)            -57.2233         -DE/DX =    0.0                 !
 ! D7    D(8,2,3,5)             59.1622         -DE/DX =    0.0                 !
 ! D8    D(8,2,3,6)            -62.6886         -DE/DX =    0.0                 !
 ! D9    D(8,2,3,7)           -178.6409         -DE/DX =    0.0                 !
 ! D10   D(9,2,3,5)            -58.1924         -DE/DX =    0.0                 !
 ! D11   D(9,2,3,6)            179.9569         -DE/DX =    0.0                 !
 ! D12   D(9,2,3,7)             64.0045         -DE/DX =    0.0                 !
 ! D13   D(3,2,4,1)             63.1821         -DE/DX =    0.0                 !
 ! D14   D(3,2,4,10)           -57.299          -DE/DX =    0.0                 !
 ! D15   D(3,2,4,11)          -176.0623         -DE/DX =    0.0                 !
 ! D16   D(8,2,4,1)           -174.6897         -DE/DX =    0.0                 !
 ! D17   D(8,2,4,10)            64.8292         -DE/DX =    0.0                 !
 ! D18   D(8,2,4,11)           -53.934          -DE/DX =    0.0                 !
 ! D19   D(9,2,4,1)            -58.717          -DE/DX =    0.0                 !
 ! D20   D(9,2,4,10)          -179.1981         -DE/DX =    0.0                 !
 ! D21   D(9,2,4,11)            62.0387         -DE/DX =    0.0                 !
 ! D22   D(2,3,5,12)            60.0729         -DE/DX =    0.0                 !
 ! D23   D(2,3,5,13)          -179.7843         -DE/DX =    0.0                 !
 ! D24   D(2,3,5,14)           -59.3994         -DE/DX =    0.0                 !
 ! D25   D(6,3,5,12)          -178.5087         -DE/DX =    0.0                 !
 ! D26   D(6,3,5,13)           -58.3658         -DE/DX =    0.0                 !
 ! D27   D(6,3,5,14)            62.0191         -DE/DX =    0.0                 !
 ! D28   D(7,3,5,12)           -61.4224         -DE/DX =    0.0                 !
 ! D29   D(7,3,5,13)            58.7204         -DE/DX =    0.0                 !
 ! D30   D(7,3,5,14)           179.1053         -DE/DX =    0.0                 !
 --------------------------------------------------------------------------------
 Lowest energy point so far.  Saving SCF results.
 Iteration  1 RMS(Cart)=  0.01540722 RMS(Int)=  0.01663928
 Iteration  2 RMS(Cart)=  0.00035251 RMS(Int)=  0.01663733
 Iteration  3 RMS(Cart)=  0.00001288 RMS(Int)=  0.01663733
 Iteration  4 RMS(Cart)=  0.00000019 RMS(Int)=  0.01663733
 Iteration  1 RMS(Cart)=  0.00959828 RMS(Int)=  0.01051490
 Iteration  2 RMS(Cart)=  0.00604495 RMS(Int)=  0.01165800
 Iteration  3 RMS(Cart)=  0.00384722 RMS(Int)=  0.01335471
 Iteration  4 RMS(Cart)=  0.00247197 RMS(Int)=  0.01470516
 Iteration  5 RMS(Cart)=  0.00160188 RMS(Int)=  0.01565496
 Iteration  6 RMS(Cart)=  0.00104580 RMS(Int)=  0.01629722
 Iteration  7 RMS(Cart)=  0.00068713 RMS(Int)=  0.01672507
 Iteration  8 RMS(Cart)=  0.00045390 RMS(Int)=  0.01700841
 Iteration  9 RMS(Cart)=  0.00030118 RMS(Int)=  0.01719566
 Iteration 10 RMS(Cart)=  0.00020057 RMS(Int)=  0.01731939
 Iteration 11 RMS(Cart)=  0.00013396 RMS(Int)=  0.01740121
 Iteration 12 RMS(Cart)=  0.00008969 RMS(Int)=  0.01745538
 Iteration 13 RMS(Cart)=  0.00006016 RMS(Int)=  0.01749128
 Iteration 14 RMS(Cart)=  0.00004041 RMS(Int)=  0.01751512
 Iteration 15 RMS(Cart)=  0.00002718 RMS(Int)=  0.01753097
 Iteration 16 RMS(Cart)=  0.00001829 RMS(Int)=  0.01754153
 Iteration 17 RMS(Cart)=  0.00001232 RMS(Int)=  0.01754856
 Iteration 18 RMS(Cart)=  0.00000830 RMS(Int)=  0.01755326
 Iteration 19 RMS(Cart)=  0.00000560 RMS(Int)=  0.01755640
 Iteration 20 RMS(Cart)=  0.00000378 RMS(Int)=  0.01755850
 Iteration 21 RMS(Cart)=  0.00000255 RMS(Int)=  0.01755990
 Iteration 22 RMS(Cart)=  0.00000172 RMS(Int)=  0.01756085
 Iteration 23 RMS(Cart)=  0.00000116 RMS(Int)=  0.01756148
 Iteration 24 RMS(Cart)=  0.00000078 RMS(Int)=  0.01756190
 GradGradGradGradGradGradGradGradGradGradGradGradGradGradGradGradGradGrad

 Leave Link  103 at Tue Apr 23 21:50:20 2019, MaxMem=   671088640 cpu:               1.0 elap:               0.1
 (Enter /shared/centos7/gaussian/g16/l202.exe)
                          Input orientation:                          
 ---------------------------------------------------------------------
 Center     Atomic      Atomic             Coordinates (Angstroms)
 Number     Number       Type             X           Y           Z
 ---------------------------------------------------------------------
      1          8           0        1.925637   -0.714599   -0.280754
      2          6           0        0.007144    0.680575   -0.211840
      3          6           0       -0.940089   -0.365436    0.365080
      4          6           0        1.450394    0.523985    0.221042
      5          6           0       -2.361889   -0.140876   -0.135356
      6          1           0       -0.999082   -0.283774    1.454466
      7          1           0       -0.610994   -1.369343    0.095145
      8          1           0       -0.347280    1.672532    0.081559
      9          1           0       -0.109901    0.670912   -1.299125
     10          1           0        1.515018    0.543275    1.315217
     11          1           0        2.054674    1.346569   -0.173898
     12          1           0       -2.403226   -0.222243   -1.222420
     13          1           0       -3.056354   -0.870057    0.280367
     14          1           0       -2.716825    0.856640    0.128974
     15          1           0        2.833549   -0.843699   -0.003477
 ---------------------------------------------------------------------
                    Distance matrix (angstroms):
                    1          2          3          4          5
     1  O    0.000000
     2  C    2.373158   0.000000
     3  C    2.958277   1.524541   0.000000
     4  C    1.418360   1.514886   2.554648   0.000000
     5  C    4.328184   2.508574   1.523935   3.886201   0.000000
     6  H    3.427912   2.172334   1.094035   2.858976   2.098856
     7  H    2.646599   2.162983   1.090411   2.801760   2.151254
     8  H    3.315994   1.093470   2.141290   2.137813   2.719219
     9  H    2.664608   1.093609   2.129039   2.183349   2.661730
    10  H    2.073157   2.150451   2.784971   1.096252   4.195549
    11  H    2.067966   2.153455   3.491428   1.094430   4.660473
    12  H    4.457376   2.765182   2.163661   4.182203   1.090888
    13  H    5.015901   3.468681   2.177245   4.717802   1.089410
    14  H    4.918244   2.750847   2.169334   4.181489   1.091278
    15  H    0.958046   3.217980   3.821637   1.958082   5.244418
                    6          7          8          9         10
     6  H    0.000000
     7  H    1.782365   0.000000
     8  H    2.477268   3.053315   0.000000
     9  H    3.047020   2.521453   1.722173   0.000000
    10  H    2.650301   3.109117   2.503055   3.080817   0.000000
    11  H    3.825574   3.815016   2.437395   2.531410   1.775943
    12  H    3.023429   2.502780   3.085036   2.462306   4.730566
    13  H    2.440206   2.502675   3.720668   3.681164   4.895494
    14  H    2.451146   3.064420   2.506526   2.978257   4.406116
    15  H    4.138620   3.485814   4.056639   3.554806   2.324044
                   11         12         13         14         15
    11  H    0.000000
    12  H    4.840810   0.000000
    13  H    5.589490   1.761989   0.000000
    14  H    4.806139   1.757441   1.766262   0.000000
    15  H    2.330872   5.412563   5.896797   5.806492   0.000000
 Stoichiometry    C4H10O
 Framework group  C1[X(C4H10O)]
 Deg. of freedom    39
 Full point group                 C1      NOp   1
 RotChk:  IX=0 Diff= 1.05D-02
 Largest Abelian subgroup         C1      NOp   1
 Largest concise Abelian subgroup C1      NOp   1
                         Standard orientation:                         
 ---------------------------------------------------------------------
 Center     Atomic      Atomic             Coordinates (Angstroms)
 Number     Number       Type             X           Y           Z
 ---------------------------------------------------------------------
      1          8           0        1.914034   -0.719697   -0.259937
      2          6           0       -0.002457    0.679191   -0.214654
      3          6           0       -0.954518   -0.359714    0.367139
      4          6           0        1.438191    0.524400    0.227445
      5          6           0       -2.373240   -0.137636   -0.143044
      6          1           0       -1.019203   -0.267542    1.455363
      7          1           0       -0.625668   -1.366689    0.108578
      8          1           0       -0.356781    1.674484    0.067348
      9          1           0       -0.113697    0.659322   -1.302410
     10          1           0        1.496989    0.554047    1.321717
     11          1           0        2.045956    1.342186   -0.172086
     12          1           0       -2.408895   -0.229327   -1.229487
     13          1           0       -3.071143   -0.861678    0.275892
     14          1           0       -2.727912    0.862938    0.109835
     15          1           0        2.820230   -0.847617    0.023430
 ---------------------------------------------------------------------
 Rotational constants (GHZ):          12.6947310           2.3833278           2.2050236
 Leave Link  202 at Tue Apr 23 21:50:20 2019, MaxMem=   671088640 cpu:               0.2 elap:               0.0
 (Enter /shared/centos7/gaussian/g16/l301.exe)
 Standard basis: 6-311+G(2df,2p) (5D, 7F)
 Ernie: Thresh=  0.10000D-02 Tol=  0.10000D-05 Strict=F.
 There are   285 symmetry adapted cartesian basis functions of A   symmetry.
 There are   260 symmetry adapted basis functions of A   symmetry.
   260 basis functions,   370 primitive gaussians,   285 cartesian basis functions
    21 alpha electrons       21 beta electrons
       nuclear repulsion energy       188.5654407479 Hartrees.
 IExCor= 4336 DFT=T Ex+Corr=M062X ExCW=0 ScaHFX=  0.540000
 ScaDFX=  1.000000  1.000000  1.000000  1.000000 ScalE2=  1.000000  1.000000
 IRadAn=      5 IRanWt=     -1 IRanGd=            0 ICorTp=0 IEmpDi=  4
 NAtoms=   15 NActive=   15 NUniq=   15 SFac= 1.00D+00 NAtFMM=   60 NAOKFM=F Big=F
 Integral buffers will be    131072 words long.
 Raffenetti 2 integral format.
 Two-electron integral symmetry is turned on.
 Leave Link  301 at Tue Apr 23 21:50:20 2019, MaxMem=   671088640 cpu:               1.0 elap:               0.1
 (Enter /shared/centos7/gaussian/g16/l302.exe)
 NPDir=0 NMtPBC=     1 NCelOv=     1 NCel=       1 NClECP=     1 NCelD=      1
         NCelK=      1 NCelE2=     1 NClLst=     1 CellRange=     0.0.
 One-electron integrals computed using PRISM.
 One-electron integral symmetry used in STVInt
 NBasis=   260 RedAO= T EigKep=  1.72D-05  NBF=   260
 NBsUse=   260 1.00D-06 EigRej= -1.00D+00 NBFU=   260
 Precomputing XC quadrature grid using
 IXCGrd= 4 IRadAn=           5 IRanWt=          -1 IRanGd=           0 AccXCQ= 0.00D+00.
 Generated NRdTot=       0 NPtTot=           0 NUsed=           0 NTot=          32
 NSgBfM=   285   285   285   285   285 MxSgAt=    15 MxSgA2=    15.
 Leave Link  302 at Tue Apr 23 21:50:21 2019, MaxMem=   671088640 cpu:               7.8 elap:               0.4
 (Enter /shared/centos7/gaussian/g16/l303.exe)
 DipDrv:  MaxL=1.
 Leave Link  303 at Tue Apr 23 21:50:21 2019, MaxMem=   671088640 cpu:               0.5 elap:               0.0
 (Enter /shared/centos7/gaussian/g16/l401.exe)
 Initial guess from the checkpoint file:  "/scratch/underkoffler.c/gaussian_scratch/Gau-10458.chk"
 B after Tr=     0.000000    0.000000    0.000000
         Rot=    0.999999    0.001235    0.000814   -0.000887 Ang=   0.20 deg.
 Guess basis will be translated and rotated to current coordinates.
 JPrj=2 DoOrth=T DoCkMO=T.
 Generating alternative initial guess.
 ExpMin= 4.38D-02 ExpMax= 8.59D+03 ExpMxC= 1.30D+03 IAcc=2 IRadAn=         4 AccDes= 0.00D+00
 Harris functional with IExCor= 1009 and IRadAn=       4 diagonalized for initial guess.
 HarFok:  IExCor= 1009 AccDes= 0.00D+00 IRadAn=         4 IDoV= 1 UseB2=F ITyADJ=14
 ICtDFT=  3500011 ScaDFX=  1.000000  1.000000  1.000000  1.000000
 FoFCou: FMM=F IPFlag=           0 FMFlag=      100000 FMFlg1=           0
         NFxFlg=           0 DoJE=T BraDBF=F KetDBF=T FulRan=T
         wScrn=  0.000000 ICntrl=       500 IOpCl=  0 I1Cent=   200000004 NGrid=           0
         NMat0=    1 NMatS0=      1 NMatT0=    0 NMatD0=    1 NMtDS0=    0 NMtDT0=    0
 Petite list used in FoFCou.
 Harris En= -233.601418016577    
 Leave Link  401 at Tue Apr 23 21:50:22 2019, MaxMem=   671088640 cpu:              13.2 elap:               0.7
 (Enter /shared/centos7/gaussian/g16/l502.exe)
 Integral symmetry usage will be decided dynamically.
 Closed shell SCF:
 Using DIIS extrapolation, IDIIS=  1040.
 NGot=   671088640 LenX=   670917793 LenY=   670836127
 Requested convergence on RMS density matrix=1.00D-08 within 128 cycles.
 Requested convergence on MAX density matrix=1.00D-06.
 Requested convergence on             energy=1.00D-06.
 No special actions if energy rises.
 Fock matrices will be formed incrementally for  20 cycles.

 Cycle   1  Pass 1  IDiag  1:
 FoFJK:  IHMeth= 1 ICntrl=       0 DoSepK=F KAlg= 0 I1Cent=           0 FoldK=F
 IRaf= 970000000 NMat=       1 IRICut=       1 DoRegI=T DoRafI=F ISym2E= 0 IDoP0=0 IntGTp=1.
 FoFCou: FMM=F IPFlag=           0 FMFlag=      100000 FMFlg1=           0
         NFxFlg=           0 DoJE=F BraDBF=F KetDBF=F FulRan=T
         wScrn=  0.000000 ICntrl=         0 IOpCl=  0 I1Cent=           0 NGrid=           0
         NMat0=    1 NMatS0=      1 NMatT0=    0 NMatD0=    1 NMtDS0=    0 NMtDT0=    0
 Symmetry not used in FoFCou.
 E= -233.629848799017    
 DIIS: error= 1.79D-03 at cycle   1 NSaved=   1.
 NSaved= 1 IEnMin= 1 EnMin= -233.629848799017     IErMin= 1 ErrMin= 1.79D-03
 ErrMax= 1.79D-03  0.00D+00 EMaxC= 1.00D-01 BMatC= 1.45D-03 BMatP= 1.45D-03
 IDIUse=3 WtCom= 9.82D-01 WtEn= 1.79D-02
 Coeff-Com:  0.100D+01
 Coeff-En:   0.100D+01
 Coeff:      0.100D+01
 Gap=     0.643 Goal=   None    Shift=    0.000
 GapD=    0.643 DampG=2.000 DampE=1.000 DampFc=2.0000 IDamp=-1.
 RMSDP=3.06D-04 MaxDP=1.03D-02              OVMax= 1.00D-02

 Cycle   2  Pass 1  IDiag  1:
 RMSU=  3.06D-04    CP:  9.99D-01
 E= -233.631534346235     Delta-E=       -0.001685547218 Rises=F Damp=F
 DIIS: error= 4.64D-04 at cycle   2 NSaved=   2.
 NSaved= 2 IEnMin= 2 EnMin= -233.631534346235     IErMin= 2 ErrMin= 4.64D-04
 ErrMax= 4.64D-04  0.00D+00 EMaxC= 1.00D-01 BMatC= 4.00D-05 BMatP= 1.45D-03
 IDIUse=3 WtCom= 9.95D-01 WtEn= 4.64D-03
 Coeff-Com: -0.748D-01 0.107D+01
 Coeff-En:   0.000D+00 0.100D+01
 Coeff:     -0.744D-01 0.107D+01
 Gap=     0.361 Goal=   None    Shift=    0.000
 RMSDP=6.40D-05 MaxDP=2.24D-03 DE=-1.69D-03 OVMax= 2.69D-03

 Cycle   3  Pass 1  IDiag  1:
 RMSU=  5.78D-05    CP:  9.98D-01  1.09D+00
 E= -233.631594430301     Delta-E=       -0.000060084066 Rises=F Damp=F
 DIIS: error= 1.89D-04 at cycle   3 NSaved=   3.
 NSaved= 3 IEnMin= 3 EnMin= -233.631594430301     IErMin= 3 ErrMin= 1.89D-04
 ErrMax= 1.89D-04  0.00D+00 EMaxC= 1.00D-01 BMatC= 1.25D-05 BMatP= 4.00D-05
 IDIUse=3 WtCom= 9.98D-01 WtEn= 1.89D-03
 Coeff-Com: -0.468D-01 0.382D+00 0.664D+00
 Coeff-En:   0.000D+00 0.000D+00 0.100D+01
 Coeff:     -0.467D-01 0.382D+00 0.665D+00
[...]
           D13         62.99051  63.19093
           D14        -57.40037 -57.28864
           D15       -176.05609-176.05587
           D16       -174.72482-174.65715
           D17         64.88431  64.86328
           D18        -53.77142 -53.90395
           D19        -58.42907 -58.70645
           D20       -178.81994-179.18602
           D21         62.52433  62.04675
           D22         59.23422  60.13162
           D23        179.33974-179.72190
           D24        -60.14532 -59.34267
           D25       -178.59509-178.50014
           D26        -58.48957 -58.35366
           D27         62.02537  62.02557
           D28        -62.11636 -61.41173
           D29         57.98915  58.73475
           D30        178.50410 179.11398
 Largest change from initial coordinates is atom   14       0.000 Angstoms.
 GradGradGradGradGradGradGradGradGradGradGradGradGradGradGradGradGradGrad

 Leave Link  103 at Tue Apr 23 22:49:13 2019, MaxMem=   671088640 cpu:               0.7 elap:               0.1
 (Enter /shared/centos7/gaussian/g16/l202.exe)
                          Input orientation:                          
 ---------------------------------------------------------------------
 Center     Atomic      Atomic             Coordinates (Angstroms)
 Number     Number       Type             X           Y           Z
 ---------------------------------------------------------------------
      1          8           0        0.746623    1.874987   -1.067431
      2          6           0        0.344760    0.072831    0.426392
      3          6           0       -1.055920   -0.222825   -0.097925
      4          6           0        1.269903    0.629173   -0.636304
      5          6           0       -1.973800   -0.768297    0.989364
      6          1           0       -0.984589   -0.942645   -0.918106
      7          1           0       -1.476152    0.690309   -0.520541
      8          1           0        0.789502   -0.839786    0.832628
      9          1           0        0.286726    0.792685    1.247173
     10          1           0        1.331007   -0.071986   -1.476754
     11          1           0        2.276961    0.757437   -0.227520
     12          1           0       -2.077047   -0.050284    1.804077
     13          1           0       -2.970191   -0.980768    0.603673
     14          1           0       -1.574296   -1.691691    1.411881
     15          1           0        1.307292    2.235322   -1.755628
 ---------------------------------------------------------------------
                    Distance matrix (angstroms):
                    1          2          3          4          5
     1  O    0.000000
     2  C    2.375029   0.000000
     3  C    2.930856   1.524541   0.000000
     4  C    1.418360   1.514836   2.534799   0.000000
     5  C    4.314865   2.529853   1.523890   3.888101   0.000000
     6  H    3.310354   2.146168   1.093584   2.762745   2.155778
     7  H    2.577456   2.143288   1.090419   2.749174   2.157544
     8  H    3.313919   1.093478   2.156884   2.132226   2.768667
     9  H    2.596203   1.093269   2.154819   2.130929   2.759186
    10  H    2.073585   2.148399   2.760678   1.096227   4.181906
    11  H    2.072752   2.151671   3.476464   1.094404   4.677355
    12  H    4.463781   2.788965   2.165660   4.197523   1.090852
    13  H    4.976206   3.482872   2.175121   4.701899   1.089356
    14  H    4.924920   2.787024   2.169284   4.203682   1.091230
    15  H    0.958022   3.219324   3.791469   1.958060   5.227071
                    6          7          8          9         10
     6  H    0.000000
     7  H    1.751065   0.000000
     8  H    2.494604   3.050483   0.000000
     9  H    3.052219   2.498605   1.757724   0.000000
    10  H    2.536162   3.061957   2.493189   3.042689   0.000000
    11  H    3.742312   3.765133   2.426432   2.477297   1.772951
    12  H    3.065951   2.512648   3.127959   2.570634   4.730661
    13  H    2.501975   2.507689   3.769295   3.763872   4.863575
    14  H    2.517472   3.068845   2.578529   3.108481   4.405501
    15  H    4.006699   3.414684   4.052588   3.484188   2.324221
                   11         12         13         14         15
    11  H    0.000000
    12  H    4.872083   0.000000
    13  H    5.589709   1.761952   0.000000
    14  H    4.849541   1.760908   1.762707   0.000000
    15  H    2.336561   5.417494   5.848623   5.810171   0.000000
 Stoichiometry    C4H10O
 Framework group  C1[X(C4H10O)]
 Deg. of freedom    39
 Full point group                 C1      NOp   1
 RotChk:  IX=0 Diff= 9.20D-16
 Largest Abelian subgroup         C1      NOp   1
 Largest concise Abelian subgroup C1      NOp   1
                         Standard orientation:                         
 ---------------------------------------------------------------------
 Center     Atomic      Atomic             Coordinates (Angstroms)
 Number     Number       Type             X           Y           Z
 ---------------------------------------------------------------------
      1          8           0        1.893072   -0.730906   -0.256944
      2          6           0        0.000136    0.703165   -0.225377
      3          6           0       -0.947580   -0.342600    0.351193
      4          6           0        1.433117    0.519275    0.230121
      5          6           0       -2.380344   -0.147936   -0.129988
      6          1           0       -0.913180   -0.290994    1.443017
      7          1           0       -0.590491   -1.335143    0.074859
      8          1           0       -0.331608    1.704313    0.063316
      9          1           0       -0.024802    0.660912   -1.317545
     10          1           0        1.478718    0.543899    1.325122
     11          1           0        2.056368    1.332829   -0.153818
     12          1           0       -2.436596   -0.222979   -1.216802
     13          1           0       -3.050068   -0.896767    0.291223
     14          1           0       -2.757901    0.836044    0.152880
     15          1           0        2.793018   -0.876292    0.037616
 ---------------------------------------------------------------------
 Rotational constants (GHZ):          12.5688936           2.4014593           2.2138757
 Leave Link  202 at Tue Apr 23 22:49:13 2019, MaxMem=   671088640 cpu:               0.3 elap:               0.0
 (Enter /shared/centos7/gaussian/g16/l601.exe)
 Copying SCF densities to generalized density rwf, IOpCl= 0 IROHF=0.

 **********************************************************************

            Population analysis using the SCF density.

 **********************************************************************

 Orbital symmetries:
       Occupied  (A) (A) (A) (A) (A) (A) (A) (A) (A) (A) (A) (A)
                 (A) (A) (A) (A) (A) (A) (A) (A) (A)
       Virtual   (A) (A) (A) (A) (A) (A) (A) (A) (A) (A) (A) (A)
                 (A) (A) (A) (A) (A) (A) (A) (A) (A) (A) (A) (A)
                 (A) (A) (A) (A) (A) (A) (A) (A) (A) (A) (A) (A)
                 (A) (A) (A) (A) (A) (A) (A) (A) (A) (A) (A) (A)
                 (A) (A) (A) (A) (A) (A) (A) (A) (A) (A) (A) (A)
                 (A) (A) (A) (A) (A) (A) (A) (A) (A) (A) (A) (A)
                 (A) (A) (A) (A) (A) (A) (A) (A) (A) (A) (A) (A)
                 (A) (A) (A) (A) (A) (A) (A) (A) (A) (A) (A) (A)
                 (A) (A) (A) (A) (A) (A) (A) (A) (A) (A) (A) (A)
                 (A) (A) (A) (A) (A) (A) (A) (A) (A) (A) (A) (A)
                 (A) (A) (A) (A) (A) (A) (A) (A) (A) (A) (A) (A)
                 (A) (A) (A) (A) (A) (A) (A) (A) (A) (A) (A) (A)
                 (A) (A) (A) (A) (A) (A) (A) (A) (A) (A) (A) (A)
                 (A) (A) (A) (A) (A) (A) (A) (A) (A) (A) (A) (A)
                 (A) (A) (A) (A) (A) (A) (A) (A) (A) (A) (A) (A)
                 (A) (A) (A) (A) (A) (A) (A) (A) (A) (A) (A) (A)
                 (A) (A) (A) (A) (A) (A) (A) (A) (A) (A) (A) (A)
                 (A) (A) (A) (A) (A) (A) (A) (A) (A) (A) (A) (A)
                 (A) (A) (A) (A) (A) (A) (A) (A) (A) (A) (A) (A)
                 (A) (A) (A) (A) (A) (A) (A) (A) (A) (A) (A)
 The electronic state is 1-A.
 Alpha  occ. eigenvalues --  -19.61953 -10.57862 -10.52543 -10.52138 -10.51629
 Alpha  occ. eigenvalues --   -1.14352  -0.89185  -0.81399  -0.71333  -0.65701
 Alpha  occ. eigenvalues --   -0.59979  -0.53701  -0.51382  -0.50073  -0.45569
 Alpha  occ. eigenvalues --   -0.44160  -0.42680  -0.39551  -0.38463  -0.37871
 Alpha  occ. eigenvalues --   -0.34703
 Alpha virt. eigenvalues --    0.01274   0.02685   0.03452   0.03992   0.05675
 Alpha virt. eigenvalues --    0.06156   0.06632   0.08093   0.08657   0.09167
 Alpha virt. eigenvalues --    0.10242   0.10964   0.13184   0.15203   0.16368
 Alpha virt. eigenvalues --    0.17753   0.18634   0.19795   0.21053   0.21176
 Alpha virt. eigenvalues --    0.22300   0.23121   0.23799   0.25010   0.25957
 Alpha virt. eigenvalues --    0.26992   0.27647   0.28556   0.29205   0.30367
 Alpha virt. eigenvalues --    0.31133   0.31737   0.34215   0.37549   0.42443
 Alpha virt. eigenvalues --    0.43299   0.45423   0.46199   0.47549   0.49585
 Alpha virt. eigenvalues --    0.52715   0.53555   0.55068   0.56330   0.57327
 Alpha virt. eigenvalues --    0.58052   0.59185   0.60465   0.61770   0.62712
 Alpha virt. eigenvalues --    0.63212   0.64876   0.65147   0.66082   0.68246
 Alpha virt. eigenvalues --    0.69635   0.70416   0.72204   0.74834   0.78525
 Alpha virt. eigenvalues --    0.80952   0.82304   0.83575   0.85629   0.88093
 Alpha virt. eigenvalues --    0.88925   0.92745   0.94397   0.96351   1.01286
 Alpha virt. eigenvalues --    1.04457   1.04782   1.06581   1.10187   1.12042
 Alpha virt. eigenvalues --    1.13362   1.14064   1.17258   1.18213   1.18950
 Alpha virt. eigenvalues --    1.19436   1.20815   1.22241   1.24419   1.25508
 Alpha virt. eigenvalues --    1.26665   1.27741   1.29771   1.31105   1.32211
 Alpha virt. eigenvalues --    1.35997   1.37884   1.39779   1.40994   1.42284
 Alpha virt. eigenvalues --    1.44011   1.44927   1.46303   1.47182   1.48828
 Alpha virt. eigenvalues --    1.49349   1.54065   1.54929   1.56661   1.58579
 Alpha virt. eigenvalues --    1.60205   1.61856   1.63032   1.64299   1.65860
 Alpha virt. eigenvalues --    1.68985   1.69957   1.74421   1.85143   1.91331
 Alpha virt. eigenvalues --    2.09844   2.13036   2.27769   2.35047   2.41344
 Alpha virt. eigenvalues --    2.47825   2.50424   2.51994   2.55984   2.58032
 Alpha virt. eigenvalues --    2.63276   2.67319   2.75830   2.76979   2.79086
 Alpha virt. eigenvalues --    2.81359   2.84165   2.85753   2.89569   2.91520
 Alpha virt. eigenvalues --    2.94325   2.95893   2.99490   3.04361   3.04544
 Alpha virt. eigenvalues --    3.09339   3.14332   3.15432   3.16711   3.17901
 Alpha virt. eigenvalues --    3.22635   3.24141   3.26575   3.27877   3.32367
 Alpha virt. eigenvalues --    3.35153   3.36085   3.38983   3.39185   3.40356
 Alpha virt. eigenvalues --    3.45553   3.46837   3.52659   3.54035   3.56900
 Alpha virt. eigenvalues --    3.58849   3.59783   3.61628   3.62901   3.66196
 Alpha virt. eigenvalues --    3.70614   3.70862   3.72350   3.76059   3.78035
 Alpha virt. eigenvalues --    3.79672   3.84664   3.87977   3.89137   3.92659
 Alpha virt. eigenvalues --    3.97138   3.99275   4.01228   4.02401   4.03130
 Alpha virt. eigenvalues --    4.04985   4.08506   4.09815   4.14731   4.15705
 Alpha virt. eigenvalues --    4.19457   4.21050   4.23123   4.24527   4.25934
 Alpha virt. eigenvalues --    4.28406   4.30026   4.32082   4.33140   4.36595
 Alpha virt. eigenvalues --    4.39790   4.44021   4.44665   4.48119   4.53438
 Alpha virt. eigenvalues --    4.53917   4.56099   4.57378   4.60559   4.63890
 Alpha virt. eigenvalues --    4.65818   4.68284   4.79830   4.80778   5.02495
 Alpha virt. eigenvalues --    5.20081   5.21324   5.23311   5.28016   5.36285
 Alpha virt. eigenvalues --    5.41978   5.47048   5.49679   5.53871   5.54633
 Alpha virt. eigenvalues --    5.59708   5.60262   5.65817   5.67623   5.70073
 Alpha virt. eigenvalues --    5.84826   5.94509   6.49646   6.98560   7.17292
 Alpha virt. eigenvalues --    7.21314   7.24416   7.55768   7.65316  24.28221
 Alpha virt. eigenvalues --   24.39454  24.44805  24.51534  50.15263
          Condensed to atoms (all electrons):
               1          2          3          4          5          6
     1  O    8.154744  -0.082958  -0.003202   0.152276  -0.000368  -0.001200
     2  C   -0.082958   5.713684  -0.220024  -0.007019   0.168963  -0.031286
     3  C   -0.003202  -0.220024   5.518421   0.160568   0.019718   0.429003
     4  C    0.152276  -0.007019   0.160568   5.255415  -0.108091  -0.014842
     5  C   -0.000368   0.168963   0.019718  -0.108091   5.293658  -0.029402
     6  H   -0.001200  -0.031286   0.429003  -0.014842  -0.029402   0.539067
     7  H   -0.006109  -0.062319   0.476517   0.011017  -0.057035  -0.034057
     8  H    0.008921   0.395702  -0.004742  -0.016027  -0.018208  -0.007517
     9  H   -0.009803   0.496841  -0.084553  -0.062185   0.007497   0.005181
    10  H   -0.049861   0.005691  -0.046980   0.433433   0.006466   0.002776
    11  H   -0.043767  -0.074475   0.023261   0.465215  -0.000637   0.000098
    12  H   -0.000285  -0.010385  -0.032655  -0.003554   0.420500   0.006225
    13  H    0.000093   0.020740  -0.048063   0.002469   0.409597  -0.004589
    14  H   -0.000107  -0.031953   0.006815   0.003054   0.393359  -0.008275
    15  H    0.231115  -0.030465   0.008424   0.027506  -0.001818  -0.000103
               7          8          9         10         11         12
     1  O   -0.006109   0.008921  -0.009803  -0.049861  -0.043767  -0.000285
     2  C   -0.062319   0.395702   0.496841   0.005691  -0.074475  -0.010385
     3  C    0.476517  -0.004742  -0.084553  -0.046980   0.023261  -0.032655
     4  C    0.011017  -0.016027  -0.062185   0.433433   0.465215  -0.003554
     5  C   -0.057035  -0.018208   0.007497   0.006466  -0.000637   0.420500
     6  H   -0.034057  -0.007517   0.005181   0.002776   0.000098   0.006225
     7  H    0.494724   0.004361  -0.003504   0.001201  -0.000806  -0.006816
     8  H    0.004361   0.518091  -0.028913  -0.005013  -0.003304  -0.000577
     9  H   -0.003504  -0.028913   0.489919   0.006025  -0.006731   0.001342
    10  H    0.001201  -0.005013   0.006025   0.561161  -0.046489  -0.000014
    11  H   -0.000806  -0.003304  -0.006731  -0.046489   0.556411  -0.000004
    12  H   -0.006816  -0.000577   0.001342  -0.000014  -0.000004   0.550987
    13  H   -0.004628  -0.000008  -0.000089  -0.000024   0.000015  -0.024330
    14  H    0.006008   0.002524  -0.000433  -0.000014  -0.000039  -0.038819
    15  H   -0.000014  -0.000280   0.000233  -0.006994  -0.005093  -0.000003
              13         14         15
     1  O    0.000093  -0.000107   0.231115
     2  C    0.020740  -0.031953  -0.030465
     3  C   -0.048063   0.006815   0.008424
     4  C    0.002469   0.003054   0.027506
     5  C    0.409597   0.393359  -0.001818
     6  H   -0.004589  -0.008275  -0.000103
     7  H   -0.004628   0.006008  -0.000014
     8  H   -0.000008   0.002524  -0.000280
     9  H   -0.000089  -0.000433   0.000233
    10  H   -0.000024  -0.000014  -0.006994
    11  H    0.000015  -0.000039  -0.005093
    12  H   -0.024330  -0.038819  -0.000003
    13  H    0.540379  -0.025632  -0.000001
    14  H   -0.025632   0.561331   0.000004
    15  H   -0.000001   0.000004   0.525493
 Mulliken charges:
               1
     1  O   -0.349489
     2  C   -0.250736
     3  C   -0.202507
     4  C   -0.299235
     5  C   -0.504199
     6  H    0.148920
     7  H    0.181462
     8  H    0.154990
     9  H    0.189175
    10  H    0.138637
    11  H    0.136346
    12  H    0.138389
    13  H    0.134073
    14  H    0.132179
    15  H    0.251996
 Sum of Mulliken charges =  -0.00000
 Mulliken charges with hydrogens summed into heavy atoms:
               1
     1  O   -0.097493
     2  C    0.093429
     3  C    0.127876
     4  C   -0.024252
     5  C   -0.099559
 Electronic spatial extent (au):  <R**2>=            597.8148
 Charge=             -0.0000 electrons
 Dipole moment (field-independent basis, Debye):
    X=              0.8777    Y=              0.9002    Z=              0.8866  Tot=              1.5384
 Quadrupole moment (field-independent basis, Debye-Ang):
   XX=            -28.9074   YY=            -34.0732   ZZ=            -33.9871
   XY=              0.4376   XZ=              1.8054   YZ=             -0.5455
 Traceless Quadrupole moment (field-independent basis, Debye-Ang):
   XX=              3.4152   YY=             -1.7506   ZZ=             -1.6645
   XY=              0.4376   XZ=              1.8054   YZ=             -0.5455
 Octapole moment (field-independent basis, Debye-Ang**2):
  XXX=             34.0096  YYY=             -2.0634  ZZZ=             -0.4025  XYY=              3.1552
  XXY=             -5.2672  XXZ=              4.4576  XZZ=              1.9378  YZZ=             -0.4966
  YYZ=              0.4596  XYZ=             -1.7668
 Hexadecapole moment (field-independent basis, Debye-Ang**3):
 XXXX=           -526.0141 YYYY=           -124.4530 ZZZZ=            -76.6243 XXXY=            -23.5481
 XXXZ=              4.0113 YYYX=             -6.9032 YYYZ=              1.1655 ZZZX=              1.5959
 ZZZY=              0.2694 XXYY=           -112.5922 XXZZ=           -115.4863 YYZZ=            -36.0710
 XXYZ=             -3.8709 YYXZ=             -1.5397 ZZXY=             -0.5537
 N-N= 1.887568039829D+02 E-N=-9.220747428001D+02  KE= 2.327040825059D+02
 No NMR shielding tensors so no spin-rotation constants.
 Leave Link  601 at Tue Apr 23 22:49:13 2019, MaxMem=   671088640 cpu:               4.8 elap:               0.3
 (Enter /shared/centos7/gaussian/g16/l9999.exe)
 1\1\GINC-C0287\Scan\RM062X\6-311+G(2df,2p)\C4H10O1\UNDERKOFFLER.C\23-A
 pr-2019\0\\#p m062x/6-311+g(2df,2p) Opt=(CalcFC,ModRedun)\\Gaussian In
 put Prepared from Scan Object\\0,1\O,0.7466229322,1.8749869207,-1.0674
 305758\C,0.3447602504,0.0728312803,0.4263921519\C,-1.0559195843,-0.222
 8253886,-0.0979248155\C,1.2699034384,0.6291733172,-0.6363035479\C,-1.9
 738003651,-0.7682966498,0.9893642194\H,-0.9845891139,-0.9426446565,-0.
 9181064556\H,-1.4761520184,0.690308759,-0.5205406225\H,0.7895017329,-0
 .8397861529,0.8326284903\H,0.2867255157,0.7926849081,1.2471725647\H,1.
 3310071486,-0.0719856787,-1.4767539361\H,2.2769612748,0.7574370893,-0.
 2275204062\H,-2.0770474064,-0.0502838172,1.8040768777\H,-2.9701907764,
 -0.9807680955,0.6036728057\H,-1.5742956208,-1.6916912663,1.4118809423\
 H,1.3072915923,2.235322431,-1.7556276923\\Version=EM64L-G16RevA.03\Sta
 te=1-A\HF=-233.6332366,-233.6329608,-233.6321731,-233.6310434,-233.629
 885,-233.6291328,-233.629064,-233.6295813,-233.6302562,-233.6307512,-2
 33.6309211,-233.6307181,-233.6301632,-233.6293059,-233.6282317,-233.62
 6999,-233.6257404,-233.6248757,-233.6252324,-233.6268355,-233.6287616,
 -233.6304207,-233.6316095,-233.6323189,-233.6326025,-233.6324845,-233.
 6319562,-233.6310477,-233.6299366,-233.6289759,-233.6285694,-233.62893
 24,-233.6298889,-233.6310845,-233.6321898,-233.6329597,-233.6332364\RM
 SD=8.768e-09,7.573e-09,8.257e-09,9.652e-09,5.868e-09,7.021e-09,7.575e-
 09,4.891e-09,7.356e-09,6.545e-09,5.984e-09,5.148e-09,7.931e-09,2.874e-
 09,9.452e-09,9.767e-09,8.240e-09,7.596e-09,9.915e-09,3.859e-09,5.774e-
 09,9.677e-09,9.286e-09,4.176e-09,5.379e-09,4.093e-09,7.222e-09,6.266e-
 09,5.133e-09,9.807e-09,5.752e-09,7.797e-09,2.199e-09,1.969e-09,7.407e-
 09,7.075e-09,7.467e-09\PG=C01 [X(C4H10O1)]\\@


 MEN HAVE BECOME THE TOOLS OF THEIR TOOLS... THOREAU   
 Job cpu time:       0 days 20 hours 19 minutes 28.6 seconds.
 Elapsed time:       0 days  1 hours  1 minutes 49.2 seconds.
 File lengths (MBytes):  RWF=   1328 Int=      0 D2E=      0 Chk=     32 Scr=     32
 Normal termination of Gaussian 16 at Tue Apr 23 22:49:14 2019.
