 Entering Gaussian System, Link 0=g16
 Input=LRHPLDYGYMQRHN-UHFFFAOYSA-N_GeoFreq_a2.com
 Output=LRHPLDYGYMQRHN-UHFFFAOYSA-N_GeoFreq_a2.log
 Initial command:
 /shared/centos7/gaussian/g16/l1.exe "/scratch/underkoffler.c/gaussian_scratch/Gau-36570.inp" -scrdir="/scratch/underkoffler.c/gaussian_scratch/"
 Entering Link 1 = /shared/centos7/gaussian/g16/l1.exe PID=     36571.
  
 Copyright (c) 1988,1990,1992,1993,1995,1998,2003,2009,2016,
            Gaussian, Inc.  All Rights Reserved.
  
 This is part of the Gaussian(R) 16 program.  It is based on
 the Gaussian(R) 09 system (copyright 2009, Gaussian, Inc.),
 the Gaussian(R) 03 system (copyright 2003, Gaussian, Inc.),
 the Gaussian(R) 98 system (copyright 1998, Gaussian, Inc.),
 the Gaussian(R) 94 system (copyright 1995, Gaussian, Inc.),
 the Gaussian 92(TM) system (copyright 1992, Gaussian, Inc.),
 the Gaussian 90(TM) system (copyright 1990, Gaussian, Inc.),
 the Gaussian 88(TM) system (copyright 1988, Gaussian, Inc.),
 the Gaussian 86(TM) system (copyright 1986, Carnegie Mellon
 University), and the Gaussian 82(TM) system (copyright 1983,
 Carnegie Mellon University). Gaussian is a federally registered
 trademark of Gaussian, Inc.
  
 This software contains proprietary and confidential information,
 including trade secrets, belonging to Gaussian, Inc.
  
 This software is provided under written license and may be
 used, copied, transmitted, or stored only in accord with that
 written license.
  
 The following legend is applicable only to US Government
 contracts under FAR:
  
                    RESTRICTED RIGHTS LEGEND
  
 Use, reproduction and disclosure by the US Government is
 subject to restrictions as set forth in subparagraphs (a)
 and (c) of the Commercial Computer Software - Restricted
 Rights clause in FAR 52.227-19.
  
 Gaussian, Inc.
 340 Quinnipiac St., Bldg. 40, Wallingford CT 06492
  
  
 ---------------------------------------------------------------
 Warning -- This program may not be used in any manner that
 competes with the business of Gaussian, Inc. or will provide
 assistance to any competitor of Gaussian, Inc.  The licensee
 of this program is prohibited from giving any competitor of
 Gaussian, Inc. access to this program.  By using this program,
 the user acknowledges that Gaussian, Inc. is engaged in the
 business of creating and licensing software in the field of
 computational chemistry and represents and warrants to the
 licensee that it is not a competitor of Gaussian, Inc. and that
 it will not use this program in any manner prohibited above.
 ---------------------------------------------------------------
  

 Cite this work as:
 Gaussian 16, Revision A.03,
 M. J. Frisch, G. W. Trucks, H. B. Schlegel, G. E. Scuseria, 
 M. A. Robb, J. R. Cheeseman, G. Scalmani, V. Barone, 
 G. A. Petersson, H. Nakatsuji, X. Li, M. Caricato, A. V. Marenich, 
 J. Bloino, B. G. Janesko, R. Gomperts, B. Mennucci, H. P. Hratchian, 
 J. V. Ortiz, A. F. Izmaylov, J. L. Sonnenberg, D. Williams-Young, 
 F. Ding, F. Lipparini, F. Egidi, J. Goings, B. Peng, A. Petrone, 
 T. Henderson, D. Ranasinghe, V. G. Zakrzewski, J. Gao, N. Rega, 
 G. Zheng, W. Liang, M. Hada, M. Ehara, K. Toyota, R. Fukuda, 
 J. Hasegawa, M. Ishida, T. Nakajima, Y. Honda, O. Kitao, H. Nakai, 
 T. Vreven, K. Throssell, J. A. Montgomery, Jr., J. E. Peralta, 
 F. Ogliaro, M. J. Bearpark, J. J. Heyd, E. N. Brothers, K. N. Kudin, 
 V. N. Staroverov, T. A. Keith, R. Kobayashi, J. Normand, 
 K. Raghavachari, A. P. Rendell, J. C. Burant, S. S. Iyengar, 
 J. Tomasi, M. Cossi, J. M. Millam, M. Klene, C. Adamo, R. Cammi, 
 J. W. Ochterski, R. L. Martin, K. Morokuma, O. Farkas, 
 J. B. Foresman, and D. J. Fox, Gaussian, Inc., Wallingford CT, 2016.
 
 ******************************************
 Gaussian 16:  EM64L-G16RevA.03 25-Dec-2016
                12-Mar-2019 
 ******************************************
 %nprocshared=20
 Will use up to   20 processors via shared memory.
 %mem=5GB
 ----------------------------------------------------------------------
 #p m062x/6-311+g(2df,2p) opt=(calcfc,verytight,gdiis,maxcycles=900) fr
 eq iop(7/33=1,2/16=3)
 ----------------------------------------------------------------------

 Warning!  Use of Opt=GDIIS is deprecated since it is seldom a good choice.

 1/6=900,7=1,10=4,18=20,19=11,26=3,38=1/1,3;
 2/9=110,12=2,16=3,17=6,18=5,40=1/2;
 3/5=4,6=6,7=214,11=2,25=1,30=1,71=2,74=-55,140=1/1,2,3;
 4//1;
 5/5=2,38=5/2;
 8/6=4,10=90,11=11/1;
 11/6=1,8=1,9=11,15=111,16=1/1,2,10;
 10/6=1,13=1/2;
 6/7=2,8=2,9=2,10=2,28=1/1;
 7/10=1,18=20,25=1,33=1/1,2,3,16;
 1/6=900,7=1,10=4,18=20,19=11,26=3/3(2);
 2/9=110,16=3/2;
 99//99;
 2/9=110,16=3/2;
 3/5=4,6=6,7=214,11=2,25=1,30=1,71=1,74=-55/1,2,3;
 4/5=5,16=3,69=1/1;
 5/5=2,38=5/2;
 7/33=1/1,2,3,16;
 1/6=900,7=1,18=20,19=11,26=3/3(-5);
 2/9=110,16=3/2;
 6/7=2,8=2,9=2,10=2,19=2,28=1/1;
 99/9=1/99;
 Leave Link    1 at Tue Mar 12 23:12:35 2019, MaxMem=   671088640 cpu:              30.3 elap:               1.6
 (Enter /shared/centos7/gaussian/g16/l101.exe)
 ------------------------------
 Gaussian input prepared by ASE
 ------------------------------
 Symbolic Z-matrix:
 Charge =  0 Multiplicity = 1
 O                     1.88958  -0.73575  -0.24754 
 C                     0.00053   0.70358  -0.22645 
 C                    -0.94712  -0.34246   0.34992 
 C                     1.43328   0.51946   0.23004 
 C                    -2.38026  -0.14743  -0.12996 
 H                    -0.91197  -0.29246   1.44181 
 H                    -0.58989  -1.33448   0.07212 
 H                    -0.33142   1.70429   0.06351 
 H                    -0.02462   0.66153  -1.31855 
 H                     1.47714   0.55072   1.32508 
 H                     2.05827   1.32897  -0.15907 
 H                    -2.43727  -0.22063  -1.21688 
 H                    -3.04947  -0.89723   0.29035 
 H                    -2.75779   0.83598   0.15491 
 H                     2.81177  -0.84964  -0.01431 
 
 ITRead=  0  0  0  0  0  0  0  0  0  0  0  0  0  0  0
 MicOpt= -1 -1 -1 -1 -1 -1 -1 -1 -1 -1 -1 -1 -1 -1 -1
 NAtoms=     15 NQM=       15 NQMF=       0 NMMI=      0 NMMIF=      0
                NMic=       0 NMicF=      0.
                    Isotopes and Nuclear Properties:
 (Nuclear quadrupole moments (NQMom) in fm**2, nuclear magnetic moments (NMagM)
  in nuclear magnetons)

  Atom         1           2           3           4           5           6           7           8           9          10
 IAtWgt=          16          12          12          12          12           1           1           1           1           1
 AtmWgt=  15.9949146  12.0000000  12.0000000  12.0000000  12.0000000   1.0078250   1.0078250   1.0078250   1.0078250   1.0078250
 NucSpn=           0           0           0           0           0           1           1           1           1           1
 AtZEff=  -0.0000000  -0.0000000  -0.0000000  -0.0000000  -0.0000000  -0.0000000  -0.0000000  -0.0000000  -0.0000000  -0.0000000
 NQMom=    0.0000000   0.0000000   0.0000000   0.0000000   0.0000000   0.0000000   0.0000000   0.0000000   0.0000000   0.0000000
 NMagM=    0.0000000   0.0000000   0.0000000   0.0000000   0.0000000   2.7928460   2.7928460   2.7928460   2.7928460   2.7928460
 AtZNuc=   8.0000000   6.0000000   6.0000000   6.0000000   6.0000000   1.0000000   1.0000000   1.0000000   1.0000000   1.0000000

  Atom        11          12          13          14          15
 IAtWgt=           1           1           1           1           1
 AtmWgt=   1.0078250   1.0078250   1.0078250   1.0078250   1.0078250
 NucSpn=           1           1           1           1           1
 AtZEff=  -0.0000000  -0.0000000  -0.0000000  -0.0000000  -0.0000000
 NQMom=    0.0000000   0.0000000   0.0000000   0.0000000   0.0000000
 NMagM=    2.7928460   2.7928460   2.7928460   2.7928460   2.7928460
 AtZNuc=   1.0000000   1.0000000   1.0000000   1.0000000   1.0000000
 Leave Link  101 at Tue Mar 12 23:12:35 2019, MaxMem=   671088640 cpu:               4.4 elap:               0.2
 (Enter /shared/centos7/gaussian/g16/l103.exe)

 GradGradGradGradGradGradGradGradGradGradGradGradGradGradGradGradGradGrad
 Berny optimization.
 Initialization pass.
                           ----------------------------
                           !    Initial Parameters    !
                           ! (Angstroms and Degrees)  !
 --------------------------                            --------------------------
 ! Name  Definition              Value          Derivative Info.                !
 --------------------------------------------------------------------------------
 ! R1    R(1,4)                  1.4184         calculate D2E/DX2 analytically  !
 ! R2    R(1,15)                 0.958          calculate D2E/DX2 analytically  !
 ! R3    R(2,3)                  1.5246         calculate D2E/DX2 analytically  !
 ! R4    R(2,4)                  1.5149         calculate D2E/DX2 analytically  !
 ! R5    R(2,8)                  1.0935         calculate D2E/DX2 analytically  !
 ! R6    R(2,9)                  1.0932         calculate D2E/DX2 analytically  !
 ! R7    R(3,5)                  1.5239         calculate D2E/DX2 analytically  !
 ! R8    R(3,6)                  1.0936         calculate D2E/DX2 analytically  !
 ! R9    R(3,7)                  1.0904         calculate D2E/DX2 analytically  !
 ! R10   R(4,10)                 1.0964         calculate D2E/DX2 analytically  !
 ! R11   R(4,11)                 1.0942         calculate D2E/DX2 analytically  !
 ! R12   R(5,12)                 1.0909         calculate D2E/DX2 analytically  !
 ! R13   R(5,13)                 1.0894         calculate D2E/DX2 analytically  !
 ! R14   R(5,14)                 1.0912         calculate D2E/DX2 analytically  !
 ! A1    A(4,1,15)             109.4454         calculate D2E/DX2 analytically  !
 ! A2    A(3,2,4)              112.9882         calculate D2E/DX2 analytically  !
 ! A3    A(3,2,8)              109.8138         calculate D2E/DX2 analytically  !
 ! A4    A(3,2,9)              109.693          calculate D2E/DX2 analytically  !
 ! A5    A(4,2,8)              108.5677         calculate D2E/DX2 analytically  !
 ! A6    A(4,2,9)              108.5477         calculate D2E/DX2 analytically  !
 ! A7    A(8,2,9)              107.0451         calculate D2E/DX2 analytically  !
 ! A8    A(2,3,5)              112.1914         calculate D2E/DX2 analytically  !
 ! A9    A(2,3,6)              109.0328         calculate D2E/DX2 analytically  !
 ! A10   A(2,3,7)              108.9209         calculate D2E/DX2 analytically  !
 ! A11   A(5,3,6)              109.8033         calculate D2E/DX2 analytically  !
 ! A12   A(5,3,7)              110.1404         calculate D2E/DX2 analytically  !
 ! A13   A(6,3,7)              106.5851         calculate D2E/DX2 analytically  !
 ! A14   A(1,4,2)              108.0803         calculate D2E/DX2 analytically  !
 ! A15   A(1,4,10)             110.4054         calculate D2E/DX2 analytically  !
 ! A16   A(1,4,11)             110.5615         calculate D2E/DX2 analytically  !
 ! A17   A(2,4,10)             109.5924         calculate D2E/DX2 analytically  !
 ! A18   A(2,4,11)             110.0667         calculate D2E/DX2 analytically  !
 ! A19   A(10,4,11)            108.1332         calculate D2E/DX2 analytically  !
 ! A20   A(3,5,12)             110.752          calculate D2E/DX2 analytically  !
 ! A21   A(3,5,13)             111.6016         calculate D2E/DX2 analytically  !
 ! A22   A(3,5,14)             111.0083         calculate D2E/DX2 analytically  !
 ! A23   A(12,5,13)            107.8269         calculate D2E/DX2 analytically  !
 ! A24   A(12,5,14)            107.6071         calculate D2E/DX2 analytically  !
 ! A25   A(13,5,14)            107.8805         calculate D2E/DX2 analytically  !
 ! D1    D(15,1,4,2)           176.6451         calculate D2E/DX2 analytically  !
 ! D2    D(15,1,4,10)          -63.4996         calculate D2E/DX2 analytically  !
 ! D3    D(15,1,4,11)           56.1174         calculate D2E/DX2 analytically  !
 ! D4    D(4,2,3,5)           -179.5173         calculate D2E/DX2 analytically  !
 ! D5    D(4,2,3,6)             58.6276         calculate D2E/DX2 analytically  !
 ! D6    D(4,2,3,7)            -57.3132         calculate D2E/DX2 analytically  !
 ! D7    D(8,2,3,5)             59.1164         calculate D2E/DX2 analytically  !
 ! D8    D(8,2,3,6)            -62.7387         calculate D2E/DX2 analytically  !
 ! D9    D(8,2,3,7)           -178.6795         calculate D2E/DX2 analytically  !
 ! D10   D(9,2,3,5)            -58.2629         calculate D2E/DX2 analytically  !
 ! D11   D(9,2,3,6)            179.882          calculate D2E/DX2 analytically  !
 ! D12   D(9,2,3,7)             63.9411         calculate D2E/DX2 analytically  !
 ! D13   D(3,2,4,1)             62.7188         calculate D2E/DX2 analytically  !
 ! D14   D(3,2,4,10)           -57.6467         calculate D2E/DX2 analytically  !
 ! D15   D(3,2,4,11)          -176.4448         calculate D2E/DX2 analytically  !
 ! D16   D(8,2,4,1)           -175.2131         calculate D2E/DX2 analytically  !
 ! D17   D(8,2,4,10)            64.4215         calculate D2E/DX2 analytically  !
 ! D18   D(8,2,4,11)           -54.3766         calculate D2E/DX2 analytically  !
 ! D19   D(9,2,4,1)            -59.1816         calculate D2E/DX2 analytically  !
 ! D20   D(9,2,4,10)          -179.547          calculate D2E/DX2 analytically  !
 ! D21   D(9,2,4,11)            61.6549         calculate D2E/DX2 analytically  !
 ! D22   D(2,3,5,12)            60.0721         calculate D2E/DX2 analytically  !
 ! D23   D(2,3,5,13)          -179.7858         calculate D2E/DX2 analytically  !
 ! D24   D(2,3,5,14)           -59.4013         calculate D2E/DX2 analytically  !
 ! D25   D(6,3,5,12)          -178.5137         calculate D2E/DX2 analytically  !
 ! D26   D(6,3,5,13)           -58.3716         calculate D2E/DX2 analytically  !
 ! D27   D(6,3,5,14)            62.0129         calculate D2E/DX2 analytically  !
 ! D28   D(7,3,5,12)           -61.4358         calculate D2E/DX2 analytically  !
 ! D29   D(7,3,5,13)            58.7063         calculate D2E/DX2 analytically  !
 ! D30   D(7,3,5,14)           179.0908         calculate D2E/DX2 analytically  !
 --------------------------------------------------------------------------------
 Trust Radius=3.00D-01 FncErr=1.00D-07 GrdErr=1.00D-06 EigMax=2.50D+02 EigMin=1.00D-04
 Number of steps in this run=    100 maximum allowed number of steps=    100.
 GradGradGradGradGradGradGradGradGradGradGradGradGradGradGradGradGradGrad

 Leave Link  103 at Tue Mar 12 23:12:35 2019, MaxMem=   671088640 cpu:               0.2 elap:               0.0
 (Enter /shared/centos7/gaussian/g16/l202.exe)
                          Input orientation:                          
 ---------------------------------------------------------------------
 Center     Atomic      Atomic             Coordinates (Angstroms)
 Number     Number       Type             X           Y           Z
 ---------------------------------------------------------------------
      1          8           0        1.889580   -0.735745   -0.247537
      2          6           0        0.000526    0.703582   -0.226448
      3          6           0       -0.947118   -0.342455    0.349920
      4          6           0        1.433281    0.519455    0.230039
      5          6           0       -2.380257   -0.147431   -0.129955
      6          1           0       -0.911965   -0.292464    1.441807
      7          1           0       -0.589887   -1.334477    0.072118
      8          1           0       -0.331417    1.704294    0.063511
      9          1           0       -0.024615    0.661534   -1.318553
     10          1           0        1.477141    0.550716    1.325077
     11          1           0        2.058271    1.328972   -0.159069
     12          1           0       -2.437266   -0.220627   -1.216880
     13          1           0       -3.049467   -0.897231    0.290350
     14          1           0       -2.757794    0.835980    0.154906
     15          1           0        2.811766   -0.849640   -0.014306
 ---------------------------------------------------------------------
                    Distance matrix (angstroms):
                    1          2          3          4          5
     1  O    0.000000
     2  C    2.375001   0.000000
     3  C    2.925489   1.524606   0.000000
     4  C    1.418385   1.514949   2.534474   0.000000
     5  C    4.311780   2.530151   1.523877   3.888111   0.000000
     6  H    3.301369   2.146584   1.093596   2.761842   2.155772
     7  H    2.570684   2.142758   1.090365   2.748675   2.157623
     8  H    3.314117   1.093475   2.156455   2.132073   2.768404
     9  H    2.600693   1.093203   2.154718   2.131615   2.759753
    10  H    2.073211   2.147322   2.761470   1.096362   4.181393
    11  H    2.073485   2.151736   3.476363   1.094228   4.677729
    12  H    4.463919   2.788897   2.165697   4.197908   1.090877
    13  H    4.970874   3.483122   2.175131   4.701666   1.089357
    14  H    4.922435   2.787703   2.169167   4.203682   1.091227
    15  H    0.958017   3.218784   3.810394   1.958149   5.240570
                    6          7          8          9         10
     6  H    0.000000
     7  H    1.750878   0.000000
     8  H    2.494750   3.049756   0.000000
     9  H    3.052391   2.497510   1.758288   0.000000
    10  H    2.536219   3.065365   2.488609   3.042422   0.000000
    11  H    3.743549   3.762997   2.429201   2.475538   1.773720
    12  H    3.065994   2.512964   3.127191   2.570881   4.730655
    13  H    2.502101   2.507657   3.769242   3.764047   4.863886
    14  H    2.517257   3.068804   2.578687   3.109949   4.402880
    15  H    4.036940   3.437118   4.050708   3.468395   2.352906
                   11         12         13         14         15
    11  H    0.000000
    12  H    4.871352   0.000000
    13  H    5.589897   1.761910   0.000000
    14  H    4.851402   1.760952   1.762793   0.000000
    15  H    2.309775   5.421640   5.869338   5.821507   0.000000
 Stoichiometry    C4H10O
 Framework group  C1[X(C4H10O)]
 Deg. of freedom    39
 Full point group                 C1      NOp   1
 Largest Abelian subgroup         C1      NOp   1
 Largest concise Abelian subgroup C1      NOp   1
                         Standard orientation:                         
 ---------------------------------------------------------------------
 Center     Atomic      Atomic             Coordinates (Angstroms)
 Number     Number       Type             X           Y           Z
 ---------------------------------------------------------------------
      1          8           0        1.889580   -0.735745   -0.247537
      2          6           0        0.000526    0.703582   -0.226448
      3          6           0       -0.947118   -0.342455    0.349920
      4          6           0        1.433281    0.519455    0.230039
      5          6           0       -2.380257   -0.147431   -0.129955
      6          1           0       -0.911965   -0.292464    1.441807
      7          1           0       -0.589887   -1.334477    0.072118
      8          1           0       -0.331417    1.704294    0.063511
      9          1           0       -0.024615    0.661534   -1.318553
     10          1           0        1.477141    0.550716    1.325077
     11          1           0        2.058271    1.328972   -0.159069
     12          1           0       -2.437266   -0.220627   -1.216880
     13          1           0       -3.049467   -0.897231    0.290350
     14          1           0       -2.757794    0.835980    0.154906
     15          1           0        2.811766   -0.849640   -0.014306
 ---------------------------------------------------------------------
 Rotational constants (GHZ):          12.5721850           2.4036298           2.2143734
 Leave Link  202 at Tue Mar 12 23:12:35 2019, MaxMem=   671088640 cpu:               0.3 elap:               0.0
 (Enter /shared/centos7/gaussian/g16/l301.exe)
 Standard basis: 6-311+G(2df,2p) (5D, 7F)
 Ernie: Thresh=  0.10000D-02 Tol=  0.10000D-05 Strict=F.
 There are   285 symmetry adapted cartesian basis functions of A   symmetry.
 There are   260 symmetry adapted basis functions of A   symmetry.
   260 basis functions,   370 primitive gaussians,   285 cartesian basis functions
    21 alpha electrons       21 beta electrons
       nuclear repulsion energy       188.7746792869 Hartrees.
 IExCor= 4336 DFT=T Ex+Corr=M062X ExCW=0 ScaHFX=  0.540000
 ScaDFX=  1.000000  1.000000  1.000000  1.000000 ScalE2=  1.000000  1.000000
 IRadAn=      5 IRanWt=     -1 IRanGd=            0 ICorTp=0 IEmpDi=  4
 NAtoms=   15 NActive=   15 NUniq=   15 SFac= 1.00D+00 NAtFMM=   60 NAOKFM=F Big=F
 Integral buffers will be    131072 words long.
 Raffenetti 2 integral format.
 Two-electron integral symmetry is turned on.
 Leave Link  301 at Tue Mar 12 23:12:35 2019, MaxMem=   671088640 cpu:               1.4 elap:               0.1
 (Enter /shared/centos7/gaussian/g16/l302.exe)
 NPDir=0 NMtPBC=     1 NCelOv=     1 NCel=       1 NClECP=     1 NCelD=      1
         NCelK=      1 NCelE2=     1 NClLst=     1 CellRange=     0.0.
 One-electron integrals computed using PRISM.
 One-electron integral symmetry used in STVInt
 NBasis=   260 RedAO= T EigKep=  1.70D-05  NBF=   260
 NBsUse=   260 1.00D-06 EigRej= -1.00D+00 NBFU=   260
 Precomputing XC quadrature grid using
 IXCGrd= 4 IRadAn=           5 IRanWt=          -1 IRanGd=           0 AccXCQ= 0.00D+00.
 Generated NRdTot=       0 NPtTot=           0 NUsed=           0 NTot=          32
 NSgBfM=   285   285   285   285   285 MxSgAt=    15 MxSgA2=    15.
 Leave Link  302 at Tue Mar 12 23:12:36 2019, MaxMem=   671088640 cpu:               7.3 elap:               0.4
 (Enter /shared/centos7/gaussian/g16/l303.exe)
 DipDrv:  MaxL=1.
 Leave Link  303 at Tue Mar 12 23:12:36 2019, MaxMem=   671088640 cpu:               0.7 elap:               0.1
 (Enter /shared/centos7/gaussian/g16/l401.exe)
 ExpMin= 4.38D-02 ExpMax= 8.59D+03 ExpMxC= 1.30D+03 IAcc=3 IRadAn=         5 AccDes= 0.00D+00
 Harris functional with IExCor= 1009 and IRadAn=       5 diagonalized for initial guess.
 HarFok:  IExCor= 1009 AccDes= 0.00D+00 IRadAn=         5 IDoV= 1 UseB2=F ITyADJ=14
 ICtDFT=  3500011 ScaDFX=  1.000000  1.000000  1.000000  1.000000
 FoFCou: FMM=F IPFlag=           0 FMFlag=      100000 FMFlg1=           0
         NFxFlg=           0 DoJE=T BraDBF=F KetDBF=T FulRan=T
         wScrn=  0.000000 ICntrl=       500 IOpCl=  0 I1Cent=   200000004 NGrid=           0
         NMat0=    1 NMatS0=      1 NMatT0=    0 NMatD0=    1 NMtDS0=    0 NMtDT0=    0
 Petite list used in FoFCou.
 Harris En= -233.603582674500    
 JPrj=0 DoOrth=F DoCkMO=F.
 Leave Link  401 at Tue Mar 12 23:12:37 2019, MaxMem=   671088640 cpu:              28.5 elap:               1.5
 (Enter /shared/centos7/gaussian/g16/l502.exe)
 Integral symmetry usage will be decided dynamically.
 Closed shell SCF:
 Using DIIS extrapolation, IDIIS=  1040.
 NGot=   671088640 LenX=   670917793 LenY=   670836127
 Requested convergence on RMS density matrix=1.00D-08 within 128 cycles.
 Requested convergence on MAX density matrix=1.00D-06.
 Requested convergence on             energy=1.00D-06.
 No special actions if energy rises.
 Fock matrices will be formed incrementally for  20 cycles.

 Cycle   1  Pass 1  IDiag  1:
 FoFJK:  IHMeth= 1 ICntrl=       0 DoSepK=F KAlg= 0 I1Cent=           0 FoldK=F
 IRaf= 970000000 NMat=       1 IRICut=       1 DoRegI=T DoRafI=F ISym2E= 0 IDoP0=0 IntGTp=1.
 FoFCou: FMM=F IPFlag=           0 FMFlag=      100000 FMFlg1=           0
         NFxFlg=           0 DoJE=F BraDBF=F KetDBF=F FulRan=T
         wScrn=  0.000000 ICntrl=         0 IOpCl=  0 I1Cent=           0 NGrid=           0
         NMat0=    1 NMatS0=      1 NMatT0=    0 NMatD0=    1 NMtDS0=    0 NMtDT0=    0
 Symmetry not used in FoFCou.
 E= -233.408317425275    
 DIIS: error= 2.21D-02 at cycle   1 NSaved=   1.
 NSaved= 1 IEnMin= 1 EnMin= -233.408317425275     IErMin= 1 ErrMin= 2.21D-02
 ErrMax= 2.21D-02  0.00D+00 EMaxC= 1.00D-01 BMatC= 2.66D-01 BMatP= 2.66D-01
 IDIUse=3 WtCom= 7.79D-01 WtEn= 2.21D-01
 Coeff-Com:  0.100D+01
 Coeff-En:   0.100D+01
 Coeff:      0.100D+01
 Gap=     0.306 Goal=   None    Shift=    0.000
 GapD=    0.306 DampG=1.000 DampE=0.500 DampFc=0.5000 IDamp=-1.
 Damping current iteration by 5.00D-01
 RMSDP=3.73D-03 MaxDP=1.09D-01              OVMax= 1.58D-01

 Cycle   2  Pass 1  IDiag  1:
 RMSU=  1.74D-03    CP:  9.28D-01
 E= -233.518788729855     Delta-E=       -0.110471304580 Rises=F Damp=T
 DIIS: error= 5.05D-03 at cycle   2 NSaved=   2.
 NSaved= 2 IEnMin= 2 EnMin= -233.518788729855     IErMin= 2 ErrMin= 5.05D-03
 ErrMax= 5.05D-03  0.00D+00 EMaxC= 1.00D-01 BMatC= 1.49D-02 BMatP= 2.66D-01
 IDIUse=3 WtCom= 9.50D-01 WtEn= 5.05D-02
 Coeff-Com: -0.491D-01 0.105D+01
 Coeff-En:   0.000D+00 0.100D+01
 Coeff:     -0.466D-01 0.105D+01
 Gap=     0.397 Goal=   None    Shift=    0.000
 RMSDP=1.38D-03 MaxDP=3.61D-02 DE=-1.10D-01 OVMax= 8.38D-02

 Cycle   3  Pass 1  IDiag  1:
 RMSU=  1.27D-03    CP:  9.44D-01  6.97D-01
 E= -233.630442095758     Delta-E=       -0.111653365903 Rises=F Damp=F
 DIIS: error= 2.67D-03 at cycle   3 NSaved=   3.
 NSaved= 3 IEnMin= 3 EnMin= -233.630442095758     IErMin= 3 ErrMin= 2.67D-03
 ErrMax= 2.67D-03  0.00D+00 EMaxC= 1.00D-01 BMatC= 3.87D-03 BMatP= 1.49D-02
 IDIUse=3 WtCom= 9.73D-01 WtEn= 2.67D-02
 Coeff-Com: -0.665D-01 0.319D+00 0.747D+00
 Coeff-En:   0.000D+00 0.000D+00 0.100D+01
 Coeff:     -0.647D-01 0.311D+00 0.754D+00
 Gap=     0.360 Goal=   None    Shift=    0.000
 RMSDP=2.16D-04 MaxDP=1.04D-02 DE=-1.12D-01 OVMax= 1.41D-02

 Cycle   4  Pass 1  IDiag  1:
 RMSU=  1.97D-04    CP:  9.43D-01  7.48D-01  9.92D-01
 E= -233.632620625021     Delta-E=       -0.002178529263 Rises=F Damp=F
 DIIS: error= 1.11D-03 at cycle   4 NSaved=   4.
 NSaved= 4 IEnMin= 4 EnMin= -233.632620625021     IErMin= 4 ErrMin= 1.11D-03
 ErrMax= 1.11D-03  0.00D+00 EMaxC= 1.00D-01 BMatC= 7.86D-04 BMatP= 3.87D-03
 IDIUse=3 WtCom= 9.89D-01 WtEn= 1.11D-02
 Coeff-Com: -0.268D-01 0.750D-01 0.359D+00 0.593D+00
 Coeff-En:   0.000D+00 0.000D+00 0.892D-01 0.911D+00
 Coeff:     -0.265D-01 0.742D-01 0.356D+00 0.596D+00
 Gap=     0.361 Goal=   None    Shift=    0.000
 RMSDP=1.03D-04 MaxDP=5.99D-03 DE=-2.18D-03 OVMax= 4.61D-03

 Cycle   5  Pass 1  IDiag  1:
 RMSU=  6.15D-05    CP:  9.41D-01  7.42D-01  9.92D-01  6.01D-01
 E= -233.633201048301     Delta-E=       -0.000580423280 Rises=F Damp=F
 DIIS: error= 1.96D-04 at cycle   5 NSaved=   5.
 NSaved= 5 IEnMin= 5 EnMin= -233.633201048301     IErMin= 5 ErrMin= 1.96D-04
 ErrMax= 1.96D-04  0.00D+00 EMaxC= 1.00D-01 BMatC= 1.71D-05 BMatP= 7.86D-04
 IDIUse=3 WtCom= 9.98D-01 WtEn= 1.96D-03
 Coeff-Com: -0.390D-02 0.555D-02 0.618D-01 0.181D+00 0.755D+00
 Coeff-En:   0.000D+00 0.000D+00 0.000D+00 0.000D+00 0.100D+01
 Coeff:     -0.389D-02 0.554D-02 0.617D-01 0.181D+00 0.756D+00
 Gap=     0.360 Goal=   None    Shift=    0.000
 RMSDP=4.08D-05 MaxDP=3.30D-03 DE=-5.80D-04 OVMax= 8.46D-04

 Cycle   6  Pass 1  IDiag  1:
 RMSU=  2.29D-05    CP:  9.42D-01  7.31D-01  1.00D+00  6.74D-01  8.39D-01
 E= -233.633214143780     Delta-E=       -0.000013095479 Rises=F Damp=F
 DIIS: error= 4.86D-05 at cycle   6 NSaved=   6.
 NSaved= 6 IEnMin= 6 EnMin= -233.633214143780     IErMin= 6 ErrMin= 4.86D-05
 ErrMax= 4.86D-05  0.00D+00 EMaxC= 1.00D-01 BMatC= 9.49D-07 BMatP= 1.71D-05
 IDIUse=1 WtCom= 1.00D+00 WtEn= 0.00D+00
 Coeff-Com:  0.176D-03-0.185D-02 0.174D-02 0.300D-01 0.232D+00 0.738D+00
 Coeff:      0.176D-03-0.185D-02 0.174D-02 0.300D-01 0.232D+00 0.738D+00
 Gap=     0.360 Goal=   None    Shift=    0.000
 RMSDP=7.20D-06 MaxDP=4.43D-04 DE=-1.31D-05 OVMax= 2.18D-04

 Cycle   7  Pass 1  IDiag  1:
 RMSU=  4.01D-06    CP:  9.42D-01  7.28D-01  1.01D+00  6.79D-01  8.57D-01
                    CP:  1.11D+00
 E= -233.633214983498     Delta-E=       -0.000000839718 Rises=F Damp=F
 DIIS: error= 1.54D-05 at cycle   7 NSaved=   7.
 NSaved= 7 IEnMin= 7 EnMin= -233.633214983498     IErMin= 7 ErrMin= 1.54D-05
 ErrMax= 1.54D-05  0.00D+00 EMaxC= 1.00D-01 BMatC= 1.05D-07 BMatP= 9.49D-07
 IDIUse=1 WtCom= 1.00D+00 WtEn= 0.00D+00
 Coeff-Com:  0.635D-03-0.144D-02-0.840D-02-0.149D-01-0.266D-01 0.238D+00
 Coeff-Com:  0.812D+00
 Coeff:      0.635D-03-0.144D-02-0.840D-02-0.149D-01-0.266D-01 0.238D+00
 Coeff:      0.812D+00
 Gap=     0.360 Goal=   None    Shift=    0.000
 RMSDP=4.32D-06 MaxDP=3.41D-04 DE=-8.40D-07 OVMax= 8.18D-05

 Cycle   8  Pass 1  IDiag  1:
 RMSU=  1.08D-06    CP:  9.42D-01  7.27D-01  1.01D+00  6.84D-01  8.49D-01
                    CP:  1.22D+00  1.08D+00
 E= -233.633215089344     Delta-E=       -0.000000105845 Rises=F Damp=F
 DIIS: error= 2.12D-06 at cycle   8 NSaved=   8.
 NSaved= 8 IEnMin= 8 EnMin= -233.633215089344     IErMin= 8 ErrMin= 2.12D-06
 ErrMax= 2.12D-06  0.00D+00 EMaxC= 1.00D-01 BMatC= 1.95D-09 BMatP= 1.05D-07
 IDIUse=1 WtCom= 1.00D+00 WtEn= 0.00D+00
 Coeff-Com:  0.104D-03-0.211D-03-0.167D-02-0.389D-02-0.127D-01 0.228D-01
 Coeff-Com:  0.164D+00 0.832D+00
 Coeff:      0.104D-03-0.211D-03-0.167D-02-0.389D-02-0.127D-01 0.228D-01
 Coeff:      0.164D+00 0.832D+00
 Gap=     0.360 Goal=   None    Shift=    0.000
 RMSDP=6.25D-07 MaxDP=3.72D-05 DE=-1.06D-07 OVMax= 1.12D-05

 Cycle   9  Pass 1  IDiag  1:
 RMSU=  2.85D-07    CP:  9.42D-01  7.27D-01  1.01D+00  6.84D-01  8.47D-01
                    CP:  1.23D+00  1.14D+00  1.10D+00
 E= -233.633215091376     Delta-E=       -0.000000002032 Rises=F Damp=F
 DIIS: error= 4.86D-07 at cycle   9 NSaved=   9.
 NSaved= 9 IEnMin= 9 EnMin= -233.633215091376     IErMin= 9 ErrMin= 4.86D-07
 ErrMax= 4.86D-07  0.00D+00 EMaxC= 1.00D-01 BMatC= 9.40D-11 BMatP= 1.95D-09
 IDIUse=1 WtCom= 1.00D+00 WtEn= 0.00D+00
 Coeff-Com: -0.129D-04 0.292D-04 0.658D-04-0.379D-04-0.107D-02-0.520D-02
 Coeff-Com: -0.731D-02 0.145D+00 0.869D+00
 Coeff:     -0.129D-04 0.292D-04 0.658D-04-0.379D-04-0.107D-02-0.520D-02
 Coeff:     -0.731D-02 0.145D+00 0.869D+00
 Gap=     0.360 Goal=   None    Shift=    0.000
 RMSDP=1.15D-07 MaxDP=7.54D-06 DE=-2.03D-09 OVMax= 2.75D-06

 Cycle  10  Pass 1  IDiag  1:
 RMSU=  4.99D-08    CP:  9.42D-01  7.27D-01  1.01D+00  6.84D-01  8.46D-01
                    CP:  1.23D+00  1.15D+00  1.14D+00  9.87D-01
 E= -233.633215091483     Delta-E=       -0.000000000107 Rises=F Damp=F
 DIIS: error= 1.68D-07 at cycle  10 NSaved=  10.
 NSaved=10 IEnMin=10 EnMin= -233.633215091483     IErMin=10 ErrMin= 1.68D-07
 ErrMax= 1.68D-07  0.00D+00 EMaxC= 1.00D-01 BMatC= 1.13D-11 BMatP= 9.40D-11
 IDIUse=1 WtCom= 1.00D+00 WtEn= 0.00D+00
 Coeff-Com: -0.791D-05 0.172D-04 0.875D-04 0.141D-03 0.167D-03-0.244D-02
 Coeff-Com: -0.929D-02 0.833D-02 0.288D+00 0.715D+00
 Coeff:     -0.791D-05 0.172D-04 0.875D-04 0.141D-03 0.167D-03-0.244D-02
 Coeff:     -0.929D-02 0.833D-02 0.288D+00 0.715D+00
 Gap=     0.360 Goal=   None    Shift=    0.000
 RMSDP=2.19D-08 MaxDP=9.41D-07 DE=-1.07D-10 OVMax= 7.64D-07

 Cycle  11  Pass 1  IDiag  1:
 RMSU=  1.47D-08    CP:  9.42D-01  7.27D-01  1.01D+00  6.84D-01  8.46D-01
                    CP:  1.23D+00  1.15D+00  1.15D+00  1.02D+00  9.69D-01
 E= -233.633215091494     Delta-E=       -0.000000000011 Rises=F Damp=F
 DIIS: error= 5.34D-08 at cycle  11 NSaved=  11.
 NSaved=11 IEnMin=11 EnMin= -233.633215091494     IErMin=11 ErrMin= 5.34D-08
 ErrMax= 5.34D-08  0.00D+00 EMaxC= 1.00D-01 BMatC= 9.95D-13 BMatP= 1.13D-11
 IDIUse=1 WtCom= 1.00D+00 WtEn= 0.00D+00
 Coeff-Com: -0.104D-05 0.257D-05 0.200D-04 0.375D-04 0.904D-04-0.347D-03
 Coeff-Com: -0.222D-02-0.946D-02 0.191D-01 0.230D+00 0.763D+00
 Coeff:     -0.104D-05 0.257D-05 0.200D-04 0.375D-04 0.904D-04-0.347D-03
 Coeff:     -0.222D-02-0.946D-02 0.191D-01 0.230D+00 0.763D+00
 Gap=     0.360 Goal=   None    Shift=    0.000
 RMSDP=6.96D-09 MaxDP=2.00D-07 DE=-1.11D-11 OVMax= 2.92D-07

 SCF Done:  E(RM062X) =  -233.633215091     A.U. after   11 cycles
            NFock= 11  Conv=0.70D-08     -V/T= 2.0040
 KE= 2.327040117520D+02 PE=-9.221124742564D+02 EE= 2.670005681260D+02
 Leave Link  502 at Tue Mar 12 23:13:23 2019, MaxMem=   671088640 cpu:             924.3 elap:              46.3
 (Enter /shared/centos7/gaussian/g16/l801.exe)
 DoSCS=F DFT=T ScalE2(SS,OS)=  1.000000  1.000000
 Range of M.O.s used for correlation:     1   260
 NBasis=   260 NAE=    21 NBE=    21 NFC=     0 NFV=     0
 NROrb=    260 NOA=    21 NOB=    21 NVA=   239 NVB=   239

 **** Warning!!: The largest alpha MO coefficient is  0.54437995D+02

 Leave Link  801 at Tue Mar 12 23:13:23 2019, MaxMem=   671088640 cpu:               0.5 elap:               0.1
 (Enter /shared/centos7/gaussian/g16/l1101.exe)
 Using compressed storage, NAtomX=    15.
 Will process     16 centers per pass.
 Leave Link 1101 at Tue Mar 12 23:13:24 2019, MaxMem=   671088640 cpu:              15.7 elap:               0.8
 (Enter /shared/centos7/gaussian/g16/l1102.exe)
 Symmetrizing basis deriv contribution to polar:
 IMax=3 JMax=2 DiffMx= 0.00D+00
 Leave Link 1102 at Tue Mar 12 23:13:24 2019, MaxMem=   671088640 cpu:               0.7 elap:               0.1
 (Enter /shared/centos7/gaussian/g16/l1110.exe)
 Forming Gx(P) for the SCF density, NAtomX=    15.
 Integral derivatives from FoFJK, PRISM(SPDF).
 Do as many integral derivatives as possible in FoFJK.
 G2DrvN: MDV=     671087424.
 G2DrvN: will do    16 centers at a time, making    1 passes.
 Calling FoFCou, ICntrl=  3107 FMM=F I1Cent=   0 AccDes= 0.00D+00.
 FoFJK:  IHMeth= 1 ICntrl=    3107 DoSepK=F KAlg= 0 I1Cent=           0 FoldK=F
 IRaf=         0 NMat=       1 IRICut=       1 DoRegI=T DoRafI=F ISym2E= 0 IDoP0=0 IntGTp=1.
 FoFCou: FMM=F IPFlag=           0 FMFlag=      100000 FMFlg1=           0
         NFxFlg=           0 DoJE=F BraDBF=F KetDBF=F FulRan=T
         wScrn=  0.000000 ICntrl=      3107 IOpCl=  0 I1Cent=           0 NGrid=           0
         NMat0=    1 NMatS0=      1 NMatT0=    0 NMatD0=    1 NMtDS0=    0 NMtDT0=    0
 Symmetry not used in FoFCou.
 End of G2Drv F.D. properties file   721 does not exist.
 End of G2Drv F.D. properties file   722 does not exist.
 End of G2Drv F.D. properties file   788 does not exist.
 Leave Link 1110 at Tue Mar 12 23:15:11 2019, MaxMem=   671088640 cpu:            2135.6 elap:             106.8
 (Enter /shared/centos7/gaussian/g16/l1002.exe)
 Minotr:  Closed shell wavefunction.
          IDoAtm=111111111111111
          Direct CPHF calculation.
          Differentiating once with respect to nuclear coordinates.
          Requested convergence is 1.0D-08 RMS, and 1.0D-07 maximum.
          Secondary convergence is 1.0D-12 RMS, and 1.0D-12 maximum.
          NewPWx=T KeepS1=F KeepF1=F KeepIn=T MapXYZ=F SortEE=F KeepMc=T.
         4569 words used for storage of precomputed grid.
 Keep R1 ints in memory in canonical form, NReq=597923371.
 FoFCou: FMM=F IPFlag=           0 FMFlag=           0 FMFlg1=           0
         NFxFlg=           0 DoJE=F BraDBF=F KetDBF=F FulRan=T
         wScrn=  0.000000 ICntrl=       600 IOpCl=  0 I1Cent=           0 NGrid=           0
         NMat0=    1 NMatS0=  33930 NMatT0=    0 NMatD0=    1 NMtDS0=    0 NMtDT0=    0
 Symmetry not used in FoFCou.
 Two-electron integral symmetry not used.
          MDV=     671088640 using IRadAn=       1.
          Solving linear equations simultaneously, MaxMat=       0.
          There are    48 degrees of freedom in the 1st order CPHF.  IDoFFX=6 NUNeed=     0.
     42 vectors produced by pass  0 Test12= 1.05D-14 2.08D-09 XBig12= 6.34D-02 4.34D-02.
 AX will form    42 AO Fock derivatives at one time.
     42 vectors produced by pass  1 Test12= 1.05D-14 2.08D-09 XBig12= 6.18D-03 1.18D-02.
     42 vectors produced by pass  2 Test12= 1.05D-14 2.08D-09 XBig12= 2.81D-04 3.10D-03.
     42 vectors produced by pass  3 Test12= 1.05D-14 2.08D-09 XBig12= 3.28D-06 3.08D-04.
     42 vectors produced by pass  4 Test12= 1.05D-14 2.08D-09 XBig12= 1.79D-08 1.63D-05.
     42 vectors produced by pass  5 Test12= 1.05D-14 2.08D-09 XBig12= 9.94D-11 9.95D-07.
     18 vectors produced by pass  6 Test12= 1.05D-14 2.08D-09 XBig12= 3.68D-13 6.23D-08.
      1 vectors produced by pass  7 Test12= 1.05D-14 2.08D-09 XBig12= 1.17D-15 3.20D-09.
 InvSVY:  IOpt=1 It=  1 EMax= 1.89D-15
 Solved reduced A of dimension   271 with    42 vectors.
 End of Minotr F.D. properties file   721 does not exist.
 End of Minotr F.D. properties file   722 does not exist.
 End of Minotr F.D. properties file   788 does not exist.
 Leave Link 1002 at Tue Mar 12 23:17:06 2019, MaxMem=   671088640 cpu:            2254.9 elap:             114.2
 (Enter /shared/centos7/gaussian/g16/l601.exe)
 Copying SCF densities to generalized density rwf, IOpCl= 0 IROHF=0.

 **********************************************************************

            Population analysis using the SCF density.

 **********************************************************************

 Orbital symmetries:
       Occupied  (A) (A) (A) (A) (A) (A) (A) (A) (A) (A) (A) (A)
                 (A) (A) (A) (A) (A) (A) (A) (A) (A)
       Virtual   (A) (A) (A) (A) (A) (A) (A) (A) (A) (A) (A) (A)
                 (A) (A) (A) (A) (A) (A) (A) (A) (A) (A) (A) (A)
                 (A) (A) (A) (A) (A) (A) (A) (A) (A) (A) (A) (A)
                 (A) (A) (A) (A) (A) (A) (A) (A) (A) (A) (A) (A)
                 (A) (A) (A) (A) (A) (A) (A) (A) (A) (A) (A) (A)
                 (A) (A) (A) (A) (A) (A) (A) (A) (A) (A) (A) (A)
                 (A) (A) (A) (A) (A) (A) (A) (A) (A) (A) (A) (A)
                 (A) (A) (A) (A) (A) (A) (A) (A) (A) (A) (A) (A)
                 (A) (A) (A) (A) (A) (A) (A) (A) (A) (A) (A) (A)
                 (A) (A) (A) (A) (A) (A) (A) (A) (A) (A) (A) (A)
                 (A) (A) (A) (A) (A) (A) (A) (A) (A) (A) (A) (A)
                 (A) (A) (A) (A) (A) (A) (A) (A) (A) (A) (A) (A)
                 (A) (A) (A) (A) (A) (A) (A) (A) (A) (A) (A) (A)
                 (A) (A) (A) (A) (A) (A) (A) (A) (A) (A) (A) (A)
                 (A) (A) (A) (A) (A) (A) (A) (A) (A) (A) (A) (A)
                 (A) (A) (A) (A) (A) (A) (A) (A) (A) (A) (A) (A)
                 (A) (A) (A) (A) (A) (A) (A) (A) (A) (A) (A) (A)
                 (A) (A) (A) (A) (A) (A) (A) (A) (A) (A) (A) (A)
                 (A) (A) (A) (A) (A) (A) (A) (A) (A) (A) (A) (A)
                 (A) (A) (A) (A) (A) (A) (A) (A) (A) (A) (A)
 The electronic state is 1-A.
 Alpha  occ. eigenvalues --  -19.61955 -10.57863 -10.52537 -10.52125 -10.51621
 Alpha  occ. eigenvalues --   -1.14353  -0.89178  -0.81392  -0.71324  -0.65708
 Alpha  occ. eigenvalues --   -0.59943  -0.53817  -0.51261  -0.50065  -0.45547
 Alpha  occ. eigenvalues --   -0.44145  -0.42763  -0.39597  -0.38425  -0.37767
 Alpha  occ. eigenvalues --   -0.34735
 Alpha virt. eigenvalues --    0.01273   0.02691   0.03474   0.03972   0.05692
 Alpha virt. eigenvalues --    0.06181   0.06617   0.08098   0.08688   0.09174
 Alpha virt. eigenvalues --    0.10260   0.10934   0.13195   0.15223   0.16369
 Alpha virt. eigenvalues --    0.17699   0.18661   0.19773   0.21063   0.21194
 Alpha virt. eigenvalues --    0.22281   0.23123   0.23789   0.25026   0.25979
 Alpha virt. eigenvalues --    0.27046   0.27548   0.28554   0.29214   0.30356
 Alpha virt. eigenvalues --    0.31154   0.31731   0.34838   0.37550   0.42468
 Alpha virt. eigenvalues --    0.43329   0.45370   0.46206   0.47593   0.49560
 Alpha virt. eigenvalues --    0.52733   0.53568   0.55009   0.56249   0.57256
 Alpha virt. eigenvalues --    0.57976   0.59098   0.60491   0.61885   0.62738
 Alpha virt. eigenvalues --    0.63249   0.64832   0.65176   0.66137   0.68331
 Alpha virt. eigenvalues --    0.69662   0.70437   0.72201   0.75077   0.77819
 Alpha virt. eigenvalues --    0.80922   0.82228   0.83602   0.85669   0.88242
 Alpha virt. eigenvalues --    0.89301   0.92776   0.94169   0.96429   1.01064
 Alpha virt. eigenvalues --    1.04530   1.04812   1.06354   1.10596   1.12077
 Alpha virt. eigenvalues --    1.13475   1.14132   1.17236   1.18375   1.18993
 Alpha virt. eigenvalues --    1.19544   1.20730   1.22097   1.24520   1.25198
 Alpha virt. eigenvalues --    1.26623   1.27620   1.29766   1.31218   1.32155
 Alpha virt. eigenvalues --    1.35985   1.37927   1.39839   1.41142   1.42276
 Alpha virt. eigenvalues --    1.44029   1.44971   1.46316   1.47184   1.48777
 Alpha virt. eigenvalues --    1.49693   1.53995   1.54866   1.56560   1.58627
 Alpha virt. eigenvalues --    1.60289   1.61750   1.62986   1.64344   1.65765
 Alpha virt. eigenvalues --    1.69213   1.69892   1.74598   1.85267   1.91562
 Alpha virt. eigenvalues --    2.09740   2.12992   2.27770   2.35144   2.41419
 Alpha virt. eigenvalues --    2.47908   2.50490   2.51692   2.55986   2.58298
 Alpha virt. eigenvalues --    2.63482   2.67596   2.75057   2.76955   2.79428
 Alpha virt. eigenvalues --    2.81421   2.84394   2.85829   2.89545   2.91611
 Alpha virt. eigenvalues --    2.94400   2.95515   2.99480   3.04339   3.04510
 Alpha virt. eigenvalues --    3.09406   3.14272   3.15719   3.16219   3.17928
 Alpha virt. eigenvalues --    3.22625   3.24477   3.26607   3.27907   3.32229
 Alpha virt. eigenvalues --    3.35237   3.36021   3.38978   3.39294   3.40473
 Alpha virt. eigenvalues --    3.45285   3.47010   3.52706   3.53985   3.57025
 Alpha virt. eigenvalues --    3.58794   3.59802   3.61588   3.62974   3.66242
 Alpha virt. eigenvalues --    3.70329   3.70965   3.72232   3.76188   3.78144
 Alpha virt. eigenvalues --    3.79603   3.84650   3.88016   3.89144   3.92720
 Alpha virt. eigenvalues --    3.96966   3.99378   4.01194   4.02515   4.03306
 Alpha virt. eigenvalues --    4.04882   4.08483   4.10094   4.14622   4.16183
 Alpha virt. eigenvalues --    4.19641   4.21083   4.22750   4.24360   4.25805
 Alpha virt. eigenvalues --    4.28331   4.29952   4.31747   4.33734   4.36484
 Alpha virt. eigenvalues --    4.39852   4.43954   4.44769   4.47990   4.53480
 Alpha virt. eigenvalues --    4.53870   4.56044   4.57577   4.60641   4.64047
 Alpha virt. eigenvalues --    4.65700   4.68288   4.79852   4.80766   5.02467
 Alpha virt. eigenvalues --    5.19958   5.21349   5.23513   5.27996   5.36205
 Alpha virt. eigenvalues --    5.41920   5.47013   5.49523   5.52809   5.55682
 Alpha virt. eigenvalues --    5.59998   5.60583   5.65838   5.67329   5.69920
 Alpha virt. eigenvalues --    5.84786   5.94571   6.49601   6.98791   7.17287
 Alpha virt. eigenvalues --    7.21286   7.24429   7.55827   7.65519  24.28300
 Alpha virt. eigenvalues --   24.39522  24.44796  24.51524  50.15300
          Condensed to atoms (all electrons):
               1          2          3          4          5          6
     1  O    8.159833  -0.072860  -0.007182   0.141059   0.001881  -0.001193
     2  C   -0.072860   5.639198  -0.172265   0.017262   0.166935  -0.030558
     3  C   -0.007182  -0.172265   5.495059   0.138273   0.019253   0.428734
     4  C    0.141059   0.017262   0.138273   5.257790  -0.108620  -0.015315
     5  C    0.001881   0.166935   0.019253  -0.108620   5.295897  -0.029201
     6  H   -0.001193  -0.030558   0.428734  -0.015315  -0.029201   0.538619
     7  H   -0.005255  -0.067092   0.480010   0.013849  -0.058544  -0.033801
     8  H    0.008864   0.397881  -0.006262  -0.016463  -0.018448  -0.007457
     9  H   -0.009519   0.498176  -0.085840  -0.062959   0.008319   0.005154
    10  H   -0.050772  -0.003827  -0.045430   0.441394   0.006279   0.002715
    11  H   -0.042605  -0.063285   0.021581   0.455504  -0.000339   0.000111
    12  H   -0.000285  -0.010624  -0.032909  -0.003448   0.420761   0.006216
    13  H    0.000096   0.020931  -0.048095   0.002384   0.409541  -0.004575
    14  H   -0.000106  -0.032030   0.006998   0.003087   0.393261  -0.008268
    15  H    0.226958  -0.031249   0.006492   0.032844  -0.002176  -0.000103
               7          8          9         10         11         12
     1  O   -0.005255   0.008864  -0.009519  -0.050772  -0.042605  -0.000285
     2  C   -0.067092   0.397881   0.498176  -0.003827  -0.063285  -0.010624
     3  C    0.480010  -0.006262  -0.085840  -0.045430   0.021581  -0.032909
     4  C    0.013849  -0.016463  -0.062959   0.441394   0.455504  -0.003448
     5  C   -0.058544  -0.018448   0.008319   0.006279  -0.000339   0.420761
     6  H   -0.033801  -0.007457   0.005154   0.002715   0.000111   0.006216
     7  H    0.493672   0.004367  -0.003371   0.001170  -0.000790  -0.006788
     8  H    0.004367   0.518075  -0.028966  -0.004941  -0.003541  -0.000593
     9  H   -0.003371  -0.028966   0.490625   0.006092  -0.006927   0.001372
    10  H    0.001170  -0.004941   0.006092   0.560541  -0.046335  -0.000012
    11  H   -0.000790  -0.003541  -0.006927  -0.046335   0.556896  -0.000005
    12  H   -0.006788  -0.000593   0.001372  -0.000012  -0.000005   0.551358
    13  H   -0.004633  -0.000011  -0.000094  -0.000025   0.000015  -0.024365
    14  H    0.006001   0.002548  -0.000437  -0.000016  -0.000038  -0.038872
    15  H    0.000069  -0.000283   0.000242  -0.006214  -0.006248  -0.000003
              13         14         15
     1  O    0.000096  -0.000106   0.226958
     2  C    0.020931  -0.032030  -0.031249
     3  C   -0.048095   0.006998   0.006492
     4  C    0.002384   0.003087   0.032844
     5  C    0.409541   0.393261  -0.002176
     6  H   -0.004575  -0.008268  -0.000103
     7  H   -0.004633   0.006001   0.000069
     8  H   -0.000011   0.002548  -0.000283
     9  H   -0.000094  -0.000437   0.000242
    10  H   -0.000025  -0.000016  -0.006214
    11  H    0.000015  -0.000038  -0.006248
    12  H   -0.024365  -0.038872  -0.000003
    13  H    0.540323  -0.025594  -0.000001
    14  H   -0.025594   0.561289   0.000005
    15  H   -0.000001   0.000005   0.527580
 Mulliken charges:
               1
     1  O   -0.348914
     2  C   -0.256595
     3  C   -0.198416
     4  C   -0.296642
     5  C   -0.504799
     6  H    0.148922
     7  H    0.181135
     8  H    0.155228
     9  H    0.188134
    10  H    0.139381
    11  H    0.136008
    12  H    0.138196
    13  H    0.134103
    14  H    0.132172
    15  H    0.252087
 Sum of Mulliken charges =  -0.00000
 Mulliken charges with hydrogens summed into heavy atoms:
               1
     1  O   -0.096827
     2  C    0.086767
     3  C    0.131641
     4  C   -0.021253
     5  C   -0.100328
 APT charges:
               1
     1  O   -0.868722
     2  C   -0.633333
     3  C   -0.563011
     4  C   -0.806472
     5  C   -1.293818
     6  H    0.344012
     7  H    0.320191
     8  H    0.387517
     9  H    0.352346
    10  H    0.340272
    11  H    0.468308
    12  H    0.328158
    13  H    0.504873
    14  H    0.372756
    15  H    0.746924
 Sum of APT charges =  -0.00000
 APT charges with hydrogens summed into heavy atoms:
               1
     1  O   -0.121799
     2  C    0.106529
     3  C    0.101193
     4  C    0.002107
     5  C   -0.088031
 Electronic spatial extent (au):  <R**2>=            597.5879
 Charge=             -0.0000 electrons
 Dipole moment (field-independent basis, Debye):
    X=              0.9199    Y=              0.9541    Z=              0.7790  Tot=              1.5373
 Quadrupole moment (field-independent basis, Debye-Ang):
   XX=            -28.6584   YY=            -34.1857   ZZ=            -33.9962
   XY=              0.5777   XZ=              1.4588   YZ=             -0.4355
 Traceless Quadrupole moment (field-independent basis, Debye-Ang):
   XX=              3.6217   YY=             -1.9056   ZZ=             -1.7160
   XY=              0.5777   XZ=              1.4588   YZ=             -0.4355
 Octapole moment (field-independent basis, Debye-Ang**2):
  XXX=             35.1030  YYY=             -1.9113  ZZZ=             -0.4129  XYY=              2.8736
  XXY=             -4.9901  XXZ=              3.4580  XZZ=              1.9378  YZZ=             -0.4891
  YYZ=              0.3506  XYZ=             -1.4529
 Hexadecapole moment (field-independent basis, Debye-Ang**3):
 XXXX=           -521.7691 YYYY=           -124.7558 ZZZZ=            -76.4744 XXXY=            -23.0046
 XXXZ=              1.0436 YYYX=             -6.4238 YYYZ=              1.3040 ZZZX=              1.4431
 ZZZY=              0.2978 XXYY=           -113.2821 XXZZ=           -115.4062 YYZZ=            -36.0800
 XXYZ=             -2.9748 YYXZ=             -1.8797 ZZXY=             -0.5254
 N-N= 1.887746792869D+02 E-N=-9.221124782820D+02  KE= 2.327040117520D+02
  Exact polarizability:   0.000   0.000   0.000   0.000   0.000   0.000
 Approx polarizability:  62.861  -0.650  61.568   0.528   0.397  60.772
 No NMR shielding tensors so no spin-rotation constants.
 Leave Link  601 at Tue Mar 12 23:17:06 2019, MaxMem=   671088640 cpu:               7.7 elap:               0.4
 (Enter /shared/centos7/gaussian/g16/l701.exe)
 SCFChk:  SCF convergence  6.96D-09 required  1.00D-08
 ... and contract with generalized density number  0.
 Compute integral second derivatives.
 Entering OneElI...
 Calculate overlap and kinetic energy integrals
    NBasis = 285  MinDer = 2  MaxDer = 2
 Requested accuracy = 0.1000D-12
 PrmmSu-InSpLW:  IPartL=    0 NPrtUS=   20 NPrtUL=    1 DoSpLW=F IThBeg=    0 IThEnd=   19 NThAct=   20.
 PrsmSu:  NPrtUS=  20 ThrOK=T IAlg=1 NPAlg=1 LenDen=           0 ISkipM=0 DoSpLW=F IThBeg=    0 IThEnd=   19.
 Prism:   IPart=     0 DynPar=F LinDyn=F Incr=           2.
 PRISM was handed    33448732 working-precision words and  4072 shell-pairs
 PRISM was handed    33448732 working-precision words and  4072 shell-pairs
 PRISM was handed    33448732 working-precision words and  4072 shell-pairs
 PRISM was handed    33448732 working-precision words and  4072 shell-pairs
 PRISM was handed    33448732 working-precision words and  4072 shell-pairs
 PRISM was handed    33448732 working-precision words and  4072 shell-pairs
 PRISM was handed    33448732 working-precision words and  4072 shell-pairs
 PRISM was handed    33448732 working-precision words and  4072 shell-pairs
 PRISM was handed    33448732 working-precision words and  4072 shell-pairs
 PRISM was handed    33448732 working-precision words and  4072 shell-pairs
 PRISM was handed    33448732 working-precision words and  4072 shell-pairs
 PRISM was handed    33448732 working-precision words and  4072 shell-pairs
 PRISM was handed    33448732 working-precision words and  4072 shell-pairs
 PRISM was handed    33448732 working-precision words and  4072 shell-pairs
 PRISM was handed    33448732 working-precision words and  4072 shell-pairs
 PRISM was handed    33448732 working-precision words and  4072 shell-pairs
 PRISM was handed    33448732 working-precision words and  4072 shell-pairs
 PRISM was handed    33448732 working-precision words and  4072 shell-pairs
 PRISM was handed    33448732 working-precision words and  4072 shell-pairs
 PRISM was handed    33448732 working-precision words and  4072 shell-pairs
 IPart= 13 NShTot=         194 NBatch=          33 AvBLen=         5.9
 IPart=  4 NShTot=         217 NBatch=          45 AvBLen=         4.8
 IPart=  2 NShTot=         228 NBatch=          51 AvBLen=         4.5
 IPart= 15 NShTot=         189 NBatch=          32 AvBLen=         5.9
 IPart=  5 NShTot=         211 NBatch=          39 AvBLen=         5.4
 IPart=  3 NShTot=         221 NBatch=          46 AvBLen=         4.8
 IPart=  1 NShTot=         233 NBatch=          55 AvBLen=         4.2
 IPart= 14 NShTot=         193 NBatch=          33 AvBLen=         5.8
 IPart=  7 NShTot=         205 NBatch=          36 AvBLen=         5.7
 IPart=  9 NShTot=         202 NBatch=          35 AvBLen=         5.8
 IPart= 19 NShTot=         183 NBatch=          29 AvBLen=         6.3
 IPart= 16 NShTot=         187 NBatch=          30 AvBLen=         6.2
 IPart= 11 NShTot=         195 NBatch=          33 AvBLen=         5.9
 IPart= 12 NShTot=         194 NBatch=          33 AvBLen=         5.9
 IPart=  0 NShTot=         238 NBatch=          58 AvBLen=         4.1
 IPart= 18 NShTot=         184 NBatch=          29 AvBLen=         6.3
 IPart= 10 NShTot=         199 NBatch=          33 AvBLen=         6.0
 IPart= 17 NShTot=         186 NBatch=          29 AvBLen=         6.4
 IPart=  8 NShTot=         204 NBatch=          35 AvBLen=         5.8
 IPart=  6 NShTot=         209 NBatch=          38 AvBLen=         5.5
 PrSmSu:  NxtVal=             41.
 Entering OneElI...
 Calculate potential energy integrals
    NBasis = 285  MinDer = 2  MaxDer = 2
 Requested accuracy = 0.1000D-12
 PrmmSu-InSpLW:  IPartL=    0 NPrtUS=   20 NPrtUL=    1 DoSpLW=F IThBeg=    0 IThEnd=   19 NThAct=   20.
 PrsmSu:  NPrtUS=  20 ThrOK=T IAlg=1 NPAlg=1 LenDen=           0 ISkipM=0 DoSpLW=F IThBeg=    0 IThEnd=   19.
 Prism:   IPart=     0 DynPar=F LinDyn=F Incr=          28.
 PRISM was handed    33462399 working-precision words and  3857 shell-pairs
 PRISM was handed    33462399 working-precision words and  3857 shell-pairs
 PRISM was handed    33462399 working-precision words and  3857 shell-pairs
 PRISM was handed    33462399 working-precision words and  3857 shell-pairs
 PRISM was handed    33462399 working-precision words and  3857 shell-pairs
 PRISM was handed    33462399 working-precision words and  3857 shell-pairs
 PRISM was handed    33462399 working-precision words and  3857 shell-pairs
 PRISM was handed    33462399 working-precision words and  3857 shell-pairs
 PRISM was handed    33462399 working-precision words and  3857 shell-pairs
 PRISM was handed    33462399 working-precision words and  3857 shell-pairs
 PRISM was handed    33462399 working-precision words and  3857 shell-pairs
 PRISM was handed    33462399 working-precision words and  3857 shell-pairs
 PRISM was handed    33462399 working-precision words and  3857 shell-pairs
 PRISM was handed    33462399 working-precision words and  3857 shell-pairs
 PRISM was handed    33462399 working-precision words and  3857 shell-pairs
 PRISM was handed    33462399 working-precision words and  3857 shell-pairs
 PRISM was handed    33462399 working-precision words and  3857 shell-pairs
 PRISM was handed    33462399 working-precision words and  3857 shell-pairs
 PRISM was handed    33462399 working-precision words and  3857 shell-pairs
 PRISM was handed    33462399 working-precision words and  3857 shell-pairs
 IPart=  1 NShTot=        3270 NBatch=         218 AvBLen=        15.0
 IPart=  3 NShTot=        3150 NBatch=         210 AvBLen=        15.0
 IPart= 14 NShTot=        2715 NBatch=         181 AvBLen=        15.0
 IPart= 13 NShTot=        2730 NBatch=         182 AvBLen=        15.0
 IPart= 15 NShTot=        2670 NBatch=         178 AvBLen=        15.0
 IPart=  5 NShTot=        3015 NBatch=         201 AvBLen=        15.0
 IPart=  4 NShTot=        3090 NBatch=         206 AvBLen=        15.0
 IPart=  2 NShTot=        3225 NBatch=         215 AvBLen=        15.0
 IPart= 16 NShTot=        2655 NBatch=         177 AvBLen=        15.0
 IPart= 11 NShTot=        2775 NBatch=         185 AvBLen=        15.0
 IPart= 18 NShTot=        2580 NBatch=         172 AvBLen=        15.0
 IPart= 17 NShTot=        2625 NBatch=         175 AvBLen=        15.0
 IPart= 19 NShTot=        2580 NBatch=         172 AvBLen=        15.0
 IPart= 12 NShTot=        2760 NBatch=         184 AvBLen=        15.0
 IPart=  9 NShTot=        2910 NBatch=         194 AvBLen=        15.0
 IPart= 10 NShTot=        2865 NBatch=         191 AvBLen=        15.0
 IPart=  7 NShTot=        2955 NBatch=         197 AvBLen=        15.0
 IPart=  0 NShTot=        3375 NBatch=         225 AvBLen=        15.0
 IPart=  6 NShTot=        2985 NBatch=         199 AvBLen=        15.0
 IPart=  8 NShTot=        2925 NBatch=         195 AvBLen=        15.0
 PrSmSu:  NxtVal=            561.
 Polarizability after L701:
                1             2             3 
      1  0.000000D+00
      2  0.000000D+00  0.000000D+00
      3  0.000000D+00  0.000000D+00  0.000000D+00
 Dipole Derivatives after L701:
                 1             2             3             4             5 
      1  -0.167569D+01  0.679433D+00 -0.222976D-01 -0.176726D+00  0.866553D-01
      2   0.326080D+00 -0.525230D+00  0.433405D-01  0.220929D+00 -0.767534D+00
      3  -0.586656D-01  0.971315D-02 -0.405246D+00  0.749079D-01 -0.224659D-01
                 6             7             8             9            10 
      1   0.672808D-01  0.125457D-01 -0.297109D+00  0.483597D+00 -0.799212D+00
      2   0.187508D+00  0.324686D+00 -0.922205D+00 -0.271145D-01 -0.354976D+00
      3  -0.955740D+00 -0.940424D-01  0.175964D-01 -0.779374D+00  0.803888D-01
                11            12            13            14            15 
      1  -0.111119D+01 -0.543837D+00 -0.192086D+01  0.117721D+00 -0.353388D+00
      2  -0.833288D+00 -0.114329D+00 -0.164542D+00 -0.927918D+00 -0.706029D-01
      3  -0.772934D-01 -0.786916D+00  0.944026D-01 -0.292221D-01 -0.103267D+01
                16            17            18            19            20 
      1   0.147132D+00 -0.810758D-02 -0.385706D+00  0.102861D+00  0.243598D+00
      2  -0.184415D-02  0.147740D+00 -0.103736D+00 -0.190042D+00  0.693397D+00
      3   0.137612D-02  0.345918D-01  0.737166D+00  0.115365D-01 -0.135345D-01
                21            22            23            24            25 
      1   0.590159D-01  0.186707D+00 -0.121076D+00 -0.482996D-01  0.175648D+00
      2   0.152072D+00 -0.232315D+00  0.812788D+00  0.193062D+00  0.136637D-01
      3   0.164316D+00 -0.235549D-01  0.355490D-01  0.163055D+00 -0.219503D-02
                26            27            28            29            30 
      1   0.141088D-01  0.638114D-02  0.134376D+00  0.545623D-01  0.657741D+00
      2   0.159085D+00 -0.271713D+00 -0.139946D-01  0.208057D+00  0.194032D+00
      3   0.363911D-01  0.722304D+00  0.110458D-01  0.121752D-01  0.678382D+00
                31            32            33            34            35 
      1   0.652317D+00  0.683082D+00 -0.343676D+00  0.196149D+00  0.179468D-01
      2   0.292841D+00  0.562550D+00 -0.185216D+00 -0.877728D-02  0.123981D+00
      3  -0.577276D-01 -0.333479D-01  0.190057D+00  0.170813D-01  0.376840D-01
                36            37            38            39            40 
      1   0.957971D+00  0.933045D+00  0.915798D+00 -0.511086D+00  0.502893D+00
      2   0.108367D+00  0.245375D+00  0.408562D+00 -0.174114D+00 -0.124730D+00
      3   0.664345D+00 -0.786524D-01 -0.110365D+00  0.173012D+00 -0.146656D-01
                41            42            43            44            45 
      1  -0.993120D+00 -0.240852D+00  0.152882D+01 -0.282300D+00  0.217157D+00
      2   0.462979D+00  0.111190D+00 -0.332355D+00  0.397037D+00 -0.427477D-01
      3   0.901738D-01  0.152397D+00  0.387646D-01  0.123549D-01  0.314918D+00
 Hessian after L701:
                1             2             3             4             5 
      1  0.503888D+01
      2  0.365841D+01  0.649116D+01
      3  0.203098D+00 -0.147221D+01  0.111906D+02
      4  0.553968D+00 -0.412313D+00 -0.246194D-01  0.108855D+02
      5 -0.390681D+00 -0.709338D-01 -0.828600D-01 -0.100767D+00  0.141903D+02
      6 -0.941489D-01 -0.168197D-01 -0.227465D+00  0.236927D-01  0.511951D+00
      7  0.497295D+00 -0.114285D+00 -0.614411D-01 -0.301682D+01  0.185277D+01
      8 -0.248739D+00 -0.267709D+00  0.194325D-01  0.180354D+01 -0.312570D+01
      9 -0.600414D-01 -0.110027D-01 -0.299212D+00 -0.942398D+00 -0.875330D+00
     10 -0.533956D+01 -0.241913D+01 -0.797938D+00 -0.130015D+01 -0.777215D+00
     11 -0.228635D+01 -0.120754D+01  0.188962D+01 -0.839445D+00 -0.532664D+01
     12 -0.723596D+00  0.184095D+01 -0.593179D+01  0.116612D+01 -0.214861D+00
     13  0.127676D+00 -0.177004D-01 -0.569808D-02  0.272068D+00  0.200462D+00
     14 -0.276516D-01 -0.936995D-01 -0.347589D-03  0.293680D+00 -0.267165D+00
     15 -0.328637D-01  0.224150D-02 -0.101507D+00 -0.823888D-01 -0.467664D-01
     16  0.179637D-01 -0.516034D-02 -0.301348D-01  0.281096D-01 -0.361708D-01
     17 -0.103037D-01 -0.229123D-01  0.841156D-02 -0.196289D-01  0.111385D-01
     18 -0.593514D-01  0.476937D-02  0.153471D-01  0.606447D-04  0.542128D-01
     19  0.418382D-01  0.457217D-01 -0.390587D-01  0.824548D-01 -0.926589D-01
     20  0.111662D+00 -0.678885D-02 -0.223986D-01 -0.228979D-01 -0.153172D-01
     21 -0.207654D-01 -0.373425D-02 -0.423256D-01 -0.140774D-03  0.460415D-01
     22  0.352224D-01 -0.111324D+00 -0.167170D-01 -0.362174D+01 -0.725059D+00
     23 -0.132303D+00  0.978632D-01  0.200549D-01 -0.767761D+00 -0.155097D+01
     24 -0.186254D-01  0.202323D-01 -0.502410D-01 -0.169505D+00  0.536848D+00
     25  0.239879D-01 -0.181305D-01  0.191286D-01 -0.405817D+01 -0.114161D-01
     26 -0.230221D-01 -0.176552D-01 -0.544191D-02 -0.153776D-01 -0.400118D+01
     27  0.595100D-01 -0.291099D-01  0.794148D-02  0.521837D-01  0.542350D-01
     28  0.627038D-01  0.140729D-01 -0.382437D-01  0.772253D-02  0.347037D-01
     29  0.430975D-01 -0.161945D+00 -0.423686D-01  0.246860D-01  0.410996D-01
     30 -0.378344D-01 -0.312981D-01  0.418088D+00 -0.282873D-01  0.442673D-01
     31  0.924591D-01  0.182823D+00 -0.443849D-01 -0.486900D-01 -0.399900D-01
     32  0.170240D+00  0.151956D+00 -0.217749D+00 -0.233123D-01  0.971604D-01
     33 -0.315082D-01 -0.228391D+00  0.413800D-01 -0.751552D-02 -0.190322D-01
     34  0.180428D-01 -0.208509D-02  0.769751D-02  0.523892D-01  0.893975D-02
     35 -0.286881D-02 -0.113643D-01 -0.366139D-03  0.212720D-01 -0.151043D-01
     36  0.258164D-01  0.140122D-02 -0.303379D-02  0.620457D-01  0.415205D-02
     37  0.277904D-01  0.577530D-02 -0.343018D-02  0.109289D+00  0.810398D-01
     38  0.120197D-01 -0.495807D-02 -0.143312D-02  0.100219D+00 -0.826233D-02
     39 -0.964739D-02 -0.251528D-02 -0.806394D-02 -0.398759D-01 -0.160030D-01
     40  0.168981D-01 -0.671842D-02 -0.169572D-02  0.255067D-01  0.457032D-02
     41 -0.200647D-01 -0.416819D-02  0.180342D-02 -0.172581D-01  0.183766D-01
     42 -0.546461D-02  0.170192D-02 -0.809186D-02 -0.104883D-01  0.265114D-02
     43 -0.121516D+01 -0.799956D+00  0.833437D+00  0.285887D-01 -0.853149D-02
     44 -0.853443D+00 -0.487130D+01 -0.941524D-01 -0.246362D-01  0.231968D-01
     45  0.805422D+00 -0.762121D-01 -0.500164D+01  0.112166D-02  0.494100D-03
                6             7             8             9            10 
      6  0.149827D+02
      7 -0.923659D+00  0.107081D+02
      8 -0.862143D+00 -0.526098D+00  0.137327D+02
      9 -0.443211D+01  0.126823D-02  0.353031D+00  0.144817D+02
     10  0.113856D+01  0.270712D+00  0.154168D+00 -0.644058D-02  0.131749D+02
     11 -0.226512D+00  0.152118D+00 -0.256893D+00 -0.364259D-01  0.179124D+01
     12 -0.517658D+01 -0.151375D+00 -0.518809D-01 -0.310964D+00  0.509800D-01
     13 -0.202767D-01 -0.102373D+01 -0.417047D+00  0.121905D+01  0.633955D-01
     14 -0.261000D-01 -0.453444D+00 -0.479816D+01 -0.130959D+00  0.837344D-03
     15 -0.373617D+00  0.122975D+01 -0.125999D+00 -0.442199D+01  0.878468D-02
     16  0.616701D-01 -0.387759D+01 -0.569475D-02  0.394932D-01  0.250584D-01
     17  0.686842D-01 -0.114542D-01 -0.384734D+01 -0.329395D-01  0.116257D-01
     18  0.360146D-01  0.149251D+00 -0.123728D-01 -0.121740D+01 -0.332762D-01
     19 -0.788803D-03 -0.381358D+01 -0.747828D+00 -0.165314D+00  0.357663D-02
     20  0.440617D-01 -0.938303D+00 -0.165620D+01  0.563388D+00  0.862477D-01
     21  0.821293D-01 -0.188980D+00  0.522123D+00 -0.389629D+01  0.141254D-01
     22 -0.167496D+00  0.718455D-03 -0.635659D-01 -0.696321D-03 -0.647131D-04
     23  0.555667D+00  0.207867D-02  0.210575D-01  0.545604D-01  0.506787D-02
     24 -0.369183D+01  0.558579D-02  0.544846D-01  0.931612D-02  0.196759D-02
     25  0.719344D-01  0.939471D-01 -0.403930D-01  0.838027D-01  0.430850D-01
     26 -0.471909D-01 -0.493476D-01  0.671458D-01  0.104011D+00 -0.981727D-02
     27 -0.123562D+01  0.638281D-01  0.903297D-01  0.366606D-01  0.790546D-03
     28 -0.103813D+00 -0.208060D-01 -0.230879D-01 -0.301666D-01 -0.396822D+01
     29  0.246599D-01 -0.112055D-01  0.273684D-01 -0.961151D-02 -0.297005D-01
     30 -0.304734D-01 -0.128571D-01 -0.223521D-01  0.324346D-01  0.125432D-01
     31  0.921765D-02  0.120325D+00  0.803883D-01 -0.242775D-01 -0.306656D+01
     32 -0.167670D-01  0.123478D+00 -0.111827D-01 -0.869509D-02  0.118170D+01
     33  0.929178D-01 -0.388805D-01 -0.128866D-01 -0.520358D-01 -0.428237D+00
     34  0.223854D-01 -0.863570D-03  0.291877D-01 -0.897812D-01  0.365943D-02
     35  0.806877D-02  0.117872D-01  0.370256D-01  0.186920D-01  0.172455D-02
     36  0.144844D-01 -0.223893D-01  0.429073D-01  0.394215D-01  0.110097D-01
     37 -0.222167D-01 -0.181491D-01 -0.787732D-02 -0.609346D-02  0.224859D-01
     38 -0.973855D-02  0.162871D-01  0.699392D-01 -0.266768D-01  0.163106D-01
     39 -0.521254D-01 -0.218902D-01 -0.313893D-01  0.513835D-01 -0.504634D-02
     40  0.115149D-01 -0.173500D-01  0.424614D-01 -0.327699D-01  0.345493D-01
     41 -0.735421D-02 -0.295640D-01  0.221941D-01  0.411037D-01 -0.164800D-01
     42  0.531472D-02 -0.300107D-01  0.377703D-01 -0.253794D-02 -0.160469D-02
     43 -0.657449D-02  0.978351D-01 -0.294143D-01  0.143676D-01  0.331828D-01
     44 -0.466995D-03 -0.248195D-01 -0.142579D-01 -0.314640D-02  0.342144D-02
     45  0.622695D-02  0.180217D-02 -0.105508D-02 -0.183975D-01  0.337826D-01
               11            12            13            14            15 
     11  0.128594D+02
     12 -0.135616D+01  0.162498D+02
     13 -0.302720D-01  0.669945D-02  0.941074D+01
     14 -0.119143D-01 -0.491000D-02 -0.600566D-01  0.123089D+02
     15 -0.305485D-03 -0.404009D-02 -0.568670D+00  0.777282D-01  0.121000D+02
     16  0.774415D-02 -0.187585D-01 -0.743321D-02  0.674067D-04 -0.328473D-01
     17 -0.845259D-02 -0.597964D-02  0.586385D-02  0.127714D-01  0.109885D-01
     18  0.106624D-03  0.219864D-01 -0.273488D-02  0.596536D-02  0.750784D-01
     19  0.373624D-01  0.504300D-02  0.159930D-01  0.263397D-01  0.161864D-02
     20  0.142413D-01 -0.473081D-02  0.141545D-01  0.843134D-01  0.153007D-01
     21  0.108136D-01 -0.511297D-01 -0.164949D-01  0.273067D-01  0.589514D-01
     22  0.270609D-01  0.175170D-01  0.138184D-01  0.880980D-02  0.131655D-02
     23  0.245529D-01  0.111991D-01  0.186697D-01  0.236852D-01 -0.348888D-02
     24  0.230721D-01  0.708841D-02  0.887931D-02  0.111862D-01 -0.735889D-02
     25 -0.392628D-01 -0.488218D-01  0.204709D-01  0.268233D-01 -0.376213D-01
     26  0.565836D-01 -0.500753D-02  0.219305D-01 -0.334573D-01 -0.128308D-01
     27 -0.616573D-01  0.769160D-01 -0.668011D-01 -0.334303D-01  0.803401D-02
     28  0.679217D-03  0.153101D+00  0.331705D-01  0.111762D-01  0.197122D-01
     29 -0.393123D+01  0.437834D+00  0.124770D-01 -0.156300D-01  0.384284D-02
     30  0.408171D+00 -0.107791D+01  0.353765D-01  0.995063D-02 -0.652991D-02
     31  0.123975D+01 -0.454692D+00  0.847726D-02  0.801663D-02 -0.311702D-02
     32 -0.211785D+01 -0.661868D+00  0.108272D-01  0.834871D-03 -0.395756D-02
     33 -0.645734D+00 -0.370030D+01 -0.280467D-02 -0.277752D-02 -0.534164D-02
     34 -0.178588D-02  0.209069D-02 -0.348213D+01  0.177126D-01  0.339475D+00
     35 -0.712977D-02  0.963797D-03  0.128348D-01 -0.344512D+01  0.147354D+00
     36 -0.586131D-02 -0.598754D-02  0.177448D+00  0.129718D+00 -0.102433D+01
     37  0.345800D-02 -0.763459D-02 -0.237060D+01  0.106611D+01 -0.586555D+00
     38 -0.849775D-02 -0.653218D-02  0.100463D+01 -0.227912D+01 -0.571645D+00
     39 -0.220929D-04 -0.626182D-02 -0.547241D+00 -0.564748D+00 -0.303186D+01
     40 -0.124474D-01 -0.499290D-02 -0.307357D+01 -0.919834D+00 -0.254124D+00
     41 -0.390065D-02  0.681496D-02 -0.777765D+00 -0.148448D+01  0.506533D+00
     42  0.291790D-02 -0.126908D-01 -0.216840D+00  0.501300D+00 -0.326327D+01
     43 -0.498520D-01  0.832495D-02 -0.833826D-02  0.141215D-02 -0.246741D-02
     44 -0.747392D-01  0.141718D-01  0.992773D-03 -0.180165D-02  0.100399D-02
     45 -0.202675D-02 -0.781814D-01  0.110930D-03  0.116539D-03 -0.224528D-02
               16            17            18            19            20 
     16  0.372249D+01
     17 -0.165826D-01  0.388959D+01
     18 -0.599440D-01  0.698485D-01  0.990685D+00
     19  0.865258D-01  0.159144D-01  0.234999D-01  0.359298D+01
     20  0.290816D-01  0.125335D-01 -0.107500D+00  0.744559D+00  0.142793D+01
     21  0.464274D-01 -0.127425D+00 -0.481405D-01  0.178252D+00 -0.513697D+00
     22  0.131199D-01 -0.872165D-02  0.990241D-02 -0.187276D-01 -0.286098D-02
     23 -0.101728D-01 -0.183388D-01  0.134817D-01 -0.116243D-02  0.824717D-01
     24  0.617368D-02  0.244718D-01 -0.353421D-02  0.105818D-02  0.673792D-02
     25 -0.147358D-01  0.377964D-02 -0.223504D-01  0.456242D-02 -0.835444D-05
     26  0.459386D-02 -0.123138D-01 -0.245171D-01 -0.298734D-02 -0.388677D-02
     27 -0.240674D-01 -0.243845D-01  0.787342D-01  0.489021D-02 -0.986868D-02
     28  0.245049D-01  0.130496D-01 -0.113611D-01  0.259691D-02  0.128314D-01
     29  0.146075D-01 -0.789386D-02 -0.600216D-02  0.780158D-02  0.706293D-02
     30  0.770099D-02  0.188444D-02 -0.242385D-01  0.741639D-02  0.217391D-01
     31  0.471577D-02  0.388309D-02 -0.112179D-01 -0.425284D-02  0.446044D-02
     32  0.534695D-02  0.259138D-03 -0.106960D-01 -0.397326D-02  0.743225D-02
     33 -0.392057D-02 -0.200487D-02  0.430703D-02  0.475534D-03 -0.309095D-02
     34 -0.324225D-02 -0.138744D-02  0.463386D-01 -0.975431D-02  0.145081D-01
     35  0.436073D-03 -0.184716D-01  0.844135D-04  0.126748D-01  0.324160D-02
     36  0.390798D-01 -0.181202D-02  0.752949D-01 -0.100143D-01 -0.918670D-03
     37 -0.969838D-02 -0.448823D-02 -0.421474D-03 -0.137233D-01 -0.500412D-02
     38 -0.264493D-02  0.531236D-02  0.647823D-02  0.957024D-02 -0.987027D-03
     39 -0.112770D-01 -0.385850D-02 -0.246404D-02 -0.344477D-03  0.444182D-02
     40 -0.130391D-01  0.192061D-01 -0.190993D-01  0.244194D-01 -0.599792D-01
     41  0.155490D-01  0.490362D-02  0.356386D-02 -0.518320D-01  0.473246D-01
     42 -0.190895D-01  0.139396D-01 -0.977154D-03 -0.642893D-02  0.605992D-02
     43  0.325237D-02 -0.755716D-03 -0.929597D-02  0.509599D-02  0.115481D-01
     44 -0.100028D-02 -0.783336D-03  0.257694D-02  0.498134D-03 -0.337235D-02
     45 -0.506072D-03  0.175842D-03 -0.692957D-03 -0.304475D-03  0.475362D-03
               21            22            23            24            25 
     21  0.392438D+01
     22  0.105651D-02  0.349982D+01
     23  0.625343D-02  0.832573D+00  0.130655D+01
     24 -0.152975D-01  0.139495D+00 -0.578518D+00  0.380074D+01
     25  0.318697D-03  0.708225D-01  0.162651D-01  0.335432D-01  0.381407D+01
     26  0.958890D-02  0.127628D-01  0.178853D-01 -0.105367D+00  0.691143D-01
     27 -0.137930D-02  0.213302D-01 -0.815929D-01 -0.411382D-01 -0.126214D+00
     28  0.686668D-02 -0.609835D-02  0.874094D-02 -0.112154D-01 -0.367002D-02
     29  0.632017D-02  0.886546D-02  0.114396D-02  0.669315D-02  0.247867D-02
     30  0.265252D-02 -0.357703D-02 -0.654902D-02 -0.101125D-02  0.450844D-01
     31  0.149046D-02 -0.935303D-02 -0.634207D-02 -0.879056D-03 -0.237980D-01
     32  0.215709D-02  0.106162D-01 -0.509509D-02 -0.281567D-02 -0.133313D-01
     33 -0.666010D-03 -0.103669D-02  0.427812D-02  0.526000D-02 -0.225776D-01
     34 -0.181952D-01 -0.152368D-02  0.522510D-02  0.228501D-02  0.158035D-01
     35  0.112299D-01  0.852083D-03  0.270397D-02  0.224687D-02  0.964317D-02
     36 -0.309550D-03  0.691318D-03  0.133010D-01  0.332748D-02  0.653225D-02
     37 -0.265659D-04  0.403971D-03  0.114909D-01  0.111658D-02  0.287070D-02
     38 -0.265475D-02  0.243392D-02  0.100184D-01  0.142130D-02  0.327444D-02
     39  0.727241D-02 -0.161496D-03 -0.363541D-02 -0.270997D-02 -0.279380D-02
     40 -0.623822D-02  0.211535D-01  0.256016D-01  0.205560D-02  0.275486D-02
     41  0.607325D-02  0.641100D-02 -0.157756D-01 -0.194188D-02 -0.376551D-02
     42 -0.178310D-01 -0.252418D-02 -0.420115D-02 -0.126336D-01 -0.311203D-02
     43  0.230359D-02  0.242562D-02 -0.797076D-02 -0.193460D-02  0.800420D-02
     44 -0.396034D-03  0.114644D-02  0.225251D-02  0.124900D-02 -0.507095D-02
     45 -0.202108D-02  0.900478D-03 -0.809758D-03  0.230024D-04  0.314666D-02
               26            27            28            29            30 
     26  0.394455D+01
     27  0.998747D-01  0.999122D+00
     28 -0.252485D-02  0.457791D-01  0.376343D+01
     29 -0.200476D-01  0.180468D-02 -0.440097D-01  0.400275D+01
     30 -0.566240D-02  0.818244D-01 -0.133759D+00 -0.535404D+00  0.699050D+00
     31 -0.112136D-01 -0.148582D-01  0.964174D-01 -0.446508D-01  0.953843D-01
     32  0.103736D-01  0.249697D-02 -0.389466D-01  0.637849D-01  0.122602D+00
     33 -0.703508D-02 -0.696930D-03  0.876701D-01  0.124382D+00 -0.995450D-01
     34  0.891148D-02 -0.104013D-01  0.118180D-02  0.720816D-03  0.419020D-02
     35 -0.579752D-02 -0.441499D-02  0.401684D-03 -0.835271D-03  0.915642D-03
     36  0.164082D-02 -0.194327D-01  0.334323D-02  0.152232D-02  0.798205D-02
     37  0.248977D-02 -0.102403D-01  0.251490D-02  0.180951D-02  0.651809D-02
     38 -0.320328D-03 -0.827322D-02  0.209891D-02  0.422750D-03  0.505792D-02
     39 -0.138086D-02  0.439090D-02 -0.179754D-03 -0.424754D-03 -0.274006D-02
     40 -0.109317D-02 -0.101313D-01  0.280346D-02  0.372107D-03  0.600277D-02
     41 -0.160910D-02  0.989270D-02 -0.251474D-02 -0.173966D-02 -0.616216D-02
     42  0.658725D-03  0.365681D-02  0.277207D-03 -0.120124D-03 -0.187697D-02
     43 -0.441912D-02  0.144017D-01  0.174736D-02  0.126504D-01 -0.390207D-02
     44 -0.272112D-03 -0.590181D-02  0.133293D-01 -0.431429D-02 -0.716059D-02
     45 -0.134061D-02  0.987571D-03  0.119891D-01 -0.131276D-01  0.229097D-02
               31            32            33            34            35 
     31  0.281760D+01
     32 -0.143656D+01  0.182050D+01
     33  0.446421D+00  0.794587D+00  0.370469D+01
     34  0.306596D-02  0.300501D-02 -0.215108D-03  0.327290D+01
     35  0.140204D-02  0.120864D-03 -0.105008D-03 -0.889039D-01  0.341863D+01
     36  0.572909D-02  0.575210D-02 -0.230466D-02 -0.395646D+00 -0.108056D+00
     37  0.420505D-02  0.535347D-02 -0.207839D-02  0.374611D-01 -0.145256D-01
     38  0.429039D-02  0.355172D-02 -0.160926D-02 -0.792944D-02  0.351071D-01
     39 -0.216371D-02 -0.204044D-02  0.890005D-04  0.548468D-01  0.698011D-01
     40  0.435411D-02  0.376768D-02 -0.161797D-02  0.903169D-01  0.333864D-01
     41 -0.417487D-02 -0.480848D-02  0.170405D-02  0.146412D-01  0.753289D-02
     42 -0.140906D-02 -0.118483D-02 -0.319424D-03  0.344403D-01 -0.146412D+00
     43  0.103449D-02  0.178985D-02  0.582473D-02  0.269606D-02 -0.116549D-03
     44  0.179109D-01 -0.170393D-01 -0.228390D-02 -0.760086D-03 -0.534575D-03
     45 -0.124370D-02 -0.182236D-02  0.125652D-01  0.489053D-03 -0.220564D-05
               36            37            38            39            40 
     36  0.102879D+01
     37  0.399150D-01  0.213967D+01
     38  0.360063D-01 -0.112863D+01  0.227464D+01
     39 -0.543083D-01  0.596471D+00  0.552805D+00  0.304263D+01
     40  0.502650D-01  0.599123D-01 -0.356940D-01 -0.853840D-02  0.281730D+01
     41 -0.118212D+00 -0.157984D-01 -0.956113D-01 -0.152083D-02  0.907907D+00
     42 -0.599742D-01 -0.569688D-02  0.264860D-01  0.553534D-01  0.269094D+00
     43  0.617403D-02  0.557469D-02  0.376381D-02 -0.215841D-02  0.398443D-02
     44 -0.154168D-02 -0.120541D-02 -0.123419D-02  0.491184D-03 -0.150692D-02
     45  0.384324D-03  0.372688D-03  0.308289D-03 -0.584986D-03  0.275534D-03
               41            42            43            44            45 
     41  0.151059D+01
     42 -0.441924D+00  0.331640D+01
     43 -0.529092D-02 -0.114206D-02  0.103007D+01
     44  0.117170D-02  0.356183D-03  0.875143D+00  0.496303D+01
     45 -0.374489D-03 -0.522024D-03 -0.857359D+00  0.952007D-01  0.508180D+01
 Leave Link  701 at Tue Mar 12 23:17:06 2019, MaxMem=   671088640 cpu:               8.6 elap:               0.5
 (Enter /shared/centos7/gaussian/g16/l702.exe)
 L702 exits ... SP integral derivatives will be done elsewhere.
 Leave Link  702 at Tue Mar 12 23:17:07 2019, MaxMem=   671088640 cpu:               0.4 elap:               0.0
 (Enter /shared/centos7/gaussian/g16/l703.exe)
 Integral derivatives from FoFJK, PRISM(SPDF).
 Compute integral second derivatives, UseDBF=F ICtDFT=           0.
 ICntrl=    100147.
 Calling FoFJK, ICntrl=    100147 FMM=F ISym2X=0 I1Cent= 0 IOpClX= 0 NMat=1 NMatS=1 NMatT=0.
 FoFJK:  IHMeth= 1 ICntrl=  100147 DoSepK=F KAlg= 0 I1Cent=           0 FoldK=F
 IRaf=         0 NMat=       1 IRICut=       1 DoRegI=T DoRafI=F ISym2E= 0 IDoP0=0 IntGTp=1.
 FoFCou: FMM=F IPFlag=           0 FMFlag=      100000 FMFlg1=         800
         NFxFlg=           0 DoJE=F BraDBF=F KetDBF=F FulRan=T
         wScrn=  0.000000 ICntrl=    100147 IOpCl=  0 I1Cent=           0 NGrid=           0
         NMat0=    1 NMatS0=      1 NMatT0=    0 NMatD0=    1 NMtDS0=    0 NMtDT0=    0
 Symmetry not used in FoFCou.
 FoFCou:  KetSym=F NOpSet=  1 NOpAb=1 NOp=  1.
 FoFCou:  CnvScl= 1.00D+00 Thresh= 1.00D-08 IAcrcy=      12.
 PrismS was handed   670732677 working-precision words and  3961 shell-pairs
 FoFCou: LinMIO=F DoNuc=F BraDBF=F KetDBF=F HaveP=T PDBF=F HaveZ=T HaveW=F
         NIJTC =      15 NIJTAt=       0 NIJTCD=       0 NIJTT =      15
         IJTBeg=       1 IJTEnd=      15 KLTBeg=       1 KLTEnd=      15
         IPTBeg=       1 IPTEnd=      15 IPTBCv=       1 IPTECv=      15
         IZTBeg=       1 IZTEnd=      15 IZTBCv=       1 IZTECv=      15
         IWTBeg=      16 IWTEnd=      15 IWTBCv=      16 IWTECv=      15
         INTBeg=       1 INTEnd=       0 IFTBCv=       1 IFTECv=      15
 NCel replicated for PrismC:     1
 CoulSu-InSpLW:  IPartL=    0 NPrtUS=   20 NPrtUL=    1 DoSpLW=F IThBeg=    0 IThEnd=   19 NThAct=   20.
 CoulSu:  IncDef=  1024 NBBP=        7846741 NTPThr=   100 NPartT=   20 Incr=        1024 LDynOK=F GPUOK=T.
 CoulSu:  NPrtUS=  20 ThrOK=T IAlg=1 NPAlg=1 LenDen=           0 LWGrdD=           0 DoCopy=F ISkipM=0
          DoSpLW=F IThBeg=    0 IThEnd=   19.
 Enter PrismC:  IPart=  0 JobTyp=22 DoJE=F Cont=F.
 PrismC:  IPart=     0 DynPar=T LinDyn=F Incr=        1024 UseFst=F UseS4=T ISplat=2.
 PrismC was handed    33464826 working-precision words and  3961 shell-pairs
 Enter PrismC:  IPart=  9 JobTyp=22 DoJE=F Cont=F.
 PrismC:  IPart=     9 DynPar=T LinDyn=F Incr=        1024 UseFst=F UseS4=T ISplat=2.
 Enter PrismC:  IPart=  7 JobTyp=22 DoJE=F Cont=F.
 PrismC was handed    33464826 working-precision words and  3961 shell-pairs
 Enter PrismC:  IPart= 11 JobTyp=22 DoJE=F Cont=F.
 PrismC:  IPart=     7 DynPar=T LinDyn=F Incr=        1024 UseFst=F UseS4=T ISplat=2.
 PrismC was handed    33464826 working-precision words and  3961 shell-pairs
 PrismC:  IPart=    11 DynPar=T LinDyn=F Incr=        1024 UseFst=F UseS4=T ISplat=2.
 PrismC was handed    33464826 working-precision words and  3961 shell-pairs
 Enter PrismC:  IPart=  2 JobTyp=22 DoJE=F Cont=F.
 Enter PrismC:  IPart=  1 JobTyp=22 DoJE=F Cont=F.
 PrismC:  IPart=     2 DynPar=T LinDyn=F Incr=        1024 UseFst=F UseS4=T ISplat=2.
 PrismC was handed    33464826 working-precision words and  3961 shell-pairs
 Enter PrismC:  IPart= 10 JobTyp=22 DoJE=F Cont=F.
 Enter PrismC:  IPart= 17 JobTyp=22 DoJE=F Cont=F.
 PrismC:  IPart=     1 DynPar=T LinDyn=F Incr=        1024 UseFst=F UseS4=T ISplat=2.
 PrismC was handed    33464826 working-precision words and  3961 shell-pairs
 Enter PrismC:  IPart= 16 JobTyp=22 DoJE=F Cont=F.
 PrismC:  IPart=    10 DynPar=T LinDyn=F Incr=        1024 UseFst=F UseS4=T ISplat=2.
 PrismC was handed    33464826 working-precision words and  3961 shell-pairs
 PrismC:  IPart=    17 DynPar=T LinDyn=F Incr=        1024 UseFst=F UseS4=T ISplat=2.
 PrismC was handed    33464826 working-precision words and  3961 shell-pairs
 Enter PrismC:  IPart=  5 JobTyp=22 DoJE=F Cont=F.
 PrismC:  IPart=    16 DynPar=T LinDyn=F Incr=        1024 UseFst=F UseS4=T ISplat=2.
 PrismC was handed    33464826 working-precision words and  3961 shell-pairs
 Enter PrismC:  IPart= 13 JobTyp=22 DoJE=F Cont=F.
[...]
 ! D26   D(6,3,5,13)           -58.3658         -DE/DX =    0.0                 !
 ! D27   D(6,3,5,14)            62.019          -DE/DX =    0.0                 !
 ! D28   D(7,3,5,12)           -61.4225         -DE/DX =    0.0                 !
 ! D29   D(7,3,5,13)            58.7204         -DE/DX =    0.0                 !
 ! D30   D(7,3,5,14)           179.1053         -DE/DX =    0.0                 !
 --------------------------------------------------------------------------------
 GradGradGradGradGradGradGradGradGradGradGradGradGradGradGradGradGradGrad

 Leave Link  103 at Tue Mar 12 23:28:10 2019, MaxMem=   671088640 cpu:               0.6 elap:               0.1
 (Enter /shared/centos7/gaussian/g16/l9999.exe)

 ----------------------------------------------------------------------

 Electric dipole moment (input orientation):
 (Debye = 10**-18 statcoulomb cm , SI units = C m)
                  (au)            (Debye)         (10**-30 SI)
   Tot        0.605252D+00      0.153840D+01      0.513154D+01
   x          0.345868D+00      0.879109D+00      0.293239D+01
   y          0.353740D+00      0.899117D+00      0.299913D+01
   z          0.348673D+00      0.886238D+00      0.295617D+01

 Dipole polarizability, Alpha (input orientation).
 (esu units = cm**3 , SI units = C**2 m**2 J**-1)
 Alpha(0;0):
               (au)            (10**-24 esu)      (10**-40 SI)
   iso        0.548904D+02      0.813391D+01      0.905020D+01
   aniso      0.131111D+02      0.194287D+01      0.216173D+01
   xx         0.634352D+02      0.940012D+01      0.104590D+02
   yx         0.364802D+00      0.540580D-01      0.601477D-01
   yy         0.517235D+02      0.766463D+01      0.852805D+01
   zx         0.101134D+01      0.149864D+00      0.166747D+00
   zy        -0.402319D+00     -0.596175D-01     -0.663334D-01
   zz         0.495124D+02      0.733698D+01      0.816349D+01

 ----------------------------------------------------------------------

 Dipole orientation:
     8          3.41898466         -1.53587127          0.95270229
     6         -0.03660422          1.29718554          0.53141148
     6         -1.65500140         -0.51295586         -1.01911566
     6          1.69899455         -0.04625928          2.36925405
     6         -3.36669407          0.87422240         -2.87348278
     1         -2.79797167         -1.66220650          0.26299853
     1         -0.41870856         -1.81369315         -2.03167843
     1         -1.25057204          2.58696422          1.59556119
     1          1.11652025          2.45616099         -0.73160374
     1          0.58052690         -1.24218563          3.63822941
     1          2.71751130          1.33562078          3.52259471
     1         -2.25269496          1.99223165         -4.19961453
     1         -4.51938880         -0.43541424         -3.96615453
     1         -4.63726726          2.16282741         -1.88481874
     1          4.51178452         -2.43322646          2.08323147

 Electric dipole moment (dipole orientation):
 (Debye = 10**-18 statcoulomb cm , SI units = C m)
                  (au)            (Debye)         (10**-30 SI)
   Tot        0.605252D+00      0.153840D+01      0.513154D+01
   x          0.000000D+00      0.000000D+00      0.000000D+00
   y          0.000000D+00      0.000000D+00      0.000000D+00
   z          0.605252D+00      0.153840D+01      0.513154D+01

 Dipole polarizability, Alpha (dipole orientation).
 (esu units = cm**3 , SI units = C**2 m**2 J**-1)
 Alpha(0;0):
               (au)            (10**-24 esu)      (10**-40 SI)
   iso        0.548904D+02      0.813391D+01      0.905020D+01
   aniso      0.131111D+02      0.194287D+01      0.216173D+01
   xx         0.572264D+02      0.848008D+01      0.943536D+01
   yx        -0.267902D+01     -0.396991D+00     -0.441712D+00
   yy         0.519919D+02      0.770440D+01      0.857230D+01
   zx         0.647382D+01      0.959320D+00      0.106739D+01
   zy        -0.106098D+01     -0.157221D+00     -0.174932D+00
   zz         0.554528D+02      0.821725D+01      0.914293D+01

 ----------------------------------------------------------------------

 Test job not archived.
 1\1\GINC-C0280\Freq\RM062X\6-311+G(2df,2p)\C4H10O1\UNDERKOFFLER.C\12-M
 ar-2019\0\\#P Geom=AllCheck Guess=TCheck SCRF=Check Test GenChk RM062X
 /6-311+G(2df,2p) Freq\\Gaussian input prepared by ASE\\0,1\O,1.8947082
 035,-0.7253437133,-0.2684462791\C,-0.0001215353,0.7061276792,-0.228122
 1332\C,-0.9449887069,-0.34221911,0.3484360597\C,1.4344299679,0.5230653
 996,0.2228006767\C,-2.3794117844,-0.148821216,-0.1282791225\H,-0.90792
 76536,-0.2938729485,1.4403535966\H,-0.5866541116,-1.3331568958,0.06819
 76843\H,-0.3322614353,1.7059745079,0.0644806909\H,-0.0282375873,0.6665
 805785,-1.3202956382\H,1.4830316662,0.5452538162,1.3177391431\H,2.0555
 415257,1.3383298228,-0.1609858985\H,-2.438434734,-0.2204815425,-1.2151
 922929\H,-3.0465709487,-0.9003317736,0.2922338329\H,-2.7579946392,0.83
 3540586,0.1587922539\H,2.795670773,-0.8701821903,0.0232674263\\Version
 =EM64L-G16RevA.03\State=1-A\HF=-233.6332366\RMSD=1.659e-09\RMSF=7.716e
 -07\ZeroPoint=0.1380979\Thermal=0.144884\Dipole=0.3458683,0.3537397,0.
 3486731\DipoleDeriv=-0.5737726,0.2278619,0.1368478,0.2787734,-0.826907
 4,-0.0797181,0.1639912,-0.0908343,-0.5060537,-0.0261611,0.0170141,-0.0
 172665,-0.0107863,0.0962901,0.0195469,-0.0591432,0.0350574,0.0907019,0
 .0838705,0.0030832,-0.0029887,0.0277254,0.0423652,0.0196076,-0.00979,0
 .0211553,0.1176062,0.4223129,-0.1827508,-0.0925035,-0.2347129,0.666549
 1,0.1097366,-0.0866751,0.1105911,0.3882891,0.0017577,-0.0086801,-0.018
 289,-0.037423,0.0910049,0.0095037,-0.0002698,0.0141572,0.0828838,-0.00
 31183,-0.0142013,-0.0316854,-0.0197013,0.0439761,-0.0168373,-0.0204905
 ,0.0183448,-0.1696537,0.0173345,0.0424907,0.0034644,0.0275281,-0.09048
 67,-0.0137381,0.0054014,-0.0346952,0.0442086,-0.0003321,0.0574136,0.01
 45732,0.0308959,-0.125415,-0.0284632,0.0251062,-0.0611033,0.04328,0.01
 10804,-0.0108668,-0.0130741,-0.0320532,0.0492488,-0.0134549,-0.0108218
 ,0.023576,-0.1370483,0.0141266,0.0162022,0.0079906,0.0514741,-0.010506
 2,0.0061479,-0.0187418,-0.0544474,-0.1978114,-0.1039617,-0.1027718,0.0
 325263,-0.0582459,-0.1351842,0.0215368,0.0715111,0.0573302,0.0172573,0
 .0284528,0.0061693,0.0190148,0.012448,0.0613819,-0.0092448,-0.0484082,
 -0.0095657,-0.1423706,-0.0811028,-0.0748424,0.0252935,-0.1076063,-0.03
 14414,0.0532494,0.0499943,0.0603332,0.0364181,0.0049664,0.0312518,-0.0
 054015,0.0996521,-0.1135154,-0.042766,0.0095551,-0.0591979,0.0403185,0
 .2045467,-0.0073737,-0.0585021,-0.0279681,0.2826401,-0.0351066,-0.0712
 187,-0.0307013,0.2919744\Polar=63.4351711,0.3648016,51.7234973,1.01133
 53,-0.4023185,49.5123891\Quadrupole=2.5469406,-1.3003958,-1.2465448,0.
 3267249,1.3326441,-0.404282\PG=C01 [X(C4H10O1)]\NImag=0\\0.59299977,-0
 .14614414,0.31611439,0.14445226,0.08703459,0.15186324,-0.01813534,0.01
 132637,-0.00238427,0.49220097,0.04389754,-0.01366745,0.00904820,-0.032
 42178,0.55844643,0.01538507,-0.00545366,0.00645644,-0.00011575,0.03154
 619,0.57854115,0.00104133,-0.00114741,0.00015323,-0.11612253,-0.047909
 13,0.02743309,0.48046415,-0.00067851,-0.00113140,0.00002208,-0.0451991
 1,-0.13884975,0.03339800,-0.03645533,0.55560952,0.00004627,0.00049454,
 0.00047256,0.02718250,0.03381552,-0.09986433,-0.00121258,0.03026616,0.
 57440283,-0.10087750,0.02333721,-0.00319266,-0.19217483,-0.00199583,-0
 .04507539,-0.02771924,-0.00235991,-0.00531262,0.53030892,0.05784685,-0
 .20934080,-0.05528678,0.01046494,-0.07748374,0.00902425,-0.02391482,0.
 00616907,-0.00973607,0.04759392,0.52615984,0.01600808,-0.06892919,-0.0
 9432787,-0.03897358,0.00169707,-0.09694825,0.01188588,-0.00340977,0.00
 431171,-0.00424060,-0.02551623,0.58250578,0.00024497,0.00013994,-0.000
 12574,-0.02735745,0.00005534,-0.00610858,-0.18646427,0.01600213,-0.036
 56406,-0.00081556,-0.00268197,0.00166136,0.49403657,0.00083467,0.00121
 788,-0.00009365,-0.02524409,0.00303409,-0.00864857,0.01892991,-0.08227
 245,0.00607965,-0.00259896,-0.00563524,0.00219575,0.01744649,0.5742941
 1,0.00030356,-0.00006505,0.00009710,0.01254191,-0.00267881,0.00465608,
 -0.03855411,0.00525386,-0.09272123,0.00140219,0.00220919,-0.00181308,-
 0.03099733,0.00099567,0.56258942,-0.00003961,0.00016080,-0.00061985,-0
 .00154062,0.00069914,0.02155979,-0.04670178,0.00074236,-0.00625601,0.0
 0150361,0.00039494,0.00195763,-0.00273143,-0.00216168,-0.03383688,0.05
 492045,0.00014245,-0.00024490,0.00009105,-0.00089625,-0.00000060,0.025
 53990,0.00052938,-0.05046837,-0.01651681,0.00117608,0.00085346,0.00024
 401,0.00042047,-0.00007467,0.00448352,0.00241302,0.05152105,0.00038963
 ,-0.00003778,0.00021695,0.00059324,-0.00006038,-0.01426850,-0.00684635
 ,-0.01537162,-0.30279036,-0.00090192,-0.00047253,0.00011869,-0.0009139
 5,-0.00072188,-0.00927473,0.00787202,0.01433088,0.33096566,-0.00167480
 ,0.00056567,0.00027311,0.00640342,-0.02049024,-0.00605589,-0.07386648,
 0.07935259,0.02293332,0.00106408,-0.00083526,-0.00068951,-0.01244224,0
 .02939058,0.00847123,-0.00000999,-0.00166525,-0.00008387,0.08554285,0.
 00090545,0.00139196,-0.00001147,0.00527624,-0.02307046,-0.00631550,0.0
 7778592,-0.26655982,-0.06452330,0.00135147,-0.00159160,-0.00024688,0.0
 0105645,-0.00156588,-0.00030499,-0.00002636,-0.00083639,-0.00091394,-0
 .08403952,0.29078985,0.00040207,0.00038514,-0.00034741,-0.00433181,0.0
 1317873,0.00349179,0.02308490,-0.06598016,-0.07029468,-0.00015330,-0.0
 0088215,0.00031630,-0.00424300,0.01105092,0.00284255,0.01051885,-0.030
 01057,-0.00889305,-0.02475146,0.06916509,0.07176154,-0.00835308,0.0015
 0526,-0.00307112,-0.07284111,0.07214106,0.01982712,0.00513155,-0.02030
 740,-0.00609038,-0.00543661,0.02821130,0.01197428,0.00193439,-0.000798
 15,-0.00034644,0.00064830,0.00095578,-0.00019042,-0.00269188,-0.003106
 33,0.00174917,0.08101357,0.00103682,0.00128124,0.00069598,0.07405897,-
 0.26012426,-0.06572013,0.00625499,-0.02313216,-0.00612861,-0.00045050,
 -0.00462269,-0.00164004,0.00126011,0.00094161,-0.00022695,0.00030790,0
 .00082442,0.00033784,-0.00332591,-0.00197573,0.00247145,-0.07857225,0.
 28650204,-0.00217642,0.00039001,0.00001384,0.02140237,-0.06644872,-0.0
 6860466,-0.00369892,0.01348417,0.00339828,-0.00251023,0.00988900,0.001
 54125,-0.00060817,-0.00039886,0.00009626,-0.00081430,-0.00016956,0.000
 57163,0.00174336,0.00226767,-0.00005191,-0.02465733,0.07053599,0.07008
 057,0.00267036,-0.00111026,0.00183405,-0.04733348,0.00064154,-0.004692
 56,-0.00121478,0.00073926,0.02112056,-0.00381961,-0.00181849,-0.035964
 74,0.00141575,0.00044278,0.00119429,-0.00236096,-0.00328155,0.00137712
 ,0.00069919,0.00031172,-0.00083289,-0.00026644,0.00004348,0.01060036,0
 .05459183,-0.00064159,0.00065290,0.00063810,-0.00031588,-0.04891547,-0
 .01315389,-0.00075973,0.00039989,0.02505979,0.00105156,-0.00078020,0.0
 0369325,0.00121045,0.00058483,0.00010997,-0.00326984,-0.00273802,0.002
 27373,0.00089079,0.00077837,-0.00015051,-0.00181532,-0.00108709,-0.029
 36784,0.00334315,0.05059108,0.00060653,0.00051276,0.00148154,-0.006488
 76,-0.01186811,-0.30551613,0.00031992,0.00017491,-0.01373852,-0.001072
 69,-0.00135056,-0.01245305,-0.00064114,-0.00045026,0.00067438,0.001403
 51,0.00210725,0.00052767,-0.00011859,0.00016850,0.00051296,-0.00014431
 ,-0.00067574,-0.00793760,0.00747815,0.01161184,0.33393338,0.00081150,0
 .00787902,0.01399310,-0.00280342,0.00024909,-0.03359158,0.00221170,0.0
 0057691,-0.00127573,-0.05323802,-0.00343068,-0.01206837,-0.00010704,0.
 00010347,0.00005740,-0.00027518,-0.00015166,0.00088214,-0.00010218,-0.
 00019564,0.00004570,0.00096773,0.00021129,0.00074587,-0.00599771,0.000
 55653,-0.00197137,0.05538212,0.00513675,-0.01414004,-0.04026860,-0.000
 37632,0.00118704,0.00510471,-0.00017578,-0.00014530,-0.00102096,-0.001
 87355,-0.05087155,0.01138800,-0.00004892,-0.00003983,0.00006925,-0.000
 05174,0.00022123,-0.00007638,0.00015898,0.00002992,-0.00005744,-0.0003
 3448,0.00004005,-0.00007584,0.00146618,0.00064706,-0.00013488,-0.00372
 469,0.06048010,0.00480062,-0.01256813,-0.00903698,-0.00159491,0.001446
 62,-0.01094537,0.00119407,0.00003915,0.00065159,-0.01221264,0.00672962
 ,-0.29497661,-0.00005352,0.00004635,0.00052979,-0.00075485,-0.00060766
 ,0.00058161,-0.00004272,0.00002858,-0.00000753,-0.00065604,0.00034453,
 0.00000262,-0.00179661,0.00069603,0.00084603,0.01227514,0.00228315,0.3
 2410373,0.01012114,0.01507119,-0.00339107,-0.01892907,-0.02331036,0.01
 401739,-0.00488093,0.00306873,-0.00386960,-0.13697164,-0.10676062,0.05
 363879,-0.00072702,-0.00179166,0.00099011,0.00022533,0.00029452,0.0000
 1807,0.00020504,-0.00005590,-0.00012171,0.00067450,0.00047480,0.000483
 04,0.00140106,-0.00008597,-0.00045094,0.00230796,0.00126952,-0.0010783
 6,0.14604203,-0.00775263,-0.04005953,0.00191648,0.00252192,0.00489965,
 -0.00175001,0.00112255,0.00067869,0.00050611,-0.10428649,-0.17503565,0
 .06814417,0.00020989,0.00023026,-0.00003212,-0.00001318,-0.00006410,0.
 00002192,0.00030895,0.00021021,0.00000030,-0.00062113,0.00054312,-0.00
 016418,-0.00030733,-0.00017875,-0.00012555,-0.00180765,0.00150834,0.00
 219938,0.11174942,0.20711770,-0.00793610,-0.01581287,0.00782383,-0.008
 00714,-0.00841309,0.00414431,-0.00110811,0.00063379,-0.00045426,0.0565
 7894,0.07081502,-0.09194253,-0.00039112,-0.00022538,0.00050314,-0.0002
 9592,-0.00019509,0.00051601,0.00009578,0.00004384,-0.00003629,0.000876
 64,0.00010203,0.00025520,0.00056393,-0.00048052,0.00061718,0.01954194,
 0.02292955,-0.01187973,-0.05935279,-0.07041309,0.09034124,0.00001358,-
 0.00001286,0.00012849,0.00204568,0.00056355,-0.00131432,-0.00241614,-0
 .00294068,-0.03344852,-0.00013487,0.00016156,-0.00004686,-0.04667896,-
 0.00099740,-0.00948736,-0.00616864,0.00067134,-0.00190593,0.00149579,0
 .00011617,0.00060822,-0.00004786,-0.00007155,0.00010219,-0.00030301,-0
 .00023038,0.00079417,0.00014207,-0.00002780,0.00028599,-0.00000633,-0.
 00000738,0.00012443,0.05202979,0.00003084,-0.00011085,-0.00003005,-0.0
 0001679,0.00001423,-0.00077392,0.00032121,-0.00022738,0.00562478,-0.00
 014024,0.00002397,0.00011599,-0.00111066,-0.04933692,-0.01887005,0.001
 11429,0.00071733,0.00041656,-0.00039951,0.00002763,0.00042251,0.000060
 97,-0.00003864,-0.00012656,-0.00021904,0.00021586,-0.00001186,0.000008
 36,-0.00003436,0.00003524,-0.00001220,-0.00001007,-0.00001700,0.000057
 72,0.04810195,-0.00013764,0.00003483,0.00009072,0.00082557,0.00008653,
 0.00058327,-0.00099797,-0.00030010,-0.01065657,0.00002532,0.00000826,0
 .00041656,-0.01038065,-0.01872678,-0.31149950,-0.00209202,0.00066709,0
 .00106173,-0.00011342,0.00029716,0.00045641,-0.00008245,0.00001968,-0.
 00008519,-0.00060466,-0.00054047,0.00040771,0.00027129,0.00002101,0.00
 004600,-0.00011935,0.00000262,0.00002726,0.01373423,0.02005667,0.33876
 314,-0.00004852,0.00041991,0.00002782,-0.00546951,0.00280687,-0.003573
 67,-0.01765676,-0.02231260,0.01342827,-0.00048730,-0.00210737,0.001013
 12,-0.14424882,-0.11253571,0.06375809,0.00124176,-0.00018130,-0.000355
 36,0.00101681,0.00043820,0.00065277,0.00018384,-0.00002506,-0.00020559
 ,0.00017390,0.00026074,0.00000644,0.00002383,0.00001099,-0.00008428,-0
 .00074636,0.00010077,-0.00016835,0.00057842,0.00192725,-0.00035491,0.1
 5836035,-0.00025541,0.00009362,-0.00001707,0.00066120,0.00047639,0.000
 02157,0.00445503,0.00413316,-0.00321621,0.00043538,0.00034909,0.000216
 72,-0.11350720,-0.17828778,0.07377056,-0.00051485,0.00000937,-0.000270
 14,-0.00044562,0.00047135,-0.00036596,0.00023160,0.00044348,0.00006715
 ,0.00005787,-0.00011170,0.00005819,-0.00002356,0.00001246,-0.00002678,
 0.00007237,-0.00003098,0.00001713,0.00290223,0.00195570,-0.00119280,0.
 12364488,0.19011410,0.00001157,0.00001596,-0.00003314,-0.00181074,0.00
 055501,-0.00058521,-0.00730623,-0.00939904,0.00405992,-0.00051256,-0.0
 0032188,0.00070278,0.06447656,0.07394747,-0.08910851,0.00059042,-0.000
 42350,0.00038190,0.00072128,0.00010471,0.00013974,0.00007260,0.0002441
 1,-0.00014183,-0.00029634,-0.00012450,0.00044070,0.00012528,-0.0000218
 6,0.00000766,-0.00022582,0.00001195,-0.00006688,0.01960680,0.02341061,
 -0.01176054,-0.06868523,-0.08134724,0.09273471,-0.00011157,-0.00042009
 ,0.00007969,0.00196187,0.00179431,0.00036571,-0.01231959,0.02966320,0.
 00939045,-0.00006339,0.00029053,-0.00025964,-0.07600875,0.07883127,0.0
 2449244,0.00142255,-0.00047422,-0.00005140,-0.00569917,0.00000950,-0.0
 0253630,-0.00026022,-0.00100674,-0.00005073,-0.00004630,-0.00007793,0.
 00006677,0.00004623,0.00000774,-0.00000482,-0.00000161,-0.00003533,0.0
 0000463,-0.00056647,-0.00160951,0.00000785,0.00702958,-0.01771294,-0.0
 0676081,0.08463323,-0.00008128,0.00011336,-0.00002615,-0.00072227,0.00
 103976,0.00010042,0.00156135,-0.00402976,-0.00051710,0.00013513,0.0001
 8231,0.00009412,0.07953594,-0.26319398,-0.06483195,0.00022220,0.000157
 74,0.00044777,0.00037719,0.00141384,0.00087101,0.00055025,0.00040784,-
 0.00031829,0.00010566,-0.00004965,0.00004689,0.00000856,-0.00001092,0.
 00002076,0.00008884,-0.00000380,-0.00001100,-0.00019580,-0.00129463,-0
 .00042846,0.00760463,-0.01964918,-0.00666882,-0.08913121,0.28488257,-0
 .00015506,-0.00001744,0.00001053,0.00050774,-0.00000842,-0.00003554,-0
 .00440633,0.01129024,0.00300810,0.00014745,0.00024264,-0.00003498,0.02
 483242,-0.06507783,-0.06748207,0.00070798,0.00045825,0.00039445,-0.002
 51407,0.00025710,0.00016023,0.00026212,-0.00016423,0.00015619,0.000001
 82,-0.00016757,-0.00007733,-0.00002522,0.00000079,-0.00004695,0.000043
 08,-0.00000835,-0.00000848,0.01083944,-0.03024714,-0.00783468,-0.00548
 563,0.01227185,0.00321736,-0.02473767,0.07119384,0.06855729,-0.4786622
 1,0.08842939,-0.14815703,0.00009542,0.00327890,0.00193955,0.00051376,0
 .00010837,-0.00007187,-0.01113805,-0.00341483,-0.00589582,-0.00005014,
 0.00014849,0.00001089,-0.00013380,0.00004720,0.00011697,0.00005956,0.0
 0017263,-0.00009121,-0.00065668,-0.00019635,-0.00035548,0.00039019,-0.
 00011659,0.00021231,0.00063040,-0.00143689,-0.00027707,0.00128590,-0.0
 0118239,-0.00052678,0.00001695,-0.00001267,0.00001880,0.00004879,-0.00
 000098,-0.00000676,-0.00001639,-0.00005918,-0.00001807,0.48761631,0.04
 572219,-0.04217039,-0.00371271,0.00088283,-0.00698585,-0.00291936,-0.0
 0059814,-0.00017394,-0.00018748,0.03862473,-0.00837627,0.01195304,0.00
 001155,0.00010397,0.00011790,-0.00001700,0.00012245,0.00009595,0.00015
 657,0.00048677,-0.00009836,0.00189883,-0.00000322,0.00043584,-0.000414
 96,-0.00000912,-0.00006337,-0.00025934,0.00111579,-0.00066683,-0.00007
 268,0.00019491,0.00102669,0.00001128,-0.00000381,-0.00000523,-0.000052
 19,0.00002091,0.00001703,-0.00012857,0.00003449,-0.00002373,-0.0857651
 0,0.05564333,-0.17200043,0.01401628,-0.06478134,0.00065365,-0.00189634
 ,-0.00110503,0.00005949,-0.00010165,0.00021497,0.01703071,-0.00535178,
 0.00258331,0.00005692,0.00002742,-0.00008961,0.00005964,0.00000127,-0.
 00010967,0.00013146,-0.00001656,-0.00005066,0.00047655,-0.00019590,0.0
 0070534,0.00001753,-0.00009741,0.00028107,0.00099440,-0.00014049,0.000
 12414,-0.00058085,-0.00030963,0.00015999,-0.00002098,-0.00000578,-0.00
 001632,0.00002650,0.00001302,0.00001135,-0.00000616,0.00002696,0.00001
 588,0.15310157,-0.00596939,0.06205657\\-0.00000035,-0.00000025,-0.0000
 0072,-0.00000011,-0.00000024,-0.00000055,0.00000017,0.00000018,0.00000
 065,0.00000017,0.00000008,-0.00000120,-0.00000008,-0.00000002,0.000001
 34,0.00000077,0.00000087,0.00000060,-0.00000004,0.00000005,0.00000107,
 0.00000009,0.,-0.00000093,-0.00000074,-0.00000083,-0.00000045,0.000000
 73,0.00000070,-0.00000122,-0.00000007,-0.00000019,-0.00000205,-0.00000
 072,-0.00000069,0.00000142,0.00000009,0.00000024,0.00000218,0.00000008
 ,0.00000017,0.00000096,0.00000001,-0.00000008,-0.00000111\\\@


 THERE ARE PEOPLE SO ADDICTED TO EXAGERATING THEY
 CAN'T TELL THE TRUTH WITHOUT LYING. -- FORTUNE COOKIE
 Job cpu time:       0 days  2 hours 10 minutes 56.2 seconds.
 Elapsed time:       0 days  0 hours  6 minutes 34.2 seconds.
 File lengths (MBytes):  RWF=   1328 Int=      0 D2E=      0 Chk=     32 Scr=     32
 Normal termination of Gaussian 16 at Tue Mar 12 23:28:10 2019.
