 Entering Gaussian System, Link 0=g16
 Input=LRHPLDYGYMQRHN-UHFFFAOYSA-N_36by10.0_tor03_a2.com
 Output=LRHPLDYGYMQRHN-UHFFFAOYSA-N_36by10.0_tor03_a2.log
 Initial command:
 /shared/centos7/gaussian/g16/l1.exe "/scratch/underkoffler.c/gaussian_scratch/Gau-18057.inp" -scrdir="/scratch/underkoffler.c/gaussian_scratch/"
 Entering Link 1 = /shared/centos7/gaussian/g16/l1.exe PID=     18058.
  
 Copyright (c) 1988,1990,1992,1993,1995,1998,2003,2009,2016,
            Gaussian, Inc.  All Rights Reserved.
  
 This is part of the Gaussian(R) 16 program.  It is based on
 the Gaussian(R) 09 system (copyright 2009, Gaussian, Inc.),
 the Gaussian(R) 03 system (copyright 2003, Gaussian, Inc.),
 the Gaussian(R) 98 system (copyright 1998, Gaussian, Inc.),
 the Gaussian(R) 94 system (copyright 1995, Gaussian, Inc.),
 the Gaussian 92(TM) system (copyright 1992, Gaussian, Inc.),
 the Gaussian 90(TM) system (copyright 1990, Gaussian, Inc.),
 the Gaussian 88(TM) system (copyright 1988, Gaussian, Inc.),
 the Gaussian 86(TM) system (copyright 1986, Carnegie Mellon
 University), and the Gaussian 82(TM) system (copyright 1983,
 Carnegie Mellon University). Gaussian is a federally registered
 trademark of Gaussian, Inc.
  
 This software contains proprietary and confidential information,
 including trade secrets, belonging to Gaussian, Inc.
  
 This software is provided under written license and may be
 used, copied, transmitted, or stored only in accord with that
 written license.
  
 The following legend is applicable only to US Government
 contracts under FAR:
  
                    RESTRICTED RIGHTS LEGEND
  
 Use, reproduction and disclosure by the US Government is
 subject to restrictions as set forth in subparagraphs (a)
 and (c) of the Commercial Computer Software - Restricted
 Rights clause in FAR 52.227-19.
  
 Gaussian, Inc.
 340 Quinnipiac St., Bldg. 40, Wallingford CT 06492
  
  
 ---------------------------------------------------------------
 Warning -- This program may not be used in any manner that
 competes with the business of Gaussian, Inc. or will provide
 assistance to any competitor of Gaussian, Inc.  The licensee
 of this program is prohibited from giving any competitor of
 Gaussian, Inc. access to this program.  By using this program,
 the user acknowledges that Gaussian, Inc. is engaged in the
 business of creating and licensing software in the field of
 computational chemistry and represents and warrants to the
 licensee that it is not a competitor of Gaussian, Inc. and that
 it will not use this program in any manner prohibited above.
 ---------------------------------------------------------------
  

 Cite this work as:
 Gaussian 16, Revision A.03,
 M. J. Frisch, G. W. Trucks, H. B. Schlegel, G. E. Scuseria, 
 M. A. Robb, J. R. Cheeseman, G. Scalmani, V. Barone, 
 G. A. Petersson, H. Nakatsuji, X. Li, M. Caricato, A. V. Marenich, 
 J. Bloino, B. G. Janesko, R. Gomperts, B. Mennucci, H. P. Hratchian, 
 J. V. Ortiz, A. F. Izmaylov, J. L. Sonnenberg, D. Williams-Young, 
 F. Ding, F. Lipparini, F. Egidi, J. Goings, B. Peng, A. Petrone, 
 T. Henderson, D. Ranasinghe, V. G. Zakrzewski, J. Gao, N. Rega, 
 G. Zheng, W. Liang, M. Hada, M. Ehara, K. Toyota, R. Fukuda, 
 J. Hasegawa, M. Ishida, T. Nakajima, Y. Honda, O. Kitao, H. Nakai, 
 T. Vreven, K. Throssell, J. A. Montgomery, Jr., J. E. Peralta, 
 F. Ogliaro, M. J. Bearpark, J. J. Heyd, E. N. Brothers, K. N. Kudin, 
 V. N. Staroverov, T. A. Keith, R. Kobayashi, J. Normand, 
 K. Raghavachari, A. P. Rendell, J. C. Burant, S. S. Iyengar, 
 J. Tomasi, M. Cossi, J. M. Millam, M. Klene, C. Adamo, R. Cammi, 
 J. W. Ochterski, R. L. Martin, K. Morokuma, O. Farkas, 
 J. B. Foresman, and D. J. Fox, Gaussian, Inc., Wallingford CT, 2016.
 
 ******************************************
 Gaussian 16:  EM64L-G16RevA.03 25-Dec-2016
                13-Mar-2019 
 ******************************************
 %nprocshared=20
 Will use up to   20 processors via shared memory.
 %mem=5GB
 ----------------------------------------------
 #p m062x/6-311+g(2df,2p) Opt=(CalcFC,ModRedun)
 ----------------------------------------------
 1/10=4,18=120,19=15,26=3,38=1/1,3;
 2/9=110,12=2,17=6,18=5,40=1/2;
 3/5=4,6=6,7=214,11=2,25=1,30=1,71=2,74=-55,140=1/1,2,3;
 4//1;
 5/5=2,38=5/2;
 8/6=4,10=90,11=11/1;
 11/6=1,8=1,9=11,15=111,16=1/1,2,10;
 10/6=1,13=1/2;
 6/7=2,8=2,9=2,10=2,28=1/1;
 7/10=1,18=20,25=1/1,2,3,16;
 1/10=4,18=20,19=15,26=3/3(2);
 2/9=110/2;
 99//99;
 2/9=110/2;
 3/5=4,6=6,7=214,11=2,25=1,30=1,71=1,74=-55/1,2,3;
 4/5=5,16=3,69=1/1;
 5/5=2,38=5/2;
 7//1,2,3,16;
 1/18=20,19=15,26=3/3(-5);
 2/9=110/2;
 6/7=2,8=2,9=2,10=2,19=2,28=1/1;
 99/9=1/99;
 Leave Link    1 at Wed Mar 13 11:44:53 2019, MaxMem=   671088640 cpu:              31.2 elap:               1.6
 (Enter /shared/centos7/gaussian/g16/l101.exe)
 ----------------------------------------
 Gaussian Input Prepared from Scan Object
 ----------------------------------------
 Symbolic Z-matrix:
 Charge =  0 Multiplicity = 1
 O                     1.89471  -0.72534  -0.26845 
 C                    -0.00012   0.70613  -0.22812 
 C                    -0.94499  -0.34222   0.34844 
 C                     1.43443   0.52307   0.2228 
 C                    -2.37941  -0.14882  -0.12828 
 H                    -0.90793  -0.29387   1.44035 
 H                    -0.58665  -1.33316   0.0682 
 H                    -0.33226   1.70597   0.06448 
 H                    -0.02824   0.66658  -1.3203 
 H                     1.48303   0.54525   1.31774 
 H                     2.05554   1.33833  -0.16099 
 H                    -2.43843  -0.22048  -1.21519 
 H                    -3.04657  -0.90033   0.29223 
 H                    -2.75799   0.83354   0.15879 
 H                     2.79567  -0.87018   0.02327 
 
 The following ModRedundant input section has been read:
 B       5      14 B                                                           
 B       1      15 B                                                           
 B       3       6 B                                                           
 B       2       3 B                                                           
 B       3       7 B                                                           
 B       2       4 B                                                           
 B       2       8 B                                                           
 B       1       4 B                                                           
 B       2       9 B                                                           
 B       5      12 B                                                           
 B       4      10 B                                                           
 B       5      13 B                                                           
 B       3       5 B                                                           
 B       4      11 B                                                           
 D      15       1       4      10 S  36 10.000                                
 
 ITRead=  0  0  0  0  0  0  0  0  0  0  0  0  0  0  0
 MicOpt= -1 -1 -1 -1 -1 -1 -1 -1 -1 -1 -1 -1 -1 -1 -1
 NAtoms=     15 NQM=       15 NQMF=       0 NMMI=      0 NMMIF=      0
                NMic=       0 NMicF=      0.
                    Isotopes and Nuclear Properties:
 (Nuclear quadrupole moments (NQMom) in fm**2, nuclear magnetic moments (NMagM)
  in nuclear magnetons)

  Atom         1           2           3           4           5           6           7           8           9          10
 IAtWgt=          16          12          12          12          12           1           1           1           1           1
 AtmWgt=  15.9949146  12.0000000  12.0000000  12.0000000  12.0000000   1.0078250   1.0078250   1.0078250   1.0078250   1.0078250
 NucSpn=           0           0           0           0           0           1           1           1           1           1
 AtZEff=  -0.0000000  -0.0000000  -0.0000000  -0.0000000  -0.0000000  -0.0000000  -0.0000000  -0.0000000  -0.0000000  -0.0000000
 NQMom=    0.0000000   0.0000000   0.0000000   0.0000000   0.0000000   0.0000000   0.0000000   0.0000000   0.0000000   0.0000000
 NMagM=    0.0000000   0.0000000   0.0000000   0.0000000   0.0000000   2.7928460   2.7928460   2.7928460   2.7928460   2.7928460
 AtZNuc=   8.0000000   6.0000000   6.0000000   6.0000000   6.0000000   1.0000000   1.0000000   1.0000000   1.0000000   1.0000000

  Atom        11          12          13          14          15
 IAtWgt=           1           1           1           1           1
 AtmWgt=   1.0078250   1.0078250   1.0078250   1.0078250   1.0078250
 NucSpn=           1           1           1           1           1
 AtZEff=  -0.0000000  -0.0000000  -0.0000000  -0.0000000  -0.0000000
 NQMom=    0.0000000   0.0000000   0.0000000   0.0000000   0.0000000
 NMagM=    2.7928460   2.7928460   2.7928460   2.7928460   2.7928460
 AtZNuc=   1.0000000   1.0000000   1.0000000   1.0000000   1.0000000
 Leave Link  101 at Wed Mar 13 11:44:53 2019, MaxMem=   671088640 cpu:               5.5 elap:               0.3
 (Enter /shared/centos7/gaussian/g16/l103.exe)

 GradGradGradGradGradGradGradGradGradGradGradGradGradGradGradGradGradGrad
 Berny optimization.
 Initialization pass.
                           ----------------------------
                           !    Initial Parameters    !
                           ! (Angstroms and Degrees)  !
 --------------------------                            --------------------------
 ! Name  Definition              Value          Derivative Info.                !
 --------------------------------------------------------------------------------
 ! R1    R(1,4)                  1.4183         calculate D2E/DX2 analytically  !
 ! R2    R(1,15)                 0.958          calculate D2E/DX2 analytically  !
 ! R3    R(2,3)                  1.5245         calculate D2E/DX2 analytically  !
 ! R4    R(2,4)                  1.5149         calculate D2E/DX2 analytically  !
 ! R5    R(2,8)                  1.0934         calculate D2E/DX2 analytically  !
 ! R6    R(2,9)                  1.0933         calculate D2E/DX2 analytically  !
 ! R7    R(3,5)                  1.5239         calculate D2E/DX2 analytically  !
 ! R8    R(3,6)                  1.0936         calculate D2E/DX2 analytically  !
 ! R9    R(3,7)                  1.0904         calculate D2E/DX2 analytically  !
 ! R10   R(4,10)                 1.0962         calculate D2E/DX2 analytically  !
 ! R11   R(4,11)                 1.0944         calculate D2E/DX2 analytically  !
 ! R12   R(5,12)                 1.0909         calculate D2E/DX2 analytically  !
 ! R13   R(5,13)                 1.0894         calculate D2E/DX2 analytically  !
 ! R14   R(5,14)                 1.0912         calculate D2E/DX2 analytically  !
 ! A1    A(4,1,15)             109.4386         calculate D2E/DX2 analytically  !
 ! A2    A(3,2,4)              113.032          calculate D2E/DX2 analytically  !
 ! A3    A(3,2,8)              109.8357         calculate D2E/DX2 analytically  !
 ! A4    A(3,2,9)              109.6941         calculate D2E/DX2 analytically  !
 ! A5    A(4,2,8)              108.5721         calculate D2E/DX2 analytically  !
 ! A6    A(4,2,9)              108.5032         calculate D2E/DX2 analytically  !
 ! A7    A(8,2,9)              107.0136         calculate D2E/DX2 analytically  !
 ! A8    A(2,3,5)              112.1981         calculate D2E/DX2 analytically  !
 ! A9    A(2,3,6)              109.038          calculate D2E/DX2 analytically  !
 ! A10   A(2,3,7)              108.9089         calculate D2E/DX2 analytically  !
 ! A11   A(5,3,6)              109.7935         calculate D2E/DX2 analytically  !
 ! A12   A(5,3,7)              110.1379         calculate D2E/DX2 analytically  !
 ! A13   A(6,3,7)              106.5979         calculate D2E/DX2 analytically  !
 ! A14   A(1,4,2)              108.0944         calculate D2E/DX2 analytically  !
 ! A15   A(1,4,10)             110.4487         calculate D2E/DX2 analytically  !
 ! A16   A(1,4,11)             110.4904         calculate D2E/DX2 analytically  !
 ! A17   A(2,4,10)             109.6852         calculate D2E/DX2 analytically  !
 ! A18   A(2,4,11)             110.0622         calculate D2E/DX2 analytically  !
 ! A19   A(10,4,11)            108.0607         calculate D2E/DX2 analytically  !
 ! A20   A(3,5,12)             110.7497         calculate D2E/DX2 analytically  !
 ! A21   A(3,5,13)             111.6028         calculate D2E/DX2 analytically  !
 ! A22   A(3,5,14)             111.0093         calculate D2E/DX2 analytically  !
 ! A23   A(12,5,13)            107.8282         calculate D2E/DX2 analytically  !
 ! A24   A(12,5,14)            107.6069         calculate D2E/DX2 analytically  !
 ! A25   A(13,5,14)            107.8796         calculate D2E/DX2 analytically  !
 ! D1    D(15,1,4,2)          -178.7026         calculate D2E/DX2 analytically  !
 ! D2    D(15,1,4,10)          -58.6998         Scan                            !
 ! D3    D(15,1,4,11)           60.8091         calculate D2E/DX2 analytically  !
 ! D4    D(4,2,3,5)           -179.4202         calculate D2E/DX2 analytically  !
 ! D5    D(4,2,3,6)             58.7291         calculate D2E/DX2 analytically  !
 ! D6    D(4,2,3,7)            -57.2233         calculate D2E/DX2 analytically  !
 ! D7    D(8,2,3,5)             59.1622         calculate D2E/DX2 analytically  !
 ! D8    D(8,2,3,6)            -62.6886         calculate D2E/DX2 analytically  !
 ! D9    D(8,2,3,7)           -178.6409         calculate D2E/DX2 analytically  !
 ! D10   D(9,2,3,5)            -58.1924         calculate D2E/DX2 analytically  !
 ! D11   D(9,2,3,6)            179.9569         calculate D2E/DX2 analytically  !
 ! D12   D(9,2,3,7)             64.0045         calculate D2E/DX2 analytically  !
 ! D13   D(3,2,4,1)             63.1821         calculate D2E/DX2 analytically  !
 ! D14   D(3,2,4,10)           -57.299          calculate D2E/DX2 analytically  !
 ! D15   D(3,2,4,11)          -176.0623         calculate D2E/DX2 analytically  !
 ! D16   D(8,2,4,1)           -174.6897         calculate D2E/DX2 analytically  !
 ! D17   D(8,2,4,10)            64.8292         calculate D2E/DX2 analytically  !
 ! D18   D(8,2,4,11)           -53.934          calculate D2E/DX2 analytically  !
 ! D19   D(9,2,4,1)            -58.717          calculate D2E/DX2 analytically  !
 ! D20   D(9,2,4,10)          -179.1981         calculate D2E/DX2 analytically  !
 ! D21   D(9,2,4,11)            62.0387         calculate D2E/DX2 analytically  !
 ! D22   D(2,3,5,12)            60.0729         calculate D2E/DX2 analytically  !
 ! D23   D(2,3,5,13)          -179.7843         calculate D2E/DX2 analytically  !
 ! D24   D(2,3,5,14)           -59.3994         calculate D2E/DX2 analytically  !
 ! D25   D(6,3,5,12)          -178.5087         calculate D2E/DX2 analytically  !
 ! D26   D(6,3,5,13)           -58.3658         calculate D2E/DX2 analytically  !
 ! D27   D(6,3,5,14)            62.0191         calculate D2E/DX2 analytically  !
 ! D28   D(7,3,5,12)           -61.4224         calculate D2E/DX2 analytically  !
 ! D29   D(7,3,5,13)            58.7204         calculate D2E/DX2 analytically  !
 ! D30   D(7,3,5,14)           179.1053         calculate D2E/DX2 analytically  !
 --------------------------------------------------------------------------------
 Trust Radius=3.00D-01 FncErr=1.00D-07 GrdErr=1.00D-06 EigMax=2.50D+02 EigMin=1.00D-04
 Number of optimizations in scan=  37
 Number of steps in this run=     79 maximum allowed number of steps=    100.
 GradGradGradGradGradGradGradGradGradGradGradGradGradGradGradGradGradGrad

 Leave Link  103 at Wed Mar 13 11:44:53 2019, MaxMem=   671088640 cpu:               0.2 elap:               0.0
 (Enter /shared/centos7/gaussian/g16/l202.exe)
                          Input orientation:                          
 ---------------------------------------------------------------------
 Center     Atomic      Atomic             Coordinates (Angstroms)
 Number     Number       Type             X           Y           Z
 ---------------------------------------------------------------------
      1          8           0        1.894708   -0.725344   -0.268446
      2          6           0       -0.000122    0.706128   -0.228122
      3          6           0       -0.944989   -0.342219    0.348436
      4          6           0        1.434430    0.523065    0.222801
      5          6           0       -2.379412   -0.148821   -0.128279
      6          1           0       -0.907928   -0.293873    1.440354
      7          1           0       -0.586654   -1.333157    0.068198
      8          1           0       -0.332261    1.705975    0.064481
      9          1           0       -0.028238    0.666581   -1.320296
     10          1           0        1.483032    0.545254    1.317739
     11          1           0        2.055542    1.338330   -0.160986
     12          1           0       -2.438435   -0.220482   -1.215192
     13          1           0       -3.046571   -0.900332    0.292234
     14          1           0       -2.757995    0.833541    0.158792
     15          1           0        2.795671   -0.870182    0.023267
 ---------------------------------------------------------------------
                    Distance matrix (angstroms):
                    1          2          3          4          5
     1  O    0.000000
     2  C    2.375103   0.000000
     3  C    2.931076   1.524541   0.000000
     4  C    1.418346   1.514854   2.534982   0.000000
     5  C    4.315104   2.530203   1.523886   3.888454   0.000000
     6  H    3.310730   2.146608   1.093615   2.763415   2.155670
     7  H    2.576805   2.142547   1.090365   2.748499   2.157599
     8  H    3.313841   1.093447   2.156655   2.132027   2.769160
     9  H    2.596452   1.093251   2.154710   2.130995   2.759312
    10  H    2.073615   2.148327   2.760877   1.096241   4.182246
    11  H    2.072719   2.151729   3.476627   1.094408   4.677766
    12  H    4.464005   2.788957   2.165672   4.197591   1.090871
    13  H    4.976065   3.483150   2.175154   4.702154   1.089358
    14  H    4.925474   2.787795   2.169186   4.204392   1.091224
    15  H    0.958023   3.219379   3.791703   1.958042   5.227314
                    6          7          8          9         10
     6  H    0.000000
     7  H    1.751040   0.000000
     8  H    2.494756   3.049762   0.000000
     9  H    3.052460   2.497738   1.757946   0.000000
    10  H    2.536899   3.061598   2.492633   3.042677   0.000000
    11  H    3.743063   3.764381   2.426438   2.477374   1.772954
    12  H    3.065903   2.512813   3.128060   2.570404   4.730750
    13  H    2.501953   2.507732   3.769905   3.763748   4.864019
    14  H    2.517183   3.068795   2.579577   3.109204   4.405970
    15  H    4.007107   3.414160   4.052437   3.484431   2.324250
                   11         12         13         14         15
    11  H    0.000000
    12  H    4.872070   0.000000
    13  H    5.590042   1.761919   0.000000
    14  H    4.850485   1.760941   1.762781   0.000000
    15  H    2.336507   5.417726   5.848508   5.810700   0.000000
 Stoichiometry    C4H10O
 Framework group  C1[X(C4H10O)]
 Deg. of freedom    39
 Full point group                 C1      NOp   1
 Largest Abelian subgroup         C1      NOp   1
 Largest concise Abelian subgroup C1      NOp   1
                         Standard orientation:                         
 ---------------------------------------------------------------------
 Center     Atomic      Atomic             Coordinates (Angstroms)
 Number     Number       Type             X           Y           Z
 ---------------------------------------------------------------------
      1          8           0        1.893113   -0.731068   -0.256784
      2          6           0        0.000245    0.703219   -0.225419
      3          6           0       -0.947728   -0.342276    0.351218
      4          6           0        1.433275    0.519266    0.229957
      5          6           0       -2.380543   -0.148055   -0.129976
      6          1           0       -0.913626   -0.291159    1.443106
      7          1           0       -0.590047   -1.334449    0.074536
      8          1           0       -0.331264    1.704295    0.063677
      9          1           0       -0.024899    0.660888   -1.317561
     10          1           0        1.478871    0.544217    1.324966
     11          1           0        2.056623    1.332643   -0.154207
     12          1           0       -2.436655   -0.222441   -1.216861
     13          1           0       -3.049949   -0.897517    0.290621
     14          1           0       -2.758504    0.835588    0.153505
     15          1           0        2.793054   -0.876444    0.037804
 ---------------------------------------------------------------------
 Rotational constants (GHZ):          12.5691688           2.4011663           2.2136012
 Leave Link  202 at Wed Mar 13 11:44:53 2019, MaxMem=   671088640 cpu:               0.2 elap:               0.0
 (Enter /shared/centos7/gaussian/g16/l301.exe)
 Standard basis: 6-311+G(2df,2p) (5D, 7F)
 Ernie: Thresh=  0.10000D-02 Tol=  0.10000D-05 Strict=F.
 There are   285 symmetry adapted cartesian basis functions of A   symmetry.
 There are   260 symmetry adapted basis functions of A   symmetry.
   260 basis functions,   370 primitive gaussians,   285 cartesian basis functions
    21 alpha electrons       21 beta electrons
       nuclear repulsion energy       188.7530017249 Hartrees.
 IExCor= 4336 DFT=T Ex+Corr=M062X ExCW=0 ScaHFX=  0.540000
 ScaDFX=  1.000000  1.000000  1.000000  1.000000 ScalE2=  1.000000  1.000000
 IRadAn=      5 IRanWt=     -1 IRanGd=            0 ICorTp=0 IEmpDi=  4
 NAtoms=   15 NActive=   15 NUniq=   15 SFac= 1.00D+00 NAtFMM=   60 NAOKFM=F Big=F
 Integral buffers will be    131072 words long.
 Raffenetti 2 integral format.
 Two-electron integral symmetry is turned on.
 Leave Link  301 at Wed Mar 13 11:44:54 2019, MaxMem=   671088640 cpu:               1.3 elap:               0.1
 (Enter /shared/centos7/gaussian/g16/l302.exe)
 NPDir=0 NMtPBC=     1 NCelOv=     1 NCel=       1 NClECP=     1 NCelD=      1
         NCelK=      1 NCelE2=     1 NClLst=     1 CellRange=     0.0.
 One-electron integrals computed using PRISM.
 One-electron integral symmetry used in STVInt
 NBasis=   260 RedAO= T EigKep=  1.73D-05  NBF=   260
 NBsUse=   260 1.00D-06 EigRej= -1.00D+00 NBFU=   260
 Precomputing XC quadrature grid using
 IXCGrd= 4 IRadAn=           5 IRanWt=          -1 IRanGd=           0 AccXCQ= 0.00D+00.
 Generated NRdTot=       0 NPtTot=           0 NUsed=           0 NTot=          32
 NSgBfM=   285   285   285   285   285 MxSgAt=    15 MxSgA2=    15.
 Leave Link  302 at Wed Mar 13 11:44:54 2019, MaxMem=   671088640 cpu:               6.2 elap:               0.3
 (Enter /shared/centos7/gaussian/g16/l303.exe)
 DipDrv:  MaxL=1.
 Leave Link  303 at Wed Mar 13 11:44:54 2019, MaxMem=   671088640 cpu:               0.6 elap:               0.1
 (Enter /shared/centos7/gaussian/g16/l401.exe)
 ExpMin= 4.38D-02 ExpMax= 8.59D+03 ExpMxC= 1.30D+03 IAcc=3 IRadAn=         5 AccDes= 0.00D+00
 Harris functional with IExCor= 1009 and IRadAn=       5 diagonalized for initial guess.
 HarFok:  IExCor= 1009 AccDes= 0.00D+00 IRadAn=         5 IDoV= 1 UseB2=F ITyADJ=14
 ICtDFT=  3500011 ScaDFX=  1.000000  1.000000  1.000000  1.000000
 FoFCou: FMM=F IPFlag=           0 FMFlag=      100000 FMFlg1=           0
         NFxFlg=           0 DoJE=T BraDBF=F KetDBF=T FulRan=T
         wScrn=  0.000000 ICntrl=       500 IOpCl=  0 I1Cent=   200000004 NGrid=           0
         NMat0=    1 NMatS0=      1 NMatT0=    0 NMatD0=    1 NMtDS0=    0 NMtDT0=    0
 Petite list used in FoFCou.
 Harris En= -233.603620310998    
 JPrj=0 DoOrth=F DoCkMO=F.
 Leave Link  401 at Wed Mar 13 11:44:55 2019, MaxMem=   671088640 cpu:              19.4 elap:               1.0
 (Enter /shared/centos7/gaussian/g16/l502.exe)
 Integral symmetry usage will be decided dynamically.
 Closed shell SCF:
 Using DIIS extrapolation, IDIIS=  1040.
 NGot=   671088640 LenX=   670917793 LenY=   670836127
 Requested convergence on RMS density matrix=1.00D-08 within 128 cycles.
 Requested convergence on MAX density matrix=1.00D-06.
 Requested convergence on             energy=1.00D-06.
 No special actions if energy rises.
 Fock matrices will be formed incrementally for  20 cycles.

 Cycle   1  Pass 1  IDiag  1:
 FoFJK:  IHMeth= 1 ICntrl=       0 DoSepK=F KAlg= 0 I1Cent=           0 FoldK=F
 IRaf= 970000000 NMat=       1 IRICut=       1 DoRegI=T DoRafI=F ISym2E= 0 IDoP0=0 IntGTp=1.
 FoFCou: FMM=F IPFlag=           0 FMFlag=      100000 FMFlg1=           0
         NFxFlg=           0 DoJE=F BraDBF=F KetDBF=F FulRan=T
         wScrn=  0.000000 ICntrl=         0 IOpCl=  0 I1Cent=           0 NGrid=           0
         NMat0=    1 NMatS0=      1 NMatT0=    0 NMatD0=    1 NMtDS0=    0 NMtDT0=    0
 Symmetry not used in FoFCou.
 E= -233.408371492207    
 DIIS: error= 2.23D-02 at cycle   1 NSaved=   1.
 NSaved= 1 IEnMin= 1 EnMin= -233.408371492207     IErMin= 1 ErrMin= 2.23D-02
 ErrMax= 2.23D-02  0.00D+00 EMaxC= 1.00D-01 BMatC= 2.66D-01 BMatP= 2.66D-01
 IDIUse=3 WtCom= 7.77D-01 WtEn= 2.23D-01
 Coeff-Com:  0.100D+01
 Coeff-En:   0.100D+01
 Coeff:      0.100D+01
 Gap=     0.305 Goal=   None    Shift=    0.000
 GapD=    0.305 DampG=1.000 DampE=0.500 DampFc=0.5000 IDamp=-1.
 Damping current iteration by 5.00D-01
 RMSDP=3.79D-03 MaxDP=1.09D-01              OVMax= 1.59D-01

 Cycle   2  Pass 1  IDiag  1:
 RMSU=  1.82D-03    CP:  9.44D-01
 E= -233.518856738966     Delta-E=       -0.110485246759 Rises=F Damp=T
 DIIS: error= 4.88D-03 at cycle   2 NSaved=   2.
 NSaved= 2 IEnMin= 2 EnMin= -233.518856738966     IErMin= 2 ErrMin= 4.88D-03
 ErrMax= 4.88D-03  0.00D+00 EMaxC= 1.00D-01 BMatC= 1.49D-02 BMatP= 2.66D-01
 IDIUse=3 WtCom= 9.51D-01 WtEn= 4.88D-02
 Coeff-Com: -0.493D-01 0.105D+01
 Coeff-En:   0.000D+00 0.100D+01
 Coeff:     -0.469D-01 0.105D+01
 Gap=     0.394 Goal=   None    Shift=    0.000
 RMSDP=1.40D-03 MaxDP=3.76D-02 DE=-1.10D-01 OVMax= 8.38D-02

 Cycle   3  Pass 1  IDiag  1:
 RMSU=  1.27D-03    CP:  9.49D-01  6.75D-01
 E= -233.630471375099     Delta-E=       -0.111614636133 Rises=F Damp=F
 DIIS: error= 2.57D-03 at cycle   3 NSaved=   3.
 NSaved= 3 IEnMin= 3 EnMin= -233.630471375099     IErMin= 3 ErrMin= 2.57D-03
 ErrMax= 2.57D-03  0.00D+00 EMaxC= 1.00D-01 BMatC= 3.86D-03 BMatP= 1.49D-02
 IDIUse=3 WtCom= 9.74D-01 WtEn= 2.57D-02
 Coeff-Com: -0.666D-01 0.319D+00 0.748D+00
 Coeff-En:   0.000D+00 0.000D+00 0.100D+01
 Coeff:     -0.649D-01 0.311D+00 0.754D+00
 Gap=     0.359 Goal=   None    Shift=    0.000
 RMSDP=2.39D-04 MaxDP=1.04D-02 DE=-1.12D-01 OVMax= 1.41D-02

 Cycle   4  Pass 1  IDiag  1:
 RMSU=  2.07D-04    CP:  9.50D-01  7.39D-01  9.84D-01
 E= -233.632644236391     Delta-E=       -0.002172861292 Rises=F Damp=F
 DIIS: error= 1.05D-03 at cycle   4 NSaved=   4.
 NSaved= 4 IEnMin= 4 EnMin= -233.632644236391     IErMin= 4 ErrMin= 1.05D-03
 ErrMax= 1.05D-03  0.00D+00 EMaxC= 1.00D-01 BMatC= 7.83D-04 BMatP= 3.86D-03
 IDIUse=3 WtCom= 9.89D-01 WtEn= 1.05D-02
 Coeff-Com: -0.268D-01 0.751D-01 0.359D+00 0.593D+00
 Coeff-En:   0.000D+00 0.000D+00 0.886D-01 0.911D+00
 Coeff:     -0.265D-01 0.743D-01 0.356D+00 0.596D+00
 Gap=     0.360 Goal=   None    Shift=    0.000
 RMSDP=1.23D-04 MaxDP=7.23D-03 DE=-2.17D-03 OVMax= 4.67D-03

 Cycle   5  Pass 1  IDiag  1:
 RMSU=  6.66D-05    CP:  9.47D-01  7.21D-01  9.92D-01  5.59D-01
 E= -233.633222595902     Delta-E=       -0.000578359512 Rises=F Damp=F
 DIIS: error= 2.04D-04 at cycle   5 NSaved=   5.
 NSaved= 5 IEnMin= 5 EnMin= -233.633222595902     IErMin= 5 ErrMin= 2.04D-04
 ErrMax= 2.04D-04  0.00D+00 EMaxC= 1.00D-01 BMatC= 1.70D-05 BMatP= 7.83D-04
 IDIUse=3 WtCom= 9.98D-01 WtEn= 2.04D-03
 Coeff-Com: -0.391D-02 0.557D-02 0.618D-01 0.181D+00 0.756D+00
 Coeff-En:   0.000D+00 0.000D+00 0.000D+00 0.000D+00 0.100D+01
 Coeff:     -0.390D-02 0.556D-02 0.617D-01 0.181D+00 0.756D+00
 Gap=     0.360 Goal=   None    Shift=    0.000
 RMSDP=3.95D-05 MaxDP=3.17D-03 DE=-5.78D-04 OVMax= 8.16D-04

 Cycle   6  Pass 1  IDiag  1:
 RMSU=  2.34D-05    CP:  9.48D-01  7.12D-01  1.00D+00  6.44D-01  8.27D-01
 E= -233.633235637481     Delta-E=       -0.000013041579 Rises=F Damp=F
 DIIS: error= 4.86D-05 at cycle   6 NSaved=   6.
 NSaved= 6 IEnMin= 6 EnMin= -233.633235637481     IErMin= 6 ErrMin= 4.86D-05
 ErrMax= 4.86D-05  0.00D+00 EMaxC= 1.00D-01 BMatC= 9.46D-07 BMatP= 1.70D-05
 IDIUse=1 WtCom= 1.00D+00 WtEn= 0.00D+00
 Coeff-Com:  0.177D-03-0.184D-02 0.171D-02 0.298D-01 0.232D+00 0.739D+00
 Coeff:      0.177D-03-0.184D-02 0.171D-02 0.298D-01 0.232D+00 0.739D+00
 Gap=     0.360 Goal=   None    Shift=    0.000
 RMSDP=7.16D-06 MaxDP=3.73D-04 DE=-1.30D-05 OVMax= 2.25D-04

 Cycle   7  Pass 1  IDiag  1:
 RMSU=  4.05D-06    CP:  9.48D-01  7.10D-01  1.00D+00  6.49D-01  8.44D-01
                    CP:  1.12D+00
 E= -233.633236474497     Delta-E=       -0.000000837016 Rises=F Damp=F
 DIIS: error= 1.53D-05 at cycle   7 NSaved=   7.
 NSaved= 7 IEnMin= 7 EnMin= -233.633236474497     IErMin= 7 ErrMin= 1.53D-05
 ErrMax= 1.53D-05  0.00D+00 EMaxC= 1.00D-01 BMatC= 1.05D-07 BMatP= 9.46D-07
 IDIUse=1 WtCom= 1.00D+00 WtEn= 0.00D+00
 Coeff-Com:  0.636D-03-0.144D-02-0.840D-02-0.149D-01-0.265D-01 0.239D+00
 Coeff-Com:  0.812D+00
 Coeff:      0.636D-03-0.144D-02-0.840D-02-0.149D-01-0.265D-01 0.239D+00
 Coeff:      0.812D+00
 Gap=     0.360 Goal=   None    Shift=    0.000
 RMSDP=4.13D-06 MaxDP=3.16D-04 DE=-8.37D-07 OVMax= 7.84D-05

 Cycle   8  Pass 1  IDiag  1:
 RMSU=  1.09D-06    CP:  9.48D-01  7.09D-01  1.01D+00  6.54D-01  8.34D-01
                    CP:  1.22D+00  1.09D+00
 E= -233.633236580432     Delta-E=       -0.000000105934 Rises=F Damp=F
 DIIS: error= 2.09D-06 at cycle   8 NSaved=   8.
 NSaved= 8 IEnMin= 8 EnMin= -233.633236580432     IErMin= 8 ErrMin= 2.09D-06
 ErrMax= 2.09D-06  0.00D+00 EMaxC= 1.00D-01 BMatC= 1.96D-09 BMatP= 1.05D-07
 IDIUse=1 WtCom= 1.00D+00 WtEn= 0.00D+00
 Coeff-Com:  0.105D-03-0.213D-03-0.168D-02-0.390D-02-0.127D-01 0.230D-01
 Coeff-Com:  0.164D+00 0.831D+00
 Coeff:      0.105D-03-0.213D-03-0.168D-02-0.390D-02-0.127D-01 0.230D-01
 Coeff:      0.164D+00 0.831D+00
 Gap=     0.360 Goal=   None    Shift=    0.000
 RMSDP=6.06D-07 MaxDP=3.26D-05 DE=-1.06D-07 OVMax= 1.12D-05

 Cycle   9  Pass 1  IDiag  1:
 RMSU=  2.86D-07    CP:  9.48D-01  7.08D-01  1.01D+00  6.54D-01  8.32D-01
                    CP:  1.23D+00  1.15D+00  1.10D+00
 E= -233.633236582486     Delta-E=       -0.000000002055 Rises=F Damp=F
 DIIS: error= 4.88D-07 at cycle   9 NSaved=   9.
 NSaved= 9 IEnMin= 9 EnMin= -233.633236582486     IErMin= 9 ErrMin= 4.88D-07
 ErrMax= 4.88D-07  0.00D+00 EMaxC= 1.00D-01 BMatC= 9.37D-11 BMatP= 1.96D-09
 IDIUse=1 WtCom= 1.00D+00 WtEn= 0.00D+00
 Coeff-Com: -0.129D-04 0.291D-04 0.656D-04-0.373D-04-0.107D-02-0.521D-02
 Coeff-Com: -0.730D-02 0.144D+00 0.869D+00
 Coeff:     -0.129D-04 0.291D-04 0.656D-04-0.373D-04-0.107D-02-0.521D-02
 Coeff:     -0.730D-02 0.144D+00 0.869D+00
 Gap=     0.360 Goal=   None    Shift=    0.000
 RMSDP=1.11D-07 MaxDP=7.13D-06 DE=-2.05D-09 OVMax= 2.75D-06

 Cycle  10  Pass 1  IDiag  1:
 RMSU=  5.20D-08    CP:  9.48D-01  7.08D-01  1.01D+00  6.55D-01  8.31D-01
                    CP:  1.23D+00  1.16D+00  1.15D+00  9.96D-01
 E= -233.633236582581     Delta-E=       -0.000000000095 Rises=F Damp=F
 DIIS: error= 1.64D-07 at cycle  10 NSaved=  10.
 NSaved=10 IEnMin=10 EnMin= -233.633236582581     IErMin=10 ErrMin= 1.64D-07
 ErrMax= 1.64D-07  0.00D+00 EMaxC= 1.00D-01 BMatC= 1.10D-11 BMatP= 9.37D-11
 IDIUse=1 WtCom= 1.00D+00 WtEn= 0.00D+00
 Coeff-Com: -0.784D-05 0.171D-04 0.868D-04 0.140D-03 0.168D-03-0.242D-02
 Coeff-Com: -0.921D-02 0.791D-02 0.284D+00 0.719D+00
 Coeff:     -0.784D-05 0.171D-04 0.868D-04 0.140D-03 0.168D-03-0.242D-02
 Coeff:     -0.921D-02 0.791D-02 0.284D+00 0.719D+00
 Gap=     0.360 Goal=   None    Shift=    0.000
 RMSDP=2.28D-08 MaxDP=8.01D-07 DE=-9.46D-11 OVMax= 7.59D-07

 Cycle  11  Pass 1  IDiag  1:
 RMSU=  1.51D-08    CP:  9.48D-01  7.08D-01  1.01D+00  6.55D-01  8.31D-01
                    CP:  1.23D+00  1.16D+00  1.15D+00  1.03D+00  9.91D-01
 E= -233.633236582595     Delta-E=       -0.000000000014 Rises=F Damp=F
 DIIS: error= 5.37D-08 at cycle  11 NSaved=  11.
 NSaved=11 IEnMin=11 EnMin= -233.633236582595     IErMin=11 ErrMin= 5.37D-08
 ErrMax= 5.37D-08  0.00D+00 EMaxC= 1.00D-01 BMatC= 9.97D-13 BMatP= 1.10D-11
 IDIUse=1 WtCom= 1.00D+00 WtEn= 0.00D+00
 Coeff-Com: -0.106D-05 0.261D-05 0.202D-04 0.378D-04 0.909D-04-0.350D-03
 Coeff-Com: -0.224D-02-0.946D-02 0.193D-01 0.234D+00 0.759D+00
 Coeff:     -0.106D-05 0.261D-05 0.202D-04 0.378D-04 0.909D-04-0.350D-03
 Coeff:     -0.224D-02-0.946D-02 0.193D-01 0.234D+00 0.759D+00
 Gap=     0.360 Goal=   None    Shift=    0.000
 RMSDP=8.77D-09 MaxDP=3.12D-07 DE=-1.38D-11 OVMax= 2.86D-07

 SCF Done:  E(RM062X) =  -233.633236583     A.U. after   11 cycles
            NFock= 11  Conv=0.88D-08     -V/T= 2.0040
 KE= 2.327040942671D+02 PE=-9.220670389738D+02 EE= 2.669767063992D+02
 Leave Link  502 at Wed Mar 13 11:45:18 2019, MaxMem=   671088640 cpu:             462.0 elap:              23.2
 (Enter /shared/centos7/gaussian/g16/l801.exe)
 DoSCS=F DFT=T ScalE2(SS,OS)=  1.000000  1.000000
 Range of M.O.s used for correlation:     1   260
 NBasis=   260 NAE=    21 NBE=    21 NFC=     0 NFV=     0
 NROrb=    260 NOA=    21 NOB=    21 NVA=   239 NVB=   239

 **** Warning!!: The largest alpha MO coefficient is  0.53720724D+02

 Leave Link  801 at Wed Mar 13 11:45:18 2019, MaxMem=   671088640 cpu:               0.3 elap:               0.0
 (Enter /shared/centos7/gaussian/g16/l1101.exe)
 Using compressed storage, NAtomX=    15.
 Will process     16 centers per pass.
 Leave Link 1101 at Wed Mar 13 11:45:19 2019, MaxMem=   671088640 cpu:              10.8 elap:               0.6
 (Enter /shared/centos7/gaussian/g16/l1102.exe)
 Symmetrizing basis deriv contribution to polar:
 IMax=3 JMax=2 DiffMx= 0.00D+00
 Leave Link 1102 at Wed Mar 13 11:45:19 2019, MaxMem=   671088640 cpu:               0.5 elap:               0.0
 (Enter /shared/centos7/gaussian/g16/l1110.exe)
 Forming Gx(P) for the SCF density, NAtomX=    15.
 Integral derivatives from FoFJK, PRISM(SPDF).
 Do as many integral derivatives as possible in FoFJK.
 G2DrvN: MDV=     671087424.
 G2DrvN: will do    16 centers at a time, making    1 passes.
 Calling FoFCou, ICntrl=  3107 FMM=F I1Cent=   0 AccDes= 0.00D+00.
 FoFJK:  IHMeth= 1 ICntrl=    3107 DoSepK=F KAlg= 0 I1Cent=           0 FoldK=F
 IRaf=         0 NMat=       1 IRICut=       1 DoRegI=T DoRafI=F ISym2E= 0 IDoP0=0 IntGTp=1.
 FoFCou: FMM=F IPFlag=           0 FMFlag=      100000 FMFlg1=           0
         NFxFlg=           0 DoJE=F BraDBF=F KetDBF=F FulRan=T
         wScrn=  0.000000 ICntrl=      3107 IOpCl=  0 I1Cent=           0 NGrid=           0
         NMat0=    1 NMatS0=      1 NMatT0=    0 NMatD0=    1 NMtDS0=    0 NMtDT0=    0
 Symmetry not used in FoFCou.
 End of G2Drv F.D. properties file   721 does not exist.
 End of G2Drv F.D. properties file   722 does not exist.
 End of G2Drv F.D. properties file   788 does not exist.
 Leave Link 1110 at Wed Mar 13 11:46:12 2019, MaxMem=   671088640 cpu:            1054.1 elap:              52.7
 (Enter /shared/centos7/gaussian/g16/l1002.exe)
 Minotr:  Closed shell wavefunction.
          IDoAtm=111111111111111
          Direct CPHF calculation.
          Differentiating once with respect to nuclear coordinates.
          Requested convergence is 1.0D-08 RMS, and 1.0D-07 maximum.
          Secondary convergence is 1.0D-12 RMS, and 1.0D-12 maximum.
          NewPWx=T KeepS1=F KeepF1=F KeepIn=T MapXYZ=F SortEE=F KeepMc=T.
         4569 words used for storage of precomputed grid.
 Keep R1 ints in memory in canonical form, NReq=597923371.
 FoFCou: FMM=F IPFlag=           0 FMFlag=           0 FMFlg1=           0
         NFxFlg=           0 DoJE=F BraDBF=F KetDBF=F FulRan=T
         wScrn=  0.000000 ICntrl=       600 IOpCl=  0 I1Cent=           0 NGrid=           0
         NMat0=    1 NMatS0=  33930 NMatT0=    0 NMatD0=    1 NMtDS0=    0 NMtDT0=    0
 Symmetry not used in FoFCou.
 Two-electron integral symmetry not used.
          MDV=     671088640 using IRadAn=       1.
          Solving linear equations simultaneously, MaxMat=       0.
          There are    48 degrees of freedom in the 1st order CPHF.  IDoFFX=6 NUNeed=     0.
     42 vectors produced by pass  0 Test12= 1.05D-14 2.08D-09 XBig12= 6.42D-02 4.26D-02.
 AX will form    42 AO Fock derivatives at one time.
     42 vectors produced by pass  1 Test12= 1.05D-14 2.08D-09 XBig12= 5.95D-03 1.20D-02.
     42 vectors produced by pass  2 Test12= 1.05D-14 2.08D-09 XBig12= 2.69D-04 2.94D-03.
     42 vectors produced by pass  3 Test12= 1.05D-14 2.08D-09 XBig12= 3.07D-06 3.03D-04.
     42 vectors produced by pass  4 Test12= 1.05D-14 2.08D-09 XBig12= 1.65D-08 1.48D-05.
     42 vectors produced by pass  5 Test12= 1.05D-14 2.08D-09 XBig12= 9.32D-11 9.01D-07.
     17 vectors produced by pass  6 Test12= 1.05D-14 2.08D-09 XBig12= 3.58D-13 6.52D-08.
      1 vectors produced by pass  7 Test12= 1.05D-14 2.08D-09 XBig12= 1.18D-15 3.24D-09.
 InvSVY:  IOpt=1 It=  1 EMax= 1.55D-15
 Solved reduced A of dimension   270 with    42 vectors.
 End of Minotr F.D. properties file   721 does not exist.
 End of Minotr F.D. properties file   722 does not exist.
 End of Minotr F.D. properties file   788 does not exist.
 Leave Link 1002 at Wed Mar 13 11:47:10 2019, MaxMem=   671088640 cpu:            1143.3 elap:              58.4
 (Enter /shared/centos7/gaussian/g16/l601.exe)
 Copying SCF densities to generalized density rwf, IOpCl= 0 IROHF=0.

 **********************************************************************

            Population analysis using the SCF density.

 **********************************************************************

 Orbital symmetries:
       Occupied  (A) (A) (A) (A) (A) (A) (A) (A) (A) (A) (A) (A)
                 (A) (A) (A) (A) (A) (A) (A) (A) (A)
       Virtual   (A) (A) (A) (A) (A) (A) (A) (A) (A) (A) (A) (A)
                 (A) (A) (A) (A) (A) (A) (A) (A) (A) (A) (A) (A)
                 (A) (A) (A) (A) (A) (A) (A) (A) (A) (A) (A) (A)
                 (A) (A) (A) (A) (A) (A) (A) (A) (A) (A) (A) (A)
                 (A) (A) (A) (A) (A) (A) (A) (A) (A) (A) (A) (A)
                 (A) (A) (A) (A) (A) (A) (A) (A) (A) (A) (A) (A)
                 (A) (A) (A) (A) (A) (A) (A) (A) (A) (A) (A) (A)
                 (A) (A) (A) (A) (A) (A) (A) (A) (A) (A) (A) (A)
                 (A) (A) (A) (A) (A) (A) (A) (A) (A) (A) (A) (A)
                 (A) (A) (A) (A) (A) (A) (A) (A) (A) (A) (A) (A)
                 (A) (A) (A) (A) (A) (A) (A) (A) (A) (A) (A) (A)
                 (A) (A) (A) (A) (A) (A) (A) (A) (A) (A) (A) (A)
                 (A) (A) (A) (A) (A) (A) (A) (A) (A) (A) (A) (A)
                 (A) (A) (A) (A) (A) (A) (A) (A) (A) (A) (A) (A)
                 (A) (A) (A) (A) (A) (A) (A) (A) (A) (A) (A) (A)
                 (A) (A) (A) (A) (A) (A) (A) (A) (A) (A) (A) (A)
                 (A) (A) (A) (A) (A) (A) (A) (A) (A) (A) (A) (A)
                 (A) (A) (A) (A) (A) (A) (A) (A) (A) (A) (A) (A)
                 (A) (A) (A) (A) (A) (A) (A) (A) (A) (A) (A) (A)
                 (A) (A) (A) (A) (A) (A) (A) (A) (A) (A) (A)
 The electronic state is 1-A.
 Alpha  occ. eigenvalues --  -19.61954 -10.57863 -10.52543 -10.52137 -10.51630
 Alpha  occ. eigenvalues --   -1.14353  -0.89185  -0.81399  -0.71335  -0.65698
 Alpha  occ. eigenvalues --   -0.59980  -0.53701  -0.51384  -0.50073  -0.45568
 Alpha  occ. eigenvalues --   -0.44161  -0.42681  -0.39545  -0.38468  -0.37871
 Alpha  occ. eigenvalues --   -0.34703
 Alpha virt. eigenvalues --    0.01274   0.02685   0.03452   0.03992   0.05675
 Alpha virt. eigenvalues --    0.06156   0.06632   0.08094   0.08657   0.09167
 Alpha virt. eigenvalues --    0.10243   0.10964   0.13183   0.15202   0.16368
 Alpha virt. eigenvalues --    0.17754   0.18636   0.19795   0.21053   0.21179
 Alpha virt. eigenvalues --    0.22301   0.23120   0.23799   0.25008   0.25955
 Alpha virt. eigenvalues --    0.26989   0.27646   0.28554   0.29207   0.30370
 Alpha virt. eigenvalues --    0.31131   0.31735   0.34216   0.37551   0.42445
 Alpha virt. eigenvalues --    0.43297   0.45421   0.46202   0.47549   0.49587
 Alpha virt. eigenvalues --    0.52716   0.53555   0.55065   0.56331   0.57323
 Alpha virt. eigenvalues --    0.58051   0.59183   0.60465   0.61775   0.62711
 Alpha virt. eigenvalues --    0.63212   0.64875   0.65146   0.66075   0.68246
 Alpha virt. eigenvalues --    0.69636   0.70416   0.72205   0.74835   0.78522
 Alpha virt. eigenvalues --    0.80960   0.82300   0.83571   0.85632   0.88092
 Alpha virt. eigenvalues --    0.88922   0.92745   0.94397   0.96355   1.01271
 Alpha virt. eigenvalues --    1.04455   1.04779   1.06577   1.10186   1.12045
 Alpha virt. eigenvalues --    1.13354   1.14065   1.17252   1.18215   1.18948
 Alpha virt. eigenvalues --    1.19442   1.20806   1.22243   1.24424   1.25509
 Alpha virt. eigenvalues --    1.26661   1.27744   1.29773   1.31104   1.32215
 Alpha virt. eigenvalues --    1.35994   1.37883   1.39782   1.40988   1.42282
 Alpha virt. eigenvalues --    1.44007   1.44927   1.46299   1.47183   1.48828
 Alpha virt. eigenvalues --    1.49347   1.54062   1.54931   1.56657   1.58576
 Alpha virt. eigenvalues --    1.60209   1.61857   1.63029   1.64297   1.65864
 Alpha virt. eigenvalues --    1.68972   1.69962   1.74423   1.85141   1.91328
 Alpha virt. eigenvalues --    2.09845   2.13040   2.27766   2.35048   2.41341
 Alpha virt. eigenvalues --    2.47819   2.50426   2.51997   2.55981   2.58026
 Alpha virt. eigenvalues --    2.63274   2.67319   2.75832   2.76971   2.79092
 Alpha virt. eigenvalues --    2.81363   2.84172   2.85751   2.89573   2.91533
 Alpha virt. eigenvalues --    2.94321   2.95906   2.99489   3.04365   3.04540
 Alpha virt. eigenvalues --    3.09339   3.14334   3.15425   3.16714   3.17898
 Alpha virt. eigenvalues --    3.22628   3.24142   3.26570   3.27877   3.32359
 Alpha virt. eigenvalues --    3.35159   3.36083   3.38984   3.39178   3.40354
 Alpha virt. eigenvalues --    3.45556   3.46836   3.52665   3.54033   3.56893
 Alpha virt. eigenvalues --    3.58846   3.59784   3.61622   3.62904   3.66201
 Alpha virt. eigenvalues --    3.70609   3.70881   3.72337   3.76061   3.78030
 Alpha virt. eigenvalues --    3.79666   3.84663   3.87976   3.89139   3.92669
 Alpha virt. eigenvalues --    3.97129   3.99285   4.01222   4.02393   4.03135
 Alpha virt. eigenvalues --    4.04989   4.08509   4.09827   4.14734   4.15718
 Alpha virt. eigenvalues --    4.19460   4.21040   4.23116   4.24524   4.25931
 Alpha virt. eigenvalues --    4.28396   4.30016   4.32082   4.33138   4.36585
 Alpha virt. eigenvalues --    4.39776   4.44013   4.44668   4.48113   4.53435
 Alpha virt. eigenvalues --    4.53895   4.56102   4.57388   4.60570   4.63910
 Alpha virt. eigenvalues --    4.65806   4.68273   4.79831   4.80778   5.02490
 Alpha virt. eigenvalues --    5.20081   5.21329   5.23310   5.28015   5.36286
 Alpha virt. eigenvalues --    5.41984   5.47050   5.49683   5.53871   5.54634
 Alpha virt. eigenvalues --    5.59707   5.60262   5.65811   5.67627   5.70065
 Alpha virt. eigenvalues --    5.84826   5.94507   6.49647   6.98558   7.17293
 Alpha virt. eigenvalues --    7.21313   7.24418   7.55764   7.65315  24.28233
 Alpha virt. eigenvalues --   24.39451  24.44801  24.51533  50.15261
          Condensed to atoms (all electrons):
               1          2          3          4          5          6
     1  O    8.154740  -0.082956  -0.003155   0.152268  -0.000393  -0.001202
     2  C   -0.082956   5.714147  -0.220738  -0.006942   0.169115  -0.031103
     3  C   -0.003155  -0.220738   5.519408   0.160640   0.019554   0.428813
     4  C    0.152268  -0.006942   0.160640   5.255258  -0.108042  -0.014854
     5  C   -0.000393   0.169115   0.019554  -0.108042   5.293519  -0.029341
     6  H   -0.001202  -0.031103   0.428813  -0.014854  -0.029341   0.539046
     7  H   -0.006106  -0.062464   0.476627   0.011007  -0.057086  -0.034050
     8  H    0.008923   0.395653  -0.004752  -0.016050  -0.018191  -0.007516
     9  H   -0.009792   0.496855  -0.084552  -0.062201   0.007481   0.005177
    10  H   -0.049848   0.005792  -0.047026   0.433358   0.006479   0.002773
    11  H   -0.043777  -0.074522   0.023283   0.465258  -0.000642   0.000098
    12  H   -0.000285  -0.010330  -0.032722  -0.003552   0.420489   0.006228
    13  H    0.000093   0.020713  -0.048027   0.002472   0.409588  -0.004589
    14  H   -0.000107  -0.031963   0.006830   0.003037   0.393385  -0.008284
    15  H    0.231117  -0.030466   0.008438   0.027489  -0.001817  -0.000103
               7          8          9         10         11         12
     1  O   -0.006106   0.008923  -0.009792  -0.049848  -0.043777  -0.000285
     2  C   -0.062464   0.395653   0.496855   0.005792  -0.074522  -0.010330
     3  C    0.476627  -0.004752  -0.084552  -0.047026   0.023283  -0.032722
     4  C    0.011007  -0.016050  -0.062201   0.433358   0.465258  -0.003552
     5  C   -0.057086  -0.018191   0.007481   0.006479  -0.000642   0.420489
     6  H   -0.034050  -0.007516   0.005177   0.002773   0.000098   0.006228
     7  H    0.494748   0.004370  -0.003511   0.001202  -0.000808  -0.006809
     8  H    0.004370   0.518148  -0.028880  -0.005022  -0.003309  -0.000579
     9  H   -0.003511  -0.028880   0.489904   0.006026  -0.006733   0.001345
    10  H    0.001202  -0.005022   0.006026   0.561165  -0.046489  -0.000014
    11  H   -0.000808  -0.003309  -0.006733  -0.046489   0.556405  -0.000004
    12  H   -0.006809  -0.000579   0.001345  -0.000014  -0.000004   0.551055
    13  H   -0.004633  -0.000009  -0.000089  -0.000024   0.000015  -0.024342
    14  H    0.006008   0.002525  -0.000432  -0.000014  -0.000039  -0.038813
    15  H   -0.000015  -0.000280   0.000233  -0.006998  -0.005089  -0.000003
              13         14         15
     1  O    0.000093  -0.000107   0.231117
     2  C    0.020713  -0.031963  -0.030466
     3  C   -0.048027   0.006830   0.008438
     4  C    0.002472   0.003037   0.027489
     5  C    0.409588   0.393385  -0.001817
     6  H   -0.004589  -0.008284  -0.000103
     7  H   -0.004633   0.006008  -0.000015
     8  H   -0.000009   0.002525  -0.000280
     9  H   -0.000089  -0.000432   0.000233
    10  H   -0.000024  -0.000014  -0.006998
    11  H    0.000015  -0.000039  -0.005089
    12  H   -0.024342  -0.038813  -0.000003
    13  H    0.540374  -0.025623  -0.000001
    14  H   -0.025623   0.561282   0.000004
    15  H   -0.000001   0.000004   0.525492
 Mulliken charges:
               1
     1  O   -0.349522
     2  C   -0.250792
     3  C   -0.202621
     4  C   -0.299146
     5  C   -0.504098
     6  H    0.148906
     7  H    0.181520
     8  H    0.154969
     9  H    0.189170
    10  H    0.138640
    11  H    0.136354
    12  H    0.138339
    13  H    0.134081
    14  H    0.132202
    15  H    0.251998
 Sum of Mulliken charges =  -0.00000
 Mulliken charges with hydrogens summed into heavy atoms:
               1
     1  O   -0.097524
     2  C    0.093347
     3  C    0.127805
     4  C   -0.024152
     5  C   -0.099475
 APT charges:
               1
     1  O   -0.867115
     2  C   -0.634326
     3  C   -0.567793
     4  C   -0.801210
     5  C   -1.292583
     6  H    0.344212
     7  H    0.320679
     8  H    0.387352
     9  H    0.353227
    10  H    0.340565
    11  H    0.468703
    12  H    0.328047
    13  H    0.504941
    14  H    0.372791
    15  H    0.742510
 Sum of APT charges =  -0.00000
 APT charges with hydrogens summed into heavy atoms:
               1
     1  O   -0.124605
     2  C    0.106253
     3  C    0.097099
     4  C    0.008058
     5  C   -0.086805
 Electronic spatial extent (au):  <R**2>=            597.8674
 Charge=             -0.0000 electrons
 Dipole moment (field-independent basis, Debye):
    X=              0.8779    Y=              0.9001    Z=              0.8864  Tot=              1.5384
 Quadrupole moment (field-independent basis, Debye-Ang):
   XX=            -28.9053   YY=            -34.0755   ZZ=            -33.9862
   XY=              0.4382   XZ=              1.8047   YZ=             -0.5449
 Traceless Quadrupole moment (field-independent basis, Debye-Ang):
   XX=              3.4170   YY=             -1.7532   ZZ=             -1.6638
   XY=              0.4382   XZ=              1.8047   YZ=             -0.5449
 Octapole moment (field-independent basis, Debye-Ang**2):
  XXX=             34.0101  YYY=             -2.0652  ZZZ=             -0.4023  XYY=              3.1561
  XXY=             -5.2688  XXZ=              4.4591  XZZ=              1.9380  YZZ=             -0.4963
  YYZ=              0.4615  XYZ=             -1.7679
 Hexadecapole moment (field-independent basis, Debye-Ang**3):
 XXXX=           -526.0763 YYYY=           -124.4632 ZZZZ=            -76.6172 XXXY=            -23.5456
 XXXZ=              4.0162 YYYX=             -6.9021 YYYZ=              1.1684 ZZZX=              1.5948
 ZZZY=              0.2675 XXYY=           -112.5992 XXZZ=           -115.4975 YYZZ=            -36.0698
 XXYZ=             -3.8718 YYXZ=             -1.5399 ZZXY=             -0.5554
 N-N= 1.887530017249D+02 E-N=-9.220670430020D+02  KE= 2.327040942671D+02
  Exact polarizability:   0.000   0.000   0.000   0.000   0.000   0.000
 Approx polarizability:  62.751  -0.711  61.608   0.669   0.331  60.827
 No NMR shielding tensors so no spin-rotation constants.
 Leave Link  601 at Wed Mar 13 11:47:10 2019, MaxMem=   671088640 cpu:               4.8 elap:               0.3
 (Enter /shared/centos7/gaussian/g16/l701.exe)
 ... and contract with generalized density number  0.
 Compute integral second derivatives.
 Leave Link  701 at Wed Mar 13 11:47:11 2019, MaxMem=   671088640 cpu:               5.2 elap:               0.3
 (Enter /shared/centos7/gaussian/g16/l702.exe)
 L702 exits ... SP integral derivatives will be done elsewhere.
 Leave Link  702 at Wed Mar 13 11:47:11 2019, MaxMem=   671088640 cpu:               0.3 elap:               0.0
 (Enter /shared/centos7/gaussian/g16/l703.exe)
 Integral derivatives from FoFJK, PRISM(SPDF).
 Compute integral second derivatives, UseDBF=F ICtDFT=           0.
 Calling FoFJK, ICntrl=    100147 FMM=F ISym2X=0 I1Cent= 0 IOpClX= 0 NMat=1 NMatS=1 NMatT=0.
 FoFJK:  IHMeth= 1 ICntrl=  100147 DoSepK=F KAlg= 0 I1Cent=           0 FoldK=F
 IRaf=         0 NMat=       1 IRICut=       1 DoRegI=T DoRafI=F ISym2E= 0 IDoP0=0 IntGTp=1.
 FoFCou: FMM=F IPFlag=           0 FMFlag=      100000 FMFlg1=         800
         NFxFlg=           0 DoJE=F BraDBF=F KetDBF=F FulRan=T
         wScrn=  0.000000 ICntrl=    100147 IOpCl=  0 I1Cent=           0 NGrid=           0
         NMat0=    1 NMatS0=      1 NMatT0=    0 NMatD0=    1 NMtDS0=    0 NMtDT0=    0
 Symmetry not used in FoFCou.
 Leave Link  703 at Wed Mar 13 11:48:21 2019, MaxMem=   671088640 cpu:            1398.8 elap:              70.0
 (Enter /shared/centos7/gaussian/g16/l716.exe)
 Dipole        = 3.45409351D-01 3.54144115D-01 3.48718648D-01
 Polarizability= 0.00000000D+00 0.00000000D+00 0.00000000D+00
                 0.00000000D+00 0.00000000D+00 0.00000000D+00
 ***** Axes restored to original set *****
 -------------------------------------------------------------------
 Center     Atomic                   Forces (Hartrees/Bohr)
 Number     Number              X              Y              Z
 -------------------------------------------------------------------
      1        8           0.000000367    0.000000254    0.000000734
      2        6           0.000000058    0.000000244    0.000000587
      3        6          -0.000000156   -0.000000183   -0.000000601
      4        6          -0.000000174   -0.000000081    0.000001238
      5        6           0.000000077    0.000000056   -0.000001302
      6        1          -0.000000772   -0.000000873   -0.000000657
      7        1           0.000000043   -0.000000042   -0.000001069
      8        1          -0.000000081   -0.000000023    0.000000920
      9        1           0.000000751    0.000000833    0.000000429
     10        1          -0.000000723   -0.000000708    0.000001190
     11        1           0.000000090    0.000000197    0.000002034
     12        1           0.000000716    0.000000684   -0.000001445
     13        1          -0.000000092   -0.000000239   -0.000002187
     14        1          -0.000000078   -0.000000195   -0.000000971
     15        1          -0.000000027    0.000000074    0.000001098
 -------------------------------------------------------------------
 Cartesian Forces:  Max     0.000002187 RMS     0.000000772
 FormGI is forming the generalized inverse of G from B-inverse, IUseBI=4.
 Leave Link  716 at Wed Mar 13 11:48:21 2019, MaxMem=   671088640 cpu:               0.5 elap:               0.0
 (Enter /shared/centos7/gaussian/g16/l103.exe)

 GradGradGradGradGradGradGradGradGradGradGradGradGradGradGradGradGradGrad
 Berny optimization.
 Red2BG is reusing G-inverse.
 Internal  Forces:  Max     0.000000091 RMS     0.000000026
 Search for a local minimum.
 Step number   1 out of a maximum of   79 on scan point     1 out of    37
 All quantities printed in internal units (Hartrees-Bohrs-Radians)
 RMS Force = .25739D-07 SwitMx=.10000D-02 MixMth= 2
 Mixed Optimization -- En-DIIS/RFO-DIIS
 Second derivative matrix not updated -- analytic derivatives used.
 ITU=  0
     Eigenvalues ---    0.00186   0.00261   0.00348   0.03243   0.03709
     Eigenvalues ---    0.03804   0.03926   0.04380   0.04530   0.04553
     Eigenvalues ---    0.05915   0.06819   0.07153   0.08154   0.09726
     Eigenvalues ---    0.12045   0.12111   0.12827   0.13459   0.15707
     Eigenvalues ---    0.15845   0.18136   0.22298   0.24522   0.29246
     Eigenvalues ---    0.30432   0.32077   0.32390   0.32633   0.33178
     Eigenvalues ---    0.33367   0.33828   0.34079   0.34160   0.34512
     Eigenvalues ---    0.35030   0.39830   0.551921000.000001000.00000
     Eigenvalues --- 1000.000001000.000001000.000001000.000001000.00000
     Eigenvalues --- 1000.000001000.000001000.000001000.000001000.00000
     Eigenvalues --- 1000.000001000.000001000.000001000.000001000.00000
     Eigenvalues --- 1000.000001000.000001000.000001000.000001000.00000
     Eigenvalues --- 1000.000001000.000001000.000001000.000001000.00000
     Eigenvalues --- 1000.000001000.000001000.000001000.00000
 RFO step:  Lambda= 0.00000000D+00 EMin= 1.86043498D-03
 Linear search not attempted -- first point.
 Iteration  1 RMS(Cart)=  0.00000070 RMS(Int)=  0.00000000
 Iteration  1 RMS(Cart)=  0.00000000 RMS(Int)=  0.00000000
 ITry= 1 IFail=0 DXMaxC= 1.98D-06 DCOld= 1.00D+10 DXMaxT= 3.00D-01 DXLimC= 3.00D+00 Rises=F
 Variable       Old X    -DE/DX   Delta X   Delta X   Delta X     New X
                                 (Linear)    (Quad)   (Total)
    R1        2.68029   0.00000   0.00000   0.00000   0.00000   2.68029
    R2        1.81040  -0.00000   0.00000  -0.00000  -0.00000   1.81040
    R3        2.88096  -0.00000   0.00000  -0.00000  -0.00000   2.88096
    R4        2.86266   0.00000   0.00000   0.00000   0.00000   2.86266
    R5        2.06632  -0.00000   0.00000  -0.00000  -0.00000   2.06632
    R6        2.06594   0.00000   0.00000   0.00000   0.00000   2.06594
    R7        2.87973  -0.00000   0.00000  -0.00000  -0.00000   2.87973
    R8        2.06663  -0.00000   0.00000  -0.00000  -0.00000   2.06663
    R9        2.06049   0.00000   0.00000   0.00000   0.00000   2.06049
   R10        2.07160  -0.00000   0.00000  -0.00000  -0.00000   2.07160
   R11        2.06813   0.00000   0.00000   0.00000   0.00000   2.06813
   R12        2.06145   0.00000   0.00000   0.00000   0.00000   2.06145
   R13        2.05859  -0.00000   0.00000  -0.00000  -0.00000   2.05859
   R14        2.06211  -0.00000   0.00000  -0.00000  -0.00000   2.06211
    A1        1.91006   0.00000   0.00000   0.00000   0.00000   1.91007
    A2        1.97278  -0.00000   0.00000  -0.00000  -0.00000   1.97278
    A3        1.91700   0.00000   0.00000   0.00000   0.00000   1.91700
    A4        1.91452   0.00000   0.00000  -0.00000  -0.00000   1.91452
    A5        1.89494   0.00000   0.00000   0.00000   0.00000   1.89494
    A6        1.89374  -0.00000   0.00000  -0.00000  -0.00000   1.89374
    A7        1.86774  -0.00000   0.00000  -0.00000  -0.00000   1.86774
    A8        1.95823   0.00000   0.00000   0.00000   0.00000   1.95823
    A9        1.90307  -0.00000   0.00000   0.00000   0.00000   1.90307
   A10        1.90082  -0.00000   0.00000  -0.00000  -0.00000   1.90082
   A11        1.91626  -0.00000   0.00000   0.00000   0.00000   1.91626
   A12        1.92227  -0.00000   0.00000  -0.00000  -0.00000   1.92227
   A13        1.86048   0.00000   0.00000   0.00000   0.00000   1.86049
   A14        1.88660   0.00000   0.00000   0.00000   0.00000   1.88660
   A15        1.92769  -0.00000   0.00000  -0.00000  -0.00000   1.92769
   A16        1.92842  -0.00000   0.00000  -0.00000  -0.00000   1.92842
   A17        1.91437  -0.00000   0.00000  -0.00000  -0.00000   1.91437
   A18        1.92095  -0.00000   0.00000   0.00000   0.00000   1.92095
   A19        1.88601   0.00000   0.00000   0.00000   0.00000   1.88601
   A20        1.93295  -0.00000   0.00000  -0.00000  -0.00000   1.93295
   A21        1.94784  -0.00000   0.00000  -0.00000  -0.00000   1.94784
   A22        1.93748   0.00000   0.00000   0.00000   0.00000   1.93748
   A23        1.88196  -0.00000   0.00000  -0.00000  -0.00000   1.88196
   A24        1.87809   0.00000   0.00000   0.00000   0.00000   1.87809
   A25        1.88285   0.00000   0.00000   0.00000   0.00000   1.88285
    D1       -3.11895   0.00000   0.00000   0.00000   0.00000  -3.11895
    D2       -1.02451   0.00000   0.00000   0.00000  -0.00000  -1.02451
    D3        1.06132  -0.00000   0.00000  -0.00000  -0.00000   1.06132
    D4       -3.13147   0.00000   0.00000   0.00000   0.00000  -3.13147
    D5        1.02502   0.00000   0.00000   0.00000   0.00000   1.02502
    D6       -0.99873   0.00000   0.00000   0.00000   0.00000  -0.99873
    D7        1.03257   0.00000   0.00000   0.00000   0.00000   1.03258
    D8       -1.09412  -0.00000   0.00000   0.00000   0.00000  -1.09412
    D9       -3.11787  -0.00000   0.00000   0.00000   0.00000  -3.11787
   D10       -1.01565  -0.00000   0.00000   0.00000   0.00000  -1.01565
   D11        3.14084  -0.00000   0.00000   0.00000   0.00000   3.14084
   D12        1.11709  -0.00000   0.00000   0.00000   0.00000   1.11709
   D13        1.10273  -0.00000   0.00000  -0.00000  -0.00000   1.10273
   D14       -1.00006  -0.00000   0.00000  -0.00000  -0.00000  -1.00006
   D15       -3.07287  -0.00000   0.00000  -0.00000  -0.00000  -3.07287
   D16       -3.04891  -0.00000   0.00000  -0.00000  -0.00000  -3.04891
   D17        1.13148  -0.00000   0.00000  -0.00000  -0.00000   1.13148
   D18       -0.94133   0.00000   0.00000  -0.00000  -0.00000  -0.94133
   D19       -1.02480   0.00000   0.00000  -0.00000  -0.00000  -1.02481
   D20       -3.12760  -0.00000   0.00000  -0.00000  -0.00000  -3.12760
   D21        1.08278   0.00000   0.00000  -0.00000  -0.00000   1.08278
   D22        1.04847  -0.00000   0.00000  -0.00000  -0.00000   1.04847
   D23       -3.13783  -0.00000   0.00000  -0.00000  -0.00000  -3.13783
   D24       -1.03671  -0.00000   0.00000  -0.00000  -0.00000  -1.03672
   D25       -3.11556   0.00000   0.00000  -0.00000  -0.00000  -3.11556
   D26       -1.01868  -0.00000   0.00000  -0.00000  -0.00000  -1.01868
   D27        1.08244   0.00000   0.00000  -0.00000  -0.00000   1.08244
   D28       -1.07202   0.00000   0.00000  -0.00000  -0.00000  -1.07202
   D29        1.02486  -0.00000   0.00000  -0.00000  -0.00000   1.02486
   D30        3.12598   0.00000   0.00000  -0.00000  -0.00000   3.12598
         Item               Value     Threshold  Converged?
 Maximum Force            0.000000     0.000450     YES
 RMS     Force            0.000000     0.000300     YES
 Maximum Displacement     0.000002     0.001800     YES
 RMS     Displacement     0.000001     0.001200     YES
 Predicted change in Energy=-1.162418D-13
 Optimization completed.
    -- Stationary point found.
                           ----------------------------
                           !   Optimized Parameters   !
                           ! (Angstroms and Degrees)  !
 --------------------------                            --------------------------
 ! Name  Definition              Value          Derivative Info.                !
 --------------------------------------------------------------------------------
 ! R1    R(1,4)                  1.4183         -DE/DX =    0.0                 !
 ! R2    R(1,15)                 0.958          -DE/DX =    0.0                 !
 ! R3    R(2,3)                  1.5245         -DE/DX =    0.0                 !
 ! R4    R(2,4)                  1.5149         -DE/DX =    0.0                 !
 ! R5    R(2,8)                  1.0934         -DE/DX =    0.0                 !
 ! R6    R(2,9)                  1.0933         -DE/DX =    0.0                 !
 ! R7    R(3,5)                  1.5239         -DE/DX =    0.0                 !
 ! R8    R(3,6)                  1.0936         -DE/DX =    0.0                 !
 ! R9    R(3,7)                  1.0904         -DE/DX =    0.0                 !
 ! R10   R(4,10)                 1.0962         -DE/DX =    0.0                 !
 ! R11   R(4,11)                 1.0944         -DE/DX =    0.0                 !
 ! R12   R(5,12)                 1.0909         -DE/DX =    0.0                 !
 ! R13   R(5,13)                 1.0894         -DE/DX =    0.0                 !
 ! R14   R(5,14)                 1.0912         -DE/DX =    0.0                 !
 ! A1    A(4,1,15)             109.4386         -DE/DX =    0.0                 !
 ! A2    A(3,2,4)              113.032          -DE/DX =    0.0                 !
 ! A3    A(3,2,8)              109.8357         -DE/DX =    0.0                 !
 ! A4    A(3,2,9)              109.6941         -DE/DX =    0.0                 !
 ! A5    A(4,2,8)              108.5721         -DE/DX =    0.0                 !
 ! A6    A(4,2,9)              108.5032         -DE/DX =    0.0                 !
 ! A7    A(8,2,9)              107.0136         -DE/DX =    0.0                 !
 ! A8    A(2,3,5)              112.1981         -DE/DX =    0.0                 !
 ! A9    A(2,3,6)              109.038          -DE/DX =    0.0                 !
 ! A10   A(2,3,7)              108.9089         -DE/DX =    0.0                 !
 ! A11   A(5,3,6)              109.7935         -DE/DX =    0.0                 !
 ! A12   A(5,3,7)              110.1379         -DE/DX =    0.0                 !
 ! A13   A(6,3,7)              106.5979         -DE/DX =    0.0                 !
 ! A14   A(1,4,2)              108.0944         -DE/DX =    0.0                 !
 ! A15   A(1,4,10)             110.4487         -DE/DX =    0.0                 !
 ! A16   A(1,4,11)             110.4904         -DE/DX =    0.0                 !
 ! A17   A(2,4,10)             109.6852         -DE/DX =    0.0                 !
 ! A18   A(2,4,11)             110.0622         -DE/DX =    0.0                 !
 ! A19   A(10,4,11)            108.0607         -DE/DX =    0.0                 !
 ! A20   A(3,5,12)             110.7497         -DE/DX =    0.0                 !
 ! A21   A(3,5,13)             111.6028         -DE/DX =    0.0                 !
 ! A22   A(3,5,14)             111.0093         -DE/DX =    0.0                 !
 ! A23   A(12,5,13)            107.8282         -DE/DX =    0.0                 !
 ! A24   A(12,5,14)            107.6069         -DE/DX =    0.0                 !
 ! A25   A(13,5,14)            107.8796         -DE/DX =    0.0                 !
 ! D1    D(15,1,4,2)          -178.7026         -DE/DX =    0.0                 !
 ! D2    D(15,1,4,10)          -58.6998         -DE/DX =    0.0                 !
 ! D3    D(15,1,4,11)           60.8091         -DE/DX =    0.0                 !
 ! D4    D(4,2,3,5)           -179.4202         -DE/DX =    0.0                 !
 ! D5    D(4,2,3,6)             58.7291         -DE/DX =    0.0                 !
 ! D6    D(4,2,3,7)            -57.2233         -DE/DX =    0.0                 !
 ! D7    D(8,2,3,5)             59.1622         -DE/DX =    0.0                 !
 ! D8    D(8,2,3,6)            -62.6886         -DE/DX =    0.0                 !
 ! D9    D(8,2,3,7)           -178.6409         -DE/DX =    0.0                 !
 ! D10   D(9,2,3,5)            -58.1924         -DE/DX =    0.0                 !
 ! D11   D(9,2,3,6)            179.9569         -DE/DX =    0.0                 !
 ! D12   D(9,2,3,7)             64.0045         -DE/DX =    0.0                 !
 ! D13   D(3,2,4,1)             63.1821         -DE/DX =    0.0                 !
 ! D14   D(3,2,4,10)           -57.299          -DE/DX =    0.0                 !
 ! D15   D(3,2,4,11)          -176.0623         -DE/DX =    0.0                 !
 ! D16   D(8,2,4,1)           -174.6897         -DE/DX =    0.0                 !
 ! D17   D(8,2,4,10)            64.8292         -DE/DX =    0.0                 !
 ! D18   D(8,2,4,11)           -53.934          -DE/DX =    0.0                 !
 ! D19   D(9,2,4,1)            -58.717          -DE/DX =    0.0                 !
 ! D20   D(9,2,4,10)          -179.1981         -DE/DX =    0.0                 !
 ! D21   D(9,2,4,11)            62.0387         -DE/DX =    0.0                 !
 ! D22   D(2,3,5,12)            60.0729         -DE/DX =    0.0                 !
 ! D23   D(2,3,5,13)          -179.7843         -DE/DX =    0.0                 !
 ! D24   D(2,3,5,14)           -59.3994         -DE/DX =    0.0                 !
 ! D25   D(6,3,5,12)          -178.5087         -DE/DX =    0.0                 !
 ! D26   D(6,3,5,13)           -58.3658         -DE/DX =    0.0                 !
 ! D27   D(6,3,5,14)            62.0191         -DE/DX =    0.0                 !
 ! D28   D(7,3,5,12)           -61.4224         -DE/DX =    0.0                 !
 ! D29   D(7,3,5,13)            58.7204         -DE/DX =    0.0                 !
 ! D30   D(7,3,5,14)           179.1053         -DE/DX =    0.0                 !
 --------------------------------------------------------------------------------
 Lowest energy point so far.  Saving SCF results.
 Iteration  1 RMS(Cart)=  0.01493474 RMS(Int)=  0.01399879
 Iteration  2 RMS(Cart)=  0.00111479 RMS(Int)=  0.01398726
 Iteration  3 RMS(Cart)=  0.00005650 RMS(Int)=  0.01398724
 Iteration  4 RMS(Cart)=  0.00000293 RMS(Int)=  0.01398724
 Iteration  5 RMS(Cart)=  0.00000017 RMS(Int)=  0.01398724
 Iteration  1 RMS(Cart)=  0.00633416 RMS(Int)=  0.00629811
 Iteration  2 RMS(Cart)=  0.00279443 RMS(Int)=  0.00704299
 Iteration  3 RMS(Cart)=  0.00125921 RMS(Int)=  0.00778282
 Iteration  4 RMS(Cart)=  0.00057262 RMS(Int)=  0.00818027
 Iteration  5 RMS(Cart)=  0.00026146 RMS(Int)=  0.00837246
 Iteration  6 RMS(Cart)=  0.00011961 RMS(Int)=  0.00846244
 Iteration  7 RMS(Cart)=  0.00005476 RMS(Int)=  0.00850405
 Iteration  8 RMS(Cart)=  0.00002508 RMS(Int)=  0.00852320
 Iteration  9 RMS(Cart)=  0.00001149 RMS(Int)=  0.00853199
 Iteration 10 RMS(Cart)=  0.00000526 RMS(Int)=  0.00853602
 Iteration 11 RMS(Cart)=  0.00000241 RMS(Int)=  0.00853786
 Iteration 12 RMS(Cart)=  0.00000110 RMS(Int)=  0.00853871
 Iteration 13 RMS(Cart)=  0.00000051 RMS(Int)=  0.00853910
 GradGradGradGradGradGradGradGradGradGradGradGradGradGradGradGradGradGrad

 Leave Link  103 at Wed Mar 13 11:48:21 2019, MaxMem=   671088640 cpu:               0.8 elap:               0.1
 (Enter /shared/centos7/gaussian/g16/l202.exe)
                          Input orientation:                          
 ---------------------------------------------------------------------
 Center     Atomic      Atomic             Coordinates (Angstroms)
 Number     Number       Type             X           Y           Z
 ---------------------------------------------------------------------
      1          8           0        1.924448   -0.711724   -0.279862
      2          6           0       -0.010682    0.705571   -0.231185
      3          6           0       -0.954875   -0.344369    0.343578
      4          6           0        1.424815    0.519826    0.215613
      5          6           0       -2.390299   -0.148190   -0.128974
      6          1           0       -0.915185   -0.300256    1.435583
      7          1           0       -0.597869   -1.334455    0.058671
      8          1           0       -0.341458    1.704501    0.066058
      9          1           0       -0.041422    0.670252   -1.323434
     10          1           0        1.565145    0.541915    1.302905
     11          1           0        2.055074    1.332356   -0.158968
     12          1           0       -2.451954   -0.215622   -1.216012
     13          1           0       -3.056957   -0.900878    0.290227
     14          1           0       -2.767543    0.833307    0.162781
     15          1           0        2.799540   -0.867771    0.078000
 ---------------------------------------------------------------------
                    Distance matrix (angstroms):
                    1          2          3          4          5
     1  O    0.000000
     2  C    2.399130   0.000000
     3  C    2.968860   1.524541   0.000000
     4  C    1.418395   1.514854   2.534982   0.000000
     5  C    4.354007   2.530203   1.523887   3.888455   0.000000
     6  H    3.342989   2.146608   1.093616   2.763415   2.155672
     7  H    2.620015   2.142548   1.090365   2.748498   2.157601
     8  H    3.330486   1.093448   2.156656   2.132028   2.769161
     9  H    2.619837   1.093252   2.154711   2.130996   2.759312
    10  H    2.050820   2.205323   2.838364   1.096533   4.262870
    11  H    2.051814   2.159959   3.481918   1.094414   4.685537
    12  H    4.502820   2.788958   2.165673   4.197591   1.090872
    13  H    5.017487   3.483150   2.175154   4.702154   1.089358
    14  H    4.959620   2.787796   2.169187   4.204394   1.091225
    15  H    0.958228   3.235482   3.800015   1.958119   5.243573
                    6          7          8          9         10
     6  H    0.000000
     7  H    1.751041   0.000000
     8  H    2.494757   3.049764   0.000000
     9  H    3.052461   2.497739   1.757948   0.000000
    10  H    2.622765   3.122101   2.552751   3.081426   0.000000
    11  H    3.745725   3.767938   2.435672   2.487902   1.732600
    12  H    3.065905   2.512814   3.128061   2.570404   4.801655
    13  H    2.501953   2.507733   3.769905   3.763748   4.946817
    14  H    2.517184   3.068798   2.579578   3.109205   4.489652
    15  H    3.995533   3.429366   4.059876   3.521448   2.238601
                   11         12         13         14         15
    11  H    0.000000
    12  H    4.881278   0.000000
    13  H    5.596604   1.761920   0.000000
    14  H    4.859034   1.760943   1.762782   0.000000
    15  H    2.334725   5.447747   5.860434   5.821792   0.000000
 Stoichiometry    C4H10O
 Framework group  C1[X(C4H10O)]
 Deg. of freedom    39
 Full point group                 C1      NOp   1
 RotChk:  IX=0 Diff= 7.50D-03
 Largest Abelian subgroup         C1      NOp   1
 Largest concise Abelian subgroup C1      NOp   1
                         Standard orientation:                         
 ---------------------------------------------------------------------
 Center     Atomic      Atomic             Coordinates (Angstroms)
 Number     Number       Type             X           Y           Z
 ---------------------------------------------------------------------
      1          8           0        1.922889   -0.717539   -0.268135
      2          6           0       -0.010471    0.702223   -0.221002
      3          6           0       -0.957670   -0.348002    0.348267
      4          6           0        1.423523    0.513333    0.229292
      5          6           0       -2.391504   -0.148608   -0.127751
      6          1           0       -0.920972   -0.306908    1.440495
      7          1           0       -0.601195   -1.337791    0.061666
      8          1           0       -0.340738    1.700787    0.078033
      9          1           0       -0.038207    0.669912   -1.313424
     10          1           0        1.560845    0.532279    1.317028
     11          1           0        2.055913    1.326028   -0.141318
     12          1           0       -2.450213   -0.213004   -1.215137
     13          1           0       -3.060338   -0.901533    0.287540
     14          1           0       -2.768248    0.832600    0.165618
     15          1           0        2.796768   -0.875735    0.091742
 ---------------------------------------------------------------------
 Rotational constants (GHZ):          12.6883145           2.3693929           2.1899211
 Leave Link  202 at Wed Mar 13 11:48:21 2019, MaxMem=   671088640 cpu:               0.2 elap:               0.0
 (Enter /shared/centos7/gaussian/g16/l301.exe)
 Standard basis: 6-311+G(2df,2p) (5D, 7F)
 Ernie: Thresh=  0.10000D-02 Tol=  0.10000D-05 Strict=F.
 There are   285 symmetry adapted cartesian basis functions of A   symmetry.
 There are   260 symmetry adapted basis functions of A   symmetry.
   260 basis functions,   370 primitive gaussians,   285 cartesian basis functions
    21 alpha electrons       21 beta electrons
       nuclear repulsion energy       188.3291115578 Hartrees.
 IExCor= 4336 DFT=T Ex+Corr=M062X ExCW=0 ScaHFX=  0.540000
 ScaDFX=  1.000000  1.000000  1.000000  1.000000 ScalE2=  1.000000  1.000000
 IRadAn=      5 IRanWt=     -1 IRanGd=            0 ICorTp=0 IEmpDi=  4
 NAtoms=   15 NActive=   15 NUniq=   15 SFac= 1.00D+00 NAtFMM=   60 NAOKFM=F Big=F
 Integral buffers will be    131072 words long.
 Raffenetti 2 integral format.
 Two-electron integral symmetry is turned on.
 Leave Link  301 at Wed Mar 13 11:48:21 2019, MaxMem=   671088640 cpu:               0.8 elap:               0.1
 (Enter /shared/centos7/gaussian/g16/l302.exe)
 NPDir=0 NMtPBC=     1 NCelOv=     1 NCel=       1 NClECP=     1 NCelD=      1
         NCelK=      1 NCelE2=     1 NClLst=     1 CellRange=     0.0.
 One-electron integrals computed using PRISM.
 One-electron integral symmetry used in STVInt
 NBasis=   260 RedAO= T EigKep=  1.73D-05  NBF=   260
 NBsUse=   260 1.00D-06 EigRej= -1.00D+00 NBFU=   260
 Precomputing XC quadrature grid using
 IXCGrd= 4 IRadAn=           5 IRanWt=          -1 IRanGd=           0 AccXCQ= 0.00D+00.
 Generated NRdTot=       0 NPtTot=           0 NUsed=           0 NTot=          32
 NSgBfM=   285   285   285   285   285 MxSgAt=    15 MxSgA2=    15.
 Leave Link  302 at Wed Mar 13 11:48:21 2019, MaxMem=   671088640 cpu:               5.8 elap:               0.3
 (Enter /shared/centos7/gaussian/g16/l303.exe)
 DipDrv:  MaxL=1.
 Leave Link  303 at Wed Mar 13 11:48:21 2019, MaxMem=   671088640 cpu:               0.6 elap:               0.1
 (Enter /shared/centos7/gaussian/g16/l401.exe)
 Initial guess from the checkpoint file:  "/scratch/underkoffler.c/gaussian_scratch/Gau-18058.chk"
 B after Tr=     0.000000   -0.000000   -0.000000
         Rot=    0.999992   -0.003868   -0.000404   -0.001307 Ang=  -0.47 deg.
 Guess basis will be translated and rotated to current coordinates.
 JPrj=2 DoOrth=T DoCkMO=T.
 Generating alternative initial guess.
 ExpMin= 4.38D-02 ExpMax= 8.59D+03 ExpMxC= 1.30D+03 IAcc=2 IRadAn=         4 AccDes= 0.00D+00
 Harris functional with IExCor= 1009 and IRadAn=       4 diagonalized for initial guess.
 HarFok:  IExCor= 1009 AccDes= 0.00D+00 IRadAn=         4 IDoV= 1 UseB2=F ITyADJ=14
 ICtDFT=  3500011 ScaDFX=  1.000000  1.000000  1.000000  1.000000
 FoFCou: FMM=F IPFlag=           0 FMFlag=      100000 FMFlg1=           0
         NFxFlg=           0 DoJE=T BraDBF=F KetDBF=T FulRan=T
         wScrn=  0.000000 ICntrl=       500 IOpCl=  0 I1Cent=   200000004 NGrid=           0
         NMat0=    1 NMatS0=      1 NMatT0=    0 NMatD0=    1 NMtDS0=    0 NMtDT0=    0
 Petite list used in FoFCou.
 Harris En= -233.601913589082    
 Leave Link  401 at Wed Mar 13 11:48:22 2019, MaxMem=   671088640 cpu:              13.0 elap:               0.7
 (Enter /shared/centos7/gaussian/g16/l502.exe)
 Integral symmetry usage will be decided dynamically.
 Closed shell SCF:
 Using DIIS extrapolation, IDIIS=  1040.
 NGot=   671088640 LenX=   670917793 LenY=   670836127
 Requested convergence on RMS density matrix=1.00D-08 within 128 cycles.
 Requested convergence on MAX density matrix=1.00D-06.
 Requested convergence on             energy=1.00D-06.
 No special actions if energy rises.
 Fock matrices will be formed incrementally for  20 cycles.

 Cycle   1  Pass 1  IDiag  1:
 FoFJK:  IHMeth= 1 ICntrl=       0 DoSepK=F KAlg= 0 I1Cent=           0 FoldK=F
 IRaf= 970000000 NMat=       1 IRICut=       1 DoRegI=T DoRafI=F ISym2E= 0 IDoP0=0 IntGTp=1.
 FoFCou: FMM=F IPFlag=           0 FMFlag=      100000 FMFlg1=           0
         NFxFlg=           0 DoJE=F BraDBF=F KetDBF=F FulRan=T
         wScrn=  0.000000 ICntrl=         0 IOpCl=  0 I1Cent=           0 NGrid=           0
         NMat0=    1 NMatS0=      1 NMatT0=    0 NMatD0=    1 NMtDS0=    0 NMtDT0=    0
 Symmetry not used in FoFCou.
 E= -233.630735863396    
 DIIS: error= 1.39D-03 at cycle   1 NSaved=   1.
 NSaved= 1 IEnMin= 1 EnMin= -233.630735863396     IErMin= 1 ErrMin= 1.39D-03
 ErrMax= 1.39D-03  0.00D+00 EMaxC= 1.00D-01 BMatC= 1.25D-03 BMatP= 1.25D-03
 IDIUse=3 WtCom= 9.86D-01 WtEn= 1.39D-02
 Coeff-Com:  0.100D+01
 Coeff-En:   0.100D+01
 Coeff:      0.100D+01
 Gap=     0.638 Goal=   None    Shift=    0.000
 GapD=    0.638 DampG=2.000 DampE=1.000 DampFc=2.0000 IDamp=-1.
 RMSDP=5.34D-04 MaxDP=4.32D-02              OVMax= 1.09D-02

 Cycle   2  Pass 1  IDiag  1:
 RMSU=  5.20D-04    CP:  1.01D+00
 E= -233.632025916360     Delta-E=       -0.001290052964 Rises=F Damp=F
 DIIS: error= 2.26D-04 at cycle   2 NSaved=   2.
 NSaved= 2 IEnMin= 2 EnMin= -233.632025916360     IErMin= 2 ErrMin= 2.26D-04
 ErrMax= 2.26D-04  0.00D+00 EMaxC= 1.00D-01 BMatC= 3.01D-05 BMatP= 1.25D-03
 IDIUse=3 WtCom= 9.98D-01 WtEn= 2.26D-03
 Coeff-Com: -0.108D+00 0.111D+01
 Coeff-En:   0.000D+00 0.100D+01
 Coeff:     -0.108D+00 0.111D+01
 Gap=     0.355 Goal=   None    Shift=    0.000
 RMSDP=7.47D-05 MaxDP=5.30D-03 DE=-1.29D-03 OVMax= 3.13D-03

 Cycle   3  Pass 1  IDiag  1:
 RMSU=  2.99D-05    CP:  1.02D+00  1.13D+00
 E= -233.632075606024     Delta-E=       -0.000049689664 Rises=F Damp=F
 DIIS: error= 9.18D-05 at cycle   3 NSaved=   3.
 NSaved= 3 IEnMin= 3 EnMin= -233.632075606024     IErMin= 3 ErrMin= 9.18D-05
 ErrMax= 9.18D-05  0.00D+00 EMaxC= 1.00D-01 BMatC= 4.21D-06 BMatP= 3.01D-05
 IDIUse=1 WtCom= 1.00D+00 WtEn= 0.00D+00
 Coeff-Com: -0.398D-01 0.276D+00 0.764D+00
 Coeff:     -0.398D-01 0.276D+00 0.764D+00
 Gap=     0.354 Goal=   None    Shift=    0.000
 RMSDP=1.79D-05 MaxDP=1.16D-03 DE=-4.97D-05 OVMax= 8.05D-04

 Cycle   4  Pass 1  IDiag  1:
 RMSU=  1.08D-05    CP:  1.02D+00  1.16D+00  1.02D+00
 E= -233.632079008536     Delta-E=       -0.000003402512 Rises=F Damp=F
 DIIS: error= 5.34D-05 at cycle   4 NSaved=   4.
 NSaved= 4 IEnMin= 4 EnMin= -233.632079008536     IErMin= 4 ErrMin= 5.34D-05
 ErrMax= 5.34D-05  0.00D+00 EMaxC= 1.00D-01 BMatC= 1.24D-06 BMatP= 4.21D-06
 IDIUse=1 WtCom= 1.00D+00 WtEn= 0.00D+00
 Coeff-Com: -0.244D-02-0.375D-01 0.332D+00 0.708D+00
 Coeff:     -0.244D-02-0.375D-01 0.332D+00 0.708D+00
 Gap=     0.354 Goal=   None    Shift=    0.000
 RMSDP=6.70D-06 MaxDP=3.79D-04 DE=-3.40D-06 OVMax= 3.84D-04

 Cycle   5  Pass 1  IDiag  1:
 RMSU=  5.06D-06    CP:  1.02D+00  1.15D+00  1.09D+00  8.37D-01
 E= -233.632080064370     Delta-E=       -0.000001055835 Rises=F Damp=F
[...]
           D13         62.21908  63.14774
           D14        -58.01519 -57.32294
           D15       -176.84011-176.09073
           D16       -175.77211-174.72294
           D17         63.99362  64.80639
           D18        -54.83131 -53.96140
           D19        -59.67304 -58.75143
           D20       -179.90731-179.22211
           D21         61.26776  62.01011
           D22         60.04976  60.06163
           D23       -179.80800-179.79585
           D24        -59.42419 -59.41070
           D25       -178.53547-178.51924
           D26        -58.39323 -58.37672
           D27         61.99058  62.00844
           D28        -61.46202 -61.43580
           D29         58.68022  58.70672
           D30        179.06403 179.09187
 Largest change from initial coordinates is atom    6       0.000 Angstoms.
 GradGradGradGradGradGradGradGradGradGradGradGradGradGradGradGradGradGrad

 Leave Link  103 at Wed Mar 13 12:37:42 2019, MaxMem=   671088640 cpu:               0.7 elap:               0.1
 (Enter /shared/centos7/gaussian/g16/l202.exe)
                          Input orientation:                          
 ---------------------------------------------------------------------
 Center     Atomic      Atomic             Coordinates (Angstroms)
 Number     Number       Type             X           Y           Z
 ---------------------------------------------------------------------
      1          8           0        1.890806   -0.711923   -0.325346
      2          6           0       -0.022646    0.694191   -0.271436
      3          6           0       -0.922722   -0.334600    0.403599
      4          6           0        1.434074    0.554833    0.120013
      5          6           0       -2.380779   -0.186060   -0.013811
      6          1           0       -0.835362   -0.227819    1.488478
      7          1           0       -0.562161   -1.334134    0.159035
      8          1           0       -0.356772    1.703635   -0.016466
      9          1           0       -0.101005    0.596104   -1.357458
     10          1           0        1.533268    0.636450    1.208696
     11          1           0        2.023582    1.356509   -0.335545
     12          1           0       -2.489446   -0.315964   -1.091457
     13          1           0       -3.015455   -0.923173    0.476650
     14          1           0       -2.761153    0.804933    0.239208
     15          1           0        2.806550   -0.828520   -0.069180
 ---------------------------------------------------------------------
                    Distance matrix (angstroms):
                    1          2          3          4          5
     1  O    0.000000
     2  C    2.375155   0.000000
     3  C    2.930814   1.524539   0.000000
     4  C    1.418316   1.514822   2.534956   0.000000
     5  C    4.315093   2.530218   1.523885   3.888437   0.000000
     6  H    3.310030   2.146602   1.093616   2.763255   2.155674
     7  H    2.576590   2.142541   1.090359   2.748576   2.157620
     8  H    3.313901   1.093448   2.156654   2.132019   2.769036
     9  H    2.596825   1.093254   2.154704   2.130984   2.759445
    10  H    2.073457   2.148253   2.760979   1.096234   4.182202
    11  H    2.072714   2.151702   3.476621   1.094411   4.677759
    12  H    4.464338   2.788898   2.165678   4.197613   1.090873
    13  H    4.975863   3.483160   2.175151   4.702127   1.089358
    14  H    4.925474   2.787910   2.169190   4.204365   1.091224
    15  H    0.958020   3.219302   3.791431   1.957843   5.227256
                    6          7          8          9         10
     6  H    0.000000
     7  H    1.750996   0.000000
     8  H    2.494878   3.049758   0.000000
     9  H    3.052454   2.497645   1.757925   0.000000
    10  H    2.536857   3.061994   2.492421   3.042634   0.000000
    11  H    3.743088   3.764337   2.426601   2.477174   1.773012
    12  H    3.065914   2.512932   3.127729   2.570462   4.730753
    13  H    2.502023   2.507672   3.769864   3.763797   4.864072
    14  H    2.517126   3.068811   2.579550   3.109555   4.405717
    15  H    4.006327   3.414079   4.052307   3.484693   2.323865
                   11         12         13         14         15
    11  H    0.000000
    12  H    4.871960   0.000000
    13  H    5.590036   1.761916   0.000000
    14  H    4.850594   1.760939   1.762782   0.000000
    15  H    2.336309   5.418056   5.848301   5.810558   0.000000
 Stoichiometry    C4H10O
 Framework group  C1[X(C4H10O)]
 Deg. of freedom    39
 Full point group                 C1      NOp   1
 RotChk:  IX=0 Diff= 9.70D-16
 Largest Abelian subgroup         C1      NOp   1
 Largest concise Abelian subgroup C1      NOp   1
                         Standard orientation:                         
 ---------------------------------------------------------------------
 Center     Atomic      Atomic             Coordinates (Angstroms)
 Number     Number       Type             X           Y           Z
 ---------------------------------------------------------------------
      1          8           0        1.893063   -0.731067   -0.256764
      2          6           0        0.000228    0.703347   -0.225263
      3          6           0       -0.947626   -0.342537    0.350859
      4          6           0        1.433269    0.519272    0.229924
      5          6           0       -2.380565   -0.147957   -0.129818
      6          1           0       -0.913230   -0.292215    1.442775
      7          1           0       -0.590008   -1.334516    0.073424
      8          1           0       -0.331367    1.704241    0.064365
      9          1           0       -0.024994    0.661610   -1.317430
     10          1           0        1.478922    0.544068    1.324926
     11          1           0        2.056626    1.332639   -0.154258
     12          1           0       -2.436941   -0.221367   -1.216757
     13          1           0       -3.049827   -0.897838    0.290262
     14          1           0       -2.758517    0.835408    0.154636
     15          1           0        2.792989   -0.876243    0.037956
 ---------------------------------------------------------------------
 Rotational constants (GHZ):          12.5696224           2.4012897           2.2135981
 Leave Link  202 at Wed Mar 13 12:37:42 2019, MaxMem=   671088640 cpu:               0.1 elap:               0.0
 (Enter /shared/centos7/gaussian/g16/l601.exe)
 Copying SCF densities to generalized density rwf, IOpCl= 0 IROHF=0.

 **********************************************************************

            Population analysis using the SCF density.

 **********************************************************************

 Orbital symmetries:
       Occupied  (A) (A) (A) (A) (A) (A) (A) (A) (A) (A) (A) (A)
                 (A) (A) (A) (A) (A) (A) (A) (A) (A)
       Virtual   (A) (A) (A) (A) (A) (A) (A) (A) (A) (A) (A) (A)
                 (A) (A) (A) (A) (A) (A) (A) (A) (A) (A) (A) (A)
                 (A) (A) (A) (A) (A) (A) (A) (A) (A) (A) (A) (A)
                 (A) (A) (A) (A) (A) (A) (A) (A) (A) (A) (A) (A)
                 (A) (A) (A) (A) (A) (A) (A) (A) (A) (A) (A) (A)
                 (A) (A) (A) (A) (A) (A) (A) (A) (A) (A) (A) (A)
                 (A) (A) (A) (A) (A) (A) (A) (A) (A) (A) (A) (A)
                 (A) (A) (A) (A) (A) (A) (A) (A) (A) (A) (A) (A)
                 (A) (A) (A) (A) (A) (A) (A) (A) (A) (A) (A) (A)
                 (A) (A) (A) (A) (A) (A) (A) (A) (A) (A) (A) (A)
                 (A) (A) (A) (A) (A) (A) (A) (A) (A) (A) (A) (A)
                 (A) (A) (A) (A) (A) (A) (A) (A) (A) (A) (A) (A)
                 (A) (A) (A) (A) (A) (A) (A) (A) (A) (A) (A) (A)
                 (A) (A) (A) (A) (A) (A) (A) (A) (A) (A) (A) (A)
                 (A) (A) (A) (A) (A) (A) (A) (A) (A) (A) (A) (A)
                 (A) (A) (A) (A) (A) (A) (A) (A) (A) (A) (A) (A)
                 (A) (A) (A) (A) (A) (A) (A) (A) (A) (A) (A) (A)
                 (A) (A) (A) (A) (A) (A) (A) (A) (A) (A) (A) (A)
                 (A) (A) (A) (A) (A) (A) (A) (A) (A) (A) (A) (A)
                 (A) (A) (A) (A) (A) (A) (A) (A) (A) (A) (A)
 The electronic state is 1-A.
 Alpha  occ. eigenvalues --  -19.61954 -10.57862 -10.52543 -10.52137 -10.51630
 Alpha  occ. eigenvalues --   -1.14355  -0.89185  -0.81400  -0.71335  -0.65698
 Alpha  occ. eigenvalues --   -0.59980  -0.53704  -0.51383  -0.50074  -0.45569
 Alpha  occ. eigenvalues --   -0.44163  -0.42681  -0.39546  -0.38468  -0.37870
 Alpha  occ. eigenvalues --   -0.34703
 Alpha virt. eigenvalues --    0.01274   0.02685   0.03452   0.03992   0.05675
 Alpha virt. eigenvalues --    0.06156   0.06632   0.08093   0.08657   0.09167
 Alpha virt. eigenvalues --    0.10242   0.10964   0.13184   0.15203   0.16368
 Alpha virt. eigenvalues --    0.17754   0.18636   0.19794   0.21055   0.21180
 Alpha virt. eigenvalues --    0.22301   0.23121   0.23797   0.25008   0.25954
 Alpha virt. eigenvalues --    0.26991   0.27645   0.28553   0.29209   0.30371
 Alpha virt. eigenvalues --    0.31131   0.31736   0.34215   0.37551   0.42445
 Alpha virt. eigenvalues --    0.43296   0.45419   0.46203   0.47550   0.49585
 Alpha virt. eigenvalues --    0.52715   0.53556   0.55064   0.56331   0.57324
 Alpha virt. eigenvalues --    0.58053   0.59182   0.60465   0.61775   0.62711
 Alpha virt. eigenvalues --    0.63211   0.64876   0.65147   0.66076   0.68244
 Alpha virt. eigenvalues --    0.69636   0.70417   0.72206   0.74834   0.78525
 Alpha virt. eigenvalues --    0.80962   0.82296   0.83568   0.85636   0.88094
 Alpha virt. eigenvalues --    0.88920   0.92745   0.94400   0.96356   1.01268
 Alpha virt. eigenvalues --    1.04455   1.04780   1.06578   1.10183   1.12046
 Alpha virt. eigenvalues --    1.13349   1.14067   1.17251   1.18219   1.18944
 Alpha virt. eigenvalues --    1.19446   1.20805   1.22239   1.24428   1.25508
 Alpha virt. eigenvalues --    1.26662   1.27743   1.29771   1.31103   1.32222
 Alpha virt. eigenvalues --    1.35993   1.37887   1.39778   1.40993   1.42279
 Alpha virt. eigenvalues --    1.44007   1.44930   1.46300   1.47183   1.48827
 Alpha virt. eigenvalues --    1.49349   1.54063   1.54932   1.56659   1.58575
 Alpha virt. eigenvalues --    1.60213   1.61860   1.63030   1.64298   1.65863
 Alpha virt. eigenvalues --    1.68971   1.69962   1.74424   1.85143   1.91328
 Alpha virt. eigenvalues --    2.09848   2.13045   2.27765   2.35050   2.41343
 Alpha virt. eigenvalues --    2.47817   2.50426   2.51992   2.55988   2.58028
 Alpha virt. eigenvalues --    2.63278   2.67323   2.75837   2.76974   2.79094
 Alpha virt. eigenvalues --    2.81363   2.84172   2.85744   2.89573   2.91533
 Alpha virt. eigenvalues --    2.94324   2.95906   2.99489   3.04363   3.04543
 Alpha virt. eigenvalues --    3.09337   3.14335   3.15428   3.16713   3.17899
 Alpha virt. eigenvalues --    3.22629   3.24144   3.26574   3.27876   3.32352
 Alpha virt. eigenvalues --    3.35166   3.36086   3.38981   3.39180   3.40355
 Alpha virt. eigenvalues --    3.45559   3.46837   3.52666   3.54032   3.56888
 Alpha virt. eigenvalues --    3.58848   3.59784   3.61616   3.62901   3.66203
 Alpha virt. eigenvalues --    3.70606   3.70884   3.72335   3.76064   3.78034
 Alpha virt. eigenvalues --    3.79663   3.84662   3.87981   3.89141   3.92672
 Alpha virt. eigenvalues --    3.97128   3.99287   4.01223   4.02395   4.03138
 Alpha virt. eigenvalues --    4.04989   4.08509   4.09830   4.14732   4.15721
 Alpha virt. eigenvalues --    4.19466   4.21041   4.23113   4.24523   4.25929
 Alpha virt. eigenvalues --    4.28395   4.30017   4.32079   4.33141   4.36583
 Alpha virt. eigenvalues --    4.39773   4.44007   4.44676   4.48116   4.53436
 Alpha virt. eigenvalues --    4.53894   4.56102   4.57386   4.60573   4.63916
 Alpha virt. eigenvalues --    4.65797   4.68274   4.79833   4.80780   5.02490
 Alpha virt. eigenvalues --    5.20085   5.21327   5.23316   5.28018   5.36291
 Alpha virt. eigenvalues --    5.41983   5.47052   5.49685   5.53874   5.54656
 Alpha virt. eigenvalues --    5.59699   5.60261   5.65811   5.67629   5.70066
 Alpha virt. eigenvalues --    5.84836   5.94501   6.49656   6.98560   7.17306
 Alpha virt. eigenvalues --    7.21315   7.24422   7.55750   7.65319  24.28236
 Alpha virt. eigenvalues --   24.39454  24.44804  24.51538  50.15262
          Condensed to atoms (all electrons):
               1          2          3          4          5          6
     1  O    8.154749  -0.082804  -0.003227   0.152117  -0.000344  -0.001204
     2  C   -0.082804   5.714036  -0.220788  -0.006862   0.169047  -0.031124
     3  C   -0.003227  -0.220788   5.519437   0.160644   0.019582   0.428808
     4  C    0.152117  -0.006862   0.160644   5.255290  -0.108001  -0.014823
     5  C   -0.000344   0.169047   0.019582  -0.108001   5.293550  -0.029351
     6  H   -0.001204  -0.031124   0.428808  -0.014823  -0.029351   0.539050
     7  H   -0.006105  -0.062452   0.476636   0.010993  -0.057089  -0.034050
     8  H    0.008923   0.395692  -0.004778  -0.016091  -0.018170  -0.007512
     9  H   -0.009783   0.496847  -0.084546  -0.062188   0.007465   0.005177
    10  H   -0.049872   0.005823  -0.047051   0.433367   0.006482   0.002772
    11  H   -0.043773  -0.074495   0.023283   0.465229  -0.000643   0.000098
    12  H   -0.000285  -0.010315  -0.032728  -0.003551   0.420470   0.006229
    13  H    0.000094   0.020710  -0.048029   0.002471   0.409593  -0.004587
    14  H   -0.000107  -0.031969   0.006833   0.003035   0.393396  -0.008286
    15  H    0.231110  -0.030529   0.008464   0.027529  -0.001822  -0.000104
               7          8          9         10         11         12
     1  O   -0.006105   0.008923  -0.009783  -0.049872  -0.043773  -0.000285
     2  C   -0.062452   0.395692   0.496847   0.005823  -0.074495  -0.010315
     3  C    0.476636  -0.004778  -0.084546  -0.047051   0.023283  -0.032728
     4  C    0.010993  -0.016091  -0.062188   0.433367   0.465229  -0.003551
     5  C   -0.057089  -0.018170   0.007465   0.006482  -0.000643   0.420470
     6  H   -0.034050  -0.007512   0.005177   0.002772   0.000098   0.006229
     7  H    0.494735   0.004370  -0.003513   0.001203  -0.000808  -0.006807
     8  H    0.004370   0.518164  -0.028890  -0.005031  -0.003305  -0.000582
     9  H   -0.003513  -0.028890   0.489934   0.006029  -0.006741   0.001345
    10  H    0.001203  -0.005031   0.006029   0.561166  -0.046480  -0.000014
    11  H   -0.000808  -0.003305  -0.006741  -0.046480   0.556401  -0.000004
    12  H   -0.006807  -0.000582   0.001345  -0.000014  -0.000004   0.551080
    13  H   -0.004634  -0.000009  -0.000089  -0.000024   0.000015  -0.024344
    14  H    0.006008   0.002526  -0.000430  -0.000014  -0.000039  -0.038815
    15  H   -0.000015  -0.000280   0.000233  -0.007005  -0.005091  -0.000003
              13         14         15
     1  O    0.000094  -0.000107   0.231110
     2  C    0.020710  -0.031969  -0.030529
     3  C   -0.048029   0.006833   0.008464
     4  C    0.002471   0.003035   0.027529
     5  C    0.409593   0.393396  -0.001822
     6  H   -0.004587  -0.008286  -0.000104
     7  H   -0.004634   0.006008  -0.000015
     8  H   -0.000009   0.002526  -0.000280
     9  H   -0.000089  -0.000430   0.000233
    10  H   -0.000024  -0.000014  -0.007005
    11  H    0.000015  -0.000039  -0.005091
    12  H   -0.024344  -0.038815  -0.000003
    13  H    0.540372  -0.025620  -0.000001
    14  H   -0.025620   0.561267   0.000004
    15  H   -0.000001   0.000004   0.525517
 Mulliken charges:
               1
     1  O   -0.349487
     2  C   -0.250818
     3  C   -0.202541
     4  C   -0.299161
     5  C   -0.504164
     6  H    0.148907
     7  H    0.181528
     8  H    0.154972
     9  H    0.189149
    10  H    0.138649
    11  H    0.136353
    12  H    0.138325
    13  H    0.134083
    14  H    0.132212
    15  H    0.251992
 Sum of Mulliken charges =  -0.00000
 Mulliken charges with hydrogens summed into heavy atoms:
               1
     1  O   -0.097495
     2  C    0.093304
     3  C    0.127894
     4  C   -0.024159
     5  C   -0.099544
 Electronic spatial extent (au):  <R**2>=            597.8557
 Charge=              0.0000 electrons
 Dipole moment (field-independent basis, Debye):
    X=              0.8779    Y=              0.9003    Z=              0.8864  Tot=              1.5385
 Quadrupole moment (field-independent basis, Debye-Ang):
   XX=            -28.9056   YY=            -34.0762   ZZ=            -33.9859
   XY=              0.4391   XZ=              1.8052   YZ=             -0.5454
 Traceless Quadrupole moment (field-independent basis, Debye-Ang):
   XX=              3.4170   YY=             -1.7536   ZZ=             -1.6634
   XY=              0.4391   XZ=              1.8052   YZ=             -0.5454
 Octapole moment (field-independent basis, Debye-Ang**2):
  XXX=             34.0089  YYY=             -2.0658  ZZZ=             -0.4026  XYY=              3.1540
  XXY=             -5.2663  XXZ=              4.4598  XZZ=              1.9378  YZZ=             -0.4956
  YYZ=              0.4617  XYZ=             -1.7692
 Hexadecapole moment (field-independent basis, Debye-Ang**3):
 XXXX=           -526.0753 YYYY=           -124.4815 ZZZZ=            -76.5982 XXXY=            -23.5331
 XXXZ=              4.0258 YYYX=             -6.8957 YYYZ=              1.1713 ZZZX=              1.5972
 ZZZY=              0.2621 XXYY=           -112.6055 XXZZ=           -115.4917 YYZZ=            -36.0675
 XXYZ=             -3.8729 YYXZ=             -1.5416 ZZXY=             -0.5587
 N-N= 1.887549486300D+02 E-N=-9.220709762475D+02  KE= 2.327042486609D+02
 No NMR shielding tensors so no spin-rotation constants.
 Leave Link  601 at Wed Mar 13 12:37:42 2019, MaxMem=   671088640 cpu:               4.8 elap:               0.3
 (Enter /shared/centos7/gaussian/g16/l9999.exe)
 1\1\GINC-C0169\Scan\RM062X\6-311+G(2df,2p)\C4H10O1\UNDERKOFFLER.C\13-M
 ar-2019\0\\#p m062x/6-311+g(2df,2p) Opt=(CalcFC,ModRedun)\\Gaussian In
 put Prepared from Scan Object\\0,1\O,1.8908057558,-0.7119231581,-0.325
 3457365\C,-0.0226459761,0.6941906908,-0.2714356068\C,-0.9227222566,-0.
 3345998009,0.4035989995\C,1.4340740641,0.5548334207,0.1200134227\C,-2.
 3807794313,-0.1860601024,-0.0138113748\H,-0.835361555,-0.2278185147,1.
 4884776399\H,-0.5621605382,-1.3341335271,0.159035471\H,-0.3567723295,1
 .7036354039,-0.0164660958\H,-0.1010053154,0.5961038699,-1.3574577912\H
 ,1.5332683377,0.6364497483,1.2086956149\H,2.0235818657,1.3565087556,-0
 .33554508\H,-2.4894459281,-0.3159643976,-1.091457161\H,-3.0154546282,-
 0.9231729037,0.4766503779\H,-2.7611526651,0.8049333849,0.2392077809\H,
 2.8065496002,-0.8285198694,-0.0691804608\\Version=EM64L-G16RevA.03\Sta
 te=1-A\HF=-233.6332366,-233.633142,-233.6328864,-233.6325358,-233.6321
 8,-233.631913,-233.6318089,-233.6318948,-233.6321434,-233.6324814,-233
 .6327991,-233.633,-233.6330079,-233.6327971,-233.6323954,-233.6318814,
 -233.6313792,-233.6310318,-233.630945,-233.6311455,-233.6315641,-233.6
 320813,-233.632563,-233.6329035,-233.6330405,-233.6329548,-233.6326806
 ,-233.6322996,-233.6319222,-233.6316634,-233.6315949,-233.6317462,-233
 .6320737,-233.6324849,-233.6328718,-233.6331416,-233.6332366\RMSD=8.76
 8e-09,7.935e-09,9.814e-09,5.609e-09,3.956e-09,2.948e-09,4.270e-09,2.76
 7e-09,3.791e-09,2.925e-09,4.094e-09,3.939e-09,4.217e-09,8.568e-09,1.49
 1e-09,5.127e-09,5.233e-09,2.575e-09,5.787e-09,5.907e-09,7.950e-09,5.02
 3e-09,5.657e-09,6.845e-09,8.973e-09,7.577e-09,7.691e-09,6.404e-09,6.01
 0e-09,8.293e-09,5.763e-09,7.118e-09,7.377e-09,4.728e-09,5.399e-09,5.77
 8e-09,5.140e-09\PG=C01 [X(C4H10O1)]\\@


 CURIOUSER AND CURIOUSER

                  -- ALICE, IN WONDERLAND
 Job cpu time:       0 days 17 hours 21 minutes 29.8 seconds.
 Elapsed time:       0 days  0 hours 52 minutes 41.5 seconds.
 File lengths (MBytes):  RWF=   1328 Int=      0 D2E=      0 Chk=     32 Scr=     32
 Normal termination of Gaussian 16 at Wed Mar 13 12:37:42 2019.
