 Entering Gaussian System, Link 0=g16
 Input=LRHPLDYGYMQRHN-UHFFFAOYSA-N_12by30.0_tor13_a2.com
 Output=LRHPLDYGYMQRHN-UHFFFAOYSA-N_12by30.0_tor13_a2.log
 Initial command:
 /shared/centos7/gaussian/g16/l1.exe "/scratch/underkoffler.c/gaussian_scratch/Gau-13858.inp" -scrdir="/scratch/underkoffler.c/gaussian_scratch/"
 Entering Link 1 = /shared/centos7/gaussian/g16/l1.exe PID=     13859.
  
 Copyright (c) 1988,1990,1992,1993,1995,1998,2003,2009,2016,
            Gaussian, Inc.  All Rights Reserved.
  
 This is part of the Gaussian(R) 16 program.  It is based on
 the Gaussian(R) 09 system (copyright 2009, Gaussian, Inc.),
 the Gaussian(R) 03 system (copyright 2003, Gaussian, Inc.),
 the Gaussian(R) 98 system (copyright 1998, Gaussian, Inc.),
 the Gaussian(R) 94 system (copyright 1995, Gaussian, Inc.),
 the Gaussian 92(TM) system (copyright 1992, Gaussian, Inc.),
 the Gaussian 90(TM) system (copyright 1990, Gaussian, Inc.),
 the Gaussian 88(TM) system (copyright 1988, Gaussian, Inc.),
 the Gaussian 86(TM) system (copyright 1986, Carnegie Mellon
 University), and the Gaussian 82(TM) system (copyright 1983,
 Carnegie Mellon University). Gaussian is a federally registered
 trademark of Gaussian, Inc.
  
 This software contains proprietary and confidential information,
 including trade secrets, belonging to Gaussian, Inc.
  
 This software is provided under written license and may be
 used, copied, transmitted, or stored only in accord with that
 written license.
  
 The following legend is applicable only to US Government
 contracts under FAR:
  
                    RESTRICTED RIGHTS LEGEND
  
 Use, reproduction and disclosure by the US Government is
 subject to restrictions as set forth in subparagraphs (a)
 and (c) of the Commercial Computer Software - Restricted
 Rights clause in FAR 52.227-19.
  
 Gaussian, Inc.
 340 Quinnipiac St., Bldg. 40, Wallingford CT 06492
  
  
 ---------------------------------------------------------------
 Warning -- This program may not be used in any manner that
 competes with the business of Gaussian, Inc. or will provide
 assistance to any competitor of Gaussian, Inc.  The licensee
 of this program is prohibited from giving any competitor of
 Gaussian, Inc. access to this program.  By using this program,
 the user acknowledges that Gaussian, Inc. is engaged in the
 business of creating and licensing software in the field of
 computational chemistry and represents and warrants to the
 licensee that it is not a competitor of Gaussian, Inc. and that
 it will not use this program in any manner prohibited above.
 ---------------------------------------------------------------
  

 Cite this work as:
 Gaussian 16, Revision A.03,
 M. J. Frisch, G. W. Trucks, H. B. Schlegel, G. E. Scuseria, 
 M. A. Robb, J. R. Cheeseman, G. Scalmani, V. Barone, 
 G. A. Petersson, H. Nakatsuji, X. Li, M. Caricato, A. V. Marenich, 
 J. Bloino, B. G. Janesko, R. Gomperts, B. Mennucci, H. P. Hratchian, 
 J. V. Ortiz, A. F. Izmaylov, J. L. Sonnenberg, D. Williams-Young, 
 F. Ding, F. Lipparini, F. Egidi, J. Goings, B. Peng, A. Petrone, 
 T. Henderson, D. Ranasinghe, V. G. Zakrzewski, J. Gao, N. Rega, 
 G. Zheng, W. Liang, M. Hada, M. Ehara, K. Toyota, R. Fukuda, 
 J. Hasegawa, M. Ishida, T. Nakajima, Y. Honda, O. Kitao, H. Nakai, 
 T. Vreven, K. Throssell, J. A. Montgomery, Jr., J. E. Peralta, 
 F. Ogliaro, M. J. Bearpark, J. J. Heyd, E. N. Brothers, K. N. Kudin, 
 V. N. Staroverov, T. A. Keith, R. Kobayashi, J. Normand, 
 K. Raghavachari, A. P. Rendell, J. C. Burant, S. S. Iyengar, 
 J. Tomasi, M. Cossi, J. M. Millam, M. Klene, C. Adamo, R. Cammi, 
 J. W. Ochterski, R. L. Martin, K. Morokuma, O. Farkas, 
 J. B. Foresman, and D. J. Fox, Gaussian, Inc., Wallingford CT, 2016.
 
 ******************************************
 Gaussian 16:  EM64L-G16RevA.03 25-Dec-2016
                28-Mar-2019 
 ******************************************
 %nprocshared=20
 Will use up to   20 processors via shared memory.
 %mem=5GB
 ----------------------------------------------
 #p m062x/6-311+g(2df,2p) Opt=(CalcFC,ModRedun)
 ----------------------------------------------
 1/10=4,18=120,19=15,26=3,38=1/1,3;
 2/9=110,12=2,17=6,18=5,40=1/2;
 3/5=4,6=6,7=214,11=2,25=1,30=1,71=2,74=-55,140=1/1,2,3;
 4//1;
 5/5=2,38=5/2;
 8/6=4,10=90,11=11/1;
 11/6=1,8=1,9=11,15=111,16=1/1,2,10;
 10/6=1,13=1/2;
 6/7=2,8=2,9=2,10=2,28=1/1;
 7/10=1,18=20,25=1/1,2,3,16;
 1/10=4,18=20,19=15,26=3/3(2);
 2/9=110/2;
 99//99;
 2/9=110/2;
 3/5=4,6=6,7=214,11=2,25=1,30=1,71=1,74=-55/1,2,3;
 4/5=5,16=3,69=1/1;
 5/5=2,38=5/2;
 7//1,2,3,16;
 1/18=20,19=15,26=3/3(-5);
 2/9=110/2;
 6/7=2,8=2,9=2,10=2,19=2,28=1/1;
 99/9=1/99;
 Leave Link    1 at Thu Mar 28 22:43:24 2019, MaxMem=   671088640 cpu:              17.6 elap:               0.9
 (Enter /shared/centos7/gaussian/g16/l101.exe)
 ----------------------------------------
 Gaussian Input Prepared from Scan Object
 ----------------------------------------
 Symbolic Z-matrix:
 Charge =  0 Multiplicity = 1
 O                     1.89471  -0.72534  -0.26845 
 C                    -0.00012   0.70613  -0.22812 
 C                    -0.94499  -0.34222   0.34844 
 C                     1.43443   0.52307   0.2228 
 C                    -2.37941  -0.14882  -0.12828 
 H                    -0.90793  -0.29387   1.44035 
 H                    -0.58665  -1.33316   0.0682 
 H                    -0.33226   1.70597   0.06448 
 H                    -0.02824   0.66658  -1.3203 
 H                     1.48303   0.54525   1.31774 
 H                     2.05554   1.33833  -0.16099 
 H                    -2.43843  -0.22048  -1.21519 
 H                    -3.04657  -0.90033   0.29223 
 H                    -2.75799   0.83354   0.15879 
 H                     2.79567  -0.87018   0.02327 
 
 The following ModRedundant input section has been read:
 B       2       8 B                                                           
 B       1       4 B                                                           
 B       2       9 B                                                           
 B       5      12 B                                                           
 B       4      10 B                                                           
 B       5      13 B                                                           
 B       3       5 B                                                           
 B       4      11 B                                                           
 B       5      14 B                                                           
 B       1      15 B                                                           
 B       3       6 B                                                           
 B       2       3 B                                                           
 B       3       7 B                                                           
 B       2       4 B                                                           
 D       3       2       4      10 S  12 30.000                                
 
 ITRead=  0  0  0  0  0  0  0  0  0  0  0  0  0  0  0
 MicOpt= -1 -1 -1 -1 -1 -1 -1 -1 -1 -1 -1 -1 -1 -1 -1
 NAtoms=     15 NQM=       15 NQMF=       0 NMMI=      0 NMMIF=      0
                NMic=       0 NMicF=      0.
                    Isotopes and Nuclear Properties:
 (Nuclear quadrupole moments (NQMom) in fm**2, nuclear magnetic moments (NMagM)
  in nuclear magnetons)

  Atom         1           2           3           4           5           6           7           8           9          10
 IAtWgt=          16          12          12          12          12           1           1           1           1           1
 AtmWgt=  15.9949146  12.0000000  12.0000000  12.0000000  12.0000000   1.0078250   1.0078250   1.0078250   1.0078250   1.0078250
 NucSpn=           0           0           0           0           0           1           1           1           1           1
 AtZEff=  -0.0000000  -0.0000000  -0.0000000  -0.0000000  -0.0000000  -0.0000000  -0.0000000  -0.0000000  -0.0000000  -0.0000000
 NQMom=    0.0000000   0.0000000   0.0000000   0.0000000   0.0000000   0.0000000   0.0000000   0.0000000   0.0000000   0.0000000
 NMagM=    0.0000000   0.0000000   0.0000000   0.0000000   0.0000000   2.7928460   2.7928460   2.7928460   2.7928460   2.7928460
 AtZNuc=   8.0000000   6.0000000   6.0000000   6.0000000   6.0000000   1.0000000   1.0000000   1.0000000   1.0000000   1.0000000

  Atom        11          12          13          14          15
 IAtWgt=           1           1           1           1           1
 AtmWgt=   1.0078250   1.0078250   1.0078250   1.0078250   1.0078250
 NucSpn=           1           1           1           1           1
 AtZEff=  -0.0000000  -0.0000000  -0.0000000  -0.0000000  -0.0000000
 NQMom=    0.0000000   0.0000000   0.0000000   0.0000000   0.0000000
 NMagM=    2.7928460   2.7928460   2.7928460   2.7928460   2.7928460
 AtZNuc=   1.0000000   1.0000000   1.0000000   1.0000000   1.0000000
 Leave Link  101 at Thu Mar 28 22:43:24 2019, MaxMem=   671088640 cpu:               5.5 elap:               0.3
 (Enter /shared/centos7/gaussian/g16/l103.exe)

 GradGradGradGradGradGradGradGradGradGradGradGradGradGradGradGradGradGrad
 Berny optimization.
 Initialization pass.
                           ----------------------------
                           !    Initial Parameters    !
                           ! (Angstroms and Degrees)  !
 --------------------------                            --------------------------
 ! Name  Definition              Value          Derivative Info.                !
 --------------------------------------------------------------------------------
 ! R1    R(1,4)                  1.4183         calculate D2E/DX2 analytically  !
 ! R2    R(1,15)                 0.958          calculate D2E/DX2 analytically  !
 ! R3    R(2,3)                  1.5245         calculate D2E/DX2 analytically  !
 ! R4    R(2,4)                  1.5149         calculate D2E/DX2 analytically  !
 ! R5    R(2,8)                  1.0934         calculate D2E/DX2 analytically  !
 ! R6    R(2,9)                  1.0933         calculate D2E/DX2 analytically  !
 ! R7    R(3,5)                  1.5239         calculate D2E/DX2 analytically  !
 ! R8    R(3,6)                  1.0936         calculate D2E/DX2 analytically  !
 ! R9    R(3,7)                  1.0904         calculate D2E/DX2 analytically  !
 ! R10   R(4,10)                 1.0962         calculate D2E/DX2 analytically  !
 ! R11   R(4,11)                 1.0944         calculate D2E/DX2 analytically  !
 ! R12   R(5,12)                 1.0909         calculate D2E/DX2 analytically  !
 ! R13   R(5,13)                 1.0894         calculate D2E/DX2 analytically  !
 ! R14   R(5,14)                 1.0912         calculate D2E/DX2 analytically  !
 ! A1    A(4,1,15)             109.4386         calculate D2E/DX2 analytically  !
 ! A2    A(3,2,4)              113.032          calculate D2E/DX2 analytically  !
 ! A3    A(3,2,8)              109.8357         calculate D2E/DX2 analytically  !
 ! A4    A(3,2,9)              109.6941         calculate D2E/DX2 analytically  !
 ! A5    A(4,2,8)              108.5721         calculate D2E/DX2 analytically  !
 ! A6    A(4,2,9)              108.5032         calculate D2E/DX2 analytically  !
 ! A7    A(8,2,9)              107.0136         calculate D2E/DX2 analytically  !
 ! A8    A(2,3,5)              112.1981         calculate D2E/DX2 analytically  !
 ! A9    A(2,3,6)              109.038          calculate D2E/DX2 analytically  !
 ! A10   A(2,3,7)              108.9089         calculate D2E/DX2 analytically  !
 ! A11   A(5,3,6)              109.7935         calculate D2E/DX2 analytically  !
 ! A12   A(5,3,7)              110.1379         calculate D2E/DX2 analytically  !
 ! A13   A(6,3,7)              106.5979         calculate D2E/DX2 analytically  !
 ! A14   A(1,4,2)              108.0944         calculate D2E/DX2 analytically  !
 ! A15   A(1,4,10)             110.4487         calculate D2E/DX2 analytically  !
 ! A16   A(1,4,11)             110.4904         calculate D2E/DX2 analytically  !
 ! A17   A(2,4,10)             109.6852         calculate D2E/DX2 analytically  !
 ! A18   A(2,4,11)             110.0622         calculate D2E/DX2 analytically  !
 ! A19   A(10,4,11)            108.0607         calculate D2E/DX2 analytically  !
 ! A20   A(3,5,12)             110.7497         calculate D2E/DX2 analytically  !
 ! A21   A(3,5,13)             111.6028         calculate D2E/DX2 analytically  !
 ! A22   A(3,5,14)             111.0093         calculate D2E/DX2 analytically  !
 ! A23   A(12,5,13)            107.8282         calculate D2E/DX2 analytically  !
 ! A24   A(12,5,14)            107.6069         calculate D2E/DX2 analytically  !
 ! A25   A(13,5,14)            107.8796         calculate D2E/DX2 analytically  !
 ! D1    D(15,1,4,2)          -178.7026         calculate D2E/DX2 analytically  !
 ! D2    D(15,1,4,10)          -58.6998         calculate D2E/DX2 analytically  !
 ! D3    D(15,1,4,11)           60.8091         calculate D2E/DX2 analytically  !
 ! D4    D(4,2,3,5)           -179.4202         calculate D2E/DX2 analytically  !
 ! D5    D(4,2,3,6)             58.7291         calculate D2E/DX2 analytically  !
 ! D6    D(4,2,3,7)            -57.2233         calculate D2E/DX2 analytically  !
 ! D7    D(8,2,3,5)             59.1622         calculate D2E/DX2 analytically  !
 ! D8    D(8,2,3,6)            -62.6886         calculate D2E/DX2 analytically  !
 ! D9    D(8,2,3,7)           -178.6409         calculate D2E/DX2 analytically  !
 ! D10   D(9,2,3,5)            -58.1924         calculate D2E/DX2 analytically  !
 ! D11   D(9,2,3,6)            179.9569         calculate D2E/DX2 analytically  !
 ! D12   D(9,2,3,7)             64.0045         calculate D2E/DX2 analytically  !
 ! D13   D(3,2,4,1)             63.1821         calculate D2E/DX2 analytically  !
 ! D14   D(3,2,4,10)           -57.299          Scan                            !
 ! D15   D(3,2,4,11)          -176.0623         calculate D2E/DX2 analytically  !
 ! D16   D(8,2,4,1)           -174.6897         calculate D2E/DX2 analytically  !
 ! D17   D(8,2,4,10)            64.8292         calculate D2E/DX2 analytically  !
 ! D18   D(8,2,4,11)           -53.934          calculate D2E/DX2 analytically  !
 ! D19   D(9,2,4,1)            -58.717          calculate D2E/DX2 analytically  !
 ! D20   D(9,2,4,10)          -179.1981         calculate D2E/DX2 analytically  !
 ! D21   D(9,2,4,11)            62.0387         calculate D2E/DX2 analytically  !
 ! D22   D(2,3,5,12)            60.0729         calculate D2E/DX2 analytically  !
 ! D23   D(2,3,5,13)          -179.7843         calculate D2E/DX2 analytically  !
 ! D24   D(2,3,5,14)           -59.3994         calculate D2E/DX2 analytically  !
 ! D25   D(6,3,5,12)          -178.5087         calculate D2E/DX2 analytically  !
 ! D26   D(6,3,5,13)           -58.3658         calculate D2E/DX2 analytically  !
 ! D27   D(6,3,5,14)            62.0191         calculate D2E/DX2 analytically  !
 ! D28   D(7,3,5,12)           -61.4224         calculate D2E/DX2 analytically  !
 ! D29   D(7,3,5,13)            58.7204         calculate D2E/DX2 analytically  !
 ! D30   D(7,3,5,14)           179.1053         calculate D2E/DX2 analytically  !
 --------------------------------------------------------------------------------
 Trust Radius=3.00D-01 FncErr=1.00D-07 GrdErr=1.00D-06 EigMax=2.50D+02 EigMin=1.00D-04
 Number of optimizations in scan=  13
 Number of steps in this run=     79 maximum allowed number of steps=    100.
 GradGradGradGradGradGradGradGradGradGradGradGradGradGradGradGradGradGrad

 Leave Link  103 at Thu Mar 28 22:43:25 2019, MaxMem=   671088640 cpu:               0.2 elap:               0.0
 (Enter /shared/centos7/gaussian/g16/l202.exe)
                          Input orientation:                          
 ---------------------------------------------------------------------
 Center     Atomic      Atomic             Coordinates (Angstroms)
 Number     Number       Type             X           Y           Z
 ---------------------------------------------------------------------
      1          8           0        1.894708   -0.725344   -0.268446
      2          6           0       -0.000122    0.706128   -0.228122
      3          6           0       -0.944989   -0.342219    0.348436
      4          6           0        1.434430    0.523065    0.222801
      5          6           0       -2.379412   -0.148821   -0.128279
      6          1           0       -0.907928   -0.293873    1.440354
      7          1           0       -0.586654   -1.333157    0.068198
      8          1           0       -0.332261    1.705975    0.064481
      9          1           0       -0.028238    0.666581   -1.320296
     10          1           0        1.483032    0.545254    1.317739
     11          1           0        2.055542    1.338330   -0.160986
     12          1           0       -2.438435   -0.220482   -1.215192
     13          1           0       -3.046571   -0.900332    0.292234
     14          1           0       -2.757995    0.833541    0.158792
     15          1           0        2.795671   -0.870182    0.023267
 ---------------------------------------------------------------------
                    Distance matrix (angstroms):
                    1          2          3          4          5
     1  O    0.000000
     2  C    2.375103   0.000000
     3  C    2.931076   1.524541   0.000000
     4  C    1.418346   1.514854   2.534982   0.000000
     5  C    4.315104   2.530203   1.523886   3.888454   0.000000
     6  H    3.310730   2.146608   1.093615   2.763415   2.155670
     7  H    2.576805   2.142547   1.090365   2.748499   2.157599
     8  H    3.313841   1.093447   2.156655   2.132027   2.769160
     9  H    2.596452   1.093251   2.154710   2.130995   2.759312
    10  H    2.073615   2.148327   2.760877   1.096241   4.182246
    11  H    2.072719   2.151729   3.476627   1.094408   4.677766
    12  H    4.464005   2.788957   2.165672   4.197591   1.090871
    13  H    4.976065   3.483150   2.175154   4.702154   1.089358
    14  H    4.925474   2.787795   2.169186   4.204392   1.091224
    15  H    0.958023   3.219379   3.791703   1.958042   5.227314
                    6          7          8          9         10
     6  H    0.000000
     7  H    1.751040   0.000000
     8  H    2.494756   3.049762   0.000000
     9  H    3.052460   2.497738   1.757946   0.000000
    10  H    2.536899   3.061598   2.492633   3.042677   0.000000
    11  H    3.743063   3.764381   2.426438   2.477374   1.772954
    12  H    3.065903   2.512813   3.128060   2.570404   4.730750
    13  H    2.501953   2.507732   3.769905   3.763748   4.864019
    14  H    2.517183   3.068795   2.579577   3.109204   4.405970
    15  H    4.007107   3.414160   4.052437   3.484431   2.324250
                   11         12         13         14         15
    11  H    0.000000
    12  H    4.872070   0.000000
    13  H    5.590042   1.761919   0.000000
    14  H    4.850485   1.760941   1.762781   0.000000
    15  H    2.336507   5.417726   5.848508   5.810700   0.000000
 Stoichiometry    C4H10O
 Framework group  C1[X(C4H10O)]
 Deg. of freedom    39
 Full point group                 C1      NOp   1
 Largest Abelian subgroup         C1      NOp   1
 Largest concise Abelian subgroup C1      NOp   1
                         Standard orientation:                         
 ---------------------------------------------------------------------
 Center     Atomic      Atomic             Coordinates (Angstroms)
 Number     Number       Type             X           Y           Z
 ---------------------------------------------------------------------
      1          8           0        1.893113   -0.731068   -0.256784
      2          6           0        0.000245    0.703219   -0.225419
      3          6           0       -0.947728   -0.342276    0.351218
      4          6           0        1.433275    0.519266    0.229957
      5          6           0       -2.380543   -0.148055   -0.129976
      6          1           0       -0.913626   -0.291159    1.443106
      7          1           0       -0.590047   -1.334449    0.074536
      8          1           0       -0.331264    1.704295    0.063677
      9          1           0       -0.024899    0.660888   -1.317561
     10          1           0        1.478871    0.544217    1.324966
     11          1           0        2.056623    1.332643   -0.154207
     12          1           0       -2.436655   -0.222441   -1.216861
     13          1           0       -3.049949   -0.897517    0.290621
     14          1           0       -2.758504    0.835588    0.153505
     15          1           0        2.793054   -0.876444    0.037804
 ---------------------------------------------------------------------
 Rotational constants (GHZ):          12.5691688           2.4011663           2.2136012
 Leave Link  202 at Thu Mar 28 22:43:25 2019, MaxMem=   671088640 cpu:               0.7 elap:               0.1
 (Enter /shared/centos7/gaussian/g16/l301.exe)
 Standard basis: 6-311+G(2df,2p) (5D, 7F)
 Ernie: Thresh=  0.10000D-02 Tol=  0.10000D-05 Strict=F.
 There are   285 symmetry adapted cartesian basis functions of A   symmetry.
 There are   260 symmetry adapted basis functions of A   symmetry.
   260 basis functions,   370 primitive gaussians,   285 cartesian basis functions
    21 alpha electrons       21 beta electrons
       nuclear repulsion energy       188.7530017249 Hartrees.
 IExCor= 4336 DFT=T Ex+Corr=M062X ExCW=0 ScaHFX=  0.540000
 ScaDFX=  1.000000  1.000000  1.000000  1.000000 ScalE2=  1.000000  1.000000
 IRadAn=      5 IRanWt=     -1 IRanGd=            0 ICorTp=0 IEmpDi=  4
 NAtoms=   15 NActive=   15 NUniq=   15 SFac= 1.00D+00 NAtFMM=   60 NAOKFM=F Big=F
 Integral buffers will be    131072 words long.
 Raffenetti 2 integral format.
 Two-electron integral symmetry is turned on.
 Leave Link  301 at Thu Mar 28 22:43:25 2019, MaxMem=   671088640 cpu:               1.2 elap:               0.1
 (Enter /shared/centos7/gaussian/g16/l302.exe)
 NPDir=0 NMtPBC=     1 NCelOv=     1 NCel=       1 NClECP=     1 NCelD=      1
         NCelK=      1 NCelE2=     1 NClLst=     1 CellRange=     0.0.
 One-electron integrals computed using PRISM.
 One-electron integral symmetry used in STVInt
 NBasis=   260 RedAO= T EigKep=  1.73D-05  NBF=   260
 NBsUse=   260 1.00D-06 EigRej= -1.00D+00 NBFU=   260
 Precomputing XC quadrature grid using
 IXCGrd= 4 IRadAn=           5 IRanWt=          -1 IRanGd=           0 AccXCQ= 0.00D+00.
 Generated NRdTot=       0 NPtTot=           0 NUsed=           0 NTot=          32
 NSgBfM=   285   285   285   285   285 MxSgAt=    15 MxSgA2=    15.
 Leave Link  302 at Thu Mar 28 22:43:25 2019, MaxMem=   671088640 cpu:               9.2 elap:               0.5
 (Enter /shared/centos7/gaussian/g16/l303.exe)
 DipDrv:  MaxL=1.
 Leave Link  303 at Thu Mar 28 22:43:25 2019, MaxMem=   671088640 cpu:               0.7 elap:               0.1
 (Enter /shared/centos7/gaussian/g16/l401.exe)
 ExpMin= 4.38D-02 ExpMax= 8.59D+03 ExpMxC= 1.30D+03 IAcc=3 IRadAn=         5 AccDes= 0.00D+00
 Harris functional with IExCor= 1009 and IRadAn=       5 diagonalized for initial guess.
 HarFok:  IExCor= 1009 AccDes= 0.00D+00 IRadAn=         5 IDoV= 1 UseB2=F ITyADJ=14
 ICtDFT=  3500011 ScaDFX=  1.000000  1.000000  1.000000  1.000000
 FoFCou: FMM=F IPFlag=           0 FMFlag=      100000 FMFlg1=           0
         NFxFlg=           0 DoJE=T BraDBF=F KetDBF=T FulRan=T
         wScrn=  0.000000 ICntrl=       500 IOpCl=  0 I1Cent=   200000004 NGrid=           0
         NMat0=    1 NMatS0=      1 NMatT0=    0 NMatD0=    1 NMtDS0=    0 NMtDT0=    0
 Petite list used in FoFCou.
 Harris En= -233.603620310998    
 JPrj=0 DoOrth=F DoCkMO=F.
 Leave Link  401 at Thu Mar 28 22:43:27 2019, MaxMem=   671088640 cpu:              26.0 elap:               1.3
 (Enter /shared/centos7/gaussian/g16/l502.exe)
 Integral symmetry usage will be decided dynamically.
 Closed shell SCF:
 Using DIIS extrapolation, IDIIS=  1040.
 NGot=   671088640 LenX=   670917793 LenY=   670836127
 Requested convergence on RMS density matrix=1.00D-08 within 128 cycles.
 Requested convergence on MAX density matrix=1.00D-06.
 Requested convergence on             energy=1.00D-06.
 No special actions if energy rises.
 Fock matrices will be formed incrementally for  20 cycles.

 Cycle   1  Pass 1  IDiag  1:
 FoFJK:  IHMeth= 1 ICntrl=       0 DoSepK=F KAlg= 0 I1Cent=           0 FoldK=F
 IRaf= 970000000 NMat=       1 IRICut=       1 DoRegI=T DoRafI=F ISym2E= 0 IDoP0=0 IntGTp=1.
 FoFCou: FMM=F IPFlag=           0 FMFlag=      100000 FMFlg1=           0
         NFxFlg=           0 DoJE=F BraDBF=F KetDBF=F FulRan=T
         wScrn=  0.000000 ICntrl=         0 IOpCl=  0 I1Cent=           0 NGrid=           0
         NMat0=    1 NMatS0=      1 NMatT0=    0 NMatD0=    1 NMtDS0=    0 NMtDT0=    0
 Symmetry not used in FoFCou.
 E= -233.408371492205    
 DIIS: error= 2.23D-02 at cycle   1 NSaved=   1.
 NSaved= 1 IEnMin= 1 EnMin= -233.408371492205     IErMin= 1 ErrMin= 2.23D-02
 ErrMax= 2.23D-02  0.00D+00 EMaxC= 1.00D-01 BMatC= 2.66D-01 BMatP= 2.66D-01
 IDIUse=3 WtCom= 7.77D-01 WtEn= 2.23D-01
 Coeff-Com:  0.100D+01
 Coeff-En:   0.100D+01
 Coeff:      0.100D+01
 Gap=     0.305 Goal=   None    Shift=    0.000
 GapD=    0.305 DampG=1.000 DampE=0.500 DampFc=0.5000 IDamp=-1.
 Damping current iteration by 5.00D-01
 RMSDP=3.79D-03 MaxDP=1.09D-01              OVMax= 1.59D-01

 Cycle   2  Pass 1  IDiag  1:
 RMSU=  1.82D-03    CP:  9.44D-01
 E= -233.518856738966     Delta-E=       -0.110485246761 Rises=F Damp=T
 DIIS: error= 4.88D-03 at cycle   2 NSaved=   2.
 NSaved= 2 IEnMin= 2 EnMin= -233.518856738966     IErMin= 2 ErrMin= 4.88D-03
 ErrMax= 4.88D-03  0.00D+00 EMaxC= 1.00D-01 BMatC= 1.49D-02 BMatP= 2.66D-01
 IDIUse=3 WtCom= 9.51D-01 WtEn= 4.88D-02
 Coeff-Com: -0.493D-01 0.105D+01
 Coeff-En:   0.000D+00 0.100D+01
 Coeff:     -0.469D-01 0.105D+01
 Gap=     0.394 Goal=   None    Shift=    0.000
 RMSDP=1.40D-03 MaxDP=3.76D-02 DE=-1.10D-01 OVMax= 8.38D-02

 Cycle   3  Pass 1  IDiag  1:
 RMSU=  1.27D-03    CP:  9.49D-01  6.75D-01
 E= -233.630471375100     Delta-E=       -0.111614636134 Rises=F Damp=F
 DIIS: error= 2.57D-03 at cycle   3 NSaved=   3.
 NSaved= 3 IEnMin= 3 EnMin= -233.630471375100     IErMin= 3 ErrMin= 2.57D-03
 ErrMax= 2.57D-03  0.00D+00 EMaxC= 1.00D-01 BMatC= 3.86D-03 BMatP= 1.49D-02
 IDIUse=3 WtCom= 9.74D-01 WtEn= 2.57D-02
 Coeff-Com: -0.666D-01 0.319D+00 0.748D+00
 Coeff-En:   0.000D+00 0.000D+00 0.100D+01
 Coeff:     -0.649D-01 0.311D+00 0.754D+00
 Gap=     0.359 Goal=   None    Shift=    0.000
 RMSDP=2.39D-04 MaxDP=1.04D-02 DE=-1.12D-01 OVMax= 1.41D-02

 Cycle   4  Pass 1  IDiag  1:
 RMSU=  2.07D-04    CP:  9.50D-01  7.39D-01  9.84D-01
 E= -233.632644236389     Delta-E=       -0.002172861289 Rises=F Damp=F
 DIIS: error= 1.05D-03 at cycle   4 NSaved=   4.
 NSaved= 4 IEnMin= 4 EnMin= -233.632644236389     IErMin= 4 ErrMin= 1.05D-03
 ErrMax= 1.05D-03  0.00D+00 EMaxC= 1.00D-01 BMatC= 7.83D-04 BMatP= 3.86D-03
 IDIUse=3 WtCom= 9.89D-01 WtEn= 1.05D-02
 Coeff-Com: -0.268D-01 0.751D-01 0.359D+00 0.593D+00
 Coeff-En:   0.000D+00 0.000D+00 0.886D-01 0.911D+00
 Coeff:     -0.265D-01 0.743D-01 0.356D+00 0.596D+00
 Gap=     0.360 Goal=   None    Shift=    0.000
 RMSDP=1.23D-04 MaxDP=7.23D-03 DE=-2.17D-03 OVMax= 4.67D-03

 Cycle   5  Pass 1  IDiag  1:
 RMSU=  6.66D-05    CP:  9.47D-01  7.21D-01  9.92D-01  5.59D-01
 E= -233.633222595904     Delta-E=       -0.000578359515 Rises=F Damp=F
 DIIS: error= 2.04D-04 at cycle   5 NSaved=   5.
 NSaved= 5 IEnMin= 5 EnMin= -233.633222595904     IErMin= 5 ErrMin= 2.04D-04
 ErrMax= 2.04D-04  0.00D+00 EMaxC= 1.00D-01 BMatC= 1.70D-05 BMatP= 7.83D-04
 IDIUse=3 WtCom= 9.98D-01 WtEn= 2.04D-03
 Coeff-Com: -0.391D-02 0.557D-02 0.618D-01 0.181D+00 0.756D+00
 Coeff-En:   0.000D+00 0.000D+00 0.000D+00 0.000D+00 0.100D+01
 Coeff:     -0.390D-02 0.556D-02 0.617D-01 0.181D+00 0.756D+00
 Gap=     0.360 Goal=   None    Shift=    0.000
 RMSDP=3.95D-05 MaxDP=3.17D-03 DE=-5.78D-04 OVMax= 8.16D-04

 Cycle   6  Pass 1  IDiag  1:
 RMSU=  2.34D-05    CP:  9.48D-01  7.12D-01  1.00D+00  6.44D-01  8.27D-01
 E= -233.633235637482     Delta-E=       -0.000013041579 Rises=F Damp=F
 DIIS: error= 4.86D-05 at cycle   6 NSaved=   6.
 NSaved= 6 IEnMin= 6 EnMin= -233.633235637482     IErMin= 6 ErrMin= 4.86D-05
 ErrMax= 4.86D-05  0.00D+00 EMaxC= 1.00D-01 BMatC= 9.46D-07 BMatP= 1.70D-05
 IDIUse=1 WtCom= 1.00D+00 WtEn= 0.00D+00
 Coeff-Com:  0.177D-03-0.184D-02 0.171D-02 0.298D-01 0.232D+00 0.739D+00
 Coeff:      0.177D-03-0.184D-02 0.171D-02 0.298D-01 0.232D+00 0.739D+00
 Gap=     0.360 Goal=   None    Shift=    0.000
 RMSDP=7.16D-06 MaxDP=3.73D-04 DE=-1.30D-05 OVMax= 2.25D-04

 Cycle   7  Pass 1  IDiag  1:
 RMSU=  4.05D-06    CP:  9.48D-01  7.10D-01  1.00D+00  6.49D-01  8.44D-01
                    CP:  1.12D+00
 E= -233.633236474497     Delta-E=       -0.000000837015 Rises=F Damp=F
 DIIS: error= 1.53D-05 at cycle   7 NSaved=   7.
 NSaved= 7 IEnMin= 7 EnMin= -233.633236474497     IErMin= 7 ErrMin= 1.53D-05
 ErrMax= 1.53D-05  0.00D+00 EMaxC= 1.00D-01 BMatC= 1.05D-07 BMatP= 9.46D-07
 IDIUse=1 WtCom= 1.00D+00 WtEn= 0.00D+00
 Coeff-Com:  0.636D-03-0.144D-02-0.840D-02-0.149D-01-0.265D-01 0.239D+00
 Coeff-Com:  0.812D+00
 Coeff:      0.636D-03-0.144D-02-0.840D-02-0.149D-01-0.265D-01 0.239D+00
 Coeff:      0.812D+00
 Gap=     0.360 Goal=   None    Shift=    0.000
 RMSDP=4.13D-06 MaxDP=3.16D-04 DE=-8.37D-07 OVMax= 7.84D-05

 Cycle   8  Pass 1  IDiag  1:
 RMSU=  1.09D-06    CP:  9.48D-01  7.09D-01  1.01D+00  6.54D-01  8.34D-01
                    CP:  1.22D+00  1.09D+00
 E= -233.633236580433     Delta-E=       -0.000000105936 Rises=F Damp=F
 DIIS: error= 2.09D-06 at cycle   8 NSaved=   8.
 NSaved= 8 IEnMin= 8 EnMin= -233.633236580433     IErMin= 8 ErrMin= 2.09D-06
 ErrMax= 2.09D-06  0.00D+00 EMaxC= 1.00D-01 BMatC= 1.96D-09 BMatP= 1.05D-07
 IDIUse=1 WtCom= 1.00D+00 WtEn= 0.00D+00
 Coeff-Com:  0.105D-03-0.213D-03-0.168D-02-0.390D-02-0.127D-01 0.230D-01
 Coeff-Com:  0.164D+00 0.831D+00
 Coeff:      0.105D-03-0.213D-03-0.168D-02-0.390D-02-0.127D-01 0.230D-01
 Coeff:      0.164D+00 0.831D+00
 Gap=     0.360 Goal=   None    Shift=    0.000
 RMSDP=6.06D-07 MaxDP=3.26D-05 DE=-1.06D-07 OVMax= 1.12D-05

 Cycle   9  Pass 1  IDiag  1:
 RMSU=  2.86D-07    CP:  9.48D-01  7.08D-01  1.01D+00  6.54D-01  8.32D-01
                    CP:  1.23D+00  1.15D+00  1.10D+00
 E= -233.633236582483     Delta-E=       -0.000000002050 Rises=F Damp=F
 DIIS: error= 4.88D-07 at cycle   9 NSaved=   9.
 NSaved= 9 IEnMin= 9 EnMin= -233.633236582483     IErMin= 9 ErrMin= 4.88D-07
 ErrMax= 4.88D-07  0.00D+00 EMaxC= 1.00D-01 BMatC= 9.37D-11 BMatP= 1.96D-09
 IDIUse=1 WtCom= 1.00D+00 WtEn= 0.00D+00
 Coeff-Com: -0.129D-04 0.291D-04 0.656D-04-0.373D-04-0.107D-02-0.521D-02
 Coeff-Com: -0.730D-02 0.144D+00 0.869D+00
 Coeff:     -0.129D-04 0.291D-04 0.656D-04-0.373D-04-0.107D-02-0.521D-02
 Coeff:     -0.730D-02 0.144D+00 0.869D+00
 Gap=     0.360 Goal=   None    Shift=    0.000
 RMSDP=1.11D-07 MaxDP=7.13D-06 DE=-2.05D-09 OVMax= 2.75D-06

 Cycle  10  Pass 1  IDiag  1:
 RMSU=  5.20D-08    CP:  9.48D-01  7.08D-01  1.01D+00  6.55D-01  8.31D-01
                    CP:  1.23D+00  1.16D+00  1.15D+00  9.96D-01
 E= -233.633236582586     Delta-E=       -0.000000000102 Rises=F Damp=F
 DIIS: error= 1.64D-07 at cycle  10 NSaved=  10.
 NSaved=10 IEnMin=10 EnMin= -233.633236582586     IErMin=10 ErrMin= 1.64D-07
 ErrMax= 1.64D-07  0.00D+00 EMaxC= 1.00D-01 BMatC= 1.10D-11 BMatP= 9.37D-11
 IDIUse=1 WtCom= 1.00D+00 WtEn= 0.00D+00
 Coeff-Com: -0.784D-05 0.171D-04 0.868D-04 0.140D-03 0.168D-03-0.242D-02
 Coeff-Com: -0.921D-02 0.791D-02 0.284D+00 0.719D+00
 Coeff:     -0.784D-05 0.171D-04 0.868D-04 0.140D-03 0.168D-03-0.242D-02
 Coeff:     -0.921D-02 0.791D-02 0.284D+00 0.719D+00
 Gap=     0.360 Goal=   None    Shift=    0.000
 RMSDP=2.28D-08 MaxDP=8.01D-07 DE=-1.02D-10 OVMax= 7.59D-07

 Cycle  11  Pass 1  IDiag  1:
 RMSU=  1.51D-08    CP:  9.48D-01  7.08D-01  1.01D+00  6.55D-01  8.31D-01
                    CP:  1.23D+00  1.16D+00  1.15D+00  1.03D+00  9.91D-01
 E= -233.633236582592     Delta-E=       -0.000000000007 Rises=F Damp=F
 DIIS: error= 5.37D-08 at cycle  11 NSaved=  11.
 NSaved=11 IEnMin=11 EnMin= -233.633236582592     IErMin=11 ErrMin= 5.37D-08
 ErrMax= 5.37D-08  0.00D+00 EMaxC= 1.00D-01 BMatC= 9.97D-13 BMatP= 1.10D-11
 IDIUse=1 WtCom= 1.00D+00 WtEn= 0.00D+00
 Coeff-Com: -0.106D-05 0.261D-05 0.202D-04 0.378D-04 0.909D-04-0.350D-03
 Coeff-Com: -0.224D-02-0.946D-02 0.193D-01 0.234D+00 0.759D+00
 Coeff:     -0.106D-05 0.261D-05 0.202D-04 0.378D-04 0.909D-04-0.350D-03
 Coeff:     -0.224D-02-0.946D-02 0.193D-01 0.234D+00 0.759D+00
 Gap=     0.360 Goal=   None    Shift=    0.000
 RMSDP=8.77D-09 MaxDP=3.12D-07 DE=-6.54D-12 OVMax= 2.86D-07

 SCF Done:  E(RM062X) =  -233.633236583     A.U. after   11 cycles
            NFock= 11  Conv=0.88D-08     -V/T= 2.0040
 KE= 2.327040942671D+02 PE=-9.220670389738D+02 EE= 2.669767063992D+02
 Leave Link  502 at Thu Mar 28 22:44:05 2019, MaxMem=   671088640 cpu:             776.0 elap:              38.9
 (Enter /shared/centos7/gaussian/g16/l801.exe)
 DoSCS=F DFT=T ScalE2(SS,OS)=  1.000000  1.000000
 Range of M.O.s used for correlation:     1   260
 NBasis=   260 NAE=    21 NBE=    21 NFC=     0 NFV=     0
 NROrb=    260 NOA=    21 NOB=    21 NVA=   239 NVB=   239

 **** Warning!!: The largest alpha MO coefficient is  0.53720724D+02

 Leave Link  801 at Thu Mar 28 22:44:06 2019, MaxMem=   671088640 cpu:               0.4 elap:               0.0
 (Enter /shared/centos7/gaussian/g16/l1101.exe)
 Using compressed storage, NAtomX=    15.
 Will process     16 centers per pass.
 Leave Link 1101 at Thu Mar 28 22:44:06 2019, MaxMem=   671088640 cpu:               9.5 elap:               0.5
 (Enter /shared/centos7/gaussian/g16/l1102.exe)
 Symmetrizing basis deriv contribution to polar:
 IMax=3 JMax=2 DiffMx= 0.00D+00
 Leave Link 1102 at Thu Mar 28 22:44:06 2019, MaxMem=   671088640 cpu:               0.7 elap:               0.1
 (Enter /shared/centos7/gaussian/g16/l1110.exe)
 Forming Gx(P) for the SCF density, NAtomX=    15.
 Integral derivatives from FoFJK, PRISM(SPDF).
 Do as many integral derivatives as possible in FoFJK.
 G2DrvN: MDV=     671087424.
 G2DrvN: will do    16 centers at a time, making    1 passes.
 Calling FoFCou, ICntrl=  3107 FMM=F I1Cent=   0 AccDes= 0.00D+00.
 FoFJK:  IHMeth= 1 ICntrl=    3107 DoSepK=F KAlg= 0 I1Cent=           0 FoldK=F
 IRaf=         0 NMat=       1 IRICut=       1 DoRegI=T DoRafI=F ISym2E= 0 IDoP0=0 IntGTp=1.
 FoFCou: FMM=F IPFlag=           0 FMFlag=      100000 FMFlg1=           0
         NFxFlg=           0 DoJE=F BraDBF=F KetDBF=F FulRan=T
         wScrn=  0.000000 ICntrl=      3107 IOpCl=  0 I1Cent=           0 NGrid=           0
         NMat0=    1 NMatS0=      1 NMatT0=    0 NMatD0=    1 NMtDS0=    0 NMtDT0=    0
 Symmetry not used in FoFCou.
 End of G2Drv F.D. properties file   721 does not exist.
 End of G2Drv F.D. properties file   722 does not exist.
 End of G2Drv F.D. properties file   788 does not exist.
 Leave Link 1110 at Thu Mar 28 22:45:38 2019, MaxMem=   671088640 cpu:            1837.4 elap:              91.9
 (Enter /shared/centos7/gaussian/g16/l1002.exe)
 Minotr:  Closed shell wavefunction.
          IDoAtm=111111111111111
          Direct CPHF calculation.
          Differentiating once with respect to nuclear coordinates.
          Requested convergence is 1.0D-08 RMS, and 1.0D-07 maximum.
          Secondary convergence is 1.0D-12 RMS, and 1.0D-12 maximum.
          NewPWx=T KeepS1=F KeepF1=F KeepIn=T MapXYZ=F SortEE=F KeepMc=T.
         4569 words used for storage of precomputed grid.
 Keep R1 ints in memory in canonical form, NReq=597923371.
 FoFCou: FMM=F IPFlag=           0 FMFlag=           0 FMFlg1=           0
         NFxFlg=           0 DoJE=F BraDBF=F KetDBF=F FulRan=T
         wScrn=  0.000000 ICntrl=       600 IOpCl=  0 I1Cent=           0 NGrid=           0
         NMat0=    1 NMatS0=  33930 NMatT0=    0 NMatD0=    1 NMtDS0=    0 NMtDT0=    0
 Symmetry not used in FoFCou.
 Two-electron integral symmetry not used.
          MDV=     671088640 using IRadAn=       1.
          Solving linear equations simultaneously, MaxMat=       0.
          There are    48 degrees of freedom in the 1st order CPHF.  IDoFFX=6 NUNeed=     0.
     42 vectors produced by pass  0 Test12= 1.05D-14 2.08D-09 XBig12= 6.42D-02 4.26D-02.
 AX will form    42 AO Fock derivatives at one time.
     42 vectors produced by pass  1 Test12= 1.05D-14 2.08D-09 XBig12= 5.95D-03 1.20D-02.
     42 vectors produced by pass  2 Test12= 1.05D-14 2.08D-09 XBig12= 2.69D-04 2.94D-03.
     42 vectors produced by pass  3 Test12= 1.05D-14 2.08D-09 XBig12= 3.07D-06 3.03D-04.
     42 vectors produced by pass  4 Test12= 1.05D-14 2.08D-09 XBig12= 1.65D-08 1.48D-05.
     42 vectors produced by pass  5 Test12= 1.05D-14 2.08D-09 XBig12= 9.32D-11 9.01D-07.
     17 vectors produced by pass  6 Test12= 1.05D-14 2.08D-09 XBig12= 3.58D-13 6.52D-08.
      1 vectors produced by pass  7 Test12= 1.05D-14 2.08D-09 XBig12= 1.18D-15 3.24D-09.
 InvSVY:  IOpt=1 It=  1 EMax= 2.00D-15
 Solved reduced A of dimension   270 with    42 vectors.
 End of Minotr F.D. properties file   721 does not exist.
 End of Minotr F.D. properties file   722 does not exist.
 End of Minotr F.D. properties file   788 does not exist.
 Leave Link 1002 at Thu Mar 28 22:47:16 2019, MaxMem=   671088640 cpu:            1926.3 elap:              97.7
 (Enter /shared/centos7/gaussian/g16/l601.exe)
 Copying SCF densities to generalized density rwf, IOpCl= 0 IROHF=0.

 **********************************************************************

            Population analysis using the SCF density.

 **********************************************************************

 Orbital symmetries:
       Occupied  (A) (A) (A) (A) (A) (A) (A) (A) (A) (A) (A) (A)
                 (A) (A) (A) (A) (A) (A) (A) (A) (A)
       Virtual   (A) (A) (A) (A) (A) (A) (A) (A) (A) (A) (A) (A)
                 (A) (A) (A) (A) (A) (A) (A) (A) (A) (A) (A) (A)
                 (A) (A) (A) (A) (A) (A) (A) (A) (A) (A) (A) (A)
                 (A) (A) (A) (A) (A) (A) (A) (A) (A) (A) (A) (A)
                 (A) (A) (A) (A) (A) (A) (A) (A) (A) (A) (A) (A)
                 (A) (A) (A) (A) (A) (A) (A) (A) (A) (A) (A) (A)
                 (A) (A) (A) (A) (A) (A) (A) (A) (A) (A) (A) (A)
                 (A) (A) (A) (A) (A) (A) (A) (A) (A) (A) (A) (A)
                 (A) (A) (A) (A) (A) (A) (A) (A) (A) (A) (A) (A)
                 (A) (A) (A) (A) (A) (A) (A) (A) (A) (A) (A) (A)
                 (A) (A) (A) (A) (A) (A) (A) (A) (A) (A) (A) (A)
                 (A) (A) (A) (A) (A) (A) (A) (A) (A) (A) (A) (A)
                 (A) (A) (A) (A) (A) (A) (A) (A) (A) (A) (A) (A)
                 (A) (A) (A) (A) (A) (A) (A) (A) (A) (A) (A) (A)
                 (A) (A) (A) (A) (A) (A) (A) (A) (A) (A) (A) (A)
                 (A) (A) (A) (A) (A) (A) (A) (A) (A) (A) (A) (A)
                 (A) (A) (A) (A) (A) (A) (A) (A) (A) (A) (A) (A)
                 (A) (A) (A) (A) (A) (A) (A) (A) (A) (A) (A) (A)
                 (A) (A) (A) (A) (A) (A) (A) (A) (A) (A) (A) (A)
                 (A) (A) (A) (A) (A) (A) (A) (A) (A) (A) (A)
 The electronic state is 1-A.
 Alpha  occ. eigenvalues --  -19.61954 -10.57863 -10.52543 -10.52137 -10.51630
 Alpha  occ. eigenvalues --   -1.14353  -0.89185  -0.81399  -0.71335  -0.65698
 Alpha  occ. eigenvalues --   -0.59980  -0.53701  -0.51384  -0.50073  -0.45568
 Alpha  occ. eigenvalues --   -0.44161  -0.42681  -0.39545  -0.38468  -0.37871
 Alpha  occ. eigenvalues --   -0.34703
 Alpha virt. eigenvalues --    0.01274   0.02685   0.03452   0.03992   0.05675
 Alpha virt. eigenvalues --    0.06156   0.06632   0.08094   0.08657   0.09167
 Alpha virt. eigenvalues --    0.10243   0.10964   0.13183   0.15202   0.16368
 Alpha virt. eigenvalues --    0.17754   0.18636   0.19795   0.21053   0.21179
 Alpha virt. eigenvalues --    0.22301   0.23120   0.23799   0.25008   0.25955
 Alpha virt. eigenvalues --    0.26989   0.27646   0.28554   0.29207   0.30370
 Alpha virt. eigenvalues --    0.31131   0.31735   0.34216   0.37551   0.42445
 Alpha virt. eigenvalues --    0.43297   0.45421   0.46202   0.47549   0.49587
 Alpha virt. eigenvalues --    0.52716   0.53555   0.55065   0.56331   0.57323
 Alpha virt. eigenvalues --    0.58051   0.59183   0.60465   0.61775   0.62711
 Alpha virt. eigenvalues --    0.63212   0.64875   0.65146   0.66075   0.68246
 Alpha virt. eigenvalues --    0.69636   0.70416   0.72205   0.74835   0.78522
 Alpha virt. eigenvalues --    0.80960   0.82300   0.83571   0.85632   0.88092
 Alpha virt. eigenvalues --    0.88922   0.92745   0.94397   0.96355   1.01271
 Alpha virt. eigenvalues --    1.04455   1.04779   1.06577   1.10186   1.12045
 Alpha virt. eigenvalues --    1.13354   1.14065   1.17252   1.18215   1.18948
 Alpha virt. eigenvalues --    1.19442   1.20806   1.22243   1.24424   1.25509
 Alpha virt. eigenvalues --    1.26661   1.27744   1.29773   1.31104   1.32215
 Alpha virt. eigenvalues --    1.35994   1.37883   1.39782   1.40988   1.42282
 Alpha virt. eigenvalues --    1.44007   1.44927   1.46299   1.47183   1.48828
 Alpha virt. eigenvalues --    1.49347   1.54062   1.54931   1.56657   1.58576
 Alpha virt. eigenvalues --    1.60209   1.61857   1.63029   1.64297   1.65864
 Alpha virt. eigenvalues --    1.68972   1.69962   1.74423   1.85141   1.91328
 Alpha virt. eigenvalues --    2.09845   2.13040   2.27766   2.35048   2.41341
 Alpha virt. eigenvalues --    2.47819   2.50426   2.51997   2.55981   2.58026
 Alpha virt. eigenvalues --    2.63274   2.67319   2.75832   2.76971   2.79092
 Alpha virt. eigenvalues --    2.81363   2.84172   2.85751   2.89573   2.91533
 Alpha virt. eigenvalues --    2.94321   2.95906   2.99489   3.04365   3.04540
 Alpha virt. eigenvalues --    3.09339   3.14334   3.15425   3.16714   3.17898
 Alpha virt. eigenvalues --    3.22628   3.24142   3.26570   3.27877   3.32359
 Alpha virt. eigenvalues --    3.35159   3.36083   3.38984   3.39178   3.40354
 Alpha virt. eigenvalues --    3.45556   3.46836   3.52665   3.54033   3.56893
 Alpha virt. eigenvalues --    3.58846   3.59784   3.61622   3.62904   3.66201
 Alpha virt. eigenvalues --    3.70609   3.70881   3.72337   3.76061   3.78030
 Alpha virt. eigenvalues --    3.79666   3.84663   3.87976   3.89139   3.92669
 Alpha virt. eigenvalues --    3.97129   3.99285   4.01222   4.02393   4.03135
 Alpha virt. eigenvalues --    4.04989   4.08509   4.09827   4.14734   4.15718
 Alpha virt. eigenvalues --    4.19460   4.21040   4.23116   4.24524   4.25931
 Alpha virt. eigenvalues --    4.28396   4.30016   4.32082   4.33138   4.36585
 Alpha virt. eigenvalues --    4.39776   4.44013   4.44668   4.48113   4.53435
 Alpha virt. eigenvalues --    4.53895   4.56102   4.57388   4.60570   4.63910
 Alpha virt. eigenvalues --    4.65806   4.68273   4.79831   4.80778   5.02490
 Alpha virt. eigenvalues --    5.20081   5.21329   5.23310   5.28015   5.36286
 Alpha virt. eigenvalues --    5.41984   5.47050   5.49683   5.53871   5.54634
 Alpha virt. eigenvalues --    5.59707   5.60262   5.65811   5.67627   5.70065
 Alpha virt. eigenvalues --    5.84826   5.94507   6.49647   6.98558   7.17293
 Alpha virt. eigenvalues --    7.21313   7.24418   7.55764   7.65315  24.28233
 Alpha virt. eigenvalues --   24.39451  24.44801  24.51533  50.15261
          Condensed to atoms (all electrons):
               1          2          3          4          5          6
     1  O    8.154740  -0.082956  -0.003155   0.152268  -0.000393  -0.001202
     2  C   -0.082956   5.714147  -0.220738  -0.006942   0.169115  -0.031103
     3  C   -0.003155  -0.220738   5.519408   0.160640   0.019554   0.428813
     4  C    0.152268  -0.006942   0.160640   5.255258  -0.108042  -0.014854
     5  C   -0.000393   0.169115   0.019554  -0.108042   5.293519  -0.029341
     6  H   -0.001202  -0.031103   0.428813  -0.014854  -0.029341   0.539046
     7  H   -0.006106  -0.062464   0.476627   0.011007  -0.057086  -0.034050
     8  H    0.008923   0.395653  -0.004752  -0.016050  -0.018191  -0.007516
     9  H   -0.009792   0.496855  -0.084552  -0.062201   0.007481   0.005177
    10  H   -0.049848   0.005792  -0.047026   0.433358   0.006479   0.002773
    11  H   -0.043777  -0.074522   0.023283   0.465258  -0.000642   0.000098
    12  H   -0.000285  -0.010330  -0.032722  -0.003552   0.420489   0.006228
    13  H    0.000093   0.020713  -0.048027   0.002472   0.409588  -0.004589
    14  H   -0.000107  -0.031963   0.006830   0.003037   0.393385  -0.008284
    15  H    0.231117  -0.030466   0.008438   0.027489  -0.001817  -0.000103
               7          8          9         10         11         12
     1  O   -0.006106   0.008923  -0.009792  -0.049848  -0.043777  -0.000285
     2  C   -0.062464   0.395653   0.496855   0.005792  -0.074522  -0.010330
     3  C    0.476627  -0.004752  -0.084552  -0.047026   0.023283  -0.032722
     4  C    0.011007  -0.016050  -0.062201   0.433358   0.465258  -0.003552
     5  C   -0.057086  -0.018191   0.007481   0.006479  -0.000642   0.420489
     6  H   -0.034050  -0.007516   0.005177   0.002773   0.000098   0.006228
     7  H    0.494748   0.004370  -0.003511   0.001202  -0.000808  -0.006809
     8  H    0.004370   0.518148  -0.028880  -0.005022  -0.003309  -0.000579
     9  H   -0.003511  -0.028880   0.489904   0.006026  -0.006733   0.001345
    10  H    0.001202  -0.005022   0.006026   0.561165  -0.046489  -0.000014
    11  H   -0.000808  -0.003309  -0.006733  -0.046489   0.556405  -0.000004
    12  H   -0.006809  -0.000579   0.001345  -0.000014  -0.000004   0.551055
    13  H   -0.004633  -0.000009  -0.000089  -0.000024   0.000015  -0.024342
    14  H    0.006008   0.002525  -0.000432  -0.000014  -0.000039  -0.038813
    15  H   -0.000015  -0.000280   0.000233  -0.006998  -0.005089  -0.000003
              13         14         15
     1  O    0.000093  -0.000107   0.231117
     2  C    0.020713  -0.031963  -0.030466
     3  C   -0.048027   0.006830   0.008438
     4  C    0.002472   0.003037   0.027489
     5  C    0.409588   0.393385  -0.001817
     6  H   -0.004589  -0.008284  -0.000103
     7  H   -0.004633   0.006008  -0.000015
     8  H   -0.000009   0.002525  -0.000280
     9  H   -0.000089  -0.000432   0.000233
    10  H   -0.000024  -0.000014  -0.006998
    11  H    0.000015  -0.000039  -0.005089
    12  H   -0.024342  -0.038813  -0.000003
    13  H    0.540374  -0.025623  -0.000001
    14  H   -0.025623   0.561282   0.000004
    15  H   -0.000001   0.000004   0.525492
 Mulliken charges:
               1
     1  O   -0.349522
     2  C   -0.250792
     3  C   -0.202621
     4  C   -0.299146
     5  C   -0.504098
     6  H    0.148906
     7  H    0.181520
     8  H    0.154969
     9  H    0.189170
    10  H    0.138640
    11  H    0.136354
    12  H    0.138339
    13  H    0.134081
    14  H    0.132202
    15  H    0.251998
 Sum of Mulliken charges =  -0.00000
 Mulliken charges with hydrogens summed into heavy atoms:
               1
     1  O   -0.097524
     2  C    0.093347
     3  C    0.127805
     4  C   -0.024152
     5  C   -0.099475
 APT charges:
               1
     1  O   -0.867115
     2  C   -0.634326
     3  C   -0.567793
     4  C   -0.801210
     5  C   -1.292583
     6  H    0.344212
     7  H    0.320679
     8  H    0.387352
     9  H    0.353227
    10  H    0.340565
    11  H    0.468703
    12  H    0.328047
    13  H    0.504941
    14  H    0.372791
    15  H    0.742510
 Sum of APT charges =  -0.00000
 APT charges with hydrogens summed into heavy atoms:
               1
     1  O   -0.124605
     2  C    0.106253
     3  C    0.097099
     4  C    0.008058
     5  C   -0.086805
 Electronic spatial extent (au):  <R**2>=            597.8674
 Charge=             -0.0000 electrons
 Dipole moment (field-independent basis, Debye):
    X=              0.8779    Y=              0.9001    Z=              0.8864  Tot=              1.5384
 Quadrupole moment (field-independent basis, Debye-Ang):
   XX=            -28.9053   YY=            -34.0755   ZZ=            -33.9862
   XY=              0.4382   XZ=              1.8047   YZ=             -0.5449
 Traceless Quadrupole moment (field-independent basis, Debye-Ang):
   XX=              3.4170   YY=             -1.7532   ZZ=             -1.6638
   XY=              0.4382   XZ=              1.8047   YZ=             -0.5449
 Octapole moment (field-independent basis, Debye-Ang**2):
  XXX=             34.0101  YYY=             -2.0652  ZZZ=             -0.4023  XYY=              3.1561
  XXY=             -5.2688  XXZ=              4.4591  XZZ=              1.9380  YZZ=             -0.4963
  YYZ=              0.4615  XYZ=             -1.7679
 Hexadecapole moment (field-independent basis, Debye-Ang**3):
 XXXX=           -526.0763 YYYY=           -124.4632 ZZZZ=            -76.6172 XXXY=            -23.5456
 XXXZ=              4.0162 YYYX=             -6.9021 YYYZ=              1.1684 ZZZX=              1.5948
 ZZZY=              0.2675 XXYY=           -112.5992 XXZZ=           -115.4975 YYZZ=            -36.0698
 XXYZ=             -3.8718 YYXZ=             -1.5399 ZZXY=             -0.5554
 N-N= 1.887530017249D+02 E-N=-9.220670430020D+02  KE= 2.327040942671D+02
  Exact polarizability:   0.000   0.000   0.000   0.000   0.000   0.000
 Approx polarizability:  62.751  -0.711  61.608   0.669   0.331  60.827
 No NMR shielding tensors so no spin-rotation constants.
 Leave Link  601 at Thu Mar 28 22:47:16 2019, MaxMem=   671088640 cpu:               6.2 elap:               0.4
 (Enter /shared/centos7/gaussian/g16/l701.exe)
 ... and contract with generalized density number  0.
 Compute integral second derivatives.
 Leave Link  701 at Thu Mar 28 22:47:17 2019, MaxMem=   671088640 cpu:               8.6 elap:               0.5
 (Enter /shared/centos7/gaussian/g16/l702.exe)
 L702 exits ... SP integral derivatives will be done elsewhere.
 Leave Link  702 at Thu Mar 28 22:47:17 2019, MaxMem=   671088640 cpu:               0.6 elap:               0.5
 (Enter /shared/centos7/gaussian/g16/l703.exe)
 Integral derivatives from FoFJK, PRISM(SPDF).
 Compute integral second derivatives, UseDBF=F ICtDFT=           0.
 Calling FoFJK, ICntrl=    100147 FMM=F ISym2X=0 I1Cent= 0 IOpClX= 0 NMat=1 NMatS=1 NMatT=0.
 FoFJK:  IHMeth= 1 ICntrl=  100147 DoSepK=F KAlg= 0 I1Cent=           0 FoldK=F
 IRaf=         0 NMat=       1 IRICut=       1 DoRegI=T DoRafI=F ISym2E= 0 IDoP0=0 IntGTp=1.
 FoFCou: FMM=F IPFlag=           0 FMFlag=      100000 FMFlg1=         800
         NFxFlg=           0 DoJE=F BraDBF=F KetDBF=F FulRan=T
         wScrn=  0.000000 ICntrl=    100147 IOpCl=  0 I1Cent=           0 NGrid=           0
         NMat0=    1 NMatS0=      1 NMatT0=    0 NMatD0=    1 NMtDS0=    0 NMtDT0=    0
 Symmetry not used in FoFCou.
 Leave Link  703 at Thu Mar 28 22:49:23 2019, MaxMem=   671088640 cpu:            2511.3 elap:             125.6
 (Enter /shared/centos7/gaussian/g16/l716.exe)
 Dipole        = 3.45409351D-01 3.54144115D-01 3.48718648D-01
 Polarizability= 0.00000000D+00 0.00000000D+00 0.00000000D+00
                 0.00000000D+00 0.00000000D+00 0.00000000D+00
 ***** Axes restored to original set *****
 -------------------------------------------------------------------
 Center     Atomic                   Forces (Hartrees/Bohr)
 Number     Number              X              Y              Z
 -------------------------------------------------------------------
      1        8           0.000000367    0.000000254    0.000000734
      2        6           0.000000058    0.000000244    0.000000587
      3        6          -0.000000156   -0.000000183   -0.000000601
      4        6          -0.000000174   -0.000000081    0.000001238
      5        6           0.000000077    0.000000056   -0.000001302
      6        1          -0.000000772   -0.000000873   -0.000000657
      7        1           0.000000043   -0.000000042   -0.000001069
      8        1          -0.000000081   -0.000000023    0.000000920
      9        1           0.000000751    0.000000833    0.000000429
     10        1          -0.000000723   -0.000000708    0.000001190
     11        1           0.000000090    0.000000197    0.000002034
     12        1           0.000000716    0.000000684   -0.000001445
     13        1          -0.000000092   -0.000000239   -0.000002187
     14        1          -0.000000078   -0.000000195   -0.000000971
     15        1          -0.000000027    0.000000074    0.000001098
 -------------------------------------------------------------------
 Cartesian Forces:  Max     0.000002187 RMS     0.000000772
 FormGI is forming the generalized inverse of G from B-inverse, IUseBI=4.
 Leave Link  716 at Thu Mar 28 22:49:23 2019, MaxMem=   671088640 cpu:               0.7 elap:               0.1
 (Enter /shared/centos7/gaussian/g16/l103.exe)

 GradGradGradGradGradGradGradGradGradGradGradGradGradGradGradGradGradGrad
 Berny optimization.
 Red2BG is reusing G-inverse.
 Internal  Forces:  Max     0.000000091 RMS     0.000000026
 Search for a local minimum.
 Step number   1 out of a maximum of   79 on scan point     1 out of    13
 All quantities printed in internal units (Hartrees-Bohrs-Radians)
 RMS Force = .25999D-07 SwitMx=.10000D-02 MixMth= 2
 Mixed Optimization -- En-DIIS/RFO-DIIS
 Second derivative matrix not updated -- analytic derivatives used.
 ITU=  0
     Eigenvalues ---    0.00198   0.00207   0.00274   0.01494   0.03545
     Eigenvalues ---    0.03803   0.03915   0.04241   0.04529   0.04552
     Eigenvalues ---    0.06271   0.06837   0.07207   0.09124   0.10367
     Eigenvalues ---    0.11692   0.12108   0.13066   0.13495   0.15687
     Eigenvalues ---    0.15849   0.18182   0.22299   0.24742   0.29354
     Eigenvalues ---    0.30570   0.32132   0.32480   0.32594   0.33160
     Eigenvalues ---    0.33380   0.33828   0.34091   0.34197   0.34512
     Eigenvalues ---    0.35030   0.39713   0.551951000.000001000.00000
     Eigenvalues --- 1000.000001000.000001000.000001000.000001000.00000
     Eigenvalues --- 1000.000001000.000001000.000001000.000001000.00000
     Eigenvalues --- 1000.000001000.000001000.000001000.000001000.00000
     Eigenvalues --- 1000.000001000.000001000.000001000.000001000.00000
     Eigenvalues --- 1000.000001000.000001000.000001000.000001000.00000
     Eigenvalues --- 1000.000001000.000001000.000001000.00000
 RFO step:  Lambda= 0.00000000D+00 EMin= 1.97850209D-03
 Linear search not attempted -- first point.
 Iteration  1 RMS(Cart)=  0.00000118 RMS(Int)=  0.00000000
 Iteration  2 RMS(Cart)=  0.00000000 RMS(Int)=  0.00000000
 Iteration  1 RMS(Cart)=  0.00000000 RMS(Int)=  0.00000000
 ITry= 1 IFail=0 DXMaxC= 5.10D-06 DCOld= 1.00D+10 DXMaxT= 3.00D-01 DXLimC= 3.00D+00 Rises=F
 Variable       Old X    -DE/DX   Delta X   Delta X   Delta X     New X
                                 (Linear)    (Quad)   (Total)
    R1        2.68029   0.00000   0.00000   0.00000   0.00000   2.68029
    R2        1.81040  -0.00000   0.00000  -0.00000  -0.00000   1.81040
    R3        2.88096  -0.00000   0.00000  -0.00000  -0.00000   2.88096
    R4        2.86266   0.00000   0.00000   0.00000   0.00000   2.86266
    R5        2.06632  -0.00000   0.00000  -0.00000  -0.00000   2.06632
    R6        2.06594   0.00000   0.00000   0.00000   0.00000   2.06594
    R7        2.87973  -0.00000   0.00000  -0.00000  -0.00000   2.87973
    R8        2.06663  -0.00000   0.00000  -0.00000  -0.00000   2.06663
    R9        2.06049   0.00000   0.00000   0.00000   0.00000   2.06049
   R10        2.07160  -0.00000   0.00000  -0.00000  -0.00000   2.07160
   R11        2.06813   0.00000   0.00000   0.00000   0.00000   2.06813
   R12        2.06145   0.00000   0.00000   0.00000   0.00000   2.06145
   R13        2.05859  -0.00000   0.00000  -0.00000  -0.00000   2.05859
   R14        2.06211  -0.00000   0.00000  -0.00000  -0.00000   2.06211
    A1        1.91006   0.00000   0.00000   0.00000   0.00000   1.91007
    A2        1.97278  -0.00000   0.00000  -0.00000  -0.00000   1.97278
    A3        1.91700   0.00000   0.00000   0.00000   0.00000   1.91700
    A4        1.91452   0.00000   0.00000  -0.00000  -0.00000   1.91452
    A5        1.89494   0.00000   0.00000   0.00000   0.00000   1.89494
    A6        1.89374  -0.00000   0.00000  -0.00000  -0.00000   1.89374
    A7        1.86774  -0.00000   0.00000  -0.00000  -0.00000   1.86774
    A8        1.95823   0.00000   0.00000   0.00000   0.00000   1.95823
    A9        1.90307  -0.00000   0.00000   0.00000   0.00000   1.90307
   A10        1.90082  -0.00000   0.00000  -0.00000  -0.00000   1.90082
   A11        1.91626  -0.00000   0.00000   0.00000   0.00000   1.91626
   A12        1.92227  -0.00000   0.00000  -0.00000  -0.00000   1.92227
   A13        1.86048   0.00000   0.00000   0.00000   0.00000   1.86049
   A14        1.88660   0.00000   0.00000   0.00000   0.00000   1.88660
   A15        1.92769  -0.00000   0.00000  -0.00000  -0.00000   1.92769
   A16        1.92842  -0.00000   0.00000  -0.00000  -0.00000   1.92842
   A17        1.91437  -0.00000   0.00000  -0.00000  -0.00000   1.91437
   A18        1.92095  -0.00000   0.00000   0.00000   0.00000   1.92095
   A19        1.88601   0.00000   0.00000  -0.00000  -0.00000   1.88601
   A20        1.93295  -0.00000   0.00000  -0.00000  -0.00000   1.93295
   A21        1.94784  -0.00000   0.00000  -0.00000  -0.00000   1.94784
   A22        1.93748   0.00000   0.00000   0.00000   0.00000   1.93748
   A23        1.88196  -0.00000   0.00000  -0.00000  -0.00000   1.88196
   A24        1.87809   0.00000   0.00000   0.00000   0.00000   1.87809
   A25        1.88285   0.00000   0.00000   0.00000   0.00000   1.88285
    D1       -3.11895   0.00000   0.00000   0.00001   0.00001  -3.11894
    D2       -1.02451   0.00000   0.00000   0.00001   0.00001  -1.02450
    D3        1.06132  -0.00000   0.00000   0.00001   0.00001   1.06132
    D4       -3.13147   0.00000   0.00000   0.00000   0.00000  -3.13147
    D5        1.02502   0.00000   0.00000   0.00000   0.00000   1.02502
    D6       -0.99873   0.00000   0.00000   0.00000   0.00000  -0.99873
    D7        1.03257   0.00000   0.00000   0.00000   0.00000   1.03258
    D8       -1.09412  -0.00000   0.00000   0.00000   0.00000  -1.09412
    D9       -3.11787  -0.00000   0.00000   0.00000   0.00000  -3.11787
   D10       -1.01565  -0.00000   0.00000   0.00000   0.00000  -1.01565
   D11        3.14084  -0.00000   0.00000   0.00000   0.00000   3.14084
   D12        1.11709  -0.00000   0.00000   0.00000   0.00000   1.11709
   D13        1.10273  -0.00000   0.00000   0.00000   0.00000   1.10273
   D14       -1.00006  -0.00000   0.00000   0.00000   0.00000  -1.00006
   D15       -3.07287  -0.00000   0.00000  -0.00000  -0.00000  -3.07287
   D16       -3.04891  -0.00000   0.00000   0.00000   0.00000  -3.04891
   D17        1.13148  -0.00000   0.00000   0.00000   0.00000   1.13148
   D18       -0.94133   0.00000   0.00000   0.00000   0.00000  -0.94133
   D19       -1.02480   0.00000   0.00000   0.00000   0.00000  -1.02480
   D20       -3.12760  -0.00000   0.00000   0.00000   0.00000  -3.12760
   D21        1.08278   0.00000   0.00000   0.00000   0.00000   1.08278
   D22        1.04847  -0.00000   0.00000  -0.00000  -0.00000   1.04847
   D23       -3.13783  -0.00000   0.00000  -0.00000  -0.00000  -3.13783
   D24       -1.03671  -0.00000   0.00000  -0.00000  -0.00000  -1.03672
   D25       -3.11556   0.00000   0.00000  -0.00000  -0.00000  -3.11556
   D26       -1.01868  -0.00000   0.00000  -0.00000  -0.00000  -1.01868
   D27        1.08244   0.00000   0.00000  -0.00000  -0.00000   1.08244
   D28       -1.07202   0.00000   0.00000  -0.00000  -0.00000  -1.07202
   D29        1.02486  -0.00000   0.00000  -0.00000  -0.00000   1.02486
   D30        3.12598   0.00000   0.00000  -0.00000  -0.00000   3.12598
         Item               Value     Threshold  Converged?
 Maximum Force            0.000000     0.000450     YES
 RMS     Force            0.000000     0.000300     YES
 Maximum Displacement     0.000005     0.001800     YES
 RMS     Displacement     0.000001     0.001200     YES
 Predicted change in Energy=-2.177603D-13
 Optimization completed.
    -- Stationary point found.
                           ----------------------------
                           !   Optimized Parameters   !
                           ! (Angstroms and Degrees)  !
 --------------------------                            --------------------------
 ! Name  Definition              Value          Derivative Info.                !
 --------------------------------------------------------------------------------
 ! R1    R(1,4)                  1.4183         -DE/DX =    0.0                 !
 ! R2    R(1,15)                 0.958          -DE/DX =    0.0                 !
 ! R3    R(2,3)                  1.5245         -DE/DX =    0.0                 !
 ! R4    R(2,4)                  1.5149         -DE/DX =    0.0                 !
 ! R5    R(2,8)                  1.0934         -DE/DX =    0.0                 !
 ! R6    R(2,9)                  1.0933         -DE/DX =    0.0                 !
 ! R7    R(3,5)                  1.5239         -DE/DX =    0.0                 !
 ! R8    R(3,6)                  1.0936         -DE/DX =    0.0                 !
 ! R9    R(3,7)                  1.0904         -DE/DX =    0.0                 !
 ! R10   R(4,10)                 1.0962         -DE/DX =    0.0                 !
 ! R11   R(4,11)                 1.0944         -DE/DX =    0.0                 !
 ! R12   R(5,12)                 1.0909         -DE/DX =    0.0                 !
 ! R13   R(5,13)                 1.0894         -DE/DX =    0.0                 !
 ! R14   R(5,14)                 1.0912         -DE/DX =    0.0                 !
 ! A1    A(4,1,15)             109.4386         -DE/DX =    0.0                 !
 ! A2    A(3,2,4)              113.032          -DE/DX =    0.0                 !
 ! A3    A(3,2,8)              109.8357         -DE/DX =    0.0                 !
 ! A4    A(3,2,9)              109.6941         -DE/DX =    0.0                 !
 ! A5    A(4,2,8)              108.5721         -DE/DX =    0.0                 !
 ! A6    A(4,2,9)              108.5032         -DE/DX =    0.0                 !
 ! A7    A(8,2,9)              107.0136         -DE/DX =    0.0                 !
 ! A8    A(2,3,5)              112.1981         -DE/DX =    0.0                 !
 ! A9    A(2,3,6)              109.038          -DE/DX =    0.0                 !
 ! A10   A(2,3,7)              108.9089         -DE/DX =    0.0                 !
 ! A11   A(5,3,6)              109.7935         -DE/DX =    0.0                 !
 ! A12   A(5,3,7)              110.1379         -DE/DX =    0.0                 !
 ! A13   A(6,3,7)              106.5979         -DE/DX =    0.0                 !
 ! A14   A(1,4,2)              108.0944         -DE/DX =    0.0                 !
 ! A15   A(1,4,10)             110.4487         -DE/DX =    0.0                 !
 ! A16   A(1,4,11)             110.4904         -DE/DX =    0.0                 !
 ! A17   A(2,4,10)             109.6852         -DE/DX =    0.0                 !
 ! A18   A(2,4,11)             110.0622         -DE/DX =    0.0                 !
 ! A19   A(10,4,11)            108.0607         -DE/DX =    0.0                 !
 ! A20   A(3,5,12)             110.7497         -DE/DX =    0.0                 !
 ! A21   A(3,5,13)             111.6028         -DE/DX =    0.0                 !
 ! A22   A(3,5,14)             111.0093         -DE/DX =    0.0                 !
 ! A23   A(12,5,13)            107.8282         -DE/DX =    0.0                 !
 ! A24   A(12,5,14)            107.6069         -DE/DX =    0.0                 !
 ! A25   A(13,5,14)            107.8796         -DE/DX =    0.0                 !
 ! D1    D(15,1,4,2)          -178.7026         -DE/DX =    0.0                 !
 ! D2    D(15,1,4,10)          -58.6998         -DE/DX =    0.0                 !
 ! D3    D(15,1,4,11)           60.8091         -DE/DX =    0.0                 !
 ! D4    D(4,2,3,5)           -179.4202         -DE/DX =    0.0                 !
 ! D5    D(4,2,3,6)             58.7291         -DE/DX =    0.0                 !
 ! D6    D(4,2,3,7)            -57.2233         -DE/DX =    0.0                 !
 ! D7    D(8,2,3,5)             59.1622         -DE/DX =    0.0                 !
 ! D8    D(8,2,3,6)            -62.6886         -DE/DX =    0.0                 !
 ! D9    D(8,2,3,7)           -178.6409         -DE/DX =    0.0                 !
 ! D10   D(9,2,3,5)            -58.1924         -DE/DX =    0.0                 !
 ! D11   D(9,2,3,6)            179.9569         -DE/DX =    0.0                 !
 ! D12   D(9,2,3,7)             64.0045         -DE/DX =    0.0                 !
 ! D13   D(3,2,4,1)             63.1821         -DE/DX =    0.0                 !
 ! D14   D(3,2,4,10)           -57.299          -DE/DX =    0.0                 !
 ! D15   D(3,2,4,11)          -176.0623         -DE/DX =    0.0                 !
 ! D16   D(8,2,4,1)           -174.6897         -DE/DX =    0.0                 !
 ! D17   D(8,2,4,10)            64.8292         -DE/DX =    0.0                 !
 ! D18   D(8,2,4,11)           -53.934          -DE/DX =    0.0                 !
 ! D19   D(9,2,4,1)            -58.717          -DE/DX =    0.0                 !
 ! D20   D(9,2,4,10)          -179.1981         -DE/DX =    0.0                 !
 ! D21   D(9,2,4,11)            62.0387         -DE/DX =    0.0                 !
 ! D22   D(2,3,5,12)            60.0729         -DE/DX =    0.0                 !
 ! D23   D(2,3,5,13)          -179.7843         -DE/DX =    0.0                 !
 ! D24   D(2,3,5,14)           -59.3994         -DE/DX =    0.0                 !
 ! D25   D(6,3,5,12)          -178.5087         -DE/DX =    0.0                 !
 ! D26   D(6,3,5,13)           -58.3658         -DE/DX =    0.0                 !
 ! D27   D(6,3,5,14)            62.0191         -DE/DX =    0.0                 !
 ! D28   D(7,3,5,12)           -61.4224         -DE/DX =    0.0                 !
 ! D29   D(7,3,5,13)            58.7204         -DE/DX =    0.0                 !
 ! D30   D(7,3,5,14)           179.1053         -DE/DX =    0.0                 !
 --------------------------------------------------------------------------------
 Lowest energy point so far.  Saving SCF results.
 Iteration  1 RMS(Cart)=  0.01704303 RMS(Int)=  0.05546873
 Iteration  2 RMS(Cart)=  0.00627343 RMS(Int)=  0.05340186
 Iteration  3 RMS(Cart)=  0.00232183 RMS(Int)=  0.05275381
 Iteration  4 RMS(Cart)=  0.00086205 RMS(Int)=  0.05252997
 Iteration  5 RMS(Cart)=  0.00032068 RMS(Int)=  0.05244908
 Iteration  6 RMS(Cart)=  0.00011935 RMS(Int)=  0.05241930
 Iteration  7 RMS(Cart)=  0.00004443 RMS(Int)=  0.05240827
 Iteration  8 RMS(Cart)=  0.00001654 RMS(Int)=  0.05240416
 Iteration  9 RMS(Cart)=  0.00000616 RMS(Int)=  0.05240264
 Iteration 10 RMS(Cart)=  0.00000229 RMS(Int)=  0.05240207
 Iteration 11 RMS(Cart)=  0.00000085 RMS(Int)=  0.05240186
 Iteration  1 RMS(Cart)=  0.01705634 RMS(Int)=  0.04186585
 Iteration  2 RMS(Cart)=  0.01707372 RMS(Int)=  0.03899376
 Iteration  3 RMS(Cart)=  0.01708727 RMS(Int)=  0.04141067
 Iteration  4 RMS(Cart)=  0.01590921 RMS(Int)=  0.04775897
 Iteration  5 RMS(Cart)=  0.00998830 RMS(Int)=  0.05316795
 Iteration  6 RMS(Cart)=  0.00625568 RMS(Int)=  0.05695535
 Iteration  7 RMS(Cart)=  0.00391291 RMS(Int)=  0.05945022
 Iteration  8 RMS(Cart)=  0.00244580 RMS(Int)=  0.06105267
 Iteration  9 RMS(Cart)=  0.00152817 RMS(Int)=  0.06206936
 Iteration 10 RMS(Cart)=  0.00095461 RMS(Int)=  0.06271019
 Iteration 11 RMS(Cart)=  0.00059623 RMS(Int)=  0.06311261
 Iteration 12 RMS(Cart)=  0.00037237 RMS(Int)=  0.06336476
 Iteration 13 RMS(Cart)=  0.00023255 RMS(Int)=  0.06352255
 Iteration 14 RMS(Cart)=  0.00014522 RMS(Int)=  0.06362121
 Iteration 15 RMS(Cart)=  0.00009069 RMS(Int)=  0.06368287
 Iteration 16 RMS(Cart)=  0.00005663 RMS(Int)=  0.06372139
 Iteration 17 RMS(Cart)=  0.00003536 RMS(Int)=  0.06374546
 Iteration 18 RMS(Cart)=  0.00002208 RMS(Int)=  0.06376049
 Iteration 19 RMS(Cart)=  0.00001379 RMS(Int)=  0.06376987
 Iteration 20 RMS(Cart)=  0.00000861 RMS(Int)=  0.06377573
 Iteration 21 RMS(Cart)=  0.00000538 RMS(Int)=  0.06377940
 Iteration 22 RMS(Cart)=  0.00000336 RMS(Int)=  0.06378168
 Iteration 23 RMS(Cart)=  0.00000210 RMS(Int)=  0.06378311
 Iteration 24 RMS(Cart)=  0.00000131 RMS(Int)=  0.06378400
 Iteration 25 RMS(Cart)=  0.00000082 RMS(Int)=  0.06378456
 GradGradGradGradGradGradGradGradGradGradGradGradGradGradGradGradGradGrad

 Leave Link  103 at Thu Mar 28 22:49:23 2019, MaxMem=   671088640 cpu:               1.3 elap:               0.1
 (Enter /shared/centos7/gaussian/g16/l202.exe)
                          Input orientation:                          
 ---------------------------------------------------------------------
 Center     Atomic      Atomic             Coordinates (Angstroms)
 Number     Number       Type             X           Y           Z
 ---------------------------------------------------------------------
      1          8           0        1.908912   -0.621712   -0.356324
      2          6           0        0.013715    0.661416   -0.311661
      3          6           0       -0.941698   -0.313764    0.367941
      4          6           0        1.420819    0.568022    0.243193
      5          6           0       -2.376986   -0.144156   -0.115242
      6          1           0       -0.895039   -0.163264    1.450581
      7          1           0       -0.600213   -1.332475    0.179896
      8          1           0       -0.436112    1.598601    0.030033
      9          1           0        0.085624    0.708662   -1.402237
     10          1           0        1.434254    0.218170    1.288137
     11          1           0        2.077366    1.407990   -0.007525
     12          1           0       -2.445904   -0.317064   -1.190549
     13          1           0       -3.051647   -0.842694    0.379038
     14          1           0       -2.738787    0.866968    0.080556
     15          1           0        2.786474   -0.810238   -0.020857
 ---------------------------------------------------------------------
                    Distance matrix (angstroms):
                    1          2          3          4          5
     1  O    0.000000
     2  C    2.289145   0.000000
     3  C    2.957257   1.525008   0.000000
     4  C    1.418846   1.515429   2.524795   0.000000
     5  C    4.319155   2.530410   1.523905   3.880592   0.000000
     6  H    3.367079   2.147424   1.094046   2.712151   2.156000
     7  H    2.662409   2.143394   1.090754   2.774970   2.157807
     8  H    3.252414   1.094264   2.006723   2.134413   2.612527
     9  H    2.487610   1.093965   2.287854   2.123667   2.906562
    10  H    1.906556   2.184892   2.602856   1.102037   4.077537
    11  H    2.066332   2.215520   3.495734   1.095199   4.718264
    12  H    4.444453   2.789192   2.165996   4.217883   1.091297
    13  H    5.019635   3.483655   2.175264   4.691643   1.089695
    14  H    4.899810   2.787894   2.169389   4.173504   1.091608
    15  H    0.958225   3.152543   3.781126   1.958147   5.207100
                    6          7          8          9         10
     6  H    0.000000
     7  H    1.751746   0.000000
     8  H    2.309273   2.939488   0.000000
     9  H    3.140148   2.672032   1.765106   0.000000
    10  H    2.365901   2.787786   2.643234   3.049180   0.000000
    11  H    3.664711   3.835975   2.520975   2.530083   1.872967
    12  H    3.066660   2.513116   3.032962   2.739628   4.635298
    13  H    2.502156   2.507802   3.594822   3.927100   4.698425
    14  H    2.517490   3.069351   2.416640   3.193906   4.392433
    15  H    4.017119   3.432591   4.023700   3.392618   2.144665
                   11         12         13         14         15
    11  H    0.000000
    12  H    4.983506   0.000000
    13  H    5.614426   1.762616   0.000000
    14  H    4.847246   1.761652   1.763496   0.000000
    15  H    2.328851   5.384160   5.851891   5.775103   0.000000
 Stoichiometry    C4H10O
 Framework group  C1[X(C4H10O)]
 Deg. of freedom    39
 Full point group                 C1      NOp   1
 RotChk:  IX=0 Diff= 4.91D-02
 Largest Abelian subgroup         C1      NOp   1
 Largest concise Abelian subgroup C1      NOp   1
                         Standard orientation:                         
 ---------------------------------------------------------------------
 Center     Atomic      Atomic             Coordinates (Angstroms)
 Number     Number       Type             X           Y           Z
 ---------------------------------------------------------------------
      1          8           0        1.900838   -0.665620   -0.314279
      2          6           0        0.024231    0.644641   -0.272427
      3          6           0       -0.958137   -0.332575    0.364479
      4          6           0        1.419045    0.516052    0.305922
      5          6           0       -2.381362   -0.129168   -0.140834
      6          1           0       -0.929785   -0.209882    1.451254
      7          1           0       -0.628187   -1.351344    0.157145
      8          1           0       -0.418140    1.579728    0.084412
      9          1           0        0.117475    0.718004   -1.359939
     10          1           0        1.407531    0.140054    1.341769
     11          1           0        2.092519    1.351946    0.088727
     12          1           0       -2.432437   -0.274105   -1.221257
     13          1           0       -3.075476   -0.829498    0.323040
     14          1           0       -2.731881    0.882133    0.073681
     15          1           0        2.769017   -0.875776    0.032557
 ---------------------------------------------------------------------
 Rotational constants (GHZ):          13.0552503           2.3807689           2.2418790
 Leave Link  202 at Thu Mar 28 22:49:23 2019, MaxMem=   671088640 cpu:               0.5 elap:               0.0
 (Enter /shared/centos7/gaussian/g16/l301.exe)
 Standard basis: 6-311+G(2df,2p) (5D, 7F)
 Ernie: Thresh=  0.10000D-02 Tol=  0.10000D-05 Strict=F.
 There are   285 symmetry adapted cartesian basis functions of A   symmetry.
 There are   260 symmetry adapted basis functions of A   symmetry.
   260 basis functions,   370 primitive gaussians,   285 cartesian basis functions
    21 alpha electrons       21 beta electrons
       nuclear repulsion energy       189.3898788841 Hartrees.
 IExCor= 4336 DFT=T Ex+Corr=M062X ExCW=0 ScaHFX=  0.540000
 ScaDFX=  1.000000  1.000000  1.000000  1.000000 ScalE2=  1.000000  1.000000
 IRadAn=      5 IRanWt=     -1 IRanGd=            0 ICorTp=0 IEmpDi=  4
 NAtoms=   15 NActive=   15 NUniq=   15 SFac= 1.00D+00 NAtFMM=   60 NAOKFM=F Big=F
 Integral buffers will be    131072 words long.
 Raffenetti 2 integral format.
 Two-electron integral symmetry is turned on.
 Leave Link  301 at Thu Mar 28 22:49:23 2019, MaxMem=   671088640 cpu:               1.3 elap:               0.1
 (Enter /shared/centos7/gaussian/g16/l302.exe)
 NPDir=0 NMtPBC=     1 NCelOv=     1 NCel=       1 NClECP=     1 NCelD=      1
         NCelK=      1 NCelE2=     1 NClLst=     1 CellRange=     0.0.
 One-electron integrals computed using PRISM.
 One-electron integral symmetry used in STVInt
 NBasis=   260 RedAO= T EigKep=  1.69D-05  NBF=   260
 NBsUse=   260 1.00D-06 EigRej= -1.00D+00 NBFU=   260
 Precomputing XC quadrature grid using
 IXCGrd= 4 IRadAn=           5 IRanWt=          -1 IRanGd=           0 AccXCQ= 0.00D+00.
 Generated NRdTot=       0 NPtTot=           0 NUsed=           0 NTot=          32
 NSgBfM=   285   285   285   285   285 MxSgAt=    15 MxSgA2=    15.
 Leave Link  302 at Thu Mar 28 22:49:24 2019, MaxMem=   671088640 cpu:               9.1 elap:               0.5
 (Enter /shared/centos7/gaussian/g16/l303.exe)
 DipDrv:  MaxL=1.
 Leave Link  303 at Thu Mar 28 22:49:24 2019, MaxMem=   671088640 cpu:               0.7 elap:               0.1
 (Enter /shared/centos7/gaussian/g16/l401.exe)
 Initial guess from the checkpoint file:  "/scratch/underkoffler.c/gaussian_scratch/Gau-13859.chk"
 B after Tr=    -0.000000   -0.000000   -0.000000
         Rot=    0.999844   -0.017327    0.003352    0.000954 Ang=  -2.03 deg.
 Guess basis will be translated and rotated to current coordinates.
 JPrj=2 DoOrth=T DoCkMO=T.
 Generating alternative initial guess.
 ExpMin= 4.38D-02 ExpMax= 8.59D+03 ExpMxC= 1.30D+03 IAcc=2 IRadAn=         4 AccDes= 0.00D+00
 Harris functional with IExCor= 1009 and IRadAn=       4 diagonalized for initial guess.
 HarFok:  IExCor= 1009 AccDes= 0.00D+00 IRadAn=         4 IDoV= 1 UseB2=F ITyADJ=14
 ICtDFT=  3500011 ScaDFX=  1.000000  1.000000  1.000000  1.000000
 FoFCou: FMM=F IPFlag=           0 FMFlag=      100000 FMFlg1=           0
         NFxFlg=           0 DoJE=T BraDBF=F KetDBF=T FulRan=T
         wScrn=  0.000000 ICntrl=       500 IOpCl=  0 I1Cent=   200000004 NGrid=           0
         NMat0=    1 NMatS0=      1 NMatT0=    0 NMatD0=    1 NMtDS0=    0 NMtDT0=    0
 Petite list used in FoFCou.
 Harris En= -233.586262445464    
 Leave Link  401 at Thu Mar 28 22:49:25 2019, MaxMem=   671088640 cpu:              19.6 elap:               1.0
 (Enter /shared/centos7/gaussian/g16/l502.exe)
 Integral symmetry usage will be decided dynamically.
 Closed shell SCF:
 Using DIIS extrapolation, IDIIS=  1040.
 NGot=   671088640 LenX=   670917793 LenY=   670836127
 Requested convergence on RMS density matrix=1.00D-08 within 128 cycles.
 Requested convergence on MAX density matrix=1.00D-06.
 Requested convergence on             energy=1.00D-06.
 No special actions if energy rises.
 Fock matrices will be formed incrementally for  20 cycles.

 Cycle   1  Pass 1  IDiag  1:
 FoFJK:  IHMeth= 1 ICntrl=       0 DoSepK=F KAlg= 0 I1Cent=           0 FoldK=F
 IRaf= 970000000 NMat=       1 IRICut=       1 DoRegI=T DoRafI=F ISym2E= 0 IDoP0=0 IntGTp=1.
 FoFCou: FMM=F IPFlag=           0 FMFlag=      100000 FMFlg1=           0
         NFxFlg=           0 DoJE=F BraDBF=F KetDBF=F FulRan=T
         wScrn=  0.000000 ICntrl=         0 IOpCl=  0 I1Cent=           0 NGrid=           0
         NMat0=    1 NMatS0=      1 NMatT0=    0 NMatD0=    1 NMtDS0=    0 NMtDT0=    0
 Symmetry not used in FoFCou.
 E= -233.595554065551    
 DIIS: error= 5.18D-03 at cycle   1 NSaved=   1.
 NSaved= 1 IEnMin= 1 EnMin= -233.595554065551     IErMin= 1 ErrMin= 5.18D-03
 ErrMax= 5.18D-03  0.00D+00 EMaxC= 1.00D-01 BMatC= 1.58D-02 BMatP= 1.58D-02
 IDIUse=3 WtCom= 9.48D-01 WtEn= 5.18D-02
 Coeff-Com:  0.100D+01
 Coeff-En:   0.100D+01
 Coeff:      0.100D+01
 Gap=     0.647 Goal=   None    Shift=    0.000
 GapD=    0.647 DampG=2.000 DampE=1.000 DampFc=2.0000 IDamp=-1.
 RMSDP=1.59D-03 MaxDP=9.39D-02              OVMax= 3.76D-02

 Cycle   2  Pass 1  IDiag  1:
 RMSU=  1.51D-03    CP:  9.48D-01
 E= -233.616205460873     Delta-E=       -0.020651395322 Rises=F Damp=F
 DIIS: error= 1.19D-03 at cycle   2 NSaved=   2.
 NSaved= 2 IEnMin= 2 EnMin= -233.616205460873     IErMin= 2 ErrMin= 1.19D-03
 ErrMax= 1.19D-03  0.00D+00 EMaxC= 1.00D-01 BMatC= 5.57D-04 BMatP= 1.58D-02
 IDIUse=3 WtCom= 9.88D-01 WtEn= 1.19D-02
 Coeff-Com: -0.866D-01 0.109D+01
 Coeff-En:   0.000D+00 0.100D+01
 Coeff:     -0.856D-01 0.109D+01
 Gap=     0.360 Goal=   None    Shift=    0.000
 RMSDP=2.04D-04 MaxDP=7.86D-03 DE=-2.07D-02 OVMax= 8.27D-03

 Cycle   3  Pass 1  IDiag  1:
 RMSU=  1.68D-04    CP:  9.45D-01  1.07D+00
 E= -233.617002966251     Delta-E=       -0.000797505378 Rises=F Damp=F
 DIIS: error= 7.03D-04 at cycle   3 NSaved=   3.
[...]
           D10        -57.94113 -61.14609 -58.25298
           D11       -179.98697 176.76175 179.89558
           D12         64.07171  60.96374  63.94575
           D13          4.18228  36.14702  63.19476
           D14       -117.29893 -87.29880 -57.29883
           D15        125.07887 156.82171-176.05482
           D16        126.60418 159.59709-174.66558
           D17          5.12297  36.15127  64.84083
           D18       -112.49923 -79.72822 -53.91516
           D19       -117.67830 -84.52941 -58.70367
           D20        120.84049 152.02477-179.19727
           D21          3.21829  36.14527  62.04675
           D22         59.55647  58.89777  60.06394
           D23        179.73759 178.96439-179.79240
           D24        -60.02842 -60.63312 -59.40840
           D25       -178.67241-179.21606-178.51703
           D26        -58.49128 -59.14943 -58.37336
           D27         61.74270  61.25306  62.01064
           D28        -62.06303 -62.42064 -61.43470
           D29         58.11810  57.64599  58.70896
           D30        178.35208 178.04848 179.09296
 Largest change from initial coordinates is atom   12       0.001 Angstoms.
 GradGradGradGradGradGradGradGradGradGradGradGradGradGradGradGradGradGrad

 Leave Link  103 at Thu Mar 28 23:40:06 2019, MaxMem=   671088640 cpu:               0.7 elap:               0.1
 (Enter /shared/centos7/gaussian/g16/l202.exe)
                          Input orientation:                          
 ---------------------------------------------------------------------
 Center     Atomic      Atomic             Coordinates (Angstroms)
 Number     Number       Type             X           Y           Z
 ---------------------------------------------------------------------
      1          8           0        1.706006   -0.251657    1.236217
      2          6           0        0.050264   -0.295646   -0.466138
      3          6           0       -0.960078    0.541340    0.310317
      4          6           0        1.487167    0.049084   -0.132490
      5          6           0       -2.398224    0.170152   -0.030557
      6          1           0       -0.789142    1.599368    0.092696
      7          1           0       -0.781501    0.410216    1.377932
      8          1           0       -0.100531   -0.157239   -1.540240
      9          1           0       -0.110045   -1.356229   -0.254694
     10          1           0        1.665790    1.113570   -0.324099
     11          1           0        2.168292   -0.528375   -0.765224
     12          1           0       -2.593435   -0.876873    0.205305
     13          1           0       -3.111681    0.776169    0.526599
     14          1           0       -2.597163    0.311550   -1.094137
     15          1           0        2.605059   -0.020968    1.473492
 ---------------------------------------------------------------------
                    Distance matrix (angstroms):
                    1          2          3          4          5
     1  O    0.000000
     2  C    2.375169   0.000000
     3  C    2.931577   1.524539   0.000000
     4  C    1.418342   1.514876   2.535232   0.000000
     5  C    4.315941   2.530176   1.523889   3.888612   0.000000
     6  H    3.310544   2.146620   1.093618   2.763271   2.155688
     7  H    2.577955   2.142584   1.090360   2.749299   2.157606
     8  H    3.313790   1.093431   2.156710   2.131927   2.768704
     9  H    2.596331   1.093271   2.154660   2.130944   2.759681
    10  H    2.073655   2.148486   2.761361   1.096244   4.182393
    11  H    2.072690   2.151664   3.476748   1.094415   4.677685
    12  H    4.465296   2.788871   2.165689   4.197953   1.090871
    13  H    4.976956   3.483132   2.175159   4.702387   1.089357
    14  H    4.925953   2.787819   2.169179   4.204212   1.091225
    15  H    0.958025   3.219408   3.792014   1.958001   5.227956
                    6          7          8          9         10
     6  H    0.000000
     7  H    1.750992   0.000000
     8  H    2.495262   3.049829   0.000000
     9  H    3.052442   2.497328   1.757924   0.000000
    10  H    2.537008   3.062817   2.492759   3.042747   0.000000
    11  H    3.742958   3.765016   2.426097   2.477257   1.772874
    12  H    3.065929   2.512918   3.127199   2.570721   4.731081
    13  H    2.502022   2.507673   3.769628   3.763955   4.864335
    14  H    2.517138   3.068792   2.579136   3.109969   4.405560
    15  H    4.006580   3.415236   4.052328   3.484441   2.323948
                   11         12         13         14         15
    11  H    0.000000
    12  H    4.872106   0.000000
    13  H    5.590058   1.761919   0.000000
    14  H    4.850074   1.760941   1.762777   0.000000
    15  H    2.336680   5.418967   5.849200   5.810886   0.000000
 Stoichiometry    C4H10O
 Framework group  C1[X(C4H10O)]
 Deg. of freedom    39
 Full point group                 C1      NOp   1
 RotChk:  IX=0 Diff= 7.23D-16
 Largest Abelian subgroup         C1      NOp   1
 Largest concise Abelian subgroup C1      NOp   1
                         Standard orientation:                         
 ---------------------------------------------------------------------
 Center     Atomic      Atomic             Coordinates (Angstroms)
 Number     Number       Type             X           Y           Z
 ---------------------------------------------------------------------
      1          8           0        1.893676   -0.730699   -0.256862
      2          6           0        0.000183    0.702871   -0.225408
      3          6           0       -0.947885   -0.342795    0.350759
      4          6           0        1.433221    0.519291    0.230169
      5          6           0       -2.380818   -0.147701   -0.129740
      6          1           0       -0.913337   -0.292592    1.442678
      7          1           0       -0.590652   -1.334877    0.073194
      8          1           0       -0.331454    1.703902    0.063636
      9          1           0       -0.024661    0.660630   -1.317580
     10          1           0        1.478849    0.544096    1.325182
     11          1           0        2.056252    1.333031   -0.153761
     12          1           0       -2.437359   -0.221024   -1.216675
     13          1           0       -3.050294   -0.897365    0.290385
     14          1           0       -2.758385    0.835781    0.154827
     15          1           0        2.793434   -0.875982    0.038332
 ---------------------------------------------------------------------
 Rotational constants (GHZ):          12.5739617           2.4005609           2.2131575
 Leave Link  202 at Thu Mar 28 23:40:06 2019, MaxMem=   671088640 cpu:               0.5 elap:               0.0
 (Enter /shared/centos7/gaussian/g16/l601.exe)
 Copying SCF densities to generalized density rwf, IOpCl= 0 IROHF=0.

 **********************************************************************

            Population analysis using the SCF density.

 **********************************************************************

 Orbital symmetries:
       Occupied  (A) (A) (A) (A) (A) (A) (A) (A) (A) (A) (A) (A)
                 (A) (A) (A) (A) (A) (A) (A) (A) (A)
       Virtual   (A) (A) (A) (A) (A) (A) (A) (A) (A) (A) (A) (A)
                 (A) (A) (A) (A) (A) (A) (A) (A) (A) (A) (A) (A)
                 (A) (A) (A) (A) (A) (A) (A) (A) (A) (A) (A) (A)
                 (A) (A) (A) (A) (A) (A) (A) (A) (A) (A) (A) (A)
                 (A) (A) (A) (A) (A) (A) (A) (A) (A) (A) (A) (A)
                 (A) (A) (A) (A) (A) (A) (A) (A) (A) (A) (A) (A)
                 (A) (A) (A) (A) (A) (A) (A) (A) (A) (A) (A) (A)
                 (A) (A) (A) (A) (A) (A) (A) (A) (A) (A) (A) (A)
                 (A) (A) (A) (A) (A) (A) (A) (A) (A) (A) (A) (A)
                 (A) (A) (A) (A) (A) (A) (A) (A) (A) (A) (A) (A)
                 (A) (A) (A) (A) (A) (A) (A) (A) (A) (A) (A) (A)
                 (A) (A) (A) (A) (A) (A) (A) (A) (A) (A) (A) (A)
                 (A) (A) (A) (A) (A) (A) (A) (A) (A) (A) (A) (A)
                 (A) (A) (A) (A) (A) (A) (A) (A) (A) (A) (A) (A)
                 (A) (A) (A) (A) (A) (A) (A) (A) (A) (A) (A) (A)
                 (A) (A) (A) (A) (A) (A) (A) (A) (A) (A) (A) (A)
                 (A) (A) (A) (A) (A) (A) (A) (A) (A) (A) (A) (A)
                 (A) (A) (A) (A) (A) (A) (A) (A) (A) (A) (A) (A)
                 (A) (A) (A) (A) (A) (A) (A) (A) (A) (A) (A) (A)
                 (A) (A) (A) (A) (A) (A) (A) (A) (A) (A) (A)
 The electronic state is 1-A.
 Alpha  occ. eigenvalues --  -19.61954 -10.57863 -10.52543 -10.52138 -10.51631
 Alpha  occ. eigenvalues --   -1.14353  -0.89184  -0.81400  -0.71336  -0.65698
 Alpha  occ. eigenvalues --   -0.59980  -0.53701  -0.51384  -0.50074  -0.45568
 Alpha  occ. eigenvalues --   -0.44164  -0.42680  -0.39545  -0.38469  -0.37873
 Alpha  occ. eigenvalues --   -0.34702
 Alpha virt. eigenvalues --    0.01274   0.02685   0.03452   0.03992   0.05674
 Alpha virt. eigenvalues --    0.06156   0.06632   0.08093   0.08656   0.09168
 Alpha virt. eigenvalues --    0.10242   0.10963   0.13184   0.15204   0.16367
 Alpha virt. eigenvalues --    0.17754   0.18637   0.19795   0.21054   0.21177
 Alpha virt. eigenvalues --    0.22302   0.23119   0.23796   0.25007   0.25954
 Alpha virt. eigenvalues --    0.26992   0.27646   0.28552   0.29208   0.30371
 Alpha virt. eigenvalues --    0.31130   0.31735   0.34213   0.37551   0.42444
 Alpha virt. eigenvalues --    0.43298   0.45420   0.46200   0.47548   0.49583
 Alpha virt. eigenvalues --    0.52716   0.53556   0.55062   0.56334   0.57324
 Alpha virt. eigenvalues --    0.58051   0.59183   0.60466   0.61772   0.62712
 Alpha virt. eigenvalues --    0.63205   0.64876   0.65148   0.66074   0.68244
 Alpha virt. eigenvalues --    0.69635   0.70418   0.72208   0.74831   0.78530
 Alpha virt. eigenvalues --    0.80967   0.82295   0.83571   0.85631   0.88092
 Alpha virt. eigenvalues --    0.88906   0.92741   0.94402   0.96348   1.01276
 Alpha virt. eigenvalues --    1.04453   1.04782   1.06585   1.10178   1.12048
 Alpha virt. eigenvalues --    1.13352   1.14065   1.17252   1.18213   1.18945
 Alpha virt. eigenvalues --    1.19440   1.20805   1.22241   1.24426   1.25510
 Alpha virt. eigenvalues --    1.26664   1.27741   1.29771   1.31099   1.32218
 Alpha virt. eigenvalues --    1.35981   1.37876   1.39780   1.40989   1.42279
 Alpha virt. eigenvalues --    1.44007   1.44929   1.46300   1.47182   1.48829
 Alpha virt. eigenvalues --    1.49339   1.54065   1.54936   1.56658   1.58574
 Alpha virt. eigenvalues --    1.60212   1.61863   1.63035   1.64299   1.65856
 Alpha virt. eigenvalues --    1.68966   1.69965   1.74419   1.85138   1.91330
 Alpha virt. eigenvalues --    2.09849   2.13034   2.27766   2.35044   2.41338
 Alpha virt. eigenvalues --    2.47816   2.50422   2.51992   2.55981   2.58023
 Alpha virt. eigenvalues --    2.63273   2.67308   2.75843   2.76967   2.79106
 Alpha virt. eigenvalues --    2.81350   2.84163   2.85750   2.89575   2.91525
 Alpha virt. eigenvalues --    2.94323   2.95915   2.99489   3.04360   3.04537
 Alpha virt. eigenvalues --    3.09329   3.14332   3.15425   3.16718   3.17895
 Alpha virt. eigenvalues --    3.22627   3.24139   3.26578   3.27873   3.32355
 Alpha virt. eigenvalues --    3.35163   3.36084   3.38977   3.39180   3.40352
 Alpha virt. eigenvalues --    3.45553   3.46831   3.52665   3.54030   3.56889
 Alpha virt. eigenvalues --    3.58847   3.59782   3.61624   3.62899   3.66203
 Alpha virt. eigenvalues --    3.70600   3.70889   3.72330   3.76062   3.78029
 Alpha virt. eigenvalues --    3.79663   3.84661   3.87976   3.89141   3.92668
 Alpha virt. eigenvalues --    3.97122   3.99284   4.01225   4.02389   4.03126
 Alpha virt. eigenvalues --    4.04985   4.08504   4.09820   4.14737   4.15705
 Alpha virt. eigenvalues --    4.19457   4.21039   4.23117   4.24529   4.25927
 Alpha virt. eigenvalues --    4.28396   4.30023   4.32088   4.33134   4.36587
 Alpha virt. eigenvalues --    4.39772   4.44004   4.44660   4.48108   4.53432
 Alpha virt. eigenvalues --    4.53896   4.56103   4.57378   4.60566   4.63910
 Alpha virt. eigenvalues --    4.65792   4.68269   4.79836   4.80779   5.02488
 Alpha virt. eigenvalues --    5.20079   5.21322   5.23305   5.28015   5.36286
 Alpha virt. eigenvalues --    5.41982   5.47043   5.49683   5.53870   5.54641
 Alpha virt. eigenvalues --    5.59704   5.60259   5.65812   5.67630   5.70070
 Alpha virt. eigenvalues --    5.84830   5.94504   6.49648   6.98556   7.17295
 Alpha virt. eigenvalues --    7.21312   7.24412   7.55757   7.65312  24.28232
 Alpha virt. eigenvalues --   24.39449  24.44796  24.51529  50.15258
          Condensed to atoms (all electrons):
               1          2          3          4          5          6
     1  O    8.154588  -0.082713  -0.003348   0.152167  -0.000310  -0.001201
     2  C   -0.082713   5.714583  -0.220962  -0.007185   0.169101  -0.031196
     3  C   -0.003348  -0.220962   5.519369   0.160759   0.019570   0.428881
     4  C    0.152167  -0.007185   0.160759   5.255405  -0.107999  -0.014786
     5  C   -0.000310   0.169101   0.019570  -0.107999   5.293586  -0.029403
     6  H   -0.001201  -0.031196   0.428881  -0.014786  -0.029403   0.539061
     7  H   -0.006059  -0.062447   0.476630   0.010959  -0.057061  -0.034052
     8  H    0.008925   0.395673  -0.004765  -0.016099  -0.018169  -0.007497
     9  H   -0.009797   0.496769  -0.084486  -0.062123   0.007425   0.005177
    10  H   -0.049827   0.005835  -0.046985   0.433295   0.006473   0.002768
    11  H   -0.043796  -0.074611   0.023272   0.465352  -0.000646   0.000098
    12  H   -0.000285  -0.010296  -0.032720  -0.003551   0.420447   0.006229
    13  H    0.000093   0.020713  -0.048017   0.002476   0.409575  -0.004588
    14  H   -0.000107  -0.031997   0.006830   0.003032   0.393426  -0.008283
    15  H    0.231133  -0.030594   0.008494   0.027563  -0.001830  -0.000104
               7          8          9         10         11         12
     1  O   -0.006059   0.008925  -0.009797  -0.049827  -0.043796  -0.000285
     2  C   -0.062447   0.395673   0.496769   0.005835  -0.074611  -0.010296
     3  C    0.476630  -0.004765  -0.084486  -0.046985   0.023272  -0.032720
     4  C    0.010959  -0.016099  -0.062123   0.433295   0.465352  -0.003551
     5  C   -0.057061  -0.018169   0.007425   0.006473  -0.000646   0.420447
     6  H   -0.034052  -0.007497   0.005177   0.002768   0.000098   0.006229
     7  H    0.494749   0.004371  -0.003525   0.001201  -0.000806  -0.006809
     8  H    0.004371   0.518182  -0.028883  -0.005019  -0.003309  -0.000584
     9  H   -0.003525  -0.028883   0.489899   0.006025  -0.006735   0.001343
    10  H    0.001201  -0.005019   0.006025   0.561163  -0.046506  -0.000014
    11  H   -0.000806  -0.003309  -0.006735  -0.046506   0.556442  -0.000004
    12  H   -0.006809  -0.000584   0.001343  -0.000014  -0.000004   0.551081
    13  H   -0.004632  -0.000009  -0.000089  -0.000024   0.000015  -0.024343
    14  H    0.006007   0.002527  -0.000426  -0.000014  -0.000039  -0.038814
    15  H   -0.000017  -0.000280   0.000233  -0.007005  -0.005082  -0.000003
              13         14         15
     1  O    0.000093  -0.000107   0.231133
     2  C    0.020713  -0.031997  -0.030594
     3  C   -0.048017   0.006830   0.008494
     4  C    0.002476   0.003032   0.027563
     5  C    0.409575   0.393426  -0.001830
     6  H   -0.004588  -0.008283  -0.000104
     7  H   -0.004632   0.006007  -0.000017
     8  H   -0.000009   0.002527  -0.000280
     9  H   -0.000089  -0.000426   0.000233
    10  H   -0.000024  -0.000014  -0.007005
    11  H    0.000015  -0.000039  -0.005082
    12  H   -0.024343  -0.038814  -0.000003
    13  H    0.540364  -0.025618  -0.000001
    14  H   -0.025618   0.561250   0.000004
    15  H   -0.000001   0.000004   0.525519
 Mulliken charges:
               1
     1  O   -0.349463
     2  C   -0.250671
     3  C   -0.202524
     4  C   -0.299265
     5  C   -0.504185
     6  H    0.148894
     7  H    0.181491
     8  H    0.154934
     9  H    0.189195
    10  H    0.138634
    11  H    0.136356
    12  H    0.138325
    13  H    0.134085
    14  H    0.132222
    15  H    0.251970
 Sum of Mulliken charges =  -0.00000
 Mulliken charges with hydrogens summed into heavy atoms:
               1
     1  O   -0.097492
     2  C    0.093458
     3  C    0.127862
     4  C   -0.024275
     5  C   -0.099553
 Electronic spatial extent (au):  <R**2>=            597.9513
 Charge=             -0.0000 electrons
 Dipole moment (field-independent basis, Debye):
    X=              0.8769    Y=              0.9000    Z=              0.8875  Tot=              1.5383
 Quadrupole moment (field-independent basis, Debye-Ang):
   XX=            -28.9075   YY=            -34.0754   ZZ=            -33.9856
   XY=              0.4398   XZ=              1.8092   YZ=             -0.5455
 Traceless Quadrupole moment (field-independent basis, Debye-Ang):
   XX=              3.4153   YY=             -1.7525   ZZ=             -1.6628
   XY=              0.4398   XZ=              1.8092   YZ=             -0.5455
 Octapole moment (field-independent basis, Debye-Ang**2):
  XXX=             34.0076  YYY=             -2.0636  ZZZ=             -0.4022  XYY=              3.1552
  XXY=             -5.2654  XXZ=              4.4710  XZZ=              1.9386  YZZ=             -0.4963
  YYZ=              0.4618  XYZ=             -1.7702
 Hexadecapole moment (field-independent basis, Debye-Ang**3):
 XXXX=           -526.2068 YYYY=           -124.4398 ZZZZ=            -76.6032 XXXY=            -23.5276
 XXXZ=              4.0578 YYYX=             -6.8931 YYYZ=              1.1704 ZZZX=              1.5995
 ZZZY=              0.2637 XXYY=           -112.6263 XXZZ=           -115.5176 YYZZ=            -36.0625
 XXYZ=             -3.8771 YYXZ=             -1.5389 ZZXY=             -0.5582
 N-N= 1.887471923232D+02 E-N=-9.220552314324D+02  KE= 2.327040014108D+02
 No NMR shielding tensors so no spin-rotation constants.
 Leave Link  601 at Thu Mar 28 23:40:07 2019, MaxMem=   671088640 cpu:               5.6 elap:               0.3
 (Enter /shared/centos7/gaussian/g16/l9999.exe)
 1\1\GINC-C0040\Scan\RM062X\6-311+G(2df,2p)\C4H10O1\UNDERKOFFLER.C\28-M
 ar-2019\0\\#p m062x/6-311+g(2df,2p) Opt=(CalcFC,ModRedun)\\Gaussian In
 put Prepared from Scan Object\\0,1\O,1.7060064308,-0.2516568542,1.2362
 166477\C,0.0502637324,-0.2956461429,-0.4661377699\C,-0.9600782169,0.54
 13402776,0.3103172343\C,1.4871665554,0.0490844189,-0.1324897882\C,-2.3
 982236388,0.170152153,-0.0305570458\H,-0.7891420266,1.5993680018,0.092
 6957906\H,-0.7815011048,0.4102160206,1.3779318318\H,-0.1005306038,-0.1
 572391327,-1.5402401747\H,-0.1100447892,-1.3562285029,-0.2546937856\H,
 1.6657900336,1.1135701912,-0.3240985178\H,2.1682918807,-0.5283749423,-
 0.7652236275\H,-2.5934345968,-0.8768732516,0.2053050405\H,-3.111680602
 7,0.776168888,0.5265986856\H,-2.5971626091,0.311550288,-1.0941365566\H
 ,2.6050585558,-0.0209684123,1.4734920355\\Version=EM64L-G16RevA.03\Sta
 te=1-A\HF=-233.6332366,-233.6304804,-233.6278737,-233.6309327,-233.632
 7328,-233.6300231,-233.6279123,-233.6313931,-233.6330628,-233.6285984,
 -233.6254509,-233.6299976,-233.6332366\RMSD=8.769e-09,8.985e-09,8.055e
 -09,4.988e-09,4.562e-09,3.110e-09,8.647e-09,8.485e-09,3.490e-09,4.417e
 -09,5.111e-09,6.102e-09,6.246e-09\PG=C01 [X(C4H10O1)]\\@


 SCIENCE IS A VERY HUMAN FORM OF KNOWLEDGE.
 WE ARE ALWAYS AT THE BRINK OF THE KNOWN,
 WE ALWAYS FEEL FORWARD FOR WHAT IS HOPED.
 EVERY JUDGEMENT IN SCIENCE STANDS ON THE EDGE OF ERROR, AND IS PERSONAL.
 SCIENCE IS A TRIBUTE TO WHAT WE CAN KNOW ALTHOUGH WE ARE FALLIBLE.

                     -- J. BRONOWSKI
 Job cpu time:       0 days 18 hours 43 minutes 14.6 seconds.
 Elapsed time:       0 days  0 hours 56 minutes 36.3 seconds.
 File lengths (MBytes):  RWF=   1328 Int=      0 D2E=      0 Chk=     32 Scr=     32
 Normal termination of Gaussian 16 at Thu Mar 28 23:40:07 2019.
