 Entering Gaussian System, Link 0=g16
 Input=LRHPLDYGYMQRHN-UHFFFAOYSA-N_36by-10.0_tor03_a1.com
 Output=LRHPLDYGYMQRHN-UHFFFAOYSA-N_36by-10.0_tor03_a1.log
 Initial command:
 /shared/centos7/gaussian/g16/l1.exe "/scratch/underkoffler.c/gaussian_scratch/Gau-36007.inp" -scrdir="/scratch/underkoffler.c/gaussian_scratch/"
 Entering Link 1 = /shared/centos7/gaussian/g16/l1.exe PID=     36008.
  
 Copyright (c) 1988,1990,1992,1993,1995,1998,2003,2009,2016,
            Gaussian, Inc.  All Rights Reserved.
  
 This is part of the Gaussian(R) 16 program.  It is based on
 the Gaussian(R) 09 system (copyright 2009, Gaussian, Inc.),
 the Gaussian(R) 03 system (copyright 2003, Gaussian, Inc.),
 the Gaussian(R) 98 system (copyright 1998, Gaussian, Inc.),
 the Gaussian(R) 94 system (copyright 1995, Gaussian, Inc.),
 the Gaussian 92(TM) system (copyright 1992, Gaussian, Inc.),
 the Gaussian 90(TM) system (copyright 1990, Gaussian, Inc.),
 the Gaussian 88(TM) system (copyright 1988, Gaussian, Inc.),
 the Gaussian 86(TM) system (copyright 1986, Carnegie Mellon
 University), and the Gaussian 82(TM) system (copyright 1983,
 Carnegie Mellon University). Gaussian is a federally registered
 trademark of Gaussian, Inc.
  
 This software contains proprietary and confidential information,
 including trade secrets, belonging to Gaussian, Inc.
  
 This software is provided under written license and may be
 used, copied, transmitted, or stored only in accord with that
 written license.
  
 The following legend is applicable only to US Government
 contracts under FAR:
  
                    RESTRICTED RIGHTS LEGEND
  
 Use, reproduction and disclosure by the US Government is
 subject to restrictions as set forth in subparagraphs (a)
 and (c) of the Commercial Computer Software - Restricted
 Rights clause in FAR 52.227-19.
  
 Gaussian, Inc.
 340 Quinnipiac St., Bldg. 40, Wallingford CT 06492
  
  
 ---------------------------------------------------------------
 Warning -- This program may not be used in any manner that
 competes with the business of Gaussian, Inc. or will provide
 assistance to any competitor of Gaussian, Inc.  The licensee
 of this program is prohibited from giving any competitor of
 Gaussian, Inc. access to this program.  By using this program,
 the user acknowledges that Gaussian, Inc. is engaged in the
 business of creating and licensing software in the field of
 computational chemistry and represents and warrants to the
 licensee that it is not a competitor of Gaussian, Inc. and that
 it will not use this program in any manner prohibited above.
 ---------------------------------------------------------------
  

 Cite this work as:
 Gaussian 16, Revision A.03,
 M. J. Frisch, G. W. Trucks, H. B. Schlegel, G. E. Scuseria, 
 M. A. Robb, J. R. Cheeseman, G. Scalmani, V. Barone, 
 G. A. Petersson, H. Nakatsuji, X. Li, M. Caricato, A. V. Marenich, 
 J. Bloino, B. G. Janesko, R. Gomperts, B. Mennucci, H. P. Hratchian, 
 J. V. Ortiz, A. F. Izmaylov, J. L. Sonnenberg, D. Williams-Young, 
 F. Ding, F. Lipparini, F. Egidi, J. Goings, B. Peng, A. Petrone, 
 T. Henderson, D. Ranasinghe, V. G. Zakrzewski, J. Gao, N. Rega, 
 G. Zheng, W. Liang, M. Hada, M. Ehara, K. Toyota, R. Fukuda, 
 J. Hasegawa, M. Ishida, T. Nakajima, Y. Honda, O. Kitao, H. Nakai, 
 T. Vreven, K. Throssell, J. A. Montgomery, Jr., J. E. Peralta, 
 F. Ogliaro, M. J. Bearpark, J. J. Heyd, E. N. Brothers, K. N. Kudin, 
 V. N. Staroverov, T. A. Keith, R. Kobayashi, J. Normand, 
 K. Raghavachari, A. P. Rendell, J. C. Burant, S. S. Iyengar, 
 J. Tomasi, M. Cossi, J. M. Millam, M. Klene, C. Adamo, R. Cammi, 
 J. W. Ochterski, R. L. Martin, K. Morokuma, O. Farkas, 
 J. B. Foresman, and D. J. Fox, Gaussian, Inc., Wallingford CT, 2016.
 
 ******************************************
 Gaussian 16:  EM64L-G16RevA.03 25-Dec-2016
                12-Mar-2019 
 ******************************************
 %nprocshared=20
 Will use up to   20 processors via shared memory.
 %mem=5GB
 ----------------------------------------------
 #p m062x/6-311+g(2df,2p) Opt=(CalcFC,ModRedun)
 ----------------------------------------------
 1/10=4,18=120,19=15,26=3,38=1/1,3;
 2/9=110,12=2,17=6,18=5,40=1/2;
 3/5=4,6=6,7=214,11=2,25=1,30=1,71=2,74=-55,140=1/1,2,3;
 4//1;
 5/5=2,38=5/2;
 8/6=4,10=90,11=11/1;
 11/6=1,8=1,9=11,15=111,16=1/1,2,10;
 10/6=1,13=1/2;
 6/7=2,8=2,9=2,10=2,28=1/1;
 7/10=1,18=20,25=1/1,2,3,16;
 1/10=4,18=20,19=15,26=3/3(2);
 2/9=110/2;
 99//99;
 2/9=110/2;
 3/5=4,6=6,7=214,11=2,25=1,30=1,71=1,74=-55/1,2,3;
 4/5=5,16=3,69=1/1;
 5/5=2,38=5/2;
 7//1,2,3,16;
 1/18=20,19=15,26=3/3(-5);
 2/9=110/2;
 6/7=2,8=2,9=2,10=2,19=2,28=1/1;
 99/9=1/99;
 Leave Link    1 at Tue Mar 12 00:33:03 2019, MaxMem=   671088640 cpu:              41.3 elap:               2.2
 (Enter /shared/centos7/gaussian/g16/l101.exe)
 ----------------------------------------
 Gaussian Input Prepared from Scan Object
 ----------------------------------------
 Symbolic Z-matrix:
 Charge =  0 Multiplicity = 1
 O                     2.02909  -0.66862  -0.26619 
 C                     0.00637   0.71108  -0.20874 
 C                    -0.94103  -0.37071   0.29916 
 C                     1.44405   0.51489   0.24548 
 C                    -2.386    -0.11932  -0.11642 
 H                    -0.8746   -0.42525   1.38986 
 H                    -0.62598  -1.34455  -0.08505 
 H                    -0.3382    1.68748   0.14436 
 H                    -0.01817   0.73759  -1.30108 
 H                     1.49326   0.5244    1.34075 
 H                     2.06785   1.33081  -0.11714 
 H                    -2.47317  -0.08019  -1.20282 
 H                    -3.0509   -0.90242   0.24558 
 H                    -2.7417    0.83311   0.27844 
 H                     1.58862  -1.42765   0.11963 
 
 The following ModRedundant input section has been read:
 B       1       4 B                                                           
 B       2       8 B                                                           
 B       5      12 B                                                           
 B       2       9 B                                                           
 B       5      13 B                                                           
 B       3       5 B                                                           
 B       4      10 B                                                           
 B       5      14 B                                                           
 B       4      11 B                                                           
 B       3       6 B                                                           
 B       2       3 B                                                           
 B       1      15 B                                                           
 B       3       7 B                                                           
 B       2       4 B                                                           
 D      15       1       4      10 S  36 -10.00                                
 
 ITRead=  0  0  0  0  0  0  0  0  0  0  0  0  0  0  0
 MicOpt= -1 -1 -1 -1 -1 -1 -1 -1 -1 -1 -1 -1 -1 -1 -1
 NAtoms=     15 NQM=       15 NQMF=       0 NMMI=      0 NMMIF=      0
                NMic=       0 NMicF=      0.
                    Isotopes and Nuclear Properties:
 (Nuclear quadrupole moments (NQMom) in fm**2, nuclear magnetic moments (NMagM)
  in nuclear magnetons)

  Atom         1           2           3           4           5           6           7           8           9          10
 IAtWgt=          16          12          12          12          12           1           1           1           1           1
 AtmWgt=  15.9949146  12.0000000  12.0000000  12.0000000  12.0000000   1.0078250   1.0078250   1.0078250   1.0078250   1.0078250
 NucSpn=           0           0           0           0           0           1           1           1           1           1
 AtZEff=  -0.0000000  -0.0000000  -0.0000000  -0.0000000  -0.0000000  -0.0000000  -0.0000000  -0.0000000  -0.0000000  -0.0000000
 NQMom=    0.0000000   0.0000000   0.0000000   0.0000000   0.0000000   0.0000000   0.0000000   0.0000000   0.0000000   0.0000000
 NMagM=    0.0000000   0.0000000   0.0000000   0.0000000   0.0000000   2.7928460   2.7928460   2.7928460   2.7928460   2.7928460
 AtZNuc=   8.0000000   6.0000000   6.0000000   6.0000000   6.0000000   1.0000000   1.0000000   1.0000000   1.0000000   1.0000000

  Atom        11          12          13          14          15
 IAtWgt=           1           1           1           1           1
 AtmWgt=   1.0078250   1.0078250   1.0078250   1.0078250   1.0078250
 NucSpn=           1           1           1           1           1
 AtZEff=  -0.0000000  -0.0000000  -0.0000000  -0.0000000  -0.0000000
 NQMom=    0.0000000   0.0000000   0.0000000   0.0000000   0.0000000
 NMagM=    2.7928460   2.7928460   2.7928460   2.7928460   2.7928460
 AtZNuc=   1.0000000   1.0000000   1.0000000   1.0000000   1.0000000
 Leave Link  101 at Tue Mar 12 00:33:03 2019, MaxMem=   671088640 cpu:              11.7 elap:               0.6
 (Enter /shared/centos7/gaussian/g16/l103.exe)

 GradGradGradGradGradGradGradGradGradGradGradGradGradGradGradGradGradGrad
 Berny optimization.
 Initialization pass.
                           ----------------------------
                           !    Initial Parameters    !
                           ! (Angstroms and Degrees)  !
 --------------------------                            --------------------------
 ! Name  Definition              Value          Derivative Info.                !
 --------------------------------------------------------------------------------
 ! R1    R(1,4)                  1.4159         calculate D2E/DX2 analytically  !
 ! R2    R(1,15)                 0.9586         calculate D2E/DX2 analytically  !
 ! R3    R(2,3)                  1.5251         calculate D2E/DX2 analytically  !
 ! R4    R(2,4)                  1.5204         calculate D2E/DX2 analytically  !
 ! R5    R(2,8)                  1.094          calculate D2E/DX2 analytically  !
 ! R6    R(2,9)                  1.0929         calculate D2E/DX2 analytically  !
 ! R7    R(3,5)                  1.5244         calculate D2E/DX2 analytically  !
 ! R8    R(3,6)                  1.0941         calculate D2E/DX2 analytically  !
 ! R9    R(3,7)                  1.0933         calculate D2E/DX2 analytically  !
 ! R10   R(4,10)                 1.0964         calculate D2E/DX2 analytically  !
 ! R11   R(4,11)                 1.0892         calculate D2E/DX2 analytically  !
 ! R12   R(5,12)                 1.0906         calculate D2E/DX2 analytically  !
 ! R13   R(5,13)                 1.0892         calculate D2E/DX2 analytically  !
 ! R14   R(5,14)                 1.0907         calculate D2E/DX2 analytically  !
 ! A1    A(4,1,15)             109.0584         calculate D2E/DX2 analytically  !
 ! A2    A(3,2,4)              113.3526         calculate D2E/DX2 analytically  !
 ! A3    A(3,2,8)              109.2658         calculate D2E/DX2 analytically  !
 ! A4    A(3,2,9)              109.6403         calculate D2E/DX2 analytically  !
 ! A5    A(4,2,8)              108.4556         calculate D2E/DX2 analytically  !
 ! A6    A(4,2,9)              108.8407         calculate D2E/DX2 analytically  !
 ! A7    A(8,2,9)              107.0899         calculate D2E/DX2 analytically  !
 ! A8    A(2,3,5)              112.4006         calculate D2E/DX2 analytically  !
 ! A9    A(2,3,6)              109.2474         calculate D2E/DX2 analytically  !
 ! A10   A(2,3,7)              109.6204         calculate D2E/DX2 analytically  !
 ! A11   A(5,3,6)              109.7277         calculate D2E/DX2 analytically  !
 ! A12   A(5,3,7)              108.9199         calculate D2E/DX2 analytically  !
 ! A13   A(6,3,7)              106.765          calculate D2E/DX2 analytically  !
 ! A14   A(1,4,2)              112.9922         calculate D2E/DX2 analytically  !
 ! A15   A(1,4,10)             110.4692         calculate D2E/DX2 analytically  !
 ! A16   A(1,4,11)             105.6164         calculate D2E/DX2 analytically  !
 ! A17   A(2,4,10)             109.8616         calculate D2E/DX2 analytically  !
 ! A18   A(2,4,11)             110.2078         calculate D2E/DX2 analytically  !
 ! A19   A(10,4,11)            107.4801         calculate D2E/DX2 analytically  !
 ! A20   A(3,5,12)             110.6859         calculate D2E/DX2 analytically  !
 ! A21   A(3,5,13)             111.6823         calculate D2E/DX2 analytically  !
 ! A22   A(3,5,14)             110.759          calculate D2E/DX2 analytically  !
 ! A23   A(12,5,13)            107.9436         calculate D2E/DX2 analytically  !
 ! A24   A(12,5,14)            107.6522         calculate D2E/DX2 analytically  !
 ! A25   A(13,5,14)            107.9653         calculate D2E/DX2 analytically  !
 ! D1    D(15,1,4,2)           -67.0262         calculate D2E/DX2 analytically  !
 ! D2    D(15,1,4,10)           56.5006         Scan                            !
 ! D3    D(15,1,4,11)          172.4286         calculate D2E/DX2 analytically  !
 ! D4    D(4,2,3,5)            177.4365         calculate D2E/DX2 analytically  !
 ! D5    D(4,2,3,6)             55.388          calculate D2E/DX2 analytically  !
 ! D6    D(4,2,3,7)            -61.2806         calculate D2E/DX2 analytically  !
 ! D7    D(8,2,3,5)             56.3601         calculate D2E/DX2 analytically  !
 ! D8    D(8,2,3,6)            -65.6884         calculate D2E/DX2 analytically  !
 ! D9    D(8,2,3,7)            177.643          calculate D2E/DX2 analytically  !
 ! D10   D(9,2,3,5)            -60.7224         calculate D2E/DX2 analytically  !
 ! D11   D(9,2,3,6)            177.2291         calculate D2E/DX2 analytically  !
 ! D12   D(9,2,3,7)             60.5606         calculate D2E/DX2 analytically  !
 ! D13   D(3,2,4,1)             63.9834         calculate D2E/DX2 analytically  !
 ! D14   D(3,2,4,10)           -59.878          calculate D2E/DX2 analytically  !
 ! D15   D(3,2,4,11)          -178.1258         calculate D2E/DX2 analytically  !
 ! D16   D(8,2,4,1)           -174.4851         calculate D2E/DX2 analytically  !
 ! D17   D(8,2,4,10)            61.6535         calculate D2E/DX2 analytically  !
 ! D18   D(8,2,4,11)           -56.5942         calculate D2E/DX2 analytically  !
 ! D19   D(9,2,4,1)            -58.3033         calculate D2E/DX2 analytically  !
 ! D20   D(9,2,4,10)           177.8354         calculate D2E/DX2 analytically  !
 ! D21   D(9,2,4,11)            59.5876         calculate D2E/DX2 analytically  !
 ! D22   D(2,3,5,12)            59.2547         calculate D2E/DX2 analytically  !
 ! D23   D(2,3,5,13)           179.5537         calculate D2E/DX2 analytically  !
 ! D24   D(2,3,5,14)           -60.0701         calculate D2E/DX2 analytically  !
 ! D25   D(6,3,5,12)          -178.9698         calculate D2E/DX2 analytically  !
 ! D26   D(6,3,5,13)           -58.6709         calculate D2E/DX2 analytically  !
 ! D27   D(6,3,5,14)            61.7053         calculate D2E/DX2 analytically  !
 ! D28   D(7,3,5,12)           -62.4281         calculate D2E/DX2 analytically  !
 ! D29   D(7,3,5,13)            57.8708         calculate D2E/DX2 analytically  !
 ! D30   D(7,3,5,14)           178.247          calculate D2E/DX2 analytically  !
 --------------------------------------------------------------------------------
 Trust Radius=3.00D-01 FncErr=1.00D-07 GrdErr=1.00D-06 EigMax=2.50D+02 EigMin=1.00D-04
 Number of optimizations in scan=  37
 Number of steps in this run=     79 maximum allowed number of steps=    100.
 GradGradGradGradGradGradGradGradGradGradGradGradGradGradGradGradGradGrad

 Leave Link  103 at Tue Mar 12 00:33:03 2019, MaxMem=   671088640 cpu:               0.2 elap:               0.0
 (Enter /shared/centos7/gaussian/g16/l202.exe)
                          Input orientation:                          
 ---------------------------------------------------------------------
 Center     Atomic      Atomic             Coordinates (Angstroms)
 Number     Number       Type             X           Y           Z
 ---------------------------------------------------------------------
      1          8           0        2.029091   -0.668615   -0.266186
      2          6           0        0.006368    0.711076   -0.208738
      3          6           0       -0.941032   -0.370711    0.299164
      4          6           0        1.444046    0.514888    0.245481
      5          6           0       -2.386005   -0.119322   -0.116416
      6          1           0       -0.874597   -0.425250    1.389864
      7          1           0       -0.625976   -1.344546   -0.085049
      8          1           0       -0.338200    1.687479    0.144360
      9          1           0       -0.018170    0.737585   -1.301083
     10          1           0        1.493255    0.524401    1.340752
     11          1           0        2.067849    1.330810   -0.117142
     12          1           0       -2.473171   -0.080187   -1.202815
     13          1           0       -3.050901   -0.902422    0.245582
     14          1           0       -2.741696    0.833114    0.278441
     15          1           0        1.588620   -1.427652    0.119632
 ---------------------------------------------------------------------
                    Distance matrix (angstroms):
                    1          2          3          4          5
     1  O    0.000000
     2  C    2.449134   0.000000
     3  C    3.038091   1.525056   0.000000
     4  C    1.415896   1.520435   2.544752   0.000000
     5  C    4.451654   2.534074   1.524418   3.899036   0.000000
     6  H    3.351587   2.150085   1.094082   2.751286   2.155650
     7  H    2.745737   2.154238   1.093268   2.802095   2.144728
     8  H    3.365084   1.093969   2.150236   2.135789   2.743363
     9  H    2.690667   1.092942   2.154248   2.139984   2.782870
    10  H    2.071873   2.155597   2.794975   1.096417   4.193611
    11  H    2.005347   2.154568   3.481645   1.089199   4.683983
    12  H    4.636150   2.786108   2.165132   4.218562   1.090593
    13  H    5.111056   3.486643   2.176496   4.713100   1.089208
    14  H    5.031125   2.793581   2.166106   4.197951   1.090671
    15  H    0.958649   2.680579   2.747453   1.951974   4.191073
                    6          7          8          9         10
     6  H    0.000000
     7  H    1.755644   0.000000
     8  H    2.510503   3.054279   0.000000
     9  H    3.053989   2.486652   1.758984   0.000000
    10  H    2.551661   3.164966   2.477566   3.051089   0.000000
    11  H    3.743368   3.796742   2.446358   2.470852   1.762359
    12  H    3.065370   2.502026   3.081822   2.589486   4.750557
    13  H    2.504670   2.486976   3.751877   3.778790   4.887185
    14  H    2.510936   3.057875   2.554351   3.149860   4.377056
    15  H    2.947157   2.225587   3.662962   3.047697   2.304504
                   11         12         13         14         15
    11  H    0.000000
    12  H    4.877547   0.000000
    13  H    5.596472   1.762866   0.000000
    14  H    4.851382   1.760779   1.763171   0.000000
    15  H    2.809775   4.479138   4.670855   4.887527   0.000000
 Stoichiometry    C4H10O
 Framework group  C1[X(C4H10O)]
 Deg. of freedom    39
 Full point group                 C1      NOp   1
 Largest Abelian subgroup         C1      NOp   1
 Largest concise Abelian subgroup C1      NOp   1
                         Standard orientation:                         
 ---------------------------------------------------------------------
 Center     Atomic      Atomic             Coordinates (Angstroms)
 Number     Number       Type             X           Y           Z
 ---------------------------------------------------------------------
      1          8           0        2.029091   -0.668615   -0.266186
      2          6           0        0.006368    0.711076   -0.208738
      3          6           0       -0.941032   -0.370711    0.299164
      4          6           0        1.444046    0.514888    0.245481
      5          6           0       -2.386005   -0.119322   -0.116416
      6          1           0       -0.874597   -0.425250    1.389864
      7          1           0       -0.625976   -1.344546   -0.085049
      8          1           0       -0.338200    1.687479    0.144360
      9          1           0       -0.018170    0.737585   -1.301083
     10          1           0        1.493255    0.524401    1.340752
     11          1           0        2.067849    1.330810   -0.117142
     12          1           0       -2.473171   -0.080187   -1.202815
     13          1           0       -3.050901   -0.902422    0.245582
     14          1           0       -2.741696    0.833114    0.278441
     15          1           0        1.588620   -1.427652    0.119632
 ---------------------------------------------------------------------
 Rotational constants (GHZ):          12.6538112           2.3645329           2.1753838
 Leave Link  202 at Tue Mar 12 00:33:03 2019, MaxMem=   671088640 cpu:               0.8 elap:               0.1
 (Enter /shared/centos7/gaussian/g16/l301.exe)
 Standard basis: 6-311+G(2df,2p) (5D, 7F)
 Ernie: Thresh=  0.10000D-02 Tol=  0.10000D-05 Strict=F.
 There are   285 symmetry adapted cartesian basis functions of A   symmetry.
 There are   260 symmetry adapted basis functions of A   symmetry.
   260 basis functions,   370 primitive gaussians,   285 cartesian basis functions
    21 alpha electrons       21 beta electrons
       nuclear repulsion energy       188.4773035016 Hartrees.
 IExCor= 4336 DFT=T Ex+Corr=M062X ExCW=0 ScaHFX=  0.540000
 ScaDFX=  1.000000  1.000000  1.000000  1.000000 ScalE2=  1.000000  1.000000
 IRadAn=      5 IRanWt=     -1 IRanGd=            0 ICorTp=0 IEmpDi=  4
 NAtoms=   15 NActive=   15 NUniq=   15 SFac= 1.00D+00 NAtFMM=   60 NAOKFM=F Big=F
 Integral buffers will be    131072 words long.
 Raffenetti 2 integral format.
 Two-electron integral symmetry is turned on.
 Leave Link  301 at Tue Mar 12 00:33:04 2019, MaxMem=   671088640 cpu:               1.2 elap:               0.1
 (Enter /shared/centos7/gaussian/g16/l302.exe)
 NPDir=0 NMtPBC=     1 NCelOv=     1 NCel=       1 NClECP=     1 NCelD=      1
         NCelK=      1 NCelE2=     1 NClLst=     1 CellRange=     0.0.
 One-electron integrals computed using PRISM.
 One-electron integral symmetry used in STVInt
 NBasis=   260 RedAO= T EigKep=  1.99D-05  NBF=   260
 NBsUse=   260 1.00D-06 EigRej= -1.00D+00 NBFU=   260
 Precomputing XC quadrature grid using
 IXCGrd= 4 IRadAn=           5 IRanWt=          -1 IRanGd=           0 AccXCQ= 0.00D+00.
 Generated NRdTot=       0 NPtTot=           0 NUsed=           0 NTot=          32
 NSgBfM=   285   285   285   285   285 MxSgAt=    15 MxSgA2=    15.
 Leave Link  302 at Tue Mar 12 00:33:04 2019, MaxMem=   671088640 cpu:               8.1 elap:               0.4
 (Enter /shared/centos7/gaussian/g16/l303.exe)
 DipDrv:  MaxL=1.
 Leave Link  303 at Tue Mar 12 00:33:04 2019, MaxMem=   671088640 cpu:               0.7 elap:               0.1
 (Enter /shared/centos7/gaussian/g16/l401.exe)
 ExpMin= 4.38D-02 ExpMax= 8.59D+03 ExpMxC= 1.30D+03 IAcc=3 IRadAn=         5 AccDes= 0.00D+00
 Harris functional with IExCor= 1009 and IRadAn=       5 diagonalized for initial guess.
 HarFok:  IExCor= 1009 AccDes= 0.00D+00 IRadAn=         5 IDoV= 1 UseB2=F ITyADJ=14
 ICtDFT=  3500011 ScaDFX=  1.000000  1.000000  1.000000  1.000000
 FoFCou: FMM=F IPFlag=           0 FMFlag=      100000 FMFlg1=           0
         NFxFlg=           0 DoJE=T BraDBF=F KetDBF=T FulRan=T
         wScrn=  0.000000 ICntrl=       500 IOpCl=  0 I1Cent=   200000004 NGrid=           0
         NMat0=    1 NMatS0=      1 NMatT0=    0 NMatD0=    1 NMtDS0=    0 NMtDT0=    0
 Petite list used in FoFCou.
 Harris En= -233.602017173790    
 JPrj=0 DoOrth=F DoCkMO=F.
 Leave Link  401 at Tue Mar 12 00:33:05 2019, MaxMem=   671088640 cpu:              26.1 elap:               1.3
 (Enter /shared/centos7/gaussian/g16/l502.exe)
 Integral symmetry usage will be decided dynamically.
 Closed shell SCF:
 Using DIIS extrapolation, IDIIS=  1040.
 NGot=   671088640 LenX=   670917793 LenY=   670836127
 Requested convergence on RMS density matrix=1.00D-08 within 128 cycles.
 Requested convergence on MAX density matrix=1.00D-06.
 Requested convergence on             energy=1.00D-06.
 No special actions if energy rises.
 Fock matrices will be formed incrementally for  20 cycles.

 Cycle   1  Pass 1  IDiag  1:
 FoFJK:  IHMeth= 1 ICntrl=       0 DoSepK=F KAlg= 0 I1Cent=           0 FoldK=F
 IRaf= 970000000 NMat=       1 IRICut=       1 DoRegI=T DoRafI=F ISym2E= 0 IDoP0=0 IntGTp=1.
 FoFCou: FMM=F IPFlag=           0 FMFlag=      100000 FMFlg1=           0
         NFxFlg=           0 DoJE=F BraDBF=F KetDBF=F FulRan=T
         wScrn=  0.000000 ICntrl=         0 IOpCl=  0 I1Cent=           0 NGrid=           0
         NMat0=    1 NMatS0=      1 NMatT0=    0 NMatD0=    1 NMtDS0=    0 NMtDT0=    0
 Symmetry not used in FoFCou.
 E= -233.412785723848    
 DIIS: error= 2.29D-02 at cycle   1 NSaved=   1.
 NSaved= 1 IEnMin= 1 EnMin= -233.412785723848     IErMin= 1 ErrMin= 2.29D-02
 ErrMax= 2.29D-02  0.00D+00 EMaxC= 1.00D-01 BMatC= 2.61D-01 BMatP= 2.61D-01
 IDIUse=3 WtCom= 7.71D-01 WtEn= 2.29D-01
 Coeff-Com:  0.100D+01
 Coeff-En:   0.100D+01
 Coeff:      0.100D+01
 Gap=     0.299 Goal=   None    Shift=    0.000
 GapD=    0.299 DampG=1.000 DampE=0.500 DampFc=0.5000 IDamp=-1.
 Damping current iteration by 5.00D-01
 RMSDP=3.71D-03 MaxDP=1.51D-01              OVMax= 1.57D-01

 Cycle   2  Pass 1  IDiag  1:
 RMSU=  1.74D-03    CP:  9.32D-01
 E= -233.523091879021     Delta-E=       -0.110306155174 Rises=F Damp=T
 DIIS: error= 5.10D-03 at cycle   2 NSaved=   2.
 NSaved= 2 IEnMin= 2 EnMin= -233.523091879021     IErMin= 2 ErrMin= 5.10D-03
 ErrMax= 5.10D-03  0.00D+00 EMaxC= 1.00D-01 BMatC= 1.45D-02 BMatP= 2.61D-01
 IDIUse=3 WtCom= 9.49D-01 WtEn= 5.10D-02
 Coeff-Com: -0.685D-01 0.107D+01
 Coeff-En:   0.000D+00 0.100D+01
 Coeff:     -0.650D-01 0.107D+01
 Gap=     0.374 Goal=   None    Shift=    0.000
 RMSDP=1.30D-03 MaxDP=5.09D-02 DE=-1.10D-01 OVMax= 8.21D-02

 Cycle   3  Pass 1  IDiag  1:
 RMSU=  1.22D-03    CP:  9.68D-01  8.38D-01
 E= -233.630834246945     Delta-E=       -0.107742367923 Rises=F Damp=F
 DIIS: error= 2.47D-03 at cycle   3 NSaved=   3.
 NSaved= 3 IEnMin= 3 EnMin= -233.630834246945     IErMin= 3 ErrMin= 2.47D-03
 ErrMax= 2.47D-03  0.00D+00 EMaxC= 1.00D-01 BMatC= 3.10D-03 BMatP= 1.45D-02
 IDIUse=3 WtCom= 9.75D-01 WtEn= 2.47D-02
 Coeff-Com: -0.664D-01 0.300D+00 0.766D+00
 Coeff-En:   0.000D+00 0.000D+00 0.100D+01
 Coeff:     -0.648D-01 0.293D+00 0.772D+00
 Gap=     0.360 Goal=   None    Shift=    0.000
 RMSDP=2.39D-04 MaxDP=1.73D-02 DE=-1.08D-01 OVMax= 1.30D-02

 Cycle   4  Pass 1  IDiag  1:
 RMSU=  2.12D-04    CP:  9.71D-01  8.85D-01  1.05D+00
 E= -233.632510315117     Delta-E=       -0.001676068173 Rises=F Damp=F
 DIIS: error= 1.30D-03 at cycle   4 NSaved=   4.
 NSaved= 4 IEnMin= 4 EnMin= -233.632510315117     IErMin= 4 ErrMin= 1.30D-03
 ErrMax= 1.30D-03  0.00D+00 EMaxC= 1.00D-01 BMatC= 6.97D-04 BMatP= 3.10D-03
 IDIUse=3 WtCom= 9.87D-01 WtEn= 1.30D-02
 Coeff-Com: -0.254D-01 0.713D-01 0.369D+00 0.585D+00
 Coeff-En:   0.000D+00 0.000D+00 0.108D+00 0.892D+00
 Coeff:     -0.251D-01 0.704D-01 0.366D+00 0.589D+00
 Gap=     0.361 Goal=   None    Shift=    0.000
 RMSDP=1.18D-04 MaxDP=9.42D-03 DE=-1.68D-03 OVMax= 4.73D-03

 Cycle   5  Pass 1  IDiag  1:
 RMSU=  4.89D-05    CP:  9.68D-01  8.78D-01  1.02D+00  5.68D-01
 E= -233.633015109274     Delta-E=       -0.000504794157 Rises=F Damp=F
 DIIS: error= 2.56D-04 at cycle   5 NSaved=   5.
 NSaved= 5 IEnMin= 5 EnMin= -233.633015109274     IErMin= 5 ErrMin= 2.56D-04
 ErrMax= 2.56D-04  0.00D+00 EMaxC= 1.00D-01 BMatC= 1.89D-05 BMatP= 6.97D-04
 IDIUse=3 WtCom= 9.97D-01 WtEn= 2.56D-03
 Coeff-Com: -0.363D-02 0.501D-02 0.674D-01 0.194D+00 0.737D+00
 Coeff-En:   0.000D+00 0.000D+00 0.000D+00 0.000D+00 0.100D+01
 Coeff:     -0.362D-02 0.500D-02 0.673D-01 0.194D+00 0.738D+00
 Gap=     0.361 Goal=   None    Shift=    0.000
 RMSDP=5.46D-05 MaxDP=4.39D-03 DE=-5.05D-04 OVMax= 8.32D-04

 Cycle   6  Pass 1  IDiag  1:
 RMSU=  2.37D-05    CP:  9.70D-01  8.70D-01  1.05D+00  6.96D-01  7.92D-01
 E= -233.633029760751     Delta-E=       -0.000014651478 Rises=F Damp=F
 DIIS: error= 5.45D-05 at cycle   6 NSaved=   6.
 NSaved= 6 IEnMin= 6 EnMin= -233.633029760751     IErMin= 6 ErrMin= 5.45D-05
 ErrMax= 5.45D-05  0.00D+00 EMaxC= 1.00D-01 BMatC= 9.37D-07 BMatP= 1.89D-05
 IDIUse=1 WtCom= 1.00D+00 WtEn= 0.00D+00
 Coeff-Com:  0.221D-03-0.190D-02 0.326D-02 0.340D-01 0.226D+00 0.739D+00
 Coeff:      0.221D-03-0.190D-02 0.326D-02 0.340D-01 0.226D+00 0.739D+00
 Gap=     0.361 Goal=   None    Shift=    0.000
 RMSDP=7.20D-06 MaxDP=5.20D-04 DE=-1.47D-05 OVMax= 2.23D-04

 Cycle   7  Pass 1  IDiag  1:
 RMSU=  4.30D-06    CP:  9.70D-01  8.68D-01  1.05D+00  6.99D-01  8.42D-01
                    CP:  1.06D+00
 E= -233.633030601530     Delta-E=       -0.000000840779 Rises=F Damp=F
 DIIS: error= 1.68D-05 at cycle   7 NSaved=   7.
 NSaved= 7 IEnMin= 7 EnMin= -233.633030601530     IErMin= 7 ErrMin= 1.68D-05
 ErrMax= 1.68D-05  0.00D+00 EMaxC= 1.00D-01 BMatC= 1.13D-07 BMatP= 9.37D-07
 IDIUse=1 WtCom= 1.00D+00 WtEn= 0.00D+00
 Coeff-Com:  0.626D-03-0.141D-02-0.870D-02-0.155D-01-0.274D-01 0.245D+00
 Coeff-Com:  0.807D+00
 Coeff:      0.626D-03-0.141D-02-0.870D-02-0.155D-01-0.274D-01 0.245D+00
 Coeff:      0.807D+00
 Gap=     0.361 Goal=   None    Shift=    0.000
 RMSDP=4.38D-06 MaxDP=3.92D-04 DE=-8.41D-07 OVMax= 8.32D-05

 Cycle   8  Pass 1  IDiag  1:
 RMSU=  1.35D-06    CP:  9.70D-01  8.67D-01  1.05D+00  7.06D-01  8.49D-01
                    CP:  1.14D+00  1.12D+00
 E= -233.633030715389     Delta-E=       -0.000000113859 Rises=F Damp=F
 DIIS: error= 1.74D-06 at cycle   8 NSaved=   8.
 NSaved= 8 IEnMin= 8 EnMin= -233.633030715389     IErMin= 8 ErrMin= 1.74D-06
 ErrMax= 1.74D-06  0.00D+00 EMaxC= 1.00D-01 BMatC= 1.84D-09 BMatP= 1.13D-07
 IDIUse=1 WtCom= 1.00D+00 WtEn= 0.00D+00
 Coeff-Com:  0.955D-04-0.198D-03-0.174D-02-0.412D-02-0.131D-01 0.199D-01
 Coeff-Com:  0.152D+00 0.847D+00
 Coeff:      0.955D-04-0.198D-03-0.174D-02-0.412D-02-0.131D-01 0.199D-01
 Coeff:      0.152D+00 0.847D+00
 Gap=     0.361 Goal=   None    Shift=    0.000
 RMSDP=5.10D-07 MaxDP=3.26D-05 DE=-1.14D-07 OVMax= 1.19D-05

 Cycle   9  Pass 1  IDiag  1:
 RMSU=  2.74D-07    CP:  9.70D-01  8.66D-01  1.05D+00  7.06D-01  8.50D-01
                    CP:  1.15D+00  1.16D+00  1.06D+00
 E= -233.633030717404     Delta-E=       -0.000000002014 Rises=F Damp=F
 DIIS: error= 4.99D-07 at cycle   9 NSaved=   9.
 NSaved= 9 IEnMin= 9 EnMin= -233.633030717404     IErMin= 9 ErrMin= 4.99D-07
 ErrMax= 4.99D-07  0.00D+00 EMaxC= 1.00D-01 BMatC= 8.14D-11 BMatP= 1.84D-09
 IDIUse=1 WtCom= 1.00D+00 WtEn= 0.00D+00
 Coeff-Com: -0.181D-04 0.392D-04 0.129D-03 0.904D-04-0.635D-03-0.704D-02
 Coeff-Com: -0.127D-01 0.137D+00 0.883D+00
 Coeff:     -0.181D-04 0.392D-04 0.129D-03 0.904D-04-0.635D-03-0.704D-02
 Coeff:     -0.127D-01 0.137D+00 0.883D+00
 Gap=     0.361 Goal=   None    Shift=    0.000
 RMSDP=1.43D-07 MaxDP=6.02D-06 DE=-2.01D-09 OVMax= 2.62D-06

 Cycle  10  Pass 1  IDiag  1:
 RMSU=  5.64D-08    CP:  9.70D-01  8.66D-01  1.05D+00  7.06D-01  8.51D-01
                    CP:  1.14D+00  1.18D+00  1.14D+00  1.05D+00
 E= -233.633030717503     Delta-E=       -0.000000000099 Rises=F Damp=F
 DIIS: error= 1.16D-07 at cycle  10 NSaved=  10.
 NSaved=10 IEnMin=10 EnMin= -233.633030717503     IErMin=10 ErrMin= 1.16D-07
 ErrMax= 1.16D-07  0.00D+00 EMaxC= 1.00D-01 BMatC= 4.35D-12 BMatP= 8.14D-11
 IDIUse=1 WtCom= 1.00D+00 WtEn= 0.00D+00
 Coeff-Com: -0.671D-05 0.149D-04 0.866D-04 0.148D-03 0.265D-03-0.216D-02
 Coeff-Com: -0.779D-02-0.241D-02 0.176D+00 0.836D+00
 Coeff:     -0.671D-05 0.149D-04 0.866D-04 0.148D-03 0.265D-03-0.216D-02
 Coeff:     -0.779D-02-0.241D-02 0.176D+00 0.836D+00
 Gap=     0.361 Goal=   None    Shift=    0.000
 RMSDP=2.95D-08 MaxDP=2.16D-06 DE=-9.91D-11 OVMax= 7.78D-07

 Cycle  11  Pass 1  IDiag  1:
 RMSU=  1.35D-08    CP:  9.70D-01  8.66D-01  1.05D+00  7.06D-01  8.51D-01
                    CP:  1.14D+00  1.18D+00  1.14D+00  1.08D+00  1.08D+00
 E= -233.633030717513     Delta-E=       -0.000000000010 Rises=F Damp=F
 DIIS: error= 3.40D-08 at cycle  11 NSaved=  11.
 NSaved=11 IEnMin=11 EnMin= -233.633030717513     IErMin=11 ErrMin= 3.40D-08
 ErrMax= 3.40D-08  0.00D+00 EMaxC= 1.00D-01 BMatC= 5.26D-13 BMatP= 4.35D-12
 IDIUse=1 WtCom= 1.00D+00 WtEn= 0.00D+00
 Coeff-Com:  0.509D-07 0.263D-06 0.949D-05 0.202D-04 0.740D-04-0.340D-04
 Coeff-Com: -0.813D-03-0.939D-02-0.194D-01 0.212D+00 0.818D+00
 Coeff:      0.509D-07 0.263D-06 0.949D-05 0.202D-04 0.740D-04-0.340D-04
 Coeff:     -0.813D-03-0.939D-02-0.194D-01 0.212D+00 0.818D+00
 Gap=     0.361 Goal=   None    Shift=    0.000
 RMSDP=1.13D-08 MaxDP=8.08D-07 DE=-1.02D-11 OVMax= 2.43D-07

 Cycle  12  Pass 1  IDiag  1:
 RMSU=  3.67D-09    CP:  9.70D-01  8.66D-01  1.05D+00  7.06D-01  8.51D-01
                    CP:  1.14D+00  1.18D+00  1.15D+00  1.09D+00  1.18D+00
                    CP:  1.09D+00
 E= -233.633030717517     Delta-E=       -0.000000000004 Rises=F Damp=F
 DIIS: error= 1.31D-08 at cycle  12 NSaved=  12.
 NSaved=12 IEnMin=12 EnMin= -233.633030717517     IErMin=12 ErrMin= 1.31D-08
 ErrMax= 1.31D-08  0.00D+00 EMaxC= 1.00D-01 BMatC= 7.95D-14 BMatP= 5.26D-13
 IDIUse=1 WtCom= 1.00D+00 WtEn= 0.00D+00
 Coeff-Com:  0.649D-06-0.126D-05-0.406D-05-0.641D-05-0.128D-05 0.172D-03
 Coeff-Com:  0.407D-03-0.325D-02-0.241D-01-0.174D-02 0.303D+00 0.725D+00
 Coeff:      0.649D-06-0.126D-05-0.406D-05-0.641D-05-0.128D-05 0.172D-03
 Coeff:      0.407D-03-0.325D-02-0.241D-01-0.174D-02 0.303D+00 0.725D+00
 Gap=     0.361 Goal=   None    Shift=    0.000
 RMSDP=2.87D-09 MaxDP=2.06D-07 DE=-3.52D-12 OVMax= 8.37D-08

 SCF Done:  E(RM062X) =  -233.633030718     A.U. after   12 cycles
            NFock= 12  Conv=0.29D-08     -V/T= 2.0040
 KE= 2.327044275791D+02 PE=-9.212907570984D+02 EE= 2.664759953002D+02
 Leave Link  502 at Tue Mar 12 00:33:49 2019, MaxMem=   671088640 cpu:             876.7 elap:              43.9
 (Enter /shared/centos7/gaussian/g16/l801.exe)
 DoSCS=F DFT=T ScalE2(SS,OS)=  1.000000  1.000000
 Range of M.O.s used for correlation:     1   260
 NBasis=   260 NAE=    21 NBE=    21 NFC=     0 NFV=     0
 NROrb=    260 NOA=    21 NOB=    21 NVA=   239 NVB=   239

 **** Warning!!: The largest alpha MO coefficient is  0.63912939D+02

 Leave Link  801 at Tue Mar 12 00:33:49 2019, MaxMem=   671088640 cpu:               0.5 elap:               0.0
 (Enter /shared/centos7/gaussian/g16/l1101.exe)
 Using compressed storage, NAtomX=    15.
 Will process     16 centers per pass.
 Leave Link 1101 at Tue Mar 12 00:33:50 2019, MaxMem=   671088640 cpu:               9.0 elap:               0.5
 (Enter /shared/centos7/gaussian/g16/l1102.exe)
 Symmetrizing basis deriv contribution to polar:
 IMax=3 JMax=2 DiffMx= 0.00D+00
 Leave Link 1102 at Tue Mar 12 00:33:50 2019, MaxMem=   671088640 cpu:               0.7 elap:               0.1
 (Enter /shared/centos7/gaussian/g16/l1110.exe)
 Forming Gx(P) for the SCF density, NAtomX=    15.
 Integral derivatives from FoFJK, PRISM(SPDF).
 Do as many integral derivatives as possible in FoFJK.
 G2DrvN: MDV=     671087424.
 G2DrvN: will do    16 centers at a time, making    1 passes.
 Calling FoFCou, ICntrl=  3107 FMM=F I1Cent=   0 AccDes= 0.00D+00.
 FoFJK:  IHMeth= 1 ICntrl=    3107 DoSepK=F KAlg= 0 I1Cent=           0 FoldK=F
 IRaf=         0 NMat=       1 IRICut=       1 DoRegI=T DoRafI=F ISym2E= 0 IDoP0=0 IntGTp=1.
 FoFCou: FMM=F IPFlag=           0 FMFlag=      100000 FMFlg1=           0
         NFxFlg=           0 DoJE=F BraDBF=F KetDBF=F FulRan=T
         wScrn=  0.000000 ICntrl=      3107 IOpCl=  0 I1Cent=           0 NGrid=           0
         NMat0=    1 NMatS0=      1 NMatT0=    0 NMatD0=    1 NMtDS0=    0 NMtDT0=    0
 Symmetry not used in FoFCou.
 End of G2Drv F.D. properties file   721 does not exist.
 End of G2Drv F.D. properties file   722 does not exist.
 End of G2Drv F.D. properties file   788 does not exist.
 Leave Link 1110 at Tue Mar 12 00:35:25 2019, MaxMem=   671088640 cpu:            1895.1 elap:              94.8
 (Enter /shared/centos7/gaussian/g16/l1002.exe)
 Minotr:  Closed shell wavefunction.
          IDoAtm=111111111111111
          Direct CPHF calculation.
          Differentiating once with respect to nuclear coordinates.
          Requested convergence is 1.0D-08 RMS, and 1.0D-07 maximum.
          Secondary convergence is 1.0D-12 RMS, and 1.0D-12 maximum.
          NewPWx=T KeepS1=F KeepF1=F KeepIn=T MapXYZ=F SortEE=F KeepMc=T.
         4569 words used for storage of precomputed grid.
 Keep R1 ints in memory in canonical form, NReq=597923371.
 FoFCou: FMM=F IPFlag=           0 FMFlag=           0 FMFlg1=           0
         NFxFlg=           0 DoJE=F BraDBF=F KetDBF=F FulRan=T
         wScrn=  0.000000 ICntrl=       600 IOpCl=  0 I1Cent=           0 NGrid=           0
         NMat0=    1 NMatS0=  33930 NMatT0=    0 NMatD0=    1 NMtDS0=    0 NMtDT0=    0
 Symmetry not used in FoFCou.
 Two-electron integral symmetry not used.
          MDV=     671088640 using IRadAn=       1.
          Solving linear equations simultaneously, MaxMat=       0.
          There are    48 degrees of freedom in the 1st order CPHF.  IDoFFX=6 NUNeed=     0.
     42 vectors produced by pass  0 Test12= 1.05D-14 2.08D-09 XBig12= 6.34D-02 5.58D-02.
 AX will form    42 AO Fock derivatives at one time.
     42 vectors produced by pass  1 Test12= 1.05D-14 2.08D-09 XBig12= 2.72D-03 1.13D-02.
     42 vectors produced by pass  2 Test12= 1.05D-14 2.08D-09 XBig12= 1.22D-04 1.18D-03.
     42 vectors produced by pass  3 Test12= 1.05D-14 2.08D-09 XBig12= 1.34D-06 1.49D-04.
     42 vectors produced by pass  4 Test12= 1.05D-14 2.08D-09 XBig12= 8.64D-09 9.40D-06.
     42 vectors produced by pass  5 Test12= 1.05D-14 2.08D-09 XBig12= 4.24D-11 6.63D-07.
     19 vectors produced by pass  6 Test12= 1.05D-14 2.08D-09 XBig12= 1.62D-13 3.72D-08.
      1 vectors produced by pass  7 Test12= 1.05D-14 2.08D-09 XBig12= 6.09D-16 3.38D-09.
 InvSVY:  IOpt=1 It=  1 EMax= 2.00D-15
 Solved reduced A of dimension   272 with    42 vectors.
 End of Minotr F.D. properties file   721 does not exist.
 End of Minotr F.D. properties file   722 does not exist.
 End of Minotr F.D. properties file   788 does not exist.
 Leave Link 1002 at Tue Mar 12 00:37:07 2019, MaxMem=   671088640 cpu:            2017.6 elap:             102.3
 (Enter /shared/centos7/gaussian/g16/l601.exe)
 Copying SCF densities to generalized density rwf, IOpCl= 0 IROHF=0.

 **********************************************************************

            Population analysis using the SCF density.

 **********************************************************************

 Orbital symmetries:
       Occupied  (A) (A) (A) (A) (A) (A) (A) (A) (A) (A) (A) (A)
                 (A) (A) (A) (A) (A) (A) (A) (A) (A)
       Virtual   (A) (A) (A) (A) (A) (A) (A) (A) (A) (A) (A) (A)
                 (A) (A) (A) (A) (A) (A) (A) (A) (A) (A) (A) (A)
                 (A) (A) (A) (A) (A) (A) (A) (A) (A) (A) (A) (A)
                 (A) (A) (A) (A) (A) (A) (A) (A) (A) (A) (A) (A)
                 (A) (A) (A) (A) (A) (A) (A) (A) (A) (A) (A) (A)
                 (A) (A) (A) (A) (A) (A) (A) (A) (A) (A) (A) (A)
                 (A) (A) (A) (A) (A) (A) (A) (A) (A) (A) (A) (A)
                 (A) (A) (A) (A) (A) (A) (A) (A) (A) (A) (A) (A)
                 (A) (A) (A) (A) (A) (A) (A) (A) (A) (A) (A) (A)
                 (A) (A) (A) (A) (A) (A) (A) (A) (A) (A) (A) (A)
                 (A) (A) (A) (A) (A) (A) (A) (A) (A) (A) (A) (A)
                 (A) (A) (A) (A) (A) (A) (A) (A) (A) (A) (A) (A)
                 (A) (A) (A) (A) (A) (A) (A) (A) (A) (A) (A) (A)
                 (A) (A) (A) (A) (A) (A) (A) (A) (A) (A) (A) (A)
                 (A) (A) (A) (A) (A) (A) (A) (A) (A) (A) (A) (A)
                 (A) (A) (A) (A) (A) (A) (A) (A) (A) (A) (A) (A)
                 (A) (A) (A) (A) (A) (A) (A) (A) (A) (A) (A) (A)
                 (A) (A) (A) (A) (A) (A) (A) (A) (A) (A) (A) (A)
                 (A) (A) (A) (A) (A) (A) (A) (A) (A) (A) (A) (A)
                 (A) (A) (A) (A) (A) (A) (A) (A) (A) (A) (A)
 The electronic state is 1-A.
 Alpha  occ. eigenvalues --  -19.61845 -10.57815 -10.53585 -10.52976 -10.52569
 Alpha  occ. eigenvalues --   -1.14311  -0.89843  -0.81818  -0.72702  -0.66605
 Alpha  occ. eigenvalues --   -0.58777  -0.54409  -0.51687  -0.51097  -0.46321
 Alpha  occ. eigenvalues --   -0.45236  -0.42725  -0.40851  -0.39592  -0.38024
 Alpha  occ. eigenvalues --   -0.34658
 Alpha virt. eigenvalues --    0.01418   0.02671   0.02852   0.03831   0.05777
 Alpha virt. eigenvalues --    0.05958   0.06637   0.07517   0.08029   0.08728
 Alpha virt. eigenvalues --    0.10088   0.10698   0.12909   0.14519   0.15574
 Alpha virt. eigenvalues --    0.17645   0.18408   0.19082   0.20212   0.21141
 Alpha virt. eigenvalues --    0.21908   0.22329   0.23994   0.24592   0.26160
 Alpha virt. eigenvalues --    0.26689   0.27330   0.28570   0.29100   0.29932
 Alpha virt. eigenvalues --    0.31027   0.31391   0.31709   0.36345   0.41431
 Alpha virt. eigenvalues --    0.43307   0.43765   0.45258   0.46775   0.49394
 Alpha virt. eigenvalues --    0.51718   0.53267   0.54261   0.55945   0.56752
 Alpha virt. eigenvalues --    0.57767   0.58695   0.59940   0.60960   0.63483
 Alpha virt. eigenvalues --    0.63724   0.64263   0.64888   0.65942   0.67459
 Alpha virt. eigenvalues --    0.68543   0.69926   0.70350   0.74104   0.76571
 Alpha virt. eigenvalues --    0.80085   0.80829   0.81024   0.86389   0.88771
 Alpha virt. eigenvalues --    0.90996   0.91953   0.94873   0.95737   0.99891
 Alpha virt. eigenvalues --    1.03102   1.04698   1.06545   1.09225   1.12041
 Alpha virt. eigenvalues --    1.13507   1.14654   1.16266   1.16555   1.17949
 Alpha virt. eigenvalues --    1.19315   1.21179   1.21663   1.22228   1.24820
 Alpha virt. eigenvalues --    1.25773   1.27891   1.29224   1.31681   1.32940
 Alpha virt. eigenvalues --    1.33228   1.37921   1.38787   1.39929   1.43529
 Alpha virt. eigenvalues --    1.44322   1.44924   1.45495   1.45902   1.48169
 Alpha virt. eigenvalues --    1.49263   1.52049   1.54853   1.56350   1.58827
 Alpha virt. eigenvalues --    1.60042   1.60820   1.62705   1.64204   1.64404
 Alpha virt. eigenvalues --    1.67866   1.68729   1.73454   1.79420   1.97662
 Alpha virt. eigenvalues --    2.09624   2.15507   2.29287   2.31384   2.40680
 Alpha virt. eigenvalues --    2.45695   2.48723   2.50521   2.56962   2.59094
 Alpha virt. eigenvalues --    2.63985   2.66363   2.75423   2.76310   2.78468
 Alpha virt. eigenvalues --    2.81430   2.83341   2.85689   2.89296   2.91513
 Alpha virt. eigenvalues --    2.94856   2.97638   2.98777   3.03306   3.04198
 Alpha virt. eigenvalues --    3.08897   3.13106   3.16287   3.16809   3.18264
 Alpha virt. eigenvalues --    3.20815   3.24119   3.26311   3.27773   3.30602
 Alpha virt. eigenvalues --    3.33951   3.35144   3.37536   3.38725   3.40039
 Alpha virt. eigenvalues --    3.43796   3.47339   3.51855   3.52751   3.55283
 Alpha virt. eigenvalues --    3.57767   3.59275   3.62024   3.63859   3.66086
 Alpha virt. eigenvalues --    3.68981   3.70871   3.71142   3.74947   3.78185
 Alpha virt. eigenvalues --    3.79341   3.83609   3.88203   3.88923   3.90785
 Alpha virt. eigenvalues --    3.95781   3.98666   3.99720   4.00114   4.01806
 Alpha virt. eigenvalues --    4.07066   4.09897   4.10957   4.13337   4.14994
 Alpha virt. eigenvalues --    4.19157   4.19907   4.22636   4.23081   4.25409
 Alpha virt. eigenvalues --    4.27404   4.28549   4.31145   4.33207   4.37529
 Alpha virt. eigenvalues --    4.38762   4.41831   4.43082   4.46319   4.52611
 Alpha virt. eigenvalues --    4.53029   4.54540   4.56782   4.60073   4.62526
 Alpha virt. eigenvalues --    4.64907   4.67566   4.78289   4.79905   5.02436
 Alpha virt. eigenvalues --    5.18756   5.22446   5.24915   5.26203   5.38739
 Alpha virt. eigenvalues --    5.40972   5.43810   5.50269   5.51216   5.58790
 Alpha virt. eigenvalues --    5.59845   5.61533   5.64958   5.65750   5.67540
 Alpha virt. eigenvalues --    5.85044   5.96185   6.51131   6.99998   7.19525
 Alpha virt. eigenvalues --    7.22658   7.24224   7.51990   7.62877  24.26891
 Alpha virt. eigenvalues --   24.38819  24.43793  24.50303  50.14842
          Condensed to atoms (all electrons):
               1          2          3          4          5          6
     1  O    8.076124   0.028845  -0.071279   0.139120   0.010857  -0.000931
     2  C    0.028845   5.689056  -0.312004  -0.002253   0.209826  -0.050127
     3  C   -0.071279  -0.312004   5.688513   0.234136  -0.063162   0.434020
     4  C    0.139120  -0.002253   0.234136   5.263268  -0.153469   0.002429
     5  C    0.010857   0.209826  -0.063162  -0.153469   5.355531  -0.027993
     6  H   -0.000931  -0.050127   0.434020   0.002429  -0.027993   0.525926
     7  H    0.005139  -0.036051   0.440822  -0.015428  -0.037688  -0.039906
     8  H    0.008172   0.436359  -0.042928  -0.049332   0.005340  -0.007307
     9  H   -0.012334   0.453873  -0.052478  -0.031699  -0.006690   0.005397
    10  H   -0.040921   0.057173  -0.061742   0.375251   0.010003   0.002574
    11  H   -0.054823  -0.073554   0.019230   0.461287   0.000854   0.000016
    12  H   -0.000308  -0.021133  -0.014207   0.001285   0.407946   0.006237
    13  H    0.000093   0.021530  -0.048038   0.002201   0.409581  -0.004574
    14  H   -0.000045  -0.031284  -0.000102   0.002234   0.400732  -0.008240
    15  H    0.255433  -0.030530   0.029902  -0.017594   0.002125  -0.001033
               7          8          9         10         11         12
     1  O    0.005139   0.008172  -0.012334  -0.040921  -0.054823  -0.000308
     2  C   -0.036051   0.436359   0.453873   0.057173  -0.073554  -0.021133
     3  C    0.440822  -0.042928  -0.052478  -0.061742   0.019230  -0.014207
     4  C   -0.015428  -0.049332  -0.031699   0.375251   0.461287   0.001285
     5  C   -0.037688   0.005340  -0.006690   0.010003   0.000854   0.407946
     6  H   -0.039906  -0.007307   0.005397   0.002574   0.000016   0.006237
     7  H    0.538908   0.005930  -0.006437   0.001025  -0.000415  -0.008131
     8  H    0.005930   0.525836  -0.031188  -0.004554  -0.003146  -0.000895
     9  H   -0.006437  -0.031188   0.492967   0.004364  -0.005614   0.001871
    10  H    0.001025  -0.004554   0.004364   0.553289  -0.030124  -0.000033
    11  H   -0.000415  -0.003146  -0.005614  -0.030124   0.534360  -0.000002
    12  H   -0.008131  -0.000895   0.001871  -0.000033  -0.000002   0.548662
    13  H   -0.004833   0.000003  -0.000122  -0.000010   0.000014  -0.024650
    14  H    0.006410   0.002372  -0.000064  -0.000036  -0.000038  -0.036979
    15  H    0.000296   0.000011   0.000026  -0.009517   0.008963   0.000021
              13         14         15
     1  O    0.000093  -0.000045   0.255433
     2  C    0.021530  -0.031284  -0.030530
     3  C   -0.048038  -0.000102   0.029902
     4  C    0.002201   0.002234  -0.017594
     5  C    0.409581   0.400732   0.002125
     6  H   -0.004574  -0.008240  -0.001033
     7  H   -0.004833   0.006410   0.000296
     8  H    0.000003   0.002372   0.000011
     9  H   -0.000122  -0.000064   0.000026
    10  H   -0.000010  -0.000036  -0.009517
    11  H    0.000014  -0.000038   0.008963
    12  H   -0.024650  -0.036979   0.000021
    13  H    0.538403  -0.025120   0.000003
    14  H   -0.025120   0.552464  -0.000014
    15  H    0.000003  -0.000014   0.520246
 Mulliken charges:
               1
     1  O   -0.343142
     2  C   -0.339726
     3  C   -0.180683
     4  C   -0.211436
     5  C   -0.523795
     6  H    0.163512
     7  H    0.150359
     8  H    0.155328
     9  H    0.188127
    10  H    0.143256
    11  H    0.142993
    12  H    0.140316
    13  H    0.135518
    14  H    0.137712
    15  H    0.241661
 Sum of Mulliken charges =  -0.00000
 Mulliken charges with hydrogens summed into heavy atoms:
               1
     1  O   -0.101481
     2  C    0.003729
     3  C    0.133188
     4  C    0.074813
     5  C   -0.110249
 APT charges:
               1
     1  O   -0.607883
     2  C   -0.751215
     3  C   -0.497451
     4  C   -0.669805
     5  C   -1.335999
     6  H    0.349682
     7  H    0.296494
     8  H    0.383274
     9  H    0.364407
    10  H    0.344060
    11  H    0.482905
    12  H    0.335873
    13  H    0.507336
    14  H    0.376413
    15  H    0.421908
 Sum of APT charges =  -0.00000
 APT charges with hydrogens summed into heavy atoms:
               1
     1  O   -0.185975
     2  C   -0.003534
     3  C    0.148725
     4  C    0.157160
     5  C   -0.116376
 Electronic spatial extent (au):  <R**2>=            602.6741
 Charge=              0.0000 electrons
 Dipole moment (field-independent basis, Debye):
    X=             -1.4807    Y=              0.1306    Z=              1.0237  Tot=              1.8048
 Quadrupole moment (field-independent basis, Debye-Ang):
   XX=            -39.0118   YY=            -31.1082   ZZ=            -33.8281
   XY=              1.4417   XZ=              1.8719   YZ=             -0.9036
 Traceless Quadrupole moment (field-independent basis, Debye-Ang):
   XX=             -4.3624   YY=              3.5411   ZZ=              0.8213
   XY=              1.4417   XZ=              1.8719   YZ=             -0.9036
 Octapole moment (field-independent basis, Debye-Ang**2):
  XXX=             -5.5238  YYY=             -6.9801  ZZZ=             -0.4310  XYY=              5.8095
  XXY=              3.7168  XXZ=              3.8640  XZZ=              1.7334  YZZ=             -0.3537
  YYZ=              0.9265  XYZ=             -2.2983
 Hexadecapole moment (field-independent basis, Debye-Ang**3):
 XXXX=           -645.6975 YYYY=           -116.8446 ZZZZ=            -74.6327 XXXY=             12.5801
 XXXZ=              2.2665 YYYX=            -11.7473 YYYZ=              0.5055 ZZZX=              1.5540
 ZZZY=             -0.5870 XXYY=           -114.4427 XXZZ=           -114.7926 YYZZ=            -35.5897
 XXYZ=             -4.1489 YYXZ=             -1.0249 ZZXY=             -0.6379
 N-N= 1.884773035016D+02 E-N=-9.212907582822D+02  KE= 2.327044275791D+02
  Exact polarizability:   0.000   0.000   0.000   0.000   0.000   0.000
 Approx polarizability:  61.902  -0.079  63.131  -0.357  -0.038  60.972
 No NMR shielding tensors so no spin-rotation constants.
 Leave Link  601 at Tue Mar 12 00:37:07 2019, MaxMem=   671088640 cpu:               7.2 elap:               0.4
 (Enter /shared/centos7/gaussian/g16/l701.exe)
 ... and contract with generalized density number  0.
 Compute integral second derivatives.
 Leave Link  701 at Tue Mar 12 00:37:08 2019, MaxMem=   671088640 cpu:               9.0 elap:               0.5
 (Enter /shared/centos7/gaussian/g16/l702.exe)
 L702 exits ... SP integral derivatives will be done elsewhere.
 Leave Link  702 at Tue Mar 12 00:37:08 2019, MaxMem=   671088640 cpu:               0.9 elap:               0.1
 (Enter /shared/centos7/gaussian/g16/l703.exe)
 Integral derivatives from FoFJK, PRISM(SPDF).
 Compute integral second derivatives, UseDBF=F ICtDFT=           0.
 Calling FoFJK, ICntrl=    100147 FMM=F ISym2X=0 I1Cent= 0 IOpClX= 0 NMat=1 NMatS=1 NMatT=0.
 FoFJK:  IHMeth= 1 ICntrl=  100147 DoSepK=F KAlg= 0 I1Cent=           0 FoldK=F
 IRaf=         0 NMat=       1 IRICut=       1 DoRegI=T DoRafI=F ISym2E= 0 IDoP0=0 IntGTp=1.
 FoFCou: FMM=F IPFlag=           0 FMFlag=      100000 FMFlg1=         800
         NFxFlg=           0 DoJE=F BraDBF=F KetDBF=F FulRan=T
         wScrn=  0.000000 ICntrl=    100147 IOpCl=  0 I1Cent=           0 NGrid=           0
         NMat0=    1 NMatS0=      1 NMatT0=    0 NMatD0=    1 NMtDS0=    0 NMtDT0=    0
 Symmetry not used in FoFCou.
 Leave Link  703 at Tue Mar 12 00:39:15 2019, MaxMem=   671088640 cpu:            2530.0 elap:             126.5
 (Enter /shared/centos7/gaussian/g16/l716.exe)
 Dipole        =-5.82537158D-01 5.13888627D-02 4.02763216D-01
 Polarizability= 0.00000000D+00 0.00000000D+00 0.00000000D+00
                 0.00000000D+00 0.00000000D+00 0.00000000D+00
 ***** Axes restored to original set *****
 -------------------------------------------------------------------
 Center     Atomic                   Forces (Hartrees/Bohr)
 Number     Number              X              Y              Z
 -------------------------------------------------------------------
      1        8           0.000001237    0.000001809    0.000002888
      2        6          -0.000000273    0.000000432   -0.000000412
      3        6           0.000000067   -0.000000197   -0.000000279
      4        6          -0.000000888    0.000002813    0.000000185
      5        6          -0.000000028   -0.000003202   -0.000001040
      6        1          -0.000000386    0.000001604    0.000000752
      7        1           0.000001599   -0.000000467    0.000002243
      8        1          -0.000001754   -0.000000265   -0.000002828
      9        1           0.000000262   -0.000002004   -0.000001065
     10        1          -0.000001378    0.000004039    0.000000686
     11        1          -0.000001303    0.000002176   -0.000000333
     12        1           0.000001124   -0.000004370   -0.000001177
     13        1           0.000001158   -0.000002288   -0.000000502
     14        1          -0.000000956   -0.000002057   -0.000003002
     15        1           0.000001518    0.000001976    0.000003885
 -------------------------------------------------------------------
 Cartesian Forces:  Max     0.000004370 RMS     0.000001829
 FormGI is forming the generalized inverse of G from B-inverse, IUseBI=4.
 Leave Link  716 at Tue Mar 12 00:39:15 2019, MaxMem=   671088640 cpu:               0.6 elap:               0.0
 (Enter /shared/centos7/gaussian/g16/l103.exe)

 GradGradGradGradGradGradGradGradGradGradGradGradGradGradGradGradGradGrad
 Berny optimization.
 Red2BG is reusing G-inverse.
 Internal  Forces:  Max     0.000000446 RMS     0.000000120
 Search for a local minimum.
 Step number   1 out of a maximum of   79 on scan point     1 out of    37
 All quantities printed in internal units (Hartrees-Bohrs-Radians)
 RMS Force = .12106D-06 SwitMx=.10000D-02 MixMth= 2
 Mixed Optimization -- En-DIIS/RFO-DIIS
 Second derivative matrix not updated -- analytic derivatives used.
 ITU=  0
     Eigenvalues ---    0.00193   0.00264   0.00356   0.03191   0.03699
     Eigenvalues ---    0.03800   0.03939   0.04233   0.04532   0.04568
     Eigenvalues ---    0.05574   0.06841   0.07193   0.08492   0.09566
     Eigenvalues ---    0.12034   0.12146   0.13009   0.13481   0.15822
     Eigenvalues ---    0.16714   0.17965   0.22524   0.24303   0.28728
     Eigenvalues ---    0.30202   0.31997   0.32243   0.32876   0.33273
     Eigenvalues ---    0.33775   0.33932   0.34041   0.34121   0.34178
     Eigenvalues ---    0.35048   0.39679   0.549771000.000001000.00000
     Eigenvalues --- 1000.000001000.000001000.000001000.000001000.00000
     Eigenvalues --- 1000.000001000.000001000.000001000.000001000.00000
     Eigenvalues --- 1000.000001000.000001000.000001000.000001000.00000
     Eigenvalues --- 1000.000001000.000001000.000001000.000001000.00000
     Eigenvalues --- 1000.000001000.000001000.000001000.000001000.00000
     Eigenvalues --- 1000.000001000.000001000.000001000.00000
 RFO step:  Lambda= 0.00000000D+00 EMin= 1.93296758D-03
 Linear search not attempted -- first point.
 Iteration  1 RMS(Cart)=  0.00000060 RMS(Int)=  0.00000000
 Iteration  1 RMS(Cart)=  0.00000000 RMS(Int)=  0.00000000
 ITry= 1 IFail=0 DXMaxC= 1.56D-06 DCOld= 1.00D+10 DXMaxT= 3.00D-01 DXLimC= 3.00D+00 Rises=F
 Variable       Old X    -DE/DX   Delta X   Delta X   Delta X     New X
                                 (Linear)    (Quad)   (Total)
    R1        2.67565   0.00000   0.00000   0.00000   0.00000   2.67566
    R2        1.81158   0.00000   0.00000   0.00000   0.00000   1.81158
    R3        2.88194   0.00000   0.00000   0.00000   0.00000   2.88194
    R4        2.87321  -0.00000   0.00000  -0.00000  -0.00000   2.87320
    R5        2.06730  -0.00000   0.00000  -0.00000  -0.00000   2.06730
    R6        2.06536   0.00000   0.00000   0.00000   0.00000   2.06536
    R7        2.88073  -0.00000   0.00000  -0.00000  -0.00000   2.88073
    R8        2.06751   0.00000   0.00000   0.00000   0.00000   2.06752
    R9        2.06598  -0.00000   0.00000  -0.00000  -0.00000   2.06598
   R10        2.07193   0.00000   0.00000   0.00000   0.00000   2.07193
   R11        2.05829  -0.00000   0.00000  -0.00000  -0.00000   2.05829
   R12        2.06092  -0.00000   0.00000  -0.00000  -0.00000   2.06092
   R13        2.05831  -0.00000   0.00000  -0.00000  -0.00000   2.05830
   R14        2.06107   0.00000   0.00000   0.00000   0.00000   2.06107
    A1        1.90343   0.00000   0.00000   0.00000   0.00000   1.90343
    A2        1.97838   0.00000   0.00000   0.00000   0.00000   1.97838
    A3        1.90705  -0.00000   0.00000  -0.00000  -0.00000   1.90705
    A4        1.91358  -0.00000   0.00000  -0.00000  -0.00000   1.91358
    A5        1.89291   0.00000   0.00000   0.00000   0.00000   1.89291
    A6        1.89963  -0.00000   0.00000  -0.00000  -0.00000   1.89963
    A7        1.86907   0.00000   0.00000   0.00000   0.00000   1.86907
    A8        1.96176   0.00000   0.00000   0.00000   0.00000   1.96176
    A9        1.90673  -0.00000   0.00000  -0.00000  -0.00000   1.90673
   A10        1.91324  -0.00000   0.00000   0.00000   0.00000   1.91324
   A11        1.91511  -0.00000   0.00000  -0.00000  -0.00000   1.91511
   A12        1.90101  -0.00000   0.00000   0.00000   0.00000   1.90101
   A13        1.86340   0.00000   0.00000  -0.00000  -0.00000   1.86340
   A14        1.97209   0.00000   0.00000   0.00000   0.00000   1.97209
   A15        1.92805  -0.00000   0.00000  -0.00000  -0.00000   1.92805
   A16        1.84335  -0.00000   0.00000  -0.00000  -0.00000   1.84335
   A17        1.91745   0.00000   0.00000   0.00000   0.00000   1.91745
   A18        1.92349   0.00000   0.00000   0.00000   0.00000   1.92349
   A19        1.87588   0.00000   0.00000   0.00000   0.00000   1.87588
   A20        1.93183  -0.00000   0.00000  -0.00000  -0.00000   1.93183
   A21        1.94922   0.00000   0.00000   0.00000   0.00000   1.94923
   A22        1.93311  -0.00000   0.00000  -0.00000  -0.00000   1.93311
   A23        1.88397   0.00000   0.00000   0.00000   0.00000   1.88397
   A24        1.87888   0.00000   0.00000  -0.00000  -0.00000   1.87888
   A25        1.88435   0.00000   0.00000   0.00000   0.00000   1.88435
    D1       -1.16983   0.00000   0.00000   0.00000   0.00000  -1.16983
    D2        0.98612   0.00000   0.00000   0.00000   0.00000   0.98612
    D3        3.00945  -0.00000   0.00000  -0.00000  -0.00000   3.00945
    D4        3.09685   0.00000   0.00000  -0.00000  -0.00000   3.09685
    D5        0.96670  -0.00000   0.00000  -0.00000  -0.00000   0.96670
    D6       -1.06955   0.00000   0.00000   0.00000   0.00000  -1.06955
    D7        0.98367  -0.00000   0.00000  -0.00000  -0.00000   0.98367
    D8       -1.14648  -0.00000   0.00000  -0.00000  -0.00000  -1.14648
    D9        3.10046   0.00000   0.00000  -0.00000  -0.00000   3.10046
   D10       -1.05981  -0.00000   0.00000  -0.00000  -0.00000  -1.05981
   D11        3.09323  -0.00000   0.00000  -0.00000  -0.00000   3.09323
   D12        1.05698   0.00000   0.00000  -0.00000  -0.00000   1.05698
   D13        1.11672  -0.00000   0.00000  -0.00000  -0.00000   1.11672
   D14       -1.04507   0.00000   0.00000   0.00000   0.00000  -1.04507
   D15       -3.10888   0.00000   0.00000   0.00000   0.00000  -3.10888
   D16       -3.04534  -0.00000   0.00000  -0.00000  -0.00000  -3.04534
   D17        1.07606   0.00000   0.00000   0.00000   0.00000   1.07606
   D18       -0.98776  -0.00000   0.00000   0.00000   0.00000  -0.98776
   D19       -1.01758  -0.00000   0.00000   0.00000   0.00000  -1.01758
   D20        3.10381   0.00000   0.00000   0.00000   0.00000   3.10381
   D21        1.04000   0.00000   0.00000   0.00000   0.00000   1.04000
   D22        1.03419  -0.00000   0.00000  -0.00000  -0.00000   1.03419
   D23        3.13380   0.00000   0.00000   0.00000   0.00000   3.13380
   D24       -1.04842   0.00000   0.00000   0.00000   0.00000  -1.04842
   D25       -3.12361  -0.00000   0.00000  -0.00000  -0.00000  -3.12361
   D26       -1.02400   0.00000   0.00000   0.00000   0.00000  -1.02400
   D27        1.07696   0.00000   0.00000   0.00000   0.00000   1.07696
   D28       -1.08958  -0.00000   0.00000  -0.00000  -0.00000  -1.08958
   D29        1.01004  -0.00000   0.00000  -0.00000  -0.00000   1.01004
   D30        3.11100   0.00000   0.00000   0.00000   0.00000   3.11100
         Item               Value     Threshold  Converged?
 Maximum Force            0.000000     0.000450     YES
 RMS     Force            0.000000     0.000300     YES
 Maximum Displacement     0.000002     0.001800     YES
 RMS     Displacement     0.000001     0.001200     YES
 Predicted change in Energy=-2.073275D-12
 Optimization completed.
    -- Stationary point found.
                           ----------------------------
                           !   Optimized Parameters   !
                           ! (Angstroms and Degrees)  !
 --------------------------                            --------------------------
 ! Name  Definition              Value          Derivative Info.                !
 --------------------------------------------------------------------------------
 ! R1    R(1,4)                  1.4159         -DE/DX =    0.0                 !
 ! R2    R(1,15)                 0.9586         -DE/DX =    0.0                 !
 ! R3    R(2,3)                  1.5251         -DE/DX =    0.0                 !
 ! R4    R(2,4)                  1.5204         -DE/DX =    0.0                 !
 ! R5    R(2,8)                  1.094          -DE/DX =    0.0                 !
 ! R6    R(2,9)                  1.0929         -DE/DX =    0.0                 !
 ! R7    R(3,5)                  1.5244         -DE/DX =    0.0                 !
 ! R8    R(3,6)                  1.0941         -DE/DX =    0.0                 !
 ! R9    R(3,7)                  1.0933         -DE/DX =    0.0                 !
 ! R10   R(4,10)                 1.0964         -DE/DX =    0.0                 !
 ! R11   R(4,11)                 1.0892         -DE/DX =    0.0                 !
 ! R12   R(5,12)                 1.0906         -DE/DX =    0.0                 !
 ! R13   R(5,13)                 1.0892         -DE/DX =    0.0                 !
 ! R14   R(5,14)                 1.0907         -DE/DX =    0.0                 !
 ! A1    A(4,1,15)             109.0584         -DE/DX =    0.0                 !
 ! A2    A(3,2,4)              113.3526         -DE/DX =    0.0                 !
 ! A3    A(3,2,8)              109.2658         -DE/DX =    0.0                 !
 ! A4    A(3,2,9)              109.6403         -DE/DX =    0.0                 !
 ! A5    A(4,2,8)              108.4556         -DE/DX =    0.0                 !
 ! A6    A(4,2,9)              108.8407         -DE/DX =    0.0                 !
 ! A7    A(8,2,9)              107.0899         -DE/DX =    0.0                 !
 ! A8    A(2,3,5)              112.4006         -DE/DX =    0.0                 !
 ! A9    A(2,3,6)              109.2474         -DE/DX =    0.0                 !
 ! A10   A(2,3,7)              109.6204         -DE/DX =    0.0                 !
 ! A11   A(5,3,6)              109.7277         -DE/DX =    0.0                 !
 ! A12   A(5,3,7)              108.9199         -DE/DX =    0.0                 !
 ! A13   A(6,3,7)              106.765          -DE/DX =    0.0                 !
 ! A14   A(1,4,2)              112.9922         -DE/DX =    0.0                 !
 ! A15   A(1,4,10)             110.4692         -DE/DX =    0.0                 !
 ! A16   A(1,4,11)             105.6164         -DE/DX =    0.0                 !
 ! A17   A(2,4,10)             109.8616         -DE/DX =    0.0                 !
 ! A18   A(2,4,11)             110.2078         -DE/DX =    0.0                 !
 ! A19   A(10,4,11)            107.4801         -DE/DX =    0.0                 !
 ! A20   A(3,5,12)             110.6859         -DE/DX =    0.0                 !
 ! A21   A(3,5,13)             111.6823         -DE/DX =    0.0                 !
 ! A22   A(3,5,14)             110.759          -DE/DX =    0.0                 !
 ! A23   A(12,5,13)            107.9436         -DE/DX =    0.0                 !
 ! A24   A(12,5,14)            107.6522         -DE/DX =    0.0                 !
 ! A25   A(13,5,14)            107.9653         -DE/DX =    0.0                 !
 ! D1    D(15,1,4,2)           -67.0262         -DE/DX =    0.0                 !
 ! D2    D(15,1,4,10)           56.5006         -DE/DX =    0.0                 !
 ! D3    D(15,1,4,11)          172.4286         -DE/DX =    0.0                 !
 ! D4    D(4,2,3,5)            177.4365         -DE/DX =    0.0                 !
 ! D5    D(4,2,3,6)             55.388          -DE/DX =    0.0                 !
 ! D6    D(4,2,3,7)            -61.2806         -DE/DX =    0.0                 !
 ! D7    D(8,2,3,5)             56.3601         -DE/DX =    0.0                 !
 ! D8    D(8,2,3,6)            -65.6884         -DE/DX =    0.0                 !
 ! D9    D(8,2,3,7)            177.643          -DE/DX =    0.0                 !
 ! D10   D(9,2,3,5)            -60.7224         -DE/DX =    0.0                 !
 ! D11   D(9,2,3,6)            177.2291         -DE/DX =    0.0                 !
 ! D12   D(9,2,3,7)             60.5606         -DE/DX =    0.0                 !
 ! D13   D(3,2,4,1)             63.9834         -DE/DX =    0.0                 !
 ! D14   D(3,2,4,10)           -59.878          -DE/DX =    0.0                 !
 ! D15   D(3,2,4,11)          -178.1258         -DE/DX =    0.0                 !
 ! D16   D(8,2,4,1)           -174.4851         -DE/DX =    0.0                 !
 ! D17   D(8,2,4,10)            61.6535         -DE/DX =    0.0                 !
 ! D18   D(8,2,4,11)           -56.5942         -DE/DX =    0.0                 !
 ! D19   D(9,2,4,1)            -58.3033         -DE/DX =    0.0                 !
 ! D20   D(9,2,4,10)           177.8354         -DE/DX =    0.0                 !
 ! D21   D(9,2,4,11)            59.5876         -DE/DX =    0.0                 !
 ! D22   D(2,3,5,12)            59.2547         -DE/DX =    0.0                 !
 ! D23   D(2,3,5,13)           179.5537         -DE/DX =    0.0                 !
 ! D24   D(2,3,5,14)           -60.0701         -DE/DX =    0.0                 !
 ! D25   D(6,3,5,12)          -178.9698         -DE/DX =    0.0                 !
 ! D26   D(6,3,5,13)           -58.6709         -DE/DX =    0.0                 !
 ! D27   D(6,3,5,14)            61.7053         -DE/DX =    0.0                 !
 ! D28   D(7,3,5,12)           -62.4281         -DE/DX =    0.0                 !
 ! D29   D(7,3,5,13)            57.8708         -DE/DX =    0.0                 !
 ! D30   D(7,3,5,14)           178.247          -DE/DX =    0.0                 !
 --------------------------------------------------------------------------------
 Lowest energy point so far.  Saving SCF results.
 Iteration  1 RMS(Cart)=  0.01283776 RMS(Int)=  0.01408980
 Iteration  2 RMS(Cart)=  0.00089502 RMS(Int)=  0.01407934
 Iteration  3 RMS(Cart)=  0.00005792 RMS(Int)=  0.01407932
 Iteration  4 RMS(Cart)=  0.00000320 RMS(Int)=  0.01407932
 Iteration  5 RMS(Cart)=  0.00000020 RMS(Int)=  0.01407932
 Iteration  1 RMS(Cart)=  0.00579547 RMS(Int)=  0.00621205
 Iteration  2 RMS(Cart)=  0.00257619 RMS(Int)=  0.00692308
 Iteration  3 RMS(Cart)=  0.00112793 RMS(Int)=  0.00761743
 Iteration  4 RMS(Cart)=  0.00049031 RMS(Int)=  0.00797189
 Iteration  5 RMS(Cart)=  0.00021246 RMS(Int)=  0.00813382
 Iteration  6 RMS(Cart)=  0.00009193 RMS(Int)=  0.00820534
 Iteration  7 RMS(Cart)=  0.00003975 RMS(Int)=  0.00823653
 Iteration  8 RMS(Cart)=  0.00001719 RMS(Int)=  0.00825006
 Iteration  9 RMS(Cart)=  0.00000743 RMS(Int)=  0.00825591
 Iteration 10 RMS(Cart)=  0.00000321 RMS(Int)=  0.00825845
 Iteration 11 RMS(Cart)=  0.00000139 RMS(Int)=  0.00825954
 Iteration 12 RMS(Cart)=  0.00000060 RMS(Int)=  0.00826002
 GradGradGradGradGradGradGradGradGradGradGradGradGradGradGradGradGradGrad

 Leave Link  103 at Tue Mar 12 00:39:15 2019, MaxMem=   671088640 cpu:               1.0 elap:               0.1
 (Enter /shared/centos7/gaussian/g16/l202.exe)
                          Input orientation:                          
 ---------------------------------------------------------------------
 Center     Atomic      Atomic             Coordinates (Angstroms)
 Number     Number       Type             X           Y           Z
 ---------------------------------------------------------------------
      1          8           0        1.994360   -0.681675   -0.286263
      2          6           0        0.014999    0.714465   -0.209615
      3          6           0       -0.929334   -0.370925    0.296310
      4          6           0        1.454546    0.517626    0.238361
      5          6           0       -2.376097   -0.119088   -0.112723
      6          1           0       -0.858849   -0.430858    1.386474
      7          1           0       -0.614602   -1.342466   -0.093933
      8          1           0       -0.329362    1.688696    0.149635
      9          1           0       -0.013563    0.746423   -1.301718
     10          1           0        1.420466    0.515024    1.334495
     11          1           0        2.066338    1.339962   -0.130209
     12          1           0       -2.467279   -0.074604   -1.198588
     13          1           0       -3.038793   -0.904743    0.247767
     14          1           0       -2.731400    0.830956    0.288205
     15          1           0        1.588051   -1.428146    0.157649
 ---------------------------------------------------------------------
                    Distance matrix (angstroms):
                    1          2          3          4          5
     1  O    0.000000
     2  C    2.423418   0.000000
     3  C    2.997323   1.525056   0.000000
     4  C    1.415963   1.520436   2.544753   0.000000
     5  C    4.409934   2.534076   1.524419   3.899037   0.000000
     6  H    3.316890   2.150087   1.094084   2.751287   2.155652
     7  H    2.698207   2.154239   1.093269   2.802095   2.144731
     8  H    3.347887   1.093970   2.150237   2.135792   2.743363
     9  H    2.665027   1.092944   2.154250   2.139985   2.782873
    10  H    2.094826   2.097471   2.717405   1.096666   4.112229
    11  H    2.028928   2.146053   3.476076   1.089206   4.675934
    12  H    4.594246   2.786109   2.165133   4.218563   1.090594
    13  H    5.066318   3.486643   2.176496   4.713101   1.089208
    14  H    4.995085   2.793582   2.166108   4.197953   1.090672
    15  H    0.958834   2.683311   2.733893   1.952016   4.183444
                    6          7          8          9         10
     6  H    0.000000
     7  H    1.755646   0.000000
     8  H    2.510505   3.054281   0.000000
     9  H    3.053993   2.486654   1.758986   0.000000
    10  H    2.468333   3.103574   2.417291   3.009917   0.000000
    11  H    3.740702   3.792648   2.437069   2.459819   1.800842
    12  H    3.065373   2.502029   3.081821   2.589487   4.677470
    13  H    2.504671   2.486979   3.751876   3.778792   4.804342
    14  H    2.510939   3.057879   2.554351   3.149863   4.293311
    15  H    2.914089   2.218629   3.659404   3.069799   2.277928
                   11         12         13         14         15
    11  H    0.000000
    12  H    4.867866   0.000000
    13  H    5.589627   1.762868   0.000000
    14  H    4.842773   1.760781   1.763173   0.000000
    15  H    2.823835   4.485216   4.657227   4.876294   0.000000
 Stoichiometry    C4H10O
 Framework group  C1[X(C4H10O)]
 Deg. of freedom    39
 Full point group                 C1      NOp   1
 RotChk:  IX=0 Diff= 6.41D-03
 Largest Abelian subgroup         C1      NOp   1
 Largest concise Abelian subgroup C1      NOp   1
                         Standard orientation:                         
 ---------------------------------------------------------------------
 Center     Atomic      Atomic             Coordinates (Angstroms)
 Number     Number       Type             X           Y           Z
 ---------------------------------------------------------------------
      1          8           0        1.996415   -0.680779   -0.272687
      2          6           0        0.016719    0.715443   -0.206975
      3          6           0       -0.929555   -0.368839    0.297698
      4          6           0        1.454503    0.519684    0.247093
      5          6           0       -2.374710   -0.117994   -0.117580
      6          1           0       -0.863347   -0.426297    1.388265
      7          1           0       -0.613258   -1.341248   -0.089102
      8          1           0       -0.329085    1.690471    0.148710
      9          1           0       -0.007558    0.744923   -1.299252
     10          1           0        1.416120    0.519566    1.343087
     11          1           0        2.067708    1.341210   -0.120937
     12          1           0       -2.461631   -0.075977   -1.203893
     13          1           0       -3.038788   -0.902860    0.242087
     14          1           0       -2.731618    0.832940    0.279795
     15          1           0        1.588393   -1.426259    0.171318
 ---------------------------------------------------------------------
 Rotational constants (GHZ):          12.5055666           2.3986241           2.2008088
 Leave Link  202 at Tue Mar 12 00:39:15 2019, MaxMem=   671088640 cpu:               0.2 elap:               0.0
 (Enter /shared/centos7/gaussian/g16/l301.exe)
 Standard basis: 6-311+G(2df,2p) (5D, 7F)
 Ernie: Thresh=  0.10000D-02 Tol=  0.10000D-05 Strict=F.
 There are   285 symmetry adapted cartesian basis functions of A   symmetry.
 There are   260 symmetry adapted basis functions of A   symmetry.
   260 basis functions,   370 primitive gaussians,   285 cartesian basis functions
    21 alpha electrons       21 beta electrons
       nuclear repulsion energy       188.9158871491 Hartrees.
 IExCor= 4336 DFT=T Ex+Corr=M062X ExCW=0 ScaHFX=  0.540000
 ScaDFX=  1.000000  1.000000  1.000000  1.000000 ScalE2=  1.000000  1.000000
 IRadAn=      5 IRanWt=     -1 IRanGd=            0 ICorTp=0 IEmpDi=  4
 NAtoms=   15 NActive=   15 NUniq=   15 SFac= 1.00D+00 NAtFMM=   60 NAOKFM=F Big=F
 Integral buffers will be    131072 words long.
 Raffenetti 2 integral format.
 Two-electron integral symmetry is turned on.
 Leave Link  301 at Tue Mar 12 00:39:15 2019, MaxMem=   671088640 cpu:               1.2 elap:               0.1
 (Enter /shared/centos7/gaussian/g16/l302.exe)
 NPDir=0 NMtPBC=     1 NCelOv=     1 NCel=       1 NClECP=     1 NCelD=      1
         NCelK=      1 NCelE2=     1 NClLst=     1 CellRange=     0.0.
 One-electron integrals computed using PRISM.
 One-electron integral symmetry used in STVInt
 NBasis=   260 RedAO= T EigKep=  2.00D-05  NBF=   260
 NBsUse=   260 1.00D-06 EigRej= -1.00D+00 NBFU=   260
 Precomputing XC quadrature grid using
 IXCGrd= 4 IRadAn=           5 IRanWt=          -1 IRanGd=           0 AccXCQ= 0.00D+00.
 Generated NRdTot=       0 NPtTot=           0 NUsed=           0 NTot=          32
 NSgBfM=   285   285   285   285   285 MxSgAt=    15 MxSgA2=    15.
 Leave Link  302 at Tue Mar 12 00:39:15 2019, MaxMem=   671088640 cpu:               9.0 elap:               0.5
 (Enter /shared/centos7/gaussian/g16/l303.exe)
 DipDrv:  MaxL=1.
 Leave Link  303 at Tue Mar 12 00:39:15 2019, MaxMem=   671088640 cpu:               0.8 elap:               0.1
 (Enter /shared/centos7/gaussian/g16/l401.exe)
 Initial guess from the checkpoint file:  "/scratch/underkoffler.c/gaussian_scratch/Gau-36008.chk"
 B after Tr=    -0.000000    0.000000    0.000000
         Rot=    0.999999    0.000230    0.000190    0.001291 Ang=   0.15 deg.
 Guess basis will be translated and rotated to current coordinates.
 JPrj=2 DoOrth=T DoCkMO=T.
 Generating alternative initial guess.
 ExpMin= 4.38D-02 ExpMax= 8.59D+03 ExpMxC= 1.30D+03 IAcc=2 IRadAn=         4 AccDes= 0.00D+00
 Harris functional with IExCor= 1009 and IRadAn=       4 diagonalized for initial guess.
 HarFok:  IExCor= 1009 AccDes= 0.00D+00 IRadAn=         4 IDoV= 1 UseB2=F ITyADJ=14
 ICtDFT=  3500011 ScaDFX=  1.000000  1.000000  1.000000  1.000000
 FoFCou: FMM=F IPFlag=           0 FMFlag=      100000 FMFlg1=           0
         NFxFlg=           0 DoJE=T BraDBF=F KetDBF=T FulRan=T
         wScrn=  0.000000 ICntrl=       500 IOpCl=  0 I1Cent=   200000004 NGrid=           0
         NMat0=    1 NMatS0=      1 NMatT0=    0 NMatD0=    1 NMtDS0=    0 NMtDT0=    0
 Petite list used in FoFCou.
 Harris En= -233.600297507671    
 Leave Link  401 at Tue Mar 12 00:39:16 2019, MaxMem=   671088640 cpu:              19.9 elap:               1.0
 (Enter /shared/centos7/gaussian/g16/l502.exe)
 Integral symmetry usage will be decided dynamically.
 Closed shell SCF:
 Using DIIS extrapolation, IDIIS=  1040.
 NGot=   671088640 LenX=   670917793 LenY=   670836127
 Requested convergence on RMS density matrix=1.00D-08 within 128 cycles.
 Requested convergence on MAX density matrix=1.00D-06.
 Requested convergence on             energy=1.00D-06.
 No special actions if energy rises.
 Fock matrices will be formed incrementally for  20 cycles.

 Cycle   1  Pass 1  IDiag  1:
 FoFJK:  IHMeth= 1 ICntrl=       0 DoSepK=F KAlg= 0 I1Cent=           0 FoldK=F
 IRaf= 970000000 NMat=       1 IRICut=       1 DoRegI=T DoRafI=F ISym2E= 0 IDoP0=0 IntGTp=1.
 FoFCou: FMM=F IPFlag=           0 FMFlag=      100000 FMFlg1=           0
         NFxFlg=           0 DoJE=F BraDBF=F KetDBF=F FulRan=T
         wScrn=  0.000000 ICntrl=         0 IOpCl=  0 I1Cent=           0 NGrid=           0
         NMat0=    1 NMatS0=      1 NMatT0=    0 NMatD0=    1 NMtDS0=    0 NMtDT0=    0
 Symmetry not used in FoFCou.
 E= -233.630565606355    
 DIIS: error= 1.14D-03 at cycle   1 NSaved=   1.
 NSaved= 1 IEnMin= 1 EnMin= -233.630565606355     IErMin= 1 ErrMin= 1.14D-03
 ErrMax= 1.14D-03  0.00D+00 EMaxC= 1.00D-01 BMatC= 1.19D-03 BMatP= 1.19D-03
 IDIUse=3 WtCom= 9.89D-01 WtEn= 1.14D-02
 Coeff-Com:  0.100D+01
 Coeff-En:   0.100D+01
 Coeff:      0.100D+01
 Gap=     0.619 Goal=   None    Shift=    0.000
 GapD=    0.619 DampG=2.000 DampE=1.000 DampFc=2.0000 IDamp=-1.
 RMSDP=3.86D-04 MaxDP=3.28D-02              OVMax= 1.14D-02

 Cycle   2  Pass 1  IDiag  1:
 RMSU=  3.68D-04    CP:  9.88D-01
 E= -233.631819537757     Delta-E=       -0.001253931402 Rises=F Damp=F
 DIIS: error= 2.21D-04 at cycle   2 NSaved=   2.
 NSaved= 2 IEnMin= 2 EnMin= -233.631819537757     IErMin= 2 ErrMin= 2.21D-04
 ErrMax= 2.21D-04  0.00D+00 EMaxC= 1.00D-01 BMatC= 3.03D-05 BMatP= 1.19D-03
 IDIUse=3 WtCom= 9.98D-01 WtEn= 2.21D-03
 Coeff-Com: -0.113D+00 0.111D+01
 Coeff-En:   0.000D+00 0.100D+01
 Coeff:     -0.113D+00 0.111D+01
 Gap=     0.358 Goal=   None    Shift=    0.000
 RMSDP=7.62D-05 MaxDP=6.87D-03 DE=-1.25D-03 OVMax= 3.33D-03

 Cycle   3  Pass 1  IDiag  1:
 RMSU=  3.86D-05    CP:  9.85D-01  1.16D+00
 E= -233.631870312728     Delta-E=       -0.000050774971 Rises=F Damp=F
 DIIS: error= 6.29D-05 at cycle   3 NSaved=   3.
 NSaved= 3 IEnMin= 3 EnMin= -233.631870312728     IErMin= 3 ErrMin= 6.29D-05
 ErrMax= 6.29D-05  0.00D+00 EMaxC= 1.00D-01 BMatC= 2.29D-06 BMatP= 3.03D-05
 IDIUse=1 WtCom= 1.00D+00 WtEn= 0.00D+00
 Coeff-Com: -0.293D-01 0.167D+00 0.863D+00
 Coeff:     -0.293D-01 0.167D+00 0.863D+00
[...]
           D22         59.20045  59.25232
           D23        179.52430 179.55111
           D24        -60.11491 -60.07271
           D25       -179.03084-178.97171
           D26        -58.70699 -58.67291
           D27         61.65380  61.70327
           D28        -62.65919 -62.43001
           D29         57.66466  57.86879
           D30        178.02545 178.24496
 Largest change from initial coordinates is atom    6       0.000 Angstoms.
 GradGradGradGradGradGradGradGradGradGradGradGradGradGradGradGradGradGrad

 Leave Link  103 at Tue Mar 12 01:59:44 2019, MaxMem=   671088640 cpu:               0.8 elap:               0.1
 (Enter /shared/centos7/gaussian/g16/l202.exe)
                          Input orientation:                          
 ---------------------------------------------------------------------
 Center     Atomic      Atomic             Coordinates (Angstroms)
 Number     Number       Type             X           Y           Z
 ---------------------------------------------------------------------
      1          8           0        2.029860   -0.697478   -0.180760
      2          6           0        0.029696    0.715774   -0.162397
      3          6           0       -0.959943   -0.369771    0.247472
      4          6           0        1.438929    0.472785    0.354064
      5          6           0       -2.377562   -0.073081   -0.228115
      6          1           0       -0.950036   -0.474309    1.336502
      7          1           0       -0.641749   -1.331147   -0.164523
      8          1           0       -0.316438    1.681686    0.217040
      9          1           0        0.061350    0.791488   -1.252255
     10          1           0        1.432381    0.432616    1.449722
     11          1           0        2.093683    1.292281    0.060656
     12          1           0       -2.408633    0.016298   -1.314595
     13          1           0       -3.072770   -0.859060    0.063941
     14          1           0       -2.737251    0.867186    0.191509
     15          1           0        1.557961   -1.464620    0.147586
 ---------------------------------------------------------------------
                    Distance matrix (angstroms):
                    1          2          3          4          5
     1  O    0.000000
     2  C    2.449138   0.000000
     3  C    3.038042   1.525053   0.000000
     4  C    1.415893   1.520432   2.544769   0.000000
     5  C    4.451684   2.534069   1.524418   3.899039   0.000000
     6  H    3.351369   2.150087   1.094081   2.751241   2.155653
     7  H    2.745778   2.154235   1.093267   2.802200   2.144719
     8  H    3.365083   1.093968   2.150232   2.135774   2.743283
     9  H    2.690754   1.092944   2.154239   2.139990   2.782919
    10  H    2.071851   2.155604   2.795075   1.096413   4.193630
    11  H    2.005367   2.154566   3.481659   1.089204   4.683977
    12  H    4.636300   2.786086   2.165134   4.218594   1.090593
    13  H    5.111049   3.486636   2.176494   4.713110   1.089208
    14  H    5.031114   2.793595   2.166106   4.197911   1.090671
    15  H    0.958648   2.680635   2.747456   1.952009   4.191166
                    6          7          8          9         10
     6  H    0.000000
     7  H    1.755645   0.000000
     8  H    2.510569   3.054272   0.000000
     9  H    3.053983   2.486582   1.758978   0.000000
    10  H    2.551713   3.165227   2.477508   3.051098   0.000000
    11  H    3.743374   3.796798   2.446380   2.470811   1.762342
    12  H    3.065374   2.502030   3.081671   2.589521   4.750595
    13  H    2.504685   2.486951   3.751826   3.778808   4.887249
    14  H    2.510928   3.057868   2.554290   3.149976   4.376960
    15  H    2.946912   2.225748   3.662982   3.047856   2.304524
                   11         12         13         14         15
    11  H    0.000000
    12  H    4.877529   0.000000
    13  H    5.596474   1.762865   0.000000
    14  H    4.851366   1.760780   1.763171   0.000000
    15  H    2.809815   4.479393   4.670907   4.887545   0.000000
 Stoichiometry    C4H10O
 Framework group  C1[X(C4H10O)]
 Deg. of freedom    39
 Full point group                 C1      NOp   1
 RotChk:  IX=0 Diff= 8.06D-16
 Largest Abelian subgroup         C1      NOp   1
 Largest concise Abelian subgroup C1      NOp   1
                         Standard orientation:                         
 ---------------------------------------------------------------------
 Center     Atomic      Atomic             Coordinates (Angstroms)
 Number     Number       Type             X           Y           Z
 ---------------------------------------------------------------------
      1          8           0        2.029099   -0.668599   -0.266155
      2          6           0        0.006359    0.711074   -0.208722
      3          6           0       -0.941014   -0.370800    0.299037
      4          6           0        1.444043    0.514910    0.245477
      5          6           0       -2.386022   -0.119279   -0.116345
      6          1           0       -0.874469   -0.425591    1.389717
      7          1           0       -0.626032   -1.344555   -0.085435
      8          1           0       -0.338244    1.687423    0.144491
      9          1           0       -0.018190    0.737718   -1.301065
     10          1           0        1.493288    0.524444    1.340743
     11          1           0        2.067826    1.330850   -0.117155
     12          1           0       -2.473289   -0.079860   -1.202726
     13          1           0       -3.050894   -0.902465    0.245509
     14          1           0       -2.741662    0.833058    0.278795
     15          1           0        1.588686   -1.427663    0.119675
 ---------------------------------------------------------------------
 Rotational constants (GHZ):          12.6540851           2.3645380           2.1753610
 Leave Link  202 at Tue Mar 12 01:59:44 2019, MaxMem=   671088640 cpu:               0.5 elap:               0.0
 (Enter /shared/centos7/gaussian/g16/l601.exe)
 Copying SCF densities to generalized density rwf, IOpCl= 0 IROHF=0.

 **********************************************************************

            Population analysis using the SCF density.

 **********************************************************************

 Orbital symmetries:
       Occupied  (A) (A) (A) (A) (A) (A) (A) (A) (A) (A) (A) (A)
                 (A) (A) (A) (A) (A) (A) (A) (A) (A)
       Virtual   (A) (A) (A) (A) (A) (A) (A) (A) (A) (A) (A) (A)
                 (A) (A) (A) (A) (A) (A) (A) (A) (A) (A) (A) (A)
                 (A) (A) (A) (A) (A) (A) (A) (A) (A) (A) (A) (A)
                 (A) (A) (A) (A) (A) (A) (A) (A) (A) (A) (A) (A)
                 (A) (A) (A) (A) (A) (A) (A) (A) (A) (A) (A) (A)
                 (A) (A) (A) (A) (A) (A) (A) (A) (A) (A) (A) (A)
                 (A) (A) (A) (A) (A) (A) (A) (A) (A) (A) (A) (A)
                 (A) (A) (A) (A) (A) (A) (A) (A) (A) (A) (A) (A)
                 (A) (A) (A) (A) (A) (A) (A) (A) (A) (A) (A) (A)
                 (A) (A) (A) (A) (A) (A) (A) (A) (A) (A) (A) (A)
                 (A) (A) (A) (A) (A) (A) (A) (A) (A) (A) (A) (A)
                 (A) (A) (A) (A) (A) (A) (A) (A) (A) (A) (A) (A)
                 (A) (A) (A) (A) (A) (A) (A) (A) (A) (A) (A) (A)
                 (A) (A) (A) (A) (A) (A) (A) (A) (A) (A) (A) (A)
                 (A) (A) (A) (A) (A) (A) (A) (A) (A) (A) (A) (A)
                 (A) (A) (A) (A) (A) (A) (A) (A) (A) (A) (A) (A)
                 (A) (A) (A) (A) (A) (A) (A) (A) (A) (A) (A) (A)
                 (A) (A) (A) (A) (A) (A) (A) (A) (A) (A) (A) (A)
                 (A) (A) (A) (A) (A) (A) (A) (A) (A) (A) (A) (A)
                 (A) (A) (A) (A) (A) (A) (A) (A) (A) (A) (A)
 The electronic state is 1-A.
 Alpha  occ. eigenvalues --  -19.61845 -10.57815 -10.53585 -10.52976 -10.52569
 Alpha  occ. eigenvalues --   -1.14311  -0.89843  -0.81819  -0.72702  -0.66605
 Alpha  occ. eigenvalues --   -0.58778  -0.54408  -0.51687  -0.51097  -0.46321
 Alpha  occ. eigenvalues --   -0.45236  -0.42725  -0.40850  -0.39592  -0.38023
 Alpha  occ. eigenvalues --   -0.34658
 Alpha virt. eigenvalues --    0.01418   0.02671   0.02852   0.03831   0.05777
 Alpha virt. eigenvalues --    0.05958   0.06637   0.07517   0.08029   0.08728
 Alpha virt. eigenvalues --    0.10088   0.10698   0.12909   0.14519   0.15574
 Alpha virt. eigenvalues --    0.17645   0.18409   0.19083   0.20212   0.21141
 Alpha virt. eigenvalues --    0.21907   0.22328   0.23994   0.24592   0.26159
 Alpha virt. eigenvalues --    0.26689   0.27330   0.28570   0.29101   0.29932
 Alpha virt. eigenvalues --    0.31028   0.31391   0.31710   0.36345   0.41431
 Alpha virt. eigenvalues --    0.43307   0.43765   0.45258   0.46775   0.49393
 Alpha virt. eigenvalues --    0.51718   0.53267   0.54261   0.55945   0.56752
 Alpha virt. eigenvalues --    0.57767   0.58695   0.59940   0.60960   0.63484
 Alpha virt. eigenvalues --    0.63725   0.64264   0.64888   0.65942   0.67459
 Alpha virt. eigenvalues --    0.68543   0.69926   0.70351   0.74103   0.76571
 Alpha virt. eigenvalues --    0.80086   0.80830   0.81023   0.86388   0.88770
 Alpha virt. eigenvalues --    0.90995   0.91955   0.94875   0.95737   0.99891
 Alpha virt. eigenvalues --    1.03102   1.04697   1.06545   1.09224   1.12040
 Alpha virt. eigenvalues --    1.13508   1.14654   1.16265   1.16556   1.17949
 Alpha virt. eigenvalues --    1.19315   1.21180   1.21664   1.22229   1.24820
 Alpha virt. eigenvalues --    1.25773   1.27891   1.29224   1.31682   1.32942
 Alpha virt. eigenvalues --    1.33227   1.37919   1.38787   1.39929   1.43529
 Alpha virt. eigenvalues --    1.44323   1.44924   1.45496   1.45903   1.48169
 Alpha virt. eigenvalues --    1.49261   1.52050   1.54852   1.56350   1.58826
 Alpha virt. eigenvalues --    1.60043   1.60820   1.62704   1.64204   1.64405
 Alpha virt. eigenvalues --    1.67865   1.68729   1.73454   1.79420   1.97660
 Alpha virt. eigenvalues --    2.09625   2.15506   2.29288   2.31383   2.40680
 Alpha virt. eigenvalues --    2.45695   2.48722   2.50520   2.56963   2.59092
 Alpha virt. eigenvalues --    2.63986   2.66366   2.75423   2.76310   2.78470
 Alpha virt. eigenvalues --    2.81430   2.83341   2.85688   2.89297   2.91513
 Alpha virt. eigenvalues --    2.94856   2.97639   2.98777   3.03307   3.04200
 Alpha virt. eigenvalues --    3.08897   3.13108   3.16285   3.16808   3.18264
 Alpha virt. eigenvalues --    3.20815   3.24120   3.26311   3.27773   3.30600
 Alpha virt. eigenvalues --    3.33951   3.35144   3.37536   3.38726   3.40038
 Alpha virt. eigenvalues --    3.43796   3.47342   3.51855   3.52751   3.55283
 Alpha virt. eigenvalues --    3.57767   3.59275   3.62024   3.63860   3.66087
 Alpha virt. eigenvalues --    3.68982   3.70871   3.71141   3.74947   3.78185
 Alpha virt. eigenvalues --    3.79340   3.83610   3.88204   3.88923   3.90786
 Alpha virt. eigenvalues --    3.95781   3.98666   3.99720   4.00114   4.01806
 Alpha virt. eigenvalues --    4.07065   4.09898   4.10957   4.13337   4.14993
 Alpha virt. eigenvalues --    4.19157   4.19907   4.22636   4.23081   4.25408
 Alpha virt. eigenvalues --    4.27405   4.28549   4.31146   4.33209   4.37528
 Alpha virt. eigenvalues --    4.38762   4.41827   4.43084   4.46319   4.52611
 Alpha virt. eigenvalues --    4.53030   4.54541   4.56783   4.60072   4.62524
 Alpha virt. eigenvalues --    4.64910   4.67566   4.78290   4.79905   5.02435
 Alpha virt. eigenvalues --    5.18756   5.22445   5.24916   5.26202   5.38739
 Alpha virt. eigenvalues --    5.40972   5.43810   5.50270   5.51215   5.58791
 Alpha virt. eigenvalues --    5.59845   5.61534   5.64959   5.65750   5.67539
 Alpha virt. eigenvalues --    5.85045   5.96189   6.51131   6.99997   7.19524
 Alpha virt. eigenvalues --    7.22658   7.24224   7.51993   7.62875  24.26892
 Alpha virt. eigenvalues --   24.38819  24.43793  24.50303  50.14841
          Condensed to atoms (all electrons):
               1          2          3          4          5          6
     1  O    8.076116   0.028867  -0.071302   0.139109   0.010870  -0.000932
     2  C    0.028867   5.689197  -0.312214  -0.002309   0.209916  -0.050142
     3  C   -0.071302  -0.312214   5.688879   0.234200  -0.063348   0.434016
     4  C    0.139109  -0.002309   0.234200   5.263314  -0.153500   0.002448
     5  C    0.010870   0.209916  -0.063348  -0.153500   5.355662  -0.027996
     6  H   -0.000932  -0.050142   0.434016   0.002448  -0.027996   0.525927
     7  H    0.005146  -0.036035   0.440808  -0.015447  -0.037671  -0.039908
     8  H    0.008172   0.436381  -0.042952  -0.049352   0.005357  -0.007305
     9  H   -0.012331   0.453855  -0.052459  -0.031682  -0.006707   0.005397
    10  H   -0.040928   0.057182  -0.061752   0.375258   0.010005   0.002574
    11  H   -0.054819  -0.073562   0.019233   0.461289   0.000854   0.000016
    12  H   -0.000308  -0.021129  -0.014203   0.001287   0.407937   0.006237
    13  H    0.000093   0.021529  -0.048039   0.002201   0.409582  -0.004574
    14  H   -0.000045  -0.031288  -0.000099   0.002232   0.400736  -0.008240
    15  H    0.255440  -0.030530   0.029902  -0.017602   0.002130  -0.001033
               7          8          9         10         11         12
     1  O    0.005146   0.008172  -0.012331  -0.040928  -0.054819  -0.000308
     2  C   -0.036035   0.436381   0.453855   0.057182  -0.073562  -0.021129
     3  C    0.440808  -0.042952  -0.052459  -0.061752   0.019233  -0.014203
     4  C   -0.015447  -0.049352  -0.031682   0.375258   0.461289   0.001287
     5  C   -0.037671   0.005357  -0.006707   0.010005   0.000854   0.407937
     6  H   -0.039908  -0.007305   0.005397   0.002574   0.000016   0.006237
     7  H    0.538893   0.005930  -0.006438   0.001025  -0.000415  -0.008131
     8  H    0.005930   0.525843  -0.031190  -0.004556  -0.003144  -0.000897
     9  H   -0.006438  -0.031190   0.492968   0.004365  -0.005615   0.001871
    10  H    0.001025  -0.004556   0.004365   0.553284  -0.030126  -0.000033
    11  H   -0.000415  -0.003144  -0.005615  -0.030126   0.534360  -0.000002
    12  H   -0.008131  -0.000897   0.001871  -0.000033  -0.000002   0.548667
    13  H   -0.004833   0.000003  -0.000122  -0.000010   0.000014  -0.024651
    14  H    0.006409   0.002372  -0.000063  -0.000036  -0.000038  -0.036979
    15  H    0.000292   0.000011   0.000026  -0.009515   0.008962   0.000021
              13         14         15
     1  O    0.000093  -0.000045   0.255440
     2  C    0.021529  -0.031288  -0.030530
     3  C   -0.048039  -0.000099   0.029902
     4  C    0.002201   0.002232  -0.017602
     5  C    0.409582   0.400736   0.002130
     6  H   -0.004574  -0.008240  -0.001033
     7  H   -0.004833   0.006409   0.000292
     8  H    0.000003   0.002372   0.000011
     9  H   -0.000122  -0.000063   0.000026
    10  H   -0.000010  -0.000036  -0.009515
    11  H    0.000014  -0.000038   0.008962
    12  H   -0.024651  -0.036979   0.000021
    13  H    0.538402  -0.025120   0.000003
    14  H   -0.025120   0.552461  -0.000014
    15  H    0.000003  -0.000014   0.520239
 Mulliken charges:
               1
     1  O   -0.343147
     2  C   -0.339719
     3  C   -0.180670
     4  C   -0.211446
     5  C   -0.523827
     6  H    0.163514
     7  H    0.150373
     8  H    0.155325
     9  H    0.188125
    10  H    0.143263
    11  H    0.142995
    12  H    0.140313
    13  H    0.135519
    14  H    0.137713
    15  H    0.241668
 Sum of Mulliken charges =  -0.00000
 Mulliken charges with hydrogens summed into heavy atoms:
               1
     1  O   -0.101479
     2  C    0.003732
     3  C    0.133218
     4  C    0.074811
     5  C   -0.110281
 Electronic spatial extent (au):  <R**2>=            602.6757
 Charge=             -0.0000 electrons
 Dipole moment (field-independent basis, Debye):
    X=             -1.4806    Y=              0.1305    Z=              1.0237  Tot=              1.8048
 Quadrupole moment (field-independent basis, Debye-Ang):
   XX=            -39.0117   YY=            -31.1081   ZZ=            -33.8279
   XY=              1.4415   XZ=              1.8720   YZ=             -0.9037
 Traceless Quadrupole moment (field-independent basis, Debye-Ang):
   XX=             -4.3624   YY=              3.5412   ZZ=              0.8213
   XY=              1.4415   XZ=              1.8720   YZ=             -0.9037
 Octapole moment (field-independent basis, Debye-Ang**2):
  XXX=             -5.5234  YYY=             -6.9807  ZZZ=             -0.4310  XYY=              5.8103
  XXY=              3.7160  XXZ=              3.8639  XZZ=              1.7334  YZZ=             -0.3535
  YYZ=              0.9266  XYZ=             -2.2984
 Hexadecapole moment (field-independent basis, Debye-Ang**3):
 XXXX=           -645.7039 YYYY=           -116.8489 ZZZZ=            -74.6276 XXXY=             12.5795
 XXXZ=              2.2685 YYYX=            -11.7470 YYYZ=              0.5059 ZZZX=              1.5547
 ZZZY=             -0.5882 XXYY=           -114.4426 XXZZ=           -114.7917 YYZZ=            -35.5884
 XXYZ=             -4.1487 YYXZ=             -1.0248 ZZXY=             -0.6389
 N-N= 1.884772713745D+02 E-N=-9.212907219994D+02  KE= 2.327044287175D+02
 No NMR shielding tensors so no spin-rotation constants.
 Leave Link  601 at Tue Mar 12 01:59:44 2019, MaxMem=   671088640 cpu:               6.8 elap:               0.4
 (Enter /shared/centos7/gaussian/g16/l9999.exe)
 1\1\GINC-C0046\Scan\RM062X\6-311+G(2df,2p)\C4H10O1\UNDERKOFFLER.C\12-M
 ar-2019\0\\#p m062x/6-311+g(2df,2p) Opt=(CalcFC,ModRedun)\\Gaussian In
 put Prepared from Scan Object\\0,1\O,2.029860438,-0.6974783655,-0.1807
 603832\C,0.0296964982,0.7157741737,-0.1623970894\C,-0.9599429449,-0.36
 97705261,0.2474722973\C,1.438929207,0.4727849223,0.3540641964\C,-2.377
 5621176,-0.0730813379,-0.2281147673\H,-0.9500357819,-0.4743086769,1.33
 6502478\H,-0.6417489376,-1.3311471902,-0.1645228638\H,-0.3164378595,1.
 6816857743,0.2170399523\H,0.0613498612,0.7914880485,-1.2522554148\H,1.
 4323809369,0.4326157327,1.4497220058\H,2.0936832833,1.2922812313,0.060
 6557975\H,-2.4086325488,0.0162983937,-1.3145946861\H,-3.0727696991,-0.
 8590604167,0.0639410332\H,-2.7372507825,0.8671861462,0.1915085143\H,1.
 5579614472,-1.4646199096,0.1475859297\\Version=EM64L-G16RevA.03\State=
 1-A\HF=-233.6330307,-233.6329248,-233.632655,-233.6323155,-233.6320087
 ,-233.6318302,-233.6318375,-233.6320269,-233.6323471,-233.6327121,-233
 .6330269,-233.6332109,-233.6332151,-233.6330315,-233.632695,-233.63228
 34,-233.6318999,-233.6316492,-233.6315994,-233.6317667,-233.632097,-23
 3.6324889,-233.6328318,-233.6330227,-233.6330022,-233.6327635,-233.632
 3438,-233.6318291,-233.6313411,-233.6310146,-233.6309491,-233.6311719,
 -233.6316091,-233.6321342,-233.6326087,-233.6329246,-233.6330307\RMSD=
 2.867e-09,6.388e-09,4.375e-09,4.773e-09,4.736e-09,4.211e-09,3.877e-09,
 2.656e-09,3.769e-09,2.894e-09,3.902e-09,3.351e-09,4.408e-09,4.607e-09,
 3.589e-09,5.170e-09,4.291e-09,5.896e-09,5.793e-09,2.660e-09,2.460e-09,
 5.670e-09,7.334e-09,6.653e-09,7.808e-09,2.783e-09,2.004e-09,5.424e-09,
 3.841e-09,9.290e-09,5.934e-09,4.822e-09,3.493e-09,2.451e-09,6.552e-09,
 1.491e-09,8.044e-09\PG=C01 [X(C4H10O1)]\\@


     ON THE SURVIVAL OF THE FITTEST -
 "STRONG REPRESENTATIVES FROM EACH PAST ERA THRIVE TODAY,
 SUCH AS PROGRAMMING IN THE THIRTY YEAR OLD LANGUAGE KNOWN
 AS FORTRAN, AND EVEN IN THE ANCIENT SCRIPT KNOWN AS DIRECT
 MACHINE CODE. SOME PEOPLE MIGHT LOOK ON SUCH RELICS AS LIVING
 FOSSILS; OTHERS WOULD POINT OUT THAT EVEN A VERY OLD SPECIES
 MIGHT STILL BE FILLING A PARTICULAR ECOLOGICAL NICHE."
     -- ALAN KAY, SCI.AM. SEPTEMBER 1984
 Job cpu time:       1 days  4 hours 37 minutes 20.1 seconds.
 Elapsed time:       0 days  1 hours 26 minutes 32.6 seconds.
 File lengths (MBytes):  RWF=   1328 Int=      0 D2E=      0 Chk=     32 Scr=     32
 Normal termination of Gaussian 16 at Tue Mar 12 01:59:44 2019.
