 Entering Gaussian System, Link 0=g16
 Input=LRHPLDYGYMQRHN-UHFFFAOYSA-N_36by10.0_tor03_a1.com
 Output=LRHPLDYGYMQRHN-UHFFFAOYSA-N_36by10.0_tor03_a1.log
 Initial command:
 /shared/centos7/gaussian/g16/l1.exe "/scratch/underkoffler.c/gaussian_scratch/Gau-42416.inp" -scrdir="/scratch/underkoffler.c/gaussian_scratch/"
 Entering Link 1 = /shared/centos7/gaussian/g16/l1.exe PID=     42417.
  
 Copyright (c) 1988,1990,1992,1993,1995,1998,2003,2009,2016,
            Gaussian, Inc.  All Rights Reserved.
  
 This is part of the Gaussian(R) 16 program.  It is based on
 the Gaussian(R) 09 system (copyright 2009, Gaussian, Inc.),
 the Gaussian(R) 03 system (copyright 2003, Gaussian, Inc.),
 the Gaussian(R) 98 system (copyright 1998, Gaussian, Inc.),
 the Gaussian(R) 94 system (copyright 1995, Gaussian, Inc.),
 the Gaussian 92(TM) system (copyright 1992, Gaussian, Inc.),
 the Gaussian 90(TM) system (copyright 1990, Gaussian, Inc.),
 the Gaussian 88(TM) system (copyright 1988, Gaussian, Inc.),
 the Gaussian 86(TM) system (copyright 1986, Carnegie Mellon
 University), and the Gaussian 82(TM) system (copyright 1983,
 Carnegie Mellon University). Gaussian is a federally registered
 trademark of Gaussian, Inc.
  
 This software contains proprietary and confidential information,
 including trade secrets, belonging to Gaussian, Inc.
  
 This software is provided under written license and may be
 used, copied, transmitted, or stored only in accord with that
 written license.
  
 The following legend is applicable only to US Government
 contracts under FAR:
  
                    RESTRICTED RIGHTS LEGEND
  
 Use, reproduction and disclosure by the US Government is
 subject to restrictions as set forth in subparagraphs (a)
 and (c) of the Commercial Computer Software - Restricted
 Rights clause in FAR 52.227-19.
  
 Gaussian, Inc.
 340 Quinnipiac St., Bldg. 40, Wallingford CT 06492
  
  
 ---------------------------------------------------------------
 Warning -- This program may not be used in any manner that
 competes with the business of Gaussian, Inc. or will provide
 assistance to any competitor of Gaussian, Inc.  The licensee
 of this program is prohibited from giving any competitor of
 Gaussian, Inc. access to this program.  By using this program,
 the user acknowledges that Gaussian, Inc. is engaged in the
 business of creating and licensing software in the field of
 computational chemistry and represents and warrants to the
 licensee that it is not a competitor of Gaussian, Inc. and that
 it will not use this program in any manner prohibited above.
 ---------------------------------------------------------------
  

 Cite this work as:
 Gaussian 16, Revision A.03,
 M. J. Frisch, G. W. Trucks, H. B. Schlegel, G. E. Scuseria, 
 M. A. Robb, J. R. Cheeseman, G. Scalmani, V. Barone, 
 G. A. Petersson, H. Nakatsuji, X. Li, M. Caricato, A. V. Marenich, 
 J. Bloino, B. G. Janesko, R. Gomperts, B. Mennucci, H. P. Hratchian, 
 J. V. Ortiz, A. F. Izmaylov, J. L. Sonnenberg, D. Williams-Young, 
 F. Ding, F. Lipparini, F. Egidi, J. Goings, B. Peng, A. Petrone, 
 T. Henderson, D. Ranasinghe, V. G. Zakrzewski, J. Gao, N. Rega, 
 G. Zheng, W. Liang, M. Hada, M. Ehara, K. Toyota, R. Fukuda, 
 J. Hasegawa, M. Ishida, T. Nakajima, Y. Honda, O. Kitao, H. Nakai, 
 T. Vreven, K. Throssell, J. A. Montgomery, Jr., J. E. Peralta, 
 F. Ogliaro, M. J. Bearpark, J. J. Heyd, E. N. Brothers, K. N. Kudin, 
 V. N. Staroverov, T. A. Keith, R. Kobayashi, J. Normand, 
 K. Raghavachari, A. P. Rendell, J. C. Burant, S. S. Iyengar, 
 J. Tomasi, M. Cossi, J. M. Millam, M. Klene, C. Adamo, R. Cammi, 
 J. W. Ochterski, R. L. Martin, K. Morokuma, O. Farkas, 
 J. B. Foresman, and D. J. Fox, Gaussian, Inc., Wallingford CT, 2016.
 
 ******************************************
 Gaussian 16:  EM64L-G16RevA.03 25-Dec-2016
                11-Mar-2019 
 ******************************************
 %nprocshared=20
 Will use up to   20 processors via shared memory.
 %mem=5GB
 ----------------------------------------------
 #p m062x/6-311+g(2df,2p) Opt=(CalcFC,ModRedun)
 ----------------------------------------------
 1/10=4,18=120,19=15,26=3,38=1/1,3;
 2/9=110,12=2,17=6,18=5,40=1/2;
 3/5=4,6=6,7=214,11=2,25=1,30=1,71=2,74=-55,140=1/1,2,3;
 4//1;
 5/5=2,38=5/2;
 8/6=4,10=90,11=11/1;
 11/6=1,8=1,9=11,15=111,16=1/1,2,10;
 10/6=1,13=1/2;
 6/7=2,8=2,9=2,10=2,28=1/1;
 7/10=1,18=20,25=1/1,2,3,16;
 1/10=4,18=20,19=15,26=3/3(2);
 2/9=110/2;
 99//99;
 2/9=110/2;
 3/5=4,6=6,7=214,11=2,25=1,30=1,71=1,74=-55/1,2,3;
 4/5=5,16=3,69=1/1;
 5/5=2,38=5/2;
 7//1,2,3,16;
 1/18=20,19=15,26=3/3(-5);
 2/9=110/2;
 6/7=2,8=2,9=2,10=2,19=2,28=1/1;
 99/9=1/99;
 Leave Link    1 at Mon Mar 11 19:44:06 2019, MaxMem=   671088640 cpu:              33.3 elap:               1.8
 (Enter /shared/centos7/gaussian/g16/l101.exe)
 ----------------------------------------
 Gaussian Input Prepared from Scan Object
 ----------------------------------------
 Symbolic Z-matrix:
 Charge =  0 Multiplicity = 1
 O                     2.02909  -0.66862  -0.26619 
 C                     0.00637   0.71108  -0.20874 
 C                    -0.94103  -0.37071   0.29916 
 C                     1.44405   0.51489   0.24548 
 C                    -2.386    -0.11932  -0.11642 
 H                    -0.8746   -0.42525   1.38986 
 H                    -0.62598  -1.34455  -0.08505 
 H                    -0.3382    1.68748   0.14436 
 H                    -0.01817   0.73759  -1.30108 
 H                     1.49326   0.5244    1.34075 
 H                     2.06785   1.33081  -0.11714 
 H                    -2.47317  -0.08019  -1.20282 
 H                    -3.0509   -0.90242   0.24558 
 H                    -2.7417    0.83311   0.27844 
 H                     1.58862  -1.42765   0.11963 
 
 The following ModRedundant input section has been read:
 B       1       4 B                                                           
 B       2       8 B                                                           
 B       5      12 B                                                           
 B       2       9 B                                                           
 B       5      13 B                                                           
 B       3       5 B                                                           
 B       4      10 B                                                           
 B       5      14 B                                                           
 B       4      11 B                                                           
 B       3       6 B                                                           
 B       2       3 B                                                           
 B       1      15 B                                                           
 B       3       7 B                                                           
 B       2       4 B                                                           
 D      15       1       4      10 S  36 10.000                                
 
 ITRead=  0  0  0  0  0  0  0  0  0  0  0  0  0  0  0
 MicOpt= -1 -1 -1 -1 -1 -1 -1 -1 -1 -1 -1 -1 -1 -1 -1
 NAtoms=     15 NQM=       15 NQMF=       0 NMMI=      0 NMMIF=      0
                NMic=       0 NMicF=      0.
                    Isotopes and Nuclear Properties:
 (Nuclear quadrupole moments (NQMom) in fm**2, nuclear magnetic moments (NMagM)
  in nuclear magnetons)

  Atom         1           2           3           4           5           6           7           8           9          10
 IAtWgt=          16          12          12          12          12           1           1           1           1           1
 AtmWgt=  15.9949146  12.0000000  12.0000000  12.0000000  12.0000000   1.0078250   1.0078250   1.0078250   1.0078250   1.0078250
 NucSpn=           0           0           0           0           0           1           1           1           1           1
 AtZEff=  -0.0000000  -0.0000000  -0.0000000  -0.0000000  -0.0000000  -0.0000000  -0.0000000  -0.0000000  -0.0000000  -0.0000000
 NQMom=    0.0000000   0.0000000   0.0000000   0.0000000   0.0000000   0.0000000   0.0000000   0.0000000   0.0000000   0.0000000
 NMagM=    0.0000000   0.0000000   0.0000000   0.0000000   0.0000000   2.7928460   2.7928460   2.7928460   2.7928460   2.7928460
 AtZNuc=   8.0000000   6.0000000   6.0000000   6.0000000   6.0000000   1.0000000   1.0000000   1.0000000   1.0000000   1.0000000

  Atom        11          12          13          14          15
 IAtWgt=           1           1           1           1           1
 AtmWgt=   1.0078250   1.0078250   1.0078250   1.0078250   1.0078250
 NucSpn=           1           1           1           1           1
 AtZEff=  -0.0000000  -0.0000000  -0.0000000  -0.0000000  -0.0000000
 NQMom=    0.0000000   0.0000000   0.0000000   0.0000000   0.0000000
 NMagM=    2.7928460   2.7928460   2.7928460   2.7928460   2.7928460
 AtZNuc=   1.0000000   1.0000000   1.0000000   1.0000000   1.0000000
 Leave Link  101 at Mon Mar 11 19:44:06 2019, MaxMem=   671088640 cpu:               5.7 elap:               0.3
 (Enter /shared/centos7/gaussian/g16/l103.exe)

 GradGradGradGradGradGradGradGradGradGradGradGradGradGradGradGradGradGrad
 Berny optimization.
 Initialization pass.
                           ----------------------------
                           !    Initial Parameters    !
                           ! (Angstroms and Degrees)  !
 --------------------------                            --------------------------
 ! Name  Definition              Value          Derivative Info.                !
 --------------------------------------------------------------------------------
 ! R1    R(1,4)                  1.4159         calculate D2E/DX2 analytically  !
 ! R2    R(1,15)                 0.9586         calculate D2E/DX2 analytically  !
 ! R3    R(2,3)                  1.5251         calculate D2E/DX2 analytically  !
 ! R4    R(2,4)                  1.5204         calculate D2E/DX2 analytically  !
 ! R5    R(2,8)                  1.094          calculate D2E/DX2 analytically  !
 ! R6    R(2,9)                  1.0929         calculate D2E/DX2 analytically  !
 ! R7    R(3,5)                  1.5244         calculate D2E/DX2 analytically  !
 ! R8    R(3,6)                  1.0941         calculate D2E/DX2 analytically  !
 ! R9    R(3,7)                  1.0933         calculate D2E/DX2 analytically  !
 ! R10   R(4,10)                 1.0964         calculate D2E/DX2 analytically  !
 ! R11   R(4,11)                 1.0892         calculate D2E/DX2 analytically  !
 ! R12   R(5,12)                 1.0906         calculate D2E/DX2 analytically  !
 ! R13   R(5,13)                 1.0892         calculate D2E/DX2 analytically  !
 ! R14   R(5,14)                 1.0907         calculate D2E/DX2 analytically  !
 ! A1    A(4,1,15)             109.0584         calculate D2E/DX2 analytically  !
 ! A2    A(3,2,4)              113.3526         calculate D2E/DX2 analytically  !
 ! A3    A(3,2,8)              109.2658         calculate D2E/DX2 analytically  !
 ! A4    A(3,2,9)              109.6403         calculate D2E/DX2 analytically  !
 ! A5    A(4,2,8)              108.4556         calculate D2E/DX2 analytically  !
 ! A6    A(4,2,9)              108.8407         calculate D2E/DX2 analytically  !
 ! A7    A(8,2,9)              107.0899         calculate D2E/DX2 analytically  !
 ! A8    A(2,3,5)              112.4006         calculate D2E/DX2 analytically  !
 ! A9    A(2,3,6)              109.2474         calculate D2E/DX2 analytically  !
 ! A10   A(2,3,7)              109.6204         calculate D2E/DX2 analytically  !
 ! A11   A(5,3,6)              109.7277         calculate D2E/DX2 analytically  !
 ! A12   A(5,3,7)              108.9199         calculate D2E/DX2 analytically  !
 ! A13   A(6,3,7)              106.765          calculate D2E/DX2 analytically  !
 ! A14   A(1,4,2)              112.9922         calculate D2E/DX2 analytically  !
 ! A15   A(1,4,10)             110.4692         calculate D2E/DX2 analytically  !
 ! A16   A(1,4,11)             105.6164         calculate D2E/DX2 analytically  !
 ! A17   A(2,4,10)             109.8616         calculate D2E/DX2 analytically  !
 ! A18   A(2,4,11)             110.2078         calculate D2E/DX2 analytically  !
 ! A19   A(10,4,11)            107.4801         calculate D2E/DX2 analytically  !
 ! A20   A(3,5,12)             110.6859         calculate D2E/DX2 analytically  !
 ! A21   A(3,5,13)             111.6823         calculate D2E/DX2 analytically  !
 ! A22   A(3,5,14)             110.759          calculate D2E/DX2 analytically  !
 ! A23   A(12,5,13)            107.9436         calculate D2E/DX2 analytically  !
 ! A24   A(12,5,14)            107.6522         calculate D2E/DX2 analytically  !
 ! A25   A(13,5,14)            107.9653         calculate D2E/DX2 analytically  !
 ! D1    D(15,1,4,2)           -67.0262         calculate D2E/DX2 analytically  !
 ! D2    D(15,1,4,10)           56.5006         Scan                            !
 ! D3    D(15,1,4,11)          172.4286         calculate D2E/DX2 analytically  !
 ! D4    D(4,2,3,5)            177.4365         calculate D2E/DX2 analytically  !
 ! D5    D(4,2,3,6)             55.388          calculate D2E/DX2 analytically  !
 ! D6    D(4,2,3,7)            -61.2806         calculate D2E/DX2 analytically  !
 ! D7    D(8,2,3,5)             56.3601         calculate D2E/DX2 analytically  !
 ! D8    D(8,2,3,6)            -65.6884         calculate D2E/DX2 analytically  !
 ! D9    D(8,2,3,7)            177.643          calculate D2E/DX2 analytically  !
 ! D10   D(9,2,3,5)            -60.7224         calculate D2E/DX2 analytically  !
 ! D11   D(9,2,3,6)            177.2291         calculate D2E/DX2 analytically  !
 ! D12   D(9,2,3,7)             60.5606         calculate D2E/DX2 analytically  !
 ! D13   D(3,2,4,1)             63.9834         calculate D2E/DX2 analytically  !
 ! D14   D(3,2,4,10)           -59.878          calculate D2E/DX2 analytically  !
 ! D15   D(3,2,4,11)          -178.1258         calculate D2E/DX2 analytically  !
 ! D16   D(8,2,4,1)           -174.4851         calculate D2E/DX2 analytically  !
 ! D17   D(8,2,4,10)            61.6535         calculate D2E/DX2 analytically  !
 ! D18   D(8,2,4,11)           -56.5942         calculate D2E/DX2 analytically  !
 ! D19   D(9,2,4,1)            -58.3033         calculate D2E/DX2 analytically  !
 ! D20   D(9,2,4,10)           177.8354         calculate D2E/DX2 analytically  !
 ! D21   D(9,2,4,11)            59.5876         calculate D2E/DX2 analytically  !
 ! D22   D(2,3,5,12)            59.2547         calculate D2E/DX2 analytically  !
 ! D23   D(2,3,5,13)           179.5537         calculate D2E/DX2 analytically  !
 ! D24   D(2,3,5,14)           -60.0701         calculate D2E/DX2 analytically  !
 ! D25   D(6,3,5,12)          -178.9698         calculate D2E/DX2 analytically  !
 ! D26   D(6,3,5,13)           -58.6709         calculate D2E/DX2 analytically  !
 ! D27   D(6,3,5,14)            61.7053         calculate D2E/DX2 analytically  !
 ! D28   D(7,3,5,12)           -62.4281         calculate D2E/DX2 analytically  !
 ! D29   D(7,3,5,13)            57.8708         calculate D2E/DX2 analytically  !
 ! D30   D(7,3,5,14)           178.247          calculate D2E/DX2 analytically  !
 --------------------------------------------------------------------------------
 Trust Radius=3.00D-01 FncErr=1.00D-07 GrdErr=1.00D-06 EigMax=2.50D+02 EigMin=1.00D-04
 Number of optimizations in scan=  37
 Number of steps in this run=     79 maximum allowed number of steps=    100.
 GradGradGradGradGradGradGradGradGradGradGradGradGradGradGradGradGradGrad

 Leave Link  103 at Mon Mar 11 19:44:06 2019, MaxMem=   671088640 cpu:               0.2 elap:               0.0
 (Enter /shared/centos7/gaussian/g16/l202.exe)
                          Input orientation:                          
 ---------------------------------------------------------------------
 Center     Atomic      Atomic             Coordinates (Angstroms)
 Number     Number       Type             X           Y           Z
 ---------------------------------------------------------------------
      1          8           0        2.029091   -0.668615   -0.266186
      2          6           0        0.006368    0.711076   -0.208738
      3          6           0       -0.941032   -0.370711    0.299164
      4          6           0        1.444046    0.514888    0.245481
      5          6           0       -2.386005   -0.119322   -0.116416
      6          1           0       -0.874597   -0.425250    1.389864
      7          1           0       -0.625976   -1.344546   -0.085049
      8          1           0       -0.338200    1.687479    0.144360
      9          1           0       -0.018170    0.737585   -1.301083
     10          1           0        1.493255    0.524401    1.340752
     11          1           0        2.067849    1.330810   -0.117142
     12          1           0       -2.473171   -0.080187   -1.202815
     13          1           0       -3.050901   -0.902422    0.245582
     14          1           0       -2.741696    0.833114    0.278441
     15          1           0        1.588620   -1.427652    0.119632
 ---------------------------------------------------------------------
                    Distance matrix (angstroms):
                    1          2          3          4          5
     1  O    0.000000
     2  C    2.449134   0.000000
     3  C    3.038091   1.525056   0.000000
     4  C    1.415896   1.520435   2.544752   0.000000
     5  C    4.451654   2.534074   1.524418   3.899036   0.000000
     6  H    3.351587   2.150085   1.094082   2.751286   2.155650
     7  H    2.745737   2.154238   1.093268   2.802095   2.144728
     8  H    3.365084   1.093969   2.150236   2.135789   2.743363
     9  H    2.690667   1.092942   2.154248   2.139984   2.782870
    10  H    2.071873   2.155597   2.794975   1.096417   4.193611
    11  H    2.005347   2.154568   3.481645   1.089199   4.683983
    12  H    4.636150   2.786108   2.165132   4.218562   1.090593
    13  H    5.111056   3.486643   2.176496   4.713100   1.089208
    14  H    5.031125   2.793581   2.166106   4.197951   1.090671
    15  H    0.958649   2.680579   2.747453   1.951974   4.191073
                    6          7          8          9         10
     6  H    0.000000
     7  H    1.755644   0.000000
     8  H    2.510503   3.054279   0.000000
     9  H    3.053989   2.486652   1.758984   0.000000
    10  H    2.551661   3.164966   2.477566   3.051089   0.000000
    11  H    3.743368   3.796742   2.446358   2.470852   1.762359
    12  H    3.065370   2.502026   3.081822   2.589486   4.750557
    13  H    2.504670   2.486976   3.751877   3.778790   4.887185
    14  H    2.510936   3.057875   2.554351   3.149860   4.377056
    15  H    2.947157   2.225587   3.662962   3.047697   2.304504
                   11         12         13         14         15
    11  H    0.000000
    12  H    4.877547   0.000000
    13  H    5.596472   1.762866   0.000000
    14  H    4.851382   1.760779   1.763171   0.000000
    15  H    2.809775   4.479138   4.670855   4.887527   0.000000
 Stoichiometry    C4H10O
 Framework group  C1[X(C4H10O)]
 Deg. of freedom    39
 Full point group                 C1      NOp   1
 Largest Abelian subgroup         C1      NOp   1
 Largest concise Abelian subgroup C1      NOp   1
                         Standard orientation:                         
 ---------------------------------------------------------------------
 Center     Atomic      Atomic             Coordinates (Angstroms)
 Number     Number       Type             X           Y           Z
 ---------------------------------------------------------------------
      1          8           0        2.029091   -0.668615   -0.266186
      2          6           0        0.006368    0.711076   -0.208738
      3          6           0       -0.941032   -0.370711    0.299164
      4          6           0        1.444046    0.514888    0.245481
      5          6           0       -2.386005   -0.119322   -0.116416
      6          1           0       -0.874597   -0.425250    1.389864
      7          1           0       -0.625976   -1.344546   -0.085049
      8          1           0       -0.338200    1.687479    0.144360
      9          1           0       -0.018170    0.737585   -1.301083
     10          1           0        1.493255    0.524401    1.340752
     11          1           0        2.067849    1.330810   -0.117142
     12          1           0       -2.473171   -0.080187   -1.202815
     13          1           0       -3.050901   -0.902422    0.245582
     14          1           0       -2.741696    0.833114    0.278441
     15          1           0        1.588620   -1.427652    0.119632
 ---------------------------------------------------------------------
 Rotational constants (GHZ):          12.6538112           2.3645329           2.1753838
 Leave Link  202 at Mon Mar 11 19:44:07 2019, MaxMem=   671088640 cpu:               0.5 elap:               0.0
 (Enter /shared/centos7/gaussian/g16/l301.exe)
 Standard basis: 6-311+G(2df,2p) (5D, 7F)
 Ernie: Thresh=  0.10000D-02 Tol=  0.10000D-05 Strict=F.
 There are   285 symmetry adapted cartesian basis functions of A   symmetry.
 There are   260 symmetry adapted basis functions of A   symmetry.
   260 basis functions,   370 primitive gaussians,   285 cartesian basis functions
    21 alpha electrons       21 beta electrons
       nuclear repulsion energy       188.4773035016 Hartrees.
 IExCor= 4336 DFT=T Ex+Corr=M062X ExCW=0 ScaHFX=  0.540000
 ScaDFX=  1.000000  1.000000  1.000000  1.000000 ScalE2=  1.000000  1.000000
 IRadAn=      5 IRanWt=     -1 IRanGd=            0 ICorTp=0 IEmpDi=  4
 NAtoms=   15 NActive=   15 NUniq=   15 SFac= 1.00D+00 NAtFMM=   60 NAOKFM=F Big=F
 Integral buffers will be    131072 words long.
 Raffenetti 2 integral format.
 Two-electron integral symmetry is turned on.
 Leave Link  301 at Mon Mar 11 19:44:07 2019, MaxMem=   671088640 cpu:               1.2 elap:               0.1
 (Enter /shared/centos7/gaussian/g16/l302.exe)
 NPDir=0 NMtPBC=     1 NCelOv=     1 NCel=       1 NClECP=     1 NCelD=      1
         NCelK=      1 NCelE2=     1 NClLst=     1 CellRange=     0.0.
 One-electron integrals computed using PRISM.
 One-electron integral symmetry used in STVInt
 NBasis=   260 RedAO= T EigKep=  1.99D-05  NBF=   260
 NBsUse=   260 1.00D-06 EigRej= -1.00D+00 NBFU=   260
 Precomputing XC quadrature grid using
 IXCGrd= 4 IRadAn=           5 IRanWt=          -1 IRanGd=           0 AccXCQ= 0.00D+00.
 Generated NRdTot=       0 NPtTot=           0 NUsed=           0 NTot=          32
 NSgBfM=   285   285   285   285   285 MxSgAt=    15 MxSgA2=    15.
 Leave Link  302 at Mon Mar 11 19:44:07 2019, MaxMem=   671088640 cpu:               9.6 elap:               0.5
 (Enter /shared/centos7/gaussian/g16/l303.exe)
 DipDrv:  MaxL=1.
 Leave Link  303 at Mon Mar 11 19:44:07 2019, MaxMem=   671088640 cpu:               0.9 elap:               0.1
 (Enter /shared/centos7/gaussian/g16/l401.exe)
 ExpMin= 4.38D-02 ExpMax= 8.59D+03 ExpMxC= 1.30D+03 IAcc=3 IRadAn=         5 AccDes= 0.00D+00
 Harris functional with IExCor= 1009 and IRadAn=       5 diagonalized for initial guess.
 HarFok:  IExCor= 1009 AccDes= 0.00D+00 IRadAn=         5 IDoV= 1 UseB2=F ITyADJ=14
 ICtDFT=  3500011 ScaDFX=  1.000000  1.000000  1.000000  1.000000
 FoFCou: FMM=F IPFlag=           0 FMFlag=      100000 FMFlg1=           0
         NFxFlg=           0 DoJE=T BraDBF=F KetDBF=T FulRan=T
         wScrn=  0.000000 ICntrl=       500 IOpCl=  0 I1Cent=   200000004 NGrid=           0
         NMat0=    1 NMatS0=      1 NMatT0=    0 NMatD0=    1 NMtDS0=    0 NMtDT0=    0
 Petite list used in FoFCou.
 Harris En= -233.602017173790    
 JPrj=0 DoOrth=F DoCkMO=F.
 Leave Link  401 at Mon Mar 11 19:44:09 2019, MaxMem=   671088640 cpu:              27.9 elap:               1.4
 (Enter /shared/centos7/gaussian/g16/l502.exe)
 Integral symmetry usage will be decided dynamically.
 Closed shell SCF:
 Using DIIS extrapolation, IDIIS=  1040.
 NGot=   671088640 LenX=   670917793 LenY=   670836127
 Requested convergence on RMS density matrix=1.00D-08 within 128 cycles.
 Requested convergence on MAX density matrix=1.00D-06.
 Requested convergence on             energy=1.00D-06.
 No special actions if energy rises.
 Fock matrices will be formed incrementally for  20 cycles.

 Cycle   1  Pass 1  IDiag  1:
 FoFJK:  IHMeth= 1 ICntrl=       0 DoSepK=F KAlg= 0 I1Cent=           0 FoldK=F
 IRaf= 970000000 NMat=       1 IRICut=       1 DoRegI=T DoRafI=F ISym2E= 0 IDoP0=0 IntGTp=1.
 FoFCou: FMM=F IPFlag=           0 FMFlag=      100000 FMFlg1=           0
         NFxFlg=           0 DoJE=F BraDBF=F KetDBF=F FulRan=T
         wScrn=  0.000000 ICntrl=         0 IOpCl=  0 I1Cent=           0 NGrid=           0
         NMat0=    1 NMatS0=      1 NMatT0=    0 NMatD0=    1 NMtDS0=    0 NMtDT0=    0
 Symmetry not used in FoFCou.
 E= -233.412785723847    
 DIIS: error= 2.29D-02 at cycle   1 NSaved=   1.
 NSaved= 1 IEnMin= 1 EnMin= -233.412785723847     IErMin= 1 ErrMin= 2.29D-02
 ErrMax= 2.29D-02  0.00D+00 EMaxC= 1.00D-01 BMatC= 2.61D-01 BMatP= 2.61D-01
 IDIUse=3 WtCom= 7.71D-01 WtEn= 2.29D-01
 Coeff-Com:  0.100D+01
 Coeff-En:   0.100D+01
 Coeff:      0.100D+01
 Gap=     0.299 Goal=   None    Shift=    0.000
 GapD=    0.299 DampG=1.000 DampE=0.500 DampFc=0.5000 IDamp=-1.
 Damping current iteration by 5.00D-01
 RMSDP=3.71D-03 MaxDP=1.51D-01              OVMax= 1.57D-01

 Cycle   2  Pass 1  IDiag  1:
 RMSU=  1.74D-03    CP:  9.32D-01
 E= -233.523091879020     Delta-E=       -0.110306155173 Rises=F Damp=T
 DIIS: error= 5.10D-03 at cycle   2 NSaved=   2.
 NSaved= 2 IEnMin= 2 EnMin= -233.523091879020     IErMin= 2 ErrMin= 5.10D-03
 ErrMax= 5.10D-03  0.00D+00 EMaxC= 1.00D-01 BMatC= 1.45D-02 BMatP= 2.61D-01
 IDIUse=3 WtCom= 9.49D-01 WtEn= 5.10D-02
 Coeff-Com: -0.685D-01 0.107D+01
 Coeff-En:   0.000D+00 0.100D+01
 Coeff:     -0.650D-01 0.107D+01
 Gap=     0.374 Goal=   None    Shift=    0.000
 RMSDP=1.30D-03 MaxDP=5.09D-02 DE=-1.10D-01 OVMax= 8.21D-02

 Cycle   3  Pass 1  IDiag  1:
 RMSU=  1.22D-03    CP:  9.68D-01  8.38D-01
 E= -233.630834246945     Delta-E=       -0.107742367925 Rises=F Damp=F
 DIIS: error= 2.47D-03 at cycle   3 NSaved=   3.
 NSaved= 3 IEnMin= 3 EnMin= -233.630834246945     IErMin= 3 ErrMin= 2.47D-03
 ErrMax= 2.47D-03  0.00D+00 EMaxC= 1.00D-01 BMatC= 3.10D-03 BMatP= 1.45D-02
 IDIUse=3 WtCom= 9.75D-01 WtEn= 2.47D-02
 Coeff-Com: -0.664D-01 0.300D+00 0.766D+00
 Coeff-En:   0.000D+00 0.000D+00 0.100D+01
 Coeff:     -0.648D-01 0.293D+00 0.772D+00
 Gap=     0.360 Goal=   None    Shift=    0.000
 RMSDP=2.39D-04 MaxDP=1.73D-02 DE=-1.08D-01 OVMax= 1.30D-02

 Cycle   4  Pass 1  IDiag  1:
 RMSU=  2.12D-04    CP:  9.71D-01  8.85D-01  1.05D+00
 E= -233.632510315118     Delta-E=       -0.001676068173 Rises=F Damp=F
 DIIS: error= 1.30D-03 at cycle   4 NSaved=   4.
 NSaved= 4 IEnMin= 4 EnMin= -233.632510315118     IErMin= 4 ErrMin= 1.30D-03
 ErrMax= 1.30D-03  0.00D+00 EMaxC= 1.00D-01 BMatC= 6.97D-04 BMatP= 3.10D-03
 IDIUse=3 WtCom= 9.87D-01 WtEn= 1.30D-02
 Coeff-Com: -0.254D-01 0.713D-01 0.369D+00 0.585D+00
 Coeff-En:   0.000D+00 0.000D+00 0.108D+00 0.892D+00
 Coeff:     -0.251D-01 0.704D-01 0.366D+00 0.589D+00
 Gap=     0.361 Goal=   None    Shift=    0.000
 RMSDP=1.18D-04 MaxDP=9.42D-03 DE=-1.68D-03 OVMax= 4.73D-03

 Cycle   5  Pass 1  IDiag  1:
 RMSU=  4.89D-05    CP:  9.68D-01  8.78D-01  1.02D+00  5.68D-01
 E= -233.633015109274     Delta-E=       -0.000504794156 Rises=F Damp=F
 DIIS: error= 2.56D-04 at cycle   5 NSaved=   5.
 NSaved= 5 IEnMin= 5 EnMin= -233.633015109274     IErMin= 5 ErrMin= 2.56D-04
 ErrMax= 2.56D-04  0.00D+00 EMaxC= 1.00D-01 BMatC= 1.89D-05 BMatP= 6.97D-04
 IDIUse=3 WtCom= 9.97D-01 WtEn= 2.56D-03
 Coeff-Com: -0.363D-02 0.501D-02 0.674D-01 0.194D+00 0.737D+00
 Coeff-En:   0.000D+00 0.000D+00 0.000D+00 0.000D+00 0.100D+01
 Coeff:     -0.362D-02 0.500D-02 0.673D-01 0.194D+00 0.738D+00
 Gap=     0.361 Goal=   None    Shift=    0.000
 RMSDP=5.46D-05 MaxDP=4.39D-03 DE=-5.05D-04 OVMax= 8.32D-04

 Cycle   6  Pass 1  IDiag  1:
 RMSU=  2.37D-05    CP:  9.70D-01  8.70D-01  1.05D+00  6.96D-01  7.92D-01
 E= -233.633029760753     Delta-E=       -0.000014651478 Rises=F Damp=F
 DIIS: error= 5.45D-05 at cycle   6 NSaved=   6.
 NSaved= 6 IEnMin= 6 EnMin= -233.633029760753     IErMin= 6 ErrMin= 5.45D-05
 ErrMax= 5.45D-05  0.00D+00 EMaxC= 1.00D-01 BMatC= 9.37D-07 BMatP= 1.89D-05
 IDIUse=1 WtCom= 1.00D+00 WtEn= 0.00D+00
 Coeff-Com:  0.221D-03-0.190D-02 0.326D-02 0.340D-01 0.226D+00 0.739D+00
 Coeff:      0.221D-03-0.190D-02 0.326D-02 0.340D-01 0.226D+00 0.739D+00
 Gap=     0.361 Goal=   None    Shift=    0.000
 RMSDP=7.20D-06 MaxDP=5.20D-04 DE=-1.47D-05 OVMax= 2.23D-04

 Cycle   7  Pass 1  IDiag  1:
 RMSU=  4.30D-06    CP:  9.70D-01  8.68D-01  1.05D+00  6.99D-01  8.42D-01
                    CP:  1.06D+00
 E= -233.633030601532     Delta-E=       -0.000000840779 Rises=F Damp=F
 DIIS: error= 1.68D-05 at cycle   7 NSaved=   7.
 NSaved= 7 IEnMin= 7 EnMin= -233.633030601532     IErMin= 7 ErrMin= 1.68D-05
 ErrMax= 1.68D-05  0.00D+00 EMaxC= 1.00D-01 BMatC= 1.13D-07 BMatP= 9.37D-07
 IDIUse=1 WtCom= 1.00D+00 WtEn= 0.00D+00
 Coeff-Com:  0.626D-03-0.141D-02-0.870D-02-0.155D-01-0.274D-01 0.245D+00
 Coeff-Com:  0.807D+00
 Coeff:      0.626D-03-0.141D-02-0.870D-02-0.155D-01-0.274D-01 0.245D+00
 Coeff:      0.807D+00
 Gap=     0.361 Goal=   None    Shift=    0.000
 RMSDP=4.38D-06 MaxDP=3.92D-04 DE=-8.41D-07 OVMax= 8.32D-05

 Cycle   8  Pass 1  IDiag  1:
 RMSU=  1.35D-06    CP:  9.70D-01  8.67D-01  1.05D+00  7.06D-01  8.49D-01
                    CP:  1.14D+00  1.12D+00
 E= -233.633030715389     Delta-E=       -0.000000113857 Rises=F Damp=F
 DIIS: error= 1.74D-06 at cycle   8 NSaved=   8.
 NSaved= 8 IEnMin= 8 EnMin= -233.633030715389     IErMin= 8 ErrMin= 1.74D-06
 ErrMax= 1.74D-06  0.00D+00 EMaxC= 1.00D-01 BMatC= 1.84D-09 BMatP= 1.13D-07
 IDIUse=1 WtCom= 1.00D+00 WtEn= 0.00D+00
 Coeff-Com:  0.955D-04-0.198D-03-0.174D-02-0.412D-02-0.131D-01 0.199D-01
 Coeff-Com:  0.152D+00 0.847D+00
 Coeff:      0.955D-04-0.198D-03-0.174D-02-0.412D-02-0.131D-01 0.199D-01
 Coeff:      0.152D+00 0.847D+00
 Gap=     0.361 Goal=   None    Shift=    0.000
 RMSDP=5.10D-07 MaxDP=3.26D-05 DE=-1.14D-07 OVMax= 1.19D-05

 Cycle   9  Pass 1  IDiag  1:
 RMSU=  2.74D-07    CP:  9.70D-01  8.66D-01  1.05D+00  7.06D-01  8.50D-01
                    CP:  1.15D+00  1.16D+00  1.06D+00
 E= -233.633030717405     Delta-E=       -0.000000002016 Rises=F Damp=F
 DIIS: error= 4.99D-07 at cycle   9 NSaved=   9.
 NSaved= 9 IEnMin= 9 EnMin= -233.633030717405     IErMin= 9 ErrMin= 4.99D-07
 ErrMax= 4.99D-07  0.00D+00 EMaxC= 1.00D-01 BMatC= 8.14D-11 BMatP= 1.84D-09
 IDIUse=1 WtCom= 1.00D+00 WtEn= 0.00D+00
 Coeff-Com: -0.181D-04 0.392D-04 0.129D-03 0.904D-04-0.635D-03-0.704D-02
 Coeff-Com: -0.127D-01 0.137D+00 0.883D+00
 Coeff:     -0.181D-04 0.392D-04 0.129D-03 0.904D-04-0.635D-03-0.704D-02
 Coeff:     -0.127D-01 0.137D+00 0.883D+00
 Gap=     0.361 Goal=   None    Shift=    0.000
 RMSDP=1.43D-07 MaxDP=6.02D-06 DE=-2.02D-09 OVMax= 2.62D-06

 Cycle  10  Pass 1  IDiag  1:
 RMSU=  5.64D-08    CP:  9.70D-01  8.66D-01  1.05D+00  7.06D-01  8.51D-01
                    CP:  1.14D+00  1.18D+00  1.14D+00  1.05D+00
 E= -233.633030717506     Delta-E=       -0.000000000101 Rises=F Damp=F
 DIIS: error= 1.16D-07 at cycle  10 NSaved=  10.
 NSaved=10 IEnMin=10 EnMin= -233.633030717506     IErMin=10 ErrMin= 1.16D-07
 ErrMax= 1.16D-07  0.00D+00 EMaxC= 1.00D-01 BMatC= 4.35D-12 BMatP= 8.14D-11
 IDIUse=1 WtCom= 1.00D+00 WtEn= 0.00D+00
 Coeff-Com: -0.671D-05 0.149D-04 0.866D-04 0.148D-03 0.265D-03-0.216D-02
 Coeff-Com: -0.779D-02-0.241D-02 0.176D+00 0.836D+00
 Coeff:     -0.671D-05 0.149D-04 0.866D-04 0.148D-03 0.265D-03-0.216D-02
 Coeff:     -0.779D-02-0.241D-02 0.176D+00 0.836D+00
 Gap=     0.361 Goal=   None    Shift=    0.000
 RMSDP=2.95D-08 MaxDP=2.16D-06 DE=-1.01D-10 OVMax= 7.78D-07

 Cycle  11  Pass 1  IDiag  1:
 RMSU=  1.35D-08    CP:  9.70D-01  8.66D-01  1.05D+00  7.06D-01  8.51D-01
                    CP:  1.14D+00  1.18D+00  1.14D+00  1.08D+00  1.08D+00
 E= -233.633030717512     Delta-E=       -0.000000000006 Rises=F Damp=F
 DIIS: error= 3.40D-08 at cycle  11 NSaved=  11.
 NSaved=11 IEnMin=11 EnMin= -233.633030717512     IErMin=11 ErrMin= 3.40D-08
 ErrMax= 3.40D-08  0.00D+00 EMaxC= 1.00D-01 BMatC= 5.26D-13 BMatP= 4.35D-12
 IDIUse=1 WtCom= 1.00D+00 WtEn= 0.00D+00
 Coeff-Com:  0.509D-07 0.263D-06 0.949D-05 0.202D-04 0.740D-04-0.340D-04
 Coeff-Com: -0.813D-03-0.939D-02-0.194D-01 0.212D+00 0.818D+00
 Coeff:      0.509D-07 0.263D-06 0.949D-05 0.202D-04 0.740D-04-0.340D-04
 Coeff:     -0.813D-03-0.939D-02-0.194D-01 0.212D+00 0.818D+00
 Gap=     0.361 Goal=   None    Shift=    0.000
 RMSDP=1.13D-08 MaxDP=8.08D-07 DE=-5.80D-12 OVMax= 2.43D-07

 Cycle  12  Pass 1  IDiag  1:
 RMSU=  3.67D-09    CP:  9.70D-01  8.66D-01  1.05D+00  7.06D-01  8.51D-01
                    CP:  1.14D+00  1.18D+00  1.15D+00  1.09D+00  1.18D+00
                    CP:  1.09D+00
 E= -233.633030717516     Delta-E=       -0.000000000004 Rises=F Damp=F
 DIIS: error= 1.31D-08 at cycle  12 NSaved=  12.
 NSaved=12 IEnMin=12 EnMin= -233.633030717516     IErMin=12 ErrMin= 1.31D-08
 ErrMax= 1.31D-08  0.00D+00 EMaxC= 1.00D-01 BMatC= 7.95D-14 BMatP= 5.26D-13
 IDIUse=1 WtCom= 1.00D+00 WtEn= 0.00D+00
 Coeff-Com:  0.649D-06-0.126D-05-0.406D-05-0.641D-05-0.128D-05 0.172D-03
 Coeff-Com:  0.407D-03-0.325D-02-0.241D-01-0.174D-02 0.303D+00 0.725D+00
 Coeff:      0.649D-06-0.126D-05-0.406D-05-0.641D-05-0.128D-05 0.172D-03
 Coeff:      0.407D-03-0.325D-02-0.241D-01-0.174D-02 0.303D+00 0.725D+00
 Gap=     0.361 Goal=   None    Shift=    0.000
 RMSDP=2.87D-09 MaxDP=2.06D-07 DE=-4.09D-12 OVMax= 8.37D-08

 SCF Done:  E(RM062X) =  -233.633030718     A.U. after   12 cycles
            NFock= 12  Conv=0.29D-08     -V/T= 2.0040
 KE= 2.327044275791D+02 PE=-9.212907570984D+02 EE= 2.664759953002D+02
 Leave Link  502 at Mon Mar 11 19:44:52 2019, MaxMem=   671088640 cpu:             861.2 elap:              43.1
 (Enter /shared/centos7/gaussian/g16/l801.exe)
 DoSCS=F DFT=T ScalE2(SS,OS)=  1.000000  1.000000
 Range of M.O.s used for correlation:     1   260
 NBasis=   260 NAE=    21 NBE=    21 NFC=     0 NFV=     0
 NROrb=    260 NOA=    21 NOB=    21 NVA=   239 NVB=   239

 **** Warning!!: The largest alpha MO coefficient is  0.63912939D+02

 Leave Link  801 at Mon Mar 11 19:44:52 2019, MaxMem=   671088640 cpu:               0.6 elap:               0.1
 (Enter /shared/centos7/gaussian/g16/l1101.exe)
 Using compressed storage, NAtomX=    15.
 Will process     16 centers per pass.
 Leave Link 1101 at Mon Mar 11 19:44:52 2019, MaxMem=   671088640 cpu:              10.1 elap:               0.5
 (Enter /shared/centos7/gaussian/g16/l1102.exe)
 Symmetrizing basis deriv contribution to polar:
 IMax=3 JMax=2 DiffMx= 0.00D+00
 Leave Link 1102 at Mon Mar 11 19:44:52 2019, MaxMem=   671088640 cpu:               0.8 elap:               0.1
 (Enter /shared/centos7/gaussian/g16/l1110.exe)
 Forming Gx(P) for the SCF density, NAtomX=    15.
 Integral derivatives from FoFJK, PRISM(SPDF).
 Do as many integral derivatives as possible in FoFJK.
 G2DrvN: MDV=     671087424.
 G2DrvN: will do    16 centers at a time, making    1 passes.
 Calling FoFCou, ICntrl=  3107 FMM=F I1Cent=   0 AccDes= 0.00D+00.
 FoFJK:  IHMeth= 1 ICntrl=    3107 DoSepK=F KAlg= 0 I1Cent=           0 FoldK=F
 IRaf=         0 NMat=       1 IRICut=       1 DoRegI=T DoRafI=F ISym2E= 0 IDoP0=0 IntGTp=1.
 FoFCou: FMM=F IPFlag=           0 FMFlag=      100000 FMFlg1=           0
         NFxFlg=           0 DoJE=F BraDBF=F KetDBF=F FulRan=T
         wScrn=  0.000000 ICntrl=      3107 IOpCl=  0 I1Cent=           0 NGrid=           0
         NMat0=    1 NMatS0=      1 NMatT0=    0 NMatD0=    1 NMtDS0=    0 NMtDT0=    0
 Symmetry not used in FoFCou.
 End of G2Drv F.D. properties file   721 does not exist.
 End of G2Drv F.D. properties file   722 does not exist.
 End of G2Drv F.D. properties file   788 does not exist.
 Leave Link 1110 at Mon Mar 11 19:46:28 2019, MaxMem=   671088640 cpu:            1904.8 elap:              95.3
 (Enter /shared/centos7/gaussian/g16/l1002.exe)
 Minotr:  Closed shell wavefunction.
          IDoAtm=111111111111111
          Direct CPHF calculation.
          Differentiating once with respect to nuclear coordinates.
          Requested convergence is 1.0D-08 RMS, and 1.0D-07 maximum.
          Secondary convergence is 1.0D-12 RMS, and 1.0D-12 maximum.
          NewPWx=T KeepS1=F KeepF1=F KeepIn=T MapXYZ=F SortEE=F KeepMc=T.
         4569 words used for storage of precomputed grid.
 Keep R1 ints in memory in canonical form, NReq=597923371.
 FoFCou: FMM=F IPFlag=           0 FMFlag=           0 FMFlg1=           0
         NFxFlg=           0 DoJE=F BraDBF=F KetDBF=F FulRan=T
         wScrn=  0.000000 ICntrl=       600 IOpCl=  0 I1Cent=           0 NGrid=           0
         NMat0=    1 NMatS0=  33930 NMatT0=    0 NMatD0=    1 NMtDS0=    0 NMtDT0=    0
 Symmetry not used in FoFCou.
 Two-electron integral symmetry not used.
          MDV=     671088640 using IRadAn=       1.
          Solving linear equations simultaneously, MaxMat=       0.
          There are    48 degrees of freedom in the 1st order CPHF.  IDoFFX=6 NUNeed=     0.
     42 vectors produced by pass  0 Test12= 1.05D-14 2.08D-09 XBig12= 6.34D-02 5.58D-02.
 AX will form    42 AO Fock derivatives at one time.
     42 vectors produced by pass  1 Test12= 1.05D-14 2.08D-09 XBig12= 2.72D-03 1.13D-02.
     42 vectors produced by pass  2 Test12= 1.05D-14 2.08D-09 XBig12= 1.22D-04 1.18D-03.
     42 vectors produced by pass  3 Test12= 1.05D-14 2.08D-09 XBig12= 1.34D-06 1.49D-04.
     42 vectors produced by pass  4 Test12= 1.05D-14 2.08D-09 XBig12= 8.64D-09 9.40D-06.
     42 vectors produced by pass  5 Test12= 1.05D-14 2.08D-09 XBig12= 4.24D-11 6.63D-07.
     19 vectors produced by pass  6 Test12= 1.05D-14 2.08D-09 XBig12= 1.62D-13 3.72D-08.
      1 vectors produced by pass  7 Test12= 1.05D-14 2.08D-09 XBig12= 6.09D-16 3.38D-09.
 InvSVY:  IOpt=1 It=  1 EMax= 2.00D-15
 Solved reduced A of dimension   272 with    42 vectors.
 End of Minotr F.D. properties file   721 does not exist.
 End of Minotr F.D. properties file   722 does not exist.
 End of Minotr F.D. properties file   788 does not exist.
 Leave Link 1002 at Mon Mar 11 19:48:10 2019, MaxMem=   671088640 cpu:            2011.6 elap:             101.9
 (Enter /shared/centos7/gaussian/g16/l601.exe)
 Copying SCF densities to generalized density rwf, IOpCl= 0 IROHF=0.

 **********************************************************************

            Population analysis using the SCF density.

 **********************************************************************

 Orbital symmetries:
       Occupied  (A) (A) (A) (A) (A) (A) (A) (A) (A) (A) (A) (A)
                 (A) (A) (A) (A) (A) (A) (A) (A) (A)
       Virtual   (A) (A) (A) (A) (A) (A) (A) (A) (A) (A) (A) (A)
                 (A) (A) (A) (A) (A) (A) (A) (A) (A) (A) (A) (A)
                 (A) (A) (A) (A) (A) (A) (A) (A) (A) (A) (A) (A)
                 (A) (A) (A) (A) (A) (A) (A) (A) (A) (A) (A) (A)
                 (A) (A) (A) (A) (A) (A) (A) (A) (A) (A) (A) (A)
                 (A) (A) (A) (A) (A) (A) (A) (A) (A) (A) (A) (A)
                 (A) (A) (A) (A) (A) (A) (A) (A) (A) (A) (A) (A)
                 (A) (A) (A) (A) (A) (A) (A) (A) (A) (A) (A) (A)
                 (A) (A) (A) (A) (A) (A) (A) (A) (A) (A) (A) (A)
                 (A) (A) (A) (A) (A) (A) (A) (A) (A) (A) (A) (A)
                 (A) (A) (A) (A) (A) (A) (A) (A) (A) (A) (A) (A)
                 (A) (A) (A) (A) (A) (A) (A) (A) (A) (A) (A) (A)
                 (A) (A) (A) (A) (A) (A) (A) (A) (A) (A) (A) (A)
                 (A) (A) (A) (A) (A) (A) (A) (A) (A) (A) (A) (A)
                 (A) (A) (A) (A) (A) (A) (A) (A) (A) (A) (A) (A)
                 (A) (A) (A) (A) (A) (A) (A) (A) (A) (A) (A) (A)
                 (A) (A) (A) (A) (A) (A) (A) (A) (A) (A) (A) (A)
                 (A) (A) (A) (A) (A) (A) (A) (A) (A) (A) (A) (A)
                 (A) (A) (A) (A) (A) (A) (A) (A) (A) (A) (A) (A)
                 (A) (A) (A) (A) (A) (A) (A) (A) (A) (A) (A)
 The electronic state is 1-A.
 Alpha  occ. eigenvalues --  -19.61845 -10.57815 -10.53585 -10.52976 -10.52569
 Alpha  occ. eigenvalues --   -1.14311  -0.89843  -0.81818  -0.72702  -0.66605
 Alpha  occ. eigenvalues --   -0.58777  -0.54409  -0.51687  -0.51097  -0.46321
 Alpha  occ. eigenvalues --   -0.45236  -0.42725  -0.40851  -0.39592  -0.38024
 Alpha  occ. eigenvalues --   -0.34658
 Alpha virt. eigenvalues --    0.01418   0.02671   0.02852   0.03831   0.05777
 Alpha virt. eigenvalues --    0.05958   0.06637   0.07517   0.08029   0.08728
 Alpha virt. eigenvalues --    0.10088   0.10698   0.12909   0.14519   0.15574
 Alpha virt. eigenvalues --    0.17645   0.18408   0.19082   0.20212   0.21141
 Alpha virt. eigenvalues --    0.21908   0.22329   0.23994   0.24592   0.26160
 Alpha virt. eigenvalues --    0.26689   0.27330   0.28570   0.29100   0.29932
 Alpha virt. eigenvalues --    0.31027   0.31391   0.31709   0.36345   0.41431
 Alpha virt. eigenvalues --    0.43307   0.43765   0.45258   0.46775   0.49394
 Alpha virt. eigenvalues --    0.51718   0.53267   0.54261   0.55945   0.56752
 Alpha virt. eigenvalues --    0.57767   0.58695   0.59940   0.60960   0.63483
 Alpha virt. eigenvalues --    0.63724   0.64263   0.64888   0.65942   0.67459
 Alpha virt. eigenvalues --    0.68543   0.69926   0.70350   0.74104   0.76571
 Alpha virt. eigenvalues --    0.80085   0.80829   0.81024   0.86389   0.88771
 Alpha virt. eigenvalues --    0.90996   0.91953   0.94873   0.95737   0.99891
 Alpha virt. eigenvalues --    1.03102   1.04698   1.06545   1.09225   1.12041
 Alpha virt. eigenvalues --    1.13507   1.14654   1.16266   1.16555   1.17949
 Alpha virt. eigenvalues --    1.19315   1.21179   1.21663   1.22228   1.24820
 Alpha virt. eigenvalues --    1.25773   1.27891   1.29224   1.31681   1.32940
 Alpha virt. eigenvalues --    1.33228   1.37921   1.38787   1.39929   1.43529
 Alpha virt. eigenvalues --    1.44322   1.44924   1.45495   1.45902   1.48169
 Alpha virt. eigenvalues --    1.49263   1.52049   1.54853   1.56350   1.58827
 Alpha virt. eigenvalues --    1.60042   1.60820   1.62705   1.64204   1.64404
 Alpha virt. eigenvalues --    1.67866   1.68729   1.73454   1.79420   1.97662
 Alpha virt. eigenvalues --    2.09624   2.15507   2.29287   2.31384   2.40680
 Alpha virt. eigenvalues --    2.45695   2.48723   2.50521   2.56962   2.59094
 Alpha virt. eigenvalues --    2.63985   2.66363   2.75423   2.76310   2.78468
 Alpha virt. eigenvalues --    2.81430   2.83341   2.85689   2.89296   2.91513
 Alpha virt. eigenvalues --    2.94856   2.97638   2.98777   3.03306   3.04198
 Alpha virt. eigenvalues --    3.08897   3.13106   3.16287   3.16809   3.18264
 Alpha virt. eigenvalues --    3.20815   3.24119   3.26311   3.27773   3.30602
 Alpha virt. eigenvalues --    3.33951   3.35144   3.37536   3.38725   3.40039
 Alpha virt. eigenvalues --    3.43796   3.47339   3.51855   3.52751   3.55283
 Alpha virt. eigenvalues --    3.57767   3.59275   3.62024   3.63859   3.66086
 Alpha virt. eigenvalues --    3.68981   3.70871   3.71142   3.74947   3.78185
 Alpha virt. eigenvalues --    3.79341   3.83609   3.88203   3.88923   3.90785
 Alpha virt. eigenvalues --    3.95781   3.98666   3.99720   4.00114   4.01806
 Alpha virt. eigenvalues --    4.07066   4.09897   4.10957   4.13337   4.14994
 Alpha virt. eigenvalues --    4.19157   4.19907   4.22636   4.23081   4.25409
 Alpha virt. eigenvalues --    4.27404   4.28549   4.31145   4.33207   4.37529
 Alpha virt. eigenvalues --    4.38762   4.41831   4.43082   4.46319   4.52611
 Alpha virt. eigenvalues --    4.53029   4.54540   4.56782   4.60073   4.62526
 Alpha virt. eigenvalues --    4.64907   4.67566   4.78289   4.79905   5.02436
 Alpha virt. eigenvalues --    5.18756   5.22446   5.24915   5.26203   5.38739
 Alpha virt. eigenvalues --    5.40972   5.43810   5.50269   5.51216   5.58790
 Alpha virt. eigenvalues --    5.59845   5.61533   5.64958   5.65750   5.67540
 Alpha virt. eigenvalues --    5.85044   5.96185   6.51131   6.99998   7.19525
 Alpha virt. eigenvalues --    7.22658   7.24224   7.51990   7.62877  24.26891
 Alpha virt. eigenvalues --   24.38819  24.43793  24.50303  50.14842
          Condensed to atoms (all electrons):
               1          2          3          4          5          6
     1  O    8.076124   0.028845  -0.071279   0.139120   0.010857  -0.000931
     2  C    0.028845   5.689056  -0.312004  -0.002253   0.209826  -0.050127
     3  C   -0.071279  -0.312004   5.688513   0.234136  -0.063162   0.434020
     4  C    0.139120  -0.002253   0.234136   5.263268  -0.153469   0.002429
     5  C    0.010857   0.209826  -0.063162  -0.153469   5.355531  -0.027993
     6  H   -0.000931  -0.050127   0.434020   0.002429  -0.027993   0.525926
     7  H    0.005139  -0.036051   0.440822  -0.015428  -0.037688  -0.039906
     8  H    0.008172   0.436359  -0.042928  -0.049332   0.005340  -0.007307
     9  H   -0.012334   0.453873  -0.052478  -0.031699  -0.006690   0.005397
    10  H   -0.040921   0.057173  -0.061742   0.375251   0.010003   0.002574
    11  H   -0.054823  -0.073554   0.019230   0.461287   0.000854   0.000016
    12  H   -0.000308  -0.021133  -0.014207   0.001285   0.407946   0.006237
    13  H    0.000093   0.021530  -0.048038   0.002201   0.409581  -0.004574
    14  H   -0.000045  -0.031284  -0.000102   0.002234   0.400732  -0.008240
    15  H    0.255433  -0.030530   0.029902  -0.017594   0.002125  -0.001033
               7          8          9         10         11         12
     1  O    0.005139   0.008172  -0.012334  -0.040921  -0.054823  -0.000308
     2  C   -0.036051   0.436359   0.453873   0.057173  -0.073554  -0.021133
     3  C    0.440822  -0.042928  -0.052478  -0.061742   0.019230  -0.014207
     4  C   -0.015428  -0.049332  -0.031699   0.375251   0.461287   0.001285
     5  C   -0.037688   0.005340  -0.006690   0.010003   0.000854   0.407946
     6  H   -0.039906  -0.007307   0.005397   0.002574   0.000016   0.006237
     7  H    0.538908   0.005930  -0.006437   0.001025  -0.000415  -0.008131
     8  H    0.005930   0.525836  -0.031188  -0.004554  -0.003146  -0.000895
     9  H   -0.006437  -0.031188   0.492967   0.004364  -0.005614   0.001871
    10  H    0.001025  -0.004554   0.004364   0.553289  -0.030124  -0.000033
    11  H   -0.000415  -0.003146  -0.005614  -0.030124   0.534360  -0.000002
    12  H   -0.008131  -0.000895   0.001871  -0.000033  -0.000002   0.548662
    13  H   -0.004833   0.000003  -0.000122  -0.000010   0.000014  -0.024650
    14  H    0.006410   0.002372  -0.000064  -0.000036  -0.000038  -0.036979
    15  H    0.000296   0.000011   0.000026  -0.009517   0.008963   0.000021
              13         14         15
     1  O    0.000093  -0.000045   0.255433
     2  C    0.021530  -0.031284  -0.030530
     3  C   -0.048038  -0.000102   0.029902
     4  C    0.002201   0.002234  -0.017594
     5  C    0.409581   0.400732   0.002125
     6  H   -0.004574  -0.008240  -0.001033
     7  H   -0.004833   0.006410   0.000296
     8  H    0.000003   0.002372   0.000011
     9  H   -0.000122  -0.000064   0.000026
    10  H   -0.000010  -0.000036  -0.009517
    11  H    0.000014  -0.000038   0.008963
    12  H   -0.024650  -0.036979   0.000021
    13  H    0.538403  -0.025120   0.000003
    14  H   -0.025120   0.552464  -0.000014
    15  H    0.000003  -0.000014   0.520246
 Mulliken charges:
               1
     1  O   -0.343142
     2  C   -0.339726
     3  C   -0.180683
     4  C   -0.211436
     5  C   -0.523795
     6  H    0.163512
     7  H    0.150359
     8  H    0.155328
     9  H    0.188127
    10  H    0.143256
    11  H    0.142993
    12  H    0.140316
    13  H    0.135518
    14  H    0.137712
    15  H    0.241661
 Sum of Mulliken charges =  -0.00000
 Mulliken charges with hydrogens summed into heavy atoms:
               1
     1  O   -0.101481
     2  C    0.003729
     3  C    0.133188
     4  C    0.074813
     5  C   -0.110249
 APT charges:
               1
     1  O   -0.607883
     2  C   -0.751215
     3  C   -0.497451
     4  C   -0.669805
     5  C   -1.335999
     6  H    0.349682
     7  H    0.296494
     8  H    0.383274
     9  H    0.364407
    10  H    0.344060
    11  H    0.482905
    12  H    0.335873
    13  H    0.507336
    14  H    0.376413
    15  H    0.421908
 Sum of APT charges =  -0.00000
 APT charges with hydrogens summed into heavy atoms:
               1
     1  O   -0.185975
     2  C   -0.003534
     3  C    0.148725
     4  C    0.157160
     5  C   -0.116376
 Electronic spatial extent (au):  <R**2>=            602.6741
 Charge=             -0.0000 electrons
 Dipole moment (field-independent basis, Debye):
    X=             -1.4807    Y=              0.1306    Z=              1.0237  Tot=              1.8048
 Quadrupole moment (field-independent basis, Debye-Ang):
   XX=            -39.0118   YY=            -31.1082   ZZ=            -33.8281
   XY=              1.4417   XZ=              1.8719   YZ=             -0.9036
 Traceless Quadrupole moment (field-independent basis, Debye-Ang):
   XX=             -4.3624   YY=              3.5411   ZZ=              0.8213
   XY=              1.4417   XZ=              1.8719   YZ=             -0.9036
 Octapole moment (field-independent basis, Debye-Ang**2):
  XXX=             -5.5238  YYY=             -6.9801  ZZZ=             -0.4310  XYY=              5.8095
  XXY=              3.7168  XXZ=              3.8640  XZZ=              1.7334  YZZ=             -0.3537
  YYZ=              0.9265  XYZ=             -2.2983
 Hexadecapole moment (field-independent basis, Debye-Ang**3):
 XXXX=           -645.6975 YYYY=           -116.8446 ZZZZ=            -74.6327 XXXY=             12.5801
 XXXZ=              2.2665 YYYX=            -11.7473 YYYZ=              0.5055 ZZZX=              1.5540
 ZZZY=             -0.5870 XXYY=           -114.4427 XXZZ=           -114.7926 YYZZ=            -35.5897
 XXYZ=             -4.1489 YYXZ=             -1.0249 ZZXY=             -0.6379
 N-N= 1.884773035016D+02 E-N=-9.212907582822D+02  KE= 2.327044275791D+02
  Exact polarizability:   0.000   0.000   0.000   0.000   0.000   0.000
 Approx polarizability:  61.902  -0.079  63.131  -0.357  -0.038  60.972
 No NMR shielding tensors so no spin-rotation constants.
 Leave Link  601 at Mon Mar 11 19:48:10 2019, MaxMem=   671088640 cpu:               6.6 elap:               0.4
 (Enter /shared/centos7/gaussian/g16/l701.exe)
 ... and contract with generalized density number  0.
 Compute integral second derivatives.
 Leave Link  701 at Mon Mar 11 19:48:11 2019, MaxMem=   671088640 cpu:               9.1 elap:               0.5
 (Enter /shared/centos7/gaussian/g16/l702.exe)
 L702 exits ... SP integral derivatives will be done elsewhere.
 Leave Link  702 at Mon Mar 11 19:48:11 2019, MaxMem=   671088640 cpu:               0.4 elap:               0.0
 (Enter /shared/centos7/gaussian/g16/l703.exe)
 Integral derivatives from FoFJK, PRISM(SPDF).
 Compute integral second derivatives, UseDBF=F ICtDFT=           0.
 Calling FoFJK, ICntrl=    100147 FMM=F ISym2X=0 I1Cent= 0 IOpClX= 0 NMat=1 NMatS=1 NMatT=0.
 FoFJK:  IHMeth= 1 ICntrl=  100147 DoSepK=F KAlg= 0 I1Cent=           0 FoldK=F
 IRaf=         0 NMat=       1 IRICut=       1 DoRegI=T DoRafI=F ISym2E= 0 IDoP0=0 IntGTp=1.
 FoFCou: FMM=F IPFlag=           0 FMFlag=      100000 FMFlg1=         800
         NFxFlg=           0 DoJE=F BraDBF=F KetDBF=F FulRan=T
         wScrn=  0.000000 ICntrl=    100147 IOpCl=  0 I1Cent=           0 NGrid=           0
         NMat0=    1 NMatS0=      1 NMatT0=    0 NMatD0=    1 NMtDS0=    0 NMtDT0=    0
 Symmetry not used in FoFCou.
 Leave Link  703 at Mon Mar 11 19:50:17 2019, MaxMem=   671088640 cpu:            2528.1 elap:             126.5
 (Enter /shared/centos7/gaussian/g16/l716.exe)
 Dipole        =-5.82537158D-01 5.13888627D-02 4.02763216D-01
 Polarizability= 0.00000000D+00 0.00000000D+00 0.00000000D+00
                 0.00000000D+00 0.00000000D+00 0.00000000D+00
 ***** Axes restored to original set *****
 -------------------------------------------------------------------
 Center     Atomic                   Forces (Hartrees/Bohr)
 Number     Number              X              Y              Z
 -------------------------------------------------------------------
      1        8           0.000001237    0.000001809    0.000002888
      2        6          -0.000000273    0.000000432   -0.000000412
      3        6           0.000000067   -0.000000197   -0.000000279
      4        6          -0.000000888    0.000002813    0.000000185
      5        6          -0.000000028   -0.000003202   -0.000001040
      6        1          -0.000000386    0.000001604    0.000000752
      7        1           0.000001599   -0.000000467    0.000002243
      8        1          -0.000001754   -0.000000265   -0.000002828
      9        1           0.000000262   -0.000002004   -0.000001065
     10        1          -0.000001378    0.000004039    0.000000686
     11        1          -0.000001303    0.000002176   -0.000000333
     12        1           0.000001124   -0.000004370   -0.000001177
     13        1           0.000001158   -0.000002288   -0.000000502
     14        1          -0.000000956   -0.000002057   -0.000003002
     15        1           0.000001518    0.000001976    0.000003885
 -------------------------------------------------------------------
 Cartesian Forces:  Max     0.000004370 RMS     0.000001829
 FormGI is forming the generalized inverse of G from B-inverse, IUseBI=4.
 Leave Link  716 at Mon Mar 11 19:50:17 2019, MaxMem=   671088640 cpu:               0.8 elap:               0.1
 (Enter /shared/centos7/gaussian/g16/l103.exe)

 GradGradGradGradGradGradGradGradGradGradGradGradGradGradGradGradGradGrad
 Berny optimization.
 Red2BG is reusing G-inverse.
 Internal  Forces:  Max     0.000000446 RMS     0.000000120
 Search for a local minimum.
 Step number   1 out of a maximum of   79 on scan point     1 out of    37
 All quantities printed in internal units (Hartrees-Bohrs-Radians)
 RMS Force = .12106D-06 SwitMx=.10000D-02 MixMth= 2
 Mixed Optimization -- En-DIIS/RFO-DIIS
 Second derivative matrix not updated -- analytic derivatives used.
 ITU=  0
     Eigenvalues ---    0.00193   0.00264   0.00356   0.03191   0.03699
     Eigenvalues ---    0.03800   0.03939   0.04233   0.04532   0.04568
     Eigenvalues ---    0.05574   0.06841   0.07193   0.08492   0.09566
     Eigenvalues ---    0.12034   0.12146   0.13009   0.13481   0.15822
     Eigenvalues ---    0.16714   0.17965   0.22524   0.24303   0.28728
     Eigenvalues ---    0.30202   0.31997   0.32243   0.32876   0.33273
     Eigenvalues ---    0.33775   0.33932   0.34041   0.34121   0.34178
     Eigenvalues ---    0.35048   0.39679   0.549771000.000001000.00000
     Eigenvalues --- 1000.000001000.000001000.000001000.000001000.00000
     Eigenvalues --- 1000.000001000.000001000.000001000.000001000.00000
     Eigenvalues --- 1000.000001000.000001000.000001000.000001000.00000
     Eigenvalues --- 1000.000001000.000001000.000001000.000001000.00000
     Eigenvalues --- 1000.000001000.000001000.000001000.000001000.00000
     Eigenvalues --- 1000.000001000.000001000.000001000.00000
 RFO step:  Lambda= 0.00000000D+00 EMin= 1.93296758D-03
 Linear search not attempted -- first point.
 Iteration  1 RMS(Cart)=  0.00000060 RMS(Int)=  0.00000000
 Iteration  1 RMS(Cart)=  0.00000000 RMS(Int)=  0.00000000
 ITry= 1 IFail=0 DXMaxC= 1.56D-06 DCOld= 1.00D+10 DXMaxT= 3.00D-01 DXLimC= 3.00D+00 Rises=F
 Variable       Old X    -DE/DX   Delta X   Delta X   Delta X     New X
                                 (Linear)    (Quad)   (Total)
    R1        2.67565   0.00000   0.00000   0.00000   0.00000   2.67566
    R2        1.81158   0.00000   0.00000   0.00000   0.00000   1.81158
    R3        2.88194   0.00000   0.00000   0.00000   0.00000   2.88194
    R4        2.87321  -0.00000   0.00000  -0.00000  -0.00000   2.87320
    R5        2.06730  -0.00000   0.00000  -0.00000  -0.00000   2.06730
    R6        2.06536   0.00000   0.00000   0.00000   0.00000   2.06536
    R7        2.88073  -0.00000   0.00000  -0.00000  -0.00000   2.88073
    R8        2.06751   0.00000   0.00000   0.00000   0.00000   2.06752
    R9        2.06598  -0.00000   0.00000  -0.00000  -0.00000   2.06598
   R10        2.07193   0.00000   0.00000   0.00000   0.00000   2.07193
   R11        2.05829  -0.00000   0.00000  -0.00000  -0.00000   2.05829
   R12        2.06092  -0.00000   0.00000  -0.00000  -0.00000   2.06092
   R13        2.05831  -0.00000   0.00000  -0.00000  -0.00000   2.05830
   R14        2.06107   0.00000   0.00000   0.00000   0.00000   2.06107
    A1        1.90343   0.00000   0.00000   0.00000   0.00000   1.90343
    A2        1.97838   0.00000   0.00000   0.00000   0.00000   1.97838
    A3        1.90705  -0.00000   0.00000  -0.00000  -0.00000   1.90705
    A4        1.91358  -0.00000   0.00000  -0.00000  -0.00000   1.91358
    A5        1.89291   0.00000   0.00000   0.00000   0.00000   1.89291
    A6        1.89963  -0.00000   0.00000  -0.00000  -0.00000   1.89963
    A7        1.86907   0.00000   0.00000   0.00000   0.00000   1.86907
    A8        1.96176   0.00000   0.00000   0.00000   0.00000   1.96176
    A9        1.90673  -0.00000   0.00000  -0.00000  -0.00000   1.90673
   A10        1.91324  -0.00000   0.00000   0.00000   0.00000   1.91324
   A11        1.91511  -0.00000   0.00000  -0.00000  -0.00000   1.91511
   A12        1.90101  -0.00000   0.00000   0.00000   0.00000   1.90101
   A13        1.86340   0.00000   0.00000  -0.00000  -0.00000   1.86340
   A14        1.97209   0.00000   0.00000   0.00000   0.00000   1.97209
   A15        1.92805  -0.00000   0.00000  -0.00000  -0.00000   1.92805
   A16        1.84335  -0.00000   0.00000  -0.00000  -0.00000   1.84335
   A17        1.91745   0.00000   0.00000   0.00000   0.00000   1.91745
   A18        1.92349   0.00000   0.00000   0.00000   0.00000   1.92349
   A19        1.87588   0.00000   0.00000   0.00000   0.00000   1.87588
   A20        1.93183  -0.00000   0.00000  -0.00000  -0.00000   1.93183
   A21        1.94922   0.00000   0.00000   0.00000   0.00000   1.94923
   A22        1.93311  -0.00000   0.00000  -0.00000  -0.00000   1.93311
   A23        1.88397   0.00000   0.00000   0.00000   0.00000   1.88397
   A24        1.87888   0.00000   0.00000  -0.00000  -0.00000   1.87888
   A25        1.88435   0.00000   0.00000   0.00000   0.00000   1.88435
    D1       -1.16983   0.00000   0.00000   0.00000   0.00000  -1.16983
    D2        0.98612   0.00000   0.00000   0.00000   0.00000   0.98612
    D3        3.00945  -0.00000   0.00000  -0.00000  -0.00000   3.00945
    D4        3.09685   0.00000   0.00000  -0.00000  -0.00000   3.09685
    D5        0.96670  -0.00000   0.00000  -0.00000  -0.00000   0.96670
    D6       -1.06955   0.00000   0.00000   0.00000   0.00000  -1.06955
    D7        0.98367  -0.00000   0.00000  -0.00000  -0.00000   0.98367
    D8       -1.14648  -0.00000   0.00000  -0.00000  -0.00000  -1.14648
    D9        3.10046   0.00000   0.00000  -0.00000  -0.00000   3.10046
   D10       -1.05981  -0.00000   0.00000  -0.00000  -0.00000  -1.05981
   D11        3.09323  -0.00000   0.00000  -0.00000  -0.00000   3.09323
   D12        1.05698   0.00000   0.00000  -0.00000  -0.00000   1.05698
   D13        1.11672  -0.00000   0.00000  -0.00000  -0.00000   1.11672
   D14       -1.04507   0.00000   0.00000   0.00000   0.00000  -1.04507
   D15       -3.10888   0.00000   0.00000   0.00000   0.00000  -3.10888
   D16       -3.04534  -0.00000   0.00000  -0.00000  -0.00000  -3.04534
   D17        1.07606   0.00000   0.00000   0.00000   0.00000   1.07606
   D18       -0.98776  -0.00000   0.00000   0.00000   0.00000  -0.98776
   D19       -1.01758  -0.00000   0.00000   0.00000   0.00000  -1.01758
   D20        3.10381   0.00000   0.00000   0.00000   0.00000   3.10381
   D21        1.04000   0.00000   0.00000   0.00000   0.00000   1.04000
   D22        1.03419  -0.00000   0.00000  -0.00000  -0.00000   1.03419
   D23        3.13380   0.00000   0.00000   0.00000   0.00000   3.13380
   D24       -1.04842   0.00000   0.00000   0.00000   0.00000  -1.04842
   D25       -3.12361  -0.00000   0.00000  -0.00000  -0.00000  -3.12361
   D26       -1.02400   0.00000   0.00000   0.00000   0.00000  -1.02400
   D27        1.07696   0.00000   0.00000   0.00000   0.00000   1.07696
   D28       -1.08958  -0.00000   0.00000  -0.00000  -0.00000  -1.08958
   D29        1.01004  -0.00000   0.00000  -0.00000  -0.00000   1.01004
   D30        3.11100   0.00000   0.00000   0.00000   0.00000   3.11100
         Item               Value     Threshold  Converged?
 Maximum Force            0.000000     0.000450     YES
 RMS     Force            0.000000     0.000300     YES
 Maximum Displacement     0.000002     0.001800     YES
 RMS     Displacement     0.000001     0.001200     YES
 Predicted change in Energy=-2.073275D-12
 Optimization completed.
    -- Stationary point found.
                           ----------------------------
                           !   Optimized Parameters   !
                           ! (Angstroms and Degrees)  !
 --------------------------                            --------------------------
 ! Name  Definition              Value          Derivative Info.                !
 --------------------------------------------------------------------------------
 ! R1    R(1,4)                  1.4159         -DE/DX =    0.0                 !
 ! R2    R(1,15)                 0.9586         -DE/DX =    0.0                 !
 ! R3    R(2,3)                  1.5251         -DE/DX =    0.0                 !
 ! R4    R(2,4)                  1.5204         -DE/DX =    0.0                 !
 ! R5    R(2,8)                  1.094          -DE/DX =    0.0                 !
 ! R6    R(2,9)                  1.0929         -DE/DX =    0.0                 !
 ! R7    R(3,5)                  1.5244         -DE/DX =    0.0                 !
 ! R8    R(3,6)                  1.0941         -DE/DX =    0.0                 !
 ! R9    R(3,7)                  1.0933         -DE/DX =    0.0                 !
 ! R10   R(4,10)                 1.0964         -DE/DX =    0.0                 !
 ! R11   R(4,11)                 1.0892         -DE/DX =    0.0                 !
 ! R12   R(5,12)                 1.0906         -DE/DX =    0.0                 !
 ! R13   R(5,13)                 1.0892         -DE/DX =    0.0                 !
 ! R14   R(5,14)                 1.0907         -DE/DX =    0.0                 !
 ! A1    A(4,1,15)             109.0584         -DE/DX =    0.0                 !
 ! A2    A(3,2,4)              113.3526         -DE/DX =    0.0                 !
 ! A3    A(3,2,8)              109.2658         -DE/DX =    0.0                 !
 ! A4    A(3,2,9)              109.6403         -DE/DX =    0.0                 !
 ! A5    A(4,2,8)              108.4556         -DE/DX =    0.0                 !
 ! A6    A(4,2,9)              108.8407         -DE/DX =    0.0                 !
 ! A7    A(8,2,9)              107.0899         -DE/DX =    0.0                 !
 ! A8    A(2,3,5)              112.4006         -DE/DX =    0.0                 !
 ! A9    A(2,3,6)              109.2474         -DE/DX =    0.0                 !
 ! A10   A(2,3,7)              109.6204         -DE/DX =    0.0                 !
 ! A11   A(5,3,6)              109.7277         -DE/DX =    0.0                 !
 ! A12   A(5,3,7)              108.9199         -DE/DX =    0.0                 !
 ! A13   A(6,3,7)              106.765          -DE/DX =    0.0                 !
 ! A14   A(1,4,2)              112.9922         -DE/DX =    0.0                 !
 ! A15   A(1,4,10)             110.4692         -DE/DX =    0.0                 !
 ! A16   A(1,4,11)             105.6164         -DE/DX =    0.0                 !
 ! A17   A(2,4,10)             109.8616         -DE/DX =    0.0                 !
 ! A18   A(2,4,11)             110.2078         -DE/DX =    0.0                 !
 ! A19   A(10,4,11)            107.4801         -DE/DX =    0.0                 !
 ! A20   A(3,5,12)             110.6859         -DE/DX =    0.0                 !
 ! A21   A(3,5,13)             111.6823         -DE/DX =    0.0                 !
 ! A22   A(3,5,14)             110.759          -DE/DX =    0.0                 !
 ! A23   A(12,5,13)            107.9436         -DE/DX =    0.0                 !
 ! A24   A(12,5,14)            107.6522         -DE/DX =    0.0                 !
 ! A25   A(13,5,14)            107.9653         -DE/DX =    0.0                 !
 ! D1    D(15,1,4,2)           -67.0262         -DE/DX =    0.0                 !
 ! D2    D(15,1,4,10)           56.5006         -DE/DX =    0.0                 !
 ! D3    D(15,1,4,11)          172.4286         -DE/DX =    0.0                 !
 ! D4    D(4,2,3,5)            177.4365         -DE/DX =    0.0                 !
 ! D5    D(4,2,3,6)             55.388          -DE/DX =    0.0                 !
 ! D6    D(4,2,3,7)            -61.2806         -DE/DX =    0.0                 !
 ! D7    D(8,2,3,5)             56.3601         -DE/DX =    0.0                 !
 ! D8    D(8,2,3,6)            -65.6884         -DE/DX =    0.0                 !
 ! D9    D(8,2,3,7)            177.643          -DE/DX =    0.0                 !
 ! D10   D(9,2,3,5)            -60.7224         -DE/DX =    0.0                 !
 ! D11   D(9,2,3,6)            177.2291         -DE/DX =    0.0                 !
 ! D12   D(9,2,3,7)             60.5606         -DE/DX =    0.0                 !
 ! D13   D(3,2,4,1)             63.9834         -DE/DX =    0.0                 !
 ! D14   D(3,2,4,10)           -59.878          -DE/DX =    0.0                 !
 ! D15   D(3,2,4,11)          -178.1258         -DE/DX =    0.0                 !
 ! D16   D(8,2,4,1)           -174.4851         -DE/DX =    0.0                 !
 ! D17   D(8,2,4,10)            61.6535         -DE/DX =    0.0                 !
 ! D18   D(8,2,4,11)           -56.5942         -DE/DX =    0.0                 !
 ! D19   D(9,2,4,1)            -58.3033         -DE/DX =    0.0                 !
 ! D20   D(9,2,4,10)           177.8354         -DE/DX =    0.0                 !
 ! D21   D(9,2,4,11)            59.5876         -DE/DX =    0.0                 !
 ! D22   D(2,3,5,12)            59.2547         -DE/DX =    0.0                 !
 ! D23   D(2,3,5,13)           179.5537         -DE/DX =    0.0                 !
 ! D24   D(2,3,5,14)           -60.0701         -DE/DX =    0.0                 !
 ! D25   D(6,3,5,12)          -178.9698         -DE/DX =    0.0                 !
 ! D26   D(6,3,5,13)           -58.6709         -DE/DX =    0.0                 !
 ! D27   D(6,3,5,14)            61.7053         -DE/DX =    0.0                 !
 ! D28   D(7,3,5,12)           -62.4281         -DE/DX =    0.0                 !
 ! D29   D(7,3,5,13)            57.8708         -DE/DX =    0.0                 !
 ! D30   D(7,3,5,14)           178.247          -DE/DX =    0.0                 !
 --------------------------------------------------------------------------------
 Lowest energy point so far.  Saving SCF results.
 Iteration  1 RMS(Cart)=  0.01283776 RMS(Int)=  0.01426743
 Iteration  2 RMS(Cart)=  0.00089316 RMS(Int)=  0.01425807
 Iteration  3 RMS(Cart)=  0.00005374 RMS(Int)=  0.01425805
 Iteration  4 RMS(Cart)=  0.00000288 RMS(Int)=  0.01425805
 Iteration  5 RMS(Cart)=  0.00000017 RMS(Int)=  0.01425805
 Iteration  1 RMS(Cart)=  0.00590769 RMS(Int)=  0.00665629
 Iteration  2 RMS(Cart)=  0.00275475 RMS(Int)=  0.00744871
 Iteration  3 RMS(Cart)=  0.00129689 RMS(Int)=  0.00826531
 Iteration  4 RMS(Cart)=  0.00061303 RMS(Int)=  0.00872126
 Iteration  5 RMS(Cart)=  0.00029031 RMS(Int)=  0.00895005
 Iteration  6 RMS(Cart)=  0.00013759 RMS(Int)=  0.00906111
 Iteration  7 RMS(Cart)=  0.00006524 RMS(Int)=  0.00911434
 Iteration  8 RMS(Cart)=  0.00003094 RMS(Int)=  0.00913970
 Iteration  9 RMS(Cart)=  0.00001467 RMS(Int)=  0.00915176
 Iteration 10 RMS(Cart)=  0.00000696 RMS(Int)=  0.00915749
 Iteration 11 RMS(Cart)=  0.00000330 RMS(Int)=  0.00916020
 Iteration 12 RMS(Cart)=  0.00000157 RMS(Int)=  0.00916149
 Iteration 13 RMS(Cart)=  0.00000074 RMS(Int)=  0.00916210
 GradGradGradGradGradGradGradGradGradGradGradGradGradGradGradGradGradGrad

 Leave Link  103 at Mon Mar 11 19:50:17 2019, MaxMem=   671088640 cpu:               1.2 elap:               0.1
 (Enter /shared/centos7/gaussian/g16/l202.exe)
                          Input orientation:                          
 ---------------------------------------------------------------------
 Center     Atomic      Atomic             Coordinates (Angstroms)
 Number     Number       Type             X           Y           Z
 ---------------------------------------------------------------------
      1          8           0        2.057376   -0.655751   -0.246916
      2          6           0       -0.000817    0.707039   -0.206598
      3          6           0       -0.951744   -0.370513    0.303712
      4          6           0        1.434491    0.512291    0.255670
      5          6           0       -2.394472   -0.120311   -0.120304
      6          1           0       -0.890525   -0.418148    1.395044
      7          1           0       -0.635895   -1.347107   -0.072777
      8          1           0       -0.346028    1.686031    0.138621
      9          1           0       -0.020160    0.726590   -1.299197
     10          1           0        1.563706    0.537749    1.344389
     11          1           0        2.070519    1.321639   -0.100415
     12          1           0       -2.476457   -0.088031   -1.207334
     13          1           0       -3.061894   -0.900402    0.243537
     14          1           0       -2.751027    0.834994    0.266773
     15          1           0        1.582407   -1.425423    0.071640
 ---------------------------------------------------------------------
                    Distance matrix (angstroms):
                    1          2          3          4          5
     1  O    0.000000
     2  C    2.468801   0.000000
     3  C    3.072353   1.525057   0.000000
     4  C    1.415944   1.520437   2.544753   0.000000
     5  C    4.485719   2.534076   1.524420   3.899038   0.000000
     6  H    3.382692   2.150089   1.094085   2.751288   2.155654
     7  H    2.786037   2.154240   1.093270   2.802095   2.144733
     8  H    3.377711   1.093971   2.150238   2.135794   2.743363
     9  H    2.708194   1.092945   2.154252   2.139987   2.782874
    10  H    2.049488   2.209514   2.869745   1.096656   4.271480
    11  H    1.982853   2.163201   3.487229   1.089207   4.692095
    12  H    4.669085   2.786110   2.165135   4.218564   1.090595
    13  H    5.148526   3.486644   2.176497   4.713102   1.089208
    14  H    5.060329   2.793584   2.166110   4.197955   1.090673
    15  H    0.958889   2.670470   2.754744   1.952045   4.189956
                    6          7          8          9         10
     6  H    0.000000
     7  H    1.755648   0.000000
     8  H    2.510507   3.054282   0.000000
     9  H    3.053996   2.486655   1.758988   0.000000
    10  H    2.634303   3.224792   2.533676   3.087529   0.000000
    11  H    3.745802   3.801006   2.455528   2.482357   1.720117
    12  H    3.065376   2.502032   3.081821   2.589488   4.819317
    13  H    2.504672   2.486980   3.751876   3.778793   4.967528
    14  H    2.510942   3.057883   2.554351   3.149865   4.457189
    15  H    2.980167   2.224377   3.661215   3.013068   2.339719
                   11         12         13         14         15
    11  H    0.000000
    12  H    4.887477   0.000000
    13  H    5.603341   1.762869   0.000000
    14  H    4.859934   1.760783   1.763173   0.000000
    15  H    2.795390   4.460805   4.677043   4.891443   0.000000
 Stoichiometry    C4H10O
 Framework group  C1[X(C4H10O)]
 Deg. of freedom    39
 Full point group                 C1      NOp   1
 RotChk:  IX=0 Diff= 6.11D-03
 Largest Abelian subgroup         C1      NOp   1
 Largest concise Abelian subgroup C1      NOp   1
                         Standard orientation:                         
 ---------------------------------------------------------------------
 Center     Atomic      Atomic             Coordinates (Angstroms)
 Number     Number       Type             X           Y           Z
 ---------------------------------------------------------------------
      1          8           0        2.055364   -0.659242   -0.258600
      2          6           0       -0.001458    0.705432   -0.212510
      3          6           0       -0.951336   -0.370440    0.303271
      4          6           0        1.435468    0.510173    0.244485
      5          6           0       -2.395485   -0.119657   -0.115535
      6          1           0       -0.885909   -0.416337    1.394433
      7          1           0       -0.637814   -1.347929   -0.072839
      8          1           0       -0.344462    1.685295    0.132440
      9          1           0       -0.025040    0.723207   -1.305056
     10          1           0        1.568945    0.537304    1.332649
     11          1           0        2.070814    1.318373   -0.115404
     12          1           0       -2.481676   -0.089089   -1.202289
     13          1           0       -3.062170   -0.898560    0.252184
     14          1           0       -2.749690    0.836597    0.271356
     15          1           0        1.580964   -1.427971    0.063068
 ---------------------------------------------------------------------
 Rotational constants (GHZ):          12.7941832           2.3362913           2.1548782
 Leave Link  202 at Mon Mar 11 19:50:17 2019, MaxMem=   671088640 cpu:               0.2 elap:               0.0
 (Enter /shared/centos7/gaussian/g16/l301.exe)
 Standard basis: 6-311+G(2df,2p) (5D, 7F)
 Ernie: Thresh=  0.10000D-02 Tol=  0.10000D-05 Strict=F.
 There are   285 symmetry adapted cartesian basis functions of A   symmetry.
 There are   260 symmetry adapted basis functions of A   symmetry.
   260 basis functions,   370 primitive gaussians,   285 cartesian basis functions
    21 alpha electrons       21 beta electrons
       nuclear repulsion energy       188.1303262774 Hartrees.
 IExCor= 4336 DFT=T Ex+Corr=M062X ExCW=0 ScaHFX=  0.540000
 ScaDFX=  1.000000  1.000000  1.000000  1.000000 ScalE2=  1.000000  1.000000
 IRadAn=      5 IRanWt=     -1 IRanGd=            0 ICorTp=0 IEmpDi=  4
 NAtoms=   15 NActive=   15 NUniq=   15 SFac= 1.00D+00 NAtFMM=   60 NAOKFM=F Big=F
 Integral buffers will be    131072 words long.
 Raffenetti 2 integral format.
 Two-electron integral symmetry is turned on.
 Leave Link  301 at Mon Mar 11 19:50:17 2019, MaxMem=   671088640 cpu:               1.3 elap:               0.1
 (Enter /shared/centos7/gaussian/g16/l302.exe)
 NPDir=0 NMtPBC=     1 NCelOv=     1 NCel=       1 NClECP=     1 NCelD=      1
         NCelK=      1 NCelE2=     1 NClLst=     1 CellRange=     0.0.
 One-electron integrals computed using PRISM.
 One-electron integral symmetry used in STVInt
 NBasis=   260 RedAO= T EigKep=  1.98D-05  NBF=   260
 NBsUse=   260 1.00D-06 EigRej= -1.00D+00 NBFU=   260
 Precomputing XC quadrature grid using
 IXCGrd= 4 IRadAn=           5 IRanWt=          -1 IRanGd=           0 AccXCQ= 0.00D+00.
 Generated NRdTot=       0 NPtTot=           0 NUsed=           0 NTot=          32
 NSgBfM=   285   285   285   285   285 MxSgAt=    15 MxSgA2=    15.
 Leave Link  302 at Mon Mar 11 19:50:18 2019, MaxMem=   671088640 cpu:               8.9 elap:               0.5
 (Enter /shared/centos7/gaussian/g16/l303.exe)
 DipDrv:  MaxL=1.
 Leave Link  303 at Mon Mar 11 19:50:18 2019, MaxMem=   671088640 cpu:               0.9 elap:               0.1
 (Enter /shared/centos7/gaussian/g16/l401.exe)
 Initial guess from the checkpoint file:  "/scratch/underkoffler.c/gaussian_scratch/Gau-42417.chk"
 B after Tr=     0.000000    0.000000   -0.000000
         Rot=    0.999999    0.001514   -0.000225   -0.000757 Ang=   0.20 deg.
 Guess basis will be translated and rotated to current coordinates.
 JPrj=2 DoOrth=T DoCkMO=T.
 Generating alternative initial guess.
 ExpMin= 4.38D-02 ExpMax= 8.59D+03 ExpMxC= 1.30D+03 IAcc=2 IRadAn=         4 AccDes= 0.00D+00
 Harris functional with IExCor= 1009 and IRadAn=       4 diagonalized for initial guess.
 HarFok:  IExCor= 1009 AccDes= 0.00D+00 IRadAn=         4 IDoV= 1 UseB2=F ITyADJ=14
 ICtDFT=  3500011 ScaDFX=  1.000000  1.000000  1.000000  1.000000
 FoFCou: FMM=F IPFlag=           0 FMFlag=      100000 FMFlg1=           0
         NFxFlg=           0 DoJE=T BraDBF=F KetDBF=T FulRan=T
         wScrn=  0.000000 ICntrl=       500 IOpCl=  0 I1Cent=   200000004 NGrid=           0
         NMat0=    1 NMatS0=      1 NMatT0=    0 NMatD0=    1 NMtDS0=    0 NMtDT0=    0
 Petite list used in FoFCou.
 Harris En= -233.600096470995    
 Leave Link  401 at Mon Mar 11 19:50:19 2019, MaxMem=   671088640 cpu:              21.2 elap:               1.1
 (Enter /shared/centos7/gaussian/g16/l502.exe)
 Integral symmetry usage will be decided dynamically.
 Closed shell SCF:
 Using DIIS extrapolation, IDIIS=  1040.
 NGot=   671088640 LenX=   670917793 LenY=   670836127
 Requested convergence on RMS density matrix=1.00D-08 within 128 cycles.
 Requested convergence on MAX density matrix=1.00D-06.
 Requested convergence on             energy=1.00D-06.
 No special actions if energy rises.
 Fock matrices will be formed incrementally for  20 cycles.

 Cycle   1  Pass 1  IDiag  1:
 FoFJK:  IHMeth= 1 ICntrl=       0 DoSepK=F KAlg= 0 I1Cent=           0 FoldK=F
 IRaf= 970000000 NMat=       1 IRICut=       1 DoRegI=T DoRafI=F ISym2E= 0 IDoP0=0 IntGTp=1.
 FoFCou: FMM=F IPFlag=           0 FMFlag=      100000 FMFlg1=           0
         NFxFlg=           0 DoJE=F BraDBF=F KetDBF=F FulRan=T
         wScrn=  0.000000 ICntrl=         0 IOpCl=  0 I1Cent=           0 NGrid=           0
         NMat0=    1 NMatS0=      1 NMatT0=    0 NMatD0=    1 NMtDS0=    0 NMtDT0=    0
 Symmetry not used in FoFCou.
 E= -233.630632330199    
 DIIS: error= 1.46D-03 at cycle   1 NSaved=   1.
 NSaved= 1 IEnMin= 1 EnMin= -233.630632330199     IErMin= 1 ErrMin= 1.46D-03
 ErrMax= 1.46D-03  0.00D+00 EMaxC= 1.00D-01 BMatC= 1.25D-03 BMatP= 1.25D-03
 IDIUse=3 WtCom= 9.85D-01 WtEn= 1.46D-02
 Coeff-Com:  0.100D+01
 Coeff-En:   0.100D+01
 Coeff:      0.100D+01
 Gap=     0.617 Goal=   None    Shift=    0.000
 GapD=    0.617 DampG=2.000 DampE=1.000 DampFc=2.0000 IDamp=-1.
 RMSDP=3.80D-04 MaxDP=3.54D-02              OVMax= 1.24D-02

 Cycle   2  Pass 1  IDiag  1:
 RMSU=  3.65D-04    CP:  1.01D+00
 E= -233.631923716854     Delta-E=       -0.001291386655 Rises=F Damp=F
 DIIS: error= 2.44D-04 at cycle   2 NSaved=   2.
 NSaved= 2 IEnMin= 2 EnMin= -233.631923716854     IErMin= 2 ErrMin= 2.44D-04
 ErrMax= 2.44D-04  0.00D+00 EMaxC= 1.00D-01 BMatC= 3.35D-05 BMatP= 1.25D-03
 IDIUse=3 WtCom= 9.98D-01 WtEn= 2.44D-03
 Coeff-Com: -0.107D+00 0.111D+01
 Coeff-En:   0.000D+00 0.100D+01
 Coeff:     -0.107D+00 0.111D+01
 Gap=     0.363 Goal=   None    Shift=    0.000
 RMSDP=6.65D-05 MaxDP=6.07D-03 DE=-1.29D-03 OVMax= 3.62D-03

 Cycle   3  Pass 1  IDiag  1:
 RMSU=  3.81D-05    CP:  1.01D+00  1.14D+00
 E= -233.631972690332     Delta-E=       -0.000048973478 Rises=F Damp=F
 DIIS: error= 1.49D-04 at cycle   3 NSaved=   3.
 NSaved= 3 IEnMin= 3 EnMin= -233.631972690332     IErMin= 3 ErrMin= 1.49D-04
 ErrMax= 1.49D-04  0.00D+00 EMaxC= 1.00D-01 BMatC= 8.97D-06 BMatP= 3.35D-05
 IDIUse=3 WtCom= 9.99D-01 WtEn= 1.49D-03
 Coeff-Com: -0.526D-01 0.394D+00 0.659D+00
[...]
           D13         63.79303  63.98606
           D14        -59.74685 -59.88544
           D15       -178.13346-178.12813
           D16       -174.49165-174.47926
           D17         61.96847  61.64924
           D18        -56.41813 -56.59345
           D19        -58.28816 -58.29901
           D20        178.17196 177.82949
           D21         59.78536  59.58680
           D22         59.34595  59.25546
           D23        179.61665 179.55414
           D24        -59.99371 -60.06891
           D25       -178.88269-178.96714
           D26        -58.61199 -58.66845
           D27         61.77765  61.70850
           D28        -62.20211 -62.42555
           D29         58.06859  57.87313
           D30        178.45823 178.25008
 Largest change from initial coordinates is atom    7       0.001 Angstoms.
 GradGradGradGradGradGradGradGradGradGradGradGradGradGradGradGradGradGrad

 Leave Link  103 at Mon Mar 11 21:12:41 2019, MaxMem=   671088640 cpu:               0.9 elap:               0.1
 (Enter /shared/centos7/gaussian/g16/l202.exe)
                          Input orientation:                          
 ---------------------------------------------------------------------
 Center     Atomic      Atomic             Coordinates (Angstroms)
 Number     Number       Type             X           Y           Z
 ---------------------------------------------------------------------
      1          8           0        2.024246   -0.646885   -0.344066
      2          6           0       -0.018297    0.701844   -0.256643
      3          6           0       -0.920330   -0.367246    0.350905
      4          6           0        1.442982    0.551765    0.135573
      5          6           0       -2.388054   -0.159741   -0.004869
      6          1           0       -0.800088   -0.365240    1.438363
      7          1           0       -0.606898   -1.354355    0.000760
      8          1           0       -0.363094    1.689501    0.063398
      9          1           0       -0.096091    0.672079   -1.346406
     10          1           0        1.544829    0.618154    1.225226
     11          1           0        2.033482    1.357829   -0.297954
     12          1           0       -2.528531   -0.177277   -1.086233
     13          1           0       -3.020420   -0.933619    0.428255
     14          1           0       -2.741217    0.805926    0.358898
     15          1           0        1.616963   -1.392088    0.100640
 ---------------------------------------------------------------------
                    Distance matrix (angstroms):
                    1          2          3          4          5
     1  O    0.000000
     2  C    2.449223   0.000000
     3  C    3.038372   1.525035   0.000000
     4  C    1.415869   1.520425   2.544836   0.000000
     5  C    4.452051   2.534062   1.524418   3.899077   0.000000
     6  H    3.351602   2.150096   1.094088   2.751277   2.155641
     7  H    2.746331   2.154219   1.093263   2.802405   2.144680
     8  H    3.365133   1.093973   2.150204   2.135781   2.743140
     9  H    2.690759   1.092942   2.154165   2.139972   2.782937
    10  H    2.071917   2.155528   2.795077   1.096414   4.193546
    11  H    2.005266   2.154488   3.481653   1.089208   4.683898
    12  H    4.636715   2.786100   2.165125   4.218676   1.090591
    13  H    5.111492   3.486627   2.176498   4.713171   1.089207
    14  H    5.031347   2.793567   2.166108   4.197855   1.090670
    15  H    0.958629   2.680724   2.747870   1.951937   4.191656
                    6          7          8          9         10
     6  H    0.000000
     7  H    1.755669   0.000000
     8  H    2.510668   3.054246   0.000000
     9  H    3.053945   2.486405   1.758973   0.000000
    10  H    2.551691   3.165444   2.477458   3.051036   0.000000
    11  H    3.743379   3.796943   2.446254   2.470747   1.762378
    12  H    3.065361   2.501948   3.081498   2.589567   4.750560
    13  H    2.504645   2.486938   3.751701   3.778808   4.887194
    14  H    2.510947   3.057841   2.554113   3.150026   4.376754
    15  H    2.947212   2.226423   3.663087   3.047833   2.304554
                   11         12         13         14         15
    11  H    0.000000
    12  H    4.877489   0.000000
    13  H    5.596431   1.762863   0.000000
    14  H    4.851165   1.760775   1.763173   0.000000
    15  H    2.809700   4.479906   4.671493   4.887913   0.000000
 Stoichiometry    C4H10O
 Framework group  C1[X(C4H10O)]
 Deg. of freedom    39
 Full point group                 C1      NOp   1
 RotChk:  IX=0 Diff= 8.46D-16
 Largest Abelian subgroup         C1      NOp   1
 Largest concise Abelian subgroup C1      NOp   1
                         Standard orientation:                         
 ---------------------------------------------------------------------
 Center     Atomic      Atomic             Coordinates (Angstroms)
 Number     Number       Type             X           Y           Z
 ---------------------------------------------------------------------
      1          8           0        2.029387   -0.668419   -0.266133
      2          6           0        0.006322    0.710932   -0.208725
      3          6           0       -0.941110   -0.370897    0.298963
      4          6           0        1.443996    0.514881    0.245534
      5          6           0       -2.386119   -0.119221   -0.116319
      6          1           0       -0.874542   -0.425825    1.389641
      7          1           0       -0.626268   -1.344633   -0.085664
      8          1           0       -0.338354    1.687298    0.144383
      9          1           0       -0.018176    0.737487   -1.301070
     10          1           0        1.493092    0.524467    1.340806
     11          1           0        2.067637    1.330935   -0.117097
     12          1           0       -2.473439   -0.079742   -1.202692
     13          1           0       -3.051048   -0.902358    0.245533
     14          1           0       -2.741645    0.833136    0.278877
     15          1           0        1.589118   -1.427577    0.119629
 ---------------------------------------------------------------------
 Rotational constants (GHZ):          12.6562559           2.3642473           2.1751697
 Leave Link  202 at Mon Mar 11 21:12:41 2019, MaxMem=   671088640 cpu:               0.2 elap:               0.0
 (Enter /shared/centos7/gaussian/g16/l601.exe)
 Copying SCF densities to generalized density rwf, IOpCl= 0 IROHF=0.

 **********************************************************************

            Population analysis using the SCF density.

 **********************************************************************

 Orbital symmetries:
       Occupied  (A) (A) (A) (A) (A) (A) (A) (A) (A) (A) (A) (A)
                 (A) (A) (A) (A) (A) (A) (A) (A) (A)
       Virtual   (A) (A) (A) (A) (A) (A) (A) (A) (A) (A) (A) (A)
                 (A) (A) (A) (A) (A) (A) (A) (A) (A) (A) (A) (A)
                 (A) (A) (A) (A) (A) (A) (A) (A) (A) (A) (A) (A)
                 (A) (A) (A) (A) (A) (A) (A) (A) (A) (A) (A) (A)
                 (A) (A) (A) (A) (A) (A) (A) (A) (A) (A) (A) (A)
                 (A) (A) (A) (A) (A) (A) (A) (A) (A) (A) (A) (A)
                 (A) (A) (A) (A) (A) (A) (A) (A) (A) (A) (A) (A)
                 (A) (A) (A) (A) (A) (A) (A) (A) (A) (A) (A) (A)
                 (A) (A) (A) (A) (A) (A) (A) (A) (A) (A) (A) (A)
                 (A) (A) (A) (A) (A) (A) (A) (A) (A) (A) (A) (A)
                 (A) (A) (A) (A) (A) (A) (A) (A) (A) (A) (A) (A)
                 (A) (A) (A) (A) (A) (A) (A) (A) (A) (A) (A) (A)
                 (A) (A) (A) (A) (A) (A) (A) (A) (A) (A) (A) (A)
                 (A) (A) (A) (A) (A) (A) (A) (A) (A) (A) (A) (A)
                 (A) (A) (A) (A) (A) (A) (A) (A) (A) (A) (A) (A)
                 (A) (A) (A) (A) (A) (A) (A) (A) (A) (A) (A) (A)
                 (A) (A) (A) (A) (A) (A) (A) (A) (A) (A) (A) (A)
                 (A) (A) (A) (A) (A) (A) (A) (A) (A) (A) (A) (A)
                 (A) (A) (A) (A) (A) (A) (A) (A) (A) (A) (A) (A)
                 (A) (A) (A) (A) (A) (A) (A) (A) (A) (A) (A)
 The electronic state is 1-A.
 Alpha  occ. eigenvalues --  -19.61846 -10.57815 -10.53585 -10.52976 -10.52569
 Alpha  occ. eigenvalues --   -1.14312  -0.89844  -0.81819  -0.72702  -0.66605
 Alpha  occ. eigenvalues --   -0.58779  -0.54408  -0.51687  -0.51098  -0.46320
 Alpha  occ. eigenvalues --   -0.45236  -0.42727  -0.40850  -0.39592  -0.38024
 Alpha  occ. eigenvalues --   -0.34658
 Alpha virt. eigenvalues --    0.01418   0.02671   0.02852   0.03831   0.05776
 Alpha virt. eigenvalues --    0.05958   0.06637   0.07517   0.08029   0.08728
 Alpha virt. eigenvalues --    0.10088   0.10698   0.12909   0.14519   0.15574
 Alpha virt. eigenvalues --    0.17645   0.18409   0.19084   0.20211   0.21141
 Alpha virt. eigenvalues --    0.21907   0.22328   0.23994   0.24590   0.26158
 Alpha virt. eigenvalues --    0.26689   0.27331   0.28570   0.29102   0.29932
 Alpha virt. eigenvalues --    0.31028   0.31389   0.31709   0.36346   0.41432
 Alpha virt. eigenvalues --    0.43307   0.43765   0.45257   0.46776   0.49392
 Alpha virt. eigenvalues --    0.51719   0.53267   0.54261   0.55945   0.56752
 Alpha virt. eigenvalues --    0.57767   0.58696   0.59941   0.60960   0.63485
 Alpha virt. eigenvalues --    0.63724   0.64264   0.64888   0.65940   0.67460
 Alpha virt. eigenvalues --    0.68542   0.69926   0.70351   0.74102   0.76574
 Alpha virt. eigenvalues --    0.80085   0.80831   0.81024   0.86389   0.88766
 Alpha virt. eigenvalues --    0.90996   0.91952   0.94875   0.95736   0.99890
 Alpha virt. eigenvalues --    1.03103   1.04698   1.06543   1.09224   1.12038
 Alpha virt. eigenvalues --    1.13507   1.14651   1.16266   1.16554   1.17950
 Alpha virt. eigenvalues --    1.19313   1.21180   1.21664   1.22229   1.24822
 Alpha virt. eigenvalues --    1.25773   1.27892   1.29224   1.31683   1.32942
 Alpha virt. eigenvalues --    1.33222   1.37915   1.38788   1.39930   1.43531
 Alpha virt. eigenvalues --    1.44321   1.44926   1.45496   1.45905   1.48170
 Alpha virt. eigenvalues --    1.49261   1.52050   1.54853   1.56351   1.58825
 Alpha virt. eigenvalues --    1.60044   1.60819   1.62705   1.64206   1.64404
 Alpha virt. eigenvalues --    1.67865   1.68726   1.73453   1.79421   1.97655
 Alpha virt. eigenvalues --    2.09627   2.15507   2.29288   2.31381   2.40679
 Alpha virt. eigenvalues --    2.45697   2.48722   2.50519   2.56964   2.59089
 Alpha virt. eigenvalues --    2.63985   2.66366   2.75425   2.76311   2.78471
 Alpha virt. eigenvalues --    2.81430   2.83342   2.85687   2.89300   2.91512
 Alpha virt. eigenvalues --    2.94858   2.97638   2.98778   3.03306   3.04198
 Alpha virt. eigenvalues --    3.08896   3.13105   3.16284   3.16808   3.18265
 Alpha virt. eigenvalues --    3.20818   3.24121   3.26310   3.27773   3.30599
 Alpha virt. eigenvalues --    3.33952   3.35143   3.37533   3.38725   3.40036
 Alpha virt. eigenvalues --    3.43796   3.47344   3.51855   3.52750   3.55281
 Alpha virt. eigenvalues --    3.57767   3.59275   3.62025   3.63861   3.66089
 Alpha virt. eigenvalues --    3.68981   3.70873   3.71141   3.74946   3.78187
 Alpha virt. eigenvalues --    3.79341   3.83610   3.88205   3.88923   3.90787
 Alpha virt. eigenvalues --    3.95780   3.98667   3.99719   4.00115   4.01806
 Alpha virt. eigenvalues --    4.07062   4.09899   4.10963   4.13338   4.14994
 Alpha virt. eigenvalues --    4.19156   4.19907   4.22638   4.23080   4.25403
 Alpha virt. eigenvalues --    4.27405   4.28549   4.31144   4.33211   4.37527
 Alpha virt. eigenvalues --    4.38760   4.41823   4.43083   4.46320   4.52609
 Alpha virt. eigenvalues --    4.53031   4.54543   4.56782   4.60067   4.62524
 Alpha virt. eigenvalues --    4.64911   4.67563   4.78293   4.79905   5.02435
 Alpha virt. eigenvalues --    5.18753   5.22445   5.24914   5.26202   5.38742
 Alpha virt. eigenvalues --    5.40973   5.43812   5.50272   5.51217   5.58793
 Alpha virt. eigenvalues --    5.59847   5.61538   5.64960   5.65752   5.67538
 Alpha virt. eigenvalues --    5.85052   5.96189   6.51138   6.99994   7.19529
 Alpha virt. eigenvalues --    7.22662   7.24225   7.51992   7.62877  24.26893
 Alpha virt. eigenvalues --   24.38820  24.43794  24.50307  50.14842
          Condensed to atoms (all electrons):
               1          2          3          4          5          6
     1  O    8.076079   0.028897  -0.071309   0.139106   0.010877  -0.000932
     2  C    0.028897   5.689393  -0.312419  -0.002386   0.210027  -0.050177
     3  C   -0.071309  -0.312419   5.689178   0.234253  -0.063504   0.434044
     4  C    0.139106  -0.002386   0.234253   5.263333  -0.153521   0.002468
     5  C    0.010877   0.210027  -0.063504  -0.153521   5.355735  -0.028016
     6  H   -0.000932  -0.050177   0.434044   0.002468  -0.028016   0.525944
     7  H    0.005149  -0.036011   0.440782  -0.015461  -0.037652  -0.039905
     8  H    0.008171   0.436402  -0.042983  -0.049358   0.005369  -0.007301
     9  H   -0.012328   0.453809  -0.052428  -0.031655  -0.006730   0.005398
    10  H   -0.040917   0.057199  -0.061759   0.375229   0.010011   0.002574
    11  H   -0.054842  -0.073575   0.019232   0.461306   0.000852   0.000016
    12  H   -0.000308  -0.021135  -0.014187   0.001290   0.407924   0.006237
    13  H    0.000093   0.021530  -0.048038   0.002202   0.409582  -0.004575
    14  H   -0.000045  -0.031286  -0.000106   0.002228   0.400745  -0.008239
    15  H    0.255430  -0.030509   0.029885  -0.017600   0.002128  -0.001032
               7          8          9         10         11         12
     1  O    0.005149   0.008171  -0.012328  -0.040917  -0.054842  -0.000308
     2  C   -0.036011   0.436402   0.453809   0.057199  -0.073575  -0.021135
     3  C    0.440782  -0.042983  -0.052428  -0.061759   0.019232  -0.014187
     4  C   -0.015461  -0.049358  -0.031655   0.375229   0.461306   0.001290
     5  C   -0.037652   0.005369  -0.006730   0.010011   0.000852   0.407924
     6  H   -0.039905  -0.007301   0.005398   0.002574   0.000016   0.006237
     7  H    0.538883   0.005931  -0.006444   0.001025  -0.000415  -0.008134
     8  H    0.005931   0.525848  -0.031189  -0.004556  -0.003148  -0.000898
     9  H   -0.006444  -0.031189   0.492980   0.004365  -0.005617   0.001871
    10  H    0.001025  -0.004556   0.004365   0.553288  -0.030121  -0.000033
    11  H   -0.000415  -0.003148  -0.005617  -0.030121   0.534387  -0.000002
    12  H   -0.008134  -0.000898   0.001871  -0.000033  -0.000002   0.548670
    13  H   -0.004832   0.000003  -0.000122  -0.000010   0.000014  -0.024650
    14  H    0.006409   0.002373  -0.000063  -0.000036  -0.000038  -0.036980
    15  H    0.000290   0.000011   0.000025  -0.009515   0.008966   0.000021
              13         14         15
     1  O    0.000093  -0.000045   0.255430
     2  C    0.021530  -0.031286  -0.030509
     3  C   -0.048038  -0.000106   0.029885
     4  C    0.002202   0.002228  -0.017600
     5  C    0.409582   0.400745   0.002128
     6  H   -0.004575  -0.008239  -0.001032
     7  H   -0.004832   0.006409   0.000290
     8  H    0.000003   0.002373   0.000011
     9  H   -0.000122  -0.000063   0.000025
    10  H   -0.000010  -0.000036  -0.009515
    11  H    0.000014  -0.000038   0.008966
    12  H   -0.024650  -0.036980   0.000021
    13  H    0.538397  -0.025119   0.000003
    14  H   -0.025119   0.552461  -0.000014
    15  H    0.000003  -0.000014   0.520252
 Mulliken charges:
               1
     1  O   -0.343119
     2  C   -0.339759
     3  C   -0.180641
     4  C   -0.211433
     5  C   -0.523828
     6  H    0.163495
     7  H    0.150384
     8  H    0.155324
     9  H    0.188127
    10  H    0.143257
    11  H    0.142986
    12  H    0.140312
    13  H    0.135522
    14  H    0.137711
    15  H    0.241661
 Sum of Mulliken charges =  -0.00000
 Mulliken charges with hydrogens summed into heavy atoms:
               1
     1  O   -0.101459
     2  C    0.003692
     3  C    0.133238
     4  C    0.074810
     5  C   -0.110283
 Electronic spatial extent (au):  <R**2>=            602.7148
 Charge=             -0.0000 electrons
 Dipole moment (field-independent basis, Debye):
    X=             -1.4806    Y=              0.1300    Z=              1.0236  Tot=              1.8047
 Quadrupole moment (field-independent basis, Debye-Ang):
   XX=            -39.0127   YY=            -31.1077   ZZ=            -33.8280
   XY=              1.4399   XZ=              1.8720   YZ=             -0.9032
 Traceless Quadrupole moment (field-independent basis, Debye-Ang):
   XX=             -4.3633   YY=              3.5418   ZZ=              0.8215
   XY=              1.4399   XZ=              1.8720   YZ=             -0.9032
 Octapole moment (field-independent basis, Debye-Ang**2):
  XXX=             -5.5274  YYY=             -6.9801  ZZZ=             -0.4309  XYY=              5.8130
  XXY=              3.7116  XXZ=              3.8643  XZZ=              1.7337  YZZ=             -0.3538
  YYZ=              0.9259  XYZ=             -2.2981
 Hexadecapole moment (field-independent basis, Debye-Ang**3):
 XXXX=           -645.7878 YYYY=           -116.8353 ZZZZ=            -74.6269 XXXY=             12.5724
 XXXZ=              2.2697 YYYX=            -11.7508 YYYZ=              0.5066 ZZZX=              1.5544
 ZZZY=             -0.5878 XXYY=           -114.4440 XXZZ=           -114.8030 YYZZ=            -35.5855
 XXYZ=             -4.1488 YYXZ=             -1.0255 ZZXY=             -0.6392
 N-N= 1.884752133947D+02 E-N=-9.212866253790D+02  KE= 2.327045345447D+02
 No NMR shielding tensors so no spin-rotation constants.
 Leave Link  601 at Mon Mar 11 21:12:42 2019, MaxMem=   671088640 cpu:               6.9 elap:               0.4
 (Enter /shared/centos7/gaussian/g16/l9999.exe)
 1\1\GINC-C0046\Scan\RM062X\6-311+G(2df,2p)\C4H10O1\UNDERKOFFLER.C\11-M
 ar-2019\0\\#p m062x/6-311+g(2df,2p) Opt=(CalcFC,ModRedun)\\Gaussian In
 put Prepared from Scan Object\\0,1\O,2.0242457413,-0.6468854746,-0.344
 0659667\C,-0.0182968297,0.7018444186,-0.256642515\C,-0.920329515,-0.36
 72457661,0.3509048342\C,1.4429816042,0.5517653538,0.1355727199\C,-2.38
 80544453,-0.1597405345,-0.0048692779\H,-0.800087978,-0.3652399618,1.43
 83632079\H,-0.6068978671,-1.3543545873,0.0007596591\H,-0.3630943135,1.
 6895008243,0.0633982561\H,-0.0960914747,0.67207866,-1.3464060368\H,1.5
 44829287,0.6181541233,1.2252256075\H,2.0334820447,1.3578293381,-0.2979
 537053\H,-2.5285314582,-0.177276722,-1.0862334435\H,-3.0204201392,-0.9
 336189483,0.4282554822\H,-2.7412168473,0.805925538,0.3588981364\H,1.61
 69631907,-1.3920882614,0.100640042\\Version=EM64L-G16RevA.03\State=1-A
 \HF=-233.6330307,-233.6329246,-233.6326087,-233.6321342,-233.6316091,-
 233.6311719,-233.630949,-233.6310146,-233.6313411,-233.6318291,-233.63
 23438,-233.6327635,-233.6330022,-233.6330227,-233.6328318,-233.6324889
 ,-233.632097,-233.6317667,-233.6315994,-233.6316492,-233.6318999,-233.
 6322833,-233.6326949,-233.6330315,-233.6332151,-233.633211,-233.633026
 9,-233.6327121,-233.6323471,-233.6320269,-233.6318375,-233.6318302,-23
 3.6320087,-233.6323154,-233.632655,-233.6329248,-233.6330307\RMSD=2.86
 8e-09,8.579e-09,5.459e-09,8.619e-09,4.065e-09,2.563e-09,6.321e-09,5.50
 5e-09,5.387e-09,3.035e-09,5.415e-09,5.833e-09,8.323e-09,7.587e-09,8.25
 9e-09,8.518e-09,5.756e-09,7.356e-09,5.940e-09,6.794e-09,5.706e-09,7.44
 6e-09,5.467e-09,5.908e-09,7.636e-09,1.598e-09,7.700e-09,9.398e-09,7.34
 0e-09,6.520e-09,5.646e-09,9.917e-09,3.828e-09,5.392e-09,9.352e-09,7.11
 4e-09,8.188e-09\PG=C01 [X(C4H10O1)]\\@


 RESEARCH IS WHAT I AM DOING WHEN I DON'T KNOW WHAT I AM DOING.
     -- WERNER VON BRAUN
 Job cpu time:       1 days  5 hours 14 minutes 45.5 seconds.
 Elapsed time:       0 days  1 hours 28 minutes 26.2 seconds.
 File lengths (MBytes):  RWF=   1328 Int=      0 D2E=      0 Chk=     32 Scr=     32
 Normal termination of Gaussian 16 at Mon Mar 11 21:12:42 2019.
