 Entering Gaussian System, Link 0=g16
 Input=LRHPLDYGYMQRHN-UHFFFAOYSA-N_36by-10.0_tor03_a2.com
 Output=LRHPLDYGYMQRHN-UHFFFAOYSA-N_36by-10.0_tor03_a2.log
 Initial command:
 /shared/centos7/gaussian/g16/l1.exe "/scratch/underkoffler.c/gaussian_scratch/Gau-13885.inp" -scrdir="/scratch/underkoffler.c/gaussian_scratch/"
 Entering Link 1 = /shared/centos7/gaussian/g16/l1.exe PID=     13886.
  
 Copyright (c) 1988,1990,1992,1993,1995,1998,2003,2009,2016,
            Gaussian, Inc.  All Rights Reserved.
  
 This is part of the Gaussian(R) 16 program.  It is based on
 the Gaussian(R) 09 system (copyright 2009, Gaussian, Inc.),
 the Gaussian(R) 03 system (copyright 2003, Gaussian, Inc.),
 the Gaussian(R) 98 system (copyright 1998, Gaussian, Inc.),
 the Gaussian(R) 94 system (copyright 1995, Gaussian, Inc.),
 the Gaussian 92(TM) system (copyright 1992, Gaussian, Inc.),
 the Gaussian 90(TM) system (copyright 1990, Gaussian, Inc.),
 the Gaussian 88(TM) system (copyright 1988, Gaussian, Inc.),
 the Gaussian 86(TM) system (copyright 1986, Carnegie Mellon
 University), and the Gaussian 82(TM) system (copyright 1983,
 Carnegie Mellon University). Gaussian is a federally registered
 trademark of Gaussian, Inc.
  
 This software contains proprietary and confidential information,
 including trade secrets, belonging to Gaussian, Inc.
  
 This software is provided under written license and may be
 used, copied, transmitted, or stored only in accord with that
 written license.
  
 The following legend is applicable only to US Government
 contracts under FAR:
  
                    RESTRICTED RIGHTS LEGEND
  
 Use, reproduction and disclosure by the US Government is
 subject to restrictions as set forth in subparagraphs (a)
 and (c) of the Commercial Computer Software - Restricted
 Rights clause in FAR 52.227-19.
  
 Gaussian, Inc.
 340 Quinnipiac St., Bldg. 40, Wallingford CT 06492
  
  
 ---------------------------------------------------------------
 Warning -- This program may not be used in any manner that
 competes with the business of Gaussian, Inc. or will provide
 assistance to any competitor of Gaussian, Inc.  The licensee
 of this program is prohibited from giving any competitor of
 Gaussian, Inc. access to this program.  By using this program,
 the user acknowledges that Gaussian, Inc. is engaged in the
 business of creating and licensing software in the field of
 computational chemistry and represents and warrants to the
 licensee that it is not a competitor of Gaussian, Inc. and that
 it will not use this program in any manner prohibited above.
 ---------------------------------------------------------------
  

 Cite this work as:
 Gaussian 16, Revision A.03,
 M. J. Frisch, G. W. Trucks, H. B. Schlegel, G. E. Scuseria, 
 M. A. Robb, J. R. Cheeseman, G. Scalmani, V. Barone, 
 G. A. Petersson, H. Nakatsuji, X. Li, M. Caricato, A. V. Marenich, 
 J. Bloino, B. G. Janesko, R. Gomperts, B. Mennucci, H. P. Hratchian, 
 J. V. Ortiz, A. F. Izmaylov, J. L. Sonnenberg, D. Williams-Young, 
 F. Ding, F. Lipparini, F. Egidi, J. Goings, B. Peng, A. Petrone, 
 T. Henderson, D. Ranasinghe, V. G. Zakrzewski, J. Gao, N. Rega, 
 G. Zheng, W. Liang, M. Hada, M. Ehara, K. Toyota, R. Fukuda, 
 J. Hasegawa, M. Ishida, T. Nakajima, Y. Honda, O. Kitao, H. Nakai, 
 T. Vreven, K. Throssell, J. A. Montgomery, Jr., J. E. Peralta, 
 F. Ogliaro, M. J. Bearpark, J. J. Heyd, E. N. Brothers, K. N. Kudin, 
 V. N. Staroverov, T. A. Keith, R. Kobayashi, J. Normand, 
 K. Raghavachari, A. P. Rendell, J. C. Burant, S. S. Iyengar, 
 J. Tomasi, M. Cossi, J. M. Millam, M. Klene, C. Adamo, R. Cammi, 
 J. W. Ochterski, R. L. Martin, K. Morokuma, O. Farkas, 
 J. B. Foresman, and D. J. Fox, Gaussian, Inc., Wallingford CT, 2016.
 
 ******************************************
 Gaussian 16:  EM64L-G16RevA.03 25-Dec-2016
                23-Apr-2019 
 ******************************************
 %nprocshared=20
 Will use up to   20 processors via shared memory.
 %mem=5GB
 ----------------------------------------------
 #p m062x/6-311+g(2df,2p) Opt=(CalcFC,ModRedun)
 ----------------------------------------------
 1/10=4,18=120,19=15,26=3,38=1/1,3;
 2/9=110,12=2,17=6,18=5,40=1/2;
 3/5=4,6=6,7=214,11=2,25=1,30=1,71=2,74=-55,140=1/1,2,3;
 4//1;
 5/5=2,38=5/2;
 8/6=4,10=90,11=11/1;
 11/6=1,8=1,9=11,15=111,16=1/1,2,10;
 10/6=1,13=1/2;
 6/7=2,8=2,9=2,10=2,28=1/1;
 7/10=1,18=20,25=1/1,2,3,16;
 1/10=4,18=20,19=15,26=3/3(2);
 2/9=110/2;
 99//99;
 2/9=110/2;
 3/5=4,6=6,7=214,11=2,25=1,30=1,71=1,74=-55/1,2,3;
 4/5=5,16=3,69=1/1;
 5/5=2,38=5/2;
 7//1,2,3,16;
 1/18=20,19=15,26=3/3(-5);
 2/9=110/2;
 6/7=2,8=2,9=2,10=2,19=2,28=1/1;
 99/9=1/99;
 Leave Link    1 at Tue Apr 23 21:46:47 2019, MaxMem=   671088640 cpu:              33.4 elap:               1.8
 (Enter /shared/centos7/gaussian/g16/l101.exe)
 ----------------------------------------
 Gaussian Input Prepared from Scan Object
 ----------------------------------------
 Symbolic Z-matrix:
 Charge =  0 Multiplicity = 1
 O                     1.89471  -0.72534  -0.26845 
 C                    -0.00012   0.70613  -0.22812 
 C                    -0.94499  -0.34222   0.34844 
 C                     1.43443   0.52307   0.2228 
 C                    -2.37941  -0.14882  -0.12828 
 H                    -0.90793  -0.29387   1.44035 
 H                    -0.58665  -1.33316   0.0682 
 H                    -0.33226   1.70597   0.06448 
 H                    -0.02824   0.66658  -1.3203 
 H                     1.48303   0.54525   1.31774 
 H                     2.05554   1.33833  -0.16099 
 H                    -2.43843  -0.22048  -1.21519 
 H                    -3.04657  -0.90033   0.29223 
 H                    -2.75799   0.83354   0.15879 
 H                     2.79567  -0.87018   0.02327 
 
 The following ModRedundant input section has been read:
 B       2       9 B                                                           
 B       5      12 B                                                           
 B       4      10 B                                                           
 B       5      13 B                                                           
 B       3       5 B                                                           
 B       4      11 B                                                           
 B       5      14 B                                                           
 B       1      15 B                                                           
 B       3       6 B                                                           
 B       2       3 B                                                           
 B       3       7 B                                                           
 B       2       4 B                                                           
 B       2       8 B                                                           
 B       1       4 B                                                           
 D      15       1       4      11 S  36 -10.00                                
 
 ITRead=  0  0  0  0  0  0  0  0  0  0  0  0  0  0  0
 MicOpt= -1 -1 -1 -1 -1 -1 -1 -1 -1 -1 -1 -1 -1 -1 -1
 NAtoms=     15 NQM=       15 NQMF=       0 NMMI=      0 NMMIF=      0
                NMic=       0 NMicF=      0.
                    Isotopes and Nuclear Properties:
 (Nuclear quadrupole moments (NQMom) in fm**2, nuclear magnetic moments (NMagM)
  in nuclear magnetons)

  Atom         1           2           3           4           5           6           7           8           9          10
 IAtWgt=          16          12          12          12          12           1           1           1           1           1
 AtmWgt=  15.9949146  12.0000000  12.0000000  12.0000000  12.0000000   1.0078250   1.0078250   1.0078250   1.0078250   1.0078250
 NucSpn=           0           0           0           0           0           1           1           1           1           1
 AtZEff=  -0.0000000  -0.0000000  -0.0000000  -0.0000000  -0.0000000  -0.0000000  -0.0000000  -0.0000000  -0.0000000  -0.0000000
 NQMom=    0.0000000   0.0000000   0.0000000   0.0000000   0.0000000   0.0000000   0.0000000   0.0000000   0.0000000   0.0000000
 NMagM=    0.0000000   0.0000000   0.0000000   0.0000000   0.0000000   2.7928460   2.7928460   2.7928460   2.7928460   2.7928460
 AtZNuc=   8.0000000   6.0000000   6.0000000   6.0000000   6.0000000   1.0000000   1.0000000   1.0000000   1.0000000   1.0000000

  Atom        11          12          13          14          15
 IAtWgt=           1           1           1           1           1
 AtmWgt=   1.0078250   1.0078250   1.0078250   1.0078250   1.0078250
 NucSpn=           1           1           1           1           1
 AtZEff=  -0.0000000  -0.0000000  -0.0000000  -0.0000000  -0.0000000
 NQMom=    0.0000000   0.0000000   0.0000000   0.0000000   0.0000000
 NMagM=    2.7928460   2.7928460   2.7928460   2.7928460   2.7928460
 AtZNuc=   1.0000000   1.0000000   1.0000000   1.0000000   1.0000000
 Leave Link  101 at Tue Apr 23 21:46:48 2019, MaxMem=   671088640 cpu:               7.2 elap:               0.4
 (Enter /shared/centos7/gaussian/g16/l103.exe)

 GradGradGradGradGradGradGradGradGradGradGradGradGradGradGradGradGradGrad
 Berny optimization.
 Initialization pass.
                           ----------------------------
                           !    Initial Parameters    !
                           ! (Angstroms and Degrees)  !
 --------------------------                            --------------------------
 ! Name  Definition              Value          Derivative Info.                !
 --------------------------------------------------------------------------------
 ! R1    R(1,4)                  1.4183         calculate D2E/DX2 analytically  !
 ! R2    R(1,15)                 0.958          calculate D2E/DX2 analytically  !
 ! R3    R(2,3)                  1.5245         calculate D2E/DX2 analytically  !
 ! R4    R(2,4)                  1.5149         calculate D2E/DX2 analytically  !
 ! R5    R(2,8)                  1.0934         calculate D2E/DX2 analytically  !
 ! R6    R(2,9)                  1.0933         calculate D2E/DX2 analytically  !
 ! R7    R(3,5)                  1.5239         calculate D2E/DX2 analytically  !
 ! R8    R(3,6)                  1.0936         calculate D2E/DX2 analytically  !
 ! R9    R(3,7)                  1.0904         calculate D2E/DX2 analytically  !
 ! R10   R(4,10)                 1.0962         calculate D2E/DX2 analytically  !
 ! R11   R(4,11)                 1.0944         calculate D2E/DX2 analytically  !
 ! R12   R(5,12)                 1.0909         calculate D2E/DX2 analytically  !
 ! R13   R(5,13)                 1.0894         calculate D2E/DX2 analytically  !
 ! R14   R(5,14)                 1.0912         calculate D2E/DX2 analytically  !
 ! A1    A(4,1,15)             109.4386         calculate D2E/DX2 analytically  !
 ! A2    A(3,2,4)              113.032          calculate D2E/DX2 analytically  !
 ! A3    A(3,2,8)              109.8357         calculate D2E/DX2 analytically  !
 ! A4    A(3,2,9)              109.6941         calculate D2E/DX2 analytically  !
 ! A5    A(4,2,8)              108.5721         calculate D2E/DX2 analytically  !
 ! A6    A(4,2,9)              108.5032         calculate D2E/DX2 analytically  !
 ! A7    A(8,2,9)              107.0136         calculate D2E/DX2 analytically  !
 ! A8    A(2,3,5)              112.1981         calculate D2E/DX2 analytically  !
 ! A9    A(2,3,6)              109.038          calculate D2E/DX2 analytically  !
 ! A10   A(2,3,7)              108.9089         calculate D2E/DX2 analytically  !
 ! A11   A(5,3,6)              109.7935         calculate D2E/DX2 analytically  !
 ! A12   A(5,3,7)              110.1379         calculate D2E/DX2 analytically  !
 ! A13   A(6,3,7)              106.5979         calculate D2E/DX2 analytically  !
 ! A14   A(1,4,2)              108.0944         calculate D2E/DX2 analytically  !
 ! A15   A(1,4,10)             110.4487         calculate D2E/DX2 analytically  !
 ! A16   A(1,4,11)             110.4904         calculate D2E/DX2 analytically  !
 ! A17   A(2,4,10)             109.6852         calculate D2E/DX2 analytically  !
 ! A18   A(2,4,11)             110.0622         calculate D2E/DX2 analytically  !
 ! A19   A(10,4,11)            108.0607         calculate D2E/DX2 analytically  !
 ! A20   A(3,5,12)             110.7497         calculate D2E/DX2 analytically  !
 ! A21   A(3,5,13)             111.6028         calculate D2E/DX2 analytically  !
 ! A22   A(3,5,14)             111.0093         calculate D2E/DX2 analytically  !
 ! A23   A(12,5,13)            107.8282         calculate D2E/DX2 analytically  !
 ! A24   A(12,5,14)            107.6069         calculate D2E/DX2 analytically  !
 ! A25   A(13,5,14)            107.8796         calculate D2E/DX2 analytically  !
 ! D1    D(15,1,4,2)          -178.7026         calculate D2E/DX2 analytically  !
 ! D2    D(15,1,4,10)          -58.6998         calculate D2E/DX2 analytically  !
 ! D3    D(15,1,4,11)           60.8091         Scan                            !
 ! D4    D(4,2,3,5)           -179.4202         calculate D2E/DX2 analytically  !
 ! D5    D(4,2,3,6)             58.7291         calculate D2E/DX2 analytically  !
 ! D6    D(4,2,3,7)            -57.2233         calculate D2E/DX2 analytically  !
 ! D7    D(8,2,3,5)             59.1622         calculate D2E/DX2 analytically  !
 ! D8    D(8,2,3,6)            -62.6886         calculate D2E/DX2 analytically  !
 ! D9    D(8,2,3,7)           -178.6409         calculate D2E/DX2 analytically  !
 ! D10   D(9,2,3,5)            -58.1924         calculate D2E/DX2 analytically  !
 ! D11   D(9,2,3,6)            179.9569         calculate D2E/DX2 analytically  !
 ! D12   D(9,2,3,7)             64.0045         calculate D2E/DX2 analytically  !
 ! D13   D(3,2,4,1)             63.1821         calculate D2E/DX2 analytically  !
 ! D14   D(3,2,4,10)           -57.299          calculate D2E/DX2 analytically  !
 ! D15   D(3,2,4,11)          -176.0623         calculate D2E/DX2 analytically  !
 ! D16   D(8,2,4,1)           -174.6897         calculate D2E/DX2 analytically  !
 ! D17   D(8,2,4,10)            64.8292         calculate D2E/DX2 analytically  !
 ! D18   D(8,2,4,11)           -53.934          calculate D2E/DX2 analytically  !
 ! D19   D(9,2,4,1)            -58.717          calculate D2E/DX2 analytically  !
 ! D20   D(9,2,4,10)          -179.1981         calculate D2E/DX2 analytically  !
 ! D21   D(9,2,4,11)            62.0387         calculate D2E/DX2 analytically  !
 ! D22   D(2,3,5,12)            60.0729         calculate D2E/DX2 analytically  !
 ! D23   D(2,3,5,13)          -179.7843         calculate D2E/DX2 analytically  !
 ! D24   D(2,3,5,14)           -59.3994         calculate D2E/DX2 analytically  !
 ! D25   D(6,3,5,12)          -178.5087         calculate D2E/DX2 analytically  !
 ! D26   D(6,3,5,13)           -58.3658         calculate D2E/DX2 analytically  !
 ! D27   D(6,3,5,14)            62.0191         calculate D2E/DX2 analytically  !
 ! D28   D(7,3,5,12)           -61.4224         calculate D2E/DX2 analytically  !
 ! D29   D(7,3,5,13)            58.7204         calculate D2E/DX2 analytically  !
 ! D30   D(7,3,5,14)           179.1053         calculate D2E/DX2 analytically  !
 --------------------------------------------------------------------------------
 Trust Radius=3.00D-01 FncErr=1.00D-07 GrdErr=1.00D-06 EigMax=2.50D+02 EigMin=1.00D-04
 Number of optimizations in scan=  37
 Number of steps in this run=     79 maximum allowed number of steps=    100.
 GradGradGradGradGradGradGradGradGradGradGradGradGradGradGradGradGradGrad

 Leave Link  103 at Tue Apr 23 21:46:48 2019, MaxMem=   671088640 cpu:               0.2 elap:               0.0
 (Enter /shared/centos7/gaussian/g16/l202.exe)
                          Input orientation:                          
 ---------------------------------------------------------------------
 Center     Atomic      Atomic             Coordinates (Angstroms)
 Number     Number       Type             X           Y           Z
 ---------------------------------------------------------------------
      1          8           0        1.894708   -0.725344   -0.268446
      2          6           0       -0.000122    0.706128   -0.228122
      3          6           0       -0.944989   -0.342219    0.348436
      4          6           0        1.434430    0.523065    0.222801
      5          6           0       -2.379412   -0.148821   -0.128279
      6          1           0       -0.907928   -0.293873    1.440354
      7          1           0       -0.586654   -1.333157    0.068198
      8          1           0       -0.332261    1.705975    0.064481
      9          1           0       -0.028238    0.666581   -1.320296
     10          1           0        1.483032    0.545254    1.317739
     11          1           0        2.055542    1.338330   -0.160986
     12          1           0       -2.438435   -0.220482   -1.215192
     13          1           0       -3.046571   -0.900332    0.292234
     14          1           0       -2.757995    0.833541    0.158792
     15          1           0        2.795671   -0.870182    0.023267
 ---------------------------------------------------------------------
                    Distance matrix (angstroms):
                    1          2          3          4          5
     1  O    0.000000
     2  C    2.375103   0.000000
     3  C    2.931076   1.524541   0.000000
     4  C    1.418346   1.514854   2.534982   0.000000
     5  C    4.315104   2.530203   1.523886   3.888454   0.000000
     6  H    3.310730   2.146608   1.093615   2.763415   2.155670
     7  H    2.576805   2.142547   1.090365   2.748499   2.157599
     8  H    3.313841   1.093447   2.156655   2.132027   2.769160
     9  H    2.596452   1.093251   2.154710   2.130995   2.759312
    10  H    2.073615   2.148327   2.760877   1.096241   4.182246
    11  H    2.072719   2.151729   3.476627   1.094408   4.677766
    12  H    4.464005   2.788957   2.165672   4.197591   1.090871
    13  H    4.976065   3.483150   2.175154   4.702154   1.089358
    14  H    4.925474   2.787795   2.169186   4.204392   1.091224
    15  H    0.958023   3.219379   3.791703   1.958042   5.227314
                    6          7          8          9         10
     6  H    0.000000
     7  H    1.751040   0.000000
     8  H    2.494756   3.049762   0.000000
     9  H    3.052460   2.497738   1.757946   0.000000
    10  H    2.536899   3.061598   2.492633   3.042677   0.000000
    11  H    3.743063   3.764381   2.426438   2.477374   1.772954
    12  H    3.065903   2.512813   3.128060   2.570404   4.730750
    13  H    2.501953   2.507732   3.769905   3.763748   4.864019
    14  H    2.517183   3.068795   2.579577   3.109204   4.405970
    15  H    4.007107   3.414160   4.052437   3.484431   2.324250
                   11         12         13         14         15
    11  H    0.000000
    12  H    4.872070   0.000000
    13  H    5.590042   1.761919   0.000000
    14  H    4.850485   1.760941   1.762781   0.000000
    15  H    2.336507   5.417726   5.848508   5.810700   0.000000
 Stoichiometry    C4H10O
 Framework group  C1[X(C4H10O)]
 Deg. of freedom    39
 Full point group                 C1      NOp   1
 Largest Abelian subgroup         C1      NOp   1
 Largest concise Abelian subgroup C1      NOp   1
                         Standard orientation:                         
 ---------------------------------------------------------------------
 Center     Atomic      Atomic             Coordinates (Angstroms)
 Number     Number       Type             X           Y           Z
 ---------------------------------------------------------------------
      1          8           0        1.893113   -0.731068   -0.256784
      2          6           0        0.000245    0.703219   -0.225419
      3          6           0       -0.947728   -0.342276    0.351218
      4          6           0        1.433275    0.519266    0.229957
      5          6           0       -2.380543   -0.148055   -0.129976
      6          1           0       -0.913626   -0.291159    1.443106
      7          1           0       -0.590047   -1.334449    0.074536
      8          1           0       -0.331264    1.704295    0.063677
      9          1           0       -0.024899    0.660888   -1.317561
     10          1           0        1.478871    0.544217    1.324966
     11          1           0        2.056623    1.332643   -0.154207
     12          1           0       -2.436655   -0.222441   -1.216861
     13          1           0       -3.049949   -0.897517    0.290621
     14          1           0       -2.758504    0.835588    0.153505
     15          1           0        2.793054   -0.876444    0.037804
 ---------------------------------------------------------------------
 Rotational constants (GHZ):          12.5691688           2.4011663           2.2136012
 Leave Link  202 at Tue Apr 23 21:46:48 2019, MaxMem=   671088640 cpu:               0.2 elap:               0.0
 (Enter /shared/centos7/gaussian/g16/l301.exe)
 Standard basis: 6-311+G(2df,2p) (5D, 7F)
 Ernie: Thresh=  0.10000D-02 Tol=  0.10000D-05 Strict=F.
 There are   285 symmetry adapted cartesian basis functions of A   symmetry.
 There are   260 symmetry adapted basis functions of A   symmetry.
   260 basis functions,   370 primitive gaussians,   285 cartesian basis functions
    21 alpha electrons       21 beta electrons
       nuclear repulsion energy       188.7530017249 Hartrees.
 IExCor= 4336 DFT=T Ex+Corr=M062X ExCW=0 ScaHFX=  0.540000
 ScaDFX=  1.000000  1.000000  1.000000  1.000000 ScalE2=  1.000000  1.000000
 IRadAn=      5 IRanWt=     -1 IRanGd=            0 ICorTp=0 IEmpDi=  4
 NAtoms=   15 NActive=   15 NUniq=   15 SFac= 1.00D+00 NAtFMM=   60 NAOKFM=F Big=F
 Integral buffers will be    131072 words long.
 Raffenetti 2 integral format.
 Two-electron integral symmetry is turned on.
 Leave Link  301 at Tue Apr 23 21:46:48 2019, MaxMem=   671088640 cpu:               1.2 elap:               0.1
 (Enter /shared/centos7/gaussian/g16/l302.exe)
 NPDir=0 NMtPBC=     1 NCelOv=     1 NCel=       1 NClECP=     1 NCelD=      1
         NCelK=      1 NCelE2=     1 NClLst=     1 CellRange=     0.0.
 One-electron integrals computed using PRISM.
 One-electron integral symmetry used in STVInt
 NBasis=   260 RedAO= T EigKep=  1.73D-05  NBF=   260
 NBsUse=   260 1.00D-06 EigRej= -1.00D+00 NBFU=   260
 Precomputing XC quadrature grid using
 IXCGrd= 4 IRadAn=           5 IRanWt=          -1 IRanGd=           0 AccXCQ= 0.00D+00.
 Generated NRdTot=       0 NPtTot=           0 NUsed=           0 NTot=          32
 NSgBfM=   285   285   285   285   285 MxSgAt=    15 MxSgA2=    15.
 Leave Link  302 at Tue Apr 23 21:46:49 2019, MaxMem=   671088640 cpu:               8.5 elap:               0.5
 (Enter /shared/centos7/gaussian/g16/l303.exe)
 DipDrv:  MaxL=1.
 Leave Link  303 at Tue Apr 23 21:46:49 2019, MaxMem=   671088640 cpu:               0.8 elap:               0.1
 (Enter /shared/centos7/gaussian/g16/l401.exe)
 ExpMin= 4.38D-02 ExpMax= 8.59D+03 ExpMxC= 1.30D+03 IAcc=3 IRadAn=         5 AccDes= 0.00D+00
 Harris functional with IExCor= 1009 and IRadAn=       5 diagonalized for initial guess.
 HarFok:  IExCor= 1009 AccDes= 0.00D+00 IRadAn=         5 IDoV= 1 UseB2=F ITyADJ=14
 ICtDFT=  3500011 ScaDFX=  1.000000  1.000000  1.000000  1.000000
 FoFCou: FMM=F IPFlag=           0 FMFlag=      100000 FMFlg1=           0
         NFxFlg=           0 DoJE=T BraDBF=F KetDBF=T FulRan=T
         wScrn=  0.000000 ICntrl=       500 IOpCl=  0 I1Cent=   200000004 NGrid=           0
         NMat0=    1 NMatS0=      1 NMatT0=    0 NMatD0=    1 NMtDS0=    0 NMtDT0=    0
 Petite list used in FoFCou.
 Harris En= -233.603620310998    
 JPrj=0 DoOrth=F DoCkMO=F.
 Leave Link  401 at Tue Apr 23 21:46:50 2019, MaxMem=   671088640 cpu:              27.0 elap:               1.4
 (Enter /shared/centos7/gaussian/g16/l502.exe)
 Integral symmetry usage will be decided dynamically.
 Closed shell SCF:
 Using DIIS extrapolation, IDIIS=  1040.
 NGot=   671088640 LenX=   670917793 LenY=   670836127
 Requested convergence on RMS density matrix=1.00D-08 within 128 cycles.
 Requested convergence on MAX density matrix=1.00D-06.
 Requested convergence on             energy=1.00D-06.
 No special actions if energy rises.
 Fock matrices will be formed incrementally for  20 cycles.

 Cycle   1  Pass 1  IDiag  1:
 FoFJK:  IHMeth= 1 ICntrl=       0 DoSepK=F KAlg= 0 I1Cent=           0 FoldK=F
 IRaf= 970000000 NMat=       1 IRICut=       1 DoRegI=T DoRafI=F ISym2E= 0 IDoP0=0 IntGTp=1.
 FoFCou: FMM=F IPFlag=           0 FMFlag=      100000 FMFlg1=           0
         NFxFlg=           0 DoJE=F BraDBF=F KetDBF=F FulRan=T
         wScrn=  0.000000 ICntrl=         0 IOpCl=  0 I1Cent=           0 NGrid=           0
         NMat0=    1 NMatS0=      1 NMatT0=    0 NMatD0=    1 NMtDS0=    0 NMtDT0=    0
 Symmetry not used in FoFCou.
 E= -233.408371492204    
 DIIS: error= 2.23D-02 at cycle   1 NSaved=   1.
 NSaved= 1 IEnMin= 1 EnMin= -233.408371492204     IErMin= 1 ErrMin= 2.23D-02
 ErrMax= 2.23D-02  0.00D+00 EMaxC= 1.00D-01 BMatC= 2.66D-01 BMatP= 2.66D-01
 IDIUse=3 WtCom= 7.77D-01 WtEn= 2.23D-01
 Coeff-Com:  0.100D+01
 Coeff-En:   0.100D+01
 Coeff:      0.100D+01
 Gap=     0.305 Goal=   None    Shift=    0.000
 GapD=    0.305 DampG=1.000 DampE=0.500 DampFc=0.5000 IDamp=-1.
 Damping current iteration by 5.00D-01
 RMSDP=3.79D-03 MaxDP=1.09D-01              OVMax= 1.59D-01

 Cycle   2  Pass 1  IDiag  1:
 RMSU=  1.82D-03    CP:  9.44D-01
 E= -233.518856738965     Delta-E=       -0.110485246760 Rises=F Damp=T
 DIIS: error= 4.88D-03 at cycle   2 NSaved=   2.
 NSaved= 2 IEnMin= 2 EnMin= -233.518856738965     IErMin= 2 ErrMin= 4.88D-03
 ErrMax= 4.88D-03  0.00D+00 EMaxC= 1.00D-01 BMatC= 1.49D-02 BMatP= 2.66D-01
 IDIUse=3 WtCom= 9.51D-01 WtEn= 4.88D-02
 Coeff-Com: -0.493D-01 0.105D+01
 Coeff-En:   0.000D+00 0.100D+01
 Coeff:     -0.469D-01 0.105D+01
 Gap=     0.394 Goal=   None    Shift=    0.000
 RMSDP=1.40D-03 MaxDP=3.76D-02 DE=-1.10D-01 OVMax= 8.38D-02

 Cycle   3  Pass 1  IDiag  1:
 RMSU=  1.27D-03    CP:  9.49D-01  6.75D-01
 E= -233.630471375102     Delta-E=       -0.111614636137 Rises=F Damp=F
 DIIS: error= 2.57D-03 at cycle   3 NSaved=   3.
 NSaved= 3 IEnMin= 3 EnMin= -233.630471375102     IErMin= 3 ErrMin= 2.57D-03
 ErrMax= 2.57D-03  0.00D+00 EMaxC= 1.00D-01 BMatC= 3.86D-03 BMatP= 1.49D-02
 IDIUse=3 WtCom= 9.74D-01 WtEn= 2.57D-02
 Coeff-Com: -0.666D-01 0.319D+00 0.748D+00
 Coeff-En:   0.000D+00 0.000D+00 0.100D+01
 Coeff:     -0.649D-01 0.311D+00 0.754D+00
 Gap=     0.359 Goal=   None    Shift=    0.000
 RMSDP=2.39D-04 MaxDP=1.04D-02 DE=-1.12D-01 OVMax= 1.41D-02

 Cycle   4  Pass 1  IDiag  1:
 RMSU=  2.07D-04    CP:  9.50D-01  7.39D-01  9.84D-01
 E= -233.632644236389     Delta-E=       -0.002172861287 Rises=F Damp=F
 DIIS: error= 1.05D-03 at cycle   4 NSaved=   4.
 NSaved= 4 IEnMin= 4 EnMin= -233.632644236389     IErMin= 4 ErrMin= 1.05D-03
 ErrMax= 1.05D-03  0.00D+00 EMaxC= 1.00D-01 BMatC= 7.83D-04 BMatP= 3.86D-03
 IDIUse=3 WtCom= 9.89D-01 WtEn= 1.05D-02
 Coeff-Com: -0.268D-01 0.751D-01 0.359D+00 0.593D+00
 Coeff-En:   0.000D+00 0.000D+00 0.886D-01 0.911D+00
 Coeff:     -0.265D-01 0.743D-01 0.356D+00 0.596D+00
 Gap=     0.360 Goal=   None    Shift=    0.000
 RMSDP=1.23D-04 MaxDP=7.23D-03 DE=-2.17D-03 OVMax= 4.67D-03

 Cycle   5  Pass 1  IDiag  1:
 RMSU=  6.66D-05    CP:  9.47D-01  7.21D-01  9.92D-01  5.59D-01
 E= -233.633222595903     Delta-E=       -0.000578359515 Rises=F Damp=F
 DIIS: error= 2.04D-04 at cycle   5 NSaved=   5.
 NSaved= 5 IEnMin= 5 EnMin= -233.633222595903     IErMin= 5 ErrMin= 2.04D-04
 ErrMax= 2.04D-04  0.00D+00 EMaxC= 1.00D-01 BMatC= 1.70D-05 BMatP= 7.83D-04
 IDIUse=3 WtCom= 9.98D-01 WtEn= 2.04D-03
 Coeff-Com: -0.391D-02 0.557D-02 0.618D-01 0.181D+00 0.756D+00
 Coeff-En:   0.000D+00 0.000D+00 0.000D+00 0.000D+00 0.100D+01
 Coeff:     -0.390D-02 0.556D-02 0.617D-01 0.181D+00 0.756D+00
 Gap=     0.360 Goal=   None    Shift=    0.000
 RMSDP=3.95D-05 MaxDP=3.17D-03 DE=-5.78D-04 OVMax= 8.16D-04

 Cycle   6  Pass 1  IDiag  1:
 RMSU=  2.34D-05    CP:  9.48D-01  7.12D-01  1.00D+00  6.44D-01  8.27D-01
 E= -233.633235637482     Delta-E=       -0.000013041579 Rises=F Damp=F
 DIIS: error= 4.86D-05 at cycle   6 NSaved=   6.
 NSaved= 6 IEnMin= 6 EnMin= -233.633235637482     IErMin= 6 ErrMin= 4.86D-05
 ErrMax= 4.86D-05  0.00D+00 EMaxC= 1.00D-01 BMatC= 9.46D-07 BMatP= 1.70D-05
 IDIUse=1 WtCom= 1.00D+00 WtEn= 0.00D+00
 Coeff-Com:  0.177D-03-0.184D-02 0.171D-02 0.298D-01 0.232D+00 0.739D+00
 Coeff:      0.177D-03-0.184D-02 0.171D-02 0.298D-01 0.232D+00 0.739D+00
 Gap=     0.360 Goal=   None    Shift=    0.000
 RMSDP=7.16D-06 MaxDP=3.73D-04 DE=-1.30D-05 OVMax= 2.25D-04

 Cycle   7  Pass 1  IDiag  1:
 RMSU=  4.05D-06    CP:  9.48D-01  7.10D-01  1.00D+00  6.49D-01  8.44D-01
                    CP:  1.12D+00
 E= -233.633236474497     Delta-E=       -0.000000837015 Rises=F Damp=F
 DIIS: error= 1.53D-05 at cycle   7 NSaved=   7.
 NSaved= 7 IEnMin= 7 EnMin= -233.633236474497     IErMin= 7 ErrMin= 1.53D-05
 ErrMax= 1.53D-05  0.00D+00 EMaxC= 1.00D-01 BMatC= 1.05D-07 BMatP= 9.46D-07
 IDIUse=1 WtCom= 1.00D+00 WtEn= 0.00D+00
 Coeff-Com:  0.636D-03-0.144D-02-0.840D-02-0.149D-01-0.265D-01 0.239D+00
 Coeff-Com:  0.812D+00
 Coeff:      0.636D-03-0.144D-02-0.840D-02-0.149D-01-0.265D-01 0.239D+00
 Coeff:      0.812D+00
 Gap=     0.360 Goal=   None    Shift=    0.000
 RMSDP=4.13D-06 MaxDP=3.16D-04 DE=-8.37D-07 OVMax= 7.84D-05

 Cycle   8  Pass 1  IDiag  1:
 RMSU=  1.09D-06    CP:  9.48D-01  7.09D-01  1.01D+00  6.54D-01  8.34D-01
                    CP:  1.22D+00  1.09D+00
 E= -233.633236580434     Delta-E=       -0.000000105937 Rises=F Damp=F
 DIIS: error= 2.09D-06 at cycle   8 NSaved=   8.
 NSaved= 8 IEnMin= 8 EnMin= -233.633236580434     IErMin= 8 ErrMin= 2.09D-06
 ErrMax= 2.09D-06  0.00D+00 EMaxC= 1.00D-01 BMatC= 1.96D-09 BMatP= 1.05D-07
 IDIUse=1 WtCom= 1.00D+00 WtEn= 0.00D+00
 Coeff-Com:  0.105D-03-0.213D-03-0.168D-02-0.390D-02-0.127D-01 0.230D-01
 Coeff-Com:  0.164D+00 0.831D+00
 Coeff:      0.105D-03-0.213D-03-0.168D-02-0.390D-02-0.127D-01 0.230D-01
 Coeff:      0.164D+00 0.831D+00
 Gap=     0.360 Goal=   None    Shift=    0.000
 RMSDP=6.06D-07 MaxDP=3.26D-05 DE=-1.06D-07 OVMax= 1.12D-05

 Cycle   9  Pass 1  IDiag  1:
 RMSU=  2.86D-07    CP:  9.48D-01  7.08D-01  1.01D+00  6.54D-01  8.32D-01
                    CP:  1.23D+00  1.15D+00  1.10D+00
 E= -233.633236582484     Delta-E=       -0.000000002049 Rises=F Damp=F
 DIIS: error= 4.88D-07 at cycle   9 NSaved=   9.
 NSaved= 9 IEnMin= 9 EnMin= -233.633236582484     IErMin= 9 ErrMin= 4.88D-07
 ErrMax= 4.88D-07  0.00D+00 EMaxC= 1.00D-01 BMatC= 9.37D-11 BMatP= 1.96D-09
 IDIUse=1 WtCom= 1.00D+00 WtEn= 0.00D+00
 Coeff-Com: -0.129D-04 0.291D-04 0.656D-04-0.373D-04-0.107D-02-0.521D-02
 Coeff-Com: -0.730D-02 0.144D+00 0.869D+00
 Coeff:     -0.129D-04 0.291D-04 0.656D-04-0.373D-04-0.107D-02-0.521D-02
 Coeff:     -0.730D-02 0.144D+00 0.869D+00
 Gap=     0.360 Goal=   None    Shift=    0.000
 RMSDP=1.11D-07 MaxDP=7.13D-06 DE=-2.05D-09 OVMax= 2.75D-06

 Cycle  10  Pass 1  IDiag  1:
 RMSU=  5.20D-08    CP:  9.48D-01  7.08D-01  1.01D+00  6.55D-01  8.31D-01
                    CP:  1.23D+00  1.16D+00  1.15D+00  9.96D-01
 E= -233.633236582581     Delta-E=       -0.000000000097 Rises=F Damp=F
 DIIS: error= 1.64D-07 at cycle  10 NSaved=  10.
 NSaved=10 IEnMin=10 EnMin= -233.633236582581     IErMin=10 ErrMin= 1.64D-07
 ErrMax= 1.64D-07  0.00D+00 EMaxC= 1.00D-01 BMatC= 1.10D-11 BMatP= 9.37D-11
 IDIUse=1 WtCom= 1.00D+00 WtEn= 0.00D+00
 Coeff-Com: -0.784D-05 0.171D-04 0.868D-04 0.140D-03 0.168D-03-0.242D-02
 Coeff-Com: -0.921D-02 0.791D-02 0.284D+00 0.719D+00
 Coeff:     -0.784D-05 0.171D-04 0.868D-04 0.140D-03 0.168D-03-0.242D-02
 Coeff:     -0.921D-02 0.791D-02 0.284D+00 0.719D+00
 Gap=     0.360 Goal=   None    Shift=    0.000
 RMSDP=2.28D-08 MaxDP=8.01D-07 DE=-9.75D-11 OVMax= 7.59D-07

 Cycle  11  Pass 1  IDiag  1:
 RMSU=  1.51D-08    CP:  9.48D-01  7.08D-01  1.01D+00  6.55D-01  8.31D-01
                    CP:  1.23D+00  1.16D+00  1.15D+00  1.03D+00  9.91D-01
 E= -233.633236582592     Delta-E=       -0.000000000010 Rises=F Damp=F
 DIIS: error= 5.37D-08 at cycle  11 NSaved=  11.
 NSaved=11 IEnMin=11 EnMin= -233.633236582592     IErMin=11 ErrMin= 5.37D-08
 ErrMax= 5.37D-08  0.00D+00 EMaxC= 1.00D-01 BMatC= 9.97D-13 BMatP= 1.10D-11
 IDIUse=1 WtCom= 1.00D+00 WtEn= 0.00D+00
 Coeff-Com: -0.106D-05 0.261D-05 0.202D-04 0.378D-04 0.909D-04-0.350D-03
 Coeff-Com: -0.224D-02-0.946D-02 0.193D-01 0.234D+00 0.759D+00
 Coeff:     -0.106D-05 0.261D-05 0.202D-04 0.378D-04 0.909D-04-0.350D-03
 Coeff:     -0.224D-02-0.946D-02 0.193D-01 0.234D+00 0.759D+00
 Gap=     0.360 Goal=   None    Shift=    0.000
 RMSDP=8.77D-09 MaxDP=3.12D-07 DE=-1.05D-11 OVMax= 2.86D-07

 SCF Done:  E(RM062X) =  -233.633236583     A.U. after   11 cycles
            NFock= 11  Conv=0.88D-08     -V/T= 2.0040
 KE= 2.327040942671D+02 PE=-9.220670389738D+02 EE= 2.669767063992D+02
 Leave Link  502 at Tue Apr 23 21:47:29 2019, MaxMem=   671088640 cpu:             778.1 elap:              39.0
 (Enter /shared/centos7/gaussian/g16/l801.exe)
 DoSCS=F DFT=T ScalE2(SS,OS)=  1.000000  1.000000
 Range of M.O.s used for correlation:     1   260
 NBasis=   260 NAE=    21 NBE=    21 NFC=     0 NFV=     0
 NROrb=    260 NOA=    21 NOB=    21 NVA=   239 NVB=   239

 **** Warning!!: The largest alpha MO coefficient is  0.53720724D+02

 Leave Link  801 at Tue Apr 23 21:47:29 2019, MaxMem=   671088640 cpu:               0.6 elap:               0.1
 (Enter /shared/centos7/gaussian/g16/l1101.exe)
 Using compressed storage, NAtomX=    15.
 Will process     16 centers per pass.
 Leave Link 1101 at Tue Apr 23 21:47:30 2019, MaxMem=   671088640 cpu:               9.6 elap:               0.5
 (Enter /shared/centos7/gaussian/g16/l1102.exe)
 Symmetrizing basis deriv contribution to polar:
 IMax=3 JMax=2 DiffMx= 0.00D+00
 Leave Link 1102 at Tue Apr 23 21:47:30 2019, MaxMem=   671088640 cpu:               0.7 elap:               0.1
 (Enter /shared/centos7/gaussian/g16/l1110.exe)
 Forming Gx(P) for the SCF density, NAtomX=    15.
 Integral derivatives from FoFJK, PRISM(SPDF).
 Do as many integral derivatives as possible in FoFJK.
 G2DrvN: MDV=     671087424.
 G2DrvN: will do    16 centers at a time, making    1 passes.
 Calling FoFCou, ICntrl=  3107 FMM=F I1Cent=   0 AccDes= 0.00D+00.
 FoFJK:  IHMeth= 1 ICntrl=    3107 DoSepK=F KAlg= 0 I1Cent=           0 FoldK=F
 IRaf=         0 NMat=       1 IRICut=       1 DoRegI=T DoRafI=F ISym2E= 0 IDoP0=0 IntGTp=1.
 FoFCou: FMM=F IPFlag=           0 FMFlag=      100000 FMFlg1=           0
         NFxFlg=           0 DoJE=F BraDBF=F KetDBF=F FulRan=T
         wScrn=  0.000000 ICntrl=      3107 IOpCl=  0 I1Cent=           0 NGrid=           0
         NMat0=    1 NMatS0=      1 NMatT0=    0 NMatD0=    1 NMtDS0=    0 NMtDT0=    0
 Symmetry not used in FoFCou.
 End of G2Drv F.D. properties file   721 does not exist.
 End of G2Drv F.D. properties file   722 does not exist.
 End of G2Drv F.D. properties file   788 does not exist.
 Leave Link 1110 at Tue Apr 23 21:49:02 2019, MaxMem=   671088640 cpu:            1847.0 elap:              92.4
 (Enter /shared/centos7/gaussian/g16/l1002.exe)
 Minotr:  Closed shell wavefunction.
          IDoAtm=111111111111111
          Direct CPHF calculation.
          Differentiating once with respect to nuclear coordinates.
          Requested convergence is 1.0D-08 RMS, and 1.0D-07 maximum.
          Secondary convergence is 1.0D-12 RMS, and 1.0D-12 maximum.
          NewPWx=T KeepS1=F KeepF1=F KeepIn=T MapXYZ=F SortEE=F KeepMc=T.
         4569 words used for storage of precomputed grid.
 Keep R1 ints in memory in canonical form, NReq=597923371.
 FoFCou: FMM=F IPFlag=           0 FMFlag=           0 FMFlg1=           0
         NFxFlg=           0 DoJE=F BraDBF=F KetDBF=F FulRan=T
         wScrn=  0.000000 ICntrl=       600 IOpCl=  0 I1Cent=           0 NGrid=           0
         NMat0=    1 NMatS0=  33930 NMatT0=    0 NMatD0=    1 NMtDS0=    0 NMtDT0=    0
 Symmetry not used in FoFCou.
 Two-electron integral symmetry not used.
          MDV=     671088640 using IRadAn=       1.
          Solving linear equations simultaneously, MaxMat=       0.
          There are    48 degrees of freedom in the 1st order CPHF.  IDoFFX=6 NUNeed=     0.
     42 vectors produced by pass  0 Test12= 1.05D-14 2.08D-09 XBig12= 6.42D-02 4.26D-02.
 AX will form    42 AO Fock derivatives at one time.
     42 vectors produced by pass  1 Test12= 1.05D-14 2.08D-09 XBig12= 5.95D-03 1.20D-02.
     42 vectors produced by pass  2 Test12= 1.05D-14 2.08D-09 XBig12= 2.69D-04 2.94D-03.
     42 vectors produced by pass  3 Test12= 1.05D-14 2.08D-09 XBig12= 3.07D-06 3.03D-04.
     42 vectors produced by pass  4 Test12= 1.05D-14 2.08D-09 XBig12= 1.65D-08 1.48D-05.
     42 vectors produced by pass  5 Test12= 1.05D-14 2.08D-09 XBig12= 9.32D-11 9.01D-07.
     17 vectors produced by pass  6 Test12= 1.05D-14 2.08D-09 XBig12= 3.58D-13 6.52D-08.
      1 vectors produced by pass  7 Test12= 1.05D-14 2.08D-09 XBig12= 1.18D-15 3.24D-09.
 InvSVY:  IOpt=1 It=  1 EMax= 2.00D-15
 Solved reduced A of dimension   270 with    42 vectors.
 End of Minotr F.D. properties file   721 does not exist.
 End of Minotr F.D. properties file   722 does not exist.
 End of Minotr F.D. properties file   788 does not exist.
 Leave Link 1002 at Tue Apr 23 21:50:40 2019, MaxMem=   671088640 cpu:            1929.7 elap:              97.9
 (Enter /shared/centos7/gaussian/g16/l601.exe)
 Copying SCF densities to generalized density rwf, IOpCl= 0 IROHF=0.

 **********************************************************************

            Population analysis using the SCF density.

 **********************************************************************

 Orbital symmetries:
       Occupied  (A) (A) (A) (A) (A) (A) (A) (A) (A) (A) (A) (A)
                 (A) (A) (A) (A) (A) (A) (A) (A) (A)
       Virtual   (A) (A) (A) (A) (A) (A) (A) (A) (A) (A) (A) (A)
                 (A) (A) (A) (A) (A) (A) (A) (A) (A) (A) (A) (A)
                 (A) (A) (A) (A) (A) (A) (A) (A) (A) (A) (A) (A)
                 (A) (A) (A) (A) (A) (A) (A) (A) (A) (A) (A) (A)
                 (A) (A) (A) (A) (A) (A) (A) (A) (A) (A) (A) (A)
                 (A) (A) (A) (A) (A) (A) (A) (A) (A) (A) (A) (A)
                 (A) (A) (A) (A) (A) (A) (A) (A) (A) (A) (A) (A)
                 (A) (A) (A) (A) (A) (A) (A) (A) (A) (A) (A) (A)
                 (A) (A) (A) (A) (A) (A) (A) (A) (A) (A) (A) (A)
                 (A) (A) (A) (A) (A) (A) (A) (A) (A) (A) (A) (A)
                 (A) (A) (A) (A) (A) (A) (A) (A) (A) (A) (A) (A)
                 (A) (A) (A) (A) (A) (A) (A) (A) (A) (A) (A) (A)
                 (A) (A) (A) (A) (A) (A) (A) (A) (A) (A) (A) (A)
                 (A) (A) (A) (A) (A) (A) (A) (A) (A) (A) (A) (A)
                 (A) (A) (A) (A) (A) (A) (A) (A) (A) (A) (A) (A)
                 (A) (A) (A) (A) (A) (A) (A) (A) (A) (A) (A) (A)
                 (A) (A) (A) (A) (A) (A) (A) (A) (A) (A) (A) (A)
                 (A) (A) (A) (A) (A) (A) (A) (A) (A) (A) (A) (A)
                 (A) (A) (A) (A) (A) (A) (A) (A) (A) (A) (A) (A)
                 (A) (A) (A) (A) (A) (A) (A) (A) (A) (A) (A)
 The electronic state is 1-A.
 Alpha  occ. eigenvalues --  -19.61954 -10.57863 -10.52543 -10.52137 -10.51630
 Alpha  occ. eigenvalues --   -1.14353  -0.89185  -0.81399  -0.71335  -0.65698
 Alpha  occ. eigenvalues --   -0.59980  -0.53701  -0.51384  -0.50073  -0.45568
 Alpha  occ. eigenvalues --   -0.44161  -0.42681  -0.39545  -0.38468  -0.37871
 Alpha  occ. eigenvalues --   -0.34703
 Alpha virt. eigenvalues --    0.01274   0.02685   0.03452   0.03992   0.05675
 Alpha virt. eigenvalues --    0.06156   0.06632   0.08094   0.08657   0.09167
 Alpha virt. eigenvalues --    0.10243   0.10964   0.13183   0.15202   0.16368
 Alpha virt. eigenvalues --    0.17754   0.18636   0.19795   0.21053   0.21179
 Alpha virt. eigenvalues --    0.22301   0.23120   0.23799   0.25008   0.25955
 Alpha virt. eigenvalues --    0.26989   0.27646   0.28554   0.29207   0.30370
 Alpha virt. eigenvalues --    0.31131   0.31735   0.34216   0.37551   0.42445
 Alpha virt. eigenvalues --    0.43297   0.45421   0.46202   0.47549   0.49587
 Alpha virt. eigenvalues --    0.52716   0.53555   0.55065   0.56331   0.57323
 Alpha virt. eigenvalues --    0.58051   0.59183   0.60465   0.61775   0.62711
 Alpha virt. eigenvalues --    0.63212   0.64875   0.65146   0.66075   0.68246
 Alpha virt. eigenvalues --    0.69636   0.70416   0.72205   0.74835   0.78522
 Alpha virt. eigenvalues --    0.80960   0.82300   0.83571   0.85632   0.88092
 Alpha virt. eigenvalues --    0.88922   0.92745   0.94397   0.96355   1.01271
 Alpha virt. eigenvalues --    1.04455   1.04779   1.06577   1.10186   1.12045
 Alpha virt. eigenvalues --    1.13354   1.14065   1.17252   1.18215   1.18948
 Alpha virt. eigenvalues --    1.19442   1.20806   1.22243   1.24424   1.25509
 Alpha virt. eigenvalues --    1.26661   1.27744   1.29773   1.31104   1.32215
 Alpha virt. eigenvalues --    1.35994   1.37883   1.39782   1.40988   1.42282
 Alpha virt. eigenvalues --    1.44007   1.44927   1.46299   1.47183   1.48828
 Alpha virt. eigenvalues --    1.49347   1.54062   1.54931   1.56657   1.58576
 Alpha virt. eigenvalues --    1.60209   1.61857   1.63029   1.64297   1.65864
 Alpha virt. eigenvalues --    1.68972   1.69962   1.74423   1.85141   1.91328
 Alpha virt. eigenvalues --    2.09845   2.13040   2.27766   2.35048   2.41341
 Alpha virt. eigenvalues --    2.47819   2.50426   2.51997   2.55981   2.58026
 Alpha virt. eigenvalues --    2.63274   2.67319   2.75832   2.76971   2.79092
 Alpha virt. eigenvalues --    2.81363   2.84172   2.85751   2.89573   2.91533
 Alpha virt. eigenvalues --    2.94321   2.95906   2.99489   3.04365   3.04540
 Alpha virt. eigenvalues --    3.09339   3.14334   3.15425   3.16714   3.17898
 Alpha virt. eigenvalues --    3.22628   3.24142   3.26570   3.27877   3.32359
 Alpha virt. eigenvalues --    3.35159   3.36083   3.38984   3.39178   3.40354
 Alpha virt. eigenvalues --    3.45556   3.46836   3.52665   3.54033   3.56893
 Alpha virt. eigenvalues --    3.58846   3.59784   3.61622   3.62904   3.66201
 Alpha virt. eigenvalues --    3.70609   3.70881   3.72337   3.76061   3.78030
 Alpha virt. eigenvalues --    3.79666   3.84663   3.87976   3.89139   3.92669
 Alpha virt. eigenvalues --    3.97129   3.99285   4.01222   4.02393   4.03135
 Alpha virt. eigenvalues --    4.04989   4.08509   4.09827   4.14734   4.15718
 Alpha virt. eigenvalues --    4.19460   4.21040   4.23116   4.24524   4.25931
 Alpha virt. eigenvalues --    4.28396   4.30016   4.32082   4.33138   4.36585
 Alpha virt. eigenvalues --    4.39776   4.44013   4.44668   4.48113   4.53435
 Alpha virt. eigenvalues --    4.53895   4.56102   4.57388   4.60570   4.63910
 Alpha virt. eigenvalues --    4.65806   4.68273   4.79831   4.80778   5.02490
 Alpha virt. eigenvalues --    5.20081   5.21329   5.23310   5.28015   5.36286
 Alpha virt. eigenvalues --    5.41984   5.47050   5.49683   5.53871   5.54634
 Alpha virt. eigenvalues --    5.59707   5.60262   5.65811   5.67627   5.70065
 Alpha virt. eigenvalues --    5.84826   5.94507   6.49647   6.98558   7.17293
 Alpha virt. eigenvalues --    7.21313   7.24418   7.55764   7.65315  24.28233
 Alpha virt. eigenvalues --   24.39451  24.44801  24.51533  50.15261
          Condensed to atoms (all electrons):
               1          2          3          4          5          6
     1  O    8.154740  -0.082956  -0.003155   0.152268  -0.000393  -0.001202
     2  C   -0.082956   5.714147  -0.220738  -0.006942   0.169115  -0.031103
     3  C   -0.003155  -0.220738   5.519408   0.160640   0.019554   0.428813
     4  C    0.152268  -0.006942   0.160640   5.255258  -0.108042  -0.014854
     5  C   -0.000393   0.169115   0.019554  -0.108042   5.293519  -0.029341
     6  H   -0.001202  -0.031103   0.428813  -0.014854  -0.029341   0.539046
     7  H   -0.006106  -0.062464   0.476627   0.011007  -0.057086  -0.034050
     8  H    0.008923   0.395653  -0.004752  -0.016050  -0.018191  -0.007516
     9  H   -0.009792   0.496855  -0.084552  -0.062201   0.007481   0.005177
    10  H   -0.049848   0.005792  -0.047026   0.433358   0.006479   0.002773
    11  H   -0.043777  -0.074522   0.023283   0.465258  -0.000642   0.000098
    12  H   -0.000285  -0.010330  -0.032722  -0.003552   0.420489   0.006228
    13  H    0.000093   0.020713  -0.048027   0.002472   0.409588  -0.004589
    14  H   -0.000107  -0.031963   0.006830   0.003037   0.393385  -0.008284
    15  H    0.231117  -0.030466   0.008438   0.027489  -0.001817  -0.000103
               7          8          9         10         11         12
     1  O   -0.006106   0.008923  -0.009792  -0.049848  -0.043777  -0.000285
     2  C   -0.062464   0.395653   0.496855   0.005792  -0.074522  -0.010330
     3  C    0.476627  -0.004752  -0.084552  -0.047026   0.023283  -0.032722
     4  C    0.011007  -0.016050  -0.062201   0.433358   0.465258  -0.003552
     5  C   -0.057086  -0.018191   0.007481   0.006479  -0.000642   0.420489
     6  H   -0.034050  -0.007516   0.005177   0.002773   0.000098   0.006228
     7  H    0.494748   0.004370  -0.003511   0.001202  -0.000808  -0.006809
     8  H    0.004370   0.518148  -0.028880  -0.005022  -0.003309  -0.000579
     9  H   -0.003511  -0.028880   0.489904   0.006026  -0.006733   0.001345
    10  H    0.001202  -0.005022   0.006026   0.561165  -0.046489  -0.000014
    11  H   -0.000808  -0.003309  -0.006733  -0.046489   0.556405  -0.000004
    12  H   -0.006809  -0.000579   0.001345  -0.000014  -0.000004   0.551055
    13  H   -0.004633  -0.000009  -0.000089  -0.000024   0.000015  -0.024342
    14  H    0.006008   0.002525  -0.000432  -0.000014  -0.000039  -0.038813
    15  H   -0.000015  -0.000280   0.000233  -0.006998  -0.005089  -0.000003
              13         14         15
     1  O    0.000093  -0.000107   0.231117
     2  C    0.020713  -0.031963  -0.030466
     3  C   -0.048027   0.006830   0.008438
     4  C    0.002472   0.003037   0.027489
     5  C    0.409588   0.393385  -0.001817
     6  H   -0.004589  -0.008284  -0.000103
     7  H   -0.004633   0.006008  -0.000015
     8  H   -0.000009   0.002525  -0.000280
     9  H   -0.000089  -0.000432   0.000233
    10  H   -0.000024  -0.000014  -0.006998
    11  H    0.000015  -0.000039  -0.005089
    12  H   -0.024342  -0.038813  -0.000003
    13  H    0.540374  -0.025623  -0.000001
    14  H   -0.025623   0.561282   0.000004
    15  H   -0.000001   0.000004   0.525492
 Mulliken charges:
               1
     1  O   -0.349522
     2  C   -0.250792
     3  C   -0.202621
     4  C   -0.299146
     5  C   -0.504098
     6  H    0.148906
     7  H    0.181520
     8  H    0.154969
     9  H    0.189170
    10  H    0.138640
    11  H    0.136354
    12  H    0.138339
    13  H    0.134081
    14  H    0.132202
    15  H    0.251998
 Sum of Mulliken charges =  -0.00000
 Mulliken charges with hydrogens summed into heavy atoms:
               1
     1  O   -0.097524
     2  C    0.093347
     3  C    0.127805
     4  C   -0.024152
     5  C   -0.099475
 APT charges:
               1
     1  O   -0.867115
     2  C   -0.634326
     3  C   -0.567793
     4  C   -0.801210
     5  C   -1.292583
     6  H    0.344212
     7  H    0.320679
     8  H    0.387352
     9  H    0.353227
    10  H    0.340565
    11  H    0.468703
    12  H    0.328047
    13  H    0.504941
    14  H    0.372791
    15  H    0.742510
 Sum of APT charges =  -0.00000
 APT charges with hydrogens summed into heavy atoms:
               1
     1  O   -0.124605
     2  C    0.106253
     3  C    0.097099
     4  C    0.008058
     5  C   -0.086805
 Electronic spatial extent (au):  <R**2>=            597.8674
 Charge=             -0.0000 electrons
 Dipole moment (field-independent basis, Debye):
    X=              0.8779    Y=              0.9001    Z=              0.8864  Tot=              1.5384
 Quadrupole moment (field-independent basis, Debye-Ang):
   XX=            -28.9053   YY=            -34.0755   ZZ=            -33.9862
   XY=              0.4382   XZ=              1.8047   YZ=             -0.5449
 Traceless Quadrupole moment (field-independent basis, Debye-Ang):
   XX=              3.4170   YY=             -1.7532   ZZ=             -1.6638
   XY=              0.4382   XZ=              1.8047   YZ=             -0.5449
 Octapole moment (field-independent basis, Debye-Ang**2):
  XXX=             34.0101  YYY=             -2.0652  ZZZ=             -0.4023  XYY=              3.1561
  XXY=             -5.2688  XXZ=              4.4591  XZZ=              1.9380  YZZ=             -0.4963
  YYZ=              0.4615  XYZ=             -1.7679
 Hexadecapole moment (field-independent basis, Debye-Ang**3):
 XXXX=           -526.0763 YYYY=           -124.4632 ZZZZ=            -76.6172 XXXY=            -23.5456
 XXXZ=              4.0162 YYYX=             -6.9021 YYYZ=              1.1684 ZZZX=              1.5948
 ZZZY=              0.2675 XXYY=           -112.5992 XXZZ=           -115.4975 YYZZ=            -36.0698
 XXYZ=             -3.8718 YYXZ=             -1.5399 ZZXY=             -0.5554
 N-N= 1.887530017249D+02 E-N=-9.220670430020D+02  KE= 2.327040942671D+02
  Exact polarizability:   0.000   0.000   0.000   0.000   0.000   0.000
 Approx polarizability:  62.751  -0.711  61.608   0.669   0.331  60.827
 No NMR shielding tensors so no spin-rotation constants.
 Leave Link  601 at Tue Apr 23 21:50:40 2019, MaxMem=   671088640 cpu:               6.9 elap:               0.4
 (Enter /shared/centos7/gaussian/g16/l701.exe)
 ... and contract with generalized density number  0.
 Compute integral second derivatives.
 Leave Link  701 at Tue Apr 23 21:50:41 2019, MaxMem=   671088640 cpu:               9.2 elap:               0.5
 (Enter /shared/centos7/gaussian/g16/l702.exe)
 L702 exits ... SP integral derivatives will be done elsewhere.
 Leave Link  702 at Tue Apr 23 21:50:41 2019, MaxMem=   671088640 cpu:               0.5 elap:               0.1
 (Enter /shared/centos7/gaussian/g16/l703.exe)
 Integral derivatives from FoFJK, PRISM(SPDF).
 Compute integral second derivatives, UseDBF=F ICtDFT=           0.
 Calling FoFJK, ICntrl=    100147 FMM=F ISym2X=0 I1Cent= 0 IOpClX= 0 NMat=1 NMatS=1 NMatT=0.
 FoFJK:  IHMeth= 1 ICntrl=  100147 DoSepK=F KAlg= 0 I1Cent=           0 FoldK=F
 IRaf=         0 NMat=       1 IRICut=       1 DoRegI=T DoRafI=F ISym2E= 0 IDoP0=0 IntGTp=1.
 FoFCou: FMM=F IPFlag=           0 FMFlag=      100000 FMFlg1=         800
         NFxFlg=           0 DoJE=F BraDBF=F KetDBF=F FulRan=T
         wScrn=  0.000000 ICntrl=    100147 IOpCl=  0 I1Cent=           0 NGrid=           0
         NMat0=    1 NMatS0=      1 NMatT0=    0 NMatD0=    1 NMtDS0=    0 NMtDT0=    0
 Symmetry not used in FoFCou.
 Leave Link  703 at Tue Apr 23 21:52:46 2019, MaxMem=   671088640 cpu:            2500.3 elap:             125.1
 (Enter /shared/centos7/gaussian/g16/l716.exe)
 Dipole        = 3.45409351D-01 3.54144115D-01 3.48718648D-01
 Polarizability= 0.00000000D+00 0.00000000D+00 0.00000000D+00
                 0.00000000D+00 0.00000000D+00 0.00000000D+00
 ***** Axes restored to original set *****
 -------------------------------------------------------------------
 Center     Atomic                   Forces (Hartrees/Bohr)
 Number     Number              X              Y              Z
 -------------------------------------------------------------------
      1        8           0.000000367    0.000000254    0.000000734
      2        6           0.000000058    0.000000244    0.000000587
      3        6          -0.000000156   -0.000000183   -0.000000601
      4        6          -0.000000174   -0.000000081    0.000001238
      5        6           0.000000077    0.000000056   -0.000001302
      6        1          -0.000000772   -0.000000873   -0.000000657
      7        1           0.000000043   -0.000000042   -0.000001069
      8        1          -0.000000081   -0.000000023    0.000000920
      9        1           0.000000751    0.000000833    0.000000429
     10        1          -0.000000723   -0.000000708    0.000001190
     11        1           0.000000090    0.000000197    0.000002034
     12        1           0.000000716    0.000000684   -0.000001445
     13        1          -0.000000092   -0.000000239   -0.000002187
     14        1          -0.000000078   -0.000000195   -0.000000971
     15        1          -0.000000027    0.000000074    0.000001098
 -------------------------------------------------------------------
 Cartesian Forces:  Max     0.000002187 RMS     0.000000772
 FormGI is forming the generalized inverse of G from B-inverse, IUseBI=4.
 Leave Link  716 at Tue Apr 23 21:52:46 2019, MaxMem=   671088640 cpu:               0.6 elap:               0.1
 (Enter /shared/centos7/gaussian/g16/l103.exe)

 GradGradGradGradGradGradGradGradGradGradGradGradGradGradGradGradGradGrad
 Berny optimization.
 Red2BG is reusing G-inverse.
 Internal  Forces:  Max     0.000000091 RMS     0.000000026
 Search for a local minimum.
 Step number   1 out of a maximum of   79 on scan point     1 out of    37
 All quantities printed in internal units (Hartrees-Bohrs-Radians)
 RMS Force = .26162D-07 SwitMx=.10000D-02 MixMth= 2
 Mixed Optimization -- En-DIIS/RFO-DIIS
 Second derivative matrix not updated -- analytic derivatives used.
 ITU=  0
     Eigenvalues ---    0.00186   0.00261   0.00349   0.03245   0.03703
     Eigenvalues ---    0.03805   0.03927   0.04311   0.04532   0.04552
     Eigenvalues ---    0.06011   0.06822   0.07207   0.08019   0.09719
     Eigenvalues ---    0.11959   0.12109   0.13025   0.13473   0.15705
     Eigenvalues ---    0.15841   0.18160   0.22223   0.24572   0.29295
     Eigenvalues ---    0.30449   0.32112   0.32267   0.32636   0.33175
     Eigenvalues ---    0.33359   0.33828   0.34074   0.34161   0.34512
     Eigenvalues ---    0.35028   0.39830   0.551921000.000001000.00000
     Eigenvalues --- 1000.000001000.000001000.000001000.000001000.00000
     Eigenvalues --- 1000.000001000.000001000.000001000.000001000.00000
     Eigenvalues --- 1000.000001000.000001000.000001000.000001000.00000
     Eigenvalues --- 1000.000001000.000001000.000001000.000001000.00000
     Eigenvalues --- 1000.000001000.000001000.000001000.000001000.00000
     Eigenvalues --- 1000.000001000.000001000.000001000.00000
 RFO step:  Lambda= 0.00000000D+00 EMin= 1.86018572D-03
 Linear search not attempted -- first point.
 Iteration  1 RMS(Cart)=  0.00000071 RMS(Int)=  0.00000000
 Iteration  1 RMS(Cart)=  0.00000000 RMS(Int)=  0.00000000
 ITry= 1 IFail=0 DXMaxC= 1.86D-06 DCOld= 1.00D+10 DXMaxT= 3.00D-01 DXLimC= 3.00D+00 Rises=F
 Variable       Old X    -DE/DX   Delta X   Delta X   Delta X     New X
                                 (Linear)    (Quad)   (Total)
    R1        2.68029   0.00000   0.00000   0.00000   0.00000   2.68029
    R2        1.81040  -0.00000   0.00000  -0.00000  -0.00000   1.81040
    R3        2.88096  -0.00000   0.00000  -0.00000  -0.00000   2.88096
    R4        2.86266   0.00000   0.00000   0.00000   0.00000   2.86266
    R5        2.06632  -0.00000   0.00000  -0.00000  -0.00000   2.06632
    R6        2.06594   0.00000   0.00000   0.00000   0.00000   2.06594
    R7        2.87973  -0.00000   0.00000  -0.00000  -0.00000   2.87973
    R8        2.06663  -0.00000   0.00000  -0.00000  -0.00000   2.06663
    R9        2.06049   0.00000   0.00000   0.00000   0.00000   2.06049
   R10        2.07160  -0.00000   0.00000  -0.00000  -0.00000   2.07160
   R11        2.06813   0.00000   0.00000   0.00000   0.00000   2.06813
   R12        2.06145   0.00000   0.00000   0.00000   0.00000   2.06145
   R13        2.05859  -0.00000   0.00000  -0.00000  -0.00000   2.05859
   R14        2.06211  -0.00000   0.00000  -0.00000  -0.00000   2.06211
    A1        1.91006   0.00000   0.00000   0.00000   0.00000   1.91007
    A2        1.97278  -0.00000   0.00000  -0.00000  -0.00000   1.97278
    A3        1.91700   0.00000   0.00000   0.00000   0.00000   1.91700
    A4        1.91452   0.00000   0.00000  -0.00000  -0.00000   1.91452
    A5        1.89494   0.00000   0.00000   0.00000   0.00000   1.89494
    A6        1.89374  -0.00000   0.00000  -0.00000  -0.00000   1.89374
    A7        1.86774  -0.00000   0.00000  -0.00000  -0.00000   1.86774
    A8        1.95823   0.00000   0.00000   0.00000   0.00000   1.95823
    A9        1.90307  -0.00000   0.00000   0.00000   0.00000   1.90307
   A10        1.90082  -0.00000   0.00000  -0.00000  -0.00000   1.90082
   A11        1.91626  -0.00000   0.00000   0.00000   0.00000   1.91626
   A12        1.92227  -0.00000   0.00000  -0.00000  -0.00000   1.92227
   A13        1.86048   0.00000   0.00000   0.00000   0.00000   1.86049
   A14        1.88660   0.00000   0.00000   0.00000   0.00000   1.88660
   A15        1.92769  -0.00000   0.00000  -0.00000  -0.00000   1.92769
   A16        1.92842  -0.00000   0.00000  -0.00000  -0.00000   1.92842
   A17        1.91437  -0.00000   0.00000  -0.00000  -0.00000   1.91437
   A18        1.92095  -0.00000   0.00000   0.00000   0.00000   1.92095
   A19        1.88601   0.00000   0.00000  -0.00000  -0.00000   1.88601
   A20        1.93295  -0.00000   0.00000  -0.00000  -0.00000   1.93295
   A21        1.94784  -0.00000   0.00000  -0.00000  -0.00000   1.94784
   A22        1.93748   0.00000   0.00000   0.00000   0.00000   1.93748
   A23        1.88196  -0.00000   0.00000  -0.00000  -0.00000   1.88196
   A24        1.87809   0.00000   0.00000   0.00000   0.00000   1.87809
   A25        1.88285   0.00000   0.00000   0.00000   0.00000   1.88285
    D1       -3.11895   0.00000   0.00000   0.00000   0.00000  -3.11895
    D2       -1.02451   0.00000   0.00000   0.00000   0.00000  -1.02451
    D3        1.06132  -0.00000   0.00000   0.00000  -0.00000   1.06132
    D4       -3.13147   0.00000   0.00000   0.00000   0.00000  -3.13147
    D5        1.02502   0.00000   0.00000   0.00000   0.00000   1.02502
    D6       -0.99873   0.00000   0.00000   0.00000   0.00000  -0.99873
    D7        1.03257   0.00000   0.00000   0.00000   0.00000   1.03258
    D8       -1.09412  -0.00000   0.00000   0.00000   0.00000  -1.09412
    D9       -3.11787  -0.00000   0.00000   0.00000   0.00000  -3.11787
   D10       -1.01565  -0.00000   0.00000   0.00000   0.00000  -1.01565
   D11        3.14084  -0.00000   0.00000   0.00000   0.00000   3.14084
   D12        1.11709  -0.00000   0.00000   0.00000   0.00000   1.11709
   D13        1.10273  -0.00000   0.00000  -0.00000  -0.00000   1.10273
   D14       -1.00006  -0.00000   0.00000  -0.00000  -0.00000  -1.00006
   D15       -3.07287  -0.00000   0.00000  -0.00000  -0.00000  -3.07287
   D16       -3.04891  -0.00000   0.00000  -0.00000  -0.00000  -3.04891
   D17        1.13148  -0.00000   0.00000  -0.00000  -0.00000   1.13148
   D18       -0.94133   0.00000   0.00000  -0.00000  -0.00000  -0.94133
   D19       -1.02480   0.00000   0.00000  -0.00000  -0.00000  -1.02481
   D20       -3.12760  -0.00000   0.00000  -0.00000  -0.00000  -3.12760
   D21        1.08278   0.00000   0.00000  -0.00000  -0.00000   1.08278
   D22        1.04847  -0.00000   0.00000  -0.00000  -0.00000   1.04847
   D23       -3.13783  -0.00000   0.00000  -0.00000  -0.00000  -3.13783
   D24       -1.03671  -0.00000   0.00000  -0.00000  -0.00000  -1.03672
   D25       -3.11556   0.00000   0.00000  -0.00000  -0.00000  -3.11556
   D26       -1.01868  -0.00000   0.00000  -0.00000  -0.00000  -1.01868
   D27        1.08244   0.00000   0.00000  -0.00000  -0.00000   1.08244
   D28       -1.07202   0.00000   0.00000  -0.00000  -0.00000  -1.07202
   D29        1.02486  -0.00000   0.00000  -0.00000  -0.00000   1.02486
   D30        3.12598   0.00000   0.00000  -0.00000  -0.00000   3.12598
         Item               Value     Threshold  Converged?
 Maximum Force            0.000000     0.000450     YES
 RMS     Force            0.000000     0.000300     YES
 Maximum Displacement     0.000002     0.001800     YES
 RMS     Displacement     0.000001     0.001200     YES
 Predicted change in Energy=-1.253712D-13
 Optimization completed.
    -- Stationary point found.
                           ----------------------------
                           !   Optimized Parameters   !
                           ! (Angstroms and Degrees)  !
 --------------------------                            --------------------------
 ! Name  Definition              Value          Derivative Info.                !
 --------------------------------------------------------------------------------
 ! R1    R(1,4)                  1.4183         -DE/DX =    0.0                 !
 ! R2    R(1,15)                 0.958          -DE/DX =    0.0                 !
 ! R3    R(2,3)                  1.5245         -DE/DX =    0.0                 !
 ! R4    R(2,4)                  1.5149         -DE/DX =    0.0                 !
 ! R5    R(2,8)                  1.0934         -DE/DX =    0.0                 !
 ! R6    R(2,9)                  1.0933         -DE/DX =    0.0                 !
 ! R7    R(3,5)                  1.5239         -DE/DX =    0.0                 !
 ! R8    R(3,6)                  1.0936         -DE/DX =    0.0                 !
 ! R9    R(3,7)                  1.0904         -DE/DX =    0.0                 !
 ! R10   R(4,10)                 1.0962         -DE/DX =    0.0                 !
 ! R11   R(4,11)                 1.0944         -DE/DX =    0.0                 !
 ! R12   R(5,12)                 1.0909         -DE/DX =    0.0                 !
 ! R13   R(5,13)                 1.0894         -DE/DX =    0.0                 !
 ! R14   R(5,14)                 1.0912         -DE/DX =    0.0                 !
 ! A1    A(4,1,15)             109.4386         -DE/DX =    0.0                 !
 ! A2    A(3,2,4)              113.032          -DE/DX =    0.0                 !
 ! A3    A(3,2,8)              109.8357         -DE/DX =    0.0                 !
 ! A4    A(3,2,9)              109.6941         -DE/DX =    0.0                 !
 ! A5    A(4,2,8)              108.5721         -DE/DX =    0.0                 !
 ! A6    A(4,2,9)              108.5032         -DE/DX =    0.0                 !
 ! A7    A(8,2,9)              107.0136         -DE/DX =    0.0                 !
 ! A8    A(2,3,5)              112.1981         -DE/DX =    0.0                 !
 ! A9    A(2,3,6)              109.038          -DE/DX =    0.0                 !
 ! A10   A(2,3,7)              108.9089         -DE/DX =    0.0                 !
 ! A11   A(5,3,6)              109.7935         -DE/DX =    0.0                 !
 ! A12   A(5,3,7)              110.1379         -DE/DX =    0.0                 !
 ! A13   A(6,3,7)              106.5979         -DE/DX =    0.0                 !
 ! A14   A(1,4,2)              108.0944         -DE/DX =    0.0                 !
 ! A15   A(1,4,10)             110.4487         -DE/DX =    0.0                 !
 ! A16   A(1,4,11)             110.4904         -DE/DX =    0.0                 !
 ! A17   A(2,4,10)             109.6852         -DE/DX =    0.0                 !
 ! A18   A(2,4,11)             110.0622         -DE/DX =    0.0                 !
 ! A19   A(10,4,11)            108.0607         -DE/DX =    0.0                 !
 ! A20   A(3,5,12)             110.7497         -DE/DX =    0.0                 !
 ! A21   A(3,5,13)             111.6028         -DE/DX =    0.0                 !
 ! A22   A(3,5,14)             111.0093         -DE/DX =    0.0                 !
 ! A23   A(12,5,13)            107.8282         -DE/DX =    0.0                 !
 ! A24   A(12,5,14)            107.6069         -DE/DX =    0.0                 !
 ! A25   A(13,5,14)            107.8796         -DE/DX =    0.0                 !
 ! D1    D(15,1,4,2)          -178.7026         -DE/DX =    0.0                 !
 ! D2    D(15,1,4,10)          -58.6998         -DE/DX =    0.0                 !
 ! D3    D(15,1,4,11)           60.8091         -DE/DX =    0.0                 !
 ! D4    D(4,2,3,5)           -179.4202         -DE/DX =    0.0                 !
 ! D5    D(4,2,3,6)             58.7291         -DE/DX =    0.0                 !
 ! D6    D(4,2,3,7)            -57.2233         -DE/DX =    0.0                 !
 ! D7    D(8,2,3,5)             59.1622         -DE/DX =    0.0                 !
 ! D8    D(8,2,3,6)            -62.6886         -DE/DX =    0.0                 !
 ! D9    D(8,2,3,7)           -178.6409         -DE/DX =    0.0                 !
 ! D10   D(9,2,3,5)            -58.1924         -DE/DX =    0.0                 !
 ! D11   D(9,2,3,6)            179.9569         -DE/DX =    0.0                 !
 ! D12   D(9,2,3,7)             64.0045         -DE/DX =    0.0                 !
 ! D13   D(3,2,4,1)             63.1821         -DE/DX =    0.0                 !
 ! D14   D(3,2,4,10)           -57.299          -DE/DX =    0.0                 !
 ! D15   D(3,2,4,11)          -176.0623         -DE/DX =    0.0                 !
 ! D16   D(8,2,4,1)           -174.6897         -DE/DX =    0.0                 !
 ! D17   D(8,2,4,10)            64.8292         -DE/DX =    0.0                 !
 ! D18   D(8,2,4,11)           -53.934          -DE/DX =    0.0                 !
 ! D19   D(9,2,4,1)            -58.717          -DE/DX =    0.0                 !
 ! D20   D(9,2,4,10)          -179.1981         -DE/DX =    0.0                 !
 ! D21   D(9,2,4,11)            62.0387         -DE/DX =    0.0                 !
 ! D22   D(2,3,5,12)            60.0729         -DE/DX =    0.0                 !
 ! D23   D(2,3,5,13)          -179.7843         -DE/DX =    0.0                 !
 ! D24   D(2,3,5,14)           -59.3994         -DE/DX =    0.0                 !
 ! D25   D(6,3,5,12)          -178.5087         -DE/DX =    0.0                 !
 ! D26   D(6,3,5,13)           -58.3658         -DE/DX =    0.0                 !
 ! D27   D(6,3,5,14)            62.0191         -DE/DX =    0.0                 !
 ! D28   D(7,3,5,12)           -61.4224         -DE/DX =    0.0                 !
 ! D29   D(7,3,5,13)            58.7204         -DE/DX =    0.0                 !
 ! D30   D(7,3,5,14)           179.1053         -DE/DX =    0.0                 !
 --------------------------------------------------------------------------------
 Lowest energy point so far.  Saving SCF results.
 Iteration  1 RMS(Cart)=  0.01504937 RMS(Int)=  0.01400241
 Iteration  2 RMS(Cart)=  0.00112228 RMS(Int)=  0.01399123
 Iteration  3 RMS(Cart)=  0.00005475 RMS(Int)=  0.01399121
 Iteration  4 RMS(Cart)=  0.00000289 RMS(Int)=  0.01399121
 Iteration  5 RMS(Cart)=  0.00000016 RMS(Int)=  0.01399121
 Iteration  1 RMS(Cart)=  0.00636889 RMS(Int)=  0.00630390
 Iteration  2 RMS(Cart)=  0.00280767 RMS(Int)=  0.00704979
 Iteration  3 RMS(Cart)=  0.00126527 RMS(Int)=  0.00779088
 Iteration  4 RMS(Cart)=  0.00057563 RMS(Int)=  0.00818929
 Iteration  5 RMS(Cart)=  0.00026299 RMS(Int)=  0.00838209
 Iteration  6 RMS(Cart)=  0.00012038 RMS(Int)=  0.00847242
 Iteration  7 RMS(Cart)=  0.00005515 RMS(Int)=  0.00851423
 Iteration  8 RMS(Cart)=  0.00002528 RMS(Int)=  0.00853347
 Iteration  9 RMS(Cart)=  0.00001159 RMS(Int)=  0.00854232
 Iteration 10 RMS(Cart)=  0.00000531 RMS(Int)=  0.00854637
 Iteration 11 RMS(Cart)=  0.00000244 RMS(Int)=  0.00854824
 Iteration 12 RMS(Cart)=  0.00000112 RMS(Int)=  0.00854909
 Iteration 13 RMS(Cart)=  0.00000051 RMS(Int)=  0.00854948
 GradGradGradGradGradGradGradGradGradGradGradGradGradGradGradGradGradGrad

 Leave Link  103 at Tue Apr 23 21:52:46 2019, MaxMem=   671088640 cpu:               1.0 elap:               0.1
 (Enter /shared/centos7/gaussian/g16/l202.exe)
                          Input orientation:                          
 ---------------------------------------------------------------------
 Center     Atomic      Atomic             Coordinates (Angstroms)
 Number     Number       Type             X           Y           Z
 ---------------------------------------------------------------------
      1          8           0        1.911481   -0.732068   -0.244112
      2          6           0       -0.010494    0.703614   -0.234917
      3          6           0       -0.955309   -0.342099    0.346493
      4          6           0        1.424983    0.519548    0.212641
      5          6           0       -2.390711   -0.147757   -0.126882
      6          1           0       -0.915303   -0.291342    1.438197
      7          1           0       -0.599104   -1.334170    0.067551
      8          1           0       -0.340459    1.704585    0.056300
      9          1           0       -0.041543    0.661643   -1.326921
     10          1           0        1.489372    0.544808    1.306707
     11          1           0        2.111467    1.304239   -0.120993
     12          1           0       -2.452698   -0.221785   -1.213472
     13          1           0       -3.057813   -0.897378    0.297082
     14          1           0       -2.767158    0.835782    0.158966
     15          1           0        2.834068   -0.823157   -0.001660
 ---------------------------------------------------------------------
                    Distance matrix (angstroms):
                    1          2          3          4          5
     1  O    0.000000
     2  C    2.399012   0.000000
     3  C    2.952859   1.524541   0.000000
     4  C    1.418396   1.514854   2.534983   0.000000
     5  C    4.343273   2.530204   1.523887   3.888456   0.000000
     6  H    3.318902   2.146609   1.093616   2.763417   2.155671
     7  H    2.600518   2.142548   1.090365   2.748499   2.157599
     8  H    3.331480   1.093448   2.156656   2.132027   2.769162
     9  H    2.632340   1.093251   2.154711   2.130996   2.759313
    10  H    2.052712   2.156716   2.772198   1.096250   4.194028
    11  H    2.049805   2.208269   3.511992   1.094674   4.730532
    12  H    4.499567   2.788958   2.165672   4.197592   1.090871
    13  H    5.001410   3.483152   2.175155   4.702156   1.089358
    14  H    4.950787   2.787796   2.169186   4.204394   1.091224
    15  H    0.958252   3.236816   3.835623   1.958138   5.269740
                    6          7          8          9         10
     6  H    0.000000
     7  H    1.751040   0.000000
     8  H    2.494757   3.049763   0.000000
     9  H    3.052461   2.497738   1.757947   0.000000
    10  H    2.549294   3.070472   2.501376   3.048500   0.000000
    11  H    3.760092   3.787340   2.490713   2.550029   1.732647
    12  H    3.065904   2.512813   3.128062   2.570405   4.741190
    13  H    2.501954   2.507733   3.769907   3.763750   4.876078
    14  H    2.517183   3.068796   2.579579   3.109206   4.418148
    15  H    4.051395   3.471685   4.058382   3.497155   2.321930
                   11         12         13         14         15
    11  H    0.000000
    12  H    4.934963   0.000000
    13  H    5.634125   1.761920   0.000000
    14  H    4.909055   1.760942   1.762781   0.000000
    15  H    2.249935   5.457108   5.899917   5.843939   0.000000
 Stoichiometry    C4H10O
 Framework group  C1[X(C4H10O)]
 Deg. of freedom    39
 Full point group                 C1      NOp   1
 RotChk:  IX=0 Diff= 1.79D-02
 Largest Abelian subgroup         C1      NOp   1
 Largest concise Abelian subgroup C1      NOp   1
                         Standard orientation:                         
 ---------------------------------------------------------------------
 Center     Atomic      Atomic             Coordinates (Angstroms)
 Number     Number       Type             X           Y           Z
 ---------------------------------------------------------------------
      1          8           0        1.912876   -0.729372   -0.247400
      2          6           0       -0.009825    0.705201   -0.225534
      3          6           0       -0.954497   -0.346576    0.345067
      4          6           0        1.425450    0.517509    0.221165
      5          6           0       -2.389685   -0.148357   -0.127348
      6          1           0       -0.915234   -0.306405    1.437239
      7          1           0       -0.597611   -1.335715    0.056739
      8          1           0       -0.340483    1.703133    0.075172
      9          1           0       -0.040135    0.673823   -1.317915
     10          1           0        1.489108    0.532173    1.315467
     11          1           0        2.111760    1.305742   -0.104378
     12          1           0       -2.450920   -0.211859   -1.214647
     13          1           0       -3.056689   -0.902390    0.288873
     14          1           0       -2.766813    0.832173    0.167788
     15          1           0        2.835349   -0.822355   -0.005233
 ---------------------------------------------------------------------
 Rotational constants (GHZ):          12.6914296           2.3778283           2.1929845
 Leave Link  202 at Tue Apr 23 21:52:46 2019, MaxMem=   671088640 cpu:               0.2 elap:               0.0
 (Enter /shared/centos7/gaussian/g16/l301.exe)
 Standard basis: 6-311+G(2df,2p) (5D, 7F)
 Ernie: Thresh=  0.10000D-02 Tol=  0.10000D-05 Strict=F.
 There are   285 symmetry adapted cartesian basis functions of A   symmetry.
 There are   260 symmetry adapted basis functions of A   symmetry.
   260 basis functions,   370 primitive gaussians,   285 cartesian basis functions
    21 alpha electrons       21 beta electrons
       nuclear repulsion energy       188.4242071766 Hartrees.
 IExCor= 4336 DFT=T Ex+Corr=M062X ExCW=0 ScaHFX=  0.540000
 ScaDFX=  1.000000  1.000000  1.000000  1.000000 ScalE2=  1.000000  1.000000
 IRadAn=      5 IRanWt=     -1 IRanGd=            0 ICorTp=0 IEmpDi=  4
 NAtoms=   15 NActive=   15 NUniq=   15 SFac= 1.00D+00 NAtFMM=   60 NAOKFM=F Big=F
 Integral buffers will be    131072 words long.
 Raffenetti 2 integral format.
 Two-electron integral symmetry is turned on.
 Leave Link  301 at Tue Apr 23 21:52:47 2019, MaxMem=   671088640 cpu:               1.3 elap:               0.1
 (Enter /shared/centos7/gaussian/g16/l302.exe)
 NPDir=0 NMtPBC=     1 NCelOv=     1 NCel=       1 NClECP=     1 NCelD=      1
         NCelK=      1 NCelE2=     1 NClLst=     1 CellRange=     0.0.
 One-electron integrals computed using PRISM.
 One-electron integral symmetry used in STVInt
 NBasis=   260 RedAO= T EigKep=  1.70D-05  NBF=   260
 NBsUse=   260 1.00D-06 EigRej= -1.00D+00 NBFU=   260
 Precomputing XC quadrature grid using
 IXCGrd= 4 IRadAn=           5 IRanWt=          -1 IRanGd=           0 AccXCQ= 0.00D+00.
 Generated NRdTot=       0 NPtTot=           0 NUsed=           0 NTot=          32
 NSgBfM=   285   285   285   285   285 MxSgAt=    15 MxSgA2=    15.
 Leave Link  302 at Tue Apr 23 21:52:47 2019, MaxMem=   671088640 cpu:               8.1 elap:               0.4
 (Enter /shared/centos7/gaussian/g16/l303.exe)
 DipDrv:  MaxL=1.
 Leave Link  303 at Tue Apr 23 21:52:47 2019, MaxMem=   671088640 cpu:               1.2 elap:               0.1
 (Enter /shared/centos7/gaussian/g16/l401.exe)
 Initial guess from the checkpoint file:  "/scratch/underkoffler.c/gaussian_scratch/Gau-13886.chk"
 B after Tr=    -0.000000    0.000000    0.000000
         Rot=    0.999995   -0.002921    0.000048   -0.000944 Ang=  -0.35 deg.
 Guess basis will be translated and rotated to current coordinates.
 JPrj=2 DoOrth=T DoCkMO=T.
 Generating alternative initial guess.
 ExpMin= 4.38D-02 ExpMax= 8.59D+03 ExpMxC= 1.30D+03 IAcc=2 IRadAn=         4 AccDes= 0.00D+00
 Harris functional with IExCor= 1009 and IRadAn=       4 diagonalized for initial guess.
 HarFok:  IExCor= 1009 AccDes= 0.00D+00 IRadAn=         4 IDoV= 1 UseB2=F ITyADJ=14
 ICtDFT=  3500011 ScaDFX=  1.000000  1.000000  1.000000  1.000000
 FoFCou: FMM=F IPFlag=           0 FMFlag=      100000 FMFlg1=           0
         NFxFlg=           0 DoJE=T BraDBF=F KetDBF=T FulRan=T
         wScrn=  0.000000 ICntrl=       500 IOpCl=  0 I1Cent=   200000004 NGrid=           0
         NMat0=    1 NMatS0=      1 NMatT0=    0 NMatD0=    1 NMtDS0=    0 NMtDT0=    0
 Petite list used in FoFCou.
 Harris En= -233.601561053095    
 Leave Link  401 at Tue Apr 23 21:52:48 2019, MaxMem=   671088640 cpu:              21.1 elap:               1.1
 (Enter /shared/centos7/gaussian/g16/l502.exe)
 Integral symmetry usage will be decided dynamically.
 Closed shell SCF:
 Using DIIS extrapolation, IDIIS=  1040.
 NGot=   671088640 LenX=   670917793 LenY=   670836127
 Requested convergence on RMS density matrix=1.00D-08 within 128 cycles.
 Requested convergence on MAX density matrix=1.00D-06.
 Requested convergence on             energy=1.00D-06.
 No special actions if energy rises.
 Fock matrices will be formed incrementally for  20 cycles.

 Cycle   1  Pass 1  IDiag  1:
 FoFJK:  IHMeth= 1 ICntrl=       0 DoSepK=F KAlg= 0 I1Cent=           0 FoldK=F
 IRaf= 970000000 NMat=       1 IRICut=       1 DoRegI=T DoRafI=F ISym2E= 0 IDoP0=0 IntGTp=1.
 FoFCou: FMM=F IPFlag=           0 FMFlag=      100000 FMFlg1=           0
         NFxFlg=           0 DoJE=F BraDBF=F KetDBF=F FulRan=T
         wScrn=  0.000000 ICntrl=         0 IOpCl=  0 I1Cent=           0 NGrid=           0
         NMat0=    1 NMatS0=      1 NMatT0=    0 NMatD0=    1 NMtDS0=    0 NMtDT0=    0
 Symmetry not used in FoFCou.
 E= -233.630703914100    
 DIIS: error= 1.60D-03 at cycle   1 NSaved=   1.
 NSaved= 1 IEnMin= 1 EnMin= -233.630703914100     IErMin= 1 ErrMin= 1.60D-03
 ErrMax= 1.60D-03  0.00D+00 EMaxC= 1.00D-01 BMatC= 1.28D-03 BMatP= 1.28D-03
 IDIUse=3 WtCom= 9.84D-01 WtEn= 1.60D-02
 Coeff-Com:  0.100D+01
 Coeff-En:   0.100D+01
 Coeff:      0.100D+01
 Gap=     0.640 Goal=   None    Shift=    0.000
 GapD=    0.640 DampG=2.000 DampE=1.000 DampFc=2.0000 IDamp=-1.
 RMSDP=4.40D-04 MaxDP=2.84D-02              OVMax= 1.16D-02

 Cycle   2  Pass 1  IDiag  1:
 RMSU=  4.31D-04    CP:  9.90D-01
 E= -233.632026592909     Delta-E=       -0.001322678809 Rises=F Damp=F
 DIIS: error= 2.20D-04 at cycle   2 NSaved=   2.
 NSaved= 2 IEnMin= 2 EnMin= -233.632026592909     IErMin= 2 ErrMin= 2.20D-04
 ErrMax= 2.20D-04  0.00D+00 EMaxC= 1.00D-01 BMatC= 3.28D-05 BMatP= 1.28D-03
 IDIUse=3 WtCom= 9.98D-01 WtEn= 2.20D-03
 Coeff-Com: -0.104D+00 0.110D+01
 Coeff-En:   0.000D+00 0.100D+01
 Coeff:     -0.103D+00 0.110D+01
 Gap=     0.356 Goal=   None    Shift=    0.000
 RMSDP=6.77D-05 MaxDP=2.92D-03 DE=-1.32D-03 OVMax= 3.44D-03

 Cycle   3  Pass 1  IDiag  1:
 RMSU=  4.03D-05    CP:  9.89D-01  1.13D+00
 E= -233.632076913135     Delta-E=       -0.000050320226 Rises=F Damp=F
 DIIS: error= 1.07D-04 at cycle   3 NSaved=   3.
 NSaved= 3 IEnMin= 3 EnMin= -233.632076913135     IErMin= 3 ErrMin= 1.07D-04
 ErrMax= 1.07D-04  0.00D+00 EMaxC= 1.00D-01 BMatC= 8.57D-06 BMatP= 3.28D-05
 IDIUse=3 WtCom= 9.99D-01 WtEn= 1.07D-03
 Coeff-Com: -0.511D-01 0.386D+00 0.665D+00
 Coeff-En:   0.000D+00 0.000D+00 0.100D+01
 Coeff:     -0.510D-01 0.386D+00 0.665D+00
 Gap=     0.355 Goal=   None    Shift=    0.000
 RMSDP=1.30D-05 MaxDP=6.11D-04 DE=-5.03D-05 OVMax= 9.56D-04

 Cycle   4  Pass 1  IDiag  1:
 RMSU=  1.28D-05    CP:  9.90D-01  1.12D+00  9.99D-01
 E= -233.632083168200     Delta-E=       -0.000006255065 Rises=F Damp=F
 DIIS: error= 5.35D-05 at cycle   4 NSaved=   4.
 NSaved= 4 IEnMin= 4 EnMin= -233.632083168200     IErMin= 4 ErrMin= 5.35D-05
 ErrMax= 5.35D-05  0.00D+00 EMaxC= 1.00D-01 BMatC= 1.52D-06 BMatP= 8.57D-06
 IDIUse=1 WtCom= 1.00D+00 WtEn= 0.00D+00
 Coeff-Com: -0.323D-02-0.339D-01 0.272D+00 0.766D+00
 Coeff:     -0.323D-02-0.339D-01 0.272D+00 0.766D+00
 Gap=     0.355 Goal=   None    Shift=    0.000
 RMSDP=6.12D-06 MaxDP=2.00D-04 DE=-6.26D-06 OVMax= 4.77D-04

 Cycle   5  Pass 1  IDiag  1:
 RMSU=  3.45D-06    CP:  9.90D-01  1.13D+00  1.10D+00  9.36D-01
[...]
           D13         64.15646  63.19945
           D14        -56.50305 -57.28372
           D15       -175.34932-176.04624
           D16       -173.59190-174.67208
           D17         65.74859  64.84475
           D18        -53.09769 -53.91778
           D19        -57.73031 -58.69753
           D20       -178.38982-179.18070
           D21         62.76390  62.05678
           D22         60.10893  60.08333
           D23       -179.74645-179.77442
           D24        -59.35882 -59.38867
           D25       -178.45828-178.49903
           D26        -58.31366 -58.35677
           D27         62.07396  62.02898
           D28        -61.35494 -61.40956
           D29         58.78968  58.73270
           D30        179.17731 179.11845
 Largest change from initial coordinates is atom   12       0.000 Angstoms.
 GradGradGradGradGradGradGradGradGradGradGradGradGradGradGradGradGradGrad

 Leave Link  103 at Tue Apr 23 23:16:36 2019, MaxMem=   671088640 cpu:               0.7 elap:               0.1
 (Enter /shared/centos7/gaussian/g16/l202.exe)
                          Input orientation:                          
 ---------------------------------------------------------------------
 Center     Atomic      Atomic             Coordinates (Angstroms)
 Number     Number       Type             X           Y           Z
 ---------------------------------------------------------------------
      1          8           0        1.896274   -0.741018   -0.210189
      2          6           0        0.020347    0.715455   -0.183447
      3          6           0       -0.964628   -0.346773    0.291677
      4          6           0        1.429109    0.486856    0.324391
      5          6           0       -2.371846   -0.106803   -0.241595
      6          1           0       -0.979563   -0.355818    1.385161
      7          1           0       -0.606035   -1.327188   -0.023127
      8          1           0       -0.312417    1.703708    0.145566
      9          1           0        0.044143    0.733346   -1.276287
     10          1           0        1.425339    0.450864    1.420040
     11          1           0        2.078434    1.311419    0.014234
     12          1           0       -2.379444   -0.121126   -1.332343
     13          1           0       -3.068129   -0.868707    0.106820
     14          1           0       -2.751046    0.865091    0.078401
     15          1           0        2.780240   -0.914845    0.115680
 ---------------------------------------------------------------------
                    Distance matrix (angstroms):
                    1          2          3          4          5
     1  O    0.000000
     2  C    2.375107   0.000000
     3  C    2.931221   1.524548   0.000000
     4  C    1.418342   1.514850   2.534953   0.000000
     5  C    4.315097   2.530232   1.523886   3.888449   0.000000
     6  H    3.311186   2.146619   1.093623   2.763518   2.155643
     7  H    2.576846   2.142533   1.090368   2.748333   2.157581
     8  H    3.313844   1.093446   2.156665   2.132046   2.769313
     9  H    2.596286   1.093246   2.154713   2.130977   2.759246
    10  H    2.073647   2.148298   2.760683   1.096246   4.182181
    11  H    2.072691   2.151738   3.476609   1.094406   4.677799
    12  H    4.463771   2.789054   2.165655   4.197557   1.090869
    13  H    4.976152   3.483175   2.175156   4.702131   1.089358
    14  H    4.925490   2.787754   2.169191   4.204435   1.091223
    15  H    0.958021   3.219374   3.791796   1.958030   5.227291
                    6          7          8          9         10
     6  H    0.000000
     7  H    1.751102   0.000000
     8  H    2.494660   3.049754   0.000000
     9  H    3.052467   2.497787   1.757954   0.000000
    10  H    2.536829   3.061157   2.492729   3.042644   0.000000
    11  H    3.743056   3.764308   2.426378   2.477490   1.772958
    12  H    3.065873   2.512690   3.128392   2.570415   4.730662
    13  H    2.501863   2.507787   3.769983   3.763747   4.863853
    14  H    2.517219   3.068789   2.579671   3.108957   4.406106
    15  H    4.007519   3.414110   4.052437   3.484299   2.324279
                   11         12         13         14         15
    11  H    0.000000
    12  H    4.872180   0.000000
    13  H    5.590048   1.761918   0.000000
    14  H    4.850485   1.760941   1.762783   0.000000
    15  H    2.336467   5.417481   5.848558   5.810739   0.000000
 Stoichiometry    C4H10O
 Framework group  C1[X(C4H10O)]
 Deg. of freedom    39
 Full point group                 C1      NOp   1
 RotChk:  IX=0 Diff= 8.40D-16
 Largest Abelian subgroup         C1      NOp   1
 Largest concise Abelian subgroup C1      NOp   1
                         Standard orientation:                         
 ---------------------------------------------------------------------
 Center     Atomic      Atomic             Coordinates (Angstroms)
 Number     Number       Type             X           Y           Z
 ---------------------------------------------------------------------
      1          8           0        1.893135   -0.731087   -0.256809
      2          6           0        0.000265    0.703205   -0.225486
      3          6           0       -0.947778   -0.342085    0.351428
      4          6           0        1.433268    0.519224    0.229952
      5          6           0       -2.380527   -0.148149   -0.130076
      6          1           0       -0.913897   -0.290480    1.443307
      7          1           0       -0.590008   -1.334349    0.075173
      8          1           0       -0.331179    1.704379    0.063341
      9          1           0       -0.024858    0.660568   -1.317612
     10          1           0        1.478770    0.544173    1.324970
     11          1           0        2.056661    1.332591   -0.154158
     12          1           0       -2.436470   -0.223188   -1.216922
     13          1           0       -3.049991   -0.897363    0.290869
     14          1           0       -2.758531    0.835663    0.152758
     15          1           0        2.793053   -0.876468    0.037836
 ---------------------------------------------------------------------
 Rotational constants (GHZ):          12.5688148           2.4011158           2.2136142
 Leave Link  202 at Tue Apr 23 23:16:36 2019, MaxMem=   671088640 cpu:               0.2 elap:               0.0
 (Enter /shared/centos7/gaussian/g16/l601.exe)
 Copying SCF densities to generalized density rwf, IOpCl= 0 IROHF=0.

 **********************************************************************

            Population analysis using the SCF density.

 **********************************************************************

 Orbital symmetries:
       Occupied  (A) (A) (A) (A) (A) (A) (A) (A) (A) (A) (A) (A)
                 (A) (A) (A) (A) (A) (A) (A) (A) (A)
       Virtual   (A) (A) (A) (A) (A) (A) (A) (A) (A) (A) (A) (A)
                 (A) (A) (A) (A) (A) (A) (A) (A) (A) (A) (A) (A)
                 (A) (A) (A) (A) (A) (A) (A) (A) (A) (A) (A) (A)
                 (A) (A) (A) (A) (A) (A) (A) (A) (A) (A) (A) (A)
                 (A) (A) (A) (A) (A) (A) (A) (A) (A) (A) (A) (A)
                 (A) (A) (A) (A) (A) (A) (A) (A) (A) (A) (A) (A)
                 (A) (A) (A) (A) (A) (A) (A) (A) (A) (A) (A) (A)
                 (A) (A) (A) (A) (A) (A) (A) (A) (A) (A) (A) (A)
                 (A) (A) (A) (A) (A) (A) (A) (A) (A) (A) (A) (A)
                 (A) (A) (A) (A) (A) (A) (A) (A) (A) (A) (A) (A)
                 (A) (A) (A) (A) (A) (A) (A) (A) (A) (A) (A) (A)
                 (A) (A) (A) (A) (A) (A) (A) (A) (A) (A) (A) (A)
                 (A) (A) (A) (A) (A) (A) (A) (A) (A) (A) (A) (A)
                 (A) (A) (A) (A) (A) (A) (A) (A) (A) (A) (A) (A)
                 (A) (A) (A) (A) (A) (A) (A) (A) (A) (A) (A) (A)
                 (A) (A) (A) (A) (A) (A) (A) (A) (A) (A) (A) (A)
                 (A) (A) (A) (A) (A) (A) (A) (A) (A) (A) (A) (A)
                 (A) (A) (A) (A) (A) (A) (A) (A) (A) (A) (A) (A)
                 (A) (A) (A) (A) (A) (A) (A) (A) (A) (A) (A) (A)
                 (A) (A) (A) (A) (A) (A) (A) (A) (A) (A) (A)
 The electronic state is 1-A.
 Alpha  occ. eigenvalues --  -19.61954 -10.57863 -10.52543 -10.52137 -10.51630
 Alpha  occ. eigenvalues --   -1.14353  -0.89185  -0.81399  -0.71335  -0.65698
 Alpha  occ. eigenvalues --   -0.59981  -0.53700  -0.51385  -0.50073  -0.45568
 Alpha  occ. eigenvalues --   -0.44161  -0.42681  -0.39545  -0.38468  -0.37872
 Alpha  occ. eigenvalues --   -0.34703
 Alpha virt. eigenvalues --    0.01274   0.02685   0.03452   0.03992   0.05675
 Alpha virt. eigenvalues --    0.06156   0.06631   0.08094   0.08656   0.09167
 Alpha virt. eigenvalues --    0.10243   0.10964   0.13183   0.15201   0.16368
 Alpha virt. eigenvalues --    0.17755   0.18637   0.19794   0.21052   0.21179
 Alpha virt. eigenvalues --    0.22300   0.23119   0.23801   0.25008   0.25956
 Alpha virt. eigenvalues --    0.26989   0.27646   0.28554   0.29207   0.30370
 Alpha virt. eigenvalues --    0.31132   0.31733   0.34215   0.37552   0.42444
 Alpha virt. eigenvalues --    0.43297   0.45422   0.46201   0.47549   0.49588
 Alpha virt. eigenvalues --    0.52716   0.53554   0.55066   0.56331   0.57323
 Alpha virt. eigenvalues --    0.58051   0.59183   0.60464   0.61775   0.62711
 Alpha virt. eigenvalues --    0.63213   0.64874   0.65145   0.66074   0.68246
 Alpha virt. eigenvalues --    0.69636   0.70416   0.72205   0.74836   0.78521
 Alpha virt. eigenvalues --    0.80958   0.82302   0.83571   0.85630   0.88090
 Alpha virt. eigenvalues --    0.88924   0.92746   0.94397   0.96355   1.01273
 Alpha virt. eigenvalues --    1.04454   1.04778   1.06576   1.10187   1.12045
 Alpha virt. eigenvalues --    1.13356   1.14065   1.17253   1.18212   1.18949
 Alpha virt. eigenvalues --    1.19439   1.20807   1.22244   1.24420   1.25510
 Alpha virt. eigenvalues --    1.26661   1.27744   1.29775   1.31105   1.32211
 Alpha virt. eigenvalues --    1.35994   1.37881   1.39784   1.40986   1.42283
 Alpha virt. eigenvalues --    1.44007   1.44925   1.46299   1.47184   1.48827
 Alpha virt. eigenvalues --    1.49347   1.54061   1.54931   1.56655   1.58577
 Alpha virt. eigenvalues --    1.60208   1.61856   1.63028   1.64296   1.65865
 Alpha virt. eigenvalues --    1.68972   1.69962   1.74422   1.85140   1.91327
 Alpha virt. eigenvalues --    2.09845   2.13042   2.27768   2.35047   2.41341
 Alpha virt. eigenvalues --    2.47820   2.50428   2.52001   2.55977   2.58027
 Alpha virt. eigenvalues --    2.63273   2.67317   2.75831   2.76970   2.79090
 Alpha virt. eigenvalues --    2.81364   2.84173   2.85753   2.89575   2.91533
 Alpha virt. eigenvalues --    2.94320   2.95907   2.99488   3.04367   3.04539
 Alpha virt. eigenvalues --    3.09340   3.14334   3.15422   3.16716   3.17897
 Alpha virt. eigenvalues --    3.22627   3.24141   3.26567   3.27878   3.32362
 Alpha virt. eigenvalues --    3.35155   3.36081   3.38986   3.39177   3.40353
 Alpha virt. eigenvalues --    3.45556   3.46836   3.52664   3.54035   3.56895
 Alpha virt. eigenvalues --    3.58846   3.59783   3.61625   3.62904   3.66200
 Alpha virt. eigenvalues --    3.70613   3.70879   3.72339   3.76059   3.78028
 Alpha virt. eigenvalues --    3.79667   3.84664   3.87976   3.89138   3.92667
 Alpha virt. eigenvalues --    3.97131   3.99285   4.01221   4.02393   4.03134
 Alpha virt. eigenvalues --    4.04991   4.08510   4.09828   4.14736   4.15719
 Alpha virt. eigenvalues --    4.19457   4.21040   4.23117   4.24524   4.25933
 Alpha virt. eigenvalues --    4.28397   4.30013   4.32081   4.33135   4.36586
 Alpha virt. eigenvalues --    4.39775   4.44018   4.44663   4.48112   4.53435
 Alpha virt. eigenvalues --    4.53894   4.56100   4.57391   4.60570   4.63906
 Alpha virt. eigenvalues --    4.65813   4.68273   4.79829   4.80776   5.02490
 Alpha virt. eigenvalues --    5.20081   5.21331   5.23308   5.28015   5.36285
 Alpha virt. eigenvalues --    5.41985   5.47052   5.49682   5.53872   5.54636
 Alpha virt. eigenvalues --    5.59706   5.60263   5.65811   5.67626   5.70062
 Alpha virt. eigenvalues --    5.84825   5.94507   6.49648   6.98557   7.17293
 Alpha virt. eigenvalues --    7.21314   7.24419   7.55766   7.65316  24.28233
 Alpha virt. eigenvalues --   24.39450  24.44801  24.51533  50.15262
          Condensed to atoms (all electrons):
               1          2          3          4          5          6
     1  O    8.154719  -0.083062  -0.003095   0.152380  -0.000431  -0.001202
     2  C   -0.083062   5.714274  -0.220798  -0.007036   0.169170  -0.031082
     3  C   -0.003095  -0.220798   5.519472   0.160688   0.019532   0.428807
     4  C    0.152380  -0.007036   0.160688   5.255277  -0.108078  -0.014881
     5  C   -0.000431   0.169170   0.019532  -0.108078   5.293498  -0.029331
     6  H   -0.001202  -0.031082   0.428807  -0.014881  -0.029331   0.539050
     7  H   -0.006110  -0.062471   0.476616   0.011019  -0.057088  -0.034047
     8  H    0.008922   0.395638  -0.004739  -0.016030  -0.018201  -0.007519
     9  H   -0.009794   0.496863  -0.084558  -0.062218   0.007494   0.005177
    10  H   -0.049843   0.005794  -0.047029   0.433345   0.006479   0.002776
    11  H   -0.043783  -0.074530   0.023285   0.465268  -0.000641   0.000098
    12  H   -0.000285  -0.010343  -0.032719  -0.003552   0.420502   0.006228
    13  H    0.000093   0.020713  -0.048028   0.002472   0.409590  -0.004591
    14  H   -0.000107  -0.031954   0.006832   0.003039   0.393369  -0.008282
    15  H    0.231126  -0.030425   0.008425   0.027453  -0.001813  -0.000103
               7          8          9         10         11         12
     1  O   -0.006110   0.008922  -0.009794  -0.049843  -0.043783  -0.000285
     2  C   -0.062471   0.395638   0.496863   0.005794  -0.074530  -0.010343
     3  C    0.476616  -0.004739  -0.084558  -0.047029   0.023285  -0.032719
     4  C    0.011019  -0.016030  -0.062218   0.433345   0.465268  -0.003552
     5  C   -0.057088  -0.018201   0.007494   0.006479  -0.000641   0.420502
     6  H   -0.034047  -0.007519   0.005177   0.002776   0.000098   0.006228
     7  H    0.494755   0.004370  -0.003510   0.001202  -0.000807  -0.006812
     8  H    0.004370   0.518135  -0.028876  -0.005018  -0.003311  -0.000577
     9  H   -0.003510  -0.028876   0.489893   0.006026  -0.006728   0.001345
    10  H    0.001202  -0.005018   0.006026   0.561179  -0.046491  -0.000014
    11  H   -0.000807  -0.003311  -0.006728  -0.046491   0.556408  -0.000004
    12  H   -0.006812  -0.000577   0.001345  -0.000014  -0.000004   0.551039
    13  H   -0.004632  -0.000010  -0.000089  -0.000024   0.000015  -0.024341
    14  H    0.006009   0.002525  -0.000433  -0.000014  -0.000039  -0.038812
    15  H   -0.000015  -0.000280   0.000233  -0.006996  -0.005089  -0.000003
              13         14         15
     1  O    0.000093  -0.000107   0.231126
     2  C    0.020713  -0.031954  -0.030425
     3  C   -0.048028   0.006832   0.008425
     4  C    0.002472   0.003039   0.027453
     5  C    0.409590   0.393369  -0.001813
     6  H   -0.004591  -0.008282  -0.000103
     7  H   -0.004632   0.006009  -0.000015
     8  H   -0.000010   0.002525  -0.000280
     9  H   -0.000089  -0.000433   0.000233
    10  H   -0.000024  -0.000014  -0.006996
    11  H    0.000015  -0.000039  -0.005089
    12  H   -0.024341  -0.038812  -0.000003
    13  H    0.540376  -0.025625  -0.000001
    14  H   -0.025625   0.561294   0.000004
    15  H   -0.000001   0.000004   0.525486
 Mulliken charges:
               1
     1  O   -0.349528
     2  C   -0.250751
     3  C   -0.202692
     4  C   -0.299146
     5  C   -0.504051
     6  H    0.148901
     7  H    0.181521
     8  H    0.154972
     9  H    0.189174
    10  H    0.138627
    11  H    0.136351
    12  H    0.138349
    13  H    0.134081
    14  H    0.132193
    15  H    0.251998
 Sum of Mulliken charges =  -0.00000
 Mulliken charges with hydrogens summed into heavy atoms:
               1
     1  O   -0.097530
     2  C    0.093395
     3  C    0.127730
     4  C   -0.024168
     5  C   -0.099427
 Electronic spatial extent (au):  <R**2>=            597.8711
 Charge=             -0.0000 electrons
 Dipole moment (field-independent basis, Debye):
    X=              0.8779    Y=              0.9001    Z=              0.8864  Tot=              1.5384
 Quadrupole moment (field-independent basis, Debye-Ang):
   XX=            -28.9055   YY=            -34.0754   ZZ=            -33.9864
   XY=              0.4380   XZ=              1.8047   YZ=             -0.5449
 Traceless Quadrupole moment (field-independent basis, Debye-Ang):
   XX=              3.4169   YY=             -1.7530   ZZ=             -1.6640
   XY=              0.4380   XZ=              1.8047   YZ=             -0.5449
 Octapole moment (field-independent basis, Debye-Ang**2):
  XXX=             34.0092  YYY=             -2.0642  ZZZ=             -0.4022  XYY=              3.1560
  XXY=             -5.2686  XXZ=              4.4605  XZZ=              1.9379  YZZ=             -0.4969
  YYZ=              0.4614  XYZ=             -1.7681
 Hexadecapole moment (field-independent basis, Debye-Ang**3):
 XXXX=           -526.0771 YYYY=           -124.4539 ZZZZ=            -76.6282 XXXY=            -23.5478
 XXXZ=              4.0151 YYYX=             -6.9049 YYYZ=              1.1665 ZZZX=              1.5928
 ZZZY=              0.2705 XXYY=           -112.5980 XXZZ=           -115.5004 YYZZ=            -36.0712
 XXYZ=             -3.8738 YYXZ=             -1.5383 ZZXY=             -0.5538
 N-N= 1.887526238890D+02 E-N=-9.220662630811D+02  KE= 2.327040979572D+02
 No NMR shielding tensors so no spin-rotation constants.
 Leave Link  601 at Tue Apr 23 23:16:36 2019, MaxMem=   671088640 cpu:               7.1 elap:               0.4
 (Enter /shared/centos7/gaussian/g16/l9999.exe)
 1\1\GINC-C0047\Scan\RM062X\6-311+G(2df,2p)\C4H10O1\UNDERKOFFLER.C\23-A
 pr-2019\0\\#p m062x/6-311+g(2df,2p) Opt=(CalcFC,ModRedun)\\Gaussian In
 put Prepared from Scan Object\\0,1\O,1.8962737517,-0.7410177456,-0.210
 1894725\C,0.0203465359,0.7154554874,-0.1834467599\C,-0.9646280191,-0.3
 467734177,0.2916770559\C,1.4291091863,0.4868561803,0.3243912633\C,-2.3
 71846104,-0.1068031344,-0.2415951789\H,-0.9795625226,-0.3558175834,1.3
 85160781\H,-0.6060346205,-1.3271877189,-0.0231272657\H,-0.3124169442,1
 .7037084803,0.1455655357\H,0.0441426598,0.7333459363,-1.2762873589\H,1
 .4253389155,0.4508644174,1.4200401232\H,2.0784344067,1.3114194674,0.01
 42338046\H,-2.3794436369,-0.121125872,-1.3323434993\H,-3.0681287585,-0
 .8687072913,0.1068196495\H,-2.751045958,0.8650909842,0.0784008349\H,2.
 7802401078,-0.9148451898,0.115680487\\Version=EM64L-G16RevA.03\State=1
 -A\HF=-233.6332366,-233.6331426,-233.6328796,-233.6325068,-233.6321098
 ,-233.6317824,-233.6316078,-233.6316269,-233.6318324,-233.6321755,-233
 .6325577,-233.6328753,-233.6330342,-233.632978,-233.6327032,-233.63225
 56,-233.6317315,-233.6312618,-233.6309793,-233.630971,-233.6312413,-23
 3.6317018,-233.6322221,-233.6326735,-233.6329575,-233.6330279,-233.632
 8882,-233.6325925,-233.6322396,-233.6319465,-233.6318114,-233.6318863,
 -233.6321483,-233.6325146,-233.6328781,-233.6331408,-233.6332366\RMSD=
 8.769e-09,8.023e-09,6.860e-09,4.104e-09,5.102e-09,4.730e-09,4.865e-09,
 5.078e-09,4.456e-09,3.903e-09,2.158e-09,2.699e-09,5.811e-09,7.056e-09,
 7.833e-09,5.951e-09,5.587e-09,4.761e-09,6.219e-09,7.047e-09,6.335e-09,
 7.300e-09,3.232e-09,4.741e-09,9.176e-09,2.935e-09,5.660e-09,5.242e-09,
 6.223e-09,6.003e-09,4.182e-09,4.858e-09,3.992e-09,5.133e-09,5.876e-09,
 4.725e-09,4.625e-09\PG=C01 [X(C4H10O1)]\\@


 THE NUMBERS ARE MEANINGLESS, BUT THE TRENDS ARE IMPORTANT.
     -- LARRY BURGGRAF
 Job cpu time:       1 days  5 hours 31 minutes 56.7 seconds.
 Elapsed time:       0 days  1 hours 29 minutes 20.9 seconds.
 File lengths (MBytes):  RWF=   1328 Int=      0 D2E=      0 Chk=     32 Scr=     32
 Normal termination of Gaussian 16 at Tue Apr 23 23:16:36 2019.
