 Entering Gaussian System, Link 0=g16
 Input=LRHPLDYGYMQRHN-UHFFFAOYSA-N_36by10.0_tor24_a1.com
 Output=LRHPLDYGYMQRHN-UHFFFAOYSA-N_36by10.0_tor24_a1.log
 Initial command:
 /shared/centos7/gaussian/g16/l1.exe "/scratch/underkoffler.c/gaussian_scratch/Gau-34091.inp" -scrdir="/scratch/underkoffler.c/gaussian_scratch/"
 Entering Link 1 = /shared/centos7/gaussian/g16/l1.exe PID=     34092.
  
 Copyright (c) 1988,1990,1992,1993,1995,1998,2003,2009,2016,
            Gaussian, Inc.  All Rights Reserved.
  
 This is part of the Gaussian(R) 16 program.  It is based on
 the Gaussian(R) 09 system (copyright 2009, Gaussian, Inc.),
 the Gaussian(R) 03 system (copyright 2003, Gaussian, Inc.),
 the Gaussian(R) 98 system (copyright 1998, Gaussian, Inc.),
 the Gaussian(R) 94 system (copyright 1995, Gaussian, Inc.),
 the Gaussian 92(TM) system (copyright 1992, Gaussian, Inc.),
 the Gaussian 90(TM) system (copyright 1990, Gaussian, Inc.),
 the Gaussian 88(TM) system (copyright 1988, Gaussian, Inc.),
 the Gaussian 86(TM) system (copyright 1986, Carnegie Mellon
 University), and the Gaussian 82(TM) system (copyright 1983,
 Carnegie Mellon University). Gaussian is a federally registered
 trademark of Gaussian, Inc.
  
 This software contains proprietary and confidential information,
 including trade secrets, belonging to Gaussian, Inc.
  
 This software is provided under written license and may be
 used, copied, transmitted, or stored only in accord with that
 written license.
  
 The following legend is applicable only to US Government
 contracts under FAR:
  
                    RESTRICTED RIGHTS LEGEND
  
 Use, reproduction and disclosure by the US Government is
 subject to restrictions as set forth in subparagraphs (a)
 and (c) of the Commercial Computer Software - Restricted
 Rights clause in FAR 52.227-19.
  
 Gaussian, Inc.
 340 Quinnipiac St., Bldg. 40, Wallingford CT 06492
  
  
 ---------------------------------------------------------------
 Warning -- This program may not be used in any manner that
 competes with the business of Gaussian, Inc. or will provide
 assistance to any competitor of Gaussian, Inc.  The licensee
 of this program is prohibited from giving any competitor of
 Gaussian, Inc. access to this program.  By using this program,
 the user acknowledges that Gaussian, Inc. is engaged in the
 business of creating and licensing software in the field of
 computational chemistry and represents and warrants to the
 licensee that it is not a competitor of Gaussian, Inc. and that
 it will not use this program in any manner prohibited above.
 ---------------------------------------------------------------
  

 Cite this work as:
 Gaussian 16, Revision A.03,
 M. J. Frisch, G. W. Trucks, H. B. Schlegel, G. E. Scuseria, 
 M. A. Robb, J. R. Cheeseman, G. Scalmani, V. Barone, 
 G. A. Petersson, H. Nakatsuji, X. Li, M. Caricato, A. V. Marenich, 
 J. Bloino, B. G. Janesko, R. Gomperts, B. Mennucci, H. P. Hratchian, 
 J. V. Ortiz, A. F. Izmaylov, J. L. Sonnenberg, D. Williams-Young, 
 F. Ding, F. Lipparini, F. Egidi, J. Goings, B. Peng, A. Petrone, 
 T. Henderson, D. Ranasinghe, V. G. Zakrzewski, J. Gao, N. Rega, 
 G. Zheng, W. Liang, M. Hada, M. Ehara, K. Toyota, R. Fukuda, 
 J. Hasegawa, M. Ishida, T. Nakajima, Y. Honda, O. Kitao, H. Nakai, 
 T. Vreven, K. Throssell, J. A. Montgomery, Jr., J. E. Peralta, 
 F. Ogliaro, M. J. Bearpark, J. J. Heyd, E. N. Brothers, K. N. Kudin, 
 V. N. Staroverov, T. A. Keith, R. Kobayashi, J. Normand, 
 K. Raghavachari, A. P. Rendell, J. C. Burant, S. S. Iyengar, 
 J. Tomasi, M. Cossi, J. M. Millam, M. Klene, C. Adamo, R. Cammi, 
 J. W. Ochterski, R. L. Martin, K. Morokuma, O. Farkas, 
 J. B. Foresman, and D. J. Fox, Gaussian, Inc., Wallingford CT, 2016.
 
 ******************************************
 Gaussian 16:  EM64L-G16RevA.03 25-Dec-2016
                11-Mar-2019 
 ******************************************
 %nprocshared=20
 Will use up to   20 processors via shared memory.
 %mem=5GB
 ----------------------------------------------
 #p m062x/6-311+g(2df,2p) Opt=(CalcFC,ModRedun)
 ----------------------------------------------
 1/10=4,18=120,19=15,26=3,38=1/1,3;
 2/9=110,12=2,17=6,18=5,40=1/2;
 3/5=4,6=6,7=214,11=2,25=1,30=1,71=2,74=-55,140=1/1,2,3;
 4//1;
 5/5=2,38=5/2;
 8/6=4,10=90,11=11/1;
 11/6=1,8=1,9=11,15=111,16=1/1,2,10;
 10/6=1,13=1/2;
 6/7=2,8=2,9=2,10=2,28=1/1;
 7/10=1,18=20,25=1/1,2,3,16;
 1/10=4,18=20,19=15,26=3/3(2);
 2/9=110/2;
 99//99;
 2/9=110/2;
 3/5=4,6=6,7=214,11=2,25=1,30=1,71=1,74=-55/1,2,3;
 4/5=5,16=3,69=1/1;
 5/5=2,38=5/2;
 7//1,2,3,16;
 1/18=20,19=15,26=3/3(-5);
 2/9=110/2;
 6/7=2,8=2,9=2,10=2,19=2,28=1/1;
 99/9=1/99;
 Leave Link    1 at Mon Mar 11 19:44:06 2019, MaxMem=   671088640 cpu:              42.1 elap:               2.2
 (Enter /shared/centos7/gaussian/g16/l101.exe)
 ----------------------------------------
 Gaussian Input Prepared from Scan Object
 ----------------------------------------
 Symbolic Z-matrix:
 Charge =  0 Multiplicity = 1
 O                     2.02909  -0.66862  -0.26619 
 C                     0.00637   0.71108  -0.20874 
 C                    -0.94103  -0.37071   0.29916 
 C                     1.44405   0.51489   0.24548 
 C                    -2.386    -0.11932  -0.11642 
 H                    -0.8746   -0.42525   1.38986 
 H                    -0.62598  -1.34455  -0.08505 
 H                    -0.3382    1.68748   0.14436 
 H                    -0.01817   0.73759  -1.30108 
 H                     1.49326   0.5244    1.34075 
 H                     2.06785   1.33081  -0.11714 
 H                    -2.47317  -0.08019  -1.20282 
 H                    -3.0509   -0.90242   0.24558 
 H                    -2.7417    0.83311   0.27844 
 H                     1.58862  -1.42765   0.11963 
 
 The following ModRedundant input section has been read:
 B       1       4 B                                                           
 B       2       8 B                                                           
 B       5      12 B                                                           
 B       2       9 B                                                           
 B       5      13 B                                                           
 B       3       5 B                                                           
 B       4      10 B                                                           
 B       5      14 B                                                           
 B       4      11 B                                                           
 B       3       6 B                                                           
 B       2       3 B                                                           
 B       1      15 B                                                           
 B       3       7 B                                                           
 B       2       4 B                                                           
 D       7       3       5      13 S  36 10.000                                
 
 ITRead=  0  0  0  0  0  0  0  0  0  0  0  0  0  0  0
 MicOpt= -1 -1 -1 -1 -1 -1 -1 -1 -1 -1 -1 -1 -1 -1 -1
 NAtoms=     15 NQM=       15 NQMF=       0 NMMI=      0 NMMIF=      0
                NMic=       0 NMicF=      0.
                    Isotopes and Nuclear Properties:
 (Nuclear quadrupole moments (NQMom) in fm**2, nuclear magnetic moments (NMagM)
  in nuclear magnetons)

  Atom         1           2           3           4           5           6           7           8           9          10
 IAtWgt=          16          12          12          12          12           1           1           1           1           1
 AtmWgt=  15.9949146  12.0000000  12.0000000  12.0000000  12.0000000   1.0078250   1.0078250   1.0078250   1.0078250   1.0078250
 NucSpn=           0           0           0           0           0           1           1           1           1           1
 AtZEff=  -0.0000000  -0.0000000  -0.0000000  -0.0000000  -0.0000000  -0.0000000  -0.0000000  -0.0000000  -0.0000000  -0.0000000
 NQMom=    0.0000000   0.0000000   0.0000000   0.0000000   0.0000000   0.0000000   0.0000000   0.0000000   0.0000000   0.0000000
 NMagM=    0.0000000   0.0000000   0.0000000   0.0000000   0.0000000   2.7928460   2.7928460   2.7928460   2.7928460   2.7928460
 AtZNuc=   8.0000000   6.0000000   6.0000000   6.0000000   6.0000000   1.0000000   1.0000000   1.0000000   1.0000000   1.0000000

  Atom        11          12          13          14          15
 IAtWgt=           1           1           1           1           1
 AtmWgt=   1.0078250   1.0078250   1.0078250   1.0078250   1.0078250
 NucSpn=           1           1           1           1           1
 AtZEff=  -0.0000000  -0.0000000  -0.0000000  -0.0000000  -0.0000000
 NQMom=    0.0000000   0.0000000   0.0000000   0.0000000   0.0000000
 NMagM=    2.7928460   2.7928460   2.7928460   2.7928460   2.7928460
 AtZNuc=   1.0000000   1.0000000   1.0000000   1.0000000   1.0000000
 Leave Link  101 at Mon Mar 11 19:44:07 2019, MaxMem=   671088640 cpu:               6.3 elap:               0.4
 (Enter /shared/centos7/gaussian/g16/l103.exe)

 GradGradGradGradGradGradGradGradGradGradGradGradGradGradGradGradGradGrad
 Berny optimization.
 Initialization pass.
                           ----------------------------
                           !    Initial Parameters    !
                           ! (Angstroms and Degrees)  !
 --------------------------                            --------------------------
 ! Name  Definition              Value          Derivative Info.                !
 --------------------------------------------------------------------------------
 ! R1    R(1,4)                  1.4159         calculate D2E/DX2 analytically  !
 ! R2    R(1,15)                 0.9586         calculate D2E/DX2 analytically  !
 ! R3    R(2,3)                  1.5251         calculate D2E/DX2 analytically  !
 ! R4    R(2,4)                  1.5204         calculate D2E/DX2 analytically  !
 ! R5    R(2,8)                  1.094          calculate D2E/DX2 analytically  !
 ! R6    R(2,9)                  1.0929         calculate D2E/DX2 analytically  !
 ! R7    R(3,5)                  1.5244         calculate D2E/DX2 analytically  !
 ! R8    R(3,6)                  1.0941         calculate D2E/DX2 analytically  !
 ! R9    R(3,7)                  1.0933         calculate D2E/DX2 analytically  !
 ! R10   R(4,10)                 1.0964         calculate D2E/DX2 analytically  !
 ! R11   R(4,11)                 1.0892         calculate D2E/DX2 analytically  !
 ! R12   R(5,12)                 1.0906         calculate D2E/DX2 analytically  !
 ! R13   R(5,13)                 1.0892         calculate D2E/DX2 analytically  !
 ! R14   R(5,14)                 1.0907         calculate D2E/DX2 analytically  !
 ! A1    A(4,1,15)             109.0584         calculate D2E/DX2 analytically  !
 ! A2    A(3,2,4)              113.3526         calculate D2E/DX2 analytically  !
 ! A3    A(3,2,8)              109.2658         calculate D2E/DX2 analytically  !
 ! A4    A(3,2,9)              109.6403         calculate D2E/DX2 analytically  !
 ! A5    A(4,2,8)              108.4556         calculate D2E/DX2 analytically  !
 ! A6    A(4,2,9)              108.8407         calculate D2E/DX2 analytically  !
 ! A7    A(8,2,9)              107.0899         calculate D2E/DX2 analytically  !
 ! A8    A(2,3,5)              112.4006         calculate D2E/DX2 analytically  !
 ! A9    A(2,3,6)              109.2474         calculate D2E/DX2 analytically  !
 ! A10   A(2,3,7)              109.6204         calculate D2E/DX2 analytically  !
 ! A11   A(5,3,6)              109.7277         calculate D2E/DX2 analytically  !
 ! A12   A(5,3,7)              108.9199         calculate D2E/DX2 analytically  !
 ! A13   A(6,3,7)              106.765          calculate D2E/DX2 analytically  !
 ! A14   A(1,4,2)              112.9922         calculate D2E/DX2 analytically  !
 ! A15   A(1,4,10)             110.4692         calculate D2E/DX2 analytically  !
 ! A16   A(1,4,11)             105.6164         calculate D2E/DX2 analytically  !
 ! A17   A(2,4,10)             109.8616         calculate D2E/DX2 analytically  !
 ! A18   A(2,4,11)             110.2078         calculate D2E/DX2 analytically  !
 ! A19   A(10,4,11)            107.4801         calculate D2E/DX2 analytically  !
 ! A20   A(3,5,12)             110.6859         calculate D2E/DX2 analytically  !
 ! A21   A(3,5,13)             111.6823         calculate D2E/DX2 analytically  !
 ! A22   A(3,5,14)             110.759          calculate D2E/DX2 analytically  !
 ! A23   A(12,5,13)            107.9436         calculate D2E/DX2 analytically  !
 ! A24   A(12,5,14)            107.6522         calculate D2E/DX2 analytically  !
 ! A25   A(13,5,14)            107.9653         calculate D2E/DX2 analytically  !
 ! D1    D(15,1,4,2)           -67.0262         calculate D2E/DX2 analytically  !
 ! D2    D(15,1,4,10)           56.5006         calculate D2E/DX2 analytically  !
 ! D3    D(15,1,4,11)          172.4286         calculate D2E/DX2 analytically  !
 ! D4    D(4,2,3,5)            177.4365         calculate D2E/DX2 analytically  !
 ! D5    D(4,2,3,6)             55.388          calculate D2E/DX2 analytically  !
 ! D6    D(4,2,3,7)            -61.2806         calculate D2E/DX2 analytically  !
 ! D7    D(8,2,3,5)             56.3601         calculate D2E/DX2 analytically  !
 ! D8    D(8,2,3,6)            -65.6884         calculate D2E/DX2 analytically  !
 ! D9    D(8,2,3,7)            177.643          calculate D2E/DX2 analytically  !
 ! D10   D(9,2,3,5)            -60.7224         calculate D2E/DX2 analytically  !
 ! D11   D(9,2,3,6)            177.2291         calculate D2E/DX2 analytically  !
 ! D12   D(9,2,3,7)             60.5606         calculate D2E/DX2 analytically  !
 ! D13   D(3,2,4,1)             63.9834         calculate D2E/DX2 analytically  !
 ! D14   D(3,2,4,10)           -59.878          calculate D2E/DX2 analytically  !
 ! D15   D(3,2,4,11)          -178.1258         calculate D2E/DX2 analytically  !
 ! D16   D(8,2,4,1)           -174.4851         calculate D2E/DX2 analytically  !
 ! D17   D(8,2,4,10)            61.6535         calculate D2E/DX2 analytically  !
 ! D18   D(8,2,4,11)           -56.5942         calculate D2E/DX2 analytically  !
 ! D19   D(9,2,4,1)            -58.3033         calculate D2E/DX2 analytically  !
 ! D20   D(9,2,4,10)           177.8354         calculate D2E/DX2 analytically  !
 ! D21   D(9,2,4,11)            59.5876         calculate D2E/DX2 analytically  !
 ! D22   D(2,3,5,12)            59.2547         calculate D2E/DX2 analytically  !
 ! D23   D(2,3,5,13)           179.5537         calculate D2E/DX2 analytically  !
 ! D24   D(2,3,5,14)           -60.0701         calculate D2E/DX2 analytically  !
 ! D25   D(6,3,5,12)          -178.9698         calculate D2E/DX2 analytically  !
 ! D26   D(6,3,5,13)           -58.6709         calculate D2E/DX2 analytically  !
 ! D27   D(6,3,5,14)            61.7053         calculate D2E/DX2 analytically  !
 ! D28   D(7,3,5,12)           -62.4281         calculate D2E/DX2 analytically  !
 ! D29   D(7,3,5,13)            57.8708         Scan                            !
 ! D30   D(7,3,5,14)           178.247          calculate D2E/DX2 analytically  !
 --------------------------------------------------------------------------------
 Trust Radius=3.00D-01 FncErr=1.00D-07 GrdErr=1.00D-06 EigMax=2.50D+02 EigMin=1.00D-04
 Number of optimizations in scan=  37
 Number of steps in this run=     79 maximum allowed number of steps=    100.
 GradGradGradGradGradGradGradGradGradGradGradGradGradGradGradGradGradGrad

 Leave Link  103 at Mon Mar 11 19:44:07 2019, MaxMem=   671088640 cpu:               0.1 elap:               0.0
 (Enter /shared/centos7/gaussian/g16/l202.exe)
                          Input orientation:                          
 ---------------------------------------------------------------------
 Center     Atomic      Atomic             Coordinates (Angstroms)
 Number     Number       Type             X           Y           Z
 ---------------------------------------------------------------------
      1          8           0        2.029091   -0.668615   -0.266186
      2          6           0        0.006368    0.711076   -0.208738
      3          6           0       -0.941032   -0.370711    0.299164
      4          6           0        1.444046    0.514888    0.245481
      5          6           0       -2.386005   -0.119322   -0.116416
      6          1           0       -0.874597   -0.425250    1.389864
      7          1           0       -0.625976   -1.344546   -0.085049
      8          1           0       -0.338200    1.687479    0.144360
      9          1           0       -0.018170    0.737585   -1.301083
     10          1           0        1.493255    0.524401    1.340752
     11          1           0        2.067849    1.330810   -0.117142
     12          1           0       -2.473171   -0.080187   -1.202815
     13          1           0       -3.050901   -0.902422    0.245582
     14          1           0       -2.741696    0.833114    0.278441
     15          1           0        1.588620   -1.427652    0.119632
 ---------------------------------------------------------------------
                    Distance matrix (angstroms):
                    1          2          3          4          5
     1  O    0.000000
     2  C    2.449134   0.000000
     3  C    3.038091   1.525056   0.000000
     4  C    1.415896   1.520435   2.544752   0.000000
     5  C    4.451654   2.534074   1.524418   3.899036   0.000000
     6  H    3.351587   2.150085   1.094082   2.751286   2.155650
     7  H    2.745737   2.154238   1.093268   2.802095   2.144728
     8  H    3.365084   1.093969   2.150236   2.135789   2.743363
     9  H    2.690667   1.092942   2.154248   2.139984   2.782870
    10  H    2.071873   2.155597   2.794975   1.096417   4.193611
    11  H    2.005347   2.154568   3.481645   1.089199   4.683983
    12  H    4.636150   2.786108   2.165132   4.218562   1.090593
    13  H    5.111056   3.486643   2.176496   4.713100   1.089208
    14  H    5.031125   2.793581   2.166106   4.197951   1.090671
    15  H    0.958649   2.680579   2.747453   1.951974   4.191073
                    6          7          8          9         10
     6  H    0.000000
     7  H    1.755644   0.000000
     8  H    2.510503   3.054279   0.000000
     9  H    3.053989   2.486652   1.758984   0.000000
    10  H    2.551661   3.164966   2.477566   3.051089   0.000000
    11  H    3.743368   3.796742   2.446358   2.470852   1.762359
    12  H    3.065370   2.502026   3.081822   2.589486   4.750557
    13  H    2.504670   2.486976   3.751877   3.778790   4.887185
    14  H    2.510936   3.057875   2.554351   3.149860   4.377056
    15  H    2.947157   2.225587   3.662962   3.047697   2.304504
                   11         12         13         14         15
    11  H    0.000000
    12  H    4.877547   0.000000
    13  H    5.596472   1.762866   0.000000
    14  H    4.851382   1.760779   1.763171   0.000000
    15  H    2.809775   4.479138   4.670855   4.887527   0.000000
 Stoichiometry    C4H10O
 Framework group  C1[X(C4H10O)]
 Deg. of freedom    39
 Full point group                 C1      NOp   1
 Largest Abelian subgroup         C1      NOp   1
 Largest concise Abelian subgroup C1      NOp   1
                         Standard orientation:                         
 ---------------------------------------------------------------------
 Center     Atomic      Atomic             Coordinates (Angstroms)
 Number     Number       Type             X           Y           Z
 ---------------------------------------------------------------------
      1          8           0        2.029091   -0.668615   -0.266186
      2          6           0        0.006368    0.711076   -0.208738
      3          6           0       -0.941032   -0.370711    0.299164
      4          6           0        1.444046    0.514888    0.245481
      5          6           0       -2.386005   -0.119322   -0.116416
      6          1           0       -0.874597   -0.425250    1.389864
      7          1           0       -0.625976   -1.344546   -0.085049
      8          1           0       -0.338200    1.687479    0.144360
      9          1           0       -0.018170    0.737585   -1.301083
     10          1           0        1.493255    0.524401    1.340752
     11          1           0        2.067849    1.330810   -0.117142
     12          1           0       -2.473171   -0.080187   -1.202815
     13          1           0       -3.050901   -0.902422    0.245582
     14          1           0       -2.741696    0.833114    0.278441
     15          1           0        1.588620   -1.427652    0.119632
 ---------------------------------------------------------------------
 Rotational constants (GHZ):          12.6538112           2.3645329           2.1753838
 Leave Link  202 at Mon Mar 11 19:44:07 2019, MaxMem=   671088640 cpu:               0.2 elap:               0.0
 (Enter /shared/centos7/gaussian/g16/l301.exe)
 Standard basis: 6-311+G(2df,2p) (5D, 7F)
 Ernie: Thresh=  0.10000D-02 Tol=  0.10000D-05 Strict=F.
 There are   285 symmetry adapted cartesian basis functions of A   symmetry.
 There are   260 symmetry adapted basis functions of A   symmetry.
   260 basis functions,   370 primitive gaussians,   285 cartesian basis functions
    21 alpha electrons       21 beta electrons
       nuclear repulsion energy       188.4773035016 Hartrees.
 IExCor= 4336 DFT=T Ex+Corr=M062X ExCW=0 ScaHFX=  0.540000
 ScaDFX=  1.000000  1.000000  1.000000  1.000000 ScalE2=  1.000000  1.000000
 IRadAn=      5 IRanWt=     -1 IRanGd=            0 ICorTp=0 IEmpDi=  4
 NAtoms=   15 NActive=   15 NUniq=   15 SFac= 1.00D+00 NAtFMM=   60 NAOKFM=F Big=F
 Integral buffers will be    131072 words long.
 Raffenetti 2 integral format.
 Two-electron integral symmetry is turned on.
 Leave Link  301 at Mon Mar 11 19:44:07 2019, MaxMem=   671088640 cpu:               0.9 elap:               0.1
 (Enter /shared/centos7/gaussian/g16/l302.exe)
 NPDir=0 NMtPBC=     1 NCelOv=     1 NCel=       1 NClECP=     1 NCelD=      1
         NCelK=      1 NCelE2=     1 NClLst=     1 CellRange=     0.0.
 One-electron integrals computed using PRISM.
 One-electron integral symmetry used in STVInt
 NBasis=   260 RedAO= T EigKep=  1.99D-05  NBF=   260
 NBsUse=   260 1.00D-06 EigRej= -1.00D+00 NBFU=   260
 Precomputing XC quadrature grid using
 IXCGrd= 4 IRadAn=           5 IRanWt=          -1 IRanGd=           0 AccXCQ= 0.00D+00.
 Generated NRdTot=       0 NPtTot=           0 NUsed=           0 NTot=          32
 NSgBfM=   285   285   285   285   285 MxSgAt=    15 MxSgA2=    15.
 Leave Link  302 at Mon Mar 11 19:44:07 2019, MaxMem=   671088640 cpu:               8.0 elap:               0.4
 (Enter /shared/centos7/gaussian/g16/l303.exe)
 DipDrv:  MaxL=1.
 Leave Link  303 at Mon Mar 11 19:44:07 2019, MaxMem=   671088640 cpu:               0.5 elap:               0.0
 (Enter /shared/centos7/gaussian/g16/l401.exe)
 ExpMin= 4.38D-02 ExpMax= 8.59D+03 ExpMxC= 1.30D+03 IAcc=3 IRadAn=         5 AccDes= 0.00D+00
 Harris functional with IExCor= 1009 and IRadAn=       5 diagonalized for initial guess.
 HarFok:  IExCor= 1009 AccDes= 0.00D+00 IRadAn=         5 IDoV= 1 UseB2=F ITyADJ=14
 ICtDFT=  3500011 ScaDFX=  1.000000  1.000000  1.000000  1.000000
 FoFCou: FMM=F IPFlag=           0 FMFlag=      100000 FMFlg1=           0
         NFxFlg=           0 DoJE=T BraDBF=F KetDBF=T FulRan=T
         wScrn=  0.000000 ICntrl=       500 IOpCl=  0 I1Cent=   200000004 NGrid=           0
         NMat0=    1 NMatS0=      1 NMatT0=    0 NMatD0=    1 NMtDS0=    0 NMtDT0=    0
 Petite list used in FoFCou.
 Harris En= -233.602017173790    
 JPrj=0 DoOrth=F DoCkMO=F.
 Leave Link  401 at Mon Mar 11 19:44:09 2019, MaxMem=   671088640 cpu:              21.7 elap:               1.1
 (Enter /shared/centos7/gaussian/g16/l502.exe)
 Integral symmetry usage will be decided dynamically.
 Closed shell SCF:
 Using DIIS extrapolation, IDIIS=  1040.
 NGot=   671088640 LenX=   670917793 LenY=   670836127
 Requested convergence on RMS density matrix=1.00D-08 within 128 cycles.
 Requested convergence on MAX density matrix=1.00D-06.
 Requested convergence on             energy=1.00D-06.
 No special actions if energy rises.
 Fock matrices will be formed incrementally for  20 cycles.

 Cycle   1  Pass 1  IDiag  1:
 FoFJK:  IHMeth= 1 ICntrl=       0 DoSepK=F KAlg= 0 I1Cent=           0 FoldK=F
 IRaf= 970000000 NMat=       1 IRICut=       1 DoRegI=T DoRafI=F ISym2E= 0 IDoP0=0 IntGTp=1.
 FoFCou: FMM=F IPFlag=           0 FMFlag=      100000 FMFlg1=           0
         NFxFlg=           0 DoJE=F BraDBF=F KetDBF=F FulRan=T
         wScrn=  0.000000 ICntrl=         0 IOpCl=  0 I1Cent=           0 NGrid=           0
         NMat0=    1 NMatS0=      1 NMatT0=    0 NMatD0=    1 NMtDS0=    0 NMtDT0=    0
 Symmetry not used in FoFCou.
 E= -233.412785723846    
 DIIS: error= 2.29D-02 at cycle   1 NSaved=   1.
 NSaved= 1 IEnMin= 1 EnMin= -233.412785723846     IErMin= 1 ErrMin= 2.29D-02
 ErrMax= 2.29D-02  0.00D+00 EMaxC= 1.00D-01 BMatC= 2.61D-01 BMatP= 2.61D-01
 IDIUse=3 WtCom= 7.71D-01 WtEn= 2.29D-01
 Coeff-Com:  0.100D+01
 Coeff-En:   0.100D+01
 Coeff:      0.100D+01
 Gap=     0.299 Goal=   None    Shift=    0.000
 GapD=    0.299 DampG=1.000 DampE=0.500 DampFc=0.5000 IDamp=-1.
 Damping current iteration by 5.00D-01
 RMSDP=3.71D-03 MaxDP=1.51D-01              OVMax= 1.57D-01

 Cycle   2  Pass 1  IDiag  1:
 RMSU=  1.74D-03    CP:  9.32D-01
 E= -233.523091879018     Delta-E=       -0.110306155172 Rises=F Damp=T
 DIIS: error= 5.10D-03 at cycle   2 NSaved=   2.
 NSaved= 2 IEnMin= 2 EnMin= -233.523091879018     IErMin= 2 ErrMin= 5.10D-03
 ErrMax= 5.10D-03  0.00D+00 EMaxC= 1.00D-01 BMatC= 1.45D-02 BMatP= 2.61D-01
 IDIUse=3 WtCom= 9.49D-01 WtEn= 5.10D-02
 Coeff-Com: -0.685D-01 0.107D+01
 Coeff-En:   0.000D+00 0.100D+01
 Coeff:     -0.650D-01 0.107D+01
 Gap=     0.374 Goal=   None    Shift=    0.000
 RMSDP=1.30D-03 MaxDP=5.09D-02 DE=-1.10D-01 OVMax= 8.21D-02

 Cycle   3  Pass 1  IDiag  1:
 RMSU=  1.22D-03    CP:  9.68D-01  8.38D-01
 E= -233.630834246943     Delta-E=       -0.107742367925 Rises=F Damp=F
 DIIS: error= 2.47D-03 at cycle   3 NSaved=   3.
 NSaved= 3 IEnMin= 3 EnMin= -233.630834246943     IErMin= 3 ErrMin= 2.47D-03
 ErrMax= 2.47D-03  0.00D+00 EMaxC= 1.00D-01 BMatC= 3.10D-03 BMatP= 1.45D-02
 IDIUse=3 WtCom= 9.75D-01 WtEn= 2.47D-02
 Coeff-Com: -0.664D-01 0.300D+00 0.766D+00
 Coeff-En:   0.000D+00 0.000D+00 0.100D+01
 Coeff:     -0.648D-01 0.293D+00 0.772D+00
 Gap=     0.360 Goal=   None    Shift=    0.000
 RMSDP=2.39D-04 MaxDP=1.73D-02 DE=-1.08D-01 OVMax= 1.30D-02

 Cycle   4  Pass 1  IDiag  1:
 RMSU=  2.12D-04    CP:  9.71D-01  8.85D-01  1.05D+00
 E= -233.632510315118     Delta-E=       -0.001676068174 Rises=F Damp=F
 DIIS: error= 1.30D-03 at cycle   4 NSaved=   4.
 NSaved= 4 IEnMin= 4 EnMin= -233.632510315118     IErMin= 4 ErrMin= 1.30D-03
 ErrMax= 1.30D-03  0.00D+00 EMaxC= 1.00D-01 BMatC= 6.97D-04 BMatP= 3.10D-03
 IDIUse=3 WtCom= 9.87D-01 WtEn= 1.30D-02
 Coeff-Com: -0.254D-01 0.713D-01 0.369D+00 0.585D+00
 Coeff-En:   0.000D+00 0.000D+00 0.108D+00 0.892D+00
 Coeff:     -0.251D-01 0.704D-01 0.366D+00 0.589D+00
 Gap=     0.361 Goal=   None    Shift=    0.000
 RMSDP=1.18D-04 MaxDP=9.42D-03 DE=-1.68D-03 OVMax= 4.73D-03

 Cycle   5  Pass 1  IDiag  1:
 RMSU=  4.89D-05    CP:  9.68D-01  8.78D-01  1.02D+00  5.68D-01
 E= -233.633015109271     Delta-E=       -0.000504794153 Rises=F Damp=F
 DIIS: error= 2.56D-04 at cycle   5 NSaved=   5.
 NSaved= 5 IEnMin= 5 EnMin= -233.633015109271     IErMin= 5 ErrMin= 2.56D-04
 ErrMax= 2.56D-04  0.00D+00 EMaxC= 1.00D-01 BMatC= 1.89D-05 BMatP= 6.97D-04
 IDIUse=3 WtCom= 9.97D-01 WtEn= 2.56D-03
 Coeff-Com: -0.363D-02 0.501D-02 0.674D-01 0.194D+00 0.737D+00
 Coeff-En:   0.000D+00 0.000D+00 0.000D+00 0.000D+00 0.100D+01
 Coeff:     -0.362D-02 0.500D-02 0.673D-01 0.194D+00 0.738D+00
 Gap=     0.361 Goal=   None    Shift=    0.000
 RMSDP=5.46D-05 MaxDP=4.39D-03 DE=-5.05D-04 OVMax= 8.32D-04

 Cycle   6  Pass 1  IDiag  1:
 RMSU=  2.37D-05    CP:  9.70D-01  8.70D-01  1.05D+00  6.96D-01  7.92D-01
 E= -233.633029760749     Delta-E=       -0.000014651478 Rises=F Damp=F
 DIIS: error= 5.45D-05 at cycle   6 NSaved=   6.
 NSaved= 6 IEnMin= 6 EnMin= -233.633029760749     IErMin= 6 ErrMin= 5.45D-05
 ErrMax= 5.45D-05  0.00D+00 EMaxC= 1.00D-01 BMatC= 9.37D-07 BMatP= 1.89D-05
 IDIUse=1 WtCom= 1.00D+00 WtEn= 0.00D+00
 Coeff-Com:  0.221D-03-0.190D-02 0.326D-02 0.340D-01 0.226D+00 0.739D+00
 Coeff:      0.221D-03-0.190D-02 0.326D-02 0.340D-01 0.226D+00 0.739D+00
 Gap=     0.361 Goal=   None    Shift=    0.000
 RMSDP=7.20D-06 MaxDP=5.20D-04 DE=-1.47D-05 OVMax= 2.23D-04

 Cycle   7  Pass 1  IDiag  1:
 RMSU=  4.30D-06    CP:  9.70D-01  8.68D-01  1.05D+00  6.99D-01  8.42D-01
                    CP:  1.06D+00
 E= -233.633030601532     Delta-E=       -0.000000840783 Rises=F Damp=F
 DIIS: error= 1.68D-05 at cycle   7 NSaved=   7.
 NSaved= 7 IEnMin= 7 EnMin= -233.633030601532     IErMin= 7 ErrMin= 1.68D-05
 ErrMax= 1.68D-05  0.00D+00 EMaxC= 1.00D-01 BMatC= 1.13D-07 BMatP= 9.37D-07
 IDIUse=1 WtCom= 1.00D+00 WtEn= 0.00D+00
 Coeff-Com:  0.626D-03-0.141D-02-0.870D-02-0.155D-01-0.274D-01 0.245D+00
 Coeff-Com:  0.807D+00
 Coeff:      0.626D-03-0.141D-02-0.870D-02-0.155D-01-0.274D-01 0.245D+00
 Coeff:      0.807D+00
 Gap=     0.361 Goal=   None    Shift=    0.000
 RMSDP=4.38D-06 MaxDP=3.92D-04 DE=-8.41D-07 OVMax= 8.32D-05

 Cycle   8  Pass 1  IDiag  1:
 RMSU=  1.35D-06    CP:  9.70D-01  8.67D-01  1.05D+00  7.06D-01  8.49D-01
                    CP:  1.14D+00  1.12D+00
 E= -233.633030715390     Delta-E=       -0.000000113858 Rises=F Damp=F
 DIIS: error= 1.74D-06 at cycle   8 NSaved=   8.
 NSaved= 8 IEnMin= 8 EnMin= -233.633030715390     IErMin= 8 ErrMin= 1.74D-06
 ErrMax= 1.74D-06  0.00D+00 EMaxC= 1.00D-01 BMatC= 1.84D-09 BMatP= 1.13D-07
 IDIUse=1 WtCom= 1.00D+00 WtEn= 0.00D+00
 Coeff-Com:  0.955D-04-0.198D-03-0.174D-02-0.412D-02-0.131D-01 0.199D-01
 Coeff-Com:  0.152D+00 0.847D+00
 Coeff:      0.955D-04-0.198D-03-0.174D-02-0.412D-02-0.131D-01 0.199D-01
 Coeff:      0.152D+00 0.847D+00
 Gap=     0.361 Goal=   None    Shift=    0.000
 RMSDP=5.10D-07 MaxDP=3.26D-05 DE=-1.14D-07 OVMax= 1.19D-05

 Cycle   9  Pass 1  IDiag  1:
 RMSU=  2.74D-07    CP:  9.70D-01  8.66D-01  1.05D+00  7.06D-01  8.50D-01
                    CP:  1.15D+00  1.16D+00  1.06D+00
 E= -233.633030717402     Delta-E=       -0.000000002013 Rises=F Damp=F
 DIIS: error= 4.99D-07 at cycle   9 NSaved=   9.
 NSaved= 9 IEnMin= 9 EnMin= -233.633030717402     IErMin= 9 ErrMin= 4.99D-07
 ErrMax= 4.99D-07  0.00D+00 EMaxC= 1.00D-01 BMatC= 8.14D-11 BMatP= 1.84D-09
 IDIUse=1 WtCom= 1.00D+00 WtEn= 0.00D+00
 Coeff-Com: -0.181D-04 0.392D-04 0.129D-03 0.904D-04-0.635D-03-0.704D-02
 Coeff-Com: -0.127D-01 0.137D+00 0.883D+00
 Coeff:     -0.181D-04 0.392D-04 0.129D-03 0.904D-04-0.635D-03-0.704D-02
 Coeff:     -0.127D-01 0.137D+00 0.883D+00
 Gap=     0.361 Goal=   None    Shift=    0.000
 RMSDP=1.43D-07 MaxDP=6.02D-06 DE=-2.01D-09 OVMax= 2.62D-06

 Cycle  10  Pass 1  IDiag  1:
 RMSU=  5.64D-08    CP:  9.70D-01  8.66D-01  1.05D+00  7.06D-01  8.51D-01
                    CP:  1.14D+00  1.18D+00  1.14D+00  1.05D+00
 E= -233.633030717505     Delta-E=       -0.000000000103 Rises=F Damp=F
 DIIS: error= 1.16D-07 at cycle  10 NSaved=  10.
 NSaved=10 IEnMin=10 EnMin= -233.633030717505     IErMin=10 ErrMin= 1.16D-07
 ErrMax= 1.16D-07  0.00D+00 EMaxC= 1.00D-01 BMatC= 4.35D-12 BMatP= 8.14D-11
 IDIUse=1 WtCom= 1.00D+00 WtEn= 0.00D+00
 Coeff-Com: -0.671D-05 0.149D-04 0.866D-04 0.148D-03 0.265D-03-0.216D-02
 Coeff-Com: -0.779D-02-0.241D-02 0.176D+00 0.836D+00
 Coeff:     -0.671D-05 0.149D-04 0.866D-04 0.148D-03 0.265D-03-0.216D-02
 Coeff:     -0.779D-02-0.241D-02 0.176D+00 0.836D+00
 Gap=     0.361 Goal=   None    Shift=    0.000
 RMSDP=2.95D-08 MaxDP=2.16D-06 DE=-1.03D-10 OVMax= 7.78D-07

 Cycle  11  Pass 1  IDiag  1:
 RMSU=  1.35D-08    CP:  9.70D-01  8.66D-01  1.05D+00  7.06D-01  8.51D-01
                    CP:  1.14D+00  1.18D+00  1.14D+00  1.08D+00  1.08D+00
 E= -233.633030717507     Delta-E=       -0.000000000002 Rises=F Damp=F
 DIIS: error= 3.40D-08 at cycle  11 NSaved=  11.
 NSaved=11 IEnMin=11 EnMin= -233.633030717507     IErMin=11 ErrMin= 3.40D-08
 ErrMax= 3.40D-08  0.00D+00 EMaxC= 1.00D-01 BMatC= 5.26D-13 BMatP= 4.35D-12
 IDIUse=1 WtCom= 1.00D+00 WtEn= 0.00D+00
 Coeff-Com:  0.509D-07 0.263D-06 0.949D-05 0.202D-04 0.740D-04-0.340D-04
 Coeff-Com: -0.813D-03-0.939D-02-0.194D-01 0.212D+00 0.818D+00
 Coeff:      0.509D-07 0.263D-06 0.949D-05 0.202D-04 0.740D-04-0.340D-04
 Coeff:     -0.813D-03-0.939D-02-0.194D-01 0.212D+00 0.818D+00
 Gap=     0.361 Goal=   None    Shift=    0.000
 RMSDP=1.13D-08 MaxDP=8.08D-07 DE=-1.53D-12 OVMax= 2.43D-07

 Cycle  12  Pass 1  IDiag  1:
 RMSU=  3.67D-09    CP:  9.70D-01  8.66D-01  1.05D+00  7.06D-01  8.51D-01
                    CP:  1.14D+00  1.18D+00  1.15D+00  1.09D+00  1.18D+00
                    CP:  1.09D+00
 E= -233.633030717514     Delta-E=       -0.000000000007 Rises=F Damp=F
 DIIS: error= 1.31D-08 at cycle  12 NSaved=  12.
 NSaved=12 IEnMin=12 EnMin= -233.633030717514     IErMin=12 ErrMin= 1.31D-08
 ErrMax= 1.31D-08  0.00D+00 EMaxC= 1.00D-01 BMatC= 7.95D-14 BMatP= 5.26D-13
 IDIUse=1 WtCom= 1.00D+00 WtEn= 0.00D+00
 Coeff-Com:  0.649D-06-0.126D-05-0.406D-05-0.641D-05-0.128D-05 0.172D-03
 Coeff-Com:  0.407D-03-0.325D-02-0.241D-01-0.174D-02 0.303D+00 0.725D+00
 Coeff:      0.649D-06-0.126D-05-0.406D-05-0.641D-05-0.128D-05 0.172D-03
 Coeff:      0.407D-03-0.325D-02-0.241D-01-0.174D-02 0.303D+00 0.725D+00
 Gap=     0.361 Goal=   None    Shift=    0.000
 RMSDP=2.87D-09 MaxDP=2.06D-07 DE=-6.71D-12 OVMax= 8.37D-08

 SCF Done:  E(RM062X) =  -233.633030718     A.U. after   12 cycles
            NFock= 12  Conv=0.29D-08     -V/T= 2.0040
 KE= 2.327044275791D+02 PE=-9.212907570984D+02 EE= 2.664759953002D+02
 Leave Link  502 at Mon Mar 11 19:44:36 2019, MaxMem=   671088640 cpu:             543.9 elap:              27.3
 (Enter /shared/centos7/gaussian/g16/l801.exe)
 DoSCS=F DFT=T ScalE2(SS,OS)=  1.000000  1.000000
 Range of M.O.s used for correlation:     1   260
 NBasis=   260 NAE=    21 NBE=    21 NFC=     0 NFV=     0
 NROrb=    260 NOA=    21 NOB=    21 NVA=   239 NVB=   239

 **** Warning!!: The largest alpha MO coefficient is  0.63912939D+02

 Leave Link  801 at Mon Mar 11 19:44:36 2019, MaxMem=   671088640 cpu:               0.3 elap:               0.0
 (Enter /shared/centos7/gaussian/g16/l1101.exe)
 Using compressed storage, NAtomX=    15.
 Will process     16 centers per pass.
 Leave Link 1101 at Mon Mar 11 19:44:36 2019, MaxMem=   671088640 cpu:               6.4 elap:               0.3
 (Enter /shared/centos7/gaussian/g16/l1102.exe)
 Symmetrizing basis deriv contribution to polar:
 IMax=3 JMax=2 DiffMx= 0.00D+00
 Leave Link 1102 at Mon Mar 11 19:44:36 2019, MaxMem=   671088640 cpu:               0.5 elap:               0.0
 (Enter /shared/centos7/gaussian/g16/l1110.exe)
 Forming Gx(P) for the SCF density, NAtomX=    15.
 Integral derivatives from FoFJK, PRISM(SPDF).
 Do as many integral derivatives as possible in FoFJK.
 G2DrvN: MDV=     671087424.
 G2DrvN: will do    16 centers at a time, making    1 passes.
 Calling FoFCou, ICntrl=  3107 FMM=F I1Cent=   0 AccDes= 0.00D+00.
 FoFJK:  IHMeth= 1 ICntrl=    3107 DoSepK=F KAlg= 0 I1Cent=           0 FoldK=F
 IRaf=         0 NMat=       1 IRICut=       1 DoRegI=T DoRafI=F ISym2E= 0 IDoP0=0 IntGTp=1.
 FoFCou: FMM=F IPFlag=           0 FMFlag=      100000 FMFlg1=           0
         NFxFlg=           0 DoJE=F BraDBF=F KetDBF=F FulRan=T
         wScrn=  0.000000 ICntrl=      3107 IOpCl=  0 I1Cent=           0 NGrid=           0
         NMat0=    1 NMatS0=      1 NMatT0=    0 NMatD0=    1 NMtDS0=    0 NMtDT0=    0
 Symmetry not used in FoFCou.
 End of G2Drv F.D. properties file   721 does not exist.
 End of G2Drv F.D. properties file   722 does not exist.
 End of G2Drv F.D. properties file   788 does not exist.
 Leave Link 1110 at Mon Mar 11 19:45:32 2019, MaxMem=   671088640 cpu:            1110.9 elap:              55.6
 (Enter /shared/centos7/gaussian/g16/l1002.exe)
 Minotr:  Closed shell wavefunction.
          IDoAtm=111111111111111
          Direct CPHF calculation.
          Differentiating once with respect to nuclear coordinates.
          Requested convergence is 1.0D-08 RMS, and 1.0D-07 maximum.
          Secondary convergence is 1.0D-12 RMS, and 1.0D-12 maximum.
          NewPWx=T KeepS1=F KeepF1=F KeepIn=T MapXYZ=F SortEE=F KeepMc=T.
         4569 words used for storage of precomputed grid.
 Keep R1 ints in memory in canonical form, NReq=597923371.
 FoFCou: FMM=F IPFlag=           0 FMFlag=           0 FMFlg1=           0
         NFxFlg=           0 DoJE=F BraDBF=F KetDBF=F FulRan=T
         wScrn=  0.000000 ICntrl=       600 IOpCl=  0 I1Cent=           0 NGrid=           0
         NMat0=    1 NMatS0=  33930 NMatT0=    0 NMatD0=    1 NMtDS0=    0 NMtDT0=    0
 Symmetry not used in FoFCou.
 Two-electron integral symmetry not used.
          MDV=     671088640 using IRadAn=       1.
          Solving linear equations simultaneously, MaxMat=       0.
          There are    48 degrees of freedom in the 1st order CPHF.  IDoFFX=6 NUNeed=     0.
     42 vectors produced by pass  0 Test12= 1.05D-14 2.08D-09 XBig12= 6.34D-02 5.58D-02.
 AX will form    42 AO Fock derivatives at one time.
     42 vectors produced by pass  1 Test12= 1.05D-14 2.08D-09 XBig12= 2.72D-03 1.13D-02.
     42 vectors produced by pass  2 Test12= 1.05D-14 2.08D-09 XBig12= 1.22D-04 1.18D-03.
     42 vectors produced by pass  3 Test12= 1.05D-14 2.08D-09 XBig12= 1.34D-06 1.49D-04.
     42 vectors produced by pass  4 Test12= 1.05D-14 2.08D-09 XBig12= 8.64D-09 9.40D-06.
     42 vectors produced by pass  5 Test12= 1.05D-14 2.08D-09 XBig12= 4.24D-11 6.63D-07.
     19 vectors produced by pass  6 Test12= 1.05D-14 2.08D-09 XBig12= 1.62D-13 3.72D-08.
      1 vectors produced by pass  7 Test12= 1.05D-14 2.08D-09 XBig12= 6.09D-16 3.38D-09.
 InvSVY:  IOpt=1 It=  1 EMax= 1.78D-15
 Solved reduced A of dimension   272 with    42 vectors.
 End of Minotr F.D. properties file   721 does not exist.
 End of Minotr F.D. properties file   722 does not exist.
 End of Minotr F.D. properties file   788 does not exist.
 Leave Link 1002 at Mon Mar 11 19:46:34 2019, MaxMem=   671088640 cpu:            1211.3 elap:              61.9
 (Enter /shared/centos7/gaussian/g16/l601.exe)
 Copying SCF densities to generalized density rwf, IOpCl= 0 IROHF=0.

 **********************************************************************

            Population analysis using the SCF density.

 **********************************************************************

 Orbital symmetries:
       Occupied  (A) (A) (A) (A) (A) (A) (A) (A) (A) (A) (A) (A)
                 (A) (A) (A) (A) (A) (A) (A) (A) (A)
       Virtual   (A) (A) (A) (A) (A) (A) (A) (A) (A) (A) (A) (A)
                 (A) (A) (A) (A) (A) (A) (A) (A) (A) (A) (A) (A)
                 (A) (A) (A) (A) (A) (A) (A) (A) (A) (A) (A) (A)
                 (A) (A) (A) (A) (A) (A) (A) (A) (A) (A) (A) (A)
                 (A) (A) (A) (A) (A) (A) (A) (A) (A) (A) (A) (A)
                 (A) (A) (A) (A) (A) (A) (A) (A) (A) (A) (A) (A)
                 (A) (A) (A) (A) (A) (A) (A) (A) (A) (A) (A) (A)
                 (A) (A) (A) (A) (A) (A) (A) (A) (A) (A) (A) (A)
                 (A) (A) (A) (A) (A) (A) (A) (A) (A) (A) (A) (A)
                 (A) (A) (A) (A) (A) (A) (A) (A) (A) (A) (A) (A)
                 (A) (A) (A) (A) (A) (A) (A) (A) (A) (A) (A) (A)
                 (A) (A) (A) (A) (A) (A) (A) (A) (A) (A) (A) (A)
                 (A) (A) (A) (A) (A) (A) (A) (A) (A) (A) (A) (A)
                 (A) (A) (A) (A) (A) (A) (A) (A) (A) (A) (A) (A)
                 (A) (A) (A) (A) (A) (A) (A) (A) (A) (A) (A) (A)
                 (A) (A) (A) (A) (A) (A) (A) (A) (A) (A) (A) (A)
                 (A) (A) (A) (A) (A) (A) (A) (A) (A) (A) (A) (A)
                 (A) (A) (A) (A) (A) (A) (A) (A) (A) (A) (A) (A)
                 (A) (A) (A) (A) (A) (A) (A) (A) (A) (A) (A) (A)
                 (A) (A) (A) (A) (A) (A) (A) (A) (A) (A) (A)
 The electronic state is 1-A.
 Alpha  occ. eigenvalues --  -19.61845 -10.57815 -10.53585 -10.52976 -10.52569
 Alpha  occ. eigenvalues --   -1.14311  -0.89843  -0.81818  -0.72702  -0.66605
 Alpha  occ. eigenvalues --   -0.58777  -0.54409  -0.51687  -0.51097  -0.46321
 Alpha  occ. eigenvalues --   -0.45236  -0.42725  -0.40851  -0.39592  -0.38024
 Alpha  occ. eigenvalues --   -0.34658
 Alpha virt. eigenvalues --    0.01418   0.02671   0.02852   0.03831   0.05777
 Alpha virt. eigenvalues --    0.05958   0.06637   0.07517   0.08029   0.08728
 Alpha virt. eigenvalues --    0.10088   0.10698   0.12909   0.14519   0.15574
 Alpha virt. eigenvalues --    0.17645   0.18408   0.19082   0.20212   0.21141
 Alpha virt. eigenvalues --    0.21908   0.22329   0.23994   0.24592   0.26160
 Alpha virt. eigenvalues --    0.26689   0.27330   0.28570   0.29100   0.29932
 Alpha virt. eigenvalues --    0.31027   0.31391   0.31709   0.36345   0.41431
 Alpha virt. eigenvalues --    0.43307   0.43765   0.45258   0.46775   0.49394
 Alpha virt. eigenvalues --    0.51718   0.53267   0.54261   0.55945   0.56752
 Alpha virt. eigenvalues --    0.57767   0.58695   0.59940   0.60960   0.63483
 Alpha virt. eigenvalues --    0.63724   0.64263   0.64888   0.65942   0.67459
 Alpha virt. eigenvalues --    0.68543   0.69926   0.70350   0.74104   0.76571
 Alpha virt. eigenvalues --    0.80085   0.80829   0.81024   0.86389   0.88771
 Alpha virt. eigenvalues --    0.90996   0.91953   0.94873   0.95737   0.99891
 Alpha virt. eigenvalues --    1.03102   1.04698   1.06545   1.09225   1.12041
 Alpha virt. eigenvalues --    1.13507   1.14654   1.16266   1.16555   1.17949
 Alpha virt. eigenvalues --    1.19315   1.21179   1.21663   1.22228   1.24820
 Alpha virt. eigenvalues --    1.25773   1.27891   1.29224   1.31681   1.32940
 Alpha virt. eigenvalues --    1.33228   1.37921   1.38787   1.39929   1.43529
 Alpha virt. eigenvalues --    1.44322   1.44924   1.45495   1.45902   1.48169
 Alpha virt. eigenvalues --    1.49263   1.52049   1.54853   1.56350   1.58827
 Alpha virt. eigenvalues --    1.60042   1.60820   1.62705   1.64204   1.64404
 Alpha virt. eigenvalues --    1.67866   1.68729   1.73454   1.79420   1.97662
 Alpha virt. eigenvalues --    2.09624   2.15507   2.29287   2.31384   2.40680
 Alpha virt. eigenvalues --    2.45695   2.48723   2.50521   2.56962   2.59094
 Alpha virt. eigenvalues --    2.63985   2.66363   2.75423   2.76310   2.78468
 Alpha virt. eigenvalues --    2.81430   2.83341   2.85689   2.89296   2.91513
 Alpha virt. eigenvalues --    2.94856   2.97638   2.98777   3.03306   3.04198
 Alpha virt. eigenvalues --    3.08897   3.13106   3.16287   3.16809   3.18264
 Alpha virt. eigenvalues --    3.20815   3.24119   3.26311   3.27773   3.30602
 Alpha virt. eigenvalues --    3.33951   3.35144   3.37536   3.38725   3.40039
 Alpha virt. eigenvalues --    3.43796   3.47339   3.51855   3.52751   3.55283
 Alpha virt. eigenvalues --    3.57767   3.59275   3.62024   3.63859   3.66086
 Alpha virt. eigenvalues --    3.68981   3.70871   3.71142   3.74947   3.78185
 Alpha virt. eigenvalues --    3.79341   3.83609   3.88203   3.88923   3.90785
 Alpha virt. eigenvalues --    3.95781   3.98666   3.99720   4.00114   4.01806
 Alpha virt. eigenvalues --    4.07066   4.09897   4.10957   4.13337   4.14994
 Alpha virt. eigenvalues --    4.19157   4.19907   4.22636   4.23081   4.25409
 Alpha virt. eigenvalues --    4.27404   4.28549   4.31145   4.33207   4.37529
 Alpha virt. eigenvalues --    4.38762   4.41831   4.43082   4.46319   4.52611
 Alpha virt. eigenvalues --    4.53029   4.54540   4.56782   4.60073   4.62526
 Alpha virt. eigenvalues --    4.64907   4.67566   4.78289   4.79905   5.02436
 Alpha virt. eigenvalues --    5.18756   5.22446   5.24915   5.26203   5.38739
 Alpha virt. eigenvalues --    5.40972   5.43810   5.50269   5.51216   5.58790
 Alpha virt. eigenvalues --    5.59845   5.61533   5.64958   5.65750   5.67540
 Alpha virt. eigenvalues --    5.85044   5.96185   6.51131   6.99998   7.19525
 Alpha virt. eigenvalues --    7.22658   7.24224   7.51990   7.62877  24.26891
 Alpha virt. eigenvalues --   24.38819  24.43793  24.50303  50.14842
          Condensed to atoms (all electrons):
               1          2          3          4          5          6
     1  O    8.076124   0.028845  -0.071279   0.139120   0.010857  -0.000931
     2  C    0.028845   5.689056  -0.312004  -0.002253   0.209826  -0.050127
     3  C   -0.071279  -0.312004   5.688513   0.234136  -0.063162   0.434020
     4  C    0.139120  -0.002253   0.234136   5.263268  -0.153469   0.002429
     5  C    0.010857   0.209826  -0.063162  -0.153469   5.355531  -0.027993
     6  H   -0.000931  -0.050127   0.434020   0.002429  -0.027993   0.525926
     7  H    0.005139  -0.036051   0.440822  -0.015428  -0.037688  -0.039906
     8  H    0.008172   0.436359  -0.042928  -0.049332   0.005340  -0.007307
     9  H   -0.012334   0.453873  -0.052478  -0.031699  -0.006690   0.005397
    10  H   -0.040921   0.057173  -0.061742   0.375251   0.010003   0.002574
    11  H   -0.054823  -0.073554   0.019230   0.461287   0.000854   0.000016
    12  H   -0.000308  -0.021133  -0.014207   0.001285   0.407946   0.006237
    13  H    0.000093   0.021530  -0.048038   0.002201   0.409581  -0.004574
    14  H   -0.000045  -0.031284  -0.000102   0.002234   0.400732  -0.008240
    15  H    0.255433  -0.030530   0.029902  -0.017594   0.002125  -0.001033
               7          8          9         10         11         12
     1  O    0.005139   0.008172  -0.012334  -0.040921  -0.054823  -0.000308
     2  C   -0.036051   0.436359   0.453873   0.057173  -0.073554  -0.021133
     3  C    0.440822  -0.042928  -0.052478  -0.061742   0.019230  -0.014207
     4  C   -0.015428  -0.049332  -0.031699   0.375251   0.461287   0.001285
     5  C   -0.037688   0.005340  -0.006690   0.010003   0.000854   0.407946
     6  H   -0.039906  -0.007307   0.005397   0.002574   0.000016   0.006237
     7  H    0.538908   0.005930  -0.006437   0.001025  -0.000415  -0.008131
     8  H    0.005930   0.525836  -0.031188  -0.004554  -0.003146  -0.000895
     9  H   -0.006437  -0.031188   0.492967   0.004364  -0.005614   0.001871
    10  H    0.001025  -0.004554   0.004364   0.553289  -0.030124  -0.000033
    11  H   -0.000415  -0.003146  -0.005614  -0.030124   0.534360  -0.000002
    12  H   -0.008131  -0.000895   0.001871  -0.000033  -0.000002   0.548662
    13  H   -0.004833   0.000003  -0.000122  -0.000010   0.000014  -0.024650
    14  H    0.006410   0.002372  -0.000064  -0.000036  -0.000038  -0.036979
    15  H    0.000296   0.000011   0.000026  -0.009517   0.008963   0.000021
              13         14         15
     1  O    0.000093  -0.000045   0.255433
     2  C    0.021530  -0.031284  -0.030530
     3  C   -0.048038  -0.000102   0.029902
     4  C    0.002201   0.002234  -0.017594
     5  C    0.409581   0.400732   0.002125
     6  H   -0.004574  -0.008240  -0.001033
     7  H   -0.004833   0.006410   0.000296
     8  H    0.000003   0.002372   0.000011
     9  H   -0.000122  -0.000064   0.000026
    10  H   -0.000010  -0.000036  -0.009517
    11  H    0.000014  -0.000038   0.008963
    12  H   -0.024650  -0.036979   0.000021
    13  H    0.538403  -0.025120   0.000003
    14  H   -0.025120   0.552464  -0.000014
    15  H    0.000003  -0.000014   0.520246
 Mulliken charges:
               1
     1  O   -0.343142
     2  C   -0.339726
     3  C   -0.180683
     4  C   -0.211436
     5  C   -0.523795
     6  H    0.163512
     7  H    0.150359
     8  H    0.155328
     9  H    0.188127
    10  H    0.143256
    11  H    0.142993
    12  H    0.140316
    13  H    0.135518
    14  H    0.137712
    15  H    0.241661
 Sum of Mulliken charges =  -0.00000
 Mulliken charges with hydrogens summed into heavy atoms:
               1
     1  O   -0.101481
     2  C    0.003729
     3  C    0.133188
     4  C    0.074813
     5  C   -0.110249
 APT charges:
               1
     1  O   -0.607883
     2  C   -0.751215
     3  C   -0.497451
     4  C   -0.669805
     5  C   -1.335999
     6  H    0.349682
     7  H    0.296494
     8  H    0.383274
     9  H    0.364407
    10  H    0.344060
    11  H    0.482905
    12  H    0.335873
    13  H    0.507336
    14  H    0.376413
    15  H    0.421908
 Sum of APT charges =  -0.00000
 APT charges with hydrogens summed into heavy atoms:
               1
     1  O   -0.185975
     2  C   -0.003534
     3  C    0.148725
     4  C    0.157160
     5  C   -0.116376
 Electronic spatial extent (au):  <R**2>=            602.6741
 Charge=             -0.0000 electrons
 Dipole moment (field-independent basis, Debye):
    X=             -1.4807    Y=              0.1306    Z=              1.0237  Tot=              1.8048
 Quadrupole moment (field-independent basis, Debye-Ang):
   XX=            -39.0118   YY=            -31.1082   ZZ=            -33.8281
   XY=              1.4417   XZ=              1.8719   YZ=             -0.9036
 Traceless Quadrupole moment (field-independent basis, Debye-Ang):
   XX=             -4.3624   YY=              3.5411   ZZ=              0.8213
   XY=              1.4417   XZ=              1.8719   YZ=             -0.9036
 Octapole moment (field-independent basis, Debye-Ang**2):
  XXX=             -5.5238  YYY=             -6.9801  ZZZ=             -0.4310  XYY=              5.8095
  XXY=              3.7168  XXZ=              3.8640  XZZ=              1.7334  YZZ=             -0.3537
  YYZ=              0.9265  XYZ=             -2.2983
 Hexadecapole moment (field-independent basis, Debye-Ang**3):
 XXXX=           -645.6975 YYYY=           -116.8446 ZZZZ=            -74.6327 XXXY=             12.5801
 XXXZ=              2.2665 YYYX=            -11.7473 YYYZ=              0.5055 ZZZX=              1.5540
 ZZZY=             -0.5870 XXYY=           -114.4427 XXZZ=           -114.7926 YYZZ=            -35.5897
 XXYZ=             -4.1489 YYXZ=             -1.0249 ZZXY=             -0.6379
 N-N= 1.884773035016D+02 E-N=-9.212907582822D+02  KE= 2.327044275791D+02
  Exact polarizability:   0.000   0.000   0.000   0.000   0.000   0.000
 Approx polarizability:  61.902  -0.079  63.131  -0.357  -0.038  60.972
 No NMR shielding tensors so no spin-rotation constants.
 Leave Link  601 at Mon Mar 11 19:46:34 2019, MaxMem=   671088640 cpu:               5.4 elap:               0.3
 (Enter /shared/centos7/gaussian/g16/l701.exe)
 ... and contract with generalized density number  0.
 Compute integral second derivatives.
 Leave Link  701 at Mon Mar 11 19:46:34 2019, MaxMem=   671088640 cpu:               7.2 elap:               0.4
 (Enter /shared/centos7/gaussian/g16/l702.exe)
 L702 exits ... SP integral derivatives will be done elsewhere.
 Leave Link  702 at Mon Mar 11 19:46:35 2019, MaxMem=   671088640 cpu:               0.3 elap:               0.0
 (Enter /shared/centos7/gaussian/g16/l703.exe)
 Integral derivatives from FoFJK, PRISM(SPDF).
 Compute integral second derivatives, UseDBF=F ICtDFT=           0.
 Calling FoFJK, ICntrl=    100147 FMM=F ISym2X=0 I1Cent= 0 IOpClX= 0 NMat=1 NMatS=1 NMatT=0.
 FoFJK:  IHMeth= 1 ICntrl=  100147 DoSepK=F KAlg= 0 I1Cent=           0 FoldK=F
 IRaf=         0 NMat=       1 IRICut=       1 DoRegI=T DoRafI=F ISym2E= 0 IDoP0=0 IntGTp=1.
 FoFCou: FMM=F IPFlag=           0 FMFlag=      100000 FMFlg1=         800
         NFxFlg=           0 DoJE=F BraDBF=F KetDBF=F FulRan=T
         wScrn=  0.000000 ICntrl=    100147 IOpCl=  0 I1Cent=           0 NGrid=           0
         NMat0=    1 NMatS0=      1 NMatT0=    0 NMatD0=    1 NMtDS0=    0 NMtDT0=    0
 Symmetry not used in FoFCou.
 Leave Link  703 at Mon Mar 11 19:47:45 2019, MaxMem=   671088640 cpu:            1405.1 elap:              70.3
 (Enter /shared/centos7/gaussian/g16/l716.exe)
 Dipole        =-5.82537158D-01 5.13888627D-02 4.02763216D-01
 Polarizability= 0.00000000D+00 0.00000000D+00 0.00000000D+00
                 0.00000000D+00 0.00000000D+00 0.00000000D+00
 ***** Axes restored to original set *****
 -------------------------------------------------------------------
 Center     Atomic                   Forces (Hartrees/Bohr)
 Number     Number              X              Y              Z
 -------------------------------------------------------------------
      1        8           0.000001237    0.000001809    0.000002888
      2        6          -0.000000273    0.000000432   -0.000000412
      3        6           0.000000067   -0.000000197   -0.000000279
      4        6          -0.000000888    0.000002813    0.000000185
      5        6          -0.000000028   -0.000003202   -0.000001040
      6        1          -0.000000386    0.000001604    0.000000752
      7        1           0.000001599   -0.000000467    0.000002243
      8        1          -0.000001754   -0.000000265   -0.000002828
      9        1           0.000000262   -0.000002004   -0.000001065
     10        1          -0.000001378    0.000004039    0.000000686
     11        1          -0.000001303    0.000002176   -0.000000333
     12        1           0.000001124   -0.000004370   -0.000001177
     13        1           0.000001158   -0.000002288   -0.000000502
     14        1          -0.000000956   -0.000002057   -0.000003002
     15        1           0.000001518    0.000001976    0.000003885
 -------------------------------------------------------------------
 Cartesian Forces:  Max     0.000004370 RMS     0.000001829
 FormGI is forming the generalized inverse of G from B-inverse, IUseBI=4.
 Leave Link  716 at Mon Mar 11 19:47:45 2019, MaxMem=   671088640 cpu:               0.6 elap:               0.1
 (Enter /shared/centos7/gaussian/g16/l103.exe)

 GradGradGradGradGradGradGradGradGradGradGradGradGradGradGradGradGradGrad
 Berny optimization.
 Red2BG is reusing G-inverse.
 Internal  Forces:  Max     0.000000446 RMS     0.000000120
 Search for a local minimum.
 Step number   1 out of a maximum of   79 on scan point     1 out of    37
 All quantities printed in internal units (Hartrees-Bohrs-Radians)
 RMS Force = .12107D-06 SwitMx=.10000D-02 MixMth= 2
 Mixed Optimization -- En-DIIS/RFO-DIIS
 Second derivative matrix not updated -- analytic derivatives used.
 ITU=  0
     Eigenvalues ---    0.00202   0.00236   0.00356   0.01502   0.03248
     Eigenvalues ---    0.03722   0.03820   0.04098   0.04566   0.04963
     Eigenvalues ---    0.05887   0.06681   0.07105   0.09334   0.10489
     Eigenvalues ---    0.11988   0.12144   0.13112   0.13499   0.15821
     Eigenvalues ---    0.16774   0.18004   0.22540   0.24402   0.28806
     Eigenvalues ---    0.30286   0.32049   0.32245   0.32880   0.33283
     Eigenvalues ---    0.33781   0.33913   0.34042   0.34131   0.34180
     Eigenvalues ---    0.35048   0.39689   0.549791000.000001000.00000
     Eigenvalues --- 1000.000001000.000001000.000001000.000001000.00000
     Eigenvalues --- 1000.000001000.000001000.000001000.000001000.00000
     Eigenvalues --- 1000.000001000.000001000.000001000.000001000.00000
     Eigenvalues --- 1000.000001000.000001000.000001000.000001000.00000
     Eigenvalues --- 1000.000001000.000001000.000001000.000001000.00000
     Eigenvalues --- 1000.000001000.000001000.000001000.00000
 RFO step:  Lambda= 0.00000000D+00 EMin= 2.02124075D-03
 Linear search not attempted -- first point.
 Iteration  1 RMS(Cart)=  0.00000111 RMS(Int)=  0.00000000
 Iteration  2 RMS(Cart)=  0.00000000 RMS(Int)=  0.00000000
 Iteration  1 RMS(Cart)=  0.00000000 RMS(Int)=  0.00000000
 ITry= 1 IFail=0 DXMaxC= 5.48D-06 DCOld= 1.00D+10 DXMaxT= 3.00D-01 DXLimC= 3.00D+00 Rises=F
 Variable       Old X    -DE/DX   Delta X   Delta X   Delta X     New X
                                 (Linear)    (Quad)   (Total)
    R1        2.67565   0.00000   0.00000   0.00000   0.00000   2.67566
    R2        1.81158   0.00000   0.00000   0.00000   0.00000   1.81158
    R3        2.88194   0.00000   0.00000   0.00000   0.00000   2.88194
    R4        2.87321  -0.00000   0.00000  -0.00000  -0.00000   2.87320
    R5        2.06730  -0.00000   0.00000  -0.00000  -0.00000   2.06730
    R6        2.06536   0.00000   0.00000   0.00000   0.00000   2.06536
    R7        2.88073  -0.00000   0.00000  -0.00000  -0.00000   2.88073
    R8        2.06751   0.00000   0.00000   0.00000   0.00000   2.06752
    R9        2.06598  -0.00000   0.00000  -0.00000  -0.00000   2.06598
   R10        2.07193   0.00000   0.00000   0.00000   0.00000   2.07193
   R11        2.05829  -0.00000   0.00000  -0.00000  -0.00000   2.05829
   R12        2.06092  -0.00000   0.00000  -0.00000  -0.00000   2.06092
   R13        2.05831  -0.00000   0.00000  -0.00000  -0.00000   2.05830
   R14        2.06107   0.00000   0.00000   0.00000   0.00000   2.06107
    A1        1.90343   0.00000   0.00000   0.00000   0.00000   1.90343
    A2        1.97838   0.00000   0.00000   0.00000   0.00000   1.97838
    A3        1.90705  -0.00000   0.00000  -0.00000  -0.00000   1.90705
    A4        1.91358  -0.00000   0.00000  -0.00000  -0.00000   1.91358
    A5        1.89291   0.00000   0.00000   0.00000   0.00000   1.89291
    A6        1.89963  -0.00000   0.00000  -0.00000  -0.00000   1.89963
    A7        1.86907   0.00000   0.00000   0.00000   0.00000   1.86907
    A8        1.96176   0.00000   0.00000   0.00000   0.00000   1.96176
    A9        1.90673  -0.00000   0.00000  -0.00000  -0.00000   1.90673
   A10        1.91324  -0.00000   0.00000   0.00000   0.00000   1.91324
   A11        1.91511  -0.00000   0.00000  -0.00000  -0.00000   1.91511
   A12        1.90101  -0.00000   0.00000   0.00000   0.00000   1.90101
   A13        1.86340   0.00000   0.00000  -0.00000  -0.00000   1.86340
   A14        1.97209   0.00000   0.00000   0.00000   0.00000   1.97209
   A15        1.92805  -0.00000   0.00000  -0.00000  -0.00000   1.92805
   A16        1.84335  -0.00000   0.00000  -0.00000  -0.00000   1.84335
   A17        1.91745   0.00000   0.00000   0.00000   0.00000   1.91745
   A18        1.92349   0.00000   0.00000   0.00000   0.00000   1.92349
   A19        1.87588   0.00000   0.00000   0.00000   0.00000   1.87588
   A20        1.93183  -0.00000   0.00000  -0.00000  -0.00000   1.93183
   A21        1.94922   0.00000   0.00000   0.00000   0.00000   1.94923
   A22        1.93311  -0.00000   0.00000  -0.00000  -0.00000   1.93311
   A23        1.88397   0.00000   0.00000   0.00000   0.00000   1.88397
   A24        1.87888   0.00000   0.00000  -0.00000  -0.00000   1.87888
   A25        1.88435   0.00000   0.00000   0.00000   0.00000   1.88435
    D1       -1.16983   0.00000   0.00000   0.00001   0.00001  -1.16982
    D2        0.98612   0.00000   0.00000   0.00001   0.00001   0.98613
    D3        3.00945  -0.00000   0.00000   0.00000   0.00000   3.00945
    D4        3.09685   0.00000   0.00000  -0.00000  -0.00000   3.09685
    D5        0.96670  -0.00000   0.00000  -0.00000  -0.00000   0.96670
    D6       -1.06955   0.00000   0.00000   0.00000   0.00000  -1.06955
    D7        0.98367  -0.00000   0.00000  -0.00000  -0.00000   0.98367
    D8       -1.14648  -0.00000   0.00000  -0.00000  -0.00000  -1.14648
    D9        3.10046   0.00000   0.00000  -0.00000  -0.00000   3.10046
   D10       -1.05981  -0.00000   0.00000  -0.00000  -0.00000  -1.05981
   D11        3.09323  -0.00000   0.00000  -0.00000  -0.00000   3.09323
   D12        1.05698   0.00000   0.00000  -0.00000  -0.00000   1.05698
   D13        1.11672  -0.00000   0.00000   0.00000   0.00000   1.11672
   D14       -1.04507   0.00000   0.00000   0.00000   0.00000  -1.04507
   D15       -3.10888   0.00000   0.00000   0.00000   0.00000  -3.10888
   D16       -3.04534  -0.00000   0.00000  -0.00000  -0.00000  -3.04534
   D17        1.07606   0.00000   0.00000   0.00000   0.00000   1.07606
   D18       -0.98776  -0.00000   0.00000   0.00000   0.00000  -0.98776
   D19       -1.01758  -0.00000   0.00000   0.00000   0.00000  -1.01758
   D20        3.10381   0.00000   0.00000   0.00000   0.00000   3.10381
   D21        1.04000   0.00000   0.00000   0.00000   0.00000   1.04000
   D22        1.03419  -0.00000   0.00000  -0.00000  -0.00000   1.03419
   D23        3.13380   0.00000   0.00000   0.00000   0.00000   3.13380
   D24       -1.04842   0.00000   0.00000   0.00000   0.00000  -1.04842
   D25       -3.12361  -0.00000   0.00000  -0.00000  -0.00000  -3.12361
   D26       -1.02400   0.00000   0.00000   0.00000   0.00000  -1.02400
   D27        1.07696   0.00000   0.00000   0.00000   0.00000   1.07696
   D28       -1.08958  -0.00000   0.00000  -0.00000  -0.00000  -1.08958
   D29        1.01004  -0.00000   0.00000   0.00000  -0.00000   1.01004
   D30        3.11100   0.00000   0.00000   0.00000   0.00000   3.11100
         Item               Value     Threshold  Converged?
 Maximum Force            0.000000     0.000450     YES
 RMS     Force            0.000000     0.000300     YES
 Maximum Displacement     0.000005     0.001800     YES
 RMS     Displacement     0.000001     0.001200     YES
 Predicted change in Energy=-2.156553D-12
 Optimization completed.
    -- Stationary point found.
                           ----------------------------
                           !   Optimized Parameters   !
                           ! (Angstroms and Degrees)  !
 --------------------------                            --------------------------
 ! Name  Definition              Value          Derivative Info.                !
 --------------------------------------------------------------------------------
 ! R1    R(1,4)                  1.4159         -DE/DX =    0.0                 !
 ! R2    R(1,15)                 0.9586         -DE/DX =    0.0                 !
 ! R3    R(2,3)                  1.5251         -DE/DX =    0.0                 !
 ! R4    R(2,4)                  1.5204         -DE/DX =    0.0                 !
 ! R5    R(2,8)                  1.094          -DE/DX =    0.0                 !
 ! R6    R(2,9)                  1.0929         -DE/DX =    0.0                 !
 ! R7    R(3,5)                  1.5244         -DE/DX =    0.0                 !
 ! R8    R(3,6)                  1.0941         -DE/DX =    0.0                 !
 ! R9    R(3,7)                  1.0933         -DE/DX =    0.0                 !
 ! R10   R(4,10)                 1.0964         -DE/DX =    0.0                 !
 ! R11   R(4,11)                 1.0892         -DE/DX =    0.0                 !
 ! R12   R(5,12)                 1.0906         -DE/DX =    0.0                 !
 ! R13   R(5,13)                 1.0892         -DE/DX =    0.0                 !
 ! R14   R(5,14)                 1.0907         -DE/DX =    0.0                 !
 ! A1    A(4,1,15)             109.0584         -DE/DX =    0.0                 !
 ! A2    A(3,2,4)              113.3526         -DE/DX =    0.0                 !
 ! A3    A(3,2,8)              109.2658         -DE/DX =    0.0                 !
 ! A4    A(3,2,9)              109.6403         -DE/DX =    0.0                 !
 ! A5    A(4,2,8)              108.4556         -DE/DX =    0.0                 !
 ! A6    A(4,2,9)              108.8407         -DE/DX =    0.0                 !
 ! A7    A(8,2,9)              107.0899         -DE/DX =    0.0                 !
 ! A8    A(2,3,5)              112.4006         -DE/DX =    0.0                 !
 ! A9    A(2,3,6)              109.2474         -DE/DX =    0.0                 !
 ! A10   A(2,3,7)              109.6204         -DE/DX =    0.0                 !
 ! A11   A(5,3,6)              109.7277         -DE/DX =    0.0                 !
 ! A12   A(5,3,7)              108.9199         -DE/DX =    0.0                 !
 ! A13   A(6,3,7)              106.765          -DE/DX =    0.0                 !
 ! A14   A(1,4,2)              112.9922         -DE/DX =    0.0                 !
 ! A15   A(1,4,10)             110.4692         -DE/DX =    0.0                 !
 ! A16   A(1,4,11)             105.6164         -DE/DX =    0.0                 !
 ! A17   A(2,4,10)             109.8616         -DE/DX =    0.0                 !
 ! A18   A(2,4,11)             110.2078         -DE/DX =    0.0                 !
 ! A19   A(10,4,11)            107.4801         -DE/DX =    0.0                 !
 ! A20   A(3,5,12)             110.6859         -DE/DX =    0.0                 !
 ! A21   A(3,5,13)             111.6823         -DE/DX =    0.0                 !
 ! A22   A(3,5,14)             110.759          -DE/DX =    0.0                 !
 ! A23   A(12,5,13)            107.9436         -DE/DX =    0.0                 !
 ! A24   A(12,5,14)            107.6522         -DE/DX =    0.0                 !
 ! A25   A(13,5,14)            107.9653         -DE/DX =    0.0                 !
 ! D1    D(15,1,4,2)           -67.0262         -DE/DX =    0.0                 !
 ! D2    D(15,1,4,10)           56.5006         -DE/DX =    0.0                 !
 ! D3    D(15,1,4,11)          172.4286         -DE/DX =    0.0                 !
 ! D4    D(4,2,3,5)            177.4365         -DE/DX =    0.0                 !
 ! D5    D(4,2,3,6)             55.388          -DE/DX =    0.0                 !
 ! D6    D(4,2,3,7)            -61.2806         -DE/DX =    0.0                 !
 ! D7    D(8,2,3,5)             56.3601         -DE/DX =    0.0                 !
 ! D8    D(8,2,3,6)            -65.6884         -DE/DX =    0.0                 !
 ! D9    D(8,2,3,7)            177.643          -DE/DX =    0.0                 !
 ! D10   D(9,2,3,5)            -60.7224         -DE/DX =    0.0                 !
 ! D11   D(9,2,3,6)            177.2291         -DE/DX =    0.0                 !
 ! D12   D(9,2,3,7)             60.5606         -DE/DX =    0.0                 !
 ! D13   D(3,2,4,1)             63.9834         -DE/DX =    0.0                 !
 ! D14   D(3,2,4,10)           -59.878          -DE/DX =    0.0                 !
 ! D15   D(3,2,4,11)          -178.1258         -DE/DX =    0.0                 !
 ! D16   D(8,2,4,1)           -174.4851         -DE/DX =    0.0                 !
 ! D17   D(8,2,4,10)            61.6535         -DE/DX =    0.0                 !
 ! D18   D(8,2,4,11)           -56.5942         -DE/DX =    0.0                 !
 ! D19   D(9,2,4,1)            -58.3033         -DE/DX =    0.0                 !
 ! D20   D(9,2,4,10)           177.8354         -DE/DX =    0.0                 !
 ! D21   D(9,2,4,11)            59.5876         -DE/DX =    0.0                 !
 ! D22   D(2,3,5,12)            59.2547         -DE/DX =    0.0                 !
 ! D23   D(2,3,5,13)           179.5537         -DE/DX =    0.0                 !
 ! D24   D(2,3,5,14)           -60.0701         -DE/DX =    0.0                 !
 ! D25   D(6,3,5,12)          -178.9698         -DE/DX =    0.0                 !
 ! D26   D(6,3,5,13)           -58.6709         -DE/DX =    0.0                 !
 ! D27   D(6,3,5,14)            61.7053         -DE/DX =    0.0                 !
 ! D28   D(7,3,5,12)           -62.4281         -DE/DX =    0.0                 !
 ! D29   D(7,3,5,13)            57.8708         -DE/DX =    0.0                 !
 ! D30   D(7,3,5,14)           178.247          -DE/DX =    0.0                 !
 --------------------------------------------------------------------------------
 Lowest energy point so far.  Saving SCF results.
 Iteration  1 RMS(Cart)=  0.01057633 RMS(Int)=  0.01637338
 Iteration  2 RMS(Cart)=  0.00049241 RMS(Int)=  0.01637109
 Iteration  3 RMS(Cart)=  0.00001148 RMS(Int)=  0.01637109
 Iteration  4 RMS(Cart)=  0.00000031 RMS(Int)=  0.01637109
 Iteration  1 RMS(Cart)=  0.00652901 RMS(Int)=  0.00991001
 Iteration  2 RMS(Cart)=  0.00399771 RMS(Int)=  0.01102462
 Iteration  3 RMS(Cart)=  0.00243105 RMS(Int)=  0.01258757
 Iteration  4 RMS(Cart)=  0.00147199 RMS(Int)=  0.01374861
 Iteration  5 RMS(Cart)=  0.00088893 RMS(Int)=  0.01450761
 Iteration  6 RMS(Cart)=  0.00053596 RMS(Int)=  0.01498267
 Iteration  7 RMS(Cart)=  0.00032283 RMS(Int)=  0.01527447
 Iteration  8 RMS(Cart)=  0.00019433 RMS(Int)=  0.01545204
 Iteration  9 RMS(Cart)=  0.00011694 RMS(Int)=  0.01555957
 Iteration 10 RMS(Cart)=  0.00007036 RMS(Int)=  0.01562449
 Iteration 11 RMS(Cart)=  0.00004232 RMS(Int)=  0.01566363
 Iteration 12 RMS(Cart)=  0.00002546 RMS(Int)=  0.01568720
 Iteration 13 RMS(Cart)=  0.00001531 RMS(Int)=  0.01570139
 Iteration 14 RMS(Cart)=  0.00000921 RMS(Int)=  0.01570993
 Iteration 15 RMS(Cart)=  0.00000554 RMS(Int)=  0.01571507
 Iteration 16 RMS(Cart)=  0.00000333 RMS(Int)=  0.01571816
 Iteration 17 RMS(Cart)=  0.00000200 RMS(Int)=  0.01572002
 Iteration 18 RMS(Cart)=  0.00000121 RMS(Int)=  0.01572114
 Iteration 19 RMS(Cart)=  0.00000072 RMS(Int)=  0.01572181
 GradGradGradGradGradGradGradGradGradGradGradGradGradGradGradGradGradGrad

 Leave Link  103 at Mon Mar 11 19:47:45 2019, MaxMem=   671088640 cpu:               1.1 elap:               0.1
 (Enter /shared/centos7/gaussian/g16/l202.exe)
                          Input orientation:                          
 ---------------------------------------------------------------------
 Center     Atomic      Atomic             Coordinates (Angstroms)
 Number     Number       Type             X           Y           Z
 ---------------------------------------------------------------------
      1          8           0        2.027328   -0.665867   -0.263461
      2          6           0       -0.005730    0.698451   -0.203459
      3          6           0       -0.943647   -0.389697    0.308451
      4          6           0        1.434476    0.513983    0.247665
      5          6           0       -2.377663   -0.127396   -0.137362
      6          1           0       -0.870777   -0.435589    1.399143
      7          1           0       -0.574276   -1.324370   -0.122581
      8          1           0       -0.356906    1.672779    0.148865
      9          1           0       -0.033049    0.722975   -1.295785
     10          1           0        1.486198    0.525671    1.342800
     11          1           0        2.051178    1.334044   -0.117765
     12          1           0       -2.475641   -0.076955   -1.222383
     13          1           0       -3.071943   -0.850937    0.288792
     14          1           0       -2.703639    0.831166    0.268292
     15          1           0        1.593571   -1.427609    0.124633
 ---------------------------------------------------------------------
                    Distance matrix (angstroms):
                    1          2          3          4          5
     1  O    0.000000
     2  C    2.449141   0.000000
     3  C    3.038100   1.525060   0.000000
     4  C    1.415899   1.520439   2.544760   0.000000
     5  C    4.439573   2.512461   1.524452   3.884845   0.000000
     6  H    3.349074   2.145388   1.094087   2.746230   2.174061
     7  H    2.687344   2.102758   1.093543   2.748037   2.164526
     8  H    3.365093   1.093970   2.150242   2.135795   2.721399
     9  H    2.690675   1.092943   2.154252   2.139988   2.749962
    10  H    2.071873   2.155602   2.794982   1.096418   4.188890
    11  H    2.005352   2.154575   3.481655   1.089202   4.663778
    12  H    4.641452   2.782071   2.188210   4.218917   1.090603
    13  H    5.132427   3.470530   2.177790   4.708769   1.089561
    14  H    4.990584   2.742057   2.142357   4.150305   1.090714
    15  H    0.958652   2.680586   2.747458   1.951980   4.186872
                    6          7          8          9         10
     6  H    0.000000
     7  H    1.787034   0.000000
     8  H    2.504491   3.017256   0.000000
     9  H    3.050688   2.420941   1.758984   0.000000
    10  H    2.546081   3.132977   2.477573   3.051094   0.000000
    11  H    3.737704   3.736334   2.446365   2.470858   1.762362
    12  H    3.094609   2.526024   3.070982   2.571289   4.758098
    13  H    2.500105   2.575210   3.709467   3.771334   4.876744
    14  H    2.498575   3.055047   2.495943   3.096788   4.336200
    15  H    2.946437   2.184338   3.662970   3.047703   2.304509
                   11         12         13         14         15
    11  H    0.000000
    12  H    4.868592   0.000000
    13  H    5.584425   1.799520   0.000000
    14  H    4.796896   1.760336   1.722074   0.000000
    15  H    2.809784   4.494130   4.703884   4.856822   0.000000
 Stoichiometry    C4H10O
 Framework group  C1[X(C4H10O)]
 Deg. of freedom    39
 Full point group                 C1      NOp   1
 RotChk:  IX=0 Diff= 3.90D-03
 Largest Abelian subgroup         C1      NOp   1
 Largest concise Abelian subgroup C1      NOp   1
                         Standard orientation:                         
 ---------------------------------------------------------------------
 Center     Atomic      Atomic             Coordinates (Angstroms)
 Number     Number       Type             X           Y           Z
 ---------------------------------------------------------------------
      1          8           0        2.029204   -0.660445   -0.268431
      2          6           0       -0.004488    0.702715   -0.203777
      3          6           0       -0.940411   -0.385710    0.311189
      4          6           0        1.437013    0.519329    0.243636
      5          6           0       -2.375754   -0.124485   -0.130969
      6          1           0       -0.864630   -0.430978    1.401709
      7          1           0       -0.571632   -1.320396   -0.120321
      8          1           0       -0.355303    1.677024    0.148958
      9          1           0       -0.034711    0.726641   -1.296040
     10          1           0        1.491624    0.531631    1.338623
     11          1           0        2.052266    1.339556   -0.123859
     12          1           0       -2.476630   -0.074679   -1.215754
     13          1           0       -3.068480   -0.848205    0.297403
     14          1           0       -2.701218    0.834102    0.275037
     15          1           0        1.596922   -1.422234    0.121213
 ---------------------------------------------------------------------
 Rotational constants (GHZ):          12.6841734           2.3739607           2.1880394
 Leave Link  202 at Mon Mar 11 19:47:45 2019, MaxMem=   671088640 cpu:               0.2 elap:               0.0
 (Enter /shared/centos7/gaussian/g16/l301.exe)
 Standard basis: 6-311+G(2df,2p) (5D, 7F)
 Ernie: Thresh=  0.10000D-02 Tol=  0.10000D-05 Strict=F.
 There are   285 symmetry adapted cartesian basis functions of A   symmetry.
 There are   260 symmetry adapted basis functions of A   symmetry.
   260 basis functions,   370 primitive gaussians,   285 cartesian basis functions
    21 alpha electrons       21 beta electrons
       nuclear repulsion energy       188.7296624687 Hartrees.
 IExCor= 4336 DFT=T Ex+Corr=M062X ExCW=0 ScaHFX=  0.540000
 ScaDFX=  1.000000  1.000000  1.000000  1.000000 ScalE2=  1.000000  1.000000
 IRadAn=      5 IRanWt=     -1 IRanGd=            0 ICorTp=0 IEmpDi=  4
 NAtoms=   15 NActive=   15 NUniq=   15 SFac= 1.00D+00 NAtFMM=   60 NAOKFM=F Big=F
 Integral buffers will be    131072 words long.
 Raffenetti 2 integral format.
 Two-electron integral symmetry is turned on.
 Leave Link  301 at Mon Mar 11 19:47:45 2019, MaxMem=   671088640 cpu:               1.3 elap:               0.1
 (Enter /shared/centos7/gaussian/g16/l302.exe)
 NPDir=0 NMtPBC=     1 NCelOv=     1 NCel=       1 NClECP=     1 NCelD=      1
         NCelK=      1 NCelE2=     1 NClLst=     1 CellRange=     0.0.
 One-electron integrals computed using PRISM.
 One-electron integral symmetry used in STVInt
 NBasis=   260 RedAO= T EigKep=  1.98D-05  NBF=   260
 NBsUse=   260 1.00D-06 EigRej= -1.00D+00 NBFU=   260
 Precomputing XC quadrature grid using
 IXCGrd= 4 IRadAn=           5 IRanWt=          -1 IRanGd=           0 AccXCQ= 0.00D+00.
 Generated NRdTot=       0 NPtTot=           0 NUsed=           0 NTot=          32
 NSgBfM=   285   285   285   285   285 MxSgAt=    15 MxSgA2=    15.
 Leave Link  302 at Mon Mar 11 19:47:45 2019, MaxMem=   671088640 cpu:               5.5 elap:               0.3
 (Enter /shared/centos7/gaussian/g16/l303.exe)
 DipDrv:  MaxL=1.
 Leave Link  303 at Mon Mar 11 19:47:46 2019, MaxMem=   671088640 cpu:               0.5 elap:               0.0
 (Enter /shared/centos7/gaussian/g16/l401.exe)
 Initial guess from the checkpoint file:  "/scratch/underkoffler.c/gaussian_scratch/Gau-34092.chk"
 B after Tr=    -0.000000    0.000000    0.000000
         Rot=    0.999999   -0.000153   -0.000276   -0.001299 Ang=  -0.15 deg.
 Guess basis will be translated and rotated to current coordinates.
 JPrj=2 DoOrth=T DoCkMO=T.
 Generating alternative initial guess.
 ExpMin= 4.38D-02 ExpMax= 8.59D+03 ExpMxC= 1.30D+03 IAcc=2 IRadAn=         4 AccDes= 0.00D+00
 Harris functional with IExCor= 1009 and IRadAn=       4 diagonalized for initial guess.
 HarFok:  IExCor= 1009 AccDes= 0.00D+00 IRadAn=         4 IDoV= 1 UseB2=F ITyADJ=14
 ICtDFT=  3500011 ScaDFX=  1.000000  1.000000  1.000000  1.000000
 FoFCou: FMM=F IPFlag=           0 FMFlag=      100000 FMFlg1=           0
         NFxFlg=           0 DoJE=T BraDBF=F KetDBF=T FulRan=T
         wScrn=  0.000000 ICntrl=       500 IOpCl=  0 I1Cent=   200000004 NGrid=           0
         NMat0=    1 NMatS0=      1 NMatT0=    0 NMatD0=    1 NMtDS0=    0 NMtDT0=    0
 Petite list used in FoFCou.
 Harris En= -233.599640720228    
 Leave Link  401 at Mon Mar 11 19:47:46 2019, MaxMem=   671088640 cpu:              12.7 elap:               0.7
 (Enter /shared/centos7/gaussian/g16/l502.exe)
 Integral symmetry usage will be decided dynamically.
 Closed shell SCF:
 Using DIIS extrapolation, IDIIS=  1040.
 NGot=   671088640 LenX=   670917793 LenY=   670836127
 Requested convergence on RMS density matrix=1.00D-08 within 128 cycles.
 Requested convergence on MAX density matrix=1.00D-06.
 Requested convergence on             energy=1.00D-06.
 No special actions if energy rises.
 Fock matrices will be formed incrementally for  20 cycles.

 Cycle   1  Pass 1  IDiag  1:
 FoFJK:  IHMeth= 1 ICntrl=       0 DoSepK=F KAlg= 0 I1Cent=           0 FoldK=F
 IRaf= 970000000 NMat=       1 IRICut=       1 DoRegI=T DoRafI=F ISym2E= 0 IDoP0=0 IntGTp=1.
 FoFCou: FMM=F IPFlag=           0 FMFlag=      100000 FMFlg1=           0
         NFxFlg=           0 DoJE=F BraDBF=F KetDBF=F FulRan=T
         wScrn=  0.000000 ICntrl=         0 IOpCl=  0 I1Cent=           0 NGrid=           0
         NMat0=    1 NMatS0=      1 NMatT0=    0 NMatD0=    1 NMtDS0=    0 NMtDT0=    0
 Symmetry not used in FoFCou.
 E= -233.630660028794    
 DIIS: error= 1.19D-03 at cycle   1 NSaved=   1.
 NSaved= 1 IEnMin= 1 EnMin= -233.630660028794     IErMin= 1 ErrMin= 1.19D-03
 ErrMax= 1.19D-03  0.00D+00 EMaxC= 1.00D-01 BMatC= 8.59D-04 BMatP= 8.59D-04
 IDIUse=3 WtCom= 9.88D-01 WtEn= 1.19D-02
 Coeff-Com:  0.100D+01
 Coeff-En:   0.100D+01
 Coeff:      0.100D+01
 Gap=     0.619 Goal=   None    Shift=    0.000
 GapD=    0.619 DampG=2.000 DampE=1.000 DampFc=2.0000 IDamp=-1.
 RMSDP=2.37D-04 MaxDP=7.63D-03              OVMax= 7.22D-03

 Cycle   2  Pass 1  IDiag  1:
 RMSU=  2.36D-04    CP:  1.00D+00
 E= -233.631586650140     Delta-E=       -0.000926621346 Rises=F Damp=F
 DIIS: error= 2.92D-04 at cycle   2 NSaved=   2.
 NSaved= 2 IEnMin= 2 EnMin= -233.631586650140     IErMin= 2 ErrMin= 2.92D-04
 ErrMax= 2.92D-04  0.00D+00 EMaxC= 1.00D-01 BMatC= 1.66D-05 BMatP= 8.59D-04
 IDIUse=3 WtCom= 9.97D-01 WtEn= 2.92D-03
 Coeff-Com: -0.822D-01 0.108D+01
 Coeff-En:   0.000D+00 0.100D+01
 Coeff:     -0.820D-01 0.108D+01
 Gap=     0.361 Goal=   None    Shift=    0.000
 RMSDP=3.52D-05 MaxDP=1.24D-03 DE=-9.27D-04 OVMax= 2.17D-03

 Cycle   3  Pass 1  IDiag  1:
 RMSU=  2.68D-05    CP:  1.00D+00  1.10D+00
[...]
           D15       -178.42305-178.12646
           D16       -174.81230-174.48584
           D17         61.35001  61.65293
           D18        -56.92048 -56.59484
           D19        -58.60628 -58.30386
           D20        177.55602 177.83491
           D21         59.28553  59.58714
           D22         51.10651  59.25694
           D23        170.47519 179.55472
           D24        -68.18902 -60.06824
           D25        172.68964-178.96667
           D26        -67.94168 -58.66889
           D27         53.39411  61.70815
           D28        -71.49764 -62.42676
           D29         47.87103  57.87101
           D30        169.20682 178.24805
 Largest change from initial coordinates is atom    6       0.000 Angstoms.
 GradGradGradGradGradGradGradGradGradGradGradGradGradGradGradGradGradGrad

 Leave Link  103 at Mon Mar 11 20:40:55 2019, MaxMem=   671088640 cpu:               0.6 elap:               0.1
 (Enter /shared/centos7/gaussian/g16/l202.exe)
                          Input orientation:                          
 ---------------------------------------------------------------------
 Center     Atomic      Atomic             Coordinates (Angstroms)
 Number     Number       Type             X           Y           Z
 ---------------------------------------------------------------------
      1          8           0        2.084943    0.166025   -0.553839
      2          6           0       -0.089628    0.682495    0.447537
      3          6           0       -0.868851   -0.453803   -0.206238
      4          6           0        1.381245    0.360889    0.659255
      5          6           0       -2.352063   -0.132940   -0.351127
      6          1           0       -0.744292   -1.364629    0.386966
      7          1           0       -0.452995   -0.662491   -1.195556
      8          1           0       -0.536614    0.914743    1.418635
      9          1           0       -0.169168    1.583256   -0.166324
     10          1           0        1.480854   -0.518929    1.305884
     11          1           0        1.880001    1.191203    1.157425
     12          1           0       -2.495077    0.763251   -0.955923
     13          1           0       -2.895722   -0.948544   -0.826097
     14          1           0       -2.804940    0.050359    0.623994
     15          1           0        1.761788   -0.630237   -0.978747
 ---------------------------------------------------------------------
                    Distance matrix (angstroms):
                    1          2          3          4          5
     1  O    0.000000
     2  C    2.449133   0.000000
     3  C    3.038077   1.525052   0.000000
     4  C    1.415895   1.520434   2.544746   0.000000
     5  C    4.451684   2.534050   1.524422   3.899016   0.000000
     6  H    3.351505   2.150109   1.094080   2.751265   2.155636
     7  H    2.745791   2.154246   1.093269   2.802154   2.144748
     8  H    3.365084   1.093969   2.150235   2.135789   2.743274
     9  H    2.690674   1.092942   2.154241   2.139986   2.782896
    10  H    2.071872   2.155596   2.794972   1.096418   4.193557
    11  H    2.005347   2.154568   3.481639   1.089199   4.683957
    12  H    4.636263   2.786110   2.165147   4.218598   1.090592
    13  H    5.111106   3.486631   2.176511   4.713102   1.089207
    14  H    5.031066   2.793503   2.166081   4.197835   1.090668
    15  H    0.958649   2.680539   2.747391   1.951971   4.191059
                    6          7          8          9         10
     6  H    0.000000
     7  H    1.755627   0.000000
     8  H    2.510579   3.054285   0.000000
     9  H    3.054001   2.486615   1.758983   0.000000
    10  H    2.551645   3.165057   2.477560   3.051090   0.000000
    11  H    3.743368   3.796785   2.446363   2.470853   1.762359
    12  H    3.065367   2.502052   3.081729   2.589542   4.750556
    13  H    2.504656   2.487014   3.751806   3.778810   4.887160
    14  H    2.510905   3.057869   2.554196   3.149868   4.376882
    15  H    2.947022   2.225603   3.662929   3.047650   2.304529
                   11         12         13         14         15
    11  H    0.000000
    12  H    4.877571   0.000000
    13  H    5.596464   1.762842   0.000000
    14  H    4.851263   1.760786   1.763183   0.000000
    15  H    2.809777   4.479199   4.670869   4.887432   0.000000
 Stoichiometry    C4H10O
 Framework group  C1[X(C4H10O)]
 Deg. of freedom    39
 Full point group                 C1      NOp   1
 RotChk:  IX=0 Diff= 3.20D-15
 Largest Abelian subgroup         C1      NOp   1
 Largest concise Abelian subgroup C1      NOp   1
                         Standard orientation:                         
 ---------------------------------------------------------------------
 Center     Atomic      Atomic             Coordinates (Angstroms)
 Number     Number       Type             X           Y           Z
 ---------------------------------------------------------------------
      1          8           0        2.029117   -0.668582   -0.266169
      2          6           0        0.006358    0.711055   -0.208749
      3          6           0       -0.941017   -0.370774    0.299097
      4          6           0        1.444029    0.514898    0.245502
      5          6           0       -2.386008   -0.119285   -0.116375
      6          1           0       -0.874551   -0.425454    1.389786
      7          1           0       -0.626001   -1.344581   -0.085224
      8          1           0       -0.338249    1.687438    0.144367
      9          1           0       -0.018158    0.737592   -1.301093
     10          1           0        1.493208    0.524393    1.340775
     11          1           0        2.067820    1.330842   -0.117091
     12          1           0       -2.473256   -0.080057   -1.202764
     13          1           0       -3.050928   -0.902384    0.245576
     14          1           0       -2.741595    0.833138    0.278600
     15          1           0        1.588603   -1.427634    0.119570
 ---------------------------------------------------------------------
 Rotational constants (GHZ):          12.6541513           2.3645343           2.1753818
 Leave Link  202 at Mon Mar 11 20:40:55 2019, MaxMem=   671088640 cpu:               0.1 elap:               0.0
 (Enter /shared/centos7/gaussian/g16/l601.exe)
 Copying SCF densities to generalized density rwf, IOpCl= 0 IROHF=0.

 **********************************************************************

            Population analysis using the SCF density.

 **********************************************************************

 Orbital symmetries:
       Occupied  (A) (A) (A) (A) (A) (A) (A) (A) (A) (A) (A) (A)
                 (A) (A) (A) (A) (A) (A) (A) (A) (A)
       Virtual   (A) (A) (A) (A) (A) (A) (A) (A) (A) (A) (A) (A)
                 (A) (A) (A) (A) (A) (A) (A) (A) (A) (A) (A) (A)
                 (A) (A) (A) (A) (A) (A) (A) (A) (A) (A) (A) (A)
                 (A) (A) (A) (A) (A) (A) (A) (A) (A) (A) (A) (A)
                 (A) (A) (A) (A) (A) (A) (A) (A) (A) (A) (A) (A)
                 (A) (A) (A) (A) (A) (A) (A) (A) (A) (A) (A) (A)
                 (A) (A) (A) (A) (A) (A) (A) (A) (A) (A) (A) (A)
                 (A) (A) (A) (A) (A) (A) (A) (A) (A) (A) (A) (A)
                 (A) (A) (A) (A) (A) (A) (A) (A) (A) (A) (A) (A)
                 (A) (A) (A) (A) (A) (A) (A) (A) (A) (A) (A) (A)
                 (A) (A) (A) (A) (A) (A) (A) (A) (A) (A) (A) (A)
                 (A) (A) (A) (A) (A) (A) (A) (A) (A) (A) (A) (A)
                 (A) (A) (A) (A) (A) (A) (A) (A) (A) (A) (A) (A)
                 (A) (A) (A) (A) (A) (A) (A) (A) (A) (A) (A) (A)
                 (A) (A) (A) (A) (A) (A) (A) (A) (A) (A) (A) (A)
                 (A) (A) (A) (A) (A) (A) (A) (A) (A) (A) (A) (A)
                 (A) (A) (A) (A) (A) (A) (A) (A) (A) (A) (A) (A)
                 (A) (A) (A) (A) (A) (A) (A) (A) (A) (A) (A) (A)
                 (A) (A) (A) (A) (A) (A) (A) (A) (A) (A) (A) (A)
                 (A) (A) (A) (A) (A) (A) (A) (A) (A) (A) (A)
 The electronic state is 1-A.
 Alpha  occ. eigenvalues --  -19.61845 -10.57815 -10.53585 -10.52976 -10.52569
 Alpha  occ. eigenvalues --   -1.14311  -0.89844  -0.81818  -0.72702  -0.66605
 Alpha  occ. eigenvalues --   -0.58777  -0.54409  -0.51687  -0.51097  -0.46321
 Alpha  occ. eigenvalues --   -0.45236  -0.42725  -0.40851  -0.39592  -0.38024
 Alpha  occ. eigenvalues --   -0.34658
 Alpha virt. eigenvalues --    0.01418   0.02671   0.02852   0.03831   0.05777
 Alpha virt. eigenvalues --    0.05958   0.06637   0.07517   0.08029   0.08728
 Alpha virt. eigenvalues --    0.10088   0.10698   0.12909   0.14519   0.15574
 Alpha virt. eigenvalues --    0.17645   0.18408   0.19082   0.20212   0.21141
 Alpha virt. eigenvalues --    0.21907   0.22329   0.23994   0.24592   0.26159
 Alpha virt. eigenvalues --    0.26689   0.27330   0.28570   0.29100   0.29932
 Alpha virt. eigenvalues --    0.31028   0.31390   0.31709   0.36346   0.41431
 Alpha virt. eigenvalues --    0.43307   0.43765   0.45258   0.46775   0.49393
 Alpha virt. eigenvalues --    0.51718   0.53267   0.54261   0.55945   0.56752
 Alpha virt. eigenvalues --    0.57767   0.58695   0.59940   0.60960   0.63483
 Alpha virt. eigenvalues --    0.63724   0.64264   0.64888   0.65943   0.67460
 Alpha virt. eigenvalues --    0.68542   0.69926   0.70350   0.74103   0.76571
 Alpha virt. eigenvalues --    0.80086   0.80829   0.81023   0.86388   0.88771
 Alpha virt. eigenvalues --    0.90995   0.91954   0.94874   0.95737   0.99891
 Alpha virt. eigenvalues --    1.03103   1.04698   1.06546   1.09225   1.12041
 Alpha virt. eigenvalues --    1.13508   1.14654   1.16267   1.16554   1.17950
 Alpha virt. eigenvalues --    1.19315   1.21179   1.21663   1.22228   1.24821
 Alpha virt. eigenvalues --    1.25773   1.27891   1.29224   1.31681   1.32941
 Alpha virt. eigenvalues --    1.33228   1.37920   1.38788   1.39929   1.43529
 Alpha virt. eigenvalues --    1.44322   1.44923   1.45496   1.45903   1.48169
 Alpha virt. eigenvalues --    1.49263   1.52049   1.54853   1.56350   1.58826
 Alpha virt. eigenvalues --    1.60043   1.60819   1.62704   1.64204   1.64405
 Alpha virt. eigenvalues --    1.67865   1.68730   1.73454   1.79421   1.97661
 Alpha virt. eigenvalues --    2.09624   2.15508   2.29288   2.31384   2.40680
 Alpha virt. eigenvalues --    2.45695   2.48722   2.50519   2.56963   2.59093
 Alpha virt. eigenvalues --    2.63985   2.66364   2.75423   2.76309   2.78469
 Alpha virt. eigenvalues --    2.81429   2.83341   2.85688   2.89297   2.91512
 Alpha virt. eigenvalues --    2.94856   2.97638   2.98777   3.03306   3.04199
 Alpha virt. eigenvalues --    3.08897   3.13106   3.16286   3.16808   3.18265
 Alpha virt. eigenvalues --    3.20815   3.24120   3.26311   3.27773   3.30601
 Alpha virt. eigenvalues --    3.33951   3.35144   3.37536   3.38725   3.40038
 Alpha virt. eigenvalues --    3.43796   3.47340   3.51855   3.52751   3.55282
 Alpha virt. eigenvalues --    3.57767   3.59275   3.62025   3.63860   3.66086
 Alpha virt. eigenvalues --    3.68981   3.70871   3.71141   3.74947   3.78185
 Alpha virt. eigenvalues --    3.79341   3.83609   3.88204   3.88923   3.90785
 Alpha virt. eigenvalues --    3.95782   3.98666   3.99720   4.00113   4.01806
 Alpha virt. eigenvalues --    4.07065   4.09898   4.10958   4.13338   4.14995
 Alpha virt. eigenvalues --    4.19158   4.19907   4.22635   4.23081   4.25409
 Alpha virt. eigenvalues --    4.27404   4.28549   4.31145   4.33208   4.37529
 Alpha virt. eigenvalues --    4.38763   4.41830   4.43083   4.46318   4.52612
 Alpha virt. eigenvalues --    4.53029   4.54541   4.56783   4.60073   4.62524
 Alpha virt. eigenvalues --    4.64908   4.67567   4.78290   4.79905   5.02437
 Alpha virt. eigenvalues --    5.18755   5.22447   5.24915   5.26203   5.38739
 Alpha virt. eigenvalues --    5.40972   5.43810   5.50269   5.51217   5.58791
 Alpha virt. eigenvalues --    5.59845   5.61533   5.64959   5.65750   5.67540
 Alpha virt. eigenvalues --    5.85044   5.96185   6.51131   6.99998   7.19526
 Alpha virt. eigenvalues --    7.22659   7.24224   7.51990   7.62877  24.26891
 Alpha virt. eigenvalues --   24.38819  24.43793  24.50303  50.14842
          Condensed to atoms (all electrons):
               1          2          3          4          5          6
     1  O    8.076121   0.028852  -0.071290   0.139125   0.010861  -0.000930
     2  C    0.028852   5.689261  -0.312184  -0.002361   0.209893  -0.050145
     3  C   -0.071290  -0.312184   5.688734   0.234210  -0.063268   0.434037
     4  C    0.139125  -0.002361   0.234210   5.263334  -0.153496   0.002440
     5  C    0.010861   0.209893  -0.063268  -0.153496   5.355602  -0.028001
     6  H   -0.000930  -0.050145   0.434037   0.002440  -0.028001   0.525920
     7  H    0.005140  -0.036029   0.440802  -0.015439  -0.037675  -0.039909
     8  H    0.008172   0.436382  -0.042948  -0.049345   0.005349  -0.007305
     9  H   -0.012334   0.453844  -0.052455  -0.031680  -0.006701   0.005397
    10  H   -0.040924   0.057184  -0.061749   0.375247   0.010004   0.002574
    11  H   -0.054823  -0.073555   0.019231   0.461287   0.000854   0.000016
    12  H   -0.000308  -0.021135  -0.014200   0.001287   0.407942   0.006236
    13  H    0.000093   0.021531  -0.048038   0.002201   0.409582  -0.004574
    14  H   -0.000045  -0.031286  -0.000105   0.002233   0.400735  -0.008240
    15  H    0.255434  -0.030519   0.029893  -0.017602   0.002130  -0.001033
               7          8          9         10         11         12
     1  O    0.005140   0.008172  -0.012334  -0.040924  -0.054823  -0.000308
     2  C   -0.036029   0.436382   0.453844   0.057184  -0.073555  -0.021135
     3  C    0.440802  -0.042948  -0.052455  -0.061749   0.019231  -0.014200
     4  C   -0.015439  -0.049345  -0.031680   0.375247   0.461287   0.001287
     5  C   -0.037675   0.005349  -0.006701   0.010004   0.000854   0.407942
     6  H   -0.039909  -0.007305   0.005397   0.002574   0.000016   0.006236
     7  H    0.538905   0.005930  -0.006438   0.001025  -0.000415  -0.008131
     8  H    0.005930   0.525839  -0.031189  -0.004554  -0.003146  -0.000896
     9  H   -0.006438  -0.031189   0.492966   0.004364  -0.005614   0.001870
    10  H    0.001025  -0.004554   0.004364   0.553291  -0.030125  -0.000033
    11  H   -0.000415  -0.003146  -0.005614  -0.030125   0.534362  -0.000002
    12  H   -0.008131  -0.000896   0.001870  -0.000033  -0.000002   0.548662
    13  H   -0.004831   0.000003  -0.000122  -0.000010   0.000014  -0.024652
    14  H    0.006409   0.002372  -0.000064  -0.000036  -0.000038  -0.036978
    15  H    0.000296   0.000011   0.000026  -0.009515   0.008963   0.000021
              13         14         15
     1  O    0.000093  -0.000045   0.255434
     2  C    0.021531  -0.031286  -0.030519
     3  C   -0.048038  -0.000105   0.029893
     4  C    0.002201   0.002233  -0.017602
     5  C    0.409582   0.400735   0.002130
     6  H   -0.004574  -0.008240  -0.001033
     7  H   -0.004831   0.006409   0.000296
     8  H    0.000003   0.002372   0.000011
     9  H   -0.000122  -0.000064   0.000026
    10  H   -0.000010  -0.000036  -0.009515
    11  H    0.000014  -0.000038   0.008963
    12  H   -0.024652  -0.036978   0.000021
    13  H    0.538400  -0.025119   0.000003
    14  H   -0.025119   0.552464  -0.000014
    15  H    0.000003  -0.000014   0.520243
 Mulliken charges:
               1
     1  O   -0.343143
     2  C   -0.339732
     3  C   -0.180670
     4  C   -0.211440
     5  C   -0.523809
     6  H    0.163517
     7  H    0.150362
     8  H    0.155325
     9  H    0.188131
    10  H    0.143258
    11  H    0.142992
    12  H    0.140316
    13  H    0.135519
    14  H    0.137712
    15  H    0.241663
 Sum of Mulliken charges =  -0.00000
 Mulliken charges with hydrogens summed into heavy atoms:
               1
     1  O   -0.101479
     2  C    0.003724
     3  C    0.133208
     4  C    0.074809
     5  C   -0.110262
 Electronic spatial extent (au):  <R**2>=            602.6729
 Charge=              0.0000 electrons
 Dipole moment (field-independent basis, Debye):
    X=             -1.4808    Y=              0.1306    Z=              1.0236  Tot=              1.8049
 Quadrupole moment (field-independent basis, Debye-Ang):
   XX=            -39.0122   YY=            -31.1081   ZZ=            -33.8281
   XY=              1.4418   XZ=              1.8717   YZ=             -0.9034
 Traceless Quadrupole moment (field-independent basis, Debye-Ang):
   XX=             -4.3628   YY=              3.5414   ZZ=              0.8214
   XY=              1.4418   XZ=              1.8717   YZ=             -0.9034
 Octapole moment (field-independent basis, Debye-Ang**2):
  XXX=             -5.5248  YYY=             -6.9799  ZZZ=             -0.4310  XYY=              5.8096
  XXY=              3.7166  XXZ=              3.8634  XZZ=              1.7332  YZZ=             -0.3537
  YYZ=              0.9261  XYZ=             -2.2979
 Hexadecapole moment (field-independent basis, Debye-Ang**3):
 XXXX=           -645.7014 YYYY=           -116.8447 ZZZZ=            -74.6307 XXXY=             12.5824
 XXXZ=              2.2676 YYYX=            -11.7466 YYYZ=              0.5064 ZZZX=              1.5541
 ZZZY=             -0.5875 XXYY=           -114.4427 XXZZ=           -114.7922 YYZZ=            -35.5889
 XXYZ=             -4.1477 YYXZ=             -1.0256 ZZXY=             -0.6380
 N-N= 1.884775495115D+02 E-N=-9.212912411492D+02  KE= 2.327044375704D+02
 No NMR shielding tensors so no spin-rotation constants.
 Leave Link  601 at Mon Mar 11 20:40:55 2019, MaxMem=   671088640 cpu:               3.7 elap:               0.2
 (Enter /shared/centos7/gaussian/g16/l9999.exe)
 1\1\GINC-C0312\Scan\RM062X\6-311+G(2df,2p)\C4H10O1\UNDERKOFFLER.C\11-M
 ar-2019\0\\#p m062x/6-311+g(2df,2p) Opt=(CalcFC,ModRedun)\\Gaussian In
 put Prepared from Scan Object\\0,1\O,2.0849428787,0.1660246181,-0.5538
 385972\C,-0.0896276767,0.6824949346,0.447536751\C,-0.8688510287,-0.453
 8027348,-0.206237676\C,1.3812446809,0.3608892247,0.6592547793\C,-2.352
 0627432,-0.132940053,-0.3511267684\H,-0.7442919777,-1.364628824,0.3869
 664074\H,-0.4529949109,-0.662491464,-1.195555895\H,-0.5366139206,0.914
 7426386,1.4186353935\H,-0.1691681497,1.5832555916,-0.1663238119\H,1.48
 08540493,-0.5189287941,1.3058843344\H,1.8800013389,1.1912033863,1.1574
 253348\H,-2.4950770429,0.7632511823,-0.955923206\H,-2.8957215801,-0.94
 85440163,-0.8260972213\H,-2.8049404756,0.0503589729,0.6239938859\H,1.7
 617875582,-0.6302366628,-0.9787467105\\Version=EM64L-G16RevA.03\State=
 1-A\HF=-233.6330307,-233.6327524,-233.6319678,-233.6308395,-233.629632
 3,-233.6286843,-233.628305,-233.6286305,-233.6295483,-233.6307581,-233
 .6319117,-233.6327265,-233.6330302,-233.6327699,-233.6319924,-233.6308
 561,-233.6296313,-233.6286724,-233.6283045,-233.6286605,-233.629613,-2
 33.6308395,-233.6319817,-233.6327649,-233.6330305,-233.6327328,-233.63
 19272,-233.6307842,-233.6295772,-233.6286474,-233.6283044,-233.6286737
 ,-233.6296208,-233.6308311,-233.6319643,-233.6327513,-233.6330307\RMSD
 =2.867e-09,7.913e-09,3.651e-09,6.324e-09,4.591e-09,9.018e-09,6.687e-09
 ,5.371e-09,5.397e-09,3.456e-09,2.080e-09,4.506e-09,4.435e-09,6.061e-09
 ,7.624e-09,4.301e-09,6.680e-09,2.812e-09,6.595e-09,8.079e-09,9.345e-09
 ,3.863e-09,6.497e-09,7.175e-09,3.333e-09,8.952e-09,9.318e-09,5.979e-09
 ,7.706e-09,4.022e-09,5.576e-09,5.845e-09,4.002e-09,3.723e-09,5.955e-09
 ,8.588e-09,7.912e-09\PG=C01 [X(C4H10O1)]\\@


 THERE ONCE WAS A GIRL NAMED IRENE,
 WHO LIVED ON DISTILLED KEROSENE,
      BUT SHE STARTED ABSORBIN'
      A NEW HYDROCARBON,
 AND SINCE THEN HAS NEVER BENZENE.
 Job cpu time:       0 days 18 hours 39 minutes 22.5 seconds.
 Elapsed time:       0 days  0 hours 56 minutes 40.2 seconds.
 File lengths (MBytes):  RWF=   1328 Int=      0 D2E=      0 Chk=     32 Scr=     32
 Normal termination of Gaussian 16 at Mon Mar 11 20:40:56 2019.
