 Entering Gaussian System, Link 0=g16
 Input=IJDNQMDRQITEOD-UHFFFAOYSA-N_36by10.0_tor02_a1.com
 Output=IJDNQMDRQITEOD-UHFFFAOYSA-N_36by10.0_tor02_a1.log
 Initial command:
 /shared/centos7/gaussian/g16/l1.exe "/scratch/underkoffler.c/gaussian_scratch/Gau-31988.inp" -scrdir="/scratch/underkoffler.c/gaussian_scratch/"
 Entering Link 1 = /shared/centos7/gaussian/g16/l1.exe PID=     31989.
  
 Copyright (c) 1988,1990,1992,1993,1995,1998,2003,2009,2016,
            Gaussian, Inc.  All Rights Reserved.
  
 This is part of the Gaussian(R) 16 program.  It is based on
 the Gaussian(R) 09 system (copyright 2009, Gaussian, Inc.),
 the Gaussian(R) 03 system (copyright 2003, Gaussian, Inc.),
 the Gaussian(R) 98 system (copyright 1998, Gaussian, Inc.),
 the Gaussian(R) 94 system (copyright 1995, Gaussian, Inc.),
 the Gaussian 92(TM) system (copyright 1992, Gaussian, Inc.),
 the Gaussian 90(TM) system (copyright 1990, Gaussian, Inc.),
 the Gaussian 88(TM) system (copyright 1988, Gaussian, Inc.),
 the Gaussian 86(TM) system (copyright 1986, Carnegie Mellon
 University), and the Gaussian 82(TM) system (copyright 1983,
 Carnegie Mellon University). Gaussian is a federally registered
 trademark of Gaussian, Inc.
  
 This software contains proprietary and confidential information,
 including trade secrets, belonging to Gaussian, Inc.
  
 This software is provided under written license and may be
 used, copied, transmitted, or stored only in accord with that
 written license.
  
 The following legend is applicable only to US Government
 contracts under FAR:
  
                    RESTRICTED RIGHTS LEGEND
  
 Use, reproduction and disclosure by the US Government is
 subject to restrictions as set forth in subparagraphs (a)
 and (c) of the Commercial Computer Software - Restricted
 Rights clause in FAR 52.227-19.
  
 Gaussian, Inc.
 340 Quinnipiac St., Bldg. 40, Wallingford CT 06492
  
  
 ---------------------------------------------------------------
 Warning -- This program may not be used in any manner that
 competes with the business of Gaussian, Inc. or will provide
 assistance to any competitor of Gaussian, Inc.  The licensee
 of this program is prohibited from giving any competitor of
 Gaussian, Inc. access to this program.  By using this program,
 the user acknowledges that Gaussian, Inc. is engaged in the
 business of creating and licensing software in the field of
 computational chemistry and represents and warrants to the
 licensee that it is not a competitor of Gaussian, Inc. and that
 it will not use this program in any manner prohibited above.
 ---------------------------------------------------------------
  

 Cite this work as:
 Gaussian 16, Revision A.03,
 M. J. Frisch, G. W. Trucks, H. B. Schlegel, G. E. Scuseria, 
 M. A. Robb, J. R. Cheeseman, G. Scalmani, V. Barone, 
 G. A. Petersson, H. Nakatsuji, X. Li, M. Caricato, A. V. Marenich, 
 J. Bloino, B. G. Janesko, R. Gomperts, B. Mennucci, H. P. Hratchian, 
 J. V. Ortiz, A. F. Izmaylov, J. L. Sonnenberg, D. Williams-Young, 
 F. Ding, F. Lipparini, F. Egidi, J. Goings, B. Peng, A. Petrone, 
 T. Henderson, D. Ranasinghe, V. G. Zakrzewski, J. Gao, N. Rega, 
 G. Zheng, W. Liang, M. Hada, M. Ehara, K. Toyota, R. Fukuda, 
 J. Hasegawa, M. Ishida, T. Nakajima, Y. Honda, O. Kitao, H. Nakai, 
 T. Vreven, K. Throssell, J. A. Montgomery, Jr., J. E. Peralta, 
 F. Ogliaro, M. J. Bearpark, J. J. Heyd, E. N. Brothers, K. N. Kudin, 
 V. N. Staroverov, T. A. Keith, R. Kobayashi, J. Normand, 
 K. Raghavachari, A. P. Rendell, J. C. Burant, S. S. Iyengar, 
 J. Tomasi, M. Cossi, J. M. Millam, M. Klene, C. Adamo, R. Cammi, 
 J. W. Ochterski, R. L. Martin, K. Morokuma, O. Farkas, 
 J. B. Foresman, and D. J. Fox, Gaussian, Inc., Wallingford CT, 2016.
 
 ******************************************
 Gaussian 16:  EM64L-G16RevA.03 25-Dec-2016
                 9-Apr-2019 
 ******************************************
 %nprocshared=20
 Will use up to   20 processors via shared memory.
 %mem=5GB
 ----------------------------------------------
 #p m062x/6-311+g(2df,2p) Opt=(CalcFC,ModRedun)
 ----------------------------------------------
 1/10=4,18=120,19=15,26=3,38=1/1,3;
 2/9=110,12=2,17=6,18=5,40=1/2;
 3/5=4,6=6,7=214,11=2,25=1,30=1,71=2,74=-55,140=1/1,2,3;
 4//1;
 5/5=2,38=5/2;
 8/6=4,10=90,11=11/1;
 11/6=1,8=1,9=11,15=111,16=1/1,2,10;
 10/6=1,13=1/2;
 6/7=2,8=2,9=2,10=2,28=1/1;
 7/10=1,18=20,25=1/1,2,3,16;
 1/10=4,18=20,19=15,26=3/3(2);
 2/9=110/2;
 99//99;
 2/9=110/2;
 3/5=4,6=6,7=214,11=2,25=1,30=1,71=1,74=-55/1,2,3;
 4/5=5,16=3,69=1/1;
 5/5=2,38=5/2;
 7//1,2,3,16;
 1/18=20,19=15,26=3/3(-5);
 2/9=110/2;
 6/7=2,8=2,9=2,10=2,19=2,28=1/1;
 99/9=1/99;
 Leave Link    1 at Tue Apr  9 17:39:52 2019, MaxMem=   671088640 cpu:              27.3 elap:               1.4
 (Enter /shared/centos7/gaussian/g16/l101.exe)
 ----------------------------------------
 Gaussian Input Prepared from Scan Object
 ----------------------------------------
 Symbolic Z-matrix:
 Charge =  0 Multiplicity = 1
 C                     0.69148  -0.54377  -0.53996 
 C                    -0.75727  -0.08029  -0.68727 
 C                     1.55345   0.41041   0.28112 
 C                    -1.49907   0.02458   0.64178 
 H                     0.70402  -1.5352   -0.07877 
 H                     1.12983  -0.66031  -1.53309 
 H                    -1.2877   -0.77512  -1.34141 
 H                    -0.7722    0.89024  -1.19091 
 H                     1.51461   1.41953  -0.13344 
 H                     2.59544   0.09265   0.28993 
 H                     1.2178    0.46391   1.3164 
 H                    -1.06984   0.79576   1.28081 
 H                    -1.45301  -0.92103   1.18528 
 H                    -2.54909   0.27159   0.48934 
 
 The following ModRedundant input section has been read:
 B       2       8 B                                                           
 B       3       9 B                                                           
 B       4      12 B                                                           
 B       3      10 B                                                           
 B       4      13 B                                                           
 B       3      11 B                                                           
 B       1       3 B                                                           
 B       4      14 B                                                           
 B       1       5 B                                                           
 B       1       6 B                                                           
 B       1       2 B                                                           
 B       2       7 B                                                           
 B       2       4 B                                                           
 D       2       1       3      10 S  36 10.000                                
 
 ITRead=  0  0  0  0  0  0  0  0  0  0  0  0  0  0
 MicOpt= -1 -1 -1 -1 -1 -1 -1 -1 -1 -1 -1 -1 -1 -1
 NAtoms=     14 NQM=       14 NQMF=       0 NMMI=      0 NMMIF=      0
                NMic=       0 NMicF=      0.
                    Isotopes and Nuclear Properties:
 (Nuclear quadrupole moments (NQMom) in fm**2, nuclear magnetic moments (NMagM)
  in nuclear magnetons)

  Atom         1           2           3           4           5           6           7           8           9          10
 IAtWgt=          12          12          12          12           1           1           1           1           1           1
 AtmWgt=  12.0000000  12.0000000  12.0000000  12.0000000   1.0078250   1.0078250   1.0078250   1.0078250   1.0078250   1.0078250
 NucSpn=           0           0           0           0           1           1           1           1           1           1
 AtZEff=  -0.0000000  -0.0000000  -0.0000000  -0.0000000  -0.0000000  -0.0000000  -0.0000000  -0.0000000  -0.0000000  -0.0000000
 NQMom=    0.0000000   0.0000000   0.0000000   0.0000000   0.0000000   0.0000000   0.0000000   0.0000000   0.0000000   0.0000000
 NMagM=    0.0000000   0.0000000   0.0000000   0.0000000   2.7928460   2.7928460   2.7928460   2.7928460   2.7928460   2.7928460
 AtZNuc=   6.0000000   6.0000000   6.0000000   6.0000000   1.0000000   1.0000000   1.0000000   1.0000000   1.0000000   1.0000000

  Atom        11          12          13          14
 IAtWgt=           1           1           1           1
 AtmWgt=   1.0078250   1.0078250   1.0078250   1.0078250
 NucSpn=           1           1           1           1
 AtZEff=  -0.0000000  -0.0000000  -0.0000000  -0.0000000
 NQMom=    0.0000000   0.0000000   0.0000000   0.0000000
 NMagM=    2.7928460   2.7928460   2.7928460   2.7928460
 AtZNuc=   1.0000000   1.0000000   1.0000000   1.0000000
 Leave Link  101 at Tue Apr  9 17:39:53 2019, MaxMem=   671088640 cpu:               5.0 elap:               0.3
 (Enter /shared/centos7/gaussian/g16/l103.exe)

 GradGradGradGradGradGradGradGradGradGradGradGradGradGradGradGradGradGrad
 Berny optimization.
 Initialization pass.
                           ----------------------------
                           !    Initial Parameters    !
                           ! (Angstroms and Degrees)  !
 --------------------------                            --------------------------
 ! Name  Definition              Value          Derivative Info.                !
 --------------------------------------------------------------------------------
 ! R1    R(1,2)                  1.5282         calculate D2E/DX2 analytically  !
 ! R2    R(1,3)                  1.5257         calculate D2E/DX2 analytically  !
 ! R3    R(1,5)                  1.0935         calculate D2E/DX2 analytically  !
 ! R4    R(1,6)                  1.0918         calculate D2E/DX2 analytically  !
 ! R5    R(2,4)                  1.5257         calculate D2E/DX2 analytically  !
 ! R6    R(2,7)                  1.0918         calculate D2E/DX2 analytically  !
 ! R7    R(2,8)                  1.0935         calculate D2E/DX2 analytically  !
 ! R8    R(3,9)                  1.0916         calculate D2E/DX2 analytically  !
 ! R9    R(3,10)                 1.0894         calculate D2E/DX2 analytically  !
 ! R10   R(3,11)                 1.0896         calculate D2E/DX2 analytically  !
 ! R11   R(4,12)                 1.0896         calculate D2E/DX2 analytically  !
 ! R12   R(4,13)                 1.0916         calculate D2E/DX2 analytically  !
 ! R13   R(4,14)                 1.0894         calculate D2E/DX2 analytically  !
 ! A1    A(2,1,3)              113.4417         calculate D2E/DX2 analytically  !
 ! A2    A(2,1,5)              109.0566         calculate D2E/DX2 analytically  !
 ! A3    A(2,1,6)              108.9844         calculate D2E/DX2 analytically  !
 ! A4    A(3,1,5)              109.4858         calculate D2E/DX2 analytically  !
 ! A5    A(3,1,6)              109.2361         calculate D2E/DX2 analytically  !
 ! A6    A(5,1,6)              106.3941         calculate D2E/DX2 analytically  !
 ! A7    A(1,2,4)              113.4417         calculate D2E/DX2 analytically  !
 ! A8    A(1,2,7)              108.9844         calculate D2E/DX2 analytically  !
 ! A9    A(1,2,8)              109.0565         calculate D2E/DX2 analytically  !
 ! A10   A(4,2,7)              109.2361         calculate D2E/DX2 analytically  !
 ! A11   A(4,2,8)              109.4858         calculate D2E/DX2 analytically  !
 ! A12   A(7,2,8)              106.3941         calculate D2E/DX2 analytically  !
 ! A13   A(1,3,9)              110.7112         calculate D2E/DX2 analytically  !
 ! A14   A(1,3,10)             111.2435         calculate D2E/DX2 analytically  !
 ! A15   A(1,3,11)             111.5924         calculate D2E/DX2 analytically  !
 ! A16   A(9,3,10)             107.8629         calculate D2E/DX2 analytically  !
 ! A17   A(9,3,11)             107.7251         calculate D2E/DX2 analytically  !
 ! A18   A(10,3,11)            107.5339         calculate D2E/DX2 analytically  !
 ! A19   A(2,4,12)             111.5924         calculate D2E/DX2 analytically  !
 ! A20   A(2,4,13)             110.7112         calculate D2E/DX2 analytically  !
 ! A21   A(2,4,14)             111.2435         calculate D2E/DX2 analytically  !
 ! A22   A(12,4,13)            107.7251         calculate D2E/DX2 analytically  !
 ! A23   A(12,4,14)            107.5339         calculate D2E/DX2 analytically  !
 ! A24   A(13,4,14)            107.8629         calculate D2E/DX2 analytically  !
 ! D1    D(3,1,2,4)            -61.9851         calculate D2E/DX2 analytically  !
 ! D2    D(3,1,2,7)            176.082          calculate D2E/DX2 analytically  !
 ! D3    D(3,1,2,8)             60.3209         calculate D2E/DX2 analytically  !
 ! D4    D(5,1,2,4)             60.3209         calculate D2E/DX2 analytically  !
 ! D5    D(5,1,2,7)            -61.6119         calculate D2E/DX2 analytically  !
 ! D6    D(5,1,2,8)           -177.373          calculate D2E/DX2 analytically  !
 ! D7    D(6,1,2,4)            176.0821         calculate D2E/DX2 analytically  !
 ! D8    D(6,1,2,7)             54.1492         calculate D2E/DX2 analytically  !
 ! D9    D(6,1,2,8)            -61.6119         calculate D2E/DX2 analytically  !
 ! D10   D(2,1,3,9)            -55.0686         calculate D2E/DX2 analytically  !
 ! D11   D(2,1,3,10)          -174.9909         Scan                            !
 ! D12   D(2,1,3,11)            64.9108         calculate D2E/DX2 analytically  !
 ! D13   D(5,1,3,9)           -177.1362         calculate D2E/DX2 analytically  !
 ! D14   D(5,1,3,10)            62.9415         calculate D2E/DX2 analytically  !
 ! D15   D(5,1,3,11)           -57.1568         calculate D2E/DX2 analytically  !
 ! D16   D(6,1,3,9)             66.7239         calculate D2E/DX2 analytically  !
 ! D17   D(6,1,3,10)           -53.1984         calculate D2E/DX2 analytically  !
 ! D18   D(6,1,3,11)          -173.2967         calculate D2E/DX2 analytically  !
 ! D19   D(1,2,4,12)            64.9113         calculate D2E/DX2 analytically  !
 ! D20   D(1,2,4,13)           -55.0681         calculate D2E/DX2 analytically  !
 ! D21   D(1,2,4,14)          -174.9904         calculate D2E/DX2 analytically  !
 ! D22   D(7,2,4,12)          -173.2962         calculate D2E/DX2 analytically  !
 ! D23   D(7,2,4,13)            66.7243         calculate D2E/DX2 analytically  !
 ! D24   D(7,2,4,14)           -53.1979         calculate D2E/DX2 analytically  !
 ! D25   D(8,2,4,12)           -57.1563         calculate D2E/DX2 analytically  !
 ! D26   D(8,2,4,13)          -177.1358         calculate D2E/DX2 analytically  !
 ! D27   D(8,2,4,14)            62.942          calculate D2E/DX2 analytically  !
 --------------------------------------------------------------------------------
 Trust Radius=3.00D-01 FncErr=1.00D-07 GrdErr=1.00D-06 EigMax=2.50D+02 EigMin=1.00D-04
 Number of optimizations in scan=  37
 Number of steps in this run=     74 maximum allowed number of steps=    100.
 GradGradGradGradGradGradGradGradGradGradGradGradGradGradGradGradGradGrad

 Leave Link  103 at Tue Apr  9 17:39:53 2019, MaxMem=   671088640 cpu:               0.2 elap:               0.0
 (Enter /shared/centos7/gaussian/g16/l202.exe)
                          Input orientation:                          
 ---------------------------------------------------------------------
 Center     Atomic      Atomic             Coordinates (Angstroms)
 Number     Number       Type             X           Y           Z
 ---------------------------------------------------------------------
      1          6           0        0.691475   -0.543766   -0.539958
      2          6           0       -0.757274   -0.080291   -0.687267
      3          6           0        1.553451    0.410406    0.281120
      4          6           0       -1.499072    0.024580    0.641776
      5          1           0        0.704025   -1.535204   -0.078770
      6          1           0        1.129825   -0.660306   -1.533087
      7          1           0       -1.287697   -0.775117   -1.341413
      8          1           0       -0.772196    0.890236   -1.190910
      9          1           0        1.514605    1.419530   -0.133437
     10          1           0        2.595441    0.092648    0.289935
     11          1           0        1.217797    0.463914    1.316398
     12          1           0       -1.069839    0.795763    1.280810
     13          1           0       -1.453012   -0.921028    1.185284
     14          1           0       -2.549091    0.271590    0.489341
 ---------------------------------------------------------------------
                    Distance matrix (angstroms):
                    1          2          3          4          5
     1  C    0.000000
     2  C    1.528196   0.000000
     3  C    1.525653   2.553039   0.000000
     4  C    2.553040   1.525653   3.097876   0.000000
     5  H    1.093527   2.149984   2.153241   2.793877   0.000000
     6  H    1.091805   2.147784   2.148774   3.479972   1.749797
     7  H    2.147784   1.091805   3.479971   2.148775   2.477691
     8  H    2.149984   1.093527   2.793877   2.153241   3.049400
     9  H    2.167333   2.778062   1.091648   3.410145   3.064389
    10  H    2.172287   3.496502   1.089398   4.110166   2.522558
    11  H    2.176807   2.865613   1.089645   2.833639   2.491371
    12  H    2.865617   2.176808   2.833643   1.089645   3.229312
    13  H    2.778059   2.167333   3.410139   1.091648   2.574461
    14  H    3.496502   2.172287   4.110168   1.089398   3.764308
                    6          7          8          9         10
     6  H    0.000000
     7  H    2.427825   0.000000
     8  H    2.477691   1.749797   0.000000
     9  H    2.536296   3.758800   2.574464   0.000000
    10  H    2.457311   4.300357   3.764309   1.762970   0.000000
    11  H    3.064502   3.857026   3.229306   1.761623   1.757659
    12  H    3.857030   3.064502   2.491368   3.011400   3.861409
    13  H    3.758798   2.536299   3.064389   4.002997   4.268390
    14  H    4.300357   2.457309   2.522562   4.268401   5.151503
                   11         12         13         14
    11  H    0.000000
    12  H    2.311854   0.000000
    13  H    3.011391   1.761623   0.000000
    14  H    3.861406   1.757659   1.762970   0.000000
 Stoichiometry    C4H10
 Framework group  C1[X(C4H10)]
 Deg. of freedom    36
 Full point group                 C1      NOp   1
 Largest Abelian subgroup         C1      NOp   1
 Largest concise Abelian subgroup C1      NOp   1
                         Standard orientation:                         
 ---------------------------------------------------------------------
 Center     Atomic      Atomic             Coordinates (Angstroms)
 Number     Number       Type             X           Y           Z
 ---------------------------------------------------------------------
      1          6           0       -0.702557    0.634253    0.300433
      2          6           0        0.702556    0.634253   -0.300433
      3          6           0       -1.543995   -0.565646   -0.123641
      4          6           0        1.543996   -0.565646    0.123641
      5          1           0       -0.624548    0.657946    1.390917
      6          1           0       -1.213886    1.553533    0.008024
      7          1           0        1.213886    1.553534   -0.008024
      8          1           0        0.624548    0.657946   -1.390917
      9          1           0       -1.592957   -0.637607   -1.211814
     10          1           0       -2.563378   -0.485498    0.252156
     11          1           0       -1.128068   -1.500017    0.252236
     12          1           0        1.128073   -1.500016   -0.252243
     13          1           0        1.592951   -0.637612    1.211814
     14          1           0        2.563381   -0.485493   -0.252149
 ---------------------------------------------------------------------
 Rotational constants (GHZ):          13.1138690           4.8880794           4.1211422
 Leave Link  202 at Tue Apr  9 17:39:53 2019, MaxMem=   671088640 cpu:               0.1 elap:               0.0
 (Enter /shared/centos7/gaussian/g16/l301.exe)
 Standard basis: 6-311+G(2df,2p) (5D, 7F)
 Ernie: Thresh=  0.10000D-02 Tol=  0.10000D-05 Strict=F.
 There are   246 symmetry adapted cartesian basis functions of A   symmetry.
 There are   226 symmetry adapted basis functions of A   symmetry.
   226 basis functions,   318 primitive gaussians,   246 cartesian basis functions
    17 alpha electrons       17 beta electrons
       nuclear repulsion energy       133.0271074608 Hartrees.
 IExCor= 4336 DFT=T Ex+Corr=M062X ExCW=0 ScaHFX=  0.540000
 ScaDFX=  1.000000  1.000000  1.000000  1.000000 ScalE2=  1.000000  1.000000
 IRadAn=      5 IRanWt=     -1 IRanGd=            0 ICorTp=0 IEmpDi=  4
 NAtoms=   14 NActive=   14 NUniq=   14 SFac= 1.00D+00 NAtFMM=   60 NAOKFM=F Big=F
 Integral buffers will be    131072 words long.
 Raffenetti 2 integral format.
 Two-electron integral symmetry is turned on.
 Leave Link  301 at Tue Apr  9 17:39:53 2019, MaxMem=   671088640 cpu:               0.8 elap:               0.1
 (Enter /shared/centos7/gaussian/g16/l302.exe)
 NPDir=0 NMtPBC=     1 NCelOv=     1 NCel=       1 NClECP=     1 NCelD=      1
         NCelK=      1 NCelE2=     1 NClLst=     1 CellRange=     0.0.
 One-electron integrals computed using PRISM.
 One-electron integral symmetry used in STVInt
 NBasis=   226 RedAO= T EigKep=  6.30D-05  NBF=   226
 NBsUse=   226 1.00D-06 EigRej= -1.00D+00 NBFU=   226
 Precomputing XC quadrature grid using
 IXCGrd= 4 IRadAn=           5 IRanWt=          -1 IRanGd=           0 AccXCQ= 0.00D+00.
 Generated NRdTot=       0 NPtTot=           0 NUsed=           0 NTot=          32
 NSgBfM=   246   246   246   246   246 MxSgAt=    14 MxSgA2=    14.
 Leave Link  302 at Tue Apr  9 17:39:53 2019, MaxMem=   671088640 cpu:               5.2 elap:               0.3
 (Enter /shared/centos7/gaussian/g16/l303.exe)
 DipDrv:  MaxL=1.
 Leave Link  303 at Tue Apr  9 17:39:53 2019, MaxMem=   671088640 cpu:               0.5 elap:               0.0
 (Enter /shared/centos7/gaussian/g16/l401.exe)
 ExpMin= 4.38D-02 ExpMax= 4.56D+03 ExpMxC= 6.82D+02 IAcc=3 IRadAn=         5 AccDes= 0.00D+00
 Harris functional with IExCor= 1009 and IRadAn=       5 diagonalized for initial guess.
 HarFok:  IExCor= 1009 AccDes= 0.00D+00 IRadAn=         5 IDoV= 1 UseB2=F ITyADJ=14
 ICtDFT=  3500011 ScaDFX=  1.000000  1.000000  1.000000  1.000000
 FoFCou: FMM=F IPFlag=           0 FMFlag=      100000 FMFlg1=           0
         NFxFlg=           0 DoJE=T BraDBF=F KetDBF=T FulRan=T
         wScrn=  0.000000 ICntrl=       500 IOpCl=  0 I1Cent=   200000004 NGrid=           0
         NMat0=    1 NMatS0=      1 NMatT0=    0 NMatD0=    1 NMtDS0=    0 NMtDT0=    0
 Petite list used in FoFCou.
 Harris En= -158.440703915206    
 JPrj=0 DoOrth=F DoCkMO=F.
 Leave Link  401 at Tue Apr  9 17:39:54 2019, MaxMem=   671088640 cpu:              16.4 elap:               0.8
 (Enter /shared/centos7/gaussian/g16/l502.exe)
 Integral symmetry usage will be decided dynamically.
 Closed shell SCF:
 Using DIIS extrapolation, IDIIS=  1040.
 NGot=   671088640 LenX=   670960298 LenY=   670899341
 Requested convergence on RMS density matrix=1.00D-08 within 128 cycles.
 Requested convergence on MAX density matrix=1.00D-06.
 Requested convergence on             energy=1.00D-06.
 No special actions if energy rises.
 Fock matrices will be formed incrementally for  20 cycles.

 Cycle   1  Pass 1  IDiag  1:
 FoFJK:  IHMeth= 1 ICntrl=       0 DoSepK=F KAlg= 0 I1Cent=           0 FoldK=F
 IRaf= 990000000 NMat=       1 IRICut=       1 DoRegI=T DoRafI=F ISym2E= 0 IDoP0=0 IntGTp=1.
 FoFCou: FMM=F IPFlag=           0 FMFlag=      100000 FMFlg1=           0
         NFxFlg=           0 DoJE=F BraDBF=F KetDBF=F FulRan=T
         wScrn=  0.000000 ICntrl=         0 IOpCl=  0 I1Cent=           0 NGrid=           0
         NMat0=    1 NMatS0=      1 NMatT0=    0 NMatD0=    1 NMtDS0=    0 NMtDT0=    0
 Symmetry not used in FoFCou.
 E= -158.188401569743    
 DIIS: error= 2.98D-02 at cycle   1 NSaved=   1.
 NSaved= 1 IEnMin= 1 EnMin= -158.188401569743     IErMin= 1 ErrMin= 2.98D-02
 ErrMax= 2.98D-02  0.00D+00 EMaxC= 1.00D-01 BMatC= 2.36D-01 BMatP= 2.36D-01
 IDIUse=3 WtCom= 7.02D-01 WtEn= 2.98D-01
 Coeff-Com:  0.100D+01
 Coeff-En:   0.100D+01
 Coeff:      0.100D+01
 Gap=     0.342 Goal=   None    Shift=    0.000
 GapD=    0.342 DampG=1.000 DampE=0.500 DampFc=0.5000 IDamp=-1.
 Damping current iteration by 5.00D-01
 RMSDP=2.77D-03 MaxDP=1.10D-01              OVMax= 1.68D-01

 Cycle   2  Pass 1  IDiag  1:
 RMSU=  1.31D-03    CP:  9.45D-01
 E= -158.301628678134     Delta-E=       -0.113227108391 Rises=F Damp=T
 DIIS: error= 5.76D-03 at cycle   2 NSaved=   2.
 NSaved= 2 IEnMin= 2 EnMin= -158.301628678134     IErMin= 2 ErrMin= 5.76D-03
 ErrMax= 5.76D-03  0.00D+00 EMaxC= 1.00D-01 BMatC= 1.07D-02 BMatP= 2.36D-01
 IDIUse=3 WtCom= 9.42D-01 WtEn= 5.76D-02
 Coeff-Com: -0.713D-01 0.107D+01
 Coeff-En:   0.000D+00 0.100D+01
 Coeff:     -0.672D-01 0.107D+01
 Gap=     0.412 Goal=   None    Shift=    0.000
 RMSDP=8.89D-04 MaxDP=1.55D-02 DE=-1.13D-01 OVMax= 8.79D-02

 Cycle   3  Pass 1  IDiag  1:
 RMSU=  8.71D-04    CP:  9.59D-01  8.97D-01
 E= -158.411651420038     Delta-E=       -0.110022741905 Rises=F Damp=F
 DIIS: error= 3.79D-03 at cycle   3 NSaved=   3.
 NSaved= 3 IEnMin= 3 EnMin= -158.411651420038     IErMin= 3 ErrMin= 3.79D-03
 ErrMax= 3.79D-03  0.00D+00 EMaxC= 1.00D-01 BMatC= 1.41D-03 BMatP= 1.07D-02
 IDIUse=3 WtCom= 9.62D-01 WtEn= 3.79D-02
 Coeff-Com: -0.506D-01 0.241D+00 0.809D+00
 Coeff-En:   0.000D+00 0.000D+00 0.100D+01
 Coeff:     -0.486D-01 0.232D+00 0.816D+00
 Gap=     0.396 Goal=   None    Shift=    0.000
 RMSDP=1.39D-04 MaxDP=2.86D-03 DE=-1.10D-01 OVMax= 9.74D-03

 Cycle   4  Pass 1  IDiag  1:
 RMSU=  1.20D-04    CP:  9.57D-01  9.38D-01  9.55D-01
 E= -158.412882043988     Delta-E=       -0.001230623950 Rises=F Damp=F
 DIIS: error= 1.19D-03 at cycle   4 NSaved=   4.
 NSaved= 4 IEnMin= 4 EnMin= -158.412882043988     IErMin= 4 ErrMin= 1.19D-03
 ErrMax= 1.19D-03  0.00D+00 EMaxC= 1.00D-01 BMatC= 1.18D-04 BMatP= 1.41D-03
 IDIUse=3 WtCom= 9.88D-01 WtEn= 1.19D-02
 Coeff-Com: -0.109D-01 0.303D-01 0.253D+00 0.728D+00
 Coeff-En:   0.000D+00 0.000D+00 0.000D+00 0.100D+01
 Coeff:     -0.108D-01 0.299D-01 0.250D+00 0.731D+00
 Gap=     0.397 Goal=   None    Shift=    0.000
 RMSDP=6.52D-05 MaxDP=1.85D-03 DE=-1.23D-03 OVMax= 2.71D-03

 Cycle   5  Pass 1  IDiag  1:
 RMSU=  4.55D-05    CP:  9.58D-01  9.20D-01  9.93D-01  8.34D-01
 E= -158.412986583337     Delta-E=       -0.000104539349 Rises=F Damp=F
 DIIS: error= 1.95D-04 at cycle   5 NSaved=   5.
 NSaved= 5 IEnMin= 5 EnMin= -158.412986583337     IErMin= 5 ErrMin= 1.95D-04
 ErrMax= 1.95D-04  0.00D+00 EMaxC= 1.00D-01 BMatC= 1.02D-05 BMatP= 1.18D-04
 IDIUse=3 WtCom= 9.98D-01 WtEn= 1.95D-03
 Coeff-Com: -0.115D-02-0.251D-03 0.533D-01 0.282D+00 0.666D+00
 Coeff-En:   0.000D+00 0.000D+00 0.000D+00 0.000D+00 0.100D+01
 Coeff:     -0.115D-02-0.250D-03 0.532D-01 0.282D+00 0.667D+00
 Gap=     0.397 Goal=   None    Shift=    0.000
 RMSDP=1.27D-05 MaxDP=4.14D-04 DE=-1.05D-04 OVMax= 7.32D-04

 Cycle   6  Pass 1  IDiag  1:
 RMSU=  1.05D-05    CP:  9.58D-01  9.18D-01  9.98D-01  8.65D-01  1.05D+00
 E= -158.412995928884     Delta-E=       -0.000009345547 Rises=F Damp=F
 DIIS: error= 3.48D-05 at cycle   6 NSaved=   6.
 NSaved= 6 IEnMin= 6 EnMin= -158.412995928884     IErMin= 6 ErrMin= 3.48D-05
 ErrMax= 3.48D-05  0.00D+00 EMaxC= 1.00D-01 BMatC= 2.83D-07 BMatP= 1.02D-05
 IDIUse=1 WtCom= 1.00D+00 WtEn= 0.00D+00
 Coeff-Com:  0.897D-03-0.266D-02-0.128D-01-0.902D-02 0.114D+00 0.910D+00
 Coeff:      0.897D-03-0.266D-02-0.128D-01-0.902D-02 0.114D+00 0.910D+00
 Gap=     0.397 Goal=   None    Shift=    0.000
 RMSDP=6.52D-06 MaxDP=2.79D-04 DE=-9.35D-06 OVMax= 1.75D-04

 Cycle   7  Pass 1  IDiag  1:
 RMSU=  2.90D-06    CP:  9.58D-01  9.16D-01  1.00D+00  8.80D-01  1.14D+00
                    CP:  1.05D+00
 E= -158.412996261182     Delta-E=       -0.000000332298 Rises=F Damp=F
 DIIS: error= 7.96D-06 at cycle   7 NSaved=   7.
 NSaved= 7 IEnMin= 7 EnMin= -158.412996261182     IErMin= 7 ErrMin= 7.96D-06
 ErrMax= 7.96D-06  0.00D+00 EMaxC= 1.00D-01 BMatC= 1.17D-08 BMatP= 2.83D-07
 IDIUse=1 WtCom= 1.00D+00 WtEn= 0.00D+00
 Coeff-Com:  0.228D-03-0.551D-03-0.556D-02-0.170D-01-0.139D-01 0.178D+00
 Coeff-Com:  0.859D+00
 Coeff:      0.228D-03-0.551D-03-0.556D-02-0.170D-01-0.139D-01 0.178D+00
 Coeff:      0.859D+00
 Gap=     0.397 Goal=   None    Shift=    0.000
 RMSDP=1.00D-06 MaxDP=3.51D-05 DE=-3.32D-07 OVMax= 3.51D-05

 Cycle   8  Pass 1  IDiag  1:
 RMSU=  5.04D-07    CP:  9.58D-01  9.15D-01  1.00D+00  8.80D-01  1.15D+00
                    CP:  1.09D+00  1.02D+00
 E= -158.412996275533     Delta-E=       -0.000000014351 Rises=F Damp=F
 DIIS: error= 9.47D-07 at cycle   8 NSaved=   8.
 NSaved= 8 IEnMin= 8 EnMin= -158.412996275533     IErMin= 8 ErrMin= 9.47D-07
 ErrMax= 9.47D-07  0.00D+00 EMaxC= 1.00D-01 BMatC= 1.77D-10 BMatP= 1.17D-08
 IDIUse=1 WtCom= 1.00D+00 WtEn= 0.00D+00
 Coeff-Com: -0.269D-04 0.568D-04 0.686D-04-0.539D-03-0.278D-02-0.134D-01
 Coeff-Com:  0.542D-01 0.962D+00
 Coeff:     -0.269D-04 0.568D-04 0.686D-04-0.539D-03-0.278D-02-0.134D-01
 Coeff:      0.542D-01 0.962D+00
 Gap=     0.397 Goal=   None    Shift=    0.000
 RMSDP=1.46D-07 MaxDP=3.37D-06 DE=-1.44D-08 OVMax= 3.70D-06

 Cycle   9  Pass 1  IDiag  1:
 RMSU=  6.43D-08    CP:  9.58D-01  9.15D-01  1.00D+00  8.80D-01  1.15D+00
                    CP:  1.09D+00  1.06D+00  1.11D+00
 E= -158.412996275758     Delta-E=       -0.000000000225 Rises=F Damp=F
 DIIS: error= 1.24D-07 at cycle   9 NSaved=   9.
 NSaved= 9 IEnMin= 9 EnMin= -158.412996275758     IErMin= 9 ErrMin= 1.24D-07
 ErrMax= 1.24D-07  0.00D+00 EMaxC= 1.00D-01 BMatC= 2.80D-12 BMatP= 1.77D-10
 IDIUse=1 WtCom= 1.00D+00 WtEn= 0.00D+00
 Coeff-Com: -0.568D-05 0.140D-04 0.848D-04 0.150D-03-0.101D-03-0.404D-02
 Coeff-Com: -0.793D-02 0.938D-01 0.918D+00
 Coeff:     -0.568D-05 0.140D-04 0.848D-04 0.150D-03-0.101D-03-0.404D-02
 Coeff:     -0.793D-02 0.938D-01 0.918D+00
 Gap=     0.397 Goal=   None    Shift=    0.000
 RMSDP=1.80D-08 MaxDP=5.22D-07 DE=-2.25D-10 OVMax= 6.73D-07

 Cycle  10  Pass 1  IDiag  1:
 RMSU=  9.53D-09    CP:  9.58D-01  9.15D-01  1.00D+00  8.80D-01  1.15D+00
                    CP:  1.09D+00  1.06D+00  1.12D+00  1.12D+00
 E= -158.412996275759     Delta-E=       -0.000000000001 Rises=F Damp=F
 DIIS: error= 2.11D-08 at cycle  10 NSaved=  10.
 NSaved=10 IEnMin=10 EnMin= -158.412996275759     IErMin=10 ErrMin= 2.11D-08
 ErrMax= 2.11D-08  0.00D+00 EMaxC= 1.00D-01 BMatC= 9.50D-14 BMatP= 2.80D-12
 IDIUse=1 WtCom= 1.00D+00 WtEn= 0.00D+00
 Coeff-Com:  0.102D-05-0.164D-05-0.385D-05-0.856D-05 0.224D-04 0.258D-03
 Coeff-Com: -0.118D-02-0.202D-01 0.169D-01 0.100D+01
 Coeff:      0.102D-05-0.164D-05-0.385D-05-0.856D-05 0.224D-04 0.258D-03
 Coeff:     -0.118D-02-0.202D-01 0.169D-01 0.100D+01
 Gap=     0.397 Goal=   None    Shift=    0.000
 RMSDP=3.78D-09 MaxDP=1.18D-07 DE=-9.66D-13 OVMax= 1.17D-07

 SCF Done:  E(RM062X) =  -158.412996276     A.U. after   10 cycles
            NFock= 10  Conv=0.38D-08     -V/T= 2.0047
 KE= 1.576751658164D+02 PE=-6.321826053296D+02 EE= 1.830673357766D+02
 Leave Link  502 at Tue Apr  9 17:40:11 2019, MaxMem=   671088640 cpu:             329.8 elap:              16.5
 (Enter /shared/centos7/gaussian/g16/l801.exe)
 DoSCS=F DFT=T ScalE2(SS,OS)=  1.000000  1.000000
 Range of M.O.s used for correlation:     1   226
 NBasis=   226 NAE=    17 NBE=    17 NFC=     0 NFV=     0
 NROrb=    226 NOA=    17 NOB=    17 NVA=   209 NVB=   209

 **** Warning!!: The largest alpha MO coefficient is  0.42816917D+02

 Leave Link  801 at Tue Apr  9 17:40:11 2019, MaxMem=   671088640 cpu:               0.3 elap:               0.0
 (Enter /shared/centos7/gaussian/g16/l1101.exe)
 Using compressed storage, NAtomX=    14.
 Will process     15 centers per pass.
 Leave Link 1101 at Tue Apr  9 17:40:11 2019, MaxMem=   671088640 cpu:               5.3 elap:               0.3
 (Enter /shared/centos7/gaussian/g16/l1102.exe)
 Symmetrizing basis deriv contribution to polar:
 IMax=3 JMax=2 DiffMx= 0.00D+00
 Leave Link 1102 at Tue Apr  9 17:40:11 2019, MaxMem=   671088640 cpu:               0.5 elap:               0.0
 (Enter /shared/centos7/gaussian/g16/l1110.exe)
 Forming Gx(P) for the SCF density, NAtomX=    14.
 Integral derivatives from FoFJK, PRISM(SPDF).
 Do as many integral derivatives as possible in FoFJK.
 G2DrvN: MDV=     671087496.
 G2DrvN: will do    15 centers at a time, making    1 passes.
 Calling FoFCou, ICntrl=  3107 FMM=F I1Cent=   0 AccDes= 0.00D+00.
 FoFJK:  IHMeth= 1 ICntrl=    3107 DoSepK=F KAlg= 0 I1Cent=           0 FoldK=F
 IRaf=         0 NMat=       1 IRICut=       1 DoRegI=T DoRafI=F ISym2E= 0 IDoP0=0 IntGTp=1.
 FoFCou: FMM=F IPFlag=           0 FMFlag=      100000 FMFlg1=           0
         NFxFlg=           0 DoJE=F BraDBF=F KetDBF=F FulRan=T
         wScrn=  0.000000 ICntrl=      3107 IOpCl=  0 I1Cent=           0 NGrid=           0
         NMat0=    1 NMatS0=      1 NMatT0=    0 NMatD0=    1 NMtDS0=    0 NMtDT0=    0
 Symmetry not used in FoFCou.
 End of G2Drv F.D. properties file   721 does not exist.
 End of G2Drv F.D. properties file   722 does not exist.
 End of G2Drv F.D. properties file   788 does not exist.
 Leave Link 1110 at Tue Apr  9 17:40:50 2019, MaxMem=   671088640 cpu:             782.1 elap:              39.1
 (Enter /shared/centos7/gaussian/g16/l1002.exe)
 Minotr:  Closed shell wavefunction.
          IDoAtm=11111111111111
          Direct CPHF calculation.
          Differentiating once with respect to nuclear coordinates.
          Requested convergence is 1.0D-08 RMS, and 1.0D-07 maximum.
          Secondary convergence is 1.0D-12 RMS, and 1.0D-12 maximum.
          NewPWx=T KeepS1=F KeepF1=F KeepIn=T MapXYZ=F SortEE=F KeepMc=T.
         4243 words used for storage of precomputed grid.
 Keep R1 ints in memory in canonical form, NReq=350454815.
 FoFCou: FMM=F IPFlag=           0 FMFlag=           0 FMFlg1=           0
         NFxFlg=           0 DoJE=F BraDBF=F KetDBF=F FulRan=T
         wScrn=  0.000000 ICntrl=       600 IOpCl=  0 I1Cent=           0 NGrid=           0
         NMat0=    1 NMatS0=  25651 NMatT0=    0 NMatD0=    1 NMtDS0=    0 NMtDT0=    0
 Symmetry not used in FoFCou.
 Two-electron integral symmetry not used.
          MDV=     671088640 using IRadAn=       1.
          Solving linear equations simultaneously, MaxMat=       0.
          There are    45 degrees of freedom in the 1st order CPHF.  IDoFFX=6 NUNeed=     0.
     39 vectors produced by pass  0 Test12= 7.90D-15 2.22D-09 XBig12= 5.70D-02 5.44D-02.
 AX will form    39 AO Fock derivatives at one time.
     39 vectors produced by pass  1 Test12= 7.90D-15 2.22D-09 XBig12= 1.57D-03 8.68D-03.
     39 vectors produced by pass  2 Test12= 7.90D-15 2.22D-09 XBig12= 2.71D-05 9.42D-04.
     39 vectors produced by pass  3 Test12= 7.90D-15 2.22D-09 XBig12= 2.08D-07 6.76D-05.
     39 vectors produced by pass  4 Test12= 7.90D-15 2.22D-09 XBig12= 1.08D-09 4.11D-06.
     39 vectors produced by pass  5 Test12= 7.90D-15 2.22D-09 XBig12= 5.37D-12 2.55D-07.
     15 vectors produced by pass  6 Test12= 7.90D-15 2.22D-09 XBig12= 1.80D-14 1.71D-08.
 InvSVY:  IOpt=1 It=  1 EMax= 1.89D-15
 Solved reduced A of dimension   249 with    39 vectors.
 End of Minotr F.D. properties file   721 does not exist.
 End of Minotr F.D. properties file   722 does not exist.
 End of Minotr F.D. properties file   788 does not exist.
 Leave Link 1002 at Tue Apr  9 17:41:35 2019, MaxMem=   671088640 cpu:             887.1 elap:              44.4
 (Enter /shared/centos7/gaussian/g16/l601.exe)
 Copying SCF densities to generalized density rwf, IOpCl= 0 IROHF=0.

 **********************************************************************

            Population analysis using the SCF density.

 **********************************************************************

 Orbital symmetries:
       Occupied  (A) (A) (A) (A) (A) (A) (A) (A) (A) (A) (A) (A)
                 (A) (A) (A) (A) (A)
       Virtual   (A) (A) (A) (A) (A) (A) (A) (A) (A) (A) (A) (A)
                 (A) (A) (A) (A) (A) (A) (A) (A) (A) (A) (A) (A)
                 (A) (A) (A) (A) (A) (A) (A) (A) (A) (A) (A) (A)
                 (A) (A) (A) (A) (A) (A) (A) (A) (A) (A) (A) (A)
                 (A) (A) (A) (A) (A) (A) (A) (A) (A) (A) (A) (A)
                 (A) (A) (A) (A) (A) (A) (A) (A) (A) (A) (A) (A)
                 (A) (A) (A) (A) (A) (A) (A) (A) (A) (A) (A) (A)
                 (A) (A) (A) (A) (A) (A) (A) (A) (A) (A) (A) (A)
                 (A) (A) (A) (A) (A) (A) (A) (A) (A) (A) (A) (A)
                 (A) (A) (A) (A) (A) (A) (A) (A) (A) (A) (A) (A)
                 (A) (A) (A) (A) (A) (A) (A) (A) (A) (A) (A) (A)
                 (A) (A) (A) (A) (A) (A) (A) (A) (A) (A) (A) (A)
                 (A) (A) (A) (A) (A) (A) (A) (A) (A) (A) (A) (A)
                 (A) (A) (A) (A) (A) (A) (A) (A) (A) (A) (A) (A)
                 (A) (A) (A) (A) (A) (A) (A) (A) (A) (A) (A) (A)
                 (A) (A) (A) (A) (A) (A) (A) (A) (A) (A) (A) (A)
                 (A) (A) (A) (A) (A) (A) (A) (A) (A) (A) (A) (A)
                 (A) (A) (A) (A) (A)
 The electronic state is 1-A.
 Alpha  occ. eigenvalues --  -10.52517 -10.52480 -10.51770 -10.51770  -0.89464
 Alpha  occ. eigenvalues --   -0.81277  -0.72806  -0.64680  -0.52886  -0.52541
 Alpha  occ. eigenvalues --   -0.48253  -0.44714  -0.44494  -0.42037  -0.38244
 Alpha  occ. eigenvalues --   -0.38019  -0.37956
 Alpha virt. eigenvalues --    0.01714   0.03345   0.03362   0.03997   0.06564
 Alpha virt. eigenvalues --    0.07194   0.07484   0.07513   0.07832   0.10893
 Alpha virt. eigenvalues --    0.10968   0.11440   0.11963   0.12241   0.14915
 Alpha virt. eigenvalues --    0.16999   0.19178   0.20024   0.21931   0.22817
 Alpha virt. eigenvalues --    0.25057   0.25271   0.26668   0.27201   0.27472
 Alpha virt. eigenvalues --    0.27661   0.29186   0.31771   0.32145   0.41169
 Alpha virt. eigenvalues --    0.41597   0.43338   0.44149   0.46157   0.47933
 Alpha virt. eigenvalues --    0.48881   0.52627   0.52885   0.54039   0.54736
 Alpha virt. eigenvalues --    0.56803   0.57923   0.58105   0.60485   0.61173
 Alpha virt. eigenvalues --    0.62063   0.63634   0.64317   0.65754   0.68536
 Alpha virt. eigenvalues --    0.69386   0.69821   0.72487   0.73914   0.76226
 Alpha virt. eigenvalues --    0.78741   0.82602   0.83281   0.85472   0.89487
 Alpha virt. eigenvalues --    0.90639   0.93181   0.97874   1.01802   1.06076
 Alpha virt. eigenvalues --    1.06886   1.09314   1.11068   1.13670   1.14232
 Alpha virt. eigenvalues --    1.16201   1.18188   1.18361   1.20371   1.22045
 Alpha virt. eigenvalues --    1.23013   1.23639   1.27108   1.27972   1.29671
 Alpha virt. eigenvalues --    1.29845   1.32190   1.35339   1.37639   1.37987
 Alpha virt. eigenvalues --    1.39198   1.42198   1.42647   1.45936   1.46858
 Alpha virt. eigenvalues --    1.47715   1.49434   1.49589   1.52367   1.55867
 Alpha virt. eigenvalues --    1.57330   1.58089   1.60088   1.62767   1.65357
 Alpha virt. eigenvalues --    1.66658   1.67334   1.71700   1.76437   1.77448
 Alpha virt. eigenvalues --    2.37944   2.40572   2.44871   2.46686   2.52948
 Alpha virt. eigenvalues --    2.55845   2.58899   2.60978   2.68209   2.73668
 Alpha virt. eigenvalues --    2.76730   2.82246   2.82525   2.85361   2.87165
 Alpha virt. eigenvalues --    2.89123   2.91941   2.97571   2.98543   3.00672
 Alpha virt. eigenvalues --    3.02139   3.04469   3.05303   3.11624   3.14641
 Alpha virt. eigenvalues --    3.14887   3.19511   3.21926   3.24625   3.28053
 Alpha virt. eigenvalues --    3.31208   3.31482   3.33648   3.36299   3.38891
 Alpha virt. eigenvalues --    3.39101   3.42279   3.43266   3.47159   3.50517
 Alpha virt. eigenvalues --    3.54357   3.58348   3.60864   3.63337   3.66329
 Alpha virt. eigenvalues --    3.67192   3.69474   3.73319   3.77811   3.79208
 Alpha virt. eigenvalues --    3.81805   3.83183   3.86056   3.90459   3.94079
 Alpha virt. eigenvalues --    3.95335   3.97390   3.99727   4.00875   4.01448
 Alpha virt. eigenvalues --    4.02475   4.03614   4.09465   4.16744   4.16912
 Alpha virt. eigenvalues --    4.19843   4.20356   4.21590   4.24264   4.24329
 Alpha virt. eigenvalues --    4.26176   4.31424   4.33096   4.35602   4.39166
 Alpha virt. eigenvalues --    4.40908   4.44862   4.50057   4.54585   4.55694
 Alpha virt. eigenvalues --    4.58046   4.58196   4.59232   4.60827   4.62793
 Alpha virt. eigenvalues --    4.66497   4.67622   4.73502   4.76586   4.96697
 Alpha virt. eigenvalues --    5.24681   5.37356   5.43872   5.44651   5.60499
 Alpha virt. eigenvalues --    5.60628   5.61338   5.69377   5.70374   5.71851
 Alpha virt. eigenvalues --   24.30803  24.33584  24.43933  24.47977
          Condensed to atoms (all electrons):
               1          2          3          4          5          6
     1  C    5.209948   0.211962   0.175173  -0.085513   0.468810   0.438148
     2  C    0.211962   5.209948  -0.085513   0.175173  -0.011899  -0.050293
     3  C    0.175173  -0.085513   5.167777   0.069655  -0.064288  -0.032324
     4  C   -0.085513   0.175173   0.069655   5.167778  -0.027212   0.016728
     5  H    0.468810  -0.011899  -0.064288  -0.027212   0.509195  -0.029255
     6  H    0.438148  -0.050293  -0.032324   0.016728  -0.029255   0.530961
     7  H   -0.050293   0.438148   0.016728  -0.032324  -0.006424  -0.005307
     8  H   -0.011899   0.468810  -0.027212  -0.064288   0.004268  -0.006424
     9  H   -0.024922   0.003220   0.407783  -0.008794   0.005555  -0.006119
    10  H   -0.047810   0.021413   0.418407  -0.000191  -0.003207  -0.006503
    11  H   -0.024380  -0.022300   0.416439   0.005974  -0.007223   0.006209
    12  H   -0.022301  -0.024380   0.005973   0.416439   0.000332  -0.000318
    13  H    0.003220  -0.024922  -0.008794   0.407783   0.000633   0.000022
    14  H    0.021413  -0.047810  -0.000191   0.418407  -0.000125  -0.000220
               7          8          9         10         11         12
     1  C   -0.050293  -0.011899  -0.024922  -0.047810  -0.024380  -0.022301
     2  C    0.438148   0.468810   0.003220   0.021413  -0.022300  -0.024380
     3  C    0.016728  -0.027212   0.407783   0.418407   0.416439   0.005973
     4  C   -0.032324  -0.064288  -0.008794  -0.000191   0.005974   0.416439
     5  H   -0.006424   0.004268   0.005555  -0.003207  -0.007223   0.000332
     6  H   -0.005307  -0.006424  -0.006119  -0.006503   0.006209  -0.000318
     7  H    0.530961  -0.029255   0.000022  -0.000220  -0.000318   0.006209
     8  H   -0.029255   0.509195   0.000633  -0.000125   0.000332  -0.007223
     9  H    0.000022   0.000633   0.544631  -0.023646  -0.037474   0.000045
    10  H   -0.000220  -0.000125  -0.023646   0.530502  -0.025160   0.000240
    11  H   -0.000318   0.000332  -0.037474  -0.025160   0.552625  -0.005226
    12  H    0.006209  -0.007223   0.000045   0.000240  -0.005226   0.552624
    13  H   -0.006119   0.005555   0.000171  -0.000125   0.000045  -0.037474
    14  H   -0.006503  -0.003207  -0.000125   0.000027   0.000240  -0.025160
              13         14
     1  C    0.003220   0.021413
     2  C   -0.024922  -0.047810
     3  C   -0.008794  -0.000191
     4  C    0.407783   0.418407
     5  H    0.000633  -0.000125
     6  H    0.000022  -0.000220
     7  H   -0.006119  -0.006503
     8  H    0.005555  -0.003207
     9  H    0.000171  -0.000125
    10  H   -0.000125   0.000027
    11  H    0.000045   0.000240
    12  H   -0.037474  -0.025160
    13  H    0.544631  -0.023646
    14  H   -0.023646   0.530502
 Mulliken charges:
               1
     1  C   -0.261558
     2  C   -0.261557
     3  C   -0.459614
     4  C   -0.459614
     5  H    0.160841
     6  H    0.144696
     7  H    0.144696
     8  H    0.160841
     9  H    0.139019
    10  H    0.136397
    11  H    0.140219
    12  H    0.140219
    13  H    0.139019
    14  H    0.136397
 Sum of Mulliken charges =  -0.00000
 Mulliken charges with hydrogens summed into heavy atoms:
               1
     1  C    0.043978
     2  C    0.043979
     3  C   -0.043978
     4  C   -0.043979
 APT charges:
               1
     1  C   -0.746563
     2  C   -0.746561
     3  C   -1.109861
     4  C   -1.109861
     5  H    0.347983
     6  H    0.419731
     7  H    0.419731
     8  H    0.347983
     9  H    0.320072
    10  H    0.492401
    11  H    0.276235
    12  H    0.276236
    13  H    0.320072
    14  H    0.492402
 Sum of APT charges =  -0.00000
 APT charges with hydrogens summed into heavy atoms:
               1
     1  C    0.021151
     2  C    0.021153
     3  C   -0.021152
     4  C   -0.021152
 Electronic spatial extent (au):  <R**2>=            376.4241
 Charge=             -0.0000 electrons
 Dipole moment (field-independent basis, Debye):
    X=              0.0000    Y=              0.0952    Z=              0.0000  Tot=              0.0952
 Quadrupole moment (field-independent basis, Debye-Ang):
   XX=            -28.7893   YY=            -28.8505   ZZ=            -28.4279
   XY=             -0.0000   XZ=             -0.0305   YZ=             -0.0000
 Traceless Quadrupole moment (field-independent basis, Debye-Ang):
   XX=             -0.1001   YY=             -0.1613   ZZ=              0.2613
   XY=             -0.0000   XZ=             -0.0305   YZ=             -0.0000
 Octapole moment (field-independent basis, Debye-Ang**2):
  XXX=              0.0000  YYY=              0.6015  ZZZ=              0.0000  XYY=              0.0000
  XXY=              1.3435  XXZ=              0.0000  XZZ=             -0.0000  YZZ=              0.0199
  YYZ=             -0.0000  XYZ=              0.4073
 Hexadecapole moment (field-independent basis, Debye-Ang**3):
 XXXX=           -323.5913 YYYY=           -130.3521 ZZZZ=            -68.2375 XXXY=              0.0000
 XXXZ=             -4.2493 YYYX=             -0.0000 YYYZ=              0.0000 ZZZX=              1.5267
 ZZZY=             -0.0000 XXYY=            -79.2904 XXZZ=            -67.5893 YYZZ=            -35.2501
 XXYZ=             -0.0000 YYXZ=              0.3008 ZZXY=             -0.0000
 N-N= 1.330271074608D+02 E-N=-6.321826072921D+02  KE= 1.576751658164D+02
  Exact polarizability:   0.000   0.000   0.000   0.000   0.000   0.000
 Approx polarizability:  57.465  -0.000  56.832  -0.082  -0.000  57.024
 No NMR shielding tensors so no spin-rotation constants.
 Leave Link  601 at Tue Apr  9 17:41:35 2019, MaxMem=   671088640 cpu:               3.9 elap:               0.2
 (Enter /shared/centos7/gaussian/g16/l701.exe)
 ... and contract with generalized density number  0.
 Compute integral second derivatives.
 Leave Link  701 at Tue Apr  9 17:41:35 2019, MaxMem=   671088640 cpu:               5.1 elap:               0.3
 (Enter /shared/centos7/gaussian/g16/l702.exe)
 L702 exits ... SP integral derivatives will be done elsewhere.
 Leave Link  702 at Tue Apr  9 17:41:35 2019, MaxMem=   671088640 cpu:               0.3 elap:               0.0
 (Enter /shared/centos7/gaussian/g16/l703.exe)
 Integral derivatives from FoFJK, PRISM(SPDF).
 Compute integral second derivatives, UseDBF=F ICtDFT=           0.
 Calling FoFJK, ICntrl=    100147 FMM=F ISym2X=0 I1Cent= 0 IOpClX= 0 NMat=1 NMatS=1 NMatT=0.
 FoFJK:  IHMeth= 1 ICntrl=  100147 DoSepK=F KAlg= 0 I1Cent=           0 FoldK=F
 IRaf=         0 NMat=       1 IRICut=       1 DoRegI=T DoRafI=F ISym2E= 0 IDoP0=0 IntGTp=1.
 FoFCou: FMM=F IPFlag=           0 FMFlag=      100000 FMFlg1=         800
         NFxFlg=           0 DoJE=F BraDBF=F KetDBF=F FulRan=T
         wScrn=  0.000000 ICntrl=    100147 IOpCl=  0 I1Cent=           0 NGrid=           0
         NMat0=    1 NMatS0=      1 NMatT0=    0 NMatD0=    1 NMtDS0=    0 NMtDT0=    0
 Symmetry not used in FoFCou.
 Leave Link  703 at Tue Apr  9 17:42:28 2019, MaxMem=   671088640 cpu:            1054.8 elap:              52.8
 (Enter /shared/centos7/gaussian/g16/l716.exe)
 Dipole        = 6.58098515D-08 3.74626882D-02 1.49465953D-08
 Polarizability= 0.00000000D+00 0.00000000D+00 0.00000000D+00
                 0.00000000D+00 0.00000000D+00 0.00000000D+00
 ***** Axes restored to original set *****
 -------------------------------------------------------------------
 Center     Atomic                   Forces (Hartrees/Bohr)
 Number     Number              X              Y              Z
 -------------------------------------------------------------------
      1        6           0.000000017    0.000000107   -0.000000131
      2        6          -0.000000091   -0.000000157    0.000000073
      3        6          -0.000000022    0.000000405   -0.000000145
      4        6           0.000000082   -0.000000349    0.000000112
      5        1           0.000000296    0.000000161   -0.000000099
      6        1          -0.000000032    0.000000239   -0.000000108
      7        1           0.000000040   -0.000000253    0.000000154
      8        1          -0.000000337   -0.000000166    0.000000106
      9        1          -0.000000328    0.000000319   -0.000000115
     10        1           0.000000023    0.000000604   -0.000000292
     11        1           0.000000075    0.000000254   -0.000000114
     12        1          -0.000000056   -0.000000256    0.000000134
     13        1           0.000000328   -0.000000347    0.000000145
     14        1           0.000000005   -0.000000562    0.000000280
 -------------------------------------------------------------------
 Cartesian Forces:  Max     0.000000604 RMS     0.000000235
 FormGI is forming the generalized inverse of G from B-inverse, IUseBI=4.
 Leave Link  716 at Tue Apr  9 17:42:28 2019, MaxMem=   671088640 cpu:               0.5 elap:               0.0
 (Enter /shared/centos7/gaussian/g16/l103.exe)

 GradGradGradGradGradGradGradGradGradGradGradGradGradGradGradGradGradGrad
 Berny optimization.
 Red2BG is reusing G-inverse.
 Internal  Forces:  Max     0.000000133 RMS     0.000000024
 Search for a local minimum.
 Step number   1 out of a maximum of   74 on scan point     1 out of    37
 All quantities printed in internal units (Hartrees-Bohrs-Radians)
 RMS Force = .24172D-07 SwitMx=.10000D-02 MixMth= 2
 Mixed Optimization -- En-DIIS/RFO-DIIS
 Second derivative matrix not updated -- analytic derivatives used.
 ITU=  0
     Eigenvalues ---    0.00187   0.00329   0.01337   0.03517   0.03877
     Eigenvalues ---    0.03967   0.04229   0.04487   0.04533   0.04762
     Eigenvalues ---    0.06929   0.07178   0.09641   0.10748   0.11988
     Eigenvalues ---    0.12112   0.13347   0.14397   0.15471   0.15862
     Eigenvalues ---    0.21765   0.22922   0.29140   0.30080   0.32237
     Eigenvalues ---    0.33027   0.33100   0.33826   0.33841   0.33907
     Eigenvalues ---    0.34127   0.34209   0.34955   0.35023   0.35233
     Eigenvalues --- 1000.000001000.000001000.000001000.000001000.00000
     Eigenvalues --- 1000.000001000.000001000.000001000.000001000.00000
     Eigenvalues --- 1000.000001000.000001000.000001000.000001000.00000
     Eigenvalues --- 1000.000001000.000001000.000001000.000001000.00000
     Eigenvalues --- 1000.000001000.000001000.000001000.000001000.00000
     Eigenvalues --- 1000.000001000.000001000.000001000.00000
 RFO step:  Lambda= 0.00000000D+00 EMin= 1.86868603D-03
 Linear search not attempted -- first point.
 Iteration  1 RMS(Cart)=  0.00000226 RMS(Int)=  0.00000000
 Iteration  2 RMS(Cart)=  0.00000000 RMS(Int)=  0.00000000
 Iteration  1 RMS(Cart)=  0.00000000 RMS(Int)=  0.00000000
 ITry= 1 IFail=0 DXMaxC= 6.87D-06 DCOld= 1.00D+10 DXMaxT= 3.00D-01 DXLimC= 3.00D+00 Rises=F
 Variable       Old X    -DE/DX   Delta X   Delta X   Delta X     New X
                                 (Linear)    (Quad)   (Total)
    R1        2.88787   0.00000   0.00000  -0.00000  -0.00000   2.88787
    R2        2.88307   0.00000   0.00000   0.00000   0.00000   2.88307
    R3        2.06647  -0.00000   0.00000  -0.00000  -0.00000   2.06647
    R4        2.06321  -0.00000   0.00000  -0.00000  -0.00000   2.06321
    R5        2.88307  -0.00000   0.00000  -0.00000  -0.00000   2.88307
    R6        2.06321  -0.00000   0.00000  -0.00000  -0.00000   2.06321
    R7        2.06647  -0.00000   0.00000  -0.00000  -0.00000   2.06647
    R8        2.06292  -0.00000   0.00000  -0.00000  -0.00000   2.06292
    R9        2.05866   0.00000   0.00000   0.00000   0.00000   2.05866
   R10        2.05913   0.00000   0.00000   0.00000   0.00000   2.05913
   R11        2.05913  -0.00000   0.00000   0.00000   0.00000   2.05913
   R12        2.06292   0.00000   0.00000   0.00000   0.00000   2.06292
   R13        2.05866  -0.00000   0.00000  -0.00000  -0.00000   2.05866
    A1        1.97993   0.00000   0.00000   0.00000   0.00000   1.97993
    A2        1.90340  -0.00000   0.00000  -0.00000  -0.00000   1.90340
    A3        1.90214  -0.00000   0.00000   0.00000   0.00000   1.90214
    A4        1.91089   0.00000   0.00000   0.00000   0.00000   1.91089
    A5        1.90653  -0.00000   0.00000   0.00000   0.00000   1.90653
    A6        1.85693   0.00000   0.00000  -0.00000  -0.00000   1.85693
    A7        1.97993   0.00000   0.00000   0.00000   0.00000   1.97993
    A8        1.90214  -0.00000   0.00000  -0.00000  -0.00000   1.90214
    A9        1.90340  -0.00000   0.00000   0.00000   0.00000   1.90340
   A10        1.90653  -0.00000   0.00000  -0.00000  -0.00000   1.90653
   A11        1.91089  -0.00000   0.00000   0.00000   0.00000   1.91089
   A12        1.85693   0.00000   0.00000   0.00000   0.00000   1.85693
   A13        1.93228   0.00000   0.00000   0.00000   0.00000   1.93228
   A14        1.94157   0.00000   0.00000   0.00000   0.00000   1.94157
   A15        1.94766   0.00000   0.00000   0.00000   0.00000   1.94766
   A16        1.88256  -0.00000   0.00000   0.00000   0.00000   1.88256
   A17        1.88016  -0.00000   0.00000  -0.00000  -0.00000   1.88016
   A18        1.87682  -0.00000   0.00000  -0.00000  -0.00000   1.87682
   A19        1.94766   0.00000   0.00000   0.00000   0.00000   1.94766
   A20        1.93228  -0.00000   0.00000  -0.00000  -0.00000   1.93228
   A21        1.94157  -0.00000   0.00000  -0.00000  -0.00000   1.94157
   A22        1.88016  -0.00000   0.00000   0.00000   0.00000   1.88016
   A23        1.87682  -0.00000   0.00000  -0.00000  -0.00000   1.87682
   A24        1.88256   0.00000   0.00000  -0.00000  -0.00000   1.88256
    D1       -1.08184  -0.00000   0.00000  -0.00000  -0.00000  -1.08185
    D2        3.07321  -0.00000   0.00000  -0.00000  -0.00000   3.07321
    D3        1.05280  -0.00000   0.00000  -0.00000  -0.00000   1.05280
    D4        1.05280   0.00000   0.00000  -0.00000  -0.00000   1.05280
    D5       -1.07533   0.00000   0.00000  -0.00000  -0.00000  -1.07533
    D6       -3.09574   0.00000   0.00000  -0.00000  -0.00000  -3.09575
    D7        3.07321  -0.00000   0.00000  -0.00000  -0.00000   3.07321
    D8        0.94508  -0.00000   0.00000  -0.00000  -0.00000   0.94508
    D9       -1.07533  -0.00000   0.00000  -0.00000  -0.00000  -1.07533
   D10       -0.96113   0.00000   0.00000   0.00000   0.00000  -0.96113
   D11       -3.05417   0.00000   0.00000   0.00000  -0.00000  -3.05417
   D12        1.13291   0.00000   0.00000   0.00000   0.00000   1.13291
   D13       -3.09161   0.00000   0.00000   0.00000   0.00000  -3.09161
   D14        1.09854   0.00000   0.00000   0.00000   0.00000   1.09854
   D15       -0.99757   0.00000   0.00000   0.00000   0.00000  -0.99757
   D16        1.16455   0.00000   0.00000   0.00000   0.00000   1.16455
   D17       -0.92849   0.00000   0.00000   0.00000   0.00000  -0.92849
   D18       -3.02460   0.00000   0.00000   0.00000   0.00000  -3.02460
   D19        1.13292   0.00000   0.00000  -0.00000  -0.00000   1.13291
   D20       -0.96112  -0.00000   0.00000  -0.00000  -0.00000  -0.96112
   D21       -3.05416   0.00000   0.00000  -0.00000  -0.00000  -3.05416
   D22       -3.02459   0.00000   0.00000  -0.00000  -0.00000  -3.02459
   D23        1.16456  -0.00000   0.00000  -0.00000  -0.00000   1.16456
   D24       -0.92848  -0.00000   0.00000  -0.00000  -0.00000  -0.92848
   D25       -0.99757  -0.00000   0.00000  -0.00000  -0.00000  -0.99757
   D26       -3.09160  -0.00000   0.00000  -0.00000  -0.00000  -3.09160
   D27        1.09854  -0.00000   0.00000  -0.00000  -0.00000   1.09854
         Item               Value     Threshold  Converged?
 Maximum Force            0.000000     0.000450     YES
 RMS     Force            0.000000     0.000300     YES
 Maximum Displacement     0.000007     0.001800     YES
 RMS     Displacement     0.000002     0.001200     YES
 Predicted change in Energy=-2.455537D-13
 Optimization completed.
    -- Stationary point found.
                           ----------------------------
                           !   Optimized Parameters   !
                           ! (Angstroms and Degrees)  !
 --------------------------                            --------------------------
 ! Name  Definition              Value          Derivative Info.                !
 --------------------------------------------------------------------------------
 ! R1    R(1,2)                  1.5282         -DE/DX =    0.0                 !
 ! R2    R(1,3)                  1.5257         -DE/DX =    0.0                 !
 ! R3    R(1,5)                  1.0935         -DE/DX =    0.0                 !
 ! R4    R(1,6)                  1.0918         -DE/DX =    0.0                 !
 ! R5    R(2,4)                  1.5257         -DE/DX =    0.0                 !
 ! R6    R(2,7)                  1.0918         -DE/DX =    0.0                 !
 ! R7    R(2,8)                  1.0935         -DE/DX =    0.0                 !
 ! R8    R(3,9)                  1.0916         -DE/DX =    0.0                 !
 ! R9    R(3,10)                 1.0894         -DE/DX =    0.0                 !
 ! R10   R(3,11)                 1.0896         -DE/DX =    0.0                 !
 ! R11   R(4,12)                 1.0896         -DE/DX =    0.0                 !
 ! R12   R(4,13)                 1.0916         -DE/DX =    0.0                 !
 ! R13   R(4,14)                 1.0894         -DE/DX =    0.0                 !
 ! A1    A(2,1,3)              113.4417         -DE/DX =    0.0                 !
 ! A2    A(2,1,5)              109.0566         -DE/DX =    0.0                 !
 ! A3    A(2,1,6)              108.9844         -DE/DX =    0.0                 !
 ! A4    A(3,1,5)              109.4858         -DE/DX =    0.0                 !
 ! A5    A(3,1,6)              109.2361         -DE/DX =    0.0                 !
 ! A6    A(5,1,6)              106.3941         -DE/DX =    0.0                 !
 ! A7    A(1,2,4)              113.4417         -DE/DX =    0.0                 !
 ! A8    A(1,2,7)              108.9844         -DE/DX =    0.0                 !
 ! A9    A(1,2,8)              109.0565         -DE/DX =    0.0                 !
 ! A10   A(4,2,7)              109.2361         -DE/DX =    0.0                 !
 ! A11   A(4,2,8)              109.4858         -DE/DX =    0.0                 !
 ! A12   A(7,2,8)              106.3941         -DE/DX =    0.0                 !
 ! A13   A(1,3,9)              110.7112         -DE/DX =    0.0                 !
 ! A14   A(1,3,10)             111.2435         -DE/DX =    0.0                 !
 ! A15   A(1,3,11)             111.5924         -DE/DX =    0.0                 !
 ! A16   A(9,3,10)             107.8629         -DE/DX =    0.0                 !
 ! A17   A(9,3,11)             107.7251         -DE/DX =    0.0                 !
 ! A18   A(10,3,11)            107.5339         -DE/DX =    0.0                 !
 ! A19   A(2,4,12)             111.5924         -DE/DX =    0.0                 !
 ! A20   A(2,4,13)             110.7112         -DE/DX =    0.0                 !
 ! A21   A(2,4,14)             111.2435         -DE/DX =    0.0                 !
 ! A22   A(12,4,13)            107.7251         -DE/DX =    0.0                 !
 ! A23   A(12,4,14)            107.5339         -DE/DX =    0.0                 !
 ! A24   A(13,4,14)            107.8629         -DE/DX =    0.0                 !
 ! D1    D(3,1,2,4)            -61.9851         -DE/DX =    0.0                 !
 ! D2    D(3,1,2,7)            176.082          -DE/DX =    0.0                 !
 ! D3    D(3,1,2,8)             60.3209         -DE/DX =    0.0                 !
 ! D4    D(5,1,2,4)             60.3209         -DE/DX =    0.0                 !
 ! D5    D(5,1,2,7)            -61.6119         -DE/DX =    0.0                 !
 ! D6    D(5,1,2,8)           -177.373          -DE/DX =    0.0                 !
 ! D7    D(6,1,2,4)            176.0821         -DE/DX =    0.0                 !
 ! D8    D(6,1,2,7)             54.1492         -DE/DX =    0.0                 !
 ! D9    D(6,1,2,8)            -61.6119         -DE/DX =    0.0                 !
 ! D10   D(2,1,3,9)            -55.0686         -DE/DX =    0.0                 !
 ! D11   D(2,1,3,10)          -174.9909         -DE/DX =    0.0                 !
 ! D12   D(2,1,3,11)            64.9108         -DE/DX =    0.0                 !
 ! D13   D(5,1,3,9)           -177.1362         -DE/DX =    0.0                 !
 ! D14   D(5,1,3,10)            62.9415         -DE/DX =    0.0                 !
 ! D15   D(5,1,3,11)           -57.1568         -DE/DX =    0.0                 !
 ! D16   D(6,1,3,9)             66.7239         -DE/DX =    0.0                 !
 ! D17   D(6,1,3,10)           -53.1984         -DE/DX =    0.0                 !
 ! D18   D(6,1,3,11)          -173.2967         -DE/DX =    0.0                 !
 ! D19   D(1,2,4,12)            64.9113         -DE/DX =    0.0                 !
 ! D20   D(1,2,4,13)           -55.0681         -DE/DX =    0.0                 !
 ! D21   D(1,2,4,14)          -174.9904         -DE/DX =    0.0                 !
 ! D22   D(7,2,4,12)          -173.2962         -DE/DX =    0.0                 !
 ! D23   D(7,2,4,13)            66.7243         -DE/DX =    0.0                 !
 ! D24   D(7,2,4,14)           -53.1979         -DE/DX =    0.0                 !
 ! D25   D(8,2,4,12)           -57.1563         -DE/DX =    0.0                 !
 ! D26   D(8,2,4,13)          -177.1358         -DE/DX =    0.0                 !
 ! D27   D(8,2,4,14)            62.942          -DE/DX =    0.0                 !
 --------------------------------------------------------------------------------
 Lowest energy point so far.  Saving SCF results.
 Iteration  1 RMS(Cart)=  0.01731461 RMS(Int)=  0.01723575
 Iteration  2 RMS(Cart)=  0.00046862 RMS(Int)=  0.01723109
 Iteration  3 RMS(Cart)=  0.00000656 RMS(Int)=  0.01723109
 Iteration  4 RMS(Cart)=  0.00000020 RMS(Int)=  0.01723109
 Iteration  1 RMS(Cart)=  0.01075617 RMS(Int)=  0.01074815
 Iteration  2 RMS(Cart)=  0.00669602 RMS(Int)=  0.01194219
 Iteration  3 RMS(Cart)=  0.00417089 RMS(Int)=  0.01367371
 Iteration  4 RMS(Cart)=  0.00259888 RMS(Int)=  0.01501031
 Iteration  5 RMS(Cart)=  0.00161969 RMS(Int)=  0.01591752
 Iteration  6 RMS(Cart)=  0.00100955 RMS(Int)=  0.01650685
 Iteration  7 RMS(Cart)=  0.00062930 RMS(Int)=  0.01688245
 Iteration  8 RMS(Cart)=  0.00039229 RMS(Int)=  0.01711958
 Iteration  9 RMS(Cart)=  0.00024455 RMS(Int)=  0.01726851
 Iteration 10 RMS(Cart)=  0.00015245 RMS(Int)=  0.01736177
 Iteration 11 RMS(Cart)=  0.00009504 RMS(Int)=  0.01742007
 Iteration 12 RMS(Cart)=  0.00005925 RMS(Int)=  0.01745647
 Iteration 13 RMS(Cart)=  0.00003694 RMS(Int)=  0.01747919
 Iteration 14 RMS(Cart)=  0.00002303 RMS(Int)=  0.01749337
 Iteration 15 RMS(Cart)=  0.00001436 RMS(Int)=  0.01750221
 Iteration 16 RMS(Cart)=  0.00000895 RMS(Int)=  0.01750772
 Iteration 17 RMS(Cart)=  0.00000558 RMS(Int)=  0.01751116
 Iteration 18 RMS(Cart)=  0.00000348 RMS(Int)=  0.01751330
 Iteration 19 RMS(Cart)=  0.00000217 RMS(Int)=  0.01751464
 Iteration 20 RMS(Cart)=  0.00000135 RMS(Int)=  0.01751547
 Iteration 21 RMS(Cart)=  0.00000084 RMS(Int)=  0.01751599
 GradGradGradGradGradGradGradGradGradGradGradGradGradGradGradGradGradGrad

 Leave Link  103 at Tue Apr  9 17:42:28 2019, MaxMem=   671088640 cpu:               0.7 elap:               0.1
 (Enter /shared/centos7/gaussian/g16/l202.exe)
                          Input orientation:                          
 ---------------------------------------------------------------------
 Center     Atomic      Atomic             Coordinates (Angstroms)
 Number     Number       Type             X           Y           Z
 ---------------------------------------------------------------------
      1          6           0        0.689216   -0.567449   -0.505288
      2          6           0       -0.748762   -0.080833   -0.681176
      3          6           0        1.557936    0.391386    0.303167
      4          6           0       -1.516505    0.031356    0.632479
      5          1           0        0.745489   -1.566591   -0.064192
      6          1           0        1.090798   -0.653036   -1.517061
      7          1           0       -1.276183   -0.765142   -1.348719
      8          1           0       -0.737984    0.891445   -1.181598
      9          1           0        1.461506    1.393434   -0.119454
     10          1           0        2.617095    0.158365    0.190572
     11          1           0        1.280317    0.447698    1.355504
     12          1           0       -1.088733    0.793647    1.283071
     13          1           0       -1.496603   -0.916624    1.173493
     14          1           0       -2.559150    0.295298    0.459025
 ---------------------------------------------------------------------
                    Distance matrix (angstroms):
                    1          2          3          4          5
     1  C    0.000000
     2  C    1.528239   0.000000
     3  C    1.525660   2.552014   0.000000
     4  C    2.553094   1.525681   3.112917   0.000000
     5  H    1.093625   2.195662   2.151440   2.855766   0.000000
     6  H    1.091914   2.100025   2.149945   3.447745   1.750614
     7  H    2.147848   1.091817   3.478291   2.148792   2.525764
     8  H    2.150039   1.093555   2.779537   2.153305   3.080783
     9  H    2.142513   2.715563   1.091790   3.359942   3.045895
    10  H    2.174338   3.485134   1.090319   4.159094   2.557986
    11  H    2.200562   2.923111   1.089797   2.918617   2.521694
    12  H    2.865644   2.176824   2.850769   1.089654   3.278751
    13  H    2.778135   2.167397   3.434904   1.091677   2.642214
    14  H    3.496586   2.172334   4.121155   1.089431   3.828971
                    6          7          8          9         10
     6  H    0.000000
     7  H    2.375607   0.000000
     8  H    2.417106   1.749819   0.000000
     9  H    2.505747   3.696685   2.493571   0.000000
    10  H    2.429808   4.287178   3.698217   1.719563   0.000000
    11  H    3.082071   3.914013   3.272206   1.761462   1.796595
    12  H    3.831969   3.064519   2.491422   2.971623   3.915393
    13  H    3.742085   2.536353   3.064485   3.969696   4.363972
    14  H    4.257508   2.457331   2.522633   4.207875   5.185010
                   11         12         13         14
    11  H    0.000000
    12  H    2.395272   0.000000
    13  H    3.099321   1.761645   0.000000
    14  H    3.945682   1.757705   1.763017   0.000000
 Stoichiometry    C4H10
 Framework group  C1[X(C4H10)]
 Deg. of freedom    36
 Full point group                 C1      NOp   1
 RotChk:  IX=0 Diff= 1.93D-02
 Largest Abelian subgroup         C1      NOp   1
 Largest concise Abelian subgroup C1      NOp   1
                         Standard orientation:                         
 ---------------------------------------------------------------------
 Center     Atomic      Atomic             Coordinates (Angstroms)
 Number     Number       Type             X           Y           Z
 ---------------------------------------------------------------------
      1          6           0       -0.699024    0.623760    0.316127
      2          6           0        0.697619    0.628052   -0.304263
      3          6           0       -1.548446   -0.568462   -0.113671
      4          6           0        1.555407   -0.558921    0.123523
      5          1           0       -0.675688    0.676873    1.408213
      6          1           0       -1.170733    1.546323   -0.028324
      7          1           0        1.204854    1.555450   -0.030935
      8          1           0        0.604303    0.636853   -1.393794
      9          1           0       -1.530534   -0.637514   -1.203128
     10          1           0       -2.601091   -0.411991    0.123500
     11          1           0       -1.195826   -1.519752    0.284277
     12          1           0        1.142544   -1.501672   -0.234401
     13          1           0        1.620067   -0.616268    1.211774
     14          1           0        2.568774   -0.474881   -0.267480
 ---------------------------------------------------------------------
 Rotational constants (GHZ):          13.1964770           4.8509736           4.1106942
 Leave Link  202 at Tue Apr  9 17:42:28 2019, MaxMem=   671088640 cpu:               0.1 elap:               0.0
 (Enter /shared/centos7/gaussian/g16/l301.exe)
 Standard basis: 6-311+G(2df,2p) (5D, 7F)
 Ernie: Thresh=  0.10000D-02 Tol=  0.10000D-05 Strict=F.
 There are   246 symmetry adapted cartesian basis functions of A   symmetry.
 There are   226 symmetry adapted basis functions of A   symmetry.
   226 basis functions,   318 primitive gaussians,   246 cartesian basis functions
    17 alpha electrons       17 beta electrons
       nuclear repulsion energy       132.9420653216 Hartrees.
 IExCor= 4336 DFT=T Ex+Corr=M062X ExCW=0 ScaHFX=  0.540000
 ScaDFX=  1.000000  1.000000  1.000000  1.000000 ScalE2=  1.000000  1.000000
 IRadAn=      5 IRanWt=     -1 IRanGd=            0 ICorTp=0 IEmpDi=  4
 NAtoms=   14 NActive=   14 NUniq=   14 SFac= 1.00D+00 NAtFMM=   60 NAOKFM=F Big=F
 Integral buffers will be    131072 words long.
 Raffenetti 2 integral format.
 Two-electron integral symmetry is turned on.
 Leave Link  301 at Tue Apr  9 17:42:28 2019, MaxMem=   671088640 cpu:               0.8 elap:               0.1
 (Enter /shared/centos7/gaussian/g16/l302.exe)
 NPDir=0 NMtPBC=     1 NCelOv=     1 NCel=       1 NClECP=     1 NCelD=      1
         NCelK=      1 NCelE2=     1 NClLst=     1 CellRange=     0.0.
 One-electron integrals computed using PRISM.
 One-electron integral symmetry used in STVInt
 NBasis=   226 RedAO= T EigKep=  6.48D-05  NBF=   226
 NBsUse=   226 1.00D-06 EigRej= -1.00D+00 NBFU=   226
 Precomputing XC quadrature grid using
 IXCGrd= 4 IRadAn=           5 IRanWt=          -1 IRanGd=           0 AccXCQ= 0.00D+00.
 Generated NRdTot=       0 NPtTot=           0 NUsed=           0 NTot=          32
 NSgBfM=   246   246   246   246   246 MxSgAt=    14 MxSgA2=    14.
 Leave Link  302 at Tue Apr  9 17:42:28 2019, MaxMem=   671088640 cpu:               4.9 elap:               0.3
 (Enter /shared/centos7/gaussian/g16/l303.exe)
 DipDrv:  MaxL=1.
 Leave Link  303 at Tue Apr  9 17:42:28 2019, MaxMem=   671088640 cpu:               0.5 elap:               0.0
 (Enter /shared/centos7/gaussian/g16/l401.exe)
 Initial guess from the checkpoint file:  "/scratch/underkoffler.c/gaussian_scratch/Gau-31989.chk"
 B after Tr=    -0.000000   -0.000000   -0.000000
         Rot=    0.999994    0.003053    0.001320    0.000189 Ang=   0.38 deg.
 Guess basis will be translated and rotated to current coordinates.
 JPrj=2 DoOrth=T DoCkMO=T.
 Generating alternative initial guess.
 ExpMin= 4.38D-02 ExpMax= 4.56D+03 ExpMxC= 6.82D+02 IAcc=2 IRadAn=         4 AccDes= 0.00D+00
 Harris functional with IExCor= 1009 and IRadAn=       4 diagonalized for initial guess.
 HarFok:  IExCor= 1009 AccDes= 0.00D+00 IRadAn=         4 IDoV= 1 UseB2=F ITyADJ=14
 ICtDFT=  3500011 ScaDFX=  1.000000  1.000000  1.000000  1.000000
 FoFCou: FMM=F IPFlag=           0 FMFlag=      100000 FMFlg1=           0
         NFxFlg=           0 DoJE=T BraDBF=F KetDBF=T FulRan=T
         wScrn=  0.000000 ICntrl=       500 IOpCl=  0 I1Cent=   200000004 NGrid=           0
         NMat0=    1 NMatS0=      1 NMatT0=    0 NMatD0=    1 NMtDS0=    0 NMtDT0=    0
 Petite list used in FoFCou.
 Harris En= -158.438994832205    
 Leave Link  401 at Tue Apr  9 17:42:29 2019, MaxMem=   671088640 cpu:              10.5 elap:               0.6
 (Enter /shared/centos7/gaussian/g16/l502.exe)
 Integral symmetry usage will be decided dynamically.
 Closed shell SCF:
 Using DIIS extrapolation, IDIIS=  1040.
 NGot=   671088640 LenX=   670960298 LenY=   670899341
 Requested convergence on RMS density matrix=1.00D-08 within 128 cycles.
 Requested convergence on MAX density matrix=1.00D-06.
 Requested convergence on             energy=1.00D-06.
 No special actions if energy rises.
 Fock matrices will be formed incrementally for  20 cycles.

 Cycle   1  Pass 1  IDiag  1:
 FoFJK:  IHMeth= 1 ICntrl=       0 DoSepK=F KAlg= 0 I1Cent=           0 FoldK=F
 IRaf= 990000000 NMat=       1 IRICut=       1 DoRegI=T DoRafI=F ISym2E= 0 IDoP0=0 IntGTp=1.
 FoFCou: FMM=F IPFlag=           0 FMFlag=      100000 FMFlg1=           0
         NFxFlg=           0 DoJE=F BraDBF=F KetDBF=F FulRan=T
         wScrn=  0.000000 ICntrl=         0 IOpCl=  0 I1Cent=           0 NGrid=           0
         NMat0=    1 NMatS0=      1 NMatT0=    0 NMatD0=    1 NMtDS0=    0 NMtDT0=    0
 Symmetry not used in FoFCou.
 E= -158.408959734858    
 DIIS: error= 2.43D-03 at cycle   1 NSaved=   1.
 NSaved= 1 IEnMin= 1 EnMin= -158.408959734858     IErMin= 1 ErrMin= 2.43D-03
 ErrMax= 2.43D-03  0.00D+00 EMaxC= 1.00D-01 BMatC= 1.90D-03 BMatP= 1.90D-03
 IDIUse=3 WtCom= 9.76D-01 WtEn= 2.43D-02
 Coeff-Com:  0.100D+01
 Coeff-En:   0.100D+01
 Coeff:      0.100D+01
 Gap=     0.657 Goal=   None    Shift=    0.000
 GapD=    0.657 DampG=2.000 DampE=1.000 DampFc=2.0000 IDamp=-1.
 RMSDP=2.47D-04 MaxDP=6.62D-03              OVMax= 1.13D-02

 Cycle   2  Pass 1  IDiag  1:
 RMSU=  2.47D-04    CP:  1.00D+00
 E= -158.411382720463     Delta-E=       -0.002422985604 Rises=F Damp=F
 DIIS: error= 4.14D-04 at cycle   2 NSaved=   2.
 NSaved= 2 IEnMin= 2 EnMin= -158.411382720463     IErMin= 2 ErrMin= 4.14D-04
 ErrMax= 4.14D-04  0.00D+00 EMaxC= 1.00D-01 BMatC= 4.95D-05 BMatP= 1.90D-03
 IDIUse=3 WtCom= 9.96D-01 WtEn= 4.14D-03
 Coeff-Com: -0.109D+00 0.111D+01
 Coeff-En:   0.000D+00 0.100D+01
 Coeff:     -0.108D+00 0.111D+01
 Gap=     0.393 Goal=   None    Shift=    0.000
 RMSDP=5.95D-05 MaxDP=1.83D-03 DE=-2.42D-03 OVMax= 3.15D-03

 Cycle   3  Pass 1  IDiag  1:
 RMSU=  4.44D-05    CP:  1.00D+00  1.16D+00
 E= -158.411485078954     Delta-E=       -0.000102358491 Rises=F Damp=F
 DIIS: error= 1.71D-04 at cycle   3 NSaved=   3.
 NSaved= 3 IEnMin= 3 EnMin= -158.411485078954     IErMin= 3 ErrMin= 1.71D-04
 ErrMax= 1.71D-04  0.00D+00 EMaxC= 1.00D-01 BMatC= 6.38D-06 BMatP= 4.95D-05
 IDIUse=3 WtCom= 9.98D-01 WtEn= 1.71D-03
 Coeff-Com: -0.420D-01 0.270D+00 0.772D+00
 Coeff-En:   0.000D+00 0.000D+00 0.100D+01
 Coeff:     -0.419D-01 0.270D+00 0.772D+00
 Gap=     0.393 Goal=   None    Shift=    0.000
 RMSDP=1.43D-05 MaxDP=3.50D-04 DE=-1.02D-04 OVMax= 7.73D-04

 Cycle   4  Pass 1  IDiag  1:
 RMSU=  1.27D-05    CP:  1.00D+00  1.18D+00  9.34D-01
 E= -158.411492287483     Delta-E=       -0.000007208530 Rises=F Damp=F
 DIIS: error= 5.39D-05 at cycle   4 NSaved=   4.
 NSaved= 4 IEnMin= 4 EnMin= -158.411492287483     IErMin= 4 ErrMin= 5.39D-05
 ErrMax= 5.39D-05  0.00D+00 EMaxC= 1.00D-01 BMatC= 6.63D-07 BMatP= 6.38D-06
 IDIUse=1 WtCom= 1.00D+00 WtEn= 0.00D+00
 Coeff-Com:  0.507D-03-0.483D-01 0.188D+00 0.859D+00
 Coeff:      0.507D-03-0.483D-01 0.188D+00 0.859D+00
 Gap=     0.393 Goal=   None    Shift=    0.000
 RMSDP=6.00D-06 MaxDP=2.18D-04 DE=-7.21D-06 OVMax= 2.85D-04

 Cycle   5  Pass 1  IDiag  1:
 RMSU=  3.03D-06    CP:  1.00D+00  1.19D+00  1.04D+00  1.00D+00
 E= -158.411493069274     Delta-E=       -0.000000781791 Rises=F Damp=F
 DIIS: error= 2.25D-05 at cycle   5 NSaved=   5.
 NSaved= 5 IEnMin= 5 EnMin= -158.411493069274     IErMin= 5 ErrMin= 2.25D-05
 ErrMax= 2.25D-05  0.00D+00 EMaxC= 1.00D-01 BMatC= 8.19D-08 BMatP= 6.63D-07
 IDIUse=1 WtCom= 1.00D+00 WtEn= 0.00D+00
 Coeff-Com:  0.245D-02-0.348D-01 0.349D-01 0.357D+00 0.640D+00
 Coeff:      0.245D-02-0.348D-01 0.349D-01 0.357D+00 0.640D+00
 Gap=     0.393 Goal=   None    Shift=    0.000
 RMSDP=1.45D-06 MaxDP=5.11D-05 DE=-7.82D-07 OVMax= 6.31D-05

 Cycle   6  Pass 1  IDiag  1:
 RMSU=  9.13D-07    CP:  1.00D+00  1.19D+00  1.06D+00  1.04D+00  8.60D-01
 E= -158.411493153795     Delta-E=       -0.000000084520 Rises=F Damp=F
 DIIS: error= 1.53D-06 at cycle   6 NSaved=   6.
 NSaved= 6 IEnMin= 6 EnMin= -158.411493153795     IErMin= 6 ErrMin= 1.53D-06
 ErrMax= 1.53D-06  0.00D+00 EMaxC= 1.00D-01 BMatC= 6.64D-10 BMatP= 8.19D-08
 IDIUse=1 WtCom= 1.00D+00 WtEn= 0.00D+00
 Coeff-Com:  0.234D-03-0.211D-02-0.374D-02 0.716D-02 0.747D-01 0.924D+00
 Coeff:      0.234D-03-0.211D-02-0.374D-02 0.716D-02 0.747D-01 0.924D+00
 Gap=     0.393 Goal=   None    Shift=    0.000
 RMSDP=4.05D-07 MaxDP=1.58D-05 DE=-8.45D-08 OVMax= 1.23D-05

 Cycle   7  Pass 1  IDiag  1:
 RMSU=  1.49D-07    CP:  1.00D+00  1.19D+00  1.07D+00  1.05D+00  9.24D-01
                    CP:  1.15D+00
 E= -158.411493154726     Delta-E=       -0.000000000931 Rises=F Damp=F
 DIIS: error= 6.07D-07 at cycle   7 NSaved=   7.
 NSaved= 7 IEnMin= 7 EnMin= -158.411493154726     IErMin= 7 ErrMin= 6.07D-07
 ErrMax= 6.07D-07  0.00D+00 EMaxC= 1.00D-01 BMatC= 8.21D-11 BMatP= 6.64D-10
 IDIUse=1 WtCom= 1.00D+00 WtEn= 0.00D+00
 Coeff-Com: -0.499D-04 0.106D-02-0.278D-02-0.156D-01-0.926D-02 0.281D+00
 Coeff-Com:  0.746D+00
 Coeff:     -0.499D-04 0.106D-02-0.278D-02-0.156D-01-0.926D-02 0.281D+00
 Coeff:      0.746D+00
 Gap=     0.393 Goal=   None    Shift=    0.000
 RMSDP=9.26D-08 MaxDP=2.55D-06 DE=-9.31D-10 OVMax= 2.52D-06

 Cycle   8  Pass 1  IDiag  1:
 RMSU=  4.08D-08    CP:  1.00D+00  1.19D+00  1.07D+00  1.05D+00  9.31D-01
                    CP:  1.21D+00  1.05D+00
 E= -158.411493154814     Delta-E=       -0.000000000088 Rises=F Damp=F
 DIIS: error= 2.24D-07 at cycle   8 NSaved=   8.
 NSaved= 8 IEnMin= 8 EnMin= -158.411493154814     IErMin= 8 ErrMin= 2.24D-07
 ErrMax= 2.24D-07  0.00D+00 EMaxC= 1.00D-01 BMatC= 9.16D-12 BMatP= 8.21D-11
 IDIUse=1 WtCom= 1.00D+00 WtEn= 0.00D+00
 Coeff-Com: -0.393D-04 0.606D-03-0.806D-03-0.712D-02-0.100D-01 0.457D-01
 Coeff-Com:  0.295D+00 0.676D+00
 Coeff:     -0.393D-04 0.606D-03-0.806D-03-0.712D-02-0.100D-01 0.457D-01
 Coeff:      0.295D+00 0.676D+00
 Gap=     0.393 Goal=   None    Shift=    0.000
 RMSDP=2.48D-08 MaxDP=8.78D-07 DE=-8.84D-11 OVMax= 6.70D-07

 Cycle   9  Pass 1  IDiag  1:
 RMSU=  1.06D-08    CP:  1.00D+00  1.19D+00  1.07D+00  1.05D+00  9.34D-01
                    CP:  1.22D+00  1.11D+00  1.01D+00
 E= -158.411493154825     Delta-E=       -0.000000000011 Rises=F Damp=F
 DIIS: error= 2.85D-08 at cycle   9 NSaved=   9.
 NSaved= 9 IEnMin= 9 EnMin= -158.411493154825     IErMin= 9 ErrMin= 2.85D-08
 ErrMax= 2.85D-08  0.00D+00 EMaxC= 1.00D-01 BMatC= 1.46D-13 BMatP= 9.16D-12
 IDIUse=1 WtCom= 1.00D+00 WtEn= 0.00D+00
 Coeff-Com: -0.362D-05 0.395D-04 0.498D-04-0.329D-03-0.123D-02-0.748D-02
 Coeff-Com:  0.741D-02 0.106D+00 0.895D+00
 Coeff:     -0.362D-05 0.395D-04 0.498D-04-0.329D-03-0.123D-02-0.748D-02
 Coeff:      0.741D-02 0.106D+00 0.895D+00
 Gap=     0.393 Goal=   None    Shift=    0.000
 RMSDP=7.24D-09 MaxDP=2.47D-07 DE=-1.10D-11 OVMax= 1.57D-07

 SCF Done:  E(RM062X) =  -158.411493155     A.U. after    9 cycles
            NFock=  9  Conv=0.72D-08     -V/T= 2.0047
 KE= 1.576743113689D+02 PE=-6.320123988753D+02 EE= 1.829845290300D+02
 Leave Link  502 at Tue Apr  9 17:42:44 2019, MaxMem=   671088640 cpu:             287.8 elap:              14.9
 (Enter /shared/centos7/gaussian/g16/l701.exe)
[...]
 Coeff-Com:  0.224D+00 0.755D+00
 Coeff:     -0.255D-04 0.356D-03-0.128D-02-0.445D-02-0.728D-02 0.336D-01
 Coeff:      0.224D+00 0.755D+00
 Gap=     0.396 Goal=   None    Shift=    0.000
 RMSDP=3.42D-09 MaxDP=1.15D-07 DE=-2.33D-12 OVMax= 1.16D-07

 SCF Done:  E(RM062X) =  -158.409680186     A.U. after    8 cycles
            NFock=  8  Conv=0.34D-08     -V/T= 2.0047
 KE= 1.576722061880D+02 PE=-6.320145286306D+02 EE= 1.829898583313D+02
 Leave Link  502 at Tue Apr  9 18:02:01 2019, MaxMem=   671088640 cpu:             265.7 elap:              13.3
 (Enter /shared/centos7/gaussian/g16/l701.exe)
 ... and contract with generalized density number  0.
 Compute integral first derivatives.
 Leave Link  701 at Tue Apr  9 18:02:02 2019, MaxMem=   671088640 cpu:               4.4 elap:               0.2
 (Enter /shared/centos7/gaussian/g16/l702.exe)
 L702 exits ... SP integral derivatives will be done elsewhere.
 Leave Link  702 at Tue Apr  9 18:02:02 2019, MaxMem=   671088640 cpu:               0.3 elap:               0.0
 (Enter /shared/centos7/gaussian/g16/l703.exe)
 Integral derivatives from FoFJK, PRISM(SPDF).
 Compute integral first derivatives, UseDBF=F ICtDFT=           0.
 Calling FoFJK, ICntrl=      2127 FMM=F ISym2X=0 I1Cent= 0 IOpClX= 0 NMat=1 NMatS=1 NMatT=0.
 FoFJK:  IHMeth= 1 ICntrl=    2127 DoSepK=F KAlg= 0 I1Cent=           0 FoldK=F
 IRaf=         0 NMat=       1 IRICut=       1 DoRegI=T DoRafI=F ISym2E= 0 IDoP0=0 IntGTp=1.
 FoFCou: FMM=F IPFlag=           0 FMFlag=      100000 FMFlg1=         800
         NFxFlg=           0 DoJE=F BraDBF=F KetDBF=F FulRan=T
         wScrn=  0.000000 ICntrl=      2127 IOpCl=  0 I1Cent=           0 NGrid=           0
         NMat0=    1 NMatS0=      1 NMatT0=    0 NMatD0=    1 NMtDS0=    0 NMtDT0=    0
 Symmetry not used in FoFCou.
 Leave Link  703 at Tue Apr  9 18:02:05 2019, MaxMem=   671088640 cpu:              70.0 elap:               3.5
 (Enter /shared/centos7/gaussian/g16/l716.exe)
 Dipole        =-2.00360783D-03 3.65432932D-02 7.41621890D-04
 ***** Axes restored to original set *****
 -------------------------------------------------------------------
 Center     Atomic                   Forces (Hartrees/Bohr)
 Number     Number              X              Y              Z
 -------------------------------------------------------------------
      1        6           0.001628745    0.000810042   -0.003330537
      2        6          -0.000965920   -0.000538577    0.001903302
      3        6          -0.002520502   -0.000377182    0.003839912
      4        6          -0.000005189   -0.000003797   -0.000008174
      5        1           0.000033949    0.000022848    0.000005968
      6        1           0.000024522   -0.000015084    0.000013643
      7        1          -0.000016072    0.000004373   -0.000007796
      8        1           0.000007654   -0.000018194    0.000002630
      9        1           0.000017410   -0.000030813    0.000013939
     10        1           0.001721514    0.000094897   -0.002489244
     11        1           0.000042380    0.000037841    0.000046581
     12        1           0.000024462    0.000007647    0.000006434
     13        1           0.000007505    0.000007335    0.000005425
     14        1          -0.000000458   -0.000001336   -0.000002083
 -------------------------------------------------------------------
 Cartesian Forces:  Max     0.003839912 RMS     0.001087455
 Leave Link  716 at Tue Apr  9 18:02:05 2019, MaxMem=   671088640 cpu:               0.3 elap:               0.0
 (Enter /shared/centos7/gaussian/g16/l103.exe)

 GradGradGradGradGradGradGradGradGradGradGradGradGradGradGradGradGradGrad
 Berny optimization.
 Using GEDIIS/GDIIS optimizer.
 FormGI is forming the generalized inverse of G from B-inverse, IUseBI=4.
 GSVD:  received Info=                   1 from GESDD.
 Internal  Forces:  Max     0.002188642 RMS     0.000446548
 Search for a local minimum.
 Step number   3 out of a maximum of   74 on scan point    17 out of    37
 All quantities printed in internal units (Hartrees-Bohrs-Radians)
 RMS Force = .27913D-04 SwitMx=.10000D-02 MixMth= 2
 Mixed Optimization -- En-DIIS/RFO-DIIS
 Swapping is turned off.
 Update second derivatives using D2CorX and points    1    2    3
 DE= -5.63D-05 DEPred=-5.62D-05 R= 1.00D+00
 TightC=F SS=  1.41D+00  RLast= 1.16D-01 DXNew= 2.0869D+00 3.4745D-01
 Trust test= 1.00D+00 RLast= 1.16D-01 DXMaxT set to 1.24D+00
 ITU=  1  1  0
     Eigenvalues ---    0.00253   0.00430   0.01186   0.03554   0.03893
     Eigenvalues ---    0.03922   0.04212   0.04540   0.04702   0.05074
     Eigenvalues ---    0.06957   0.07249   0.10141   0.11054   0.12045
     Eigenvalues ---    0.12213   0.13888   0.14776   0.15530   0.16412
     Eigenvalues ---    0.21771   0.22998   0.28979   0.29906   0.32153
     Eigenvalues ---    0.33048   0.33100   0.33840   0.33889   0.34123
     Eigenvalues ---    0.34239   0.34368   0.34803   0.35004   0.35194
     Eigenvalues --- 1000.000001000.000001000.000001000.000001000.00000
     Eigenvalues --- 1000.000001000.000001000.000001000.000001000.00000
     Eigenvalues --- 1000.000001000.000001000.000001000.000001000.00000
     Eigenvalues --- 1000.000001000.000001000.000001000.000001000.00000
     Eigenvalues --- 1000.000001000.000001000.000001000.000001000.00000
     Eigenvalues --- 1000.000001000.000001000.000001000.00000
 En-DIIS/RFO-DIIS/Sim-DIIS IScMMF=       -3 using points:     3    2
 RFO step:  Lambda=-6.39146318D-07.
 NNeg= 0 NGDIIS= 2 SimSw=  2.50D-03 Rises=F DC= -5.63D-05 SmlDif=  1.00D-05
 NRisDI= 0 DoIntr=F SqrtH=F CThrHd= 10.0 CDAdj=  3.0
 RMS Error=  0.9362359337D-03 NUsed= 2 OKEnD=T EnDIS=F
 InvSVX:  RCond= 1.51D-02 Info=           0 Equed=N FErr=  9.43D-16 BErr=  1.66D-17
 DidBck=F Rises=F RFO-DIIS coefs:    0.97025    0.02975
 Iteration  1 RMS(Cart)=  0.00161865 RMS(Int)=  0.00000132
 Iteration  2 RMS(Cart)=  0.00000138 RMS(Int)=  0.00000076
 Iteration  3 RMS(Cart)=  0.00000000 RMS(Int)=  0.00000076
 Iteration  1 RMS(Cart)=  0.00000021 RMS(Int)=  0.00000023
 ITry= 1 IFail=0 DXMaxC= 3.61D-03 DCOld= 1.00D+10 DXMaxT= 1.24D+00 DXLimC= 3.00D+00 Rises=F
 Variable       Old X    -DE/DX   Delta X   Delta X   Delta X     New X
                                 (Linear)    (Quad)   (Total)
    R1        2.88731   0.00003  -0.00000   0.00009   0.00008   2.88740
    R2        2.90555   0.00001  -0.00001   0.00009   0.00008   2.90563
    R3        2.06380  -0.00002  -0.00003   0.00000  -0.00002   2.06378
    R4        2.06163   0.00001   0.00003  -0.00001   0.00001   2.06164
    R5        2.88259  -0.00001   0.00001  -0.00002  -0.00001   2.88258
    R6        2.06323   0.00001   0.00000  -0.00000  -0.00000   2.06323
    R7        2.06581  -0.00001  -0.00001  -0.00001  -0.00002   2.06579
    R8        2.05942   0.00002   0.00004  -0.00001   0.00003   2.05945
    R9        2.06205  -0.00001  -0.00000  -0.00001  -0.00001   2.06204
   R10        2.05592   0.00003  -0.00002   0.00010   0.00008   2.05600
   R11        2.06101   0.00002   0.00000   0.00004   0.00004   2.06105
   R12        2.06238  -0.00000   0.00000  -0.00001  -0.00000   2.06238
   R13        2.05870   0.00000   0.00000  -0.00001  -0.00001   2.05869
    A1        1.97375   0.00004   0.00002   0.00040   0.00042   1.97417
    A2        1.90602  -0.00079   0.00033  -0.00029   0.00004   1.90606
    A3        1.89222   0.00080  -0.00032   0.00068   0.00036   1.89258
    A4        1.92371  -0.00002   0.00009  -0.00065  -0.00055   1.92315
    A5        1.91143  -0.00003  -0.00012   0.00003  -0.00008   1.91135
    A6        1.85251  -0.00000  -0.00001  -0.00019  -0.00020   1.85231
    A7        1.96596  -0.00006   0.00002  -0.00028  -0.00026   1.96571
    A8        1.91030   0.00004   0.00001   0.00025   0.00026   1.91056
    A9        1.90017   0.00001  -0.00007  -0.00005  -0.00012   1.90005
   A10        1.90881   0.00002   0.00000   0.00022   0.00022   1.90903
   A11        1.91515   0.00001   0.00002  -0.00009  -0.00008   1.91507
   A12        1.86045  -0.00001   0.00002  -0.00004  -0.00002   1.86043
   A13        1.94898   0.00040  -0.00022   0.00003  -0.00019   1.94879
   A14        1.93768  -0.00011   0.00002  -0.00074  -0.00072   1.93696
   A15        1.95565  -0.00031   0.00024   0.00057   0.00082   1.95647
   A16        1.85204   0.00087  -0.00042   0.00084   0.00042   1.85246
   A17        1.87450  -0.00004  -0.00005  -0.00032  -0.00036   1.87414
   A18        1.89045  -0.00078   0.00040  -0.00037   0.00003   1.89048
   A19        1.94254  -0.00003  -0.00000  -0.00020  -0.00020   1.94234
   A20        1.92953   0.00001  -0.00000   0.00007   0.00007   1.92960
   A21        1.94809   0.00001   0.00001   0.00006   0.00008   1.94817
   A22        1.87769   0.00000  -0.00001  -0.00009  -0.00010   1.87759
   A23        1.87973   0.00001  -0.00000   0.00007   0.00007   1.87980
   A24        1.88347   0.00000  -0.00001   0.00009   0.00009   1.88356
    D1       -1.12233   0.00040   0.00035   0.00248   0.00284  -1.11949
    D2        3.03338   0.00039   0.00033   0.00221   0.00254   3.03593
    D3        1.00605   0.00038   0.00034   0.00215   0.00249   1.00854
    D4        1.02651  -0.00018   0.00073   0.00171   0.00244   1.02895
    D5       -1.10097  -0.00019   0.00071   0.00144   0.00215  -1.09882
    D6       -3.12831  -0.00020   0.00071   0.00138   0.00209  -3.12621
    D7        3.03768  -0.00016   0.00071   0.00170   0.00242   3.04009
    D8        0.91020  -0.00017   0.00069   0.00143   0.00212   0.91232
    D9       -1.11713  -0.00018   0.00070   0.00137   0.00207  -1.11507
   D10        1.80143  -0.00090  -0.00065   0.00058  -0.00007   1.80136
   D11       -0.26164  -0.00219  -0.00000   0.00000  -0.00000  -0.26164
   D12       -2.37795  -0.00089  -0.00070   0.00060  -0.00010  -2.37805
   D13       -0.33758   0.00011  -0.00116   0.00115  -0.00000  -0.33759
   D14       -2.40065  -0.00118  -0.00051   0.00057   0.00006  -2.40059
   D15        1.76622   0.00012  -0.00120   0.00117  -0.00003   1.76618
   D16       -2.36942   0.00014  -0.00113   0.00174   0.00061  -2.36881
   D17        1.85070  -0.00115  -0.00048   0.00115   0.00068   1.85138
   D18       -0.26562   0.00015  -0.00117   0.00175   0.00058  -0.26504
   D19        1.03655  -0.00002   0.00029  -0.00015   0.00014   1.03669
   D20       -1.04918  -0.00001   0.00030   0.00005   0.00036  -1.04883
   D21        3.13733  -0.00002   0.00030  -0.00016   0.00015   3.13748
   D22       -3.11831   0.00000   0.00032   0.00014   0.00046  -3.11785
   D23        1.07914   0.00001   0.00033   0.00034   0.00067   1.07981
   D24       -1.01753   0.00000   0.00033   0.00013   0.00046  -1.01707
   D25       -1.08333   0.00001   0.00036   0.00016   0.00052  -1.08280
   D26        3.11412   0.00002   0.00037   0.00037   0.00074   3.11486
   D27        1.01746   0.00001   0.00037   0.00016   0.00053   1.01798
         Item               Value     Threshold  Converged?
 Maximum Force            0.000110     0.000450     YES
 RMS     Force            0.000028     0.000300     YES
 Maximum Displacement     0.003614     0.001800     NO 
 RMS     Displacement     0.001619     0.001200     NO 
 Predicted change in Energy=-3.180632D-07
 Lowest energy point so far.  Saving SCF results.
 GradGradGradGradGradGradGradGradGradGradGradGradGradGradGradGradGradGrad

 Leave Link  103 at Tue Apr  9 18:02:05 2019, MaxMem=   671088640 cpu:               1.4 elap:               0.1
 (Enter /shared/centos7/gaussian/g16/l202.exe)
                          Input orientation:                          
 ---------------------------------------------------------------------
 Center     Atomic      Atomic             Coordinates (Angstroms)
 Number     Number       Type             X           Y           Z
 ---------------------------------------------------------------------
      1          6           0        0.680099   -0.723404   -0.277433
      2          6           0       -0.662315   -0.183552   -0.768452
      3          6           0        1.548328    0.347127    0.403989
      4          6           0       -1.555085    0.294855    0.372129
      5          1           0        0.503944   -1.556862    0.405946
      6          1           0        1.217588   -1.139536   -1.130757
      7          1           0       -1.181742   -0.959707   -1.333994
      8          1           0       -0.479158    0.639774   -1.463869
      9          1           0        1.533014    0.246564    1.489044
     10          1           0        1.174964    1.349218    0.186960
     11          1           0        2.587818    0.293516    0.087272
     12          1           0       -1.074751    1.089418    0.944394
     13          1           0       -1.768969   -0.524294    1.060839
     14          1           0       -2.505298    0.679838    0.003752
 ---------------------------------------------------------------------
                    Distance matrix (angstroms):
                    1          2          3          4          5
     1  C    0.000000
     2  C    1.527944   0.000000
     3  C    1.537594   2.557964   0.000000
     4  C    2.540635   1.525396   3.104017   0.000000
     5  H    1.092104   2.150663   2.171617   2.769404   0.000000
     6  H    1.090974   2.139908   2.162175   3.464658   1.744966
     7  H    2.153744   1.091815   3.490227   2.150387   2.495100
     8  H    2.147035   1.093168   2.772225   2.155801   3.047607
     9  H    2.188320   3.178169   1.089813   3.284233   2.341887
    10  H    2.180897   2.576391   1.091186   2.932428   2.990572
    11  H    2.192379   3.394587   1.087990   4.152684   2.804992
    12  H    2.803333   2.173567   2.779133   1.090660   3.128099
    13  H    2.797954   2.164969   3.492175   1.091363   2.580933
    14  H    3.492120   2.176769   4.086902   1.089412   3.770958
                    6          7          8          9         10
     6  H    0.000000
     7  H    2.414628   0.000000
     8  H    2.481099   1.751809   0.000000
     9  H    2.980625   4.098114   3.594877   0.000000
    10  H    2.816397   3.632974   2.442266   1.743406   0.000000
    11  H    2.326965   4.219022   3.454312   1.754930   1.766522
    12  H    3.811732   3.066172   2.521238   2.794188   2.387974
    13  H    3.755148   2.503926   3.064771   3.417700   3.597284
    14  H    4.296174   2.495891   2.502151   4.324556   3.745125
                   11         12         13         14
    11  H    0.000000
    12  H    3.844805   0.000000
    13  H    4.538528   1.760558   0.000000
    14  H    5.108429   1.760405   1.763391   0.000000
 Stoichiometry    C4H10
 Framework group  C1[X(C4H10)]
 Deg. of freedom    36
 Full point group                 C1      NOp   1
 RotChk:  IX=0 Diff= 7.44D-04
 Largest Abelian subgroup         C1      NOp   1
 Largest concise Abelian subgroup C1      NOp   1
                         Standard orientation:                         
 ---------------------------------------------------------------------
 Center     Atomic      Atomic             Coordinates (Angstroms)
 Number     Number       Type             X           Y           Z
 ---------------------------------------------------------------------
      1          6           0       -0.689009    0.637640    0.311574
      2          6           0        0.704765    0.629184   -0.314475
      3          6           0       -1.554232   -0.555895   -0.125526
      4          6           0        1.539421   -0.568628    0.127601
      5          1           0       -0.594185    0.656060    1.399397
      6          1           0       -1.185901    1.568632    0.034850
      7          1           0        1.227098    1.551354   -0.052119
      8          1           0        0.603328    0.626654   -1.402924
      9          1           0       -1.615237   -1.315233    0.653818
     10          1           0       -1.125019   -1.050752   -0.998212
     11          1           0       -2.571753   -0.256690   -0.368112
     12          1           0        1.056395   -1.508760   -0.141427
     13          1           0        1.672111   -0.564419    1.210859
     14          1           0        2.527490   -0.560655   -0.331172
 ---------------------------------------------------------------------
 Rotational constants (GHZ):          13.0685808           4.8796439           4.1259725
 Leave Link  202 at Tue Apr  9 18:02:06 2019, MaxMem=   671088640 cpu:               0.2 elap:               0.0
 (Enter /shared/centos7/gaussian/g16/l301.exe)
 Standard basis: 6-311+G(2df,2p) (5D, 7F)
 Ernie: Thresh=  0.10000D-02 Tol=  0.10000D-05 Strict=F.
 There are   246 symmetry adapted cartesian basis functions of A   symmetry.
 There are   226 symmetry adapted basis functions of A   symmetry.
   226 basis functions,   318 primitive gaussians,   246 cartesian basis functions
    17 alpha electrons       17 beta electrons
       nuclear repulsion energy       132.9466421282 Hartrees.
 IExCor= 4336 DFT=T Ex+Corr=M062X ExCW=0 ScaHFX=  0.540000
 ScaDFX=  1.000000  1.000000  1.000000  1.000000 ScalE2=  1.000000  1.000000
 IRadAn=      5 IRanWt=     -1 IRanGd=            0 ICorTp=0 IEmpDi=  4
 NAtoms=   14 NActive=   14 NUniq=   14 SFac= 1.00D+00 NAtFMM=   60 NAOKFM=F Big=F
 Integral buffers will be    131072 words long.
 Raffenetti 2 integral format.
 Two-electron integral symmetry is turned on.
 Leave Link  301 at Tue Apr  9 18:02:06 2019, MaxMem=   671088640 cpu:               1.1 elap:               0.1
 (Enter /shared/centos7/gaussian/g16/l302.exe)
 NPDir=0 NMtPBC=     1 NCelOv=     1 NCel=       1 NClECP=     1 NCelD=      1
         NCelK=      1 NCelE2=     1 NClLst=     1 CellRange=     0.0.
 One-electron integrals computed using PRISM.
 One-electron integral symmetry used in STVInt
 NBasis=   226 RedAO= T EigKep=  6.07D-05  NBF=   226
 NBsUse=   226 1.00D-06 EigRej= -1.00D+00 NBFU=   226
 Precomputing XC quadrature grid using
 IXCGrd= 4 IRadAn=           5 IRanWt=          -1 IRanGd=           0 AccXCQ= 0.00D+00.
 Generated NRdTot=       0 NPtTot=           0 NUsed=           0 NTot=          32
 NSgBfM=   246   246   246   246   246 MxSgAt=    14 MxSgA2=    14.
 Leave Link  302 at Tue Apr  9 18:02:06 2019, MaxMem=   671088640 cpu:               5.3 elap:               0.3
 (Enter /shared/centos7/gaussian/g16/l303.exe)
 DipDrv:  MaxL=1.
 Leave Link  303 at Tue Apr  9 18:02:06 2019, MaxMem=   671088640 cpu:               0.5 elap:               0.0
 (Enter /shared/centos7/gaussian/g16/l401.exe)
 Initial guess from the checkpoint file:  "/scratch/underkoffler.c/gaussian_scratch/Gau-31989.chk"
 B after Tr=    -0.000000   -0.000000    0.000000
         Rot=    1.000000   -0.000126    0.000158    0.000068 Ang=  -0.02 deg.
 Guess basis will be translated and rotated to current coordinates.
 JPrj=2 DoOrth=T DoCkMO=T.
 Leave Link  401 at Tue Apr  9 18:02:06 2019, MaxMem=   671088640 cpu:               1.9 elap:               0.1
 (Enter /shared/centos7/gaussian/g16/l502.exe)
 Integral symmetry usage will be decided dynamically.
 Closed shell SCF:
 Using DIIS extrapolation, IDIIS=  1040.
 NGot=   671088640 LenX=   670960298 LenY=   670899341
 Requested convergence on RMS density matrix=1.00D-08 within 128 cycles.
 Requested convergence on MAX density matrix=1.00D-06.
 Requested convergence on             energy=1.00D-06.
 No special actions if energy rises.
 Fock matrices will be formed incrementally for  20 cycles.

 Cycle   1  Pass 1  IDiag  1:
 FoFJK:  IHMeth= 1 ICntrl=       0 DoSepK=F KAlg= 0 I1Cent=           0 FoldK=F
 IRaf= 990000000 NMat=       1 IRICut=       1 DoRegI=T DoRafI=F ISym2E= 0 IDoP0=0 IntGTp=1.
 FoFCou: FMM=F IPFlag=           0 FMFlag=      100000 FMFlg1=           0
         NFxFlg=           0 DoJE=F BraDBF=F KetDBF=F FulRan=T
         wScrn=  0.000000 ICntrl=         0 IOpCl=  0 I1Cent=           0 NGrid=           0
         NMat0=    1 NMatS0=      1 NMatT0=    0 NMatD0=    1 NMtDS0=    0 NMtDT0=    0
 Symmetry not used in FoFCou.
