 Entering Gaussian System, Link 0=g16
 Input=IJDNQMDRQITEOD-UHFFFAOYSA-N_GeoFreq_c1_a1.com
 Output=IJDNQMDRQITEOD-UHFFFAOYSA-N_GeoFreq_c1_a1.log
 Initial command:
 /shared/centos7/gaussian/g16/l1.exe "/scratch/underkoffler.c/gaussian_scratch/Gau-18496.inp" -scrdir="/scratch/underkoffler.c/gaussian_scratch/"
 Entering Link 1 = /shared/centos7/gaussian/g16/l1.exe PID=     18497.
  
 Copyright (c) 1988,1990,1992,1993,1995,1998,2003,2009,2016,
            Gaussian, Inc.  All Rights Reserved.
  
 This is part of the Gaussian(R) 16 program.  It is based on
 the Gaussian(R) 09 system (copyright 2009, Gaussian, Inc.),
 the Gaussian(R) 03 system (copyright 2003, Gaussian, Inc.),
 the Gaussian(R) 98 system (copyright 1998, Gaussian, Inc.),
 the Gaussian(R) 94 system (copyright 1995, Gaussian, Inc.),
 the Gaussian 92(TM) system (copyright 1992, Gaussian, Inc.),
 the Gaussian 90(TM) system (copyright 1990, Gaussian, Inc.),
 the Gaussian 88(TM) system (copyright 1988, Gaussian, Inc.),
 the Gaussian 86(TM) system (copyright 1986, Carnegie Mellon
 University), and the Gaussian 82(TM) system (copyright 1983,
 Carnegie Mellon University). Gaussian is a federally registered
 trademark of Gaussian, Inc.
  
 This software contains proprietary and confidential information,
 including trade secrets, belonging to Gaussian, Inc.
  
 This software is provided under written license and may be
 used, copied, transmitted, or stored only in accord with that
 written license.
  
 The following legend is applicable only to US Government
 contracts under FAR:
  
                    RESTRICTED RIGHTS LEGEND
  
 Use, reproduction and disclosure by the US Government is
 subject to restrictions as set forth in subparagraphs (a)
 and (c) of the Commercial Computer Software - Restricted
 Rights clause in FAR 52.227-19.
  
 Gaussian, Inc.
 340 Quinnipiac St., Bldg. 40, Wallingford CT 06492
  
  
 ---------------------------------------------------------------
 Warning -- This program may not be used in any manner that
 competes with the business of Gaussian, Inc. or will provide
 assistance to any competitor of Gaussian, Inc.  The licensee
 of this program is prohibited from giving any competitor of
 Gaussian, Inc. access to this program.  By using this program,
 the user acknowledges that Gaussian, Inc. is engaged in the
 business of creating and licensing software in the field of
 computational chemistry and represents and warrants to the
 licensee that it is not a competitor of Gaussian, Inc. and that
 it will not use this program in any manner prohibited above.
 ---------------------------------------------------------------
  

 Cite this work as:
 Gaussian 16, Revision A.03,
 M. J. Frisch, G. W. Trucks, H. B. Schlegel, G. E. Scuseria, 
 M. A. Robb, J. R. Cheeseman, G. Scalmani, V. Barone, 
 G. A. Petersson, H. Nakatsuji, X. Li, M. Caricato, A. V. Marenich, 
 J. Bloino, B. G. Janesko, R. Gomperts, B. Mennucci, H. P. Hratchian, 
 J. V. Ortiz, A. F. Izmaylov, J. L. Sonnenberg, D. Williams-Young, 
 F. Ding, F. Lipparini, F. Egidi, J. Goings, B. Peng, A. Petrone, 
 T. Henderson, D. Ranasinghe, V. G. Zakrzewski, J. Gao, N. Rega, 
 G. Zheng, W. Liang, M. Hada, M. Ehara, K. Toyota, R. Fukuda, 
 J. Hasegawa, M. Ishida, T. Nakajima, Y. Honda, O. Kitao, H. Nakai, 
 T. Vreven, K. Throssell, J. A. Montgomery, Jr., J. E. Peralta, 
 F. Ogliaro, M. J. Bearpark, J. J. Heyd, E. N. Brothers, K. N. Kudin, 
 V. N. Staroverov, T. A. Keith, R. Kobayashi, J. Normand, 
 K. Raghavachari, A. P. Rendell, J. C. Burant, S. S. Iyengar, 
 J. Tomasi, M. Cossi, J. M. Millam, M. Klene, C. Adamo, R. Cammi, 
 J. W. Ochterski, R. L. Martin, K. Morokuma, O. Farkas, 
 J. B. Foresman, and D. J. Fox, Gaussian, Inc., Wallingford CT, 2016.
 
 ******************************************
 Gaussian 16:  EM64L-G16RevA.03 25-Dec-2016
                 8-Apr-2019 
 ******************************************
 %nprocshared=20
 Will use up to   20 processors via shared memory.
 %mem=5GB
 ----------------------------------------------------------------------
 #p m062x/6-311+g(2df,2p) opt=(calcfc,verytight,gdiis,maxcycles=900) fr
 eq iop(7/33=1,2/16=3)
 ----------------------------------------------------------------------

 Warning!  Use of Opt=GDIIS is deprecated since it is seldom a good choice.

 1/6=900,7=1,10=4,18=20,19=11,26=3,38=1/1,3;
 2/9=110,12=2,16=3,17=6,18=5,40=1/2;
 3/5=4,6=6,7=214,11=2,25=1,30=1,71=2,74=-55,140=1/1,2,3;
 4//1;
 5/5=2,38=5/2;
 8/6=4,10=90,11=11/1;
 11/6=1,8=1,9=11,15=111,16=1/1,2,10;
 10/6=1,13=1/2;
 6/7=2,8=2,9=2,10=2,28=1/1;
 7/10=1,18=20,25=1,33=1/1,2,3,16;
 1/6=900,7=1,10=4,18=20,19=11,26=3/3(2);
 2/9=110,16=3/2;
 99//99;
 2/9=110,16=3/2;
 3/5=4,6=6,7=214,11=2,25=1,30=1,71=1,74=-55/1,2,3;
 4/5=5,16=3,69=1/1;
 5/5=2,38=5/2;
 7/33=1/1,2,3,16;
 1/6=900,7=1,18=20,19=11,26=3/3(-5);
 2/9=110,16=3/2;
 6/7=2,8=2,9=2,10=2,19=2,28=1/1;
 99/9=1/99;
 Leave Link    1 at Mon Apr  8 16:38:56 2019, MaxMem=   671088640 cpu:              20.7 elap:               1.1
 (Enter /shared/centos7/gaussian/g16/l101.exe)
 ------------------------------
 Gaussian input prepared by ASE
 ------------------------------
 Symbolic Z-matrix:
 Charge =  0 Multiplicity = 1
 C                     0.7057   -0.55289  -0.53526 
 C                    -0.74198  -0.17921  -0.69937 
 C                     1.48857   0.39159   0.32897 
 C                    -1.46      0.11019   0.60371 
 H                     0.78021  -1.58718  -0.11354 
 H                     1.16577  -0.60303  -1.53179 
 H                    -1.2747   -1.00638  -1.23349 
 H                    -0.8157    0.70175  -1.34833 
 H                     2.55293   0.45775  -0.0122 
 H                     1.49104   0.05724   1.39506 
 H                     1.06094   1.42255   0.30254 
 H                    -0.8857    0.83101   1.21793 
 H                    -1.59625  -0.8188    1.19682 
 H                    -2.47129   0.54745   0.40743 
 
 ITRead=  0  0  0  0  0  0  0  0  0  0  0  0  0  0
 MicOpt= -1 -1 -1 -1 -1 -1 -1 -1 -1 -1 -1 -1 -1 -1
 NAtoms=     14 NQM=       14 NQMF=       0 NMMI=      0 NMMIF=      0
                NMic=       0 NMicF=      0.
                    Isotopes and Nuclear Properties:
 (Nuclear quadrupole moments (NQMom) in fm**2, nuclear magnetic moments (NMagM)
  in nuclear magnetons)

  Atom         1           2           3           4           5           6           7           8           9          10
 IAtWgt=          12          12          12          12           1           1           1           1           1           1
 AtmWgt=  12.0000000  12.0000000  12.0000000  12.0000000   1.0078250   1.0078250   1.0078250   1.0078250   1.0078250   1.0078250
 NucSpn=           0           0           0           0           1           1           1           1           1           1
 AtZEff=  -0.0000000  -0.0000000  -0.0000000  -0.0000000  -0.0000000  -0.0000000  -0.0000000  -0.0000000  -0.0000000  -0.0000000
 NQMom=    0.0000000   0.0000000   0.0000000   0.0000000   0.0000000   0.0000000   0.0000000   0.0000000   0.0000000   0.0000000
 NMagM=    0.0000000   0.0000000   0.0000000   0.0000000   2.7928460   2.7928460   2.7928460   2.7928460   2.7928460   2.7928460
 AtZNuc=   6.0000000   6.0000000   6.0000000   6.0000000   1.0000000   1.0000000   1.0000000   1.0000000   1.0000000   1.0000000

  Atom        11          12          13          14
 IAtWgt=           1           1           1           1
 AtmWgt=   1.0078250   1.0078250   1.0078250   1.0078250
 NucSpn=           1           1           1           1
 AtZEff=  -0.0000000  -0.0000000  -0.0000000  -0.0000000
 NQMom=    0.0000000   0.0000000   0.0000000   0.0000000
 NMagM=    2.7928460   2.7928460   2.7928460   2.7928460
 AtZNuc=   1.0000000   1.0000000   1.0000000   1.0000000
 Leave Link  101 at Mon Apr  8 16:38:57 2019, MaxMem=   671088640 cpu:               4.9 elap:               0.3
 (Enter /shared/centos7/gaussian/g16/l103.exe)

 GradGradGradGradGradGradGradGradGradGradGradGradGradGradGradGradGradGrad
 Berny optimization.
 Initialization pass.
                           ----------------------------
                           !    Initial Parameters    !
                           ! (Angstroms and Degrees)  !
 --------------------------                            --------------------------
 ! Name  Definition              Value          Derivative Info.                !
 --------------------------------------------------------------------------------
 ! R1    R(1,2)                  1.5041         calculate D2E/DX2 analytically  !
 ! R2    R(1,3)                  1.5006         calculate D2E/DX2 analytically  !
 ! R3    R(1,5)                  1.1194         calculate D2E/DX2 analytically  !
 ! R4    R(1,6)                  1.0988         calculate D2E/DX2 analytically  !
 ! R5    R(2,4)                  1.5157         calculate D2E/DX2 analytically  !
 ! R6    R(2,7)                  1.1195         calculate D2E/DX2 analytically  !
 ! R7    R(2,8)                  1.0967         calculate D2E/DX2 analytically  !
 ! R8    R(3,9)                  1.1197         calculate D2E/DX2 analytically  !
 ! R9    R(3,10)                 1.1173         calculate D2E/DX2 analytically  !
 ! R10   R(3,11)                 1.1164         calculate D2E/DX2 analytically  !
 ! R11   R(4,12)                 1.1076         calculate D2E/DX2 analytically  !
 ! R12   R(4,13)                 1.1106         calculate D2E/DX2 analytically  !
 ! R13   R(4,14)                 1.1191         calculate D2E/DX2 analytically  !
 ! A1    A(2,1,3)              114.1168         calculate D2E/DX2 analytically  !
 ! A2    A(2,1,5)              109.5546         calculate D2E/DX2 analytically  !
 ! A3    A(2,1,6)              108.385          calculate D2E/DX2 analytically  !
 ! A4    A(3,1,5)              109.2584         calculate D2E/DX2 analytically  !
 ! A5    A(3,1,6)              109.4274         calculate D2E/DX2 analytically  !
 ! A6    A(5,1,6)              105.7622         calculate D2E/DX2 analytically  !
 ! A7    A(1,2,4)              114.1793         calculate D2E/DX2 analytically  !
 ! A8    A(1,2,7)              109.0563         calculate D2E/DX2 analytically  !
 ! A9    A(1,2,8)              109.1981         calculate D2E/DX2 analytically  !
 ! A10   A(4,2,7)              109.0157         calculate D2E/DX2 analytically  !
 ! A11   A(4,2,8)              108.876          calculate D2E/DX2 analytically  !
 ! A12   A(7,2,8)              106.2139         calculate D2E/DX2 analytically  !
 ! A13   A(1,3,9)              110.9548         calculate D2E/DX2 analytically  !
 ! A14   A(1,3,10)             111.2438         calculate D2E/DX2 analytically  !
 ! A15   A(1,3,11)             111.5768         calculate D2E/DX2 analytically  !
 ! A16   A(9,3,10)             107.8378         calculate D2E/DX2 analytically  !
 ! A17   A(9,3,11)             107.5976         calculate D2E/DX2 analytically  !
 ! A18   A(10,3,11)            107.4444         calculate D2E/DX2 analytically  !
 ! A19   A(2,4,12)             110.8185         calculate D2E/DX2 analytically  !
 ! A20   A(2,4,13)             110.95           calculate D2E/DX2 analytically  !
 ! A21   A(2,4,14)             110.6041         calculate D2E/DX2 analytically  !
 ! A22   A(12,4,13)            108.1705         calculate D2E/DX2 analytically  !
 ! A23   A(12,4,14)            108.152          calculate D2E/DX2 analytically  !
 ! A24   A(13,4,14)            108.037          calculate D2E/DX2 analytically  !
 ! D1    D(3,1,2,4)            -49.9718         calculate D2E/DX2 analytically  !
 ! D2    D(3,1,2,7)           -172.1775         calculate D2E/DX2 analytically  !
 ! D3    D(3,1,2,8)             72.1589         calculate D2E/DX2 analytically  !
 ! D4    D(5,1,2,4)             72.8822         calculate D2E/DX2 analytically  !
 ! D5    D(5,1,2,7)            -49.3234         calculate D2E/DX2 analytically  !
 ! D6    D(5,1,2,8)           -164.987          calculate D2E/DX2 analytically  !
 ! D7    D(6,1,2,4)           -172.1675         calculate D2E/DX2 analytically  !
 ! D8    D(6,1,2,7)             65.6268         calculate D2E/DX2 analytically  !
 ! D9    D(6,1,2,8)            -50.0368         calculate D2E/DX2 analytically  !
 ! D10   D(2,1,3,9)           -147.7549         calculate D2E/DX2 analytically  !
 ! D11   D(2,1,3,10)            92.1915         calculate D2E/DX2 analytically  !
 ! D12   D(2,1,3,11)           -27.7826         calculate D2E/DX2 analytically  !
 ! D13   D(5,1,3,9)             89.2299         calculate D2E/DX2 analytically  !
 ! D14   D(5,1,3,10)           -30.8236         calculate D2E/DX2 analytically  !
 ! D15   D(5,1,3,11)          -150.7978         calculate D2E/DX2 analytically  !
 ! D16   D(6,1,3,9)            -26.1326         calculate D2E/DX2 analytically  !
 ! D17   D(6,1,3,10)          -146.1862         calculate D2E/DX2 analytically  !
 ! D18   D(6,1,3,11)            93.8397         calculate D2E/DX2 analytically  !
 ! D19   D(1,2,4,12)            50.4061         calculate D2E/DX2 analytically  !
 ! D20   D(1,2,4,13)           -69.7807         calculate D2E/DX2 analytically  !
 ! D21   D(1,2,4,14)           170.3418         calculate D2E/DX2 analytically  !
 ! D22   D(7,2,4,12)           172.6339         calculate D2E/DX2 analytically  !
 ! D23   D(7,2,4,13)            52.4471         calculate D2E/DX2 analytically  !
 ! D24   D(7,2,4,14)           -67.4303         calculate D2E/DX2 analytically  !
 ! D25   D(8,2,4,12)           -71.901          calculate D2E/DX2 analytically  !
 ! D26   D(8,2,4,13)           167.9122         calculate D2E/DX2 analytically  !
 ! D27   D(8,2,4,14)            48.0347         calculate D2E/DX2 analytically  !
 --------------------------------------------------------------------------------
 Trust Radius=3.00D-01 FncErr=1.00D-07 GrdErr=1.00D-06 EigMax=2.50D+02 EigMin=1.00D-04
 Number of steps in this run=    100 maximum allowed number of steps=    100.
 GradGradGradGradGradGradGradGradGradGradGradGradGradGradGradGradGradGrad

 Leave Link  103 at Mon Apr  8 16:38:57 2019, MaxMem=   671088640 cpu:               0.9 elap:               0.1
 (Enter /shared/centos7/gaussian/g16/l202.exe)
                          Input orientation:                          
 ---------------------------------------------------------------------
 Center     Atomic      Atomic             Coordinates (Angstroms)
 Number     Number       Type             X           Y           Z
 ---------------------------------------------------------------------
      1          6           0        0.705697   -0.552889   -0.535264
      2          6           0       -0.741976   -0.179215   -0.699367
      3          6           0        1.488568    0.391591    0.328973
      4          6           0       -1.460000    0.110186    0.603705
      5          1           0        0.780209   -1.587182   -0.113541
      6          1           0        1.165773   -0.603026   -1.531795
      7          1           0       -1.274700   -1.006384   -1.233485
      8          1           0       -0.815697    0.701753   -1.348333
      9          1           0        2.552934    0.457746   -0.012204
     10          1           0        1.491043    0.057241    1.395057
     11          1           0        1.060944    1.422554    0.302540
     12          1           0       -0.885700    0.831010    1.217933
     13          1           0       -1.596255   -0.818797    1.196822
     14          1           0       -2.471293    0.547450    0.407435
 ---------------------------------------------------------------------
                    Distance matrix (angstroms):
                    1          2          3          4          5
     1  C    0.000000
     2  C    1.504100   0.000000
     3  C    1.500612   2.521632   0.000000
     4  C    2.535186   1.515688   2.974680   0.000000
     5  H    1.119448   2.154672   2.147820   2.900696   0.000000
     6  H    1.098753   2.124160   2.134459   3.458861   1.768804
     7  H    2.148289   1.119503   3.468611   2.157854   2.411277
     8  H    2.133038   1.096675   2.866913   2.139049   3.051369
     9  H    2.169623   3.425543   1.119667   4.074774   2.708238
    10  H    2.171444   3.070651   1.117288   3.055765   2.342067
    11  H    2.174970   2.611514   1.116444   2.858002   3.051303
    12  H    2.742521   2.171923   2.573030   1.107558   3.224241
    13  H    2.893063   2.175866   3.425541   1.110568   2.820470
    14  H    3.491804   2.177979   3.963704   1.119123   3.924327
                    6          7          8          9         10
     6  H    0.000000
     7  H    2.491505   0.000000
     8  H    2.379566   1.772458   0.000000
     9  H    2.314867   4.276213   3.632143   0.000000
    10  H    3.017982   3.961044   3.641791   1.807872   0.000000
    11  H    2.734730   3.703289   2.601292   1.804426   1.800739
    12  H    3.718333   3.088170   2.570472   3.671071   2.505793
    13  H    3.888536   2.458654   3.065804   4.506337   3.215299
    14  H    4.279306   2.557119   2.418166   5.042520   4.112884
                   11         12         13         14
    11  H    0.000000
    12  H    2.230985   0.000000
    13  H    3.589443   1.796440   0.000000
    14  H    3.640537   1.803169   1.804288   0.000000
 Stoichiometry    C4H10
 Framework group  C1[X(C4H10)]
 Deg. of freedom    36
 Full point group                 C1      NOp   1
 Largest Abelian subgroup         C1      NOp   1
 Largest concise Abelian subgroup C1      NOp   1
                         Standard orientation:                         
 ---------------------------------------------------------------------
 Center     Atomic      Atomic             Coordinates (Angstroms)
 Number     Number       Type             X           Y           Z
 ---------------------------------------------------------------------
      1          6           0       -0.717091    0.655984    0.240584
      2          6           0        0.706541    0.661123   -0.244765
      3          6           0       -1.478934   -0.589225   -0.107100
      4          6           0        1.487829   -0.588357    0.109778
      5          1           0       -0.735154    0.802141    1.350302
      6          1           0       -1.231097    1.529404   -0.183906
      7          1           0        1.233794    1.553390    0.178499
      8          1           0        0.715742    0.788188   -1.334015
      9          1           0       -2.562472   -0.362115   -0.274497
     10          1           0       -1.410525   -1.347319    0.710792
     11          1           0       -1.085999   -1.064559   -1.037748
     12          1           0        0.926958   -1.498595   -0.179313
     13          1           0        1.686503   -0.636069    1.201388
     14          1           0        2.472182   -0.601619   -0.422489
 ---------------------------------------------------------------------
 Rotational constants (GHZ):          12.7457501           5.1818824           4.2213914
 Leave Link  202 at Mon Apr  8 16:38:57 2019, MaxMem=   671088640 cpu:               0.4 elap:               0.0
 (Enter /shared/centos7/gaussian/g16/l301.exe)
 Standard basis: 6-311+G(2df,2p) (5D, 7F)
 Ernie: Thresh=  0.10000D-02 Tol=  0.10000D-05 Strict=F.
 There are   246 symmetry adapted cartesian basis functions of A   symmetry.
 There are   226 symmetry adapted basis functions of A   symmetry.
   226 basis functions,   318 primitive gaussians,   246 cartesian basis functions
    17 alpha electrons       17 beta electrons
       nuclear repulsion energy       133.5863953621 Hartrees.
 IExCor= 4336 DFT=T Ex+Corr=M062X ExCW=0 ScaHFX=  0.540000
 ScaDFX=  1.000000  1.000000  1.000000  1.000000 ScalE2=  1.000000  1.000000
 IRadAn=      5 IRanWt=     -1 IRanGd=            0 ICorTp=0 IEmpDi=  4
 NAtoms=   14 NActive=   14 NUniq=   14 SFac= 1.00D+00 NAtFMM=   60 NAOKFM=F Big=F
 Integral buffers will be    131072 words long.
 Raffenetti 2 integral format.
 Two-electron integral symmetry is turned on.
 Leave Link  301 at Mon Apr  8 16:38:57 2019, MaxMem=   671088640 cpu:               1.7 elap:               0.1
 (Enter /shared/centos7/gaussian/g16/l302.exe)
 NPDir=0 NMtPBC=     1 NCelOv=     1 NCel=       1 NClECP=     1 NCelD=      1
         NCelK=      1 NCelE2=     1 NClLst=     1 CellRange=     0.0.
 One-electron integrals computed using PRISM.
 One-electron integral symmetry used in STVInt
 NBasis=   226 RedAO= T EigKep=  4.54D-05  NBF=   226
 NBsUse=   226 1.00D-06 EigRej= -1.00D+00 NBFU=   226
 Precomputing XC quadrature grid using
 IXCGrd= 4 IRadAn=           5 IRanWt=          -1 IRanGd=           0 AccXCQ= 0.00D+00.
 Generated NRdTot=       0 NPtTot=           0 NUsed=           0 NTot=          32
 NSgBfM=   246   246   246   246   246 MxSgAt=    14 MxSgA2=    14.
 Leave Link  302 at Mon Apr  8 16:38:57 2019, MaxMem=   671088640 cpu:               9.1 elap:               0.5
 (Enter /shared/centos7/gaussian/g16/l303.exe)
 DipDrv:  MaxL=1.
 Leave Link  303 at Mon Apr  8 16:38:57 2019, MaxMem=   671088640 cpu:               0.6 elap:               0.1
 (Enter /shared/centos7/gaussian/g16/l401.exe)
 ExpMin= 4.38D-02 ExpMax= 4.56D+03 ExpMxC= 6.82D+02 IAcc=3 IRadAn=         5 AccDes= 0.00D+00
 Harris functional with IExCor= 1009 and IRadAn=       5 diagonalized for initial guess.
 HarFok:  IExCor= 1009 AccDes= 0.00D+00 IRadAn=         5 IDoV= 1 UseB2=F ITyADJ=14
 ICtDFT=  3500011 ScaDFX=  1.000000  1.000000  1.000000  1.000000
 FoFCou: FMM=F IPFlag=           0 FMFlag=      100000 FMFlg1=           0
         NFxFlg=           0 DoJE=T BraDBF=F KetDBF=T FulRan=T
         wScrn=  0.000000 ICntrl=       500 IOpCl=  0 I1Cent=   200000004 NGrid=           0
         NMat0=    1 NMatS0=      1 NMatT0=    0 NMatD0=    1 NMtDS0=    0 NMtDT0=    0
 Petite list used in FoFCou.
 Harris En= -158.423352769560    
 JPrj=0 DoOrth=F DoCkMO=F.
 Leave Link  401 at Mon Apr  8 16:38:59 2019, MaxMem=   671088640 cpu:              24.3 elap:               1.2
 (Enter /shared/centos7/gaussian/g16/l502.exe)
 Integral symmetry usage will be decided dynamically.
 Closed shell SCF:
 Using DIIS extrapolation, IDIIS=  1040.
 NGot=   671088640 LenX=   670960298 LenY=   670899341
 Requested convergence on RMS density matrix=1.00D-08 within 128 cycles.
 Requested convergence on MAX density matrix=1.00D-06.
 Requested convergence on             energy=1.00D-06.
 No special actions if energy rises.
 Fock matrices will be formed incrementally for  20 cycles.

 Cycle   1  Pass 1  IDiag  1:
 FoFJK:  IHMeth= 1 ICntrl=       0 DoSepK=F KAlg= 0 I1Cent=           0 FoldK=F
 IRaf= 990000000 NMat=       1 IRICut=       1 DoRegI=T DoRafI=F ISym2E= 0 IDoP0=0 IntGTp=1.
 FoFCou: FMM=F IPFlag=           0 FMFlag=      100000 FMFlg1=           0
         NFxFlg=           0 DoJE=F BraDBF=F KetDBF=F FulRan=T
         wScrn=  0.000000 ICntrl=         0 IOpCl=  0 I1Cent=           0 NGrid=           0
         NMat0=    1 NMatS0=      1 NMatT0=    0 NMatD0=    1 NMtDS0=    0 NMtDT0=    0
 Symmetry not used in FoFCou.
 E= -158.183603838315    
 DIIS: error= 3.38D-02 at cycle   1 NSaved=   1.
 NSaved= 1 IEnMin= 1 EnMin= -158.183603838315     IErMin= 1 ErrMin= 3.38D-02
 ErrMax= 3.38D-02  0.00D+00 EMaxC= 1.00D-01 BMatC= 2.31D-01 BMatP= 2.31D-01
 IDIUse=3 WtCom= 6.62D-01 WtEn= 3.38D-01
 Coeff-Com:  0.100D+01
 Coeff-En:   0.100D+01
 Coeff:      0.100D+01
 Gap=     0.335 Goal=   None    Shift=    0.000
 GapD=    0.335 DampG=1.000 DampE=0.500 DampFc=0.5000 IDamp=-1.
 Damping current iteration by 5.00D-01
 RMSDP=2.78D-03 MaxDP=1.06D-01              OVMax= 1.69D-01

 Cycle   2  Pass 1  IDiag  1:
 RMSU=  1.33D-03    CP:  9.50D-01
 E= -158.293385174305     Delta-E=       -0.109781335991 Rises=F Damp=T
 DIIS: error= 4.89D-03 at cycle   2 NSaved=   2.
 NSaved= 2 IEnMin= 2 EnMin= -158.293385174305     IErMin= 2 ErrMin= 4.89D-03
 ErrMax= 4.89D-03  0.00D+00 EMaxC= 1.00D-01 BMatC= 1.04D-02 BMatP= 2.31D-01
 IDIUse=3 WtCom= 9.51D-01 WtEn= 4.89D-02
 Coeff-Com: -0.495D-01 0.105D+01
 Coeff-En:   0.000D+00 0.100D+01
 Coeff:     -0.470D-01 0.105D+01
 Gap=     0.414 Goal=   None    Shift=    0.000
 RMSDP=9.05D-04 MaxDP=1.50D-02 DE=-1.10D-01 OVMax= 9.28D-02

 Cycle   3  Pass 1  IDiag  1:
 RMSU=  8.85D-04    CP:  9.64D-01  8.88D-01
 E= -158.403909378921     Delta-E=       -0.110524204616 Rises=F Damp=F
 DIIS: error= 4.00D-03 at cycle   3 NSaved=   3.
 NSaved= 3 IEnMin= 3 EnMin= -158.403909378921     IErMin= 3 ErrMin= 4.00D-03
 ErrMax= 4.00D-03  0.00D+00 EMaxC= 1.00D-01 BMatC= 1.49D-03 BMatP= 1.04D-02
 IDIUse=3 WtCom= 9.60D-01 WtEn= 4.00D-02
 Coeff-Com: -0.492D-01 0.238D+00 0.811D+00
 Coeff-En:   0.000D+00 0.000D+00 0.100D+01
 Coeff:     -0.472D-01 0.228D+00 0.819D+00
 Gap=     0.387 Goal=   None    Shift=    0.000
 RMSDP=1.53D-04 MaxDP=3.22D-03 DE=-1.11D-01 OVMax= 9.86D-03

 Cycle   4  Pass 1  IDiag  1:
 RMSU=  1.35D-04    CP:  9.61D-01  9.27D-01  9.50D-01
 E= -158.405227075891     Delta-E=       -0.001317696970 Rises=F Damp=F
 DIIS: error= 1.28D-03 at cycle   4 NSaved=   4.
 NSaved= 4 IEnMin= 4 EnMin= -158.405227075891     IErMin= 4 ErrMin= 1.28D-03
 ErrMax= 1.28D-03  0.00D+00 EMaxC= 1.00D-01 BMatC= 1.18D-04 BMatP= 1.49D-03
 IDIUse=3 WtCom= 9.87D-01 WtEn= 1.28D-02
 Coeff-Com: -0.112D-01 0.290D-01 0.252D+00 0.730D+00
 Coeff-En:   0.000D+00 0.000D+00 0.000D+00 0.100D+01
 Coeff:     -0.111D-01 0.287D-01 0.249D+00 0.734D+00
 Gap=     0.388 Goal=   None    Shift=    0.000
 RMSDP=6.65D-05 MaxDP=2.24D-03 DE=-1.32D-03 OVMax= 2.64D-03

 Cycle   5  Pass 1  IDiag  1:
 RMSU=  4.53D-05    CP:  9.62D-01  9.12D-01  9.90D-01  8.17D-01
 E= -158.405332271144     Delta-E=       -0.000105195254 Rises=F Damp=F
 DIIS: error= 1.97D-04 at cycle   5 NSaved=   5.
 NSaved= 5 IEnMin= 5 EnMin= -158.405332271144     IErMin= 5 ErrMin= 1.97D-04
 ErrMax= 1.97D-04  0.00D+00 EMaxC= 1.00D-01 BMatC= 9.80D-06 BMatP= 1.18D-04
 IDIUse=3 WtCom= 9.98D-01 WtEn= 1.97D-03
 Coeff-Com: -0.137D-02-0.309D-03 0.532D-01 0.279D+00 0.669D+00
 Coeff-En:   0.000D+00 0.000D+00 0.000D+00 0.000D+00 0.100D+01
 Coeff:     -0.137D-02-0.309D-03 0.531D-01 0.279D+00 0.670D+00
 Gap=     0.388 Goal=   None    Shift=    0.000
 RMSDP=1.24D-05 MaxDP=4.45D-04 DE=-1.05D-04 OVMax= 7.58D-04

 Cycle   6  Pass 1  IDiag  1:
 RMSU=  1.05D-05    CP:  9.62D-01  9.10D-01  9.95D-01  8.36D-01  1.06D+00
 E= -158.405341254390     Delta-E=       -0.000008983246 Rises=F Damp=F
 DIIS: error= 3.87D-05 at cycle   6 NSaved=   6.
 NSaved= 6 IEnMin= 6 EnMin= -158.405341254390     IErMin= 6 ErrMin= 3.87D-05
 ErrMax= 3.87D-05  0.00D+00 EMaxC= 1.00D-01 BMatC= 3.13D-07 BMatP= 9.80D-06
 IDIUse=1 WtCom= 1.00D+00 WtEn= 0.00D+00
 Coeff-Com:  0.975D-03-0.285D-02-0.142D-01-0.135D-01 0.118D+00 0.911D+00
 Coeff:      0.975D-03-0.285D-02-0.142D-01-0.135D-01 0.118D+00 0.911D+00
 Gap=     0.388 Goal=   None    Shift=    0.000
 RMSDP=6.27D-06 MaxDP=2.46D-04 DE=-8.98D-06 OVMax= 1.89D-04

 Cycle   7  Pass 1  IDiag  1:
 RMSU=  2.69D-06    CP:  9.62D-01  9.08D-01  9.99D-01  8.47D-01  1.15D+00
                    CP:  1.05D+00
 E= -158.405341623791     Delta-E=       -0.000000369401 Rises=F Damp=F
 DIIS: error= 7.65D-06 at cycle   7 NSaved=   7.
 NSaved= 7 IEnMin= 7 EnMin= -158.405341623791     IErMin= 7 ErrMin= 7.65D-06
 ErrMax= 7.65D-06  0.00D+00 EMaxC= 1.00D-01 BMatC= 1.22D-08 BMatP= 3.13D-07
 IDIUse=1 WtCom= 1.00D+00 WtEn= 0.00D+00
 Coeff-Com:  0.244D-03-0.578D-03-0.559D-02-0.169D-01-0.120D-01 0.180D+00
 Coeff-Com:  0.855D+00
 Coeff:      0.244D-03-0.578D-03-0.559D-02-0.169D-01-0.120D-01 0.180D+00
 Coeff:      0.855D+00
 Gap=     0.388 Goal=   None    Shift=    0.000
 RMSDP=9.73D-07 MaxDP=3.39D-05 DE=-3.69D-07 OVMax= 3.58D-05

 Cycle   8  Pass 1  IDiag  1:
 RMSU=  5.63D-07    CP:  9.62D-01  9.08D-01  9.99D-01  8.47D-01  1.15D+00
                    CP:  1.08D+00  1.01D+00
 E= -158.405341638844     Delta-E=       -0.000000015053 Rises=F Damp=F
 DIIS: error= 8.14D-07 at cycle   8 NSaved=   8.
 NSaved= 8 IEnMin= 8 EnMin= -158.405341638844     IErMin= 8 ErrMin= 8.14D-07
 ErrMax= 8.14D-07  0.00D+00 EMaxC= 1.00D-01 BMatC= 2.09D-10 BMatP= 1.22D-08
 IDIUse=1 WtCom= 1.00D+00 WtEn= 0.00D+00
 Coeff-Com: -0.262D-04 0.559D-04 0.528D-04-0.656D-03-0.315D-02-0.114D-01
 Coeff-Com:  0.685D-01 0.947D+00
 Coeff:     -0.262D-04 0.559D-04 0.528D-04-0.656D-03-0.315D-02-0.114D-01
 Coeff:      0.685D-01 0.947D+00
 Gap=     0.388 Goal=   None    Shift=    0.000
 RMSDP=1.43D-07 MaxDP=3.75D-06 DE=-1.51D-08 OVMax= 4.28D-06

 Cycle   9  Pass 1  IDiag  1:
 RMSU=  6.72D-08    CP:  9.62D-01  9.08D-01  9.99D-01  8.47D-01  1.15D+00
                    CP:  1.08D+00  1.04D+00  1.11D+00
 E= -158.405341639087     Delta-E=       -0.000000000243 Rises=F Damp=F
 DIIS: error= 1.88D-07 at cycle   9 NSaved=   9.
 NSaved= 9 IEnMin= 9 EnMin= -158.405341639087     IErMin= 9 ErrMin= 1.88D-07
 ErrMax= 1.88D-07  0.00D+00 EMaxC= 1.00D-01 BMatC= 8.11D-12 BMatP= 2.09D-10
 IDIUse=1 WtCom= 1.00D+00 WtEn= 0.00D+00
 Coeff-Com: -0.866D-05 0.205D-04 0.105D-03 0.129D-03-0.380D-03-0.529D-02
 Coeff-Com: -0.330D-02 0.167D+00 0.842D+00
 Coeff:     -0.866D-05 0.205D-04 0.105D-03 0.129D-03-0.380D-03-0.529D-02
 Coeff:     -0.330D-02 0.167D+00 0.842D+00
 Gap=     0.388 Goal=   None    Shift=    0.000
 RMSDP=2.09D-08 MaxDP=5.95D-07 DE=-2.43D-10 OVMax= 9.21D-07

 Cycle  10  Pass 1  IDiag  1:
 RMSU=  1.48D-08    CP:  9.62D-01  9.08D-01  9.99D-01  8.47D-01  1.15D+00
                    CP:  1.08D+00  1.04D+00  1.13D+00  1.08D+00
 E= -158.405341639097     Delta-E=       -0.000000000010 Rises=F Damp=F
 DIIS: error= 1.04D-07 at cycle  10 NSaved=  10.
 NSaved=10 IEnMin=10 EnMin= -158.405341639097     IErMin=10 ErrMin= 1.04D-07
 ErrMax= 1.04D-07  0.00D+00 EMaxC= 1.00D-01 BMatC= 1.62D-12 BMatP= 8.11D-12
 IDIUse=1 WtCom= 1.00D+00 WtEn= 0.00D+00
 Coeff-Com: -0.117D-05 0.365D-05 0.299D-04 0.562D-04-0.167D-05-0.121D-02
 Coeff-Com: -0.464D-02 0.738D-02 0.310D+00 0.689D+00
 Coeff:     -0.117D-05 0.365D-05 0.299D-04 0.562D-04-0.167D-05-0.121D-02
 Coeff:     -0.464D-02 0.738D-02 0.310D+00 0.689D+00
 Gap=     0.388 Goal=   None    Shift=    0.000
 RMSDP=5.42D-09 MaxDP=2.50D-07 DE=-1.05D-11 OVMax= 2.72D-07

 SCF Done:  E(RM062X) =  -158.405341639     A.U. after   10 cycles
            NFock= 10  Conv=0.54D-08     -V/T= 2.0056
 KE= 1.575196370601D+02 PE=-6.331712037459D+02 EE= 1.836598296846D+02
 Leave Link  502 at Mon Apr  8 16:39:26 2019, MaxMem=   671088640 cpu:             542.6 elap:              27.2
 (Enter /shared/centos7/gaussian/g16/l801.exe)
 DoSCS=F DFT=T ScalE2(SS,OS)=  1.000000  1.000000
 Range of M.O.s used for correlation:     1   226
 NBasis=   226 NAE=    17 NBE=    17 NFC=     0 NFV=     0
 NROrb=    226 NOA=    17 NOB=    17 NVA=   209 NVB=   209

 **** Warning!!: The largest alpha MO coefficient is  0.48556880D+02

 Leave Link  801 at Mon Apr  8 16:39:26 2019, MaxMem=   671088640 cpu:               0.5 elap:               0.0
 (Enter /shared/centos7/gaussian/g16/l1101.exe)
 Using compressed storage, NAtomX=    14.
 Will process     15 centers per pass.
 Leave Link 1101 at Mon Apr  8 16:39:26 2019, MaxMem=   671088640 cpu:               9.2 elap:               0.5
 (Enter /shared/centos7/gaussian/g16/l1102.exe)
 Symmetrizing basis deriv contribution to polar:
 IMax=3 JMax=2 DiffMx= 0.00D+00
 Leave Link 1102 at Mon Apr  8 16:39:26 2019, MaxMem=   671088640 cpu:               0.7 elap:               0.1
 (Enter /shared/centos7/gaussian/g16/l1110.exe)
 Forming Gx(P) for the SCF density, NAtomX=    14.
 Integral derivatives from FoFJK, PRISM(SPDF).
 Do as many integral derivatives as possible in FoFJK.
 G2DrvN: MDV=     671087496.
 G2DrvN: will do    15 centers at a time, making    1 passes.
 Calling FoFCou, ICntrl=  3107 FMM=F I1Cent=   0 AccDes= 0.00D+00.
 FoFJK:  IHMeth= 1 ICntrl=    3107 DoSepK=F KAlg= 0 I1Cent=           0 FoldK=F
 IRaf=         0 NMat=       1 IRICut=       1 DoRegI=T DoRafI=F ISym2E= 0 IDoP0=0 IntGTp=1.
 FoFCou: FMM=F IPFlag=           0 FMFlag=      100000 FMFlg1=           0
         NFxFlg=           0 DoJE=F BraDBF=F KetDBF=F FulRan=T
         wScrn=  0.000000 ICntrl=      3107 IOpCl=  0 I1Cent=           0 NGrid=           0
         NMat0=    1 NMatS0=      1 NMatT0=    0 NMatD0=    1 NMtDS0=    0 NMtDT0=    0
 Symmetry not used in FoFCou.
 End of G2Drv F.D. properties file   721 does not exist.
 End of G2Drv F.D. properties file   722 does not exist.
 End of G2Drv F.D. properties file   788 does not exist.
 Leave Link 1110 at Mon Apr  8 16:40:34 2019, MaxMem=   671088640 cpu:            1353.2 elap:              67.7
 (Enter /shared/centos7/gaussian/g16/l1002.exe)
 Minotr:  Closed shell wavefunction.
          IDoAtm=11111111111111
          Direct CPHF calculation.
          Differentiating once with respect to nuclear coordinates.
          Requested convergence is 1.0D-08 RMS, and 1.0D-07 maximum.
          Secondary convergence is 1.0D-12 RMS, and 1.0D-12 maximum.
          NewPWx=T KeepS1=F KeepF1=F KeepIn=T MapXYZ=F SortEE=F KeepMc=T.
         4243 words used for storage of precomputed grid.
 Keep R1 ints in memory in canonical form, NReq=350454815.
 FoFCou: FMM=F IPFlag=           0 FMFlag=           0 FMFlg1=           0
         NFxFlg=           0 DoJE=F BraDBF=F KetDBF=F FulRan=T
         wScrn=  0.000000 ICntrl=       600 IOpCl=  0 I1Cent=           0 NGrid=           0
         NMat0=    1 NMatS0=  25651 NMatT0=    0 NMatD0=    1 NMtDS0=    0 NMtDT0=    0
 Symmetry not used in FoFCou.
 Two-electron integral symmetry not used.
          MDV=     671088640 using IRadAn=       1.
          Solving linear equations simultaneously, MaxMat=       0.
          There are    45 degrees of freedom in the 1st order CPHF.  IDoFFX=6 NUNeed=     0.
     39 vectors produced by pass  0 Test12= 7.90D-15 2.22D-09 XBig12= 5.68D-02 5.75D-02.
 AX will form    39 AO Fock derivatives at one time.
     39 vectors produced by pass  1 Test12= 7.90D-15 2.22D-09 XBig12= 1.87D-03 7.62D-03.
     39 vectors produced by pass  2 Test12= 7.90D-15 2.22D-09 XBig12= 3.03D-05 8.18D-04.
     39 vectors produced by pass  3 Test12= 7.90D-15 2.22D-09 XBig12= 2.36D-07 6.84D-05.
     39 vectors produced by pass  4 Test12= 7.90D-15 2.22D-09 XBig12= 1.27D-09 4.47D-06.
     39 vectors produced by pass  5 Test12= 7.90D-15 2.22D-09 XBig12= 7.14D-12 3.10D-07.
     15 vectors produced by pass  6 Test12= 7.90D-15 2.22D-09 XBig12= 2.45D-14 1.80D-08.
 InvSVY:  IOpt=1 It=  1 EMax= 2.00D-15
 Solved reduced A of dimension   249 with    39 vectors.
 End of Minotr F.D. properties file   721 does not exist.
 End of Minotr F.D. properties file   722 does not exist.
 End of Minotr F.D. properties file   788 does not exist.
 Leave Link 1002 at Mon Apr  8 16:41:49 2019, MaxMem=   671088640 cpu:            1487.0 elap:              74.4
 (Enter /shared/centos7/gaussian/g16/l601.exe)
 Copying SCF densities to generalized density rwf, IOpCl= 0 IROHF=0.

 **********************************************************************

            Population analysis using the SCF density.

 **********************************************************************

 Orbital symmetries:
       Occupied  (A) (A) (A) (A) (A) (A) (A) (A) (A) (A) (A) (A)
                 (A) (A) (A) (A) (A)
       Virtual   (A) (A) (A) (A) (A) (A) (A) (A) (A) (A) (A) (A)
                 (A) (A) (A) (A) (A) (A) (A) (A) (A) (A) (A) (A)
                 (A) (A) (A) (A) (A) (A) (A) (A) (A) (A) (A) (A)
                 (A) (A) (A) (A) (A) (A) (A) (A) (A) (A) (A) (A)
                 (A) (A) (A) (A) (A) (A) (A) (A) (A) (A) (A) (A)
                 (A) (A) (A) (A) (A) (A) (A) (A) (A) (A) (A) (A)
                 (A) (A) (A) (A) (A) (A) (A) (A) (A) (A) (A) (A)
                 (A) (A) (A) (A) (A) (A) (A) (A) (A) (A) (A) (A)
                 (A) (A) (A) (A) (A) (A) (A) (A) (A) (A) (A) (A)
                 (A) (A) (A) (A) (A) (A) (A) (A) (A) (A) (A) (A)
                 (A) (A) (A) (A) (A) (A) (A) (A) (A) (A) (A) (A)
                 (A) (A) (A) (A) (A) (A) (A) (A) (A) (A) (A) (A)
                 (A) (A) (A) (A) (A) (A) (A) (A) (A) (A) (A) (A)
                 (A) (A) (A) (A) (A) (A) (A) (A) (A) (A) (A) (A)
                 (A) (A) (A) (A) (A) (A) (A) (A) (A) (A) (A) (A)
                 (A) (A) (A) (A) (A) (A) (A) (A) (A) (A) (A) (A)
                 (A) (A) (A) (A) (A) (A) (A) (A) (A) (A) (A) (A)
                 (A) (A) (A) (A) (A)
 The electronic state is 1-A.
 Alpha  occ. eigenvalues --  -10.52650 -10.52549 -10.52495 -10.52335  -0.89998
 Alpha  occ. eigenvalues --   -0.80997  -0.72519  -0.63658  -0.53217  -0.52619
 Alpha  occ. eigenvalues --   -0.47954  -0.45106  -0.43492  -0.41981  -0.38135
 Alpha  occ. eigenvalues --   -0.37891  -0.37091
 Alpha virt. eigenvalues --    0.01708   0.03214   0.03552   0.03964   0.06505
 Alpha virt. eigenvalues --    0.07248   0.07348   0.07605   0.07646   0.10818
 Alpha virt. eigenvalues --    0.11030   0.11457   0.11881   0.12581   0.14239
 Alpha virt. eigenvalues --    0.15694   0.19003   0.20151   0.21248   0.21902
 Alpha virt. eigenvalues --    0.23363   0.25179   0.26684   0.27123   0.28194
 Alpha virt. eigenvalues --    0.28558   0.29627   0.30642   0.33344   0.40716
 Alpha virt. eigenvalues --    0.42728   0.43540   0.44197   0.46407   0.47997
 Alpha virt. eigenvalues --    0.48405   0.51399   0.52370   0.53687   0.54546
 Alpha virt. eigenvalues --    0.57175   0.57721   0.58397   0.59912   0.60381
 Alpha virt. eigenvalues --    0.61734   0.62581   0.63407   0.65516   0.67582
 Alpha virt. eigenvalues --    0.68136   0.69132   0.71113   0.73139   0.77654
 Alpha virt. eigenvalues --    0.80218   0.83196   0.83893   0.85348   0.89871
 Alpha virt. eigenvalues --    0.92400   0.94300   0.98939   1.00491   1.02507
 Alpha virt. eigenvalues --    1.05998   1.08092   1.11882   1.13257   1.14695
 Alpha virt. eigenvalues --    1.16359   1.18428   1.19949   1.21183   1.22275
 Alpha virt. eigenvalues --    1.22739   1.24264   1.25628   1.28566   1.30930
 Alpha virt. eigenvalues --    1.31631   1.33559   1.34204   1.35609   1.36656
 Alpha virt. eigenvalues --    1.40151   1.41519   1.42870   1.45050   1.46534
 Alpha virt. eigenvalues --    1.47849   1.49121   1.49554   1.52600   1.53649
 Alpha virt. eigenvalues --    1.55276   1.56178   1.57529   1.60265   1.62506
 Alpha virt. eigenvalues --    1.64911   1.65782   1.67931   1.75110   1.77094
 Alpha virt. eigenvalues --    2.38058   2.41292   2.45191   2.49856   2.53836
 Alpha virt. eigenvalues --    2.56184   2.61617   2.66085   2.71317   2.72772
 Alpha virt. eigenvalues --    2.77290   2.82399   2.84432   2.85823   2.88497
 Alpha virt. eigenvalues --    2.89918   2.90753   2.98278   3.00352   3.01410
 Alpha virt. eigenvalues --    3.02337   3.05006   3.07590   3.10100   3.15183
 Alpha virt. eigenvalues --    3.15897   3.18519   3.22335   3.23748   3.27375
 Alpha virt. eigenvalues --    3.28453   3.31265   3.32476   3.33383   3.36728
 Alpha virt. eigenvalues --    3.39075   3.41279   3.44440   3.46686   3.50857
 Alpha virt. eigenvalues --    3.55433   3.57700   3.59215   3.60659   3.65395
 Alpha virt. eigenvalues --    3.69066   3.70111   3.75506   3.78350   3.78978
 Alpha virt. eigenvalues --    3.80160   3.80719   3.82547   3.89778   3.93022
 Alpha virt. eigenvalues --    3.94586   3.97870   3.97982   4.00144   4.01830
 Alpha virt. eigenvalues --    4.02458   4.04312   4.07885   4.15491   4.16489
 Alpha virt. eigenvalues --    4.17157   4.18997   4.20055   4.22080   4.24361
 Alpha virt. eigenvalues --    4.26720   4.27657   4.30913   4.32429   4.38868
 Alpha virt. eigenvalues --    4.40957   4.42778   4.46784   4.49012   4.51967
 Alpha virt. eigenvalues --    4.53928   4.55889   4.58994   4.59859   4.62567
 Alpha virt. eigenvalues --    4.66228   4.70502   4.76570   4.79462   4.94681
 Alpha virt. eigenvalues --    5.17785   5.39968   5.42804   5.46391   5.51829
 Alpha virt. eigenvalues --    5.52289   5.53513   5.58476   5.64586   5.66489
 Alpha virt. eigenvalues --   24.22150  24.27037  24.39668  24.49581
          Condensed to atoms (all electrons):
               1          2          3          4          5          6
     1  C    5.285692   0.162396   0.109441  -0.055011   0.451935   0.452175
     2  C    0.162396   5.263557  -0.032910   0.161079  -0.009263  -0.051549
     3  C    0.109441  -0.032910   5.251441   0.028544  -0.062309  -0.049185
     4  C   -0.055011   0.161079   0.028544   5.161151  -0.021430   0.017177
     5  H    0.451935  -0.009263  -0.062309  -0.021430   0.530276  -0.029594
     6  H    0.452175  -0.051549  -0.049185   0.017177  -0.029594   0.538246
     7  H   -0.058117   0.442936   0.020716  -0.036145  -0.009397  -0.003695
     8  H   -0.027375   0.478221  -0.023264  -0.067879   0.004997  -0.010309
     9  H   -0.039190   0.012291   0.407982   0.004903   0.001553  -0.012296
    10  H   -0.027897  -0.018019   0.419680   0.001455  -0.014743   0.006544
    11  H   -0.055262   0.032665   0.405706  -0.023099   0.005867   0.000503
    12  H   -0.032945  -0.017110   0.011359   0.406987   0.000286  -0.000148
    13  H    0.003101  -0.024380  -0.009357   0.409385   0.001332  -0.000197
    14  H    0.024718  -0.053633   0.000263   0.416040  -0.000250  -0.000261
               7          8          9         10         11         12
     1  C   -0.058117  -0.027375  -0.039190  -0.027897  -0.055262  -0.032945
     2  C    0.442936   0.478221   0.012291  -0.018019   0.032665  -0.017110
     3  C    0.020716  -0.023264   0.407982   0.419680   0.405706   0.011359
     4  C   -0.036145  -0.067879   0.004903   0.001455  -0.023099   0.406987
     5  H   -0.009397   0.004997   0.001553  -0.014743   0.005867   0.000286
     6  H   -0.003695  -0.010309  -0.012296   0.006544   0.000503  -0.000148
     7  H    0.539902  -0.028937  -0.000200  -0.000471  -0.000087   0.006157
     8  H   -0.028937   0.511405   0.000182   0.000003  -0.001395  -0.004327
     9  H   -0.000200   0.000182   0.543957  -0.020459  -0.024908   0.000494
    10  H   -0.000471   0.000003  -0.020459   0.544086  -0.037750  -0.004885
    11  H   -0.000087  -0.001395  -0.024908  -0.037750   0.559992  -0.001178
    12  H    0.006157  -0.004327   0.000494  -0.004885  -0.001178   0.558935
    13  H   -0.009704   0.006070  -0.000107   0.000108   0.000695  -0.034076
    14  H   -0.003768  -0.006715   0.000018   0.000146  -0.000295  -0.025980
              13         14
     1  C    0.003101   0.024718
     2  C   -0.024380  -0.053633
     3  C   -0.009357   0.000263
     4  C    0.409385   0.416040
     5  H    0.001332  -0.000250
     6  H   -0.000197  -0.000261
     7  H   -0.009704  -0.003768
     8  H    0.006070  -0.006715
     9  H   -0.000107   0.000018
    10  H    0.000108   0.000146
    11  H    0.000695  -0.000295
    12  H   -0.034076  -0.025980
    13  H    0.544041  -0.022813
    14  H   -0.022813   0.543650
 Mulliken charges:
               1
     1  C   -0.193660
     2  C   -0.346280
     3  C   -0.478107
     4  C   -0.403155
     5  H    0.150740
     6  H    0.142588
     7  H    0.140810
     8  H    0.169323
     9  H    0.125779
    10  H    0.152204
    11  H    0.138546
    12  H    0.136431
    13  H    0.135902
    14  H    0.128880
 Sum of Mulliken charges =  -0.00000
 Mulliken charges with hydrogens summed into heavy atoms:
               1
     1  C    0.099668
     2  C   -0.036147
     3  C   -0.061578
     4  C   -0.001943
 APT charges:
               1
     1  C   -0.684116
     2  C   -0.824900
     3  C   -1.118554
     4  C   -1.067923
     5  H    0.353902
     6  H    0.417332
     7  H    0.416650
     8  H    0.366760
     9  H    0.480521
    10  H    0.327374
    11  H    0.263630
    12  H    0.251697
    13  H    0.343882
    14  H    0.473744
 Sum of APT charges =  -0.00000
 APT charges with hydrogens summed into heavy atoms:
               1
     1  C    0.087118
     2  C   -0.041489
     3  C   -0.047029
     4  C    0.001400
 Electronic spatial extent (au):  <R**2>=            369.5331
 Charge=             -0.0000 electrons
 Dipole moment (field-independent basis, Debye):
    X=             -0.0329    Y=              0.1182    Z=             -0.0182  Tot=              0.1241
 Quadrupole moment (field-independent basis, Debye-Ang):
   XX=            -29.0589   YY=            -29.2040   ZZ=            -28.4433
   XY=             -0.0278   XZ=              0.0023   YZ=             -0.0238
 Traceless Quadrupole moment (field-independent basis, Debye-Ang):
   XX=             -0.1569   YY=             -0.3019   ZZ=              0.4588
   XY=             -0.0278   XZ=              0.0023   YZ=             -0.0238
 Octapole moment (field-independent basis, Debye-Ang**2):
  XXX=             -0.4259  YYY=              0.9210  ZZZ=              0.5903  XYY=             -0.2892
  XXY=              1.7049  XXZ=             -0.7791  XZZ=              0.5554  YZZ=             -0.0611
  YYZ=             -0.0295  XYZ=              0.7799
 Hexadecapole moment (field-independent basis, Debye-Ang**3):
 XXXX=           -312.6842 YYYY=           -140.9900 ZZZZ=            -67.1280 XXXY=             -1.9568
 XXXZ=             -1.0116 YYYX=              0.5396 YYYZ=             -0.1154 ZZZX=             -0.1135
 ZZZY=             -0.4044 XXYY=            -79.0812 XXZZ=            -64.9527 YYZZ=            -34.8000
 XXYZ=             -0.3009 YYXZ=              0.4071 ZZXY=              0.2102
 N-N= 1.335863953621D+02 E-N=-6.331712052763D+02  KE= 1.575196370601D+02
  Exact polarizability:   0.000   0.000   0.000   0.000   0.000   0.000
 Approx polarizability:  58.528  -0.079  57.952  -0.130   0.180  58.687
 No NMR shielding tensors so no spin-rotation constants.
 Leave Link  601 at Mon Apr  8 16:41:49 2019, MaxMem=   671088640 cpu:               8.1 elap:               0.5
 (Enter /shared/centos7/gaussian/g16/l701.exe)
 SCFChk:  SCF convergence  5.42D-09 required  1.00D-08
 ... and contract with generalized density number  0.
 Compute integral second derivatives.
 Entering OneElI...
 Calculate overlap and kinetic energy integrals
    NBasis = 246  MinDer = 2  MaxDer = 2
 Requested accuracy = 0.1000D-12
 PrmmSu-InSpLW:  IPartL=    0 NPrtUS=   20 NPrtUL=    1 DoSpLW=F IThBeg=    0 IThEnd=   19 NThAct=   20.
 PrsmSu:  NPrtUS=  20 ThrOK=T IAlg=1 NPAlg=1 LenDen=           0 ISkipM=0 DoSpLW=F IThBeg=    0 IThEnd=   19.
 Prism:   IPart=     0 DynPar=F LinDyn=F Incr=           1.
 PRISM was handed    33468038 working-precision words and  3403 shell-pairs
 PRISM was handed    33468038 working-precision words and  3403 shell-pairs
 PRISM was handed    33468038 working-precision words and  3403 shell-pairs
 PRISM was handed    33468038 working-precision words and  3403 shell-pairs
 PRISM was handed    33468038 working-precision words and  3403 shell-pairs
 PRISM was handed    33468038 working-precision words and  3403 shell-pairs
 PRISM was handed    33468038 working-precision words and  3403 shell-pairs
 PRISM was handed    33468038 working-precision words and  3403 shell-pairs
 PRISM was handed    33468038 working-precision words and  3403 shell-pairs
 PRISM was handed    33468038 working-precision words and  3403 shell-pairs
 PRISM was handed    33468038 working-precision words and  3403 shell-pairs
 PRISM was handed    33468038 working-precision words and  3403 shell-pairs
 PRISM was handed    33468038 working-precision words and  3403 shell-pairs
 PRISM was handed    33468038 working-precision words and  3403 shell-pairs
 PRISM was handed    33468038 working-precision words and  3403 shell-pairs
 PRISM was handed    33468038 working-precision words and  3403 shell-pairs
 PRISM was handed    33468038 working-precision words and  3403 shell-pairs
 PRISM was handed    33468038 working-precision words and  3403 shell-pairs
 PRISM was handed    33468038 working-precision words and  3403 shell-pairs
 PRISM was handed    33468038 working-precision words and  3403 shell-pairs
 IPart= 16 NShTot=         156 NBatch=          29 AvBLen=         5.4
 IPart= 11 NShTot=         165 NBatch=          31 AvBLen=         5.3
 IPart=  8 NShTot=         173 NBatch=          37 AvBLen=         4.7
 IPart=  0 NShTot=         193 NBatch=          51 AvBLen=         3.8
 IPart= 17 NShTot=         156 NBatch=          29 AvBLen=         5.4
 IPart= 10 NShTot=         166 NBatch=          31 AvBLen=         5.4
 IPart= 13 NShTot=         161 NBatch=          31 AvBLen=         5.2
 IPart= 12 NShTot=         162 NBatch=          31 AvBLen=         5.2
 IPart= 15 NShTot=         161 NBatch=          31 AvBLen=         5.2
 IPart=  7 NShTot=         177 NBatch=          38 AvBLen=         4.7
 IPart=  5 NShTot=         180 NBatch=          41 AvBLen=         4.4
 IPart=  3 NShTot=         184 NBatch=          44 AvBLen=         4.2
 IPart=  4 NShTot=         180 NBatch=          41 AvBLen=         4.4
 IPart= 19 NShTot=         153 NBatch=          29 AvBLen=         5.3
 IPart= 14 NShTot=         161 NBatch=          31 AvBLen=         5.2
 IPart=  2 NShTot=         185 NBatch=          45 AvBLen=         4.1
 IPart=  9 NShTot=         171 NBatch=          35 AvBLen=         4.9
 IPart= 18 NShTot=         153 NBatch=          29 AvBLen=         5.3
 IPart=  6 NShTot=         177 NBatch=          38 AvBLen=         4.7
 IPart=  1 NShTot=         189 NBatch=          49 AvBLen=         3.9
 PrSmSu:  NxtVal=             21.
 Entering OneElI...
 Calculate potential energy integrals
    NBasis = 246  MinDer = 2  MaxDer = 2
 Requested accuracy = 0.1000D-12
 PrmmSu-InSpLW:  IPartL=    0 NPrtUS=   20 NPrtUL=    1 DoSpLW=F IThBeg=    0 IThEnd=   19 NThAct=   20.
 PrsmSu:  NPrtUS=  20 ThrOK=T IAlg=1 NPAlg=1 LenDen=           0 ISkipM=0 DoSpLW=F IThBeg=    0 IThEnd=   19.
 Prism:   IPart=     0 DynPar=F LinDyn=F Incr=          23.
 PRISM was handed    33477643 working-precision words and  3313 shell-pairs
 PRISM was handed    33477643 working-precision words and  3313 shell-pairs
 PRISM was handed    33477643 working-precision words and  3313 shell-pairs
 PRISM was handed    33477643 working-precision words and  3313 shell-pairs
 PRISM was handed    33477643 working-precision words and  3313 shell-pairs
 PRISM was handed    33477643 working-precision words and  3313 shell-pairs
 PRISM was handed    33477643 working-precision words and  3313 shell-pairs
 PRISM was handed    33477643 working-precision words and  3313 shell-pairs
 PRISM was handed    33477643 working-precision words and  3313 shell-pairs
 PRISM was handed    33477643 working-precision words and  3313 shell-pairs
 PRISM was handed    33477643 working-precision words and  3313 shell-pairs
 PRISM was handed    33477643 working-precision words and  3313 shell-pairs
 PRISM was handed    33477643 working-precision words and  3313 shell-pairs
 PRISM was handed    33477643 working-precision words and  3313 shell-pairs
 PRISM was handed    33477643 working-precision words and  3313 shell-pairs
 PRISM was handed    33477643 working-precision words and  3313 shell-pairs
 PRISM was handed    33477643 working-precision words and  3313 shell-pairs
 PRISM was handed    33477643 working-precision words and  3313 shell-pairs
 PRISM was handed    33477643 working-precision words and  3313 shell-pairs
 PRISM was handed    33477643 working-precision words and  3313 shell-pairs
 IPart= 16 NShTot=        2072 NBatch=         148 AvBLen=        14.0
 IPart= 11 NShTot=        2226 NBatch=         159 AvBLen=        14.0
 IPart=  8 NShTot=        2352 NBatch=         168 AvBLen=        14.0
 IPart= 12 NShTot=        2184 NBatch=         156 AvBLen=        14.0
 IPart=  0 NShTot=        2702 NBatch=         193 AvBLen=        14.0
 IPart= 18 NShTot=        2044 NBatch=         146 AvBLen=        14.0
 IPart=  2 NShTot=        2632 NBatch=         188 AvBLen=        14.0
 IPart=  9 NShTot=        2324 NBatch=         166 AvBLen=        14.0
 IPart=  4 NShTot=        2492 NBatch=         178 AvBLen=        14.0
 IPart=  6 NShTot=        2422 NBatch=         173 AvBLen=        14.0
 IPart= 15 NShTot=        2142 NBatch=         153 AvBLen=        14.0
 IPart=  3 NShTot=        2590 NBatch=         185 AvBLen=        14.0
 IPart=  5 NShTot=        2450 NBatch=         175 AvBLen=        14.0
 IPart=  1 NShTot=        2702 NBatch=         193 AvBLen=        14.0
 IPart=  7 NShTot=        2408 NBatch=         172 AvBLen=        14.0
 IPart= 13 NShTot=        2156 NBatch=         154 AvBLen=        14.0
 IPart= 19 NShTot=        2030 NBatch=         145 AvBLen=        14.0
 IPart= 14 NShTot=        2142 NBatch=         153 AvBLen=        14.0
 IPart= 10 NShTot=        2240 NBatch=         160 AvBLen=        14.0
 IPart= 17 NShTot=        2072 NBatch=         148 AvBLen=        14.0
 PrSmSu:  NxtVal=            461.
 Polarizability after L701:
                1             2             3 
      1  0.000000D+00
      2  0.000000D+00  0.000000D+00
      3  0.000000D+00  0.000000D+00  0.000000D+00
 Dipole Derivatives after L701:
                 1             2             3             4             5 
      1  -0.376401D+00  0.900793D+00  0.258581D+00 -0.445024D+00 -0.793344D+00
      2   0.524912D+00 -0.783128D+00 -0.114005D+00 -0.577205D+00 -0.966569D+00
      3   0.376257D-01 -0.111322D-01 -0.892820D+00 -0.985299D-01 -0.487435D-02
                 6             7             8             9            10 
      1   0.173723D+00 -0.144586D+01 -0.734240D+00 -0.189255D+00 -0.143758D+01
      2   0.131298D+00  0.716181D-02 -0.952869D+00  0.354142D-01  0.271349D-01
      3  -0.106311D+01  0.233247D-01  0.681997D-01 -0.956931D+00  0.265141D-01
                11            12            13            14            15 
      1   0.608057D+00 -0.229386D+00  0.148977D+00 -0.177771D-01 -0.314398D+00
      2  -0.870476D+00 -0.270593D-01  0.218150D-01  0.207562D+00  0.318130D+00
      3  -0.796686D-01 -0.895717D+00 -0.972755D-02  0.562049D-01  0.705167D+00
                16            17            18            19            20 
      1   0.425842D+00 -0.405887D+00  0.214090D+00  0.406720D+00  0.403469D+00
      2  -0.297983D+00  0.647626D+00 -0.270135D+00  0.301647D+00  0.659155D+00
      3   0.378086D-01 -0.666603D-01  0.178529D+00  0.327512D-01  0.553668D-01
                21            22            23            24            25 
      1   0.220009D+00  0.184109D+00  0.228872D-01 -0.303113D+00  0.122482D+01
      2   0.277819D+00 -0.148510D-01  0.206512D+00 -0.318964D+00  0.150173D+00
      3   0.184076D+00 -0.138546D-02 -0.541160D-01  0.709659D+00  0.113355D+00
                26            27            28            29            30 
      1  -0.286034D+00  0.204457D+00  0.632724D-01  0.392886D+00 -0.424984D+00
      2   0.101254D+00  0.299372D-01 -0.611820D-01  0.513340D+00 -0.411338D+00
      3  -0.292609D-01  0.115491D+00  0.410764D-01 -0.192567D+00  0.405510D+00
                31            32            33            34            35 
      1  -0.270909D-01  0.226226D+00  0.306519D+00 -0.386779D-01 -0.289366D+00
      2  -0.163788D+00  0.321608D+00  0.326223D+00  0.363880D+00  0.642344D+00
      3  -0.193256D+00  0.203445D+00  0.496373D+00  0.615224D-01  0.747281D-01
                36            37            38            39            40 
      1  -0.636899D-01  0.234968D+00 -0.289056D-01  0.701643D+00  0.108193D+01
      2   0.153935D+00 -0.519393D-01  0.148371D+00 -0.248321D+00 -0.229775D+00
      3   0.151425D+00  0.102109D+00 -0.428578D-02  0.648308D+00 -0.173188D+00
                41            42 
      1   0.123441D-02 -0.554197D+00
      2   0.125270D+00  0.117066D+00
      3  -0.153791D-01  0.214036D+00
 Hessian after L701:
                1             2             3             4             5 
      1  0.104469D+02
      2 -0.450427D+00  0.120657D+02
      3  0.414371D+00 -0.181046D+00  0.128589D+02
      4 -0.129269D+01  0.117066D+00 -0.122237D+01  0.105971D+02
      5 -0.185029D-01 -0.488453D+01 -0.276459D-02  0.360801D+00  0.119700D+02
      6 -0.120038D+01 -0.279024D-01 -0.441659D+01  0.272047D+00  0.207046D+00
      7 -0.353455D+01  0.166854D+01  0.412473D+00  0.265762D+00  0.288017D+00
      8  0.170980D+01 -0.203852D+01  0.612262D+00  0.227312D+00 -0.569698D-01
      9  0.441830D+00  0.635145D+00 -0.444829D+01  0.769823D-01  0.530150D-01
     10  0.242243D+00 -0.162709D+00  0.828954D-01 -0.355884D+01 -0.180526D+01
     11 -0.156735D+00 -0.375017D-01 -0.516653D-01 -0.181592D+01 -0.194429D+01
     12 -0.160598D-02 -0.164835D-01 -0.181314D+00  0.473038D+00 -0.685837D+00
     13 -0.336139D+01 -0.205431D-01 -0.117344D+00 -0.379435D-02 -0.381903D-01
     14 -0.631773D-02 -0.325172D+01  0.455834D+00 -0.316430D-01  0.209060D-03
     15 -0.516511D-01  0.427401D+00 -0.913345D+00 -0.335129D-01  0.648774D-01
     16 -0.288473D+01 -0.964998D+00  0.418434D+00 -0.408438D-02  0.121346D-01
     17 -0.942504D+00 -0.181056D+01 -0.690070D+00 -0.326032D-02  0.726633D-01
     18  0.401957D+00 -0.677457D+00 -0.313134D+01  0.302609D-01 -0.369059D-01
     19  0.371313D-02 -0.176743D-01  0.176724D-01 -0.274042D+01  0.978716D+00
     20 -0.105238D-01  0.705627D-01  0.308956D-01  0.968431D+00 -0.169111D+01
     21  0.369040D-01  0.401273D-01  0.515305D-01  0.407405D+00  0.674184D+00
     22  0.253702D-03  0.408352D-01  0.428266D-01 -0.349907D+01  0.176387D-01
     23  0.263418D-01  0.257907D-01 -0.273276D-01  0.817355D-02 -0.341550D+01
     24 -0.126883D-01 -0.723746D-01  0.588439D-01 -0.604909D-01 -0.365904D+00
     25  0.675708D-01 -0.389486D-01  0.936190D-02  0.121670D+00  0.457959D-01
     26 -0.600798D-01  0.255254D-02  0.435376D-03  0.336618D-01 -0.299941D-01
     27  0.207740D-01  0.553316D-02  0.186357D-01  0.730263D-02  0.149382D-03
     28  0.419069D-01 -0.290331D-01  0.250910D-02  0.581352D-02  0.916438D-02
     29  0.330546D-01 -0.281493D-01 -0.462502D-01  0.200056D-01  0.101669D-01
     30 -0.245665D-01 -0.455511D-01  0.867985D-01 -0.177167D-01 -0.145886D-01
     31  0.762057D-01 -0.816758D-01 -0.796148D-01  0.661174D-02  0.568146D-01
     32 -0.308958D-01 -0.510051D-01 -0.812890D-01  0.101071D+00 -0.870153D-02
     33 -0.396512D-01 -0.841480D-01  0.531842D-01  0.706777D-01  0.484953D-01
     34  0.434447D-02  0.330109D-01  0.957699D-02  0.361028D-01  0.559104D-01
     35  0.100545D-01 -0.843168D-02 -0.186007D-01 -0.269254D-01 -0.172878D-01
     36  0.130440D-02 -0.489884D-02  0.128082D-01  0.954763D-02  0.324425D-01
     37  0.633898D-01 -0.347564D-01  0.399377D-01  0.239231D-01  0.224281D-01
     38 -0.405740D-01 -0.232233D-01 -0.146834D-01  0.539679D-02 -0.202874D-01
     39  0.617272D-01 -0.130610D-01 -0.289024D-02  0.311928D-01  0.237491D-01
     40  0.126833D+00 -0.586857D-01 -0.307283D-01  0.419226D-01  0.145340D-01
     41 -0.626922D-01 -0.310072D-01  0.142693D-01  0.358268D-01  0.156486D-01
     42 -0.483253D-01  0.147162D-01 -0.469563D-01 -0.443617D-01  0.204104D-02
                6             7             8             9            10 
      6  0.131090D+02
      7  0.162891D+00  0.956367D+01
      8  0.909915D-01 -0.101016D+01  0.990578D+01
      9 -0.279861D+00 -0.264858D+00 -0.314413D+00  0.113301D+02
     10  0.440088D+00  0.362374D+00 -0.930130D-01 -0.518932D-01  0.967015D+01
     11 -0.665655D+00  0.327584D-01 -0.269094D+00  0.260403D-03  0.109640D+01
     12 -0.448507D+01 -0.413948D-01 -0.549419D-02 -0.265905D+00 -0.204094D+00
     13  0.258605D-01  0.610127D-01 -0.110537D-01 -0.139927D-01  0.133303D-01
     14  0.327764D-01 -0.221672D-01 -0.150179D-01 -0.612607D-01 -0.147815D-01
     15  0.478246D-01 -0.942471D-02 -0.485334D-01  0.816147D-01 -0.234099D-01
     16  0.100312D-01  0.418671D-01 -0.560240D-01  0.182946D-01  0.714809D-01
     17 -0.287742D-01 -0.441769D-01  0.281867D-01 -0.186623D-01 -0.112804D+00
     18  0.480444D-01  0.125515D-01 -0.352025D-01  0.462827D-01  0.246474D-01
     19  0.422074D+00  0.741317D-01  0.968172D-01  0.127485D-01  0.288262D-01
     20  0.689579D+00  0.123632D+00  0.325743D-01  0.932361D-02  0.211890D-01
     21 -0.300635D+01  0.248360D-01  0.134503D-01 -0.501908D-01  0.992968D-02
     22 -0.124865D+00  0.800766D-02 -0.882829D-02 -0.515028D-02  0.548435D-01
     23 -0.411804D+00  0.168952D-02 -0.484816D-02 -0.347029D-02  0.358523D-01
     24 -0.103731D+01 -0.197988D-01  0.617666D-02  0.211365D-01 -0.310886D-01
     25  0.143731D-01 -0.837068D+00 -0.402694D+00  0.362907D+00  0.638204D-01
     26 -0.385388D-02 -0.363547D+00 -0.296056D+01 -0.611847D-01 -0.695736D-02
     27 -0.418599D-01  0.358452D+00 -0.686493D-01 -0.294130D+01  0.105636D-01
     28 -0.320972D-02 -0.312736D+01 -0.307494D-01  0.805126D-02  0.440475D-01
     29 -0.307997D-02 -0.115142D+00 -0.194813D+01 -0.120823D+01  0.530782D-01
     30 -0.506830D-02  0.916301D-01 -0.117354D+01 -0.188734D+01 -0.431988D-01
     31  0.200947D-01 -0.295726D+01 -0.347444D+00 -0.576291D+00 -0.349187D-01
     32  0.407246D-01 -0.450173D+00 -0.265297D+01  0.957349D+00 -0.375391D-02
     33 -0.397759D-01 -0.718866D+00  0.916858D+00 -0.153364D+01  0.967294D-02
     34  0.141114D-01  0.254137D-01 -0.523966D-01 -0.856072D-02 -0.273085D+01
     35  0.374993D-01 -0.113416D+00  0.212969D-02  0.103514D-01  0.110775D+01
     36  0.152872D-01 -0.226788D-01  0.140141D-01 -0.660819D-01  0.299297D+00
     37 -0.243556D-01  0.645218D-02 -0.729093D-02  0.119696D-01 -0.303785D+01
     38  0.551237D-01  0.506139D-02 -0.849260D-02  0.212430D-02 -0.168036D-01
     39  0.498932D-01  0.284300D-01 -0.138251D-01  0.429355D-02  0.409405D+00
     40 -0.287615D-01  0.475364D-01 -0.142764D-01 -0.120373D-01 -0.118866D+01
     41 -0.126709D-01 -0.914431D-03 -0.140686D-01 -0.344250D-03 -0.981843D-01
     42  0.417920D-01 -0.142422D-01  0.590757D-02 -0.107999D-01 -0.932815D+00
               11            12            13            14            15 
     11  0.985547D+01
     12  0.256351D+00  0.113564D+02
     13 -0.753741D-02 -0.121535D-01  0.324471D+01
     14  0.335476D-02  0.896813D-02  0.112919D+00  0.326953D+01
     15  0.481123D-02  0.173242D-01  0.157241D+00 -0.550716D+00  0.676799D+00
     16 -0.896458D-01  0.150844D-01  0.471924D-01  0.133132D-01 -0.305774D-01
     17  0.269531D-01 -0.106463D-01  0.998354D-02  0.393399D-01  0.410278D-01
     18 -0.152100D-01 -0.461630D-01 -0.443491D-01  0.693953D-01 -0.493490D-01
     19  0.461032D-01  0.163961D-01 -0.237183D-01 -0.154318D-01  0.187494D-01
     20  0.297887D-01  0.241935D-01 -0.160584D-01  0.925578D-02  0.657653D-03
     21  0.438973D-01  0.261819D-01  0.259442D-01  0.918218D-02 -0.213206D-02
     22  0.186836D-01 -0.294032D-01 -0.511561D-02 -0.286446D-02 -0.325239D-01
     23  0.154842D-01  0.636057D-01  0.249547D-02 -0.152075D-01 -0.469013D-02
     24  0.413913D-01  0.742427D-01 -0.327942D-01  0.570339D-02  0.679210D-01
     25  0.527269D-02  0.294764D-02  0.117028D-01  0.165286D-01  0.364739D-01
     26 -0.208026D-01 -0.403183D-03  0.891162D-02 -0.286733D-02  0.824257D-02
     27  0.880231D-03 -0.180029D-01  0.147973D-01  0.104692D-01  0.111730D-01
     28  0.365035D-01 -0.154682D-01  0.208536D-01 -0.317157D-01 -0.122371D-01
     29 -0.363463D-02 -0.142518D-01 -0.239440D-01 -0.593138D-01 -0.225621D-01
     30 -0.245112D-01 -0.165437D-01 -0.640207D-02 -0.272294D-01  0.148815D-01
     31  0.270251D-03 -0.131116D-01 -0.191843D-01  0.190991D-02  0.340030D-02
     32  0.121031D-01 -0.697358D-03  0.297333D-02  0.143942D-01  0.548218D-01
     33  0.174900D-01  0.947845D-02  0.512736D-02  0.435913D-01  0.552876D-01
     34  0.915724D+00  0.258483D+00 -0.163921D-02 -0.262173D-02 -0.324512D-03
     35 -0.152645D+01  0.518512D+00 -0.793478D-02  0.839911D-02  0.180546D-01
     36  0.495071D+00 -0.310291D+01 -0.427652D-02  0.629444D-02  0.436844D-02
     37 -0.163768D-01  0.520158D+00  0.131274D-01 -0.140028D-01 -0.107479D-01
     38 -0.311459D+01 -0.202180D+00 -0.112173D-01  0.419739D-03  0.491658D-02
     39 -0.147833D+00 -0.853240D+00  0.506777D-02 -0.487526D-02 -0.176354D-01
     40 -0.654995D-01 -0.968876D+00  0.291153D-02 -0.312502D-02 -0.114558D-01
     41 -0.302679D+01  0.643627D-01 -0.804361D-03 -0.780339D-03  0.169111D-02
     42  0.447235D-01 -0.251445D+01 -0.272672D-02  0.186669D-02  0.526749D-02
               16            17            18            19            20 
     16  0.278813D+01
     17  0.112630D+01  0.154736D+01
     18 -0.453122D+00  0.737837D+00  0.311862D+01
     19 -0.437671D-02 -0.830579D-02  0.212905D-02  0.262118D+01
     20  0.751416D-02 -0.472113D-02  0.448695D-02 -0.111387D+01  0.145836D+01
     21  0.226635D-02 -0.481691D-02  0.522945D-02 -0.462842D+00 -0.757624D+00
     22 -0.264553D-01  0.189773D-01  0.279307D-01  0.441767D-01 -0.109669D-01
     23  0.170896D-01  0.109436D-01 -0.101056D-01 -0.140404D-01  0.353699D-01
     24  0.216810D-01 -0.197169D-02 -0.519808D-03 -0.281806D-01 -0.394486D-01
     25 -0.956575D-02 -0.297281D-01 -0.655663D-02  0.572596D-02  0.904708D-02
     26 -0.381170D-01 -0.354166D-01 -0.256838D-02 -0.204158D-02 -0.157632D-02
     27 -0.188271D-02 -0.351401D-03  0.204919D-01  0.123995D-02  0.170199D-02
     28 -0.198372D-01  0.498511D-02 -0.168277D-02 -0.180923D-02 -0.188866D-03
     29 -0.900689D-02  0.776534D-01 -0.332968D-01  0.317322D-02  0.528766D-02
     30  0.322310D-02 -0.430293D-01 -0.393039D-02 -0.400344D-02 -0.610645D-02
     31 -0.453737D-02 -0.699797D-02  0.508608D-03 -0.919135D-03  0.981566D-03
     32 -0.821512D-02  0.341888D-01  0.531380D-02  0.711382D-02  0.698893D-02
     33 -0.638246D-02  0.229801D-01 -0.656440D-02  0.656187D-02  0.915953D-02
     34 -0.204230D-02  0.660223D-03 -0.853253D-03 -0.157180D-01  0.182856D-01
     35 -0.889589D-02  0.118535D-01 -0.340178D-02  0.242047D-01  0.836721D-01
     36 -0.113730D-02  0.210430D-02 -0.254800D-02  0.237016D-02  0.158586D-01
     37  0.280813D-02 -0.501126D-02  0.296854D-02  0.132520D-01  0.991988D-02
     38 -0.261374D-02  0.131078D-02 -0.180806D-02  0.823822D-02 -0.303075D-01
     39  0.743535D-02 -0.936079D-02  0.356814D-02 -0.873793D-02  0.125242D-01
     40  0.415165D-02 -0.811877D-02  0.360981D-02 -0.404236D-02 -0.739225D-02
     41  0.116296D-02  0.241280D-03 -0.107722D-02  0.699747D-02 -0.414553D-02
     42 -0.334894D-02  0.373328D-02 -0.182235D-02  0.382275D-02  0.479848D-02
               21            22            23            24            25 
     21  0.302175D+01
     22 -0.424888D-01  0.343164D+01
     23 -0.685184D-01 -0.870636D-01  0.335725D+01
     24 -0.395695D-01  0.157376D+00  0.484363D+00  0.790556D+00
     25  0.454636D-02  0.929886D-02  0.588267D-02 -0.158056D-01  0.570132D+00
     26  0.380054D-03  0.185058D-02 -0.185837D-02 -0.893037D-04  0.344405D+00
     27 -0.194281D-04 -0.187242D-02 -0.653860D-03 -0.226335D-02 -0.428300D+00
     28  0.457554D-03  0.405312D-03  0.272139D-02 -0.419566D-02  0.742276D-02
     29  0.282098D-02  0.430709D-02  0.298226D-02 -0.115025D-01  0.218101D-01
     30 -0.238240D-02 -0.409136D-02 -0.517538D-02  0.976740D-02 -0.183033D-01
     31  0.287516D-03 -0.490052D-02 -0.358755D-02 -0.233420D-03 -0.325083D-01
     32  0.466703D-02  0.249983D-03 -0.261854D-03 -0.978988D-02  0.385782D-01
     33  0.253750D-02  0.173010D-02  0.366739D-02 -0.890061D-02  0.349651D-01
     34  0.303937D-02  0.521738D-02  0.473231D-02 -0.773195D-02  0.612553D-02
     35  0.197953D-01 -0.848240D-04 -0.495353D-02 -0.572985D-02 -0.146984D-01
     36 -0.142177D-01  0.820600D-03  0.821787D-02 -0.208975D-03 -0.212626D-02
     37 -0.551199D-02 -0.104942D-01 -0.125398D-01  0.307340D-01  0.468511D-02
     38  0.238253D-01 -0.722072D-02 -0.262388D-02 -0.368185D-01 -0.764874D-03
     39  0.229109D-02  0.216466D-01 -0.376522D-01  0.671581D-01  0.949457D-02
     40 -0.477269D-02 -0.780574D-02  0.122528D-01  0.321690D-02  0.109884D-01
     41 -0.136983D-02  0.144863D-01 -0.257220D-02  0.599441D-02 -0.485780D-03
     42  0.533704D-02 -0.119362D-01  0.954346D-02 -0.857356D-03 -0.397838D-02
               26            27            28            29            30 
     26  0.302114D+01
     27  0.518669D-01  0.291946D+01
     28  0.451140D-01 -0.516747D-01  0.295781D+01
     29  0.516784D-02  0.264392D-01  0.517881D-02  0.184490D+01
     30  0.181506D-01  0.672657D-02  0.354068D-03  0.127023D+01  0.195466D+01
     31  0.417136D-01  0.673145D-01  0.816687D-01 -0.682548D-02  0.252175D-01
     32  0.242600D-01 -0.260331D-01 -0.149890D-01  0.967308D-01  0.462788D-01
     33 -0.107884D-01  0.306551D-01  0.662694D-01  0.387166D-01 -0.155900D+00
     34 -0.212611D-02  0.327253D-03 -0.237034D-01 -0.316015D-03  0.103316D-01
     35  0.125579D-02 -0.132849D-02  0.745639D-04 -0.222664D-04  0.609635D-02
     36  0.787098D-03 -0.375728D-02  0.812736D-02 -0.299656D-02  0.509295D-02
     37 -0.106298D-02  0.181103D-02  0.692182D-02  0.704774D-02 -0.334572D-02
     38 -0.812119D-03  0.652720D-04  0.199867D-02 -0.252801D-02 -0.160071D-04
     39 -0.172796D-02  0.143443D-02  0.544519D-02  0.732930D-02 -0.885941D-02
     40 -0.172522D-02  0.114753D-02  0.586025D-02  0.757900D-02 -0.912842D-02
     41 -0.487186D-03 -0.891452D-04  0.935681D-03 -0.111012D-02 -0.100796D-02
     42  0.753234D-03 -0.137257D-02 -0.274578D-02 -0.336585D-02  0.208808D-02
               31            32            33            34            35 
     31  0.288497D+01
     32  0.348391D+00  0.253941D+01
     33  0.542646D+00 -0.996053D+00  0.158925D+01
     34 -0.154602D-02 -0.571948D-03  0.553005D-02  0.270476D+01
     35 -0.474395D-02 -0.100006D-01 -0.118116D-01 -0.869346D+00  0.140320D+01
     36  0.220695D-02 -0.388293D-03 -0.478413D-02 -0.228909D+00 -0.496906D+00
     37  0.538261D-02  0.468102D-02  0.130856D-01  0.395045D-01 -0.460034D-01
     38  0.777976D-03 -0.368180D-02  0.122984D-02 -0.329217D-01  0.351598D-01
     39  0.751964D-02  0.673586D-02  0.131255D-01 -0.521289D-01 -0.789565D-01
     40  0.937592D-03  0.554079D-02  0.863365D-02 -0.459663D-01 -0.500374D-01
     41  0.416129D-03 -0.145037D-02  0.613077D-03 -0.680227D-01  0.214811D-01
     42  0.556192D-04 -0.163941D-02 -0.395693D-02 -0.289159D-02  0.642551D-02
               36            37            38            39            40 
     36  0.315655D+01
     37 -0.882110D-01  0.283855D+01
     38 -0.949548D-01  0.935661D-01  0.313444D+01
     39 -0.483684D-01 -0.554117D+00  0.258546D+00  0.837240D+00
     40  0.236648D-01  0.303468D-01 -0.292319D-02  0.276193D-01  0.974984D+00
     41  0.253544D-01 -0.598561D-03  0.352105D-01 -0.159243D-02  0.171877D+00
     42  0.487628D-01  0.656251D-01  0.462953D-02 -0.480103D-01  0.997868D+00
               41            42 
     41  0.300983D+01
     42 -0.941333D-01  0.252498D+01
 Leave Link  701 at Mon Apr  8 16:41:50 2019, MaxMem=   671088640 cpu:              11.9 elap:               0.6
 (Enter /shared/centos7/gaussian/g16/l702.exe)
 L702 exits ... SP integral derivatives will be done elsewhere.
 Leave Link  702 at Mon Apr  8 16:41:50 2019, MaxMem=   671088640 cpu:               0.4 elap:               0.0
 (Enter /shared/centos7/gaussian/g16/l703.exe)
 Integral derivatives from FoFJK, PRISM(SPDF).
 Compute integral second derivatives, UseDBF=F ICtDFT=           0.
 ICntrl=    100147.
 Calling FoFJK, ICntrl=    100147 FMM=F ISym2X=0 I1Cent= 0 IOpClX= 0 NMat=1 NMatS=1 NMatT=0.
 FoFJK:  IHMeth= 1 ICntrl=  100147 DoSepK=F KAlg= 0 I1Cent=           0 FoldK=F
 IRaf=         0 NMat=       1 IRICut=       1 DoRegI=T DoRafI=F ISym2E= 0 IDoP0=0 IntGTp=1.
 FoFCou: FMM=F IPFlag=           0 FMFlag=      100000 FMFlg1=         800
         NFxFlg=           0 DoJE=F BraDBF=F KetDBF=F FulRan=T
         wScrn=  0.000000 ICntrl=    100147 IOpCl=  0 I1Cent=           0 NGrid=           0
         NMat0=    1 NMatS0=      1 NMatT0=    0 NMatD0=    1 NMtDS0=    0 NMtDT0=    0
 Symmetry not used in FoFCou.
 FoFCou:  KetSym=F NOpSet=  1 NOpAb=1 NOp=  1.
 FoFCou:  CnvScl= 1.00D+00 Thresh= 1.00D-08 IAcrcy=      12.
 PrismS was handed   670803671 working-precision words and  3367 shell-pairs
 FoFCou: LinMIO=F DoNuc=F BraDBF=F KetDBF=F HaveP=T PDBF=F HaveZ=T HaveW=F
         NIJTC =      15 NIJTAt=       0 NIJTCD=       0 NIJTT =      15
         IJTBeg=       1 IJTEnd=      15 KLTBeg=       1 KLTEnd=      15
         IPTBeg=       1 IPTEnd=      15 IPTBCv=       1 IPTECv=      15
         IZTBeg=       1 IZTEnd=      15 IZTBCv=       1 IZTECv=      15
         IWTBeg=      16 IWTEnd=      15 IWTBCv=      16 IWTECv=      15
         INTBeg=       1 INTEnd=       0 IFTBCv=       1 IFTECv=      15
 NCel replicated for PrismC:     1
 CoulSu-InSpLW:  IPartL=    0 NPrtUS=   20 NPrtUL=    1 DoSpLW=F IThBeg=    0 IThEnd=   19 NThAct=   20.
 CoulSu:  IncDef=  1024 NBBP=        5670028 NTPThr=   100 NPartT=   20 Incr=        1024 LDynOK=F GPUOK=T.
 CoulSu:  NPrtUS=  20 ThrOK=T IAlg=1 NPAlg=1 LenDen=           0 LWGrdD=           0 DoCopy=F ISkipM=0
          DoSpLW=F IThBeg=    0 IThEnd=   19.
 Enter PrismC:  IPart=  0 JobTyp=22 DoJE=F Cont=F.
 PrismC:  IPart=     0 DynPar=T LinDyn=F Incr=        1024 UseFst=F UseS4=T ISplat=2.
 PrismC was handed    33480104 working-precision words and  3367 shell-pairs
 Enter PrismC:  IPart= 15 JobTyp=22 DoJE=F Cont=F.
 PrismC:  IPart=    15 DynPar=T LinDyn=F Incr=        1024 UseFst=F UseS4=T ISplat=2.
 PrismC was handed    33480104 working-precision words and  3367 shell-pairs
 Enter PrismC:  IPart= 18 JobTyp=22 DoJE=F Cont=F.
 PrismC:  IPart=    18 DynPar=T LinDyn=F Incr=        1024 UseFst=F UseS4=T ISplat=2.
 PrismC was handed    33480104 working-precision words and  3367 shell-pairs
 Enter PrismC:  IPart=  4 JobTyp=22 DoJE=F Cont=F.
 Enter PrismC:  IPart= 14 JobTyp=22 DoJE=F Cont=F.
 PrismC:  IPart=     4 DynPar=T LinDyn=F Incr=        1024 UseFst=F UseS4=T ISplat=2.
 PrismC was handed    33480104 working-precision words and  3367 shell-pairs
 Enter PrismC:  IPart=  7 JobTyp=22 DoJE=F Cont=F.
 PrismC:  IPart=    14 DynPar=T LinDyn=F Incr=        1024 UseFst=F UseS4=T ISplat=2.
 PrismC was handed    33480104 working-precision words and  3367 shell-pairs
 PrismC:  IPart=     7 DynPar=T LinDyn=F Incr=        1024 UseFst=F UseS4=T ISplat=2.
 PrismC was handed    33480104 working-precision words and  3367 shell-pairs
 Enter PrismC:  IPart=  3 JobTyp=22 DoJE=F Cont=F.
 PrismC:  IPart=     3 DynPar=T LinDyn=F Incr=        1024 UseFst=F UseS4=T ISplat=2.
 PrismC was handed    33480104 working-precision words and  3367 shell-pairs
 Enter PrismC:  IPart= 19 JobTyp=22 DoJE=F Cont=F.
 Enter PrismC:  IPart= 10 JobTyp=22 DoJE=F Cont=F.
 PrismC:  IPart=    19 DynPar=T LinDyn=F Incr=        1024 UseFst=F UseS4=T ISplat=2.
 PrismC was handed    33480104 working-precision words and  3367 shell-pairs
 Enter PrismC:  IPart=  6 JobTyp=22 DoJE=F Cont=F.
 Enter PrismC:  IPart= 16 JobTyp=22 DoJE=F Cont=F.
 PrismC:  IPart=    10 DynPar=T LinDyn=F Incr=        1024 UseFst=F UseS4=T ISplat=2.
 Enter PrismC:  IPart= 17 JobTyp=22 DoJE=F Cont=F.
 Enter PrismC:  IPart= 11 JobTyp=22 DoJE=F Cont=F.
 PrismC:  IPart=    16 DynPar=T LinDyn=F Incr=        1024 UseFst=F UseS4=T ISplat=2.
 PrismC:  IPart=     6 DynPar=T LinDyn=F Incr=        1024 UseFst=F UseS4=T ISplat=2.
 Enter PrismC:  IPart=  9 JobTyp=22 DoJE=F Cont=F.
 PrismC was handed    33480104 working-precision words and  3367 shell-pairs
 PrismC was handed    33480104 working-precision words and  3367 shell-pairs
 Enter PrismC:  IPart= 13 JobTyp=22 DoJE=F Cont=F.
 Enter PrismC:  IPart=  1 JobTyp=22 DoJE=F Cont=F.
 PrismC:  IPart=    11 DynPar=T LinDyn=F Incr=        1024 UseFst=F UseS4=T ISplat=2.
 PrismC:  IPart=    13 DynPar=T LinDyn=F Incr=        1024 UseFst=F UseS4=T ISplat=2.
 PrismC:  IPart=     1 DynPar=T LinDyn=F Incr=        1024 UseFst=F UseS4=T ISplat=2.
 Enter PrismC:  IPart=  5 JobTyp=22 DoJE=F Cont=F.
 PrismC:  IPart=     9 DynPar=T LinDyn=F Incr=        1024 UseFst=F UseS4=T ISplat=2.
 Enter PrismC:  IPart= 12 JobTyp=22 DoJE=F Cont=F.
 PrismC:  IPart=     5 DynPar=T LinDyn=F Incr=        1024 UseFst=F UseS4=T ISplat=2.
 Enter PrismC:  IPart=  8 JobTyp=22 DoJE=F Cont=F.
 PrismC:  IPart=    12 DynPar=T LinDyn=F Incr=        1024 UseFst=F UseS4=T ISplat=2.
 PrismC:  IPart=     8 DynPar=T LinDyn=F Incr=        1024 UseFst=F UseS4=T ISplat=2.
 PrismC:  IPart=    17 DynPar=T LinDyn=F Incr=        1024 UseFst=F UseS4=T ISplat=2.
 PrismC was handed    33480104 working-precision words and  3367 shell-pairs
 PrismC was handed    33480104 working-precision words and  3367 shell-pairs
 PrismC was handed    33480104 working-precision words and  3367 shell-pairs
 PrismC was handed    33480104 working-precision words and  3367 shell-pairs
 PrismC was handed    33480104 working-precision words and  3367 shell-pairs
 PrismC was handed    33480104 working-precision words and  3367 shell-pairs
 PrismC was handed    33480104 working-precision words and  3367 shell-pairs
 PrismC was handed    33480104 working-precision words and  3367 shell-pairs
 PrismC was handed    33480104 working-precision words and  3367 shell-pairs
 Enter PrismC:  IPart=  2 JobTyp=22 DoJE=F Cont=F.
 PrismC:  IPart=     2 DynPar=T LinDyn=F Incr=        1024 UseFst=F UseS4=T ISplat=2.
 PrismC was handed    33480104 working-precision words and  3367 shell-pairs
 IPart= 19 NShTot=      213095 NShNF=      213095 NShFF=           0 MinMC=       7
           NShCPU=      213095 NBCPU=        8901 AvBCPU=        23.9
           NShGPU=           0 NBGPU=           0 AvBGPU=         0.0
 IPart= 13 NShTot=      203840 NShNF=      203840 NShFF=           0 MinMC=       7
           NShCPU=      203840 NBCPU=        8583 AvBCPU=        23.7
           NShGPU=           0 NBGPU=           0 AvBGPU=         0.0
 IPart=  5 NShTot=      199545 NShNF=      199545 NShFF=           0 MinMC=       7
           NShCPU=      199545 NBCPU=        8724 AvBCPU=        22.9
           NShGPU=           0 NBGPU=           0 AvBGPU=         0.0
 IPart= 12 NShTot=      210549 NShNF=      210549 NShFF=           0 MinMC=       7
           NShCPU=      210549 NBCPU=        9051 AvBCPU=        23.3
           NShGPU=           0 NBGPU=           0 AvBGPU=         0.0
 IPart=  1 NShTot=      206189 NShNF=      206189 NShFF=           0 MinMC=       7
           NShCPU=      206189 NBCPU=        8317 AvBCPU=        24.8
           NShGPU=           0 NBGPU=           0 AvBGPU=         0.0
 IPart= 14 NShTot=      202172 NShNF=      202172 NShFF=           0 MinMC=       7
           NShCPU=      202172 NBCPU=        8800 AvBCPU=        23.0
           NShGPU=           0 NBGPU=           0 AvBGPU=         0.0
 IPart=  2 NShTot=      213912 NShNF=      213912 NShFF=           0 MinMC=       7
           NShCPU=      213912 NBCPU=        9104 AvBCPU=        23.5
           NShGPU=           0 NBGPU=           0 AvBGPU=         0.0
 IPart= 15 NShTot=      235685 NShNF=      235685 NShFF=           0 MinMC=       7
           NShCPU=      235685 NBCPU=       10460 AvBCPU=        22.5
           NShGPU=           0 NBGPU=           0 AvBGPU=         0.0
 IPart= 17 NShTot=      220475 NShNF=      220475 NShFF=           0 MinMC=       7
           NShCPU=      220475 NBCPU=        9970 AvBCPU=        22.1
           NShGPU=           0 NBGPU=           0 AvBGPU=         0.0
 IPart= 10 NShTot=      220593 NShNF=      220593 NShFF=           0 MinMC=       7
           NShCPU=      220593 NBCPU=       10001 AvBCPU=        22.1
           NShGPU=           0 NBGPU=           0 AvBGPU=         0.0
 IPart= 16 NShTot=      213144 NShNF=      213144 NShFF=           0 MinMC=       7
           NShCPU=      213144 NBCPU=        8498 AvBCPU=        25.1
           NShGPU=           0 NBGPU=           0 AvBGPU=         0.0
 IPart= 11 NShTot=      206680 NShNF=      206680 NShFF=           0 MinMC=       7
           NShCPU=      206680 NBCPU=        9592 AvBCPU=        21.5
           NShGPU=           0 NBGPU=           0 AvBGPU=         0.0
 IPart=  7 NShTot=      188984 NShNF=      188984 NShFF=           0 MinMC=       7
           NShCPU=      188984 NBCPU=        8361 AvBCPU=        22.6
           NShGPU=           0 NBGPU=           0 AvBGPU=         0.0
 IPart=  4 NShTot=      206774 NShNF=      206774 NShFF=           0 MinMC=       7
           NShCPU=      206774 NBCPU=        8942 AvBCPU=        23.1
[...]
 ! D1    D(3,1,2,4)            -61.9853         -DE/DX =    0.0                 !
 ! D2    D(3,1,2,7)            176.0819         -DE/DX =    0.0                 !
 ! D3    D(3,1,2,8)             60.3207         -DE/DX =    0.0                 !
 ! D4    D(5,1,2,4)             60.3207         -DE/DX =    0.0                 !
 ! D5    D(5,1,2,7)            -61.6121         -DE/DX =    0.0                 !
 ! D6    D(5,1,2,8)           -177.3732         -DE/DX =    0.0                 !
 ! D7    D(6,1,2,4)            176.0819         -DE/DX =    0.0                 !
 ! D8    D(6,1,2,7)             54.1491         -DE/DX =    0.0                 !
 ! D9    D(6,1,2,8)            -61.6121         -DE/DX =    0.0                 !
 ! D10   D(2,1,3,9)           -174.9906         -DE/DX =    0.0                 !
 ! D11   D(2,1,3,10)            64.9111         -DE/DX =    0.0                 !
 ! D12   D(2,1,3,11)           -55.0684         -DE/DX =    0.0                 !
 ! D13   D(5,1,3,9)             62.9418         -DE/DX =    0.0                 !
 ! D14   D(5,1,3,10)           -57.1566         -DE/DX =    0.0                 !
 ! D15   D(5,1,3,11)          -177.136          -DE/DX =    0.0                 !
 ! D16   D(6,1,3,9)            -53.1981         -DE/DX =    0.0                 !
 ! D17   D(6,1,3,10)          -173.2964         -DE/DX =    0.0                 !
 ! D18   D(6,1,3,11)            66.7241         -DE/DX =    0.0                 !
 ! D19   D(1,2,4,12)            64.9111         -DE/DX =    0.0                 !
 ! D20   D(1,2,4,13)           -55.0683         -DE/DX =    0.0                 !
 ! D21   D(1,2,4,14)          -174.9905         -DE/DX =    0.0                 !
 ! D22   D(7,2,4,12)          -173.2964         -DE/DX =    0.0                 !
 ! D23   D(7,2,4,13)            66.7242         -DE/DX =    0.0                 !
 ! D24   D(7,2,4,14)           -53.1981         -DE/DX =    0.0                 !
 ! D25   D(8,2,4,12)           -57.1565         -DE/DX =    0.0                 !
 ! D26   D(8,2,4,13)          -177.1359         -DE/DX =    0.0                 !
 ! D27   D(8,2,4,14)            62.9418         -DE/DX =    0.0                 !
 --------------------------------------------------------------------------------
 GradGradGradGradGradGradGradGradGradGradGradGradGradGradGradGradGradGrad

 Leave Link  103 at Mon Apr  8 16:52:19 2019, MaxMem=   671088640 cpu:               0.8 elap:               0.1
 (Enter /shared/centos7/gaussian/g16/l9999.exe)

 ----------------------------------------------------------------------

 Electric dipole moment (input orientation):
 (Debye = 10**-18 statcoulomb cm , SI units = C m)
                  (au)            (Debye)         (10**-30 SI)
   Tot        0.374625D-01      0.952201D-01      0.317620D+00
   x         -0.174642D-02     -0.443895D-02     -0.148067D-01
   y         -0.167532D-01     -0.425823D-01     -0.142039D+00
   z         -0.334622D-01     -0.850524D-01     -0.283704D+00

 Dipole polarizability, Alpha (input orientation).
 (esu units = cm**3 , SI units = C**2 m**2 J**-1)
 Alpha(0;0):
               (au)            (10**-24 esu)      (10**-40 SI)
   iso        0.503394D+02      0.745953D+01      0.829985D+01
   aniso      0.777357D+01      0.115192D+01      0.128169D+01
   xx         0.551754D+02      0.817615D+01      0.909720D+01
   yx         0.513641D+00      0.761138D-01      0.846880D-01
   yy         0.470430D+02      0.697105D+01      0.775634D+01
   zx        -0.562204D+00     -0.833100D-01     -0.926949D-01
   zy         0.111845D+01      0.165738D+00      0.184408D+00
   zz         0.487998D+02      0.723139D+01      0.804600D+01

 ----------------------------------------------------------------------

 Dipole orientation:
     6          1.37279775          0.47512841          1.30752420
     6         -1.37196646         -0.42268544          1.30752962
     6          2.88633377         -0.46285812         -0.95995473
     6         -2.88551040          0.51529528         -0.95994657
     1          1.40698805          2.54082785          1.35228810
     1          2.28679237         -0.16018849          3.04471460
     1         -2.28595542          0.21263553          3.04472146
     1         -1.40615651         -2.48838474          1.35229854
     1          4.86762904          0.07531497         -0.80849928
     1          2.16578425          0.31374388         -2.72566130
     1          2.79784574         -2.51938536         -1.09593166
     1         -2.16497022         -0.26131397         -2.72565358
     1         -2.79701985          2.57182194         -1.09593145
     1         -4.86680588         -0.02287399         -0.80848052

 Electric dipole moment (dipole orientation):
 (Debye = 10**-18 statcoulomb cm , SI units = C m)
                  (au)            (Debye)         (10**-30 SI)
   Tot        0.374625D-01      0.952201D-01      0.317620D+00
   x          0.000000D+00      0.000000D+00      0.000000D+00
   y          0.000000D+00      0.000000D+00      0.000000D+00
   z          0.374625D-01      0.952201D-01      0.317620D+00

 Dipole polarizability, Alpha (dipole orientation).
 (esu units = cm**3 , SI units = C**2 m**2 J**-1)
 Alpha(0;0):
               (au)            (10**-24 esu)      (10**-40 SI)
   iso        0.503394D+02      0.745953D+01      0.829985D+01
   aniso      0.777357D+01      0.115192D+01      0.128169D+01
   xx         0.552028D+02      0.818021D+01      0.910171D+01
   yx        -0.615811D+00     -0.912538D-01     -0.101534D+00
   yy         0.464850D+02      0.688836D+01      0.766434D+01
   zx         0.000000D+00      0.000000D+00      0.000000D+00
   zy         0.000000D+00      0.000000D+00      0.000000D+00
   zz         0.493304D+02      0.731002D+01      0.813349D+01

 ----------------------------------------------------------------------

 Test job not archived.
 1\1\GINC-C0055\Freq\RM062X\6-311+G(2df,2p)\C4H10\UNDERKOFFLER.C\08-Apr
 -2019\0\\#P Geom=AllCheck Guess=TCheck SCRF=Check Test GenChk RM062X/6
 -311+G(2df,2p) Freq\\Gaussian input prepared by ASE\\0,1\C,0.696132637
 5,-0.5422896526,-0.5394566543\C,-0.759898536,-0.1013808957,-0.68421377
 93\C,1.5466128306,0.4294126364,0.2730056262\C,-1.4985099364,0.00010475
 12,0.6468650704\H,0.7251373397,-1.5307333994,-0.0726163865\H,1.1326856
 864,-0.6580352387,-1.5334698266\H,-1.2821582615,-0.8078406477,-1.33243
 99291\H,-0.7911117891,0.865875074,-1.1933735959\H,2.5932653446,0.12732
 01245,0.2798975851\H,1.2138357634,0.4839120631,1.309160211\H,1.4912115
 769,1.4354170923,-0.1472108248\H,-1.0786212448,0.7813084984,1.27990621
 94\H,-1.436398316,-0.941540404,1.1956298192\H,-2.5526353224,0.23050988
 17,0.4967917807\\Version=EM64L-G16RevA.03\State=1-A\HF=-158.4129963\RM
 SD=1.520e-09\RMSF=2.343e-07\ZeroPoint=0.1328763\Thermal=0.1385576\Dipo
 le=-0.0017464,-0.0167532,-0.0334622\DipoleDeriv=0.0936858,0.0178576,0.
 0053979,0.0307676,0.1143542,-0.0032343,0.0257165,-0.0041496,0.0957969,
 0.0891125,0.0062405,-0.0166839,-0.0023778,0.1058337,-0.0094928,-0.0391
 511,-0.0083536,0.1088906,0.0026114,-0.024967,-0.0338047,-0.0157487,0.0
 549067,-0.0373478,-0.0318466,-0.039686,0.0463876,0.009872,0.0141786,0.
 0399786,0.0179106,0.085137,-0.0192187,0.0315368,-0.0162045,0.0088966,0
 .0067225,-0.0228055,-0.013458,0.0012197,-0.1436831,0.054184,-0.0338198
 ,0.0863615,0.0112334,-0.0428316,0.0119206,0.072586,-0.0020845,0.043011
 8,-0.0289457,0.0711586,-0.055118,-0.1368113,-0.0559529,-0.0569814,-0.0
 582342,-0.0663632,-0.027068,-0.1036672,-0.0450979,-0.0787155,-0.053610
 3,0.0117965,-0.0014826,0.0281967,0.0317753,-0.112955,0.1065919,0.01987
 91,0.0774039,-0.0245686,-0.1603326,0.0228007,-0.0261939,0.0514182,0.04
 20198,-0.0101551,-0.0062812,-0.0123147,0.0618229,0.0502307,-0.0052987,
 0.0738101,-0.0196683,0.0343952,-0.0095848,0.0372962,-0.031442,-0.11952
 39,0.055191,0.0282333,-0.0265985,-0.0208567,-0.1242651,0.0413019,-0.01
 4201,0.0785292,0.0150776,0.0407077,-0.071426,-0.0506488,-0.052635,-0.0
 398218,-0.0847135,-0.0163486,-0.0626255,-0.0357839,0.0580936,0.0372112
 ,-0.0085703,0.0011654,-0.0940052,0.102669,0.0216566,0.0609986,-0.01808
 48,-0.1589066,0.0445186,0.0142229,0.0454774,0.0621398,0.0016131,-0.020
 4976,0.0053162,0.040277\Polar=55.1754187,0.5136413,47.0429549,-0.56220
 38,1.1184525,48.7998238\Quadrupole=-0.0674156,0.1274838,-0.0600682,-0.
 044564,0.0195726,-0.1215245\PG=C01 [X(C4H10)]\NImag=0\\0.47603363,-0.0
 0569818,0.54914876,-0.03913647,-0.02887782,0.57458765,-0.18122907,0.03
 345226,-0.01190940,0.48360676,0.03388769,-0.09136141,0.00488722,0.0327
 8876,0.59062106,-0.01137368,0.00168303,-0.08232725,0.03213856,0.000262
 14,0.52554219,-0.11324547,-0.04053914,-0.03401523,-0.02300573,-0.02254
 399,-0.01938289,0.55078839,-0.04265984,-0.13114624,-0.04266187,0.00246
 602,0.00734947,0.00581534,-0.03816154,0.53056588,-0.03244357,-0.042108
 57,-0.11526257,-0.00543135,-0.00115252,-0.00151146,-0.02717553,-0.0314
 9426,0.54821103,-0.01989676,0.00285673,0.03154375,-0.10462072,0.003647
 61,0.04748939,0.00005880,0.00043298,0.00023574,0.55819142,0.00602858,-
 0.00091802,-0.00885313,0.00117482,-0.08047466,-0.00622775,0.00020382,-
 0.00000016,0.00160821,-0.00048383,0.57215569,0.00348265,-0.00041450,0.
 00364706,0.04821748,-0.00702076,-0.17455883,-0.00033821,0.00049313,0.0
 0160824,0.04247226,-0.00222364,0.49921819,-0.04685848,0.00504052,-0.00
 086177,-0.00333088,0.03064732,-0.01461865,-0.00025624,-0.01814972,0.00
 812444,0.00194361,0.00036106,-0.00129745,0.05436473,0.00530667,-0.2551
 3976,0.10014469,0.00116772,-0.00957762,0.00507111,-0.00048162,-0.02009
 275,0.00844214,-0.00081476,0.00028656,0.00000250,-0.00513636,0.2796404
 3,-0.00099410,0.10134950,-0.09795393,-0.00048874,0.00344860,-0.0024548
 4,-0.00011130,-0.01873185,0.00786612,0.00010274,-0.00129531,0.00070162
 ,0.00498560,-0.10928607,0.10394984,-0.08768853,0.01056675,0.09531385,-
 0.01437462,0.00221096,0.03026526,0.00671720,-0.00245141,-0.01993262,-0
 .00600646,0.00214796,-0.00283947,-0.00019633,-0.00051812,-0.00104384,0
 .10058254,0.00988289,-0.05207514,-0.02085579,0.00497045,-0.00183171,-0
 .00975011,0.00787377,-0.00267236,-0.02162299,0.00158817,-0.00000136,0.
 00108810,-0.01217329,0.00319090,0.02691843,-0.00982156,0.05350715,0.09
 575527,-0.02159777,-0.26500566,-0.00264213,0.00080472,0.00410175,0.005
 51904,-0.00204653,-0.01687568,-0.00037311,0.00028077,0.00105122,0.0054
 3170,-0.00080646,-0.01321003,-0.10159568,0.02626789,0.28791351,-0.0168
 4423,-0.02220287,-0.01856401,-0.10569509,-0.08145557,-0.07380098,-0.00
 583105,0.00388480,0.00057428,0.00742507,0.01247050,0.01168107,0.001248
 07,0.00034972,-0.00017240,0.00097595,-0.00053366,0.00065508,0.11964528
 ,0.00660940,0.00696187,0.00717975,-0.08227736,-0.16183308,-0.09918814,
 0.00151375,-0.00019666,0.00016719,-0.00008194,-0.00099067,-0.00090713,
 -0.00068136,0.00057322,0.00005440,-0.00086852,0.00030092,0.00008345,0.
 08777716,0.17173465,-0.00146338,-0.00172738,-0.00222223,-0.07348858,-0
 .09852474,-0.13724118,-0.00042473,0.00082156,0.00107110,-0.01265548,-0
 .02059982,-0.01926524,-0.00001231,-0.00000702,-0.00021373,0.00001992,0
 .00040647,0.00057686,0.07745371,0.10997136,0.15062330,-0.00337416,0.03
 014871,-0.01551596,-0.04715094,0.00378520,-0.00372902,0.00204552,0.001
 27030,0.00027727,-0.00016109,-0.01505271,0.00832137,-0.00615452,0.0019
 9203,-0.00093162,0.00126600,-0.00048058,0.00045774,-0.00002700,-0.0139
 2001,0.00769048,0.05394099,0.00116493,-0.01040388,0.00436668,0.0041498
 0,-0.25136488,0.10423123,-0.00065680,0.00114562,-0.00059697,-0.0002116
 8,0.00345142,-0.00198472,0.00219876,0.00085966,-0.00051355,0.00026663,
 0.00005157,-0.00038687,0.00050484,-0.01933587,0.00933762,-0.00754205,0
 .27248055,-0.00037552,0.00293805,-0.00158529,-0.00391248,0.10305934,-0
 .10143637,0.00043059,0.00053889,-0.00025934,0.00028105,0.02688588,-0.0
 1577321,-0.00044787,0.00016590,0.00085392,-0.00027249,-0.00035548,0.00
 028999,0.00110877,-0.01702619,0.00914741,0.00112381,-0.11453813,0.1115
 3350,-0.01576015,0.00589522,0.00069981,-0.00030275,-0.00362870,-0.0021
 3201,-0.29482702,0.07449668,0.00066749,0.00038441,0.00009820,-0.000317
 42,0.00019528,-0.00029398,0.00044637,0.00086345,0.00027058,-0.00031668
 ,-0.00120856,0.00033472,-0.00005683,0.00024015,0.00002462,0.00005692,0
 .32020715,-0.02271118,0.00688529,0.00044337,-0.00146152,-0.00318794,-0
 .00238335,0.07536627,-0.06953862,0.00062229,0.00011705,-0.00008129,-0.
 00037935,0.00045902,0.00055841,0.00083793,0.00076576,0.00092483,0.0004
 8100,-0.00119311,0.00047419,-0.00034200,-0.00015429,0.00021572,-0.0002
 8143,-0.08020428,0.07288962,-0.01833551,0.00653820,-0.00103345,-0.0013
 6469,-0.00348247,-0.00215938,0.00145014,0.00039998,-0.04642737,0.00034
 382,-0.00051349,-0.00036092,0.00065237,0.00006159,0.00044688,0.0002185
 3,0.00082073,0.00038763,-0.00132689,0.00004216,0.00002281,0.00038022,-
 0.00019601,0.00010863,0.00088914,0.00196788,0.04810745,0.00689240,0.00
 004024,-0.01878159,0.00097432,0.00058488,-0.00017971,-0.07370215,0.003
 61819,0.08087078,-0.00083747,0.00038062,0.00026979,0.00073916,0.000663
 14,0.00077191,-0.00181309,-0.00257611,-0.00249261,0.00011409,-0.000011
 53,0.00032232,-0.00010613,-0.00001508,-0.00001107,-0.00930873,0.000109
 91,0.03022307,0.07957217,0.00801088,-0.00162854,-0.02225224,0.00046010
 ,0.00030669,0.00067530,0.00369923,-0.04786495,-0.00891695,0.00000707,0
 .00053639,0.00014845,0.00090582,0.00068994,0.00039511,-0.00320725,-0.0
 0241313,-0.00269744,0.00011434,-0.00000438,0.00005245,-0.00007992,0.00
 002273,0.00002317,0.00275550,-0.00130964,-0.00960135,-0.00229732,0.049
 70099,0.00511075,-0.00081923,-0.01628267,0.00086030,-0.00010606,-0.000
 32545,0.07976161,-0.00940420,-0.28876118,0.00044924,-0.00081269,-0.000
 31365,-0.00005525,-0.00012707,0.00093374,-0.00241668,-0.00253485,-0.00
 025524,-0.00017197,0.00001860,0.00019400,-0.00005447,-0.00004688,0.000
 01956,0.00017489,0.00007940,0.00097162,-0.08785891,0.01321098,0.314124
 12,-0.00022586,-0.01794543,0.00775917,0.00134360,-0.00118932,0.0011746
 3,-0.04813273,0.01485334,-0.00532038,-0.00007191,0.00006939,-0.0000154
 0,-0.00176099,-0.00277577,-0.00239097,0.00040862,0.00082983,0.00011821
 ,0.00025989,0.00026746,-0.00003774,-0.00008920,0.00050653,-0.00040011,
 -0.00053305,0.02885360,-0.01321017,-0.00022548,-0.01047740,0.00385124,
 0.04884328,0.00049895,-0.02105593,0.00845942,0.00129122,0.00105827,0.0
 0061666,0.01459330,-0.26804611,0.09620943,-0.00032271,0.00009297,0.000
 01896,-0.00240521,-0.00146433,-0.00328284,0.00043559,0.00041671,-0.000
 24515,0.00020270,0.00041709,-0.00020512,-0.00098463,0.00053749,-0.0002
 8442,0.00042552,-0.00797288,0.00324694,-0.00032967,0.00217165,-0.00062
 326,-0.01325166,0.29400687,0.00069923,-0.01789123,0.00771317,0.0008485
 4,-0.00010726,0.00094746,-0.00534812,0.09655145,-0.08918254,0.00007111
 ,0.00013377,0.00006248,-0.00259922,-0.00280100,-0.00125225,0.00080292,
 0.00038108,0.00067529,0.00031175,0.00000977,-0.00005189,0.00012156,0.0
 0049170,-0.00007438,-0.00005821,-0.00142682,-0.00071284,-0.00318482,0.
 02873034,-0.01147237,0.00837453,-0.10397191,0.09357033,0.00086631,0.00
 045417,-0.00042808,0.00743604,0.01296612,0.00912979,-0.00090946,0.0000
 6040,-0.00043826,-0.08883450,-0.07666254,-0.06093010,-0.00009574,0.000
 00772,0.00002588,0.00009795,-0.00025457,-0.00018023,-0.00117437,0.0005
 8516,0.00332120,0.00061681,-0.00018275,-0.00097316,0.00013809,-0.00000
 695,0.00006498,-0.00247018,0.00021047,0.00036912,0.00003478,-0.0002146
 7,-0.00000347,0.09599854,-0.00051608,-0.00037195,-0.00055831,0.0004114
 6,-0.00056377,-0.00003887,-0.00038552,0.00032413,-0.00093213,-0.075768
 74,-0.18770842,-0.11029290,-0.00000206,0.00003204,-0.00004056,0.000212
 48,0.00009082,0.00007841,0.00016209,0.00145444,0.00022706,0.00057913,0
 .00070177,-0.00011381,-0.00007813,0.00004931,0.00050809,0.00000377,0.0
 0019358,0.00073601,0.00006705,-0.00023160,0.00007731,0.08433506,0.2001
 1337,-0.00091984,0.00016591,0.00046119,-0.01246746,-0.02171116,-0.0178
 9104,-0.00020743,-0.00001375,-0.00002940,-0.06030901,-0.10975477,-0.13
 378550,0.00010665,0.00002559,-0.00000014,0.00001721,0.00014320,0.00011
 494,0.00377307,0.00000945,-0.00476153,-0.00064895,0.00046080,0.0010442
 8,-0.00007875,0.00022886,0.00033085,-0.00011470,0.00005521,0.00079022,
 0.00018544,0.00011888,-0.00017436,0.06516524,0.12165949,0.14728545,0.0
 0117015,-0.00163298,0.00023875,-0.00021683,-0.01466438,0.00839873,-0.0
 0006426,0.00005216,-0.00002516,-0.04846828,0.01426341,-0.00919423,-0.0
 0004435,0.00057084,-0.00012092,0.00021509,0.00015925,-0.00020217,0.000
 28205,0.00039560,-0.00069033,-0.00114924,0.00028737,0.00336683,-0.0000
 1384,0.00004708,-0.00007169,0.00002459,-0.00011498,-0.00017523,0.00016
 034,0.00013399,-0.00005456,0.00019166,-0.01159889,0.00744444,0.0485691
 7,0.00004486,0.00080871,-0.00035912,-0.00023171,0.00258103,-0.00106269
 ,-0.00024097,0.00000821,0.00008631,0.01415914,-0.24700016,0.11239448,-
 0.00066953,0.00004920,0.00018635,-0.00014064,0.00020851,-0.00012560,-0
 .00033410,0.00051559,0.00051610,0.00071460,0.00155023,-0.00071901,-0.0
 0005702,0.00003417,-0.00000057,-0.00013534,-0.00027889,0.00005236,0.00
 010797,0.00006258,-0.00014901,0.00251142,-0.01972134,0.01160939,-0.015
 99789,0.26655537,-0.00151711,0.00058183,0.00137049,-0.00100166,0.02700
 373,-0.01593282,0.00023140,-0.00006427,0.00013960,-0.00898411,0.112033
 46,-0.10989288,0.00072498,-0.00073233,0.00036905,-0.00036909,-0.000359
 51,0.00020150,-0.00081233,-0.00016879,0.00070297,0.00317566,-0.0011592
 2,-0.00487856,0.00005356,0.00005861,0.00003622,0.00016491,0.00007816,-
 0.00011688,-0.00010165,-0.00010221,-0.00010873,0.00233547,-0.01647822,
 0.01000347,0.00647150,-0.12444640,0.12129588,0.00016023,-0.00043600,0.
 00365720,-0.01343409,0.00296340,-0.00337944,0.00036421,0.00028763,0.00
 001687,-0.29910614,0.05500070,-0.03951233,0.00020667,-0.00003723,-0.00
 007862,-0.00104777,0.00026482,-0.00013444,0.00082990,0.00035745,0.0000
 2176,0.00010282,-0.00049513,0.00002471,-0.00007441,0.00001264,0.000086
 68,0.00014650,0.00001346,0.00015537,-0.00001129,-0.00007272,0.00001876
 ,-0.01189594,0.00257840,-0.00194592,-0.00065626,0.00026920,-0.00037153
 ,0.32441558,0.00015042,0.00029623,-0.00106285,0.00163798,-0.00172146,0
 .00029612,-0.00024057,0.00016453,-0.00031118,0.05487491,-0.05934829,0.
 00907738,-0.00039498,0.00039408,-0.00004015,0.00040136,0.00030230,-0.0
 0009042,0.00025314,-0.00007132,0.00007346,-0.00027580,0.00008787,-0.00
 029276,-0.00003893,0.00005883,0.00020831,-0.00003571,-0.00012244,0.000
 37688,0.00008442,0.00000722,-0.00002819,-0.02380904,0.00563762,-0.0029
 9710,0.02809943,-0.00537321,0.00375517,-0.06070662,0.05968805,0.001511
 27,0.00017998,-0.00610652,0.03064161,-0.00736077,0.00524724,-0.0003893
 6,-0.00020363,-0.00058654,-0.04066738,0.00933851,-0.05233859,-0.000133
 23,-0.00015358,-0.00003626,0.00183218,-0.00054719,0.00003392,-0.000709
 14,-0.00024587,0.00141735,-0.00066810,0.00053432,0.00100986,-0.0000282
 8,0.00009361,0.00028187,0.00000062,0.00009880,0.00049419,0.00001321,0.
 00004462,0.00006063,-0.01745839,0.00516843,-0.00338844,-0.01538595,0.0
 0201743,-0.00318930,0.04144093,-0.00896466,0.05710060\\-0.00000010,-0.
 00000017,0.00000012,0.00000010,0.00000020,-0.00000008,0.00000005,-0.00
 000030,0.00000010,-0.00000004,0.00000034,-0.00000016,-0.00000034,-0.00
 000018,0.00000011,0.00000003,-0.00000027,0.00000010,-0.00000002,0.0000
 0025,-0.00000015,0.00000034,0.00000017,-0.00000009,-0.00000002,-0.0000
 0057,0.00000029,-0.00000009,-0.00000026,0.00000017,0.00000033,-0.00000
 034,0.00000013,0.00000004,0.00000025,-0.00000011,-0.00000033,0.0000003
 2,-0.00000015,0.00000004,0.00000057,-0.00000028\\\@


 The impersonal hand of government can
 never replace the helping hand of a neighbor.
                        -- Hubert H. Humphrey
 Job cpu time:       0 days  1 hours 24 minutes 23.3 seconds.
 Elapsed time:       0 days  0 hours  4 minutes 13.9 seconds.
 File lengths (MBytes):  RWF=   1328 Int=      0 D2E=      0 Chk=     32 Scr=     32
 Normal termination of Gaussian 16 at Mon Apr  8 16:52:19 2019.
