 Entering Gaussian System, Link 0=g16
 Input=IJDNQMDRQITEOD-UHFFFAOYSA-N_GeoFreq_c2_a1.com
 Output=IJDNQMDRQITEOD-UHFFFAOYSA-N_GeoFreq_c2_a1.log
 Initial command:
 /shared/centos7/gaussian/g16/l1.exe "/scratch/underkoffler.c/gaussian_scratch/Gau-43172.inp" -scrdir="/scratch/underkoffler.c/gaussian_scratch/"
 Entering Link 1 = /shared/centos7/gaussian/g16/l1.exe PID=     43173.
  
 Copyright (c) 1988,1990,1992,1993,1995,1998,2003,2009,2016,
            Gaussian, Inc.  All Rights Reserved.
  
 This is part of the Gaussian(R) 16 program.  It is based on
 the Gaussian(R) 09 system (copyright 2009, Gaussian, Inc.),
 the Gaussian(R) 03 system (copyright 2003, Gaussian, Inc.),
 the Gaussian(R) 98 system (copyright 1998, Gaussian, Inc.),
 the Gaussian(R) 94 system (copyright 1995, Gaussian, Inc.),
 the Gaussian 92(TM) system (copyright 1992, Gaussian, Inc.),
 the Gaussian 90(TM) system (copyright 1990, Gaussian, Inc.),
 the Gaussian 88(TM) system (copyright 1988, Gaussian, Inc.),
 the Gaussian 86(TM) system (copyright 1986, Carnegie Mellon
 University), and the Gaussian 82(TM) system (copyright 1983,
 Carnegie Mellon University). Gaussian is a federally registered
 trademark of Gaussian, Inc.
  
 This software contains proprietary and confidential information,
 including trade secrets, belonging to Gaussian, Inc.
  
 This software is provided under written license and may be
 used, copied, transmitted, or stored only in accord with that
 written license.
  
 The following legend is applicable only to US Government
 contracts under FAR:
  
                    RESTRICTED RIGHTS LEGEND
  
 Use, reproduction and disclosure by the US Government is
 subject to restrictions as set forth in subparagraphs (a)
 and (c) of the Commercial Computer Software - Restricted
 Rights clause in FAR 52.227-19.
  
 Gaussian, Inc.
 340 Quinnipiac St., Bldg. 40, Wallingford CT 06492
  
  
 ---------------------------------------------------------------
 Warning -- This program may not be used in any manner that
 competes with the business of Gaussian, Inc. or will provide
 assistance to any competitor of Gaussian, Inc.  The licensee
 of this program is prohibited from giving any competitor of
 Gaussian, Inc. access to this program.  By using this program,
 the user acknowledges that Gaussian, Inc. is engaged in the
 business of creating and licensing software in the field of
 computational chemistry and represents and warrants to the
 licensee that it is not a competitor of Gaussian, Inc. and that
 it will not use this program in any manner prohibited above.
 ---------------------------------------------------------------
  

 Cite this work as:
 Gaussian 16, Revision A.03,
 M. J. Frisch, G. W. Trucks, H. B. Schlegel, G. E. Scuseria, 
 M. A. Robb, J. R. Cheeseman, G. Scalmani, V. Barone, 
 G. A. Petersson, H. Nakatsuji, X. Li, M. Caricato, A. V. Marenich, 
 J. Bloino, B. G. Janesko, R. Gomperts, B. Mennucci, H. P. Hratchian, 
 J. V. Ortiz, A. F. Izmaylov, J. L. Sonnenberg, D. Williams-Young, 
 F. Ding, F. Lipparini, F. Egidi, J. Goings, B. Peng, A. Petrone, 
 T. Henderson, D. Ranasinghe, V. G. Zakrzewski, J. Gao, N. Rega, 
 G. Zheng, W. Liang, M. Hada, M. Ehara, K. Toyota, R. Fukuda, 
 J. Hasegawa, M. Ishida, T. Nakajima, Y. Honda, O. Kitao, H. Nakai, 
 T. Vreven, K. Throssell, J. A. Montgomery, Jr., J. E. Peralta, 
 F. Ogliaro, M. J. Bearpark, J. J. Heyd, E. N. Brothers, K. N. Kudin, 
 V. N. Staroverov, T. A. Keith, R. Kobayashi, J. Normand, 
 K. Raghavachari, A. P. Rendell, J. C. Burant, S. S. Iyengar, 
 J. Tomasi, M. Cossi, J. M. Millam, M. Klene, C. Adamo, R. Cammi, 
 J. W. Ochterski, R. L. Martin, K. Morokuma, O. Farkas, 
 J. B. Foresman, and D. J. Fox, Gaussian, Inc., Wallingford CT, 2016.
 
 ******************************************
 Gaussian 16:  EM64L-G16RevA.03 25-Dec-2016
                 8-Apr-2019 
 ******************************************
 %nprocshared=20
 Will use up to   20 processors via shared memory.
 %mem=5GB
 ----------------------------------------------------------------------
 #p m062x/6-311+g(2df,2p) opt=(calcfc,verytight,gdiis,maxcycles=900) fr
 eq iop(7/33=1,2/16=3)
 ----------------------------------------------------------------------

 Warning!  Use of Opt=GDIIS is deprecated since it is seldom a good choice.

 1/6=900,7=1,10=4,18=20,19=11,26=3,38=1/1,3;
 2/9=110,12=2,16=3,17=6,18=5,40=1/2;
 3/5=4,6=6,7=214,11=2,25=1,30=1,71=2,74=-55,140=1/1,2,3;
 4//1;
 5/5=2,38=5/2;
 8/6=4,10=90,11=11/1;
 11/6=1,8=1,9=11,15=111,16=1/1,2,10;
 10/6=1,13=1/2;
 6/7=2,8=2,9=2,10=2,28=1/1;
 7/10=1,18=20,25=1,33=1/1,2,3,16;
 1/6=900,7=1,10=4,18=20,19=11,26=3/3(2);
 2/9=110,16=3/2;
 99//99;
 2/9=110,16=3/2;
 3/5=4,6=6,7=214,11=2,25=1,30=1,71=1,74=-55/1,2,3;
 4/5=5,16=3,69=1/1;
 5/5=2,38=5/2;
 7/33=1/1,2,3,16;
 1/6=900,7=1,18=20,19=11,26=3/3(-5);
 2/9=110,16=3/2;
 6/7=2,8=2,9=2,10=2,19=2,28=1/1;
 99/9=1/99;
 Leave Link    1 at Mon Apr  8 16:38:57 2019, MaxMem=   671088640 cpu:              28.8 elap:               1.5
 (Enter /shared/centos7/gaussian/g16/l101.exe)
 ------------------------------
 Gaussian input prepared by ASE
 ------------------------------
 Symbolic Z-matrix:
 Charge =  0 Multiplicity = 1
 C                     0.67754  -0.58802  -0.47239 
 C                    -0.71787  -0.07378  -0.6976 
 C                     1.55277   0.33791   0.32036 
 C                    -1.52104   0.13844   0.57015 
 H                     0.62216  -1.58369   0.03625 
 H                     1.1387   -0.77975  -1.45108 
 H                    -1.26876  -0.79316  -1.3551 
 H                    -0.67412   0.87349  -1.24848 
 H                     1.81259  -0.1002    1.31746 
 H                     1.05121   1.31941   0.50319 
 H                     2.51103   0.54556  -0.21355 
 H                    -1.24263   1.08905   1.06563 
 H                    -1.36213  -0.68687   1.29609 
 H                    -2.61398   0.17953   0.33303 
 
 ITRead=  0  0  0  0  0  0  0  0  0  0  0  0  0  0
 MicOpt= -1 -1 -1 -1 -1 -1 -1 -1 -1 -1 -1 -1 -1 -1
 NAtoms=     14 NQM=       14 NQMF=       0 NMMI=      0 NMMIF=      0
                NMic=       0 NMicF=      0.
                    Isotopes and Nuclear Properties:
 (Nuclear quadrupole moments (NQMom) in fm**2, nuclear magnetic moments (NMagM)
  in nuclear magnetons)

  Atom         1           2           3           4           5           6           7           8           9          10
 IAtWgt=          12          12          12          12           1           1           1           1           1           1
 AtmWgt=  12.0000000  12.0000000  12.0000000  12.0000000   1.0078250   1.0078250   1.0078250   1.0078250   1.0078250   1.0078250
 NucSpn=           0           0           0           0           1           1           1           1           1           1
 AtZEff=  -0.0000000  -0.0000000  -0.0000000  -0.0000000  -0.0000000  -0.0000000  -0.0000000  -0.0000000  -0.0000000  -0.0000000
 NQMom=    0.0000000   0.0000000   0.0000000   0.0000000   0.0000000   0.0000000   0.0000000   0.0000000   0.0000000   0.0000000
 NMagM=    0.0000000   0.0000000   0.0000000   0.0000000   2.7928460   2.7928460   2.7928460   2.7928460   2.7928460   2.7928460
 AtZNuc=   6.0000000   6.0000000   6.0000000   6.0000000   1.0000000   1.0000000   1.0000000   1.0000000   1.0000000   1.0000000

  Atom        11          12          13          14
 IAtWgt=           1           1           1           1
 AtmWgt=   1.0078250   1.0078250   1.0078250   1.0078250
 NucSpn=           1           1           1           1
 AtZEff=  -0.0000000  -0.0000000  -0.0000000  -0.0000000
 NQMom=    0.0000000   0.0000000   0.0000000   0.0000000
 NMagM=    2.7928460   2.7928460   2.7928460   2.7928460
 AtZNuc=   1.0000000   1.0000000   1.0000000   1.0000000
 Leave Link  101 at Mon Apr  8 16:38:57 2019, MaxMem=   671088640 cpu:               4.4 elap:               0.2
 (Enter /shared/centos7/gaussian/g16/l103.exe)

 GradGradGradGradGradGradGradGradGradGradGradGradGradGradGradGradGradGrad
 Berny optimization.
 Initialization pass.
                           ----------------------------
                           !    Initial Parameters    !
                           ! (Angstroms and Degrees)  !
 --------------------------                            --------------------------
 ! Name  Definition              Value          Derivative Info.                !
 --------------------------------------------------------------------------------
 ! R1    R(1,2)                  1.5041         calculate D2E/DX2 analytically  !
 ! R2    R(1,3)                  1.5006         calculate D2E/DX2 analytically  !
 ! R3    R(1,5)                  1.1194         calculate D2E/DX2 analytically  !
 ! R4    R(1,6)                  1.0988         calculate D2E/DX2 analytically  !
 ! R5    R(2,4)                  1.5157         calculate D2E/DX2 analytically  !
 ! R6    R(2,7)                  1.1195         calculate D2E/DX2 analytically  !
 ! R7    R(2,8)                  1.0967         calculate D2E/DX2 analytically  !
 ! R8    R(3,9)                  1.1197         calculate D2E/DX2 analytically  !
 ! R9    R(3,10)                 1.1173         calculate D2E/DX2 analytically  !
 ! R10   R(3,11)                 1.1164         calculate D2E/DX2 analytically  !
 ! R11   R(4,12)                 1.1076         calculate D2E/DX2 analytically  !
 ! R12   R(4,13)                 1.1106         calculate D2E/DX2 analytically  !
 ! R13   R(4,14)                 1.1191         calculate D2E/DX2 analytically  !
 ! A1    A(2,1,3)              114.1575         calculate D2E/DX2 analytically  !
 ! A2    A(2,1,5)              109.04           calculate D2E/DX2 analytically  !
 ! A3    A(2,1,6)              108.4018         calculate D2E/DX2 analytically  !
 ! A4    A(3,1,5)              109.7323         calculate D2E/DX2 analytically  !
 ! A5    A(3,1,6)              109.4773         calculate D2E/DX2 analytically  !
 ! A6    A(5,1,6)              105.6802         calculate D2E/DX2 analytically  !
 ! A7    A(1,2,4)              114.4716         calculate D2E/DX2 analytically  !
 ! A8    A(1,2,7)              108.9515         calculate D2E/DX2 analytically  !
 ! A9    A(1,2,8)              109.4821         calculate D2E/DX2 analytically  !
 ! A10   A(4,2,7)              108.6903         calculate D2E/DX2 analytically  !
 ! A11   A(4,2,8)              108.6838         calculate D2E/DX2 analytically  !
 ! A12   A(7,2,8)              106.2402         calculate D2E/DX2 analytically  !
 ! A13   A(1,3,9)              111.3685         calculate D2E/DX2 analytically  !
 ! A14   A(1,3,10)             111.51           calculate D2E/DX2 analytically  !
 ! A15   A(1,3,11)             111.2682         calculate D2E/DX2 analytically  !
 ! A16   A(9,3,10)             107.5884         calculate D2E/DX2 analytically  !
 ! A17   A(9,3,11)             107.4263         calculate D2E/DX2 analytically  !
 ! A18   A(10,3,11)            107.4682         calculate D2E/DX2 analytically  !
 ! A19   A(2,4,12)             111.1714         calculate D2E/DX2 analytically  !
 ! A20   A(2,4,13)             111.5223         calculate D2E/DX2 analytically  !
 ! A21   A(2,4,14)             110.2078         calculate D2E/DX2 analytically  !
 ! A22   A(12,4,13)            108.0255         calculate D2E/DX2 analytically  !
 ! A23   A(12,4,14)            107.9847         calculate D2E/DX2 analytically  !
 ! A24   A(13,4,14)            107.7896         calculate D2E/DX2 analytically  !
 ! D1    D(3,1,2,4)            -62.0899         calculate D2E/DX2 analytically  !
 ! D2    D(3,1,2,7)            176.0031         calculate D2E/DX2 analytically  !
 ! D3    D(3,1,2,8)             60.2097         calculate D2E/DX2 analytically  !
 ! D4    D(5,1,2,4)             61.0194         calculate D2E/DX2 analytically  !
 ! D5    D(5,1,2,7)            -60.8876         calculate D2E/DX2 analytically  !
 ! D6    D(5,1,2,8)           -176.6809         calculate D2E/DX2 analytically  !
 ! D7    D(6,1,2,4)            175.6101         calculate D2E/DX2 analytically  !
 ! D8    D(6,1,2,7)             53.7031         calculate D2E/DX2 analytically  !
 ! D9    D(6,1,2,8)            -62.0903         calculate D2E/DX2 analytically  !
 ! D10   D(2,1,3,9)            113.0935         calculate D2E/DX2 analytically  !
 ! D11   D(2,1,3,10)            -7.1035         calculate D2E/DX2 analytically  !
 ! D12   D(2,1,3,11)          -127.0793         calculate D2E/DX2 analytically  !
 ! D13   D(5,1,3,9)             -9.6395         calculate D2E/DX2 analytically  !
 ! D14   D(5,1,3,10)          -129.8365         calculate D2E/DX2 analytically  !
 ! D15   D(5,1,3,11)           110.1876         calculate D2E/DX2 analytically  !
 ! D16   D(6,1,3,9)           -125.197          calculate D2E/DX2 analytically  !
 ! D17   D(6,1,3,10)           114.606          calculate D2E/DX2 analytically  !
 ! D18   D(6,1,3,11)            -5.3698         calculate D2E/DX2 analytically  !
 ! D19   D(1,2,4,12)            79.3844         calculate D2E/DX2 analytically  !
 ! D20   D(1,2,4,13)           -41.2425         calculate D2E/DX2 analytically  !
 ! D21   D(1,2,4,14)          -160.9203         calculate D2E/DX2 analytically  !
 ! D22   D(7,2,4,12)          -158.566          calculate D2E/DX2 analytically  !
 ! D23   D(7,2,4,13)            80.807          calculate D2E/DX2 analytically  !
 ! D24   D(7,2,4,14)           -38.8707         calculate D2E/DX2 analytically  !
 ! D25   D(8,2,4,12)           -43.3485         calculate D2E/DX2 analytically  !
 ! D26   D(8,2,4,13)          -163.9754         calculate D2E/DX2 analytically  !
 ! D27   D(8,2,4,14)            76.3469         calculate D2E/DX2 analytically  !
 --------------------------------------------------------------------------------
 Trust Radius=3.00D-01 FncErr=1.00D-07 GrdErr=1.00D-06 EigMax=2.50D+02 EigMin=1.00D-04
 Number of steps in this run=    100 maximum allowed number of steps=    100.
 GradGradGradGradGradGradGradGradGradGradGradGradGradGradGradGradGradGrad

 Leave Link  103 at Mon Apr  8 16:38:57 2019, MaxMem=   671088640 cpu:               0.2 elap:               0.0
 (Enter /shared/centos7/gaussian/g16/l202.exe)
                          Input orientation:                          
 ---------------------------------------------------------------------
 Center     Atomic      Atomic             Coordinates (Angstroms)
 Number     Number       Type             X           Y           Z
 ---------------------------------------------------------------------
      1          6           0        0.677536   -0.588015   -0.472395
      2          6           0       -0.717872   -0.073780   -0.697602
      3          6           0        1.552771    0.337912    0.320360
      4          6           0       -1.521038    0.138438    0.570151
      5          1           0        0.622159   -1.583694    0.036250
      6          1           0        1.138699   -0.779755   -1.451078
      7          1           0       -1.268761   -0.793162   -1.355096
      8          1           0       -0.674122    0.873489   -1.248477
      9          1           0        1.812589   -0.100198    1.317460
     10          1           0        1.051211    1.319413    0.503189
     11          1           0        2.511033    0.545557   -0.213554
     12          1           0       -1.242632    1.089054    1.065635
     13          1           0       -1.362130   -0.686866    1.296086
     14          1           0       -2.613980    0.179529    0.333031
 ---------------------------------------------------------------------
                    Distance matrix (angstroms):
                    1          2          3          4          5
     1  C    0.000000
     2  C    1.504100   0.000000
     3  C    1.500612   2.522212   0.000000
     4  C    2.539363   1.515688   3.090386   0.000000
     5  H    1.119448   2.148037   2.153910   2.800729   0.000000
     6  H    1.098753   2.124378   2.135094   3.464484   1.767846
     7  H    2.146933   1.119503   3.470954   2.153625   2.477169
     8  H    2.136651   1.096675   2.776174   2.136580   3.060820
     9  H    2.174831   3.234873   1.119667   3.424688   2.293334
    10  H    2.174782   2.551968   1.117288   2.831192   2.971556
    11  H    2.171105   3.323207   1.116444   4.127655   2.857264
    12  H    2.977438   2.176364   2.988967   1.107558   3.417698
    13  H    2.701395   2.183057   3.240194   1.110568   2.515729
    14  H    3.474465   2.172923   4.169778   1.119123   3.697246
                    6          7          8          9         10
     6  H    0.000000
     7  H    2.409410   0.000000
     8  H    2.461825   1.772763   0.000000
     9  H    2.929288   4.137327   3.703489   0.000000
    10  H    2.869376   3.646706   2.498791   1.805001   0.000000
    11  H    2.274031   4.169188   3.365088   1.802450   1.801014
    12  H    3.936627   3.066489   2.392652   3.288178   2.373000
    13  H    3.716139   2.654955   3.063146   3.228541   3.236983
    14  H    4.264489   2.367596   2.597267   4.543331   3.842123
                   11         12         13         14
    11  H    0.000000
    12  H    4.002713   0.000000
    13  H    4.335813   1.794793   0.000000
    14  H    5.167058   1.801260   1.801456   0.000000
 Stoichiometry    C4H10
 Framework group  C1[X(C4H10)]
 Deg. of freedom    36
 Full point group                 C1      NOp   1
 Largest Abelian subgroup         C1      NOp   1
 Largest concise Abelian subgroup C1      NOp   1
                         Standard orientation:                         
 ---------------------------------------------------------------------
 Center     Atomic      Atomic             Coordinates (Angstroms)
 Number     Number       Type             X           Y           Z
 ---------------------------------------------------------------------
      1          6           0       -0.699757    0.620616    0.289589
      2          6           0        0.686419    0.622353   -0.294220
      3          6           0       -1.536699   -0.556024   -0.118923
      4          6           0        1.544311   -0.555953    0.121627
      5          1           0       -0.625958    0.662606    1.405812
      6          1           0       -1.203414    1.550077   -0.009892
      7          1           0        1.205884    1.567730    0.005287
      8          1           0        0.622244    0.641217   -1.388853
      9          1           0       -1.754758   -1.223894    0.752888
     10          1           0       -1.024279   -1.172869   -0.896907
     11          1           0       -2.516387   -0.228580   -0.542526
     12          1           0        1.290888   -1.461516   -0.463536
     13          1           0        1.414004   -0.794924    1.198323
     14          1           0        2.626132   -0.325800   -0.049038
 ---------------------------------------------------------------------
 Rotational constants (GHZ):          13.3164348           4.9038924           4.1539214
 Leave Link  202 at Mon Apr  8 16:38:57 2019, MaxMem=   671088640 cpu:               0.1 elap:               0.0
 (Enter /shared/centos7/gaussian/g16/l301.exe)
 Standard basis: 6-311+G(2df,2p) (5D, 7F)
 Ernie: Thresh=  0.10000D-02 Tol=  0.10000D-05 Strict=F.
 There are   246 symmetry adapted cartesian basis functions of A   symmetry.
 There are   226 symmetry adapted basis functions of A   symmetry.
   226 basis functions,   318 primitive gaussians,   246 cartesian basis functions
    17 alpha electrons       17 beta electrons
       nuclear repulsion energy       133.0829045595 Hartrees.
 IExCor= 4336 DFT=T Ex+Corr=M062X ExCW=0 ScaHFX=  0.540000
 ScaDFX=  1.000000  1.000000  1.000000  1.000000 ScalE2=  1.000000  1.000000
 IRadAn=      5 IRanWt=     -1 IRanGd=            0 ICorTp=0 IEmpDi=  4
 NAtoms=   14 NActive=   14 NUniq=   14 SFac= 1.00D+00 NAtFMM=   60 NAOKFM=F Big=F
 Integral buffers will be    131072 words long.
 Raffenetti 2 integral format.
 Two-electron integral symmetry is turned on.
 Leave Link  301 at Mon Apr  8 16:38:57 2019, MaxMem=   671088640 cpu:               0.8 elap:               0.1
 (Enter /shared/centos7/gaussian/g16/l302.exe)
 NPDir=0 NMtPBC=     1 NCelOv=     1 NCel=       1 NClECP=     1 NCelD=      1
         NCelK=      1 NCelE2=     1 NClLst=     1 CellRange=     0.0.
 One-electron integrals computed using PRISM.
 One-electron integral symmetry used in STVInt
 NBasis=   226 RedAO= T EigKep=  5.22D-05  NBF=   226
 NBsUse=   226 1.00D-06 EigRej= -1.00D+00 NBFU=   226
 Precomputing XC quadrature grid using
 IXCGrd= 4 IRadAn=           5 IRanWt=          -1 IRanGd=           0 AccXCQ= 0.00D+00.
 Generated NRdTot=       0 NPtTot=           0 NUsed=           0 NTot=          32
 NSgBfM=   246   246   246   246   246 MxSgAt=    14 MxSgA2=    14.
 Leave Link  302 at Mon Apr  8 16:38:57 2019, MaxMem=   671088640 cpu:               5.2 elap:               0.3
 (Enter /shared/centos7/gaussian/g16/l303.exe)
 DipDrv:  MaxL=1.
 Leave Link  303 at Mon Apr  8 16:38:57 2019, MaxMem=   671088640 cpu:               0.6 elap:               0.1
 (Enter /shared/centos7/gaussian/g16/l401.exe)
 ExpMin= 4.38D-02 ExpMax= 4.56D+03 ExpMxC= 6.82D+02 IAcc=3 IRadAn=         5 AccDes= 0.00D+00
 Harris functional with IExCor= 1009 and IRadAn=       5 diagonalized for initial guess.
 HarFok:  IExCor= 1009 AccDes= 0.00D+00 IRadAn=         5 IDoV= 1 UseB2=F ITyADJ=14
 ICtDFT=  3500011 ScaDFX=  1.000000  1.000000  1.000000  1.000000
 FoFCou: FMM=F IPFlag=           0 FMFlag=      100000 FMFlg1=           0
         NFxFlg=           0 DoJE=T BraDBF=F KetDBF=T FulRan=T
         wScrn=  0.000000 ICntrl=       500 IOpCl=  0 I1Cent=   200000004 NGrid=           0
         NMat0=    1 NMatS0=      1 NMatT0=    0 NMatD0=    1 NMtDS0=    0 NMtDT0=    0
 Petite list used in FoFCou.
 Harris En= -158.422271810880    
 JPrj=0 DoOrth=F DoCkMO=F.
 Leave Link  401 at Mon Apr  8 16:38:59 2019, MaxMem=   671088640 cpu:              18.4 elap:               1.0
 (Enter /shared/centos7/gaussian/g16/l502.exe)
 Integral symmetry usage will be decided dynamically.
 Closed shell SCF:
 Using DIIS extrapolation, IDIIS=  1040.
 NGot=   671088640 LenX=   670960298 LenY=   670899341
 Requested convergence on RMS density matrix=1.00D-08 within 128 cycles.
 Requested convergence on MAX density matrix=1.00D-06.
 Requested convergence on             energy=1.00D-06.
 No special actions if energy rises.
 Fock matrices will be formed incrementally for  20 cycles.

 Cycle   1  Pass 1  IDiag  1:
 FoFJK:  IHMeth= 1 ICntrl=       0 DoSepK=F KAlg= 0 I1Cent=           0 FoldK=F
 IRaf= 990000000 NMat=       1 IRICut=       1 DoRegI=T DoRafI=F ISym2E= 0 IDoP0=0 IntGTp=1.
 FoFCou: FMM=F IPFlag=           0 FMFlag=      100000 FMFlg1=           0
         NFxFlg=           0 DoJE=F BraDBF=F KetDBF=F FulRan=T
         wScrn=  0.000000 ICntrl=         0 IOpCl=  0 I1Cent=           0 NGrid=           0
         NMat0=    1 NMatS0=      1 NMatT0=    0 NMatD0=    1 NMtDS0=    0 NMtDT0=    0
 Symmetry not used in FoFCou.
 E= -158.180673157407    
 DIIS: error= 2.87D-02 at cycle   1 NSaved=   1.
 NSaved= 1 IEnMin= 1 EnMin= -158.180673157407     IErMin= 1 ErrMin= 2.87D-02
 ErrMax= 2.87D-02  0.00D+00 EMaxC= 1.00D-01 BMatC= 2.32D-01 BMatP= 2.32D-01
 IDIUse=3 WtCom= 7.13D-01 WtEn= 2.87D-01
 Coeff-Com:  0.100D+01
 Coeff-En:   0.100D+01
 Coeff:      0.100D+01
 Gap=     0.336 Goal=   None    Shift=    0.000
 GapD=    0.336 DampG=1.000 DampE=0.500 DampFc=0.5000 IDamp=-1.
 Damping current iteration by 5.00D-01
 RMSDP=2.87D-03 MaxDP=1.06D-01              OVMax= 1.70D-01

 Cycle   2  Pass 1  IDiag  1:
 RMSU=  1.36D-03    CP:  9.46D-01
 E= -158.290976690132     Delta-E=       -0.110303532725 Rises=F Damp=T
 DIIS: error= 5.18D-03 at cycle   2 NSaved=   2.
 NSaved= 2 IEnMin= 2 EnMin= -158.290976690132     IErMin= 2 ErrMin= 5.18D-03
 ErrMax= 5.18D-03  0.00D+00 EMaxC= 1.00D-01 BMatC= 1.03D-02 BMatP= 2.32D-01
 IDIUse=3 WtCom= 9.48D-01 WtEn= 5.18D-02
 Coeff-Com: -0.506D-01 0.105D+01
 Coeff-En:   0.000D+00 0.100D+01
 Coeff:     -0.480D-01 0.105D+01
 Gap=     0.412 Goal=   None    Shift=    0.000
 RMSDP=9.76D-04 MaxDP=1.88D-02 DE=-1.10D-01 OVMax= 9.08D-02

 Cycle   3  Pass 1  IDiag  1:
 RMSU=  9.38D-04    CP:  9.66D-01  8.43D-01
 E= -158.401755856517     Delta-E=       -0.110779166385 Rises=F Damp=F
 DIIS: error= 3.08D-03 at cycle   3 NSaved=   3.
 NSaved= 3 IEnMin= 3 EnMin= -158.401755856517     IErMin= 3 ErrMin= 3.08D-03
 ErrMax= 3.08D-03  0.00D+00 EMaxC= 1.00D-01 BMatC= 1.44D-03 BMatP= 1.03D-02
 IDIUse=3 WtCom= 9.69D-01 WtEn= 3.08D-02
 Coeff-Com: -0.487D-01 0.233D+00 0.815D+00
 Coeff-En:   0.000D+00 0.000D+00 0.100D+01
 Coeff:     -0.472D-01 0.226D+00 0.821D+00
 Gap=     0.389 Goal=   None    Shift=    0.000
 RMSDP=1.39D-04 MaxDP=3.50D-03 DE=-1.11D-01 OVMax= 1.01D-02

 Cycle   4  Pass 1  IDiag  1:
 RMSU=  1.23D-04    CP:  9.63D-01  8.76D-01  9.59D-01
 E= -158.403023678458     Delta-E=       -0.001267821940 Rises=F Damp=F
 DIIS: error= 9.24D-04 at cycle   4 NSaved=   4.
 NSaved= 4 IEnMin= 4 EnMin= -158.403023678458     IErMin= 4 ErrMin= 9.24D-04
 ErrMax= 9.24D-04  0.00D+00 EMaxC= 1.00D-01 BMatC= 1.18D-04 BMatP= 1.44D-03
 IDIUse=3 WtCom= 9.91D-01 WtEn= 9.24D-03
 Coeff-Com: -0.116D-01 0.302D-01 0.256D+00 0.725D+00
 Coeff-En:   0.000D+00 0.000D+00 0.000D+00 0.100D+01
 Coeff:     -0.115D-01 0.299D-01 0.254D+00 0.728D+00
 Gap=     0.390 Goal=   None    Shift=    0.000
 RMSDP=6.87D-05 MaxDP=2.93D-03 DE=-1.27D-03 OVMax= 2.61D-03

 Cycle   5  Pass 1  IDiag  1:
 RMSU=  4.63D-05    CP:  9.65D-01  8.61D-01  1.00D+00  8.43D-01
 E= -158.403128946584     Delta-E=       -0.000105268126 Rises=F Damp=F
 DIIS: error= 1.93D-04 at cycle   5 NSaved=   5.
 NSaved= 5 IEnMin= 5 EnMin= -158.403128946584     IErMin= 5 ErrMin= 1.93D-04
 ErrMax= 1.93D-04  0.00D+00 EMaxC= 1.00D-01 BMatC= 9.57D-06 BMatP= 1.18D-04
 IDIUse=3 WtCom= 9.98D-01 WtEn= 1.93D-03
 Coeff-Com: -0.142D-02-0.154D-03 0.523D-01 0.274D+00 0.675D+00
 Coeff-En:   0.000D+00 0.000D+00 0.000D+00 0.000D+00 0.100D+01
 Coeff:     -0.142D-02-0.154D-03 0.522D-01 0.273D+00 0.676D+00
 Gap=     0.390 Goal=   None    Shift=    0.000
 RMSDP=1.40D-05 MaxDP=5.82D-04 DE=-1.05D-04 OVMax= 7.19D-04

 Cycle   6  Pass 1  IDiag  1:
 RMSU=  1.08D-05    CP:  9.65D-01  8.58D-01  1.01D+00  8.70D-01  1.07D+00
 E= -158.403137729321     Delta-E=       -0.000008782737 Rises=F Damp=F
 DIIS: error= 3.55D-05 at cycle   6 NSaved=   6.
 NSaved= 6 IEnMin= 6 EnMin= -158.403137729321     IErMin= 6 ErrMin= 3.55D-05
 ErrMax= 3.55D-05  0.00D+00 EMaxC= 1.00D-01 BMatC= 3.13D-07 BMatP= 9.57D-06
 IDIUse=1 WtCom= 1.00D+00 WtEn= 0.00D+00
 Coeff-Com:  0.959D-03-0.283D-02-0.139D-01-0.111D-01 0.123D+00 0.904D+00
 Coeff:      0.959D-03-0.283D-02-0.139D-01-0.111D-01 0.123D+00 0.904D+00
 Gap=     0.390 Goal=   None    Shift=    0.000
 RMSDP=6.70D-06 MaxDP=2.75D-04 DE=-8.78D-06 OVMax= 1.66D-04

 Cycle   7  Pass 1  IDiag  1:
 RMSU=  2.51D-06    CP:  9.65D-01  8.56D-01  1.01D+00  8.83D-01  1.16D+00
                    CP:  1.05D+00
 E= -158.403138095614     Delta-E=       -0.000000366293 Rises=F Damp=F
 DIIS: error= 8.19D-06 at cycle   7 NSaved=   7.
 NSaved= 7 IEnMin= 7 EnMin= -158.403138095614     IErMin= 7 ErrMin= 8.19D-06
 ErrMax= 8.19D-06  0.00D+00 EMaxC= 1.00D-01 BMatC= 1.25D-08 BMatP= 3.13D-07
 IDIUse=1 WtCom= 1.00D+00 WtEn= 0.00D+00
 Coeff-Com:  0.249D-03-0.586D-03-0.565D-02-0.168D-01-0.126D-01 0.179D+00
 Coeff-Com:  0.857D+00
 Coeff:      0.249D-03-0.586D-03-0.565D-02-0.168D-01-0.126D-01 0.179D+00
 Coeff:      0.857D+00
 Gap=     0.390 Goal=   None    Shift=    0.000
 RMSDP=1.09D-06 MaxDP=4.82D-05 DE=-3.66D-07 OVMax= 3.52D-05

 Cycle   8  Pass 1  IDiag  1:
 RMSU=  5.69D-07    CP:  9.65D-01  8.56D-01  1.01D+00  8.83D-01  1.17D+00
                    CP:  1.08D+00  1.02D+00
 E= -158.403138110943     Delta-E=       -0.000000015329 Rises=F Damp=F
 DIIS: error= 1.17D-06 at cycle   8 NSaved=   8.
 NSaved= 8 IEnMin= 8 EnMin= -158.403138110943     IErMin= 8 ErrMin= 1.17D-06
 ErrMax= 1.17D-06  0.00D+00 EMaxC= 1.00D-01 BMatC= 2.16D-10 BMatP= 1.25D-08
 IDIUse=1 WtCom= 1.00D+00 WtEn= 0.00D+00
 Coeff-Com: -0.254D-04 0.536D-04 0.311D-04-0.723D-03-0.313D-02-0.105D-01
 Coeff-Com:  0.678D-01 0.946D+00
 Coeff:     -0.254D-04 0.536D-04 0.311D-04-0.723D-03-0.313D-02-0.105D-01
 Coeff:      0.678D-01 0.946D+00
 Gap=     0.390 Goal=   None    Shift=    0.000
 RMSDP=1.33D-07 MaxDP=3.43D-06 DE=-1.53D-08 OVMax= 4.41D-06

 Cycle   9  Pass 1  IDiag  1:
 RMSU=  6.90D-08    CP:  9.65D-01  8.56D-01  1.01D+00  8.83D-01  1.17D+00
                    CP:  1.08D+00  1.05D+00  1.11D+00
 E= -158.403138111184     Delta-E=       -0.000000000241 Rises=F Damp=F
 DIIS: error= 2.93D-07 at cycle   9 NSaved=   9.
 NSaved= 9 IEnMin= 9 EnMin= -158.403138111184     IErMin= 9 ErrMin= 2.93D-07
 ErrMax= 2.93D-07  0.00D+00 EMaxC= 1.00D-01 BMatC= 1.57D-11 BMatP= 2.16D-10
 IDIUse=1 WtCom= 1.00D+00 WtEn= 0.00D+00
 Coeff-Com: -0.114D-04 0.262D-04 0.117D-03 0.959D-04-0.593D-03-0.632D-02
 Coeff-Com:  0.395D-03 0.247D+00 0.760D+00
 Coeff:     -0.114D-04 0.262D-04 0.117D-03 0.959D-04-0.593D-03-0.632D-02
 Coeff:      0.395D-03 0.247D+00 0.760D+00
 Gap=     0.390 Goal=   None    Shift=    0.000
 RMSDP=2.19D-08 MaxDP=8.44D-07 DE=-2.41D-10 OVMax= 1.01D-06

 Cycle  10  Pass 1  IDiag  1:
 RMSU=  1.82D-08    CP:  9.65D-01  8.56D-01  1.01D+00  8.83D-01  1.17D+00
                    CP:  1.08D+00  1.05D+00  1.12D+00  1.03D+00
 E= -158.403138111199     Delta-E=       -0.000000000015 Rises=F Damp=F
 DIIS: error= 1.08D-07 at cycle  10 NSaved=  10.
 NSaved=10 IEnMin=10 EnMin= -158.403138111199     IErMin=10 ErrMin= 1.08D-07
 ErrMax= 1.08D-07  0.00D+00 EMaxC= 1.00D-01 BMatC= 2.35D-12 BMatP= 1.57D-11
 IDIUse=1 WtCom= 1.00D+00 WtEn= 0.00D+00
 Coeff-Com: -0.130D-05 0.399D-05 0.314D-04 0.569D-04 0.171D-05-0.125D-02
 Coeff-Com: -0.492D-02 0.839D-02 0.279D+00 0.718D+00
 Coeff:     -0.130D-05 0.399D-05 0.314D-04 0.569D-04 0.171D-05-0.125D-02
 Coeff:     -0.492D-02 0.839D-02 0.279D+00 0.718D+00
 Gap=     0.390 Goal=   None    Shift=    0.000
 RMSDP=7.01D-09 MaxDP=3.19D-07 DE=-1.46D-11 OVMax= 3.23D-07

 SCF Done:  E(RM062X) =  -158.403138111     A.U. after   10 cycles
            NFock= 10  Conv=0.70D-08     -V/T= 2.0056
 KE= 1.575225859610D+02 PE=-6.321692699554D+02 EE= 1.831606413237D+02
 Leave Link  502 at Mon Apr  8 16:39:16 2019, MaxMem=   671088640 cpu:             334.5 elap:              17.0
 (Enter /shared/centos7/gaussian/g16/l801.exe)
 DoSCS=F DFT=T ScalE2(SS,OS)=  1.000000  1.000000
 Range of M.O.s used for correlation:     1   226
 NBasis=   226 NAE=    17 NBE=    17 NFC=     0 NFV=     0
 NROrb=    226 NOA=    17 NOB=    17 NVA=   209 NVB=   209

 **** Warning!!: The largest alpha MO coefficient is  0.39717916D+02

 Leave Link  801 at Mon Apr  8 16:39:16 2019, MaxMem=   671088640 cpu:               0.3 elap:               0.0
 (Enter /shared/centos7/gaussian/g16/l1101.exe)
 Using compressed storage, NAtomX=    14.
 Will process     15 centers per pass.
 Leave Link 1101 at Mon Apr  8 16:39:16 2019, MaxMem=   671088640 cpu:               5.9 elap:               0.3
 (Enter /shared/centos7/gaussian/g16/l1102.exe)
 Symmetrizing basis deriv contribution to polar:
 IMax=3 JMax=2 DiffMx= 0.00D+00
 Leave Link 1102 at Mon Apr  8 16:39:16 2019, MaxMem=   671088640 cpu:               0.4 elap:               0.0
 (Enter /shared/centos7/gaussian/g16/l1110.exe)
 Forming Gx(P) for the SCF density, NAtomX=    14.
 Integral derivatives from FoFJK, PRISM(SPDF).
 Do as many integral derivatives as possible in FoFJK.
 G2DrvN: MDV=     671087496.
 G2DrvN: will do    15 centers at a time, making    1 passes.
 Calling FoFCou, ICntrl=  3107 FMM=F I1Cent=   0 AccDes= 0.00D+00.
 FoFJK:  IHMeth= 1 ICntrl=    3107 DoSepK=F KAlg= 0 I1Cent=           0 FoldK=F
 IRaf=         0 NMat=       1 IRICut=       1 DoRegI=T DoRafI=F ISym2E= 0 IDoP0=0 IntGTp=1.
 FoFCou: FMM=F IPFlag=           0 FMFlag=      100000 FMFlg1=           0
         NFxFlg=           0 DoJE=F BraDBF=F KetDBF=F FulRan=T
         wScrn=  0.000000 ICntrl=      3107 IOpCl=  0 I1Cent=           0 NGrid=           0
         NMat0=    1 NMatS0=      1 NMatT0=    0 NMatD0=    1 NMtDS0=    0 NMtDT0=    0
 Symmetry not used in FoFCou.
 End of G2Drv F.D. properties file   721 does not exist.
 End of G2Drv F.D. properties file   722 does not exist.
 End of G2Drv F.D. properties file   788 does not exist.
 Leave Link 1110 at Mon Apr  8 16:39:55 2019, MaxMem=   671088640 cpu:             773.5 elap:              38.7
 (Enter /shared/centos7/gaussian/g16/l1002.exe)
 Minotr:  Closed shell wavefunction.
          IDoAtm=11111111111111
          Direct CPHF calculation.
          Differentiating once with respect to nuclear coordinates.
          Requested convergence is 1.0D-08 RMS, and 1.0D-07 maximum.
          Secondary convergence is 1.0D-12 RMS, and 1.0D-12 maximum.
          NewPWx=T KeepS1=F KeepF1=F KeepIn=T MapXYZ=F SortEE=F KeepMc=T.
         4243 words used for storage of precomputed grid.
 Keep R1 ints in memory in canonical form, NReq=350454815.
 FoFCou: FMM=F IPFlag=           0 FMFlag=           0 FMFlg1=           0
         NFxFlg=           0 DoJE=F BraDBF=F KetDBF=F FulRan=T
         wScrn=  0.000000 ICntrl=       600 IOpCl=  0 I1Cent=           0 NGrid=           0
         NMat0=    1 NMatS0=  25651 NMatT0=    0 NMatD0=    1 NMtDS0=    0 NMtDT0=    0
 Symmetry not used in FoFCou.
 Two-electron integral symmetry not used.
          MDV=     671088640 using IRadAn=       1.
          Solving linear equations simultaneously, MaxMat=       0.
          There are    45 degrees of freedom in the 1st order CPHF.  IDoFFX=6 NUNeed=     0.
     39 vectors produced by pass  0 Test12= 7.90D-15 2.22D-09 XBig12= 5.80D-02 4.74D-02.
 AX will form    39 AO Fock derivatives at one time.
     39 vectors produced by pass  1 Test12= 7.90D-15 2.22D-09 XBig12= 1.81D-03 6.93D-03.
     39 vectors produced by pass  2 Test12= 7.90D-15 2.22D-09 XBig12= 2.82D-05 7.38D-04.
     39 vectors produced by pass  3 Test12= 7.90D-15 2.22D-09 XBig12= 2.07D-07 6.22D-05.
     39 vectors produced by pass  4 Test12= 7.90D-15 2.22D-09 XBig12= 1.14D-09 5.30D-06.
     39 vectors produced by pass  5 Test12= 7.90D-15 2.22D-09 XBig12= 6.18D-12 3.24D-07.
     13 vectors produced by pass  6 Test12= 7.90D-15 2.22D-09 XBig12= 2.18D-14 1.91D-08.
 InvSVY:  IOpt=1 It=  1 EMax= 2.00D-15
 Solved reduced A of dimension   247 with    39 vectors.
 End of Minotr F.D. properties file   721 does not exist.
 End of Minotr F.D. properties file   722 does not exist.
 End of Minotr F.D. properties file   788 does not exist.
 Leave Link 1002 at Mon Apr  8 16:40:40 2019, MaxMem=   671088640 cpu:             897.8 elap:              44.9
 (Enter /shared/centos7/gaussian/g16/l601.exe)
 Copying SCF densities to generalized density rwf, IOpCl= 0 IROHF=0.

 **********************************************************************

            Population analysis using the SCF density.

 **********************************************************************

 Orbital symmetries:
       Occupied  (A) (A) (A) (A) (A) (A) (A) (A) (A) (A) (A) (A)
                 (A) (A) (A) (A) (A)
       Virtual   (A) (A) (A) (A) (A) (A) (A) (A) (A) (A) (A) (A)
                 (A) (A) (A) (A) (A) (A) (A) (A) (A) (A) (A) (A)
                 (A) (A) (A) (A) (A) (A) (A) (A) (A) (A) (A) (A)
                 (A) (A) (A) (A) (A) (A) (A) (A) (A) (A) (A) (A)
                 (A) (A) (A) (A) (A) (A) (A) (A) (A) (A) (A) (A)
                 (A) (A) (A) (A) (A) (A) (A) (A) (A) (A) (A) (A)
                 (A) (A) (A) (A) (A) (A) (A) (A) (A) (A) (A) (A)
                 (A) (A) (A) (A) (A) (A) (A) (A) (A) (A) (A) (A)
                 (A) (A) (A) (A) (A) (A) (A) (A) (A) (A) (A) (A)
                 (A) (A) (A) (A) (A) (A) (A) (A) (A) (A) (A) (A)
                 (A) (A) (A) (A) (A) (A) (A) (A) (A) (A) (A) (A)
                 (A) (A) (A) (A) (A) (A) (A) (A) (A) (A) (A) (A)
                 (A) (A) (A) (A) (A) (A) (A) (A) (A) (A) (A) (A)
                 (A) (A) (A) (A) (A) (A) (A) (A) (A) (A) (A) (A)
                 (A) (A) (A) (A) (A) (A) (A) (A) (A) (A) (A) (A)
                 (A) (A) (A) (A) (A) (A) (A) (A) (A) (A) (A) (A)
                 (A) (A) (A) (A) (A) (A) (A) (A) (A) (A) (A) (A)
                 (A) (A) (A) (A) (A)
 The electronic state is 1-A.
 Alpha  occ. eigenvalues --  -10.52656 -10.52489 -10.52416 -10.52406  -0.89921
 Alpha  occ. eigenvalues --   -0.81147  -0.72239  -0.63984  -0.52940  -0.52582
 Alpha  occ. eigenvalues --   -0.48034  -0.44632  -0.44076  -0.42102  -0.37826
 Alpha  occ. eigenvalues --   -0.37770  -0.37192
 Alpha virt. eigenvalues --    0.01775   0.03312   0.03486   0.03978   0.06442
 Alpha virt. eigenvalues --    0.07148   0.07364   0.07483   0.07713   0.10617
 Alpha virt. eigenvalues --    0.10706   0.11231   0.11966   0.12223   0.14277
 Alpha virt. eigenvalues --    0.16378   0.18328   0.20240   0.21293   0.22955
 Alpha virt. eigenvalues --    0.23831   0.24973   0.25910   0.27805   0.28422
 Alpha virt. eigenvalues --    0.29201   0.29279   0.31798   0.33895   0.39903
 Alpha virt. eigenvalues --    0.42344   0.43778   0.44721   0.46323   0.47013
 Alpha virt. eigenvalues --    0.48909   0.49626   0.51220   0.54025   0.56442
 Alpha virt. eigenvalues --    0.57192   0.58047   0.58424   0.59186   0.61032
 Alpha virt. eigenvalues --    0.61357   0.62745   0.63177   0.64407   0.66827
 Alpha virt. eigenvalues --    0.68450   0.68905   0.71398   0.73639   0.76255
 Alpha virt. eigenvalues --    0.81130   0.83335   0.85521   0.87495   0.90457
 Alpha virt. eigenvalues --    0.92891   0.93375   0.97863   0.99324   1.03042
 Alpha virt. eigenvalues --    1.06834   1.08938   1.11694   1.13659   1.15064
 Alpha virt. eigenvalues --    1.16730   1.17406   1.18336   1.19714   1.21639
 Alpha virt. eigenvalues --    1.22833   1.24324   1.24488   1.26821   1.30476
 Alpha virt. eigenvalues --    1.31546   1.32618   1.34574   1.36445   1.36882
 Alpha virt. eigenvalues --    1.39197   1.43127   1.43849   1.45430   1.46492
 Alpha virt. eigenvalues --    1.47686   1.49261   1.49830   1.53072   1.53989
 Alpha virt. eigenvalues --    1.54638   1.55552   1.57505   1.60705   1.61114
 Alpha virt. eigenvalues --    1.62257   1.65806   1.69021   1.71126   1.73766
 Alpha virt. eigenvalues --    2.36343   2.40589   2.45286   2.47951   2.52174
 Alpha virt. eigenvalues --    2.55224   2.60185   2.69146   2.72539   2.73848
 Alpha virt. eigenvalues --    2.76906   2.81745   2.84757   2.85888   2.88408
 Alpha virt. eigenvalues --    2.89529   2.90516   2.97240   2.99499   3.02112
 Alpha virt. eigenvalues --    3.04667   3.06007   3.07300   3.11409   3.15196
 Alpha virt. eigenvalues --    3.17152   3.18402   3.21246   3.23633   3.25990
 Alpha virt. eigenvalues --    3.29369   3.31191   3.32127   3.32742   3.35732
 Alpha virt. eigenvalues --    3.36598   3.37950   3.42624   3.46348   3.50858
 Alpha virt. eigenvalues --    3.54335   3.56146   3.59162   3.60303   3.63913
 Alpha virt. eigenvalues --    3.66644   3.72805   3.74286   3.77406   3.78534
 Alpha virt. eigenvalues --    3.79178   3.83107   3.84236   3.90590   3.91130
 Alpha virt. eigenvalues --    3.92222   3.97211   3.98552   4.00357   4.01064
 Alpha virt. eigenvalues --    4.02850   4.06163   4.08959   4.14205   4.15406
 Alpha virt. eigenvalues --    4.17802   4.18414   4.20319   4.22750   4.25802
 Alpha virt. eigenvalues --    4.27809   4.28750   4.30542   4.35863   4.37665
 Alpha virt. eigenvalues --    4.40072   4.41569   4.43532   4.46784   4.47905
 Alpha virt. eigenvalues --    4.53152   4.53968   4.58703   4.60712   4.61550
 Alpha virt. eigenvalues --    4.70030   4.74297   4.75581   4.78841   4.88963
 Alpha virt. eigenvalues --    5.16593   5.41184   5.42502   5.49467   5.51584
 Alpha virt. eigenvalues --    5.52586   5.53733   5.56848   5.64332   5.66154
 Alpha virt. eigenvalues --   24.21124  24.25752  24.39819  24.49942
          Condensed to atoms (all electrons):
               1          2          3          4          5          6
     1  C    5.351553   0.131531   0.045022  -0.026036   0.467411   0.448031
     2  C    0.131531   5.298573  -0.020844   0.109150  -0.017529  -0.039721
     3  C    0.045022  -0.020844   5.280553   0.025240  -0.069938  -0.055000
     4  C   -0.026036   0.109150   0.025240   5.218536  -0.023787   0.015587
     5  H    0.467411  -0.017529  -0.069938  -0.023787   0.532401  -0.031038
     6  H    0.448031  -0.039721  -0.055000   0.015587  -0.031038   0.539773
     7  H   -0.070993   0.464025   0.019913  -0.043231  -0.006725  -0.005368
     8  H   -0.003085   0.456949  -0.028840  -0.064502   0.004689  -0.008077
     9  H   -0.030480  -0.005156   0.419605  -0.001445  -0.016834   0.006012
    10  H   -0.062895   0.031447   0.406472  -0.015164   0.004991   0.004355
    11  H   -0.032850   0.000837   0.412714   0.004551   0.004464  -0.015462
    12  H   -0.024460  -0.012949  -0.000516   0.413960   0.000177  -0.000376
    13  H    0.017383  -0.041357  -0.014458   0.411119  -0.000548   0.000116
    14  H    0.022137  -0.055827   0.003890   0.415800   0.000066  -0.000273
               7          8          9         10         11         12
     1  C   -0.070993  -0.003085  -0.030480  -0.062895  -0.032850  -0.024460
     2  C    0.464025   0.456949  -0.005156   0.031447   0.000837  -0.012949
     3  C    0.019913  -0.028840   0.419605   0.406472   0.412714  -0.000516
     4  C   -0.043231  -0.064502  -0.001445  -0.015164   0.004551   0.413960
     5  H   -0.006725   0.004689  -0.016834   0.004991   0.004464   0.000177
     6  H   -0.005368  -0.008077   0.006012   0.004355  -0.015462  -0.000376
     7  H    0.544060  -0.029204  -0.000383   0.000187  -0.000267   0.006556
     8  H   -0.029204   0.509372  -0.000068  -0.003077   0.000798  -0.011714
     9  H   -0.000383  -0.000068   0.550620  -0.033302  -0.024464  -0.000336
    10  H    0.000187  -0.003077  -0.033302   0.564631  -0.027988  -0.000049
    11  H   -0.000267   0.000798  -0.024464  -0.027988   0.551722   0.000196
    12  H    0.006556  -0.011714  -0.000336  -0.000049   0.000196   0.552070
    13  H   -0.002230   0.005649   0.000089   0.000495  -0.000080  -0.036236
    14  H   -0.010129  -0.000477  -0.000001  -0.000058  -0.000001  -0.023263
              13         14
     1  C    0.017383   0.022137
     2  C   -0.041357  -0.055827
     3  C   -0.014458   0.003890
     4  C    0.411119   0.415800
     5  H   -0.000548   0.000066
     6  H    0.000116  -0.000273
     7  H   -0.002230  -0.010129
     8  H    0.005649  -0.000477
     9  H    0.000089  -0.000001
    10  H    0.000495  -0.000058
    11  H   -0.000080  -0.000001
    12  H   -0.036236  -0.023263
    13  H    0.547837  -0.024566
    14  H   -0.024566   0.542393
 Mulliken charges:
               1
     1  C   -0.232270
     2  C   -0.299128
     3  C   -0.423812
     4  C   -0.439779
     5  H    0.152201
     6  H    0.141443
     7  H    0.133790
     8  H    0.171586
     9  H    0.136144
    10  H    0.129958
    11  H    0.125829
    12  H    0.136940
    13  H    0.136789
    14  H    0.130309
 Sum of Mulliken charges =  -0.00000
 Mulliken charges with hydrogens summed into heavy atoms:
               1
     1  C    0.061374
     2  C    0.006248
     3  C   -0.031880
     4  C   -0.035741
 APT charges:
               1
     1  C   -0.724078
     2  C   -0.758465
     3  C   -1.093286
     4  C   -1.107210
     5  H    0.349479
     6  H    0.416001
     7  H    0.413126
     8  H    0.356414
     9  H    0.361389
    10  H    0.244612
    11  H    0.462610
    12  H    0.291913
    13  H    0.297433
    14  H    0.490060
 Sum of APT charges =  -0.00000
 APT charges with hydrogens summed into heavy atoms:
               1
     1  C    0.041402
     2  C    0.011076
     3  C   -0.024674
     4  C   -0.027804
 Electronic spatial extent (au):  <R**2>=            375.9341
 Charge=             -0.0000 electrons
 Dipole moment (field-independent basis, Debye):
    X=             -0.0108    Y=              0.1201    Z=             -0.0191  Tot=              0.1221
 Quadrupole moment (field-independent basis, Debye-Ang):
   XX=            -29.0334   YY=            -29.1629   ZZ=            -28.4997
   XY=             -0.0415   XZ=             -0.0223   YZ=             -0.0467
 Traceless Quadrupole moment (field-independent basis, Debye-Ang):
   XX=             -0.1347   YY=             -0.2642   ZZ=              0.3989
   XY=             -0.0415   XZ=             -0.0223   YZ=             -0.0467
 Octapole moment (field-independent basis, Debye-Ang**2):
  XXX=              0.3312  YYY=              1.1142  ZZZ=              0.7842  XYY=             -0.1345
  XXY=              2.2144  XXZ=             -0.5604  XZZ=             -0.2231  YZZ=             -0.6724
  YYZ=             -0.3172  XYZ=              0.9660
 Hexadecapole moment (field-independent basis, Debye-Ang**3):
 XXXX=           -327.1304 YYYY=           -132.2227 ZZZZ=            -70.3790 XXXY=             -0.2701
 XXXZ=              0.9405 YYYX=             -0.1722 YYYZ=              0.7467 ZZZX=             -0.8592
 ZZZY=             -0.8764 XXYY=            -79.3031 XXZZ=            -68.9452 YYZZ=            -33.9445
 XXYZ=             -1.3236 YYXZ=             -0.2699 ZZXY=              0.1283
 N-N= 1.330829045595D+02 E-N=-6.321692712316D+02  KE= 1.575225859610D+02
  Exact polarizability:   0.000   0.000   0.000   0.000   0.000   0.000
 Approx polarizability:  58.290   0.035  57.770  -0.131   0.057  58.705
 No NMR shielding tensors so no spin-rotation constants.
 Leave Link  601 at Mon Apr  8 16:40:40 2019, MaxMem=   671088640 cpu:               4.9 elap:               0.3
 (Enter /shared/centos7/gaussian/g16/l701.exe)
 SCFChk:  SCF convergence  7.01D-09 required  1.00D-08
 ... and contract with generalized density number  0.
 Compute integral second derivatives.
 Entering OneElI...
 Calculate overlap and kinetic energy integrals
    NBasis = 246  MinDer = 2  MaxDer = 2
 Requested accuracy = 0.1000D-12
 PrmmSu-InSpLW:  IPartL=    0 NPrtUS=   20 NPrtUL=    1 DoSpLW=F IThBeg=    0 IThEnd=   19 NThAct=   20.
 PrsmSu:  NPrtUS=  20 ThrOK=T IAlg=1 NPAlg=1 LenDen=           0 ISkipM=0 DoSpLW=F IThBeg=    0 IThEnd=   19.
 Prism:   IPart=     0 DynPar=F LinDyn=F Incr=           1.
 PRISM was handed    33468138 working-precision words and  3402 shell-pairs
 PRISM was handed    33468138 working-precision words and  3402 shell-pairs
 PRISM was handed    33468138 working-precision words and  3402 shell-pairs
 PRISM was handed    33468138 working-precision words and  3402 shell-pairs
 PRISM was handed    33468138 working-precision words and  3402 shell-pairs
 PRISM was handed    33468138 working-precision words and  3402 shell-pairs
 PRISM was handed    33468138 working-precision words and  3402 shell-pairs
 PRISM was handed    33468138 working-precision words and  3402 shell-pairs
 PRISM was handed    33468138 working-precision words and  3402 shell-pairs
 PRISM was handed    33468138 working-precision words and  3402 shell-pairs
 PRISM was handed    33468138 working-precision words and  3402 shell-pairs
 PRISM was handed    33468138 working-precision words and  3402 shell-pairs
 PRISM was handed    33468138 working-precision words and  3402 shell-pairs
 PRISM was handed    33468138 working-precision words and  3402 shell-pairs
 PRISM was handed    33468138 working-precision words and  3402 shell-pairs
 PRISM was handed    33468138 working-precision words and  3402 shell-pairs
 PRISM was handed    33468138 working-precision words and  3402 shell-pairs
 PRISM was handed    33468138 working-precision words and  3402 shell-pairs
 PRISM was handed    33468138 working-precision words and  3402 shell-pairs
 PRISM was handed    33468138 working-precision words and  3402 shell-pairs
 IPart= 19 NShTot=         152 NBatch=          28 AvBLen=         5.4
 IPart=  0 NShTot=         192 NBatch=          50 AvBLen=         3.8
 IPart= 18 NShTot=         153 NBatch=          29 AvBLen=         5.3
 IPart= 17 NShTot=         156 NBatch=          29 AvBLen=         5.4
 IPart=  5 NShTot=         180 NBatch=          41 AvBLen=         4.4
 IPart=  7 NShTot=         175 NBatch=          36 AvBLen=         4.9
 IPart=  8 NShTot=         173 NBatch=          36 AvBLen=         4.8
 IPart=  9 NShTot=         171 NBatch=          35 AvBLen=         4.9
 IPart=  1 NShTot=         191 NBatch=          49 AvBLen=         3.9
 IPart=  4 NShTot=         180 NBatch=          41 AvBLen=         4.4
 IPart= 11 NShTot=         165 NBatch=          31 AvBLen=         5.3
 IPart= 13 NShTot=         161 NBatch=          31 AvBLen=         5.2
 IPart=  3 NShTot=         184 NBatch=          44 AvBLen=         4.2
 IPart= 12 NShTot=         162 NBatch=          31 AvBLen=         5.2
 IPart= 10 NShTot=         167 NBatch=          31 AvBLen=         5.4
 IPart=  6 NShTot=         178 NBatch=          39 AvBLen=         4.6
 IPart=  2 NShTot=         186 NBatch=          46 AvBLen=         4.0
 IPart= 15 NShTot=         160 NBatch=          31 AvBLen=         5.2
 IPart= 16 NShTot=         156 NBatch=          29 AvBLen=         5.4
 IPart= 14 NShTot=         160 NBatch=          31 AvBLen=         5.2
 PrSmSu:  NxtVal=             21.
 Entering OneElI...
 Calculate potential energy integrals
    NBasis = 246  MinDer = 2  MaxDer = 2
 Requested accuracy = 0.1000D-12
 PrmmSu-InSpLW:  IPartL=    0 NPrtUS=   20 NPrtUL=    1 DoSpLW=F IThBeg=    0 IThEnd=   19 NThAct=   20.
 PrsmSu:  NPrtUS=  20 ThrOK=T IAlg=1 NPAlg=1 LenDen=           0 ISkipM=0 DoSpLW=F IThBeg=    0 IThEnd=   19.
 Prism:   IPart=     0 DynPar=F LinDyn=F Incr=          23.
 PRISM was handed    33477644 working-precision words and  3307 shell-pairs
 PRISM was handed    33477644 working-precision words and  3307 shell-pairs
 PRISM was handed    33477644 working-precision words and  3307 shell-pairs
 PRISM was handed    33477644 working-precision words and  3307 shell-pairs
 PRISM was handed    33477644 working-precision words and  3307 shell-pairs
 PRISM was handed    33477644 working-precision words and  3307 shell-pairs
 PRISM was handed    33477644 working-precision words and  3307 shell-pairs
 PRISM was handed    33477644 working-precision words and  3307 shell-pairs
 PRISM was handed    33477644 working-precision words and  3307 shell-pairs
 PRISM was handed    33477644 working-precision words and  3307 shell-pairs
 PRISM was handed    33477644 working-precision words and  3307 shell-pairs
 PRISM was handed    33477644 working-precision words and  3307 shell-pairs
 PRISM was handed    33477644 working-precision words and  3307 shell-pairs
 PRISM was handed    33477644 working-precision words and  3307 shell-pairs
 PRISM was handed    33477644 working-precision words and  3307 shell-pairs
 PRISM was handed    33477644 working-precision words and  3307 shell-pairs
 PRISM was handed    33477644 working-precision words and  3307 shell-pairs
 PRISM was handed    33477644 working-precision words and  3307 shell-pairs
 PRISM was handed    33477644 working-precision words and  3307 shell-pairs
 PRISM was handed    33477644 working-precision words and  3307 shell-pairs
 IPart= 19 NShTot=        2016 NBatch=         144 AvBLen=        14.0
 IPart= 18 NShTot=        2030 NBatch=         145 AvBLen=        14.0
 IPart= 17 NShTot=        2072 NBatch=         148 AvBLen=        14.0
 IPart=  0 NShTot=        2730 NBatch=         195 AvBLen=        14.0
 IPart= 10 NShTot=        2226 NBatch=         159 AvBLen=        14.0
 IPart=  9 NShTot=        2338 NBatch=         167 AvBLen=        14.0
 IPart= 11 NShTot=        2212 NBatch=         158 AvBLen=        14.0
 IPart= 14 NShTot=        2156 NBatch=         154 AvBLen=        14.0
 IPart= 12 NShTot=        2156 NBatch=         154 AvBLen=        14.0
 IPart=  6 NShTot=        2436 NBatch=         174 AvBLen=        14.0
 IPart=  4 NShTot=        2478 NBatch=         177 AvBLen=        14.0
 IPart=  8 NShTot=        2352 NBatch=         168 AvBLen=        14.0
 IPart= 16 NShTot=        2072 NBatch=         148 AvBLen=        14.0
 IPart=  2 NShTot=        2590 NBatch=         185 AvBLen=        14.0
 IPart=  5 NShTot=        2464 NBatch=         176 AvBLen=        14.0
 IPart=  3 NShTot=        2548 NBatch=         182 AvBLen=        14.0
 IPart= 13 NShTot=        2156 NBatch=         154 AvBLen=        14.0
 IPart=  7 NShTot=        2408 NBatch=         172 AvBLen=        14.0
 IPart= 15 NShTot=        2142 NBatch=         153 AvBLen=        14.0
 IPart=  1 NShTot=        2716 NBatch=         194 AvBLen=        14.0
 PrSmSu:  NxtVal=            461.
 Polarizability after L701:
                1             2             3 
      1  0.000000D+00
      2  0.000000D+00  0.000000D+00
      3  0.000000D+00  0.000000D+00  0.000000D+00
 Dipole Derivatives after L701:
                 1             2             3             4             5 
      1  -0.398201D+00  0.919975D+00  0.288328D+00 -0.262826D+00 -0.818054D+00
      2   0.519546D+00 -0.796925D+00 -0.113646D+00 -0.559237D+00 -0.101407D+01
      3  -0.365251D-01 -0.395418D-02 -0.977108D+00 -0.364594D-01 -0.138701D-01
                 6             7             8             9            10 
      1   0.252749D+00 -0.151765D+01 -0.776058D+00 -0.253433D+00 -0.151571D+01
      2   0.130963D+00 -0.334090D-01 -0.888428D+00  0.390622D-01  0.416706D-01
      3  -0.998501D+00  0.433900D-01  0.945887D-01 -0.873782D+00  0.125651D-01
                11            12            13            14            15 
      1   0.650472D+00 -0.260606D+00  0.141857D+00  0.137436D-01 -0.271090D+00
      2  -0.901852D+00 -0.448961D-01  0.378054D-01  0.177629D+00  0.256165D+00
      3  -0.842041D-01 -0.904070D+00  0.308300D-01 -0.118023D-01  0.728951D+00
                16            17            18            19            20 
      1   0.419093D+00 -0.422426D+00  0.162076D+00  0.412951D+00  0.422314D+00
      2  -0.302188D+00  0.685024D+00 -0.199955D+00  0.308349D+00  0.690834D+00
      3   0.109494D-01 -0.541289D-02  0.143886D+00 -0.911725D-03  0.648967D-02
                21            22            23            24            25 
      1   0.143810D+00  0.148306D+00 -0.129645D-01 -0.263645D+00  0.237301D+00
      2   0.194901D+00 -0.265082D-01  0.184402D+00 -0.262008D+00  0.102508D+00
      3   0.135594D+00  0.386926D-01  0.221063D-01  0.736536D+00 -0.461727D-01
                26            27            28            29            30 
      1   0.447896D+00 -0.588318D+00 -0.332168D-01  0.246915D+00  0.243618D+00
      2   0.420279D+00 -0.410712D+00 -0.216549D+00  0.385459D+00  0.329391D+00
      3  -0.179052D+00  0.426588D+00 -0.203839D+00  0.219856D+00  0.381595D+00
                31            32            33            34            35 
      1   0.108000D+01 -0.363202D+00  0.435332D+00 -0.155994D-01 -0.427543D+00
      2   0.733866D-01  0.120694D+00  0.317636D-01  0.159822D+00  0.628332D+00
      3   0.215665D+00 -0.824307D-01  0.187136D+00  0.755048D-01  0.167679D+00
                36            37            38            39            40 
      1  -0.257049D+00  0.497306D-01 -0.165811D+00  0.539795D+00  0.125396D+01
      2   0.336051D+00  0.276885D-01  0.202762D+00 -0.298037D+00 -0.132886D+00
      3   0.263007D+00 -0.731136D-01 -0.115048D+00  0.639805D+00 -0.305753D-01
                41            42 
      1   0.284743D+00 -0.171566D+00
      2   0.105858D+00  0.109564D-01
      3  -0.149452D-01  0.110362D+00
 Hessian after L701:
                1             2             3             4             5 
      1  0.102675D+02
      2 -0.354702D+00  0.122196D+02
      3  0.434524D+00 -0.189996D+00  0.126839D+02
      4 -0.143691D+01  0.726846D-01 -0.140850D+01  0.105493D+02
      5 -0.635199D-01 -0.480419D+01  0.495812D-02  0.360246D+00  0.119984D+02
      6 -0.141075D+01 -0.176844D-01 -0.420726D+01  0.403164D+00  0.226527D+00
      7 -0.319384D+01  0.167271D+01  0.519906D+00  0.190570D+00  0.315038D+00
      8  0.172024D+01 -0.230907D+01  0.667793D+00  0.242646D+00 -0.551506D-01
      9  0.560129D+00  0.686790D+00 -0.427370D+01  0.313663D-01  0.295791D-01
     10  0.288738D+00 -0.207153D+00  0.132097D+00 -0.325694D+01 -0.180967D+01
     11 -0.192725D+00 -0.952376D-01 -0.728541D-01 -0.182747D+01 -0.221178D+01
     12  0.298680D-01 -0.337880D-01 -0.252354D+00  0.587163D+00 -0.747059D+00
     13 -0.339378D+01  0.723288D-02  0.714351D-01  0.828761D-02 -0.312251D-01
     14  0.185024D-01 -0.334308D+01  0.245710D+00 -0.216167D-01  0.172956D-02
     15  0.151037D+00  0.218818D+00 -0.862121D+00 -0.224487D-01  0.551836D-01
     16 -0.292153D+01 -0.982448D+00  0.272847D+00  0.281672D-02 -0.104581D-02
     17 -0.951375D+00 -0.162172D+01 -0.482978D+00 -0.190341D-01  0.707398D-01
     18  0.260393D+00 -0.473309D+00 -0.328496D+01  0.275840D-01 -0.341610D-01
     19 -0.825958D-03 -0.167295D-01  0.967225D-02 -0.278153D+01  0.101929D+01
     20 -0.114600D-01  0.915359D-01  0.258831D-01  0.100916D+01 -0.153424D+01
     21  0.252024D-01  0.331770D-01  0.610590D-01  0.271939D+00  0.476163D+00
     22 -0.883622D-02  0.397572D-01  0.252518D-01 -0.348748D+01 -0.221816D-02
     23  0.248134D-01 -0.153334D-01 -0.249636D-01 -0.924255D-02 -0.344842D+01
     24 -0.413721D-01 -0.701066D-01  0.479567D-01  0.123039D+00 -0.118070D+00
     25  0.296120D-01 -0.155815D-01 -0.165136D-01  0.263003D-01  0.339130D-01
     26  0.292233D-01  0.271625D-02 -0.442659D-01  0.432466D-01  0.477192D-02
     27 -0.431627D-01 -0.479622D-01  0.838827D-01 -0.386651D-01 -0.272523D-01
     28  0.985883D-01 -0.100186D+00 -0.805626D-01 -0.369462D-02  0.424482D-01
     29 -0.508087D-01 -0.649333D-01 -0.887207D-01  0.976462D-01 -0.557701D-02
     30 -0.478019D-01 -0.839111D-01  0.530202D-01  0.516354D-01  0.381767D-01
     31  0.797839D-01 -0.342066D-01  0.122615D-01  0.906703D-01  0.270667D-01
     32 -0.523961D-01  0.559133D-02 -0.173024D-01  0.168278D-01 -0.231990D-01
     33  0.391520D-01 -0.817555D-02  0.153397D-01  0.183035D-01  0.200208D-02
     34  0.681759D-02  0.314219D-02  0.128206D-02  0.251590D-01  0.272792D-01
     35 -0.146537D-01  0.248856D-02 -0.528049D-02 -0.430791D-01 -0.160533D-02
     36 -0.136948D-01  0.741971D-02 -0.114171D-02 -0.811587D-02  0.583592D-01
     37  0.417884D-01 -0.407360D-01  0.314336D-01  0.255798D-01  0.539260D-01
     38 -0.633779D-01 -0.302468D-01 -0.259161D-01  0.200377D-01 -0.119953D-01
     39  0.763781D-01 -0.262537D-01 -0.109114D-01 -0.241972D-01  0.456198D-01
     40  0.142903D+00 -0.437862D-01 -0.513079D-02  0.478396D-01  0.284743D-01
     41 -0.377649D-01 -0.381535D-01  0.793307D-02  0.579451D-01  0.205332D-01
     42 -0.199051D-01  0.498230D-02 -0.527446D-01 -0.122636D-01 -0.100260D-01
                6             7             8             9            10 
      6  0.129307D+02
      7  0.141073D+00  0.937467D+01
      8  0.673131D-01 -0.106068D+01  0.995881D+01
      9 -0.294485D+00 -0.257648D+00 -0.325232D+00  0.111067D+02
     10  0.551774D+00  0.323733D+00 -0.611360D-01 -0.252658D-01  0.945097D+01
     11 -0.721299D+00  0.354245D-01 -0.239929D+00 -0.417696D-02  0.111556D+01
     12 -0.433605D+01 -0.690233D-02 -0.363491D-02 -0.226002D+00 -0.360301D+00
     13  0.382140D-01  0.608476D-01 -0.292349D-01 -0.187800D-01  0.262880D-02
     14  0.205890D-01 -0.431151D-01 -0.364583D-02 -0.713634D-01  0.370774D-02
     15  0.334728D-01 -0.212873D-01 -0.671203D-01  0.895757D-01 -0.157085D-01
     16  0.930789D-02  0.454564D-01 -0.658122D-01  0.875841D-02  0.701147D-01
     17 -0.252241D-01 -0.585808D-01  0.345209D-01 -0.353347D-01 -0.113791D+00
     18  0.278515D-01  0.363150D-02 -0.444753D-01  0.455892D-01  0.137355D-01
     19  0.283701D+00  0.761139D-01  0.958754D-01  0.477495D-02  0.278488D-01
     20  0.490389D+00  0.124591D+00  0.334283D-01  0.270894D-03  0.401000D-01
     21 -0.319944D+01  0.122965D-01  0.526006D-02 -0.517463D-01  0.739301D-02
     22  0.480486D-01  0.142376D-01 -0.147835D-01  0.538842D-02  0.646066D-01
     23 -0.162521D+00 -0.848320D-02 -0.402364D-02  0.920355D-02  0.344364D-01
     24 -0.977271D+00 -0.838841D-02  0.174496D-01  0.186836D-01 -0.243211D-01
     25 -0.208255D-01 -0.295832D+01  0.330090D+00 -0.431858D+00  0.477868D-01
     26 -0.159375D-01  0.276094D+00 -0.216044D+01 -0.111377D+01  0.293378D-01
     27 -0.112566D-01 -0.358717D+00 -0.108515D+01 -0.171512D+01 -0.337841D-01
     28  0.554522D-02 -0.280824D+01 -0.565319D+00 -0.655865D+00 -0.915839D-02
     29  0.332467D-01 -0.698499D+00 -0.234675D+01  0.102584D+01  0.148827D-01
     30 -0.479864D-01 -0.785987D+00  0.990790D+00 -0.199231D+01  0.338500D-01
     31  0.280190D-01 -0.121466D+01 -0.542584D+00  0.795257D+00  0.524141D-01
     32 -0.309702D-02 -0.500924D+00 -0.289277D+01 -0.215787D+00 -0.764835D-02
     33 -0.258200D-01  0.773284D+00 -0.229294D+00 -0.267222D+01  0.164004D-01
     34  0.891705D-02  0.409903D-01 -0.357582D-01 -0.146334D-01 -0.309767D+01
     35  0.558893D-01 -0.617896D-01  0.460681D-02  0.138531D-01  0.485061D+00
     36  0.358308D-01 -0.331110D-01  0.206247D-01 -0.250624D-01  0.274393D+00
     37 -0.743930D-01 -0.607283D-02 -0.378736D-02  0.464782D-02 -0.316514D+01
     38  0.644418D-01  0.384553D-02 -0.199337D-02  0.190144D-02  0.982237D-01
     39  0.420605D-01  0.232914D-01 -0.155260D-01  0.561200D-02 -0.266636D+00
     40 -0.117979D-01  0.545036D-01 -0.976382D-02 -0.627172D-02 -0.799939D+00
     41 -0.126326D-01  0.436484D-02 -0.175926D-01 -0.177307D-02  0.378084D+00
     42  0.296761D-01 -0.144115D-02  0.119705D-02 -0.154844D-01 -0.303627D+00
               11            12            13            14            15 
     11  0.995920D+01
     12  0.330231D+00  0.111876D+02
     13  0.100650D-01 -0.186695D-02  0.328251D+01
     14 -0.283638D-02 -0.155735D-02  0.764382D-01  0.337149D+01
     15 -0.667377D-02  0.226005D-01 -0.482093D-01 -0.312651D+00  0.594802D+00
     16 -0.895153D-01  0.769333D-02  0.461196D-01  0.230225D-01 -0.367566D-01
     17  0.315537D-01 -0.354254D-02  0.192855D-01  0.280561D-01  0.537598D-01
     18 -0.756906D-02 -0.476253D-01 -0.486965D-01  0.806405D-01 -0.334722D-01
     19  0.613594D-01  0.121295D-01 -0.104598D-01 -0.102241D-01  0.942750D-02
     20  0.431046D-01  0.112080D-01 -0.107431D-01  0.481575D-02 -0.298350D-02
     21  0.287882D-01  0.277514D-01  0.175828D-01  0.863744D-02 -0.441778D-02
     22  0.176307D-01 -0.254431D-01 -0.986179D-02 -0.171038D-02 -0.259622D-01
     23  0.909932D-02  0.799789D-01  0.133364D-02 -0.142291D-01 -0.163781D-02
     24  0.601600D-01  0.569114D-01 -0.260130D-01  0.345640D-02  0.707639D-01
     25  0.237374D-01 -0.161284D-01  0.453512D-02 -0.525536D-01 -0.181747D-01
     26 -0.733172D-02 -0.836148D-02 -0.454291D-01 -0.488540D-01 -0.242996D-01
     27 -0.171800D-01 -0.940874D-02 -0.156074D-01 -0.278794D-01  0.168410D-01
     28  0.713168D-02  0.806473D-02 -0.174545D-01  0.300038D-02  0.237912D-02
     29 -0.531861D-03  0.637528D-02  0.572882D-02  0.138627D-01  0.529665D-01
     30  0.208393D-01 -0.172474D-02  0.636490D-02  0.374548D-01  0.481512D-01
     31  0.372078D-02  0.715985D-02  0.182201D-01  0.168978D-01  0.528746D-01
     32 -0.183573D-01 -0.131535D-02  0.966734D-02 -0.989352D-02  0.104616D-01
     33  0.151610D-02 -0.164152D-01  0.299500D-01  0.138568D-01  0.279957D-01
     34  0.357334D+00  0.205979D+00 -0.633284D-05 -0.361857D-02 -0.430143D-02
     35 -0.151210D+01  0.103635D+01 -0.568231D-02  0.431125D-02  0.161187D-01
     36  0.100258D+01 -0.253872D+01 -0.444014D-02  0.583015D-02  0.890567D-02
     37  0.533000D-01 -0.127963D+00  0.131973D-02 -0.525399D-02 -0.690098D-02
     38 -0.300779D+01 -0.617106D+00 -0.614192D-02  0.160942D-03  0.818465D-02
     39 -0.563785D+00 -0.915952D+00  0.318025D-02 -0.376597D-02 -0.151677D-01
     40  0.424444D+00 -0.319453D+00  0.709050D-02 -0.347658D-02 -0.159684D-01
     41 -0.294707D+01 -0.477785D-01 -0.129498D-02 -0.189412D-02 -0.125947D-03
     42 -0.505792D-01 -0.295058D+01 -0.311375D-02  0.104296D-02  0.207018D-02
               16            17            18            19            20 
     16  0.282081D+01
     17  0.116389D+01  0.134311D+01
     18 -0.260771D+00  0.521366D+00  0.328456D+01
     19 -0.153188D-01 -0.828516D-02  0.229582D-02  0.269067D+01
     20  0.833464D-02 -0.181610D-02  0.319915D-02 -0.117800D+01  0.125306D+01
     21  0.232992D-02 -0.307682D-02  0.742849D-02 -0.294317D+00 -0.499293D+00
     22 -0.127209D-01  0.142842D-01  0.206826D-01  0.406140D-01 -0.180791D-01
     23  0.121300D-01  0.699072D-02 -0.101328D-01 -0.212844D-01  0.237719D-01
     24  0.137972D-01  0.106485D-03 -0.381263D-02 -0.300479D-01 -0.453303D-01
     25 -0.181402D-01  0.214629D-01 -0.527948D-02 -0.546041D-03  0.256998D-02
     26  0.285127D-02  0.722897D-01 -0.257181D-01  0.267170D-02  0.503224D-02
     27  0.458289D-03 -0.393806D-01 -0.688460D-02 -0.460029D-02 -0.674657D-02
     28 -0.126557D-01 -0.110840D-01 -0.968003D-03 -0.628920D-03  0.231236D-02
     29 -0.150302D-01  0.634885D-01  0.160396D-01  0.102344D-01  0.110543D-01
     30 -0.735308D-02  0.355998D-01 -0.104402D-01  0.664095D-02  0.972954D-02
     31 -0.106741D-01 -0.425261D-01 -0.179655D-01  0.525576D-02  0.881545D-02
     32 -0.464926D-01 -0.390302D-01 -0.199920D-01 -0.210702D-02 -0.219096D-02
     33 -0.154823D-01 -0.155989D-01  0.217413D-01  0.250975D-02  0.341571D-02
     34 -0.177253D-02  0.313263D-03  0.689073D-04 -0.197249D-01  0.121542D-02
     35 -0.513153D-02  0.810374D-02 -0.190670D-02  0.130168D-01  0.885901D-01
     36 -0.293227D-02  0.499345D-02 -0.167674D-02  0.198894D-02  0.272765D-01
     37  0.267322D-02 -0.532970D-02  0.227847D-02 -0.481326D-03  0.746345D-03
     38 -0.724306D-02  0.538851D-02 -0.342050D-02  0.270646D-02  0.109152D-01
     39  0.914643D-02 -0.116396D-01  0.240242D-02 -0.603636D-02 -0.174654D-01
     40  0.482897D-02 -0.923232D-02  0.301115D-02 -0.109867D-01  0.204345D-01
     41  0.248692D-02 -0.167444D-02 -0.560621D-03  0.314805D-01 -0.270553D-01
     42 -0.104346D-02  0.949108D-03 -0.705725D-03  0.186145D-02  0.447001D-03
               21            22            23            24            25 
     21  0.318077D+01
     22 -0.441256D-01  0.337681D+01
     23 -0.746482D-01 -0.394585D-01  0.349487D+01
     24 -0.226563D-01 -0.174858D-01  0.192910D+00  0.737155D+00
     25  0.823109D-03  0.923875D-03  0.244381D-02 -0.725748D-02  0.277821D+01
     26  0.178787D-02  0.317839D-02  0.588231D-03 -0.970935D-02 -0.371417D+00
     27 -0.163362D-02 -0.359000D-02 -0.312381D-02  0.104467D-01  0.474399D+00
     28  0.415610D-03 -0.795226D-02 -0.112106D-01  0.379718D-02  0.391304D-01
     29  0.454227D-02 -0.693774D-02 -0.576478D-02 -0.859093D-02 -0.976346D-02
     30  0.257151D-03  0.238759D-02  0.397622D-02 -0.462072D-02  0.937293D-01
     31  0.325401D-02  0.160941D-01  0.604423D-02 -0.187973D-01  0.344845D-01
     32  0.264642D-03  0.324261D-02 -0.326566D-02  0.433628D-03  0.387005D-01
     33  0.895641D-04 -0.222776D-02 -0.591018D-03 -0.602388D-02 -0.540656D-01
     34 -0.190928D-03  0.162602D-01  0.227611D-01 -0.134619D-01  0.238622D-02
     35  0.200830D-01  0.160598D-01 -0.404876D-01  0.201472D-01 -0.530788D-02
     36 -0.132591D-01 -0.666004D-02  0.278517D-01  0.517180D-02 -0.571956D-02
     37  0.181395D-03 -0.143751D-01 -0.672215D-02  0.194791D-01  0.753875D-02
     38 -0.256219D-03 -0.695813D-02 -0.140800D-02 -0.408898D-01 -0.302176D-04
     39 -0.953135D-03  0.179197D-01 -0.332826D-01  0.666127D-01  0.809331D-02
     40 -0.278446D-02  0.116848D-01 -0.756114D-02  0.270328D-01  0.609955D-02
     41 -0.142920D-02 -0.400725D-02 -0.239620D-02 -0.196656D-02  0.173584D-02
     42  0.167538D-01  0.581580D-02 -0.301918D-02  0.682600D-03 -0.122241D-02
               26            27            28            29            30 
     26  0.204998D+01
     27  0.119397D+01  0.176055D+01
     28 -0.620096D-03  0.603095D-01  0.275728D+01
     29  0.873573D-01  0.140874D-01  0.572143D+00  0.225476D+01
     30 -0.398439D-02 -0.103462D+00  0.604736D+00 -0.103945D+01  0.199925D+01
     31  0.199723D-01 -0.231178D-01 -0.475499D-01  0.679633D-01  0.152625D-01
     32  0.406587D-02  0.400351D-01  0.651837D-01  0.106069D-01 -0.244605D-02
     33  0.487612D-01 -0.188009D-01  0.447368D-01 -0.223221D-01  0.599225D-01
     34  0.969498D-03 -0.372546D-02  0.697406D-02  0.124964D-02  0.767183D-02
     35 -0.613807D-02  0.705844D-02 -0.551109D-02 -0.123078D-01 -0.836872D-02
     36 -0.333682D-02  0.424882D-02 -0.298860D-03 -0.241363D-02 -0.118164D-01
     37  0.380527D-02 -0.238761D-02  0.351817D-02  0.348089D-02  0.102401D-01
     38 -0.423442D-02  0.131489D-02  0.936634D-03 -0.532918D-02 -0.705853D-03
     39  0.586606D-02 -0.948417D-02  0.678382D-02  0.824455D-02  0.135033D-01
     40  0.611678D-02 -0.780937D-02  0.184734D-02  0.771026D-02  0.862427D-02
     41  0.195625D-03 -0.179635D-02  0.775306D-03  0.671151D-04  0.229570D-02
     42 -0.998829D-03  0.846126D-04  0.926963D-03  0.147884D-03 -0.173502D-02
               31            32            33            34            35 
     31  0.957532D+00
     32  0.481434D+00  0.296811D+01
     33 -0.858442D+00  0.209396D+00  0.261541D+01
     34  0.588077D-02 -0.240612D-02  0.914511D-03  0.294603D+01
     35 -0.110664D-01  0.168143D-02 -0.234457D-02 -0.310808D+00  0.140370D+01
     36 -0.472713D-02  0.175177D-02 -0.336758D-02 -0.153320D+00 -0.105449D+01
     37  0.240468D-02 -0.884430D-03  0.173063D-02  0.808219D-01 -0.888922D-02
     38 -0.285535D-02 -0.484797D-03 -0.119568D-02  0.416227D-02  0.608489D-01
     39  0.945842D-02 -0.258112D-02  0.309773D-02  0.307907D-02 -0.783713D-01
     40  0.101437D-01 -0.219791D-02  0.323582D-02 -0.121408D-01 -0.422190D-01
     41  0.132333D-02 -0.868749D-03  0.573456D-03 -0.658358D-01 -0.169633D-02
     42 -0.496443D-03  0.178496D-03 -0.948369D-03 -0.382796D-01 -0.187350D-01
               36            37            38            39            40 
     36  0.262003D+01
     37 -0.323353D-01  0.302298D+01
     38 -0.933620D-01 -0.228191D-01  0.295365D+01
     39 -0.114345D+00  0.929748D-01  0.678177D+00  0.943672D+00
     40 -0.110274D-01 -0.255553D-02 -0.204867D-01  0.465645D-01  0.538682D+00
     41 -0.308338D-02 -0.208366D-01  0.325196D-01  0.147635D-01 -0.348456D+00
     42  0.352006D-01  0.810136D-01  0.288329D-01 -0.101473D-01  0.291775D+00
               41            42 
     41  0.298509D+01
     42  0.455804D-01  0.294788D+01
 Leave Link  701 at Mon Apr  8 16:40:40 2019, MaxMem=   671088640 cpu:               6.1 elap:               0.3
 (Enter /shared/centos7/gaussian/g16/l702.exe)
 L702 exits ... SP integral derivatives will be done elsewhere.
 Leave Link  702 at Mon Apr  8 16:40:40 2019, MaxMem=   671088640 cpu:               0.3 elap:               0.0
 (Enter /shared/centos7/gaussian/g16/l703.exe)
 Integral derivatives from FoFJK, PRISM(SPDF).
 Compute integral second derivatives, UseDBF=F ICtDFT=           0.
 ICntrl=    100147.
 Calling FoFJK, ICntrl=    100147 FMM=F ISym2X=0 I1Cent= 0 IOpClX= 0 NMat=1 NMatS=1 NMatT=0.
 FoFJK:  IHMeth= 1 ICntrl=  100147 DoSepK=F KAlg= 0 I1Cent=           0 FoldK=F
 IRaf=         0 NMat=       1 IRICut=       1 DoRegI=T DoRafI=F ISym2E= 0 IDoP0=0 IntGTp=1.
 FoFCou: FMM=F IPFlag=           0 FMFlag=      100000 FMFlg1=         800
         NFxFlg=           0 DoJE=F BraDBF=F KetDBF=F FulRan=T
         wScrn=  0.000000 ICntrl=    100147 IOpCl=  0 I1Cent=           0 NGrid=           0
         NMat0=    1 NMatS0=      1 NMatT0=    0 NMatD0=    1 NMtDS0=    0 NMtDT0=    0
 Symmetry not used in FoFCou.
 FoFCou:  KetSym=F NOpSet=  1 NOpAb=1 NOp=  1.
 FoFCou:  CnvScl= 1.00D+00 Thresh= 1.00D-08 IAcrcy=      12.
 PrismS was handed   670804119 working-precision words and  3362 shell-pairs
 FoFCou: LinMIO=F DoNuc=F BraDBF=F KetDBF=F HaveP=T PDBF=F HaveZ=T HaveW=F
         NIJTC =      15 NIJTAt=       0 NIJTCD=       0 NIJTT =      15
         IJTBeg=       1 IJTEnd=      15 KLTBeg=       1 KLTEnd=      15
         IPTBeg=       1 IPTEnd=      15 IPTBCv=       1 IPTECv=      15
         IZTBeg=       1 IZTEnd=      15 IZTBCv=       1 IZTECv=      15
         IWTBeg=      16 IWTEnd=      15 IWTBCv=      16 IWTECv=      15
         INTBeg=       1 INTEnd=       0 IFTBCv=       1 IFTECv=      15
 NCel replicated for PrismC:     1
 CoulSu-InSpLW:  IPartL=    0 NPrtUS=   20 NPrtUL=    1 DoSpLW=F IThBeg=    0 IThEnd=   19 NThAct=   20.
 CoulSu:  IncDef=  1024 NBBP=        5653203 NTPThr=   100 NPartT=   20 Incr=        1024 LDynOK=F GPUOK=T.
 CoulSu:  NPrtUS=  20 ThrOK=T IAlg=1 NPAlg=1 LenDen=           0 LWGrdD=           0 DoCopy=F ISkipM=0
          DoSpLW=F IThBeg=    0 IThEnd=   19.
 Enter PrismC:  IPart=  0 JobTyp=22 DoJE=F Cont=F.
 PrismC:  IPart=     0 DynPar=T LinDyn=F Incr=        1024 UseFst=F UseS4=T ISplat=2.
 PrismC was handed    33480336 working-precision words and  3362 shell-pairs
 Enter PrismC:  IPart=  5 JobTyp=22 DoJE=F Cont=F.
 Enter PrismC:  IPart= 14 JobTyp=22 DoJE=F Cont=F.
 Enter PrismC:  IPart= 15 JobTyp=22 DoJE=F Cont=F.
 PrismC:  IPart=     5 DynPar=T LinDyn=F Incr=        1024 UseFst=F UseS4=T ISplat=2.
 PrismC:  IPart=    15 DynPar=T LinDyn=F Incr=        1024 UseFst=F UseS4=T ISplat=2.
 PrismC was handed    33480336 working-precision words and  3362 shell-pairs
 PrismC:  IPart=    14 DynPar=T LinDyn=F Incr=        1024 UseFst=F UseS4=T ISplat=2.
 PrismC was handed    33480336 working-precision words and  3362 shell-pairs
 PrismC was handed    33480336 working-precision words and  3362 shell-pairs
 Enter PrismC:  IPart=  6 JobTyp=22 DoJE=F Cont=F.
 Enter PrismC:  IPart=  7 JobTyp=22 DoJE=F Cont=F.
 Enter PrismC:  IPart=  1 JobTyp=22 DoJE=F Cont=F.
 PrismC:  IPart=     6 DynPar=T LinDyn=F Incr=        1024 UseFst=F UseS4=T ISplat=2.
 PrismC was handed    33480336 working-precision words and  3362 shell-pairs
 PrismC:  IPart=     7 DynPar=T LinDyn=F Incr=        1024 UseFst=F UseS4=T ISplat=2.
 PrismC was handed    33480336 working-precision words and  3362 shell-pairs
 PrismC:  IPart=     1 DynPar=T LinDyn=F Incr=        1024 UseFst=F UseS4=T ISplat=2.
 PrismC was handed    33480336 working-precision words and  3362 shell-pairs
 Enter PrismC:  IPart=  4 JobTyp=22 DoJE=F Cont=F.
 Enter PrismC:  IPart=  3 JobTyp=22 DoJE=F Cont=F.
 Enter PrismC:  IPart= 12 JobTyp=22 DoJE=F Cont=F.
 PrismC:  IPart=     4 DynPar=T LinDyn=F Incr=        1024 UseFst=F UseS4=T ISplat=2.
 Enter PrismC:  IPart=  2 JobTyp=22 DoJE=F Cont=F.
 PrismC was handed    33480336 working-precision words and  3362 shell-pairs
 PrismC:  IPart=     3 DynPar=T LinDyn=F Incr=        1024 UseFst=F UseS4=T ISplat=2.
 PrismC was handed    33480336 working-precision words and  3362 shell-pairs
 PrismC:  IPart=     2 DynPar=T LinDyn=F Incr=        1024 UseFst=F UseS4=T ISplat=2.
 PrismC was handed    33480336 working-precision words and  3362 shell-pairs
 PrismC:  IPart=    12 DynPar=T LinDyn=F Incr=        1024 UseFst=F UseS4=T ISplat=2.
 PrismC was handed    33480336 working-precision words and  3362 shell-pairs
 Enter PrismC:  IPart= 13 JobTyp=22 DoJE=F Cont=F.
 Enter PrismC:  IPart=  8 JobTyp=22 DoJE=F Cont=F.
 PrismC:  IPart=    13 DynPar=T LinDyn=F Incr=        1024 UseFst=F UseS4=T ISplat=2.
 PrismC was handed    33480336 working-precision words and  3362 shell-pairs
 PrismC:  IPart=     8 DynPar=T LinDyn=F Incr=        1024 UseFst=F UseS4=T ISplat=2.
 PrismC was handed    33480336 working-precision words and  3362 shell-pairs
 Enter PrismC:  IPart= 18 JobTyp=22 DoJE=F Cont=F.
 Enter PrismC:  IPart= 17 JobTyp=22 DoJE=F Cont=F.
 Enter PrismC:  IPart=  9 JobTyp=22 DoJE=F Cont=F.
 Enter PrismC:  IPart= 11 JobTyp=22 DoJE=F Cont=F.
 PrismC:  IPart=    18 DynPar=T LinDyn=F Incr=        1024 UseFst=F UseS4=T ISplat=2.
 Enter PrismC:  IPart= 16 JobTyp=22 DoJE=F Cont=F.
 Enter PrismC:  IPart= 19 JobTyp=22 DoJE=F Cont=F.
 PrismC was handed    33480336 working-precision words and  3362 shell-pairs
 Enter PrismC:  IPart= 10 JobTyp=22 DoJE=F Cont=F.
 PrismC:  IPart=    11 DynPar=T LinDyn=F Incr=        1024 UseFst=F UseS4=T ISplat=2.
 PrismC:  IPart=    17 DynPar=T LinDyn=F Incr=        1024 UseFst=F UseS4=T ISplat=2.
 PrismC was handed    33480336 working-precision words and  3362 shell-pairs
 PrismC:  IPart=    19 DynPar=T LinDyn=F Incr=        1024 UseFst=F UseS4=T ISplat=2.
 PrismC was handed    33480336 working-precision words and  3362 shell-pairs
 PrismC:  IPart=    16 DynPar=T LinDyn=F Incr=        1024 UseFst=F UseS4=T ISplat=2.
 PrismC:  IPart=    10 DynPar=T LinDyn=F Incr=        1024 UseFst=F UseS4=T ISplat=2.
 PrismC was handed    33480336 working-precision words and  3362 shell-pairs
 PrismC was handed    33480336 working-precision words and  3362 shell-pairs
 PrismC:  IPart=     9 DynPar=T LinDyn=F Incr=        1024 UseFst=F UseS4=T ISplat=2.
 PrismC was handed    33480336 working-precision words and  3362 shell-pairs
 PrismC was handed    33480336 working-precision words and  3362 shell-pairs
 IPart=  1 NShTot=      206900 NShNF=      206900 NShFF=           0 MinMC=       7
           NShCPU=      206900 NBCPU=        8515 AvBCPU=        24.3
           NShGPU=           0 NBGPU=           0 AvBGPU=         0.0
 IPart= 12 NShTot=      207686 NShNF=      207686 NShFF=           0 MinMC=       7
           NShCPU=      207686 NBCPU=        8982 AvBCPU=        23.1
           NShGPU=           0 NBGPU=           0 AvBGPU=         0.0
 IPart= 13 NShTot=      216382 NShNF=      216382 NShFF=           0 MinMC=       7
           NShCPU=      216382 NBCPU=        9303 AvBCPU=        23.3
           NShGPU=           0 NBGPU=           0 AvBGPU=         0.0
 IPart= 10 NShTot=      211253 NShNF=      211253 NShFF=           0 MinMC=       7
           NShCPU=      211253 NBCPU=        8810 AvBCPU=        24.0
           NShGPU=           0 NBGPU=           0 AvBGPU=         0.0
 IPart=  5 NShTot=      232870 NShNF=      232870 NShFF=           0 MinMC=       7
           NShCPU=      232870 NBCPU=        9098 AvBCPU=        25.6
           NShGPU=           0 NBGPU=           0 AvBGPU=         0.0
 IPart=  3 NShTot=      212231 NShNF=      212231 NShFF=           0 MinMC=       7
           NShCPU=      212231 NBCPU=        9358 AvBCPU=        22.7
           NShGPU=           0 NBGPU=           0 AvBGPU=         0.0
 IPart= 16 NShTot=      203802 NShNF=      203802 NShFF=           0 MinMC=       7
           NShCPU=      203802 NBCPU=        9316 AvBCPU=        21.9
           NShGPU=           0 NBGPU=           0 AvBGPU=         0.0
 IPart=  4 NShTot=      204414 NShNF=      204414 NShFF=           0 MinMC=       7
           NShCPU=      204414 NBCPU=        8979 AvBCPU=        22.8
           NShGPU=           0 NBGPU=           0 AvBGPU=         0.0
 IPart=  9 NShTot=      215330 NShNF=      215330 NShFF=           0 MinMC=       7
           NShCPU=      215330 NBCPU=        9376 AvBCPU=        23.0
           NShGPU=           0 NBGPU=           0 AvBGPU=         0.0
 IPart= 18 NShTot=      215916 NShNF=      215916 NShFF=           0 MinMC=       7
           NShCPU=      215916 NBCPU=        9201 AvBCPU=        23.5
           NShGPU=           0 NBGPU=           0 AvBGPU=         0.0
 IPart=  6 NShTot=      207775 NShNF=      207775 NShFF=           0 MinMC=       7
           NShCPU=      207775 NBCPU=        9022 AvBCPU=        23.0
           NShGPU=           0 NBGPU=           0 AvBGPU=         0.0
 IPart=  2 NShTot=      206807 NShNF=      206807 NShFF=           0 MinMC=       7
           NShCPU=      206807 NBCPU=        8665 AvBCPU=        23.9
           NShGPU=           0 NBGPU=           0 AvBGPU=         0.0
 IPart= 15 NShTot=      192959 NShNF=      192959 NShFF=           0 MinMC=       7
           NShCPU=      192959 NBCPU=        8178 AvBCPU=        23.6
           NShGPU=           0 NBGPU=           0 AvBGPU=         0.0
 IPart=  7 NShTot=      191817 NShNF=      191817 NShFF=           0 MinMC=       7
           NShCPU=      191817 NBCPU=        8265 AvBCPU=        23.2
[...]
 ! D2    D(3,1,2,7)            176.0821         -DE/DX =    0.0                 !
 ! D3    D(3,1,2,8)             60.321          -DE/DX =    0.0                 !
 ! D4    D(5,1,2,4)             60.321          -DE/DX =    0.0                 !
 ! D5    D(5,1,2,7)            -61.6118         -DE/DX =    0.0                 !
 ! D6    D(5,1,2,8)           -177.373          -DE/DX =    0.0                 !
 ! D7    D(6,1,2,4)            176.0821         -DE/DX =    0.0                 !
 ! D8    D(6,1,2,7)             54.1493         -DE/DX =    0.0                 !
 ! D9    D(6,1,2,8)            -61.6118         -DE/DX =    0.0                 !
 ! D10   D(2,1,3,9)             64.9109         -DE/DX =    0.0                 !
 ! D11   D(2,1,3,10)           -55.0685         -DE/DX =    0.0                 !
 ! D12   D(2,1,3,11)          -174.9908         -DE/DX =    0.0                 !
 ! D13   D(5,1,3,9)            -57.1567         -DE/DX =    0.0                 !
 ! D14   D(5,1,3,10)          -177.1361         -DE/DX =    0.0                 !
 ! D15   D(5,1,3,11)            62.9416         -DE/DX =    0.0                 !
 ! D16   D(6,1,3,9)           -173.2966         -DE/DX =    0.0                 !
 ! D17   D(6,1,3,10)            66.724          -DE/DX =    0.0                 !
 ! D18   D(6,1,3,11)           -53.1983         -DE/DX =    0.0                 !
 ! D19   D(1,2,4,12)            64.9113         -DE/DX =    0.0                 !
 ! D20   D(1,2,4,13)           -55.0682         -DE/DX =    0.0                 !
 ! D21   D(1,2,4,14)          -174.9904         -DE/DX =    0.0                 !
 ! D22   D(7,2,4,12)          -173.2963         -DE/DX =    0.0                 !
 ! D23   D(7,2,4,13)            66.7243         -DE/DX =    0.0                 !
 ! D24   D(7,2,4,14)           -53.1979         -DE/DX =    0.0                 !
 ! D25   D(8,2,4,12)           -57.1564         -DE/DX =    0.0                 !
 ! D26   D(8,2,4,13)          -177.1358         -DE/DX =    0.0                 !
 ! D27   D(8,2,4,14)            62.942          -DE/DX =    0.0                 !
 --------------------------------------------------------------------------------
 GradGradGradGradGradGradGradGradGradGradGradGradGradGradGradGradGradGrad

 Leave Link  103 at Mon Apr  8 16:48:28 2019, MaxMem=   671088640 cpu:               0.3 elap:               0.0
 (Enter /shared/centos7/gaussian/g16/l9999.exe)

 ----------------------------------------------------------------------

 Electric dipole moment (input orientation):
 (Debye = 10**-18 statcoulomb cm , SI units = C m)
                  (au)            (Debye)         (10**-30 SI)
   Tot        0.374628D-01      0.952209D-01      0.317623D+00
   x         -0.189744D-02     -0.482282D-02     -0.160872D-01
   y         -0.166192D-01     -0.422418D-01     -0.140904D+00
   z         -0.335211D-01     -0.852021D-01     -0.284204D+00

 Dipole polarizability, Alpha (input orientation).
 (esu units = cm**3 , SI units = C**2 m**2 J**-1)
 Alpha(0;0):
               (au)            (10**-24 esu)      (10**-40 SI)
   iso        0.503394D+02      0.745953D+01      0.829985D+01
   aniso      0.777357D+01      0.115192D+01      0.128169D+01
   xx         0.551915D+02      0.817854D+01      0.909986D+01
   yx         0.394112D+00      0.584014D-01      0.649803D-01
   yy         0.470226D+02      0.696803D+01      0.775297D+01
   zx        -0.527133D+00     -0.781130D-01     -0.869124D-01
   zy         0.112190D+01      0.166248D+00      0.184976D+00
   zz         0.488041D+02      0.723202D+01      0.804671D+01

 ----------------------------------------------------------------------

 Dipole orientation:
     6          1.36098446          0.48446368          1.29823655
     6         -1.36994881         -0.45458105          1.29824145
     6          2.88846780         -0.43059951         -0.96925614
     6         -2.89744936          0.46050720         -0.96923021
     1          1.36406478          2.55044330          1.34302188
     1          2.28444785         -0.13703570          3.03541749
     1         -2.29339905          0.16689872          3.03543634
     1         -1.37302817         -2.52056104          1.34300402
     1          2.15630070          0.33508313         -2.73495238
     1          2.83095888         -2.48822468         -1.10525582
     1          4.86143445          0.13734755         -0.81779900
     1         -2.16530254         -0.30516493         -2.73493935
     1         -2.83993228          2.51813315         -1.10521463
     1         -4.87041729         -0.10743153         -0.81775929

 Electric dipole moment (dipole orientation):
 (Debye = 10**-18 statcoulomb cm , SI units = C m)
                  (au)            (Debye)         (10**-30 SI)
   Tot        0.374628D-01      0.952209D-01      0.317623D+00
   x          0.000000D+00      0.000000D+00      0.000000D+00
   y          0.000000D+00      0.000000D+00      0.000000D+00
   z          0.374628D-01      0.952209D-01      0.317623D+00

 Dipole polarizability, Alpha (dipole orientation).
 (esu units = cm**3 , SI units = C**2 m**2 J**-1)
 Alpha(0;0):
               (au)            (10**-24 esu)      (10**-40 SI)
   iso        0.503394D+02      0.745953D+01      0.829985D+01
   aniso      0.777357D+01      0.115192D+01      0.128169D+01
   xx         0.552194D+02      0.818266D+01      0.910444D+01
   yx        -0.484240D+00     -0.717569D-01     -0.798403D-01
   yy         0.464684D+02      0.688590D+01      0.766160D+01
   zx        -0.226226D-04     -0.335232D-05     -0.372996D-05
   zy        -0.156250D-04     -0.231538D-05     -0.257621D-05
   zz         0.493305D+02      0.731002D+01      0.813350D+01

 ----------------------------------------------------------------------

 Test job not archived.
 1\1\GINC-C0149\Freq\RM062X\6-311+G(2df,2p)\C4H10\UNDERKOFFLER.C\08-Apr
 -2019\0\\#P Geom=AllCheck Guess=TCheck SCRF=Check Test GenChk RM062X/6
 -311+G(2df,2p) Freq\\Gaussian input prepared by ASE\\0,1\C,0.687471392
 5,-0.5430455936,-0.5374613372\C,-0.7616124413,-0.0806005596,-0.6847124
 898\C,1.5497180384,0.4136074106,0.2804397416\C,-1.5023211172,0.0273322
 091,0.6446928075\H,0.7008631179,-1.5332973779,-0.0737542972\H,1.125025
 3663,-0.6619248056,-1.5306641886\H,-1.2922804195,-0.7773330826,-1.3366
 272698\H,-0.7774037387,0.8886297361,-1.1908204581\H,1.2149256861,0.469
 6063828,1.3158648809\H,1.5100601038,1.4216517932,-0.136657376\H,2.5918
 580634,0.0963426495,0.2891725809\H,-1.0728900691,0.8003372049,1.281386
 7781\H,-1.4553690991,-0.9168634538,1.1905740279\H,-2.5525808944,0.2734
 79682,0.4925258971\\Version=EM64L-G16RevA.03\State=1-A\HF=-158.4129963
 \RMSD=2.180e-09\RMSF=2.351e-07\ZeroPoint=0.1328763\Thermal=0.1385576\D
 ipole=-0.0018974,-0.0166192,-0.0335211\DipoleDeriv=0.0943108,0.0181425
 ,0.0054052,0.0309836,0.1136702,-0.0031696,0.0257491,-0.0044151,0.09585
 8,0.0893266,0.006557,-0.0168533,-0.0019854,0.1058294,-0.0092652,-0.039
 3285,-0.0077767,0.1086835,0.0022153,-0.0239824,-0.0345411,-0.0147766,0
 .0557299,-0.0368648,-0.0325878,-0.0392564,0.0459598,0.0101582,0.015181
 6,0.0397484,0.0189493,0.0847717,-0.0195022,0.0313631,-0.016376,0.00897
 5,0.0065018,-0.0251784,-0.0127649,-0.0010006,-0.1437898,0.0538743,-0.0
 325806,0.0862778,0.01156,-0.0430628,0.013085,0.0724583,-0.0009861,0.04
 31254,-0.0294216,0.0706065,-0.0555322,-0.1366944,-0.0574446,-0.0561312
 ,-0.0599217,-0.0654883,-0.0247071,-0.1028994,-0.0464546,-0.078115,-0.0
 544802,0.0120699,-0.003604,0.0298283,0.0296019,-0.113954,0.1059676,0.0
 211943,0.076812,-0.0238438,0.0495611,-0.0056729,0.0741093,-0.0199828,0
 .0348957,-0.0102143,0.0372361,-0.0315004,-0.1193547,0.0553671,0.025497
 1,-0.0258047,-0.0235323,-0.1247191,0.0411708,-0.013026,0.0783488,0.015
 3554,-0.1591224,0.0258381,-0.0268616,0.054385,0.0409714,-0.0096917,-0.
 0068907,-0.0122183,0.0616612,0.0390815,-0.0722304,-0.0518972,-0.053491
 ,-0.0375379,-0.0841226,-0.0172202,-0.0625855,-0.0364417,0.058575,0.034
 854,-0.0067598,-0.0014015,-0.0950513,0.102533,0.0227443,0.060528,-0.01
 75202,-0.1575375,0.0476439,0.0138548,0.0487249,0.0607656,0.0016057,-0.
 0208051,0.005809,0.0402821\Polar=55.1915477,0.394112,47.0225669,-0.527
 1326,1.1218978,48.8040958\Quadrupole=-0.0687655,0.1295154,-0.06075,-0.
 0414417,0.017652,-0.1213051\PG=C01 [X(C4H10)]\NImag=0\\0.47610157,-0.0
 0443053,0.54948037,-0.03983540,-0.02839970,0.57418830,-0.18016960,0.03
 477417,-0.01199429,0.48440387,0.03519920,-0.09237913,0.00512377,0.0342
 2409,0.58964799,-0.01150372,0.00191103,-0.08236899,0.03213582,0.000094
 82,0.52571808,-0.11426972,-0.04055567,-0.03475766,-0.02322234,-0.02203
 459,-0.01942678,0.54982912,-0.04267990,-0.12966697,-0.04232735,0.00291
 118,0.00761814,0.00613318,-0.03826437,0.53187684,-0.03318497,-0.041791
 13,-0.11571776,-0.00549768,-0.00110482,-0.00156346,-0.02774771,-0.0312
 5402,0.54785941,-0.01985942,0.00303091,0.03135750,-0.10480803,0.003865
 59,0.04759787,0.00006821,0.00042981,0.00025619,0.55794714,0.00631634,-
 0.00101956,-0.00930745,0.00138835,-0.08050389,-0.00661151,0.00019950,-
 0.00001611,0.00160000,-0.00040950,0.57218416,0.00343203,-0.00047157,0.
 00371129,0.04830647,-0.00740814,-0.17434220,-0.00033462,0.00049395,0.0
 0161474,0.04259551,-0.00260740,0.49943378,-0.04675560,0.00173886,0.000
 73615,-0.00282991,0.03058699,-0.01444672,-0.00055199,-0.01840822,0.008
 16391,0.00193999,0.00034482,-0.00129278,0.05424493,0.00200869,-0.25589
 020,0.09964624,0.00105737,-0.01006569,0.00526118,-0.00078679,-0.019784
 76,0.00823265,-0.00083900,0.00029757,0.00001773,-0.00157922,0.28044120
 ,0.00062218,0.10085208,-0.09730629,-0.00043635,0.00351485,-0.00246776,
 -0.00040848,-0.01886749,0.00785381,0.00008465,-0.00129701,0.00069422,0
 .00325941,-0.10878587,0.10326891,-0.08790830,0.01083554,0.09552249,-0.
 01434316,0.00229261,0.03007770,0.00683413,-0.00251813,-0.02018717,-0.0
 0594225,0.00224250,-0.00283541,-0.00039276,-0.00046194,-0.00061982,0.1
 0084452,0.01014824,-0.05223648,-0.02152644,0.00518728,-0.00190852,-0.0
 1019320,0.00777716,-0.00267398,-0.02126482,0.00167260,-0.00006133,0.00
 113020,-0.01221278,0.00329060,0.02695028,-0.01024977,0.05362657,0.0959
 5090,-0.02227289,-0.26462460,-0.00266416,0.00083000,0.00414705,0.00557
 880,-0.00208776,-0.01699101,-0.00038283,0.00028874,0.00104697,0.005415
 49,-0.00083355,-0.01311334,-0.10175072,0.02695988,0.28753226,-0.017010
 51,-0.02179048,-0.01856838,-0.10766908,-0.08172680,-0.07541192,-0.0057
 5202,0.00396125,0.00057064,0.00760621,0.01236423,0.01177997,0.00124363
 ,0.00034056,-0.00016651,0.00095360,-0.00054636,0.00065551,0.12176805,0
 .00694221,0.00716457,0.00749740,-0.08254781,-0.15882070,-0.09840278,0.
 00159524,-0.00027928,0.00015889,-0.00016241,-0.00110007,-0.00101885,-0
 .00069119,0.00057802,0.00005754,-0.00087829,0.00031986,0.00007070,0.08
 794374,0.16848104,-0.00150663,-0.00173570,-0.00225869,-0.07509254,-0.0
 9774172,-0.13827964,-0.00042639,0.00083417,0.00107470,-0.01287974,-0.0
 2032220,-0.01933700,-0.00001063,-0.00000337,-0.00021405,0.00002402,0.0
 0040382,0.00058024,0.07924251,0.10913483,0.15175433,-0.00287843,0.0300
 8140,-0.01535843,-0.04706656,0.00054719,-0.00206675,0.00205226,0.00125
 476,0.00027895,-0.00040627,-0.01509734,0.00828563,-0.00608846,0.002095
 41,-0.00095131,0.00126218,-0.00049862,0.00045315,-0.00024927,-0.014175
 24,0.00775401,0.05377163,0.00104491,-0.01088064,0.00456444,0.00090921,
 -0.25209862,0.10379541,-0.00066972,0.00113711,-0.00059829,-0.00015261,
 0.00359264,-0.00204374,0.00230242,0.00079845,-0.00049384,0.00025102,0.
 00005732,-0.00039353,0.00019979,-0.01911199,0.00913531,-0.00405467,0.2
 7338437,-0.00033306,0.00299592,-0.00160429,-0.00226604,0.10262534,-0.1
 0078699,0.00044255,0.00054050,-0.00025759,0.00071243,0.02689966,-0.015
 66929,-0.00045708,0.00017794,0.00084907,-0.00027414,-0.00035361,0.0002
 8810,0.00083669,-0.01716981,0.00914575,-0.00070817,-0.11403634,0.11079
 913,0.00704554,-0.00002149,-0.01903842,0.00098743,0.00057583,-0.000164
 46,-0.07403203,0.00375940,0.08133440,-0.00083351,0.00040185,0.00027176
 ,0.00075992,0.00065995,0.00077920,-0.00188337,-0.00256859,-0.00254417,
 0.00011514,-0.00001436,0.00032279,-0.00010730,-0.00001303,-0.00001112,
 0.07998184,0.00792932,-0.00167036,-0.02190895,0.00044557,0.00028988,0.
 00068104,0.00384273,-0.04791278,-0.00930651,0.00002511,0.00053264,0.00
 014730,0.00090390,0.00066637,0.00038549,-0.00319952,-0.00231255,-0.002
 67638,0.00011302,-0.00000606,0.00004744,-0.00007791,0.00002415,0.00002
 313,-0.00248600,0.04968376,0.00518776,-0.00084650,-0.01639402,0.000863
 70,-0.00011498,-0.00032175,0.08021854,-0.00977784,-0.28838352,0.000436
 07,-0.00081532,-0.00031384,-0.00005466,-0.00012531,0.00093656,-0.00246
 791,-0.00251318,-0.00028554,-0.00017154,0.00002041,0.00019464,-0.00005
 574,-0.00004610,0.00001931,-0.08830870,0.01362958,0.31373171,-0.000505
 89,-0.01821967,0.00780011,0.00133944,-0.00119692,0.00118070,-0.0477308
 4,0.01140634,-0.00377476,-0.00007570,0.00007151,-0.00001527,-0.0018221
 0,-0.00275497,-0.00244872,0.00042443,0.00082830,0.00011661,0.00026600,
 0.00026976,-0.00003898,-0.00009524,0.00051566,-0.00040260,-0.00038467,
 -0.01053160,0.00383845,0.04847329,0.00017644,-0.02076757,0.00825518,0.
 00128268,0.00105532,0.00060341,0.01114733,-0.26904344,0.09573074,-0.00
 032056,0.00009612,0.00001841,-0.00238243,-0.00136998,-0.00325473,0.000
 43353,0.00039796,-0.00024654,0.00020444,0.00041087,-0.00020250,-0.0009
 7508,0.00054360,-0.00027928,-0.00028200,0.00223769,-0.00063588,-0.0094
 2818,0.29500494,0.00041782,-0.01804082,0.00770486,0.00085209,-0.000122
 48,0.00095458,-0.00379836,0.09607382,-0.08858705,0.00007163,0.00013304
 ,0.00006312,-0.00264877,-0.00277095,-0.00128549,0.00080907,0.00037078,
 0.00067822,0.00031339,0.00000747,-0.00005178,0.00012550,0.00049329,-0.
 00007446,-0.00273846,0.02878869,-0.01137922,0.00671239,-0.10346285,0.0
 9294215,-0.01595099,0.00620619,0.00068514,-0.00036734,-0.00365301,-0.0
 0217314,-0.29261103,0.07772929,0.00025052,0.00038740,0.00009385,-0.000
 32054,0.00019470,-0.00029036,0.00045685,0.00087870,0.00027000,-0.00030
 746,-0.00121684,0.00035934,-0.00006404,0.00023708,0.00002468,0.0000532
 7,-0.00934841,0.00289788,0.00015700,-0.00007386,0.00030232,-0.00007617
 ,0.31782260,-0.02232176,0.00710115,0.00039802,-0.00149129,-0.00309485,
 -0.00235927,0.07859574,-0.07176274,0.00074687,0.00011020,-0.00008146,-
 0.00037351,0.00045987,0.00055311,0.00083297,0.00076435,0.00090561,0.00
 048930,-0.00116333,0.00048717,-0.00034284,-0.00015505,0.00021915,-0.00
 028230,0.00012870,-0.00132093,0.00006986,0.02878543,-0.00840237,-0.001
 37154,-0.08376566,0.07525561,-0.01835137,0.00684662,-0.00105851,-0.001
 41491,-0.00347535,-0.00218787,0.00103264,0.00051085,-0.04641910,0.0003
 3876,-0.00051728,-0.00036373,0.00065398,0.00005167,0.00045276,0.000234
 21,0.00081988,0.00039161,-0.00133327,0.00006388,0.00001810,0.00037720,
 -0.00020108,0.00010826,0.03005294,-0.01003821,0.00102259,-0.01306773,0
 .00341442,-0.00074252,0.00138871,0.00181211,0.04812586,0.00086886,0.00
 043714,-0.00043360,0.00763806,0.01287687,0.00923945,-0.00091209,0.0000
 7985,-0.00045390,-0.09072377,-0.07756498,-0.06265248,-0.00009599,0.000
 00942,0.00002506,0.00009778,-0.00025448,-0.00017993,-0.00118246,0.0006
 1257,0.00333592,0.00062701,-0.00017977,-0.00097643,-0.00246719,0.00024
 771,0.00037160,0.00003208,-0.00021881,-0.00000249,0.00013684,-0.000009
 08,0.00007178,0.09809843,-0.00052956,-0.00036959,-0.00055615,0.0003337
 8,-0.00068692,-0.00011537,-0.00036436,0.00033159,-0.00092552,-0.076671
 74,-0.18477909,-0.10977113,-0.00000044,0.00003199,-0.00004083,0.000212
 10,0.00009072,0.00008152,0.00018745,0.00144256,0.00019922,0.00058260,0
 .00069483,-0.00009920,0.00004074,0.00018738,0.00072876,0.00006240,-0.0
 0023002,0.00007734,-0.00008055,0.00004821,0.00050598,0.08526350,0.1968
 7352,-0.00091791,0.00017778,0.00045627,-0.01270988,-0.02143786,-0.0179
 6996,-0.00021119,-0.00000937,-0.00003420,-0.06202080,-0.10924450,-0.13
 482547,0.00010674,0.00002417,0.00000017,0.00001992,0.00014216,0.000115
 22,0.00378325,-0.00002378,-0.00474156,-0.00064148,0.00046856,0.0010410
 4,-0.00012270,0.00005562,0.00079342,0.00018791,0.00011540,-0.00017323,
 -0.00007621,0.00022905,0.00033319,0.06705977,0.12109418,0.14842535,0.0
 0115054,-0.00164026,0.00022766,-0.00045354,-0.01472157,0.00837787,-0.0
 0006754,0.00005350,-0.00002429,-0.04805766,0.01109622,-0.00735925,-0.0
 0004738,0.00057463,-0.00011751,0.00021695,0.00016077,-0.00020341,0.000
 28709,0.00040159,-0.00068263,-0.00115204,0.00031882,0.00336732,0.00002
 092,-0.00011898,-0.00017446,0.00016426,0.00013297,-0.00005554,-0.00001
 393,0.00004785,-0.00007168,0.00002923,-0.01186445,0.00754672,0.0481262
 6,0.00004578,0.00083106,-0.00036413,-0.00018299,0.00271372,-0.00112530
 ,-0.00024084,0.00001086,0.00008560,0.01099030,-0.24808704,0.11210491,-
 0.00067095,0.00005239,0.00018523,-0.00013921,0.00020976,-0.00012300,-0
 .00032956,0.00051346,0.00052455,0.00074549,0.00154137,-0.00074520,-0.0
 0014037,-0.00027562,0.00005399,0.00010724,0.00005989,-0.00014738,-0.00
 005649,0.00003412,0.00000031,0.00218657,-0.01956906,0.01141174,-0.0125
 0468,0.26776782,-0.00150897,0.00059755,0.00136776,-0.00056830,0.027034
 77,-0.01582876,0.00022911,-0.00006789,0.00014023,-0.00715472,0.1117411
 9,-0.10921663,0.00071101,-0.00074221,0.00036889,-0.00037467,-0.0003536
 5,0.00019839,-0.00081689,-0.00015650,0.00070003,0.00317112,-0.00118376
 ,-0.00486692,0.00016596,0.00007493,-0.00011649,-0.00010203,-0.00009982
 ,-0.00010996,0.00005408,0.00005795,0.00003636,0.00207604,-0.01663744,0
 .01001361,0.00442652,-0.12409385,0.12052633,0.00014193,-0.00044611,0.0
 0365713,-0.01343925,0.00316451,-0.00341592,0.00036589,0.00028522,0.000
 01588,-0.29724235,0.05855264,-0.03986100,0.00020103,-0.00003376,-0.000
 07865,-0.00104245,0.00028627,-0.00013777,0.00084046,0.00034484,0.00002
 234,0.00009340,-0.00049673,0.00001637,0.00014568,0.00000878,0.00015989
 ,-0.00001121,-0.00007263,0.00001791,-0.00007494,0.00001404,0.00008875,
 -0.01214678,0.00282852,-0.00200413,-0.00020317,0.00018972,-0.00030826,
 0.32237174,0.00015062,0.00030335,-0.00109489,0.00170841,-0.00176675,0.
 00032736,-0.00024138,0.00016552,-0.00030965,0.05843129,-0.06105459,0.0
 0978183,-0.00039163,0.00040091,-0.00003867,0.00041521,0.00029446,-0.00
 008649,0.00024203,-0.00007945,0.00006901,-0.00027293,0.00009826,-0.000
 29675,-0.00004064,-0.00012358,0.00037250,0.00008472,0.00000699,-0.0000
 2841,-0.00003747,0.00005822,0.00020621,-0.02348649,0.00593388,-0.00300
 315,0.02806359,-0.00580275,0.00382874,-0.06462531,0.06156552,0.0015313
 4,0.00017733,-0.00609534,0.03048609,-0.00781820,0.00529766,-0.00039044
 ,-0.00019476,-0.00058920,-0.04101253,0.01006002,-0.05249595,-0.0001360
 4,-0.00015032,-0.00003745,0.00182244,-0.00057210,0.00003642,-0.0007134
 4,-0.00023940,0.00141493,-0.00066367,0.00053968,0.00100888,0.00000097,
 0.00009683,0.00049614,0.00001393,0.00004405,0.00006076,-0.00002802,0.0
 0009333,0.00028300,-0.01748078,0.00545865,-0.00343385,-0.01525731,0.00
 223253,-0.00321284,0.04182746,-0.00972763,0.05726683\\0.,-0.00000006,0
 .00000009,0.00000006,0.00000017,-0.00000008,0.00000005,-0.00000038,0.0
 0000011,-0.00000011,0.00000036,-0.00000015,-0.00000030,-0.00000020,0.0
 0000012,0.00000003,-0.00000024,0.00000012,-0.00000002,0.00000026,-0.00
 000014,0.00000034,0.00000015,-0.00000010,-0.00000009,-0.00000026,0.000
 00016,0.00000031,-0.00000034,0.00000012,-0.00000002,-0.00000060,0.0000
 0028,0.00000007,0.00000027,-0.00000012,-0.00000033,0.00000032,-0.00000
 014,0.00000003,0.00000056,-0.00000028\\\@


 "ANNA, YOU MUSN'T SPEAK OF OXIDIZED MURIATIC ACID
 ANYMORE, FROM NOW ON YOU MUST SAY CHLORINE."
   -- JENS JACOB BERZELIUS, IN 1820, TO HIS COOK, WHO HAD
 COMPLAINED OF THE SMELL OF THE FLASK SHE WAS CLEANING.
 Job cpu time:       0 days  0 hours 49 minutes  0.8 seconds.
 Elapsed time:       0 days  0 hours  2 minutes 27.5 seconds.
 File lengths (MBytes):  RWF=   1328 Int=      0 D2E=      0 Chk=     32 Scr=     32
 Normal termination of Gaussian 16 at Mon Apr  8 16:48:28 2019.
