 Entering Gaussian System, Link 0=g16
 Input=BWWHSGPVJDTLAO-UHFFFAOYSA-N_GeoFreq_a1.com
 Output=BWWHSGPVJDTLAO-UHFFFAOYSA-N_GeoFreq_a1.log
 Initial command:
 /shared/centos7/gaussian/g16/l1.exe "/scratch/underkoffler.c/gaussian_scratch/Gau-20326.inp" -scrdir="/scratch/underkoffler.c/gaussian_scratch/"
 Entering Link 1 = /shared/centos7/gaussian/g16/l1.exe PID=     20327.
  
 Copyright (c) 1988,1990,1992,1993,1995,1998,2003,2009,2016,
            Gaussian, Inc.  All Rights Reserved.
  
 This is part of the Gaussian(R) 16 program.  It is based on
 the Gaussian(R) 09 system (copyright 2009, Gaussian, Inc.),
 the Gaussian(R) 03 system (copyright 2003, Gaussian, Inc.),
 the Gaussian(R) 98 system (copyright 1998, Gaussian, Inc.),
 the Gaussian(R) 94 system (copyright 1995, Gaussian, Inc.),
 the Gaussian 92(TM) system (copyright 1992, Gaussian, Inc.),
 the Gaussian 90(TM) system (copyright 1990, Gaussian, Inc.),
 the Gaussian 88(TM) system (copyright 1988, Gaussian, Inc.),
 the Gaussian 86(TM) system (copyright 1986, Carnegie Mellon
 University), and the Gaussian 82(TM) system (copyright 1983,
 Carnegie Mellon University). Gaussian is a federally registered
 trademark of Gaussian, Inc.
  
 This software contains proprietary and confidential information,
 including trade secrets, belonging to Gaussian, Inc.
  
 This software is provided under written license and may be
 used, copied, transmitted, or stored only in accord with that
 written license.
  
 The following legend is applicable only to US Government
 contracts under FAR:
  
                    RESTRICTED RIGHTS LEGEND
  
 Use, reproduction and disclosure by the US Government is
 subject to restrictions as set forth in subparagraphs (a)
 and (c) of the Commercial Computer Software - Restricted
 Rights clause in FAR 52.227-19.
  
 Gaussian, Inc.
 340 Quinnipiac St., Bldg. 40, Wallingford CT 06492
  
  
 ---------------------------------------------------------------
 Warning -- This program may not be used in any manner that
 competes with the business of Gaussian, Inc. or will provide
 assistance to any competitor of Gaussian, Inc.  The licensee
 of this program is prohibited from giving any competitor of
 Gaussian, Inc. access to this program.  By using this program,
 the user acknowledges that Gaussian, Inc. is engaged in the
 business of creating and licensing software in the field of
 computational chemistry and represents and warrants to the
 licensee that it is not a competitor of Gaussian, Inc. and that
 it will not use this program in any manner prohibited above.
 ---------------------------------------------------------------
  

 Cite this work as:
 Gaussian 16, Revision A.03,
 M. J. Frisch, G. W. Trucks, H. B. Schlegel, G. E. Scuseria, 
 M. A. Robb, J. R. Cheeseman, G. Scalmani, V. Barone, 
 G. A. Petersson, H. Nakatsuji, X. Li, M. Caricato, A. V. Marenich, 
 J. Bloino, B. G. Janesko, R. Gomperts, B. Mennucci, H. P. Hratchian, 
 J. V. Ortiz, A. F. Izmaylov, J. L. Sonnenberg, D. Williams-Young, 
 F. Ding, F. Lipparini, F. Egidi, J. Goings, B. Peng, A. Petrone, 
 T. Henderson, D. Ranasinghe, V. G. Zakrzewski, J. Gao, N. Rega, 
 G. Zheng, W. Liang, M. Hada, M. Ehara, K. Toyota, R. Fukuda, 
 J. Hasegawa, M. Ishida, T. Nakajima, Y. Honda, O. Kitao, H. Nakai, 
 T. Vreven, K. Throssell, J. A. Montgomery, Jr., J. E. Peralta, 
 F. Ogliaro, M. J. Bearpark, J. J. Heyd, E. N. Brothers, K. N. Kudin, 
 V. N. Staroverov, T. A. Keith, R. Kobayashi, J. Normand, 
 K. Raghavachari, A. P. Rendell, J. C. Burant, S. S. Iyengar, 
 J. Tomasi, M. Cossi, J. M. Millam, M. Klene, C. Adamo, R. Cammi, 
 J. W. Ochterski, R. L. Martin, K. Morokuma, O. Farkas, 
 J. B. Foresman, and D. J. Fox, Gaussian, Inc., Wallingford CT, 2016.
 
 ******************************************
 Gaussian 16:  EM64L-G16RevA.03 25-Dec-2016
                10-Mar-2019 
 ******************************************
 %nprocshared=20
 Will use up to   20 processors via shared memory.
 %mem=5GB
 ----------------------------------------------------------------------
 #p m062x/6-311+g(2df,2p) opt=(calcfc,verytight,gdiis,maxcycles=900) fr
 eq iop(7/33=1,2/16=3)
 ----------------------------------------------------------------------

 Warning!  Use of Opt=GDIIS is deprecated since it is seldom a good choice.

 1/6=900,7=1,10=4,18=20,19=11,26=3,38=1/1,3;
 2/9=110,12=2,16=3,17=6,18=5,40=1/2;
 3/5=4,6=6,7=214,11=2,25=1,30=1,71=2,74=-55,140=1/1,2,3;
 4//1;
 5/5=2,38=5/2;
 8/6=4,10=90,11=11/1;
 11/6=1,8=1,9=11,15=111,16=1/1,2,10;
 10/6=1,13=1/2;
 6/7=2,8=2,9=2,10=2,28=1/1;
 7/10=1,18=20,25=1,33=1/1,2,3,16;
 1/6=900,7=1,10=4,18=20,19=11,26=3/3(2);
 2/9=110,16=3/2;
 99//99;
 2/9=110,16=3/2;
 3/5=4,6=6,7=214,11=2,25=1,30=1,71=1,74=-55/1,2,3;
 4/5=5,16=3,69=1/1;
 5/5=2,38=5/2;
 7/33=1/1,2,3,16;
 1/6=900,7=1,18=20,19=11,26=3/3(-5);
 2/9=110,16=3/2;
 6/7=2,8=2,9=2,10=2,19=2,28=1/1;
 99/9=1/99;
 Leave Link    1 at Sun Mar 10 20:13:45 2019, MaxMem=   671088640 cpu:              16.9 elap:               0.9
 (Enter /shared/centos7/gaussian/g16/l101.exe)
 ------------------------------
 Gaussian input prepared by ASE
 ------------------------------
 Symbolic Z-matrix:
 Charge =  0 Multiplicity = 2
 O                     1.08397  -0.29286  -0.58031 
 C                    -0.16085  -0.04033   0.18111 
 C                    -0.3086    1.42868   0.4974 
 C                    -1.32236  -0.60522  -0.59702 
 C                     2.22416   0.05746   0.18327 
 H                    -0.06298  -0.60463   1.15512 
 H                     0.646     1.81014   0.94798 
 H                    -1.13927   1.59077   1.22834 
 H                    -0.53118   2.03436  -0.41691 
 H                    -2.27823  -0.46506  -0.03237 
 H                    -1.43156  -0.0929   -1.58578 
 H                    -1.1855   -1.69987  -0.78758 
 H                     2.03588   0.96328   0.82978 
 H                     3.10468   0.15863  -0.50145 
 
 Add atom      5 valence  3 ND=      2 dihedral       1      5     13     14
 ITRead=  0  0  0  0  0  0  0  0  0  0  0  0  0  0
 MicOpt= -1 -1 -1 -1 -1 -1 -1 -1 -1 -1 -1 -1 -1 -1
 NAtoms=     14 NQM=       14 NQMF=       0 NMMI=      0 NMMIF=      0
                NMic=       0 NMicF=      0.
                    Isotopes and Nuclear Properties:
 (Nuclear quadrupole moments (NQMom) in fm**2, nuclear magnetic moments (NMagM)
  in nuclear magnetons)

  Atom         1           2           3           4           5           6           7           8           9          10
 IAtWgt=          16          12          12          12          12           1           1           1           1           1
 AtmWgt=  15.9949146  12.0000000  12.0000000  12.0000000  12.0000000   1.0078250   1.0078250   1.0078250   1.0078250   1.0078250
 NucSpn=           0           0           0           0           0           1           1           1           1           1
 AtZEff=  -0.0000000  -0.0000000  -0.0000000  -0.0000000  -0.0000000  -0.0000000  -0.0000000  -0.0000000  -0.0000000  -0.0000000
 NQMom=    0.0000000   0.0000000   0.0000000   0.0000000   0.0000000   0.0000000   0.0000000   0.0000000   0.0000000   0.0000000
 NMagM=    0.0000000   0.0000000   0.0000000   0.0000000   0.0000000   2.7928460   2.7928460   2.7928460   2.7928460   2.7928460
 AtZNuc=   8.0000000   6.0000000   6.0000000   6.0000000   6.0000000   1.0000000   1.0000000   1.0000000   1.0000000   1.0000000

  Atom        11          12          13          14
 IAtWgt=           1           1           1           1
 AtmWgt=   1.0078250   1.0078250   1.0078250   1.0078250
 NucSpn=           1           1           1           1
 AtZEff=  -0.0000000  -0.0000000  -0.0000000  -0.0000000
 NQMom=    0.0000000   0.0000000   0.0000000   0.0000000
 NMagM=    2.7928460   2.7928460   2.7928460   2.7928460
 AtZNuc=   1.0000000   1.0000000   1.0000000   1.0000000
 Leave Link  101 at Sun Mar 10 20:13:46 2019, MaxMem=   671088640 cpu:               5.3 elap:               0.3
 (Enter /shared/centos7/gaussian/g16/l103.exe)

 GradGradGradGradGradGradGradGradGradGradGradGradGradGradGradGradGradGrad
 Berny optimization.
 Initialization pass.
                           ----------------------------
                           !    Initial Parameters    !
                           ! (Angstroms and Degrees)  !
 --------------------------                            --------------------------
 ! Name  Definition              Value          Derivative Info.                !
 --------------------------------------------------------------------------------
 ! R1    R(1,2)                  1.4809         calculate D2E/DX2 analytically  !
 ! R2    R(1,5)                  1.4163         calculate D2E/DX2 analytically  !
 ! R3    R(2,3)                  1.5099         calculate D2E/DX2 analytically  !
 ! R4    R(2,4)                  1.5079         calculate D2E/DX2 analytically  !
 ! R5    R(2,6)                  1.1299         calculate D2E/DX2 analytically  !
 ! R6    R(3,7)                  1.1224         calculate D2E/DX2 analytically  !
 ! R7    R(3,8)                  1.1183         calculate D2E/DX2 analytically  !
 ! R8    R(3,9)                  1.1191         calculate D2E/DX2 analytically  !
 ! R9    R(4,10)                 1.119          calculate D2E/DX2 analytically  !
 ! R10   R(4,11)                 1.1189         calculate D2E/DX2 analytically  !
 ! R11   R(4,12)                 1.1195         calculate D2E/DX2 analytically  !
 ! R12   R(5,13)                 1.1287         calculate D2E/DX2 analytically  !
 ! R13   R(5,14)                 1.12           calculate D2E/DX2 analytically  !
 ! A1    A(2,1,5)              110.9364         calculate D2E/DX2 analytically  !
 ! A2    A(1,2,3)              110.8462         calculate D2E/DX2 analytically  !
 ! A3    A(1,2,4)              108.5593         calculate D2E/DX2 analytically  !
 ! A4    A(1,2,6)              106.5732         calculate D2E/DX2 analytically  !
 ! A5    A(3,2,4)              113.4029         calculate D2E/DX2 analytically  !
 ! A6    A(3,2,6)              108.2877         calculate D2E/DX2 analytically  !
 ! A7    A(4,2,6)              108.9332         calculate D2E/DX2 analytically  !
 ! A8    A(2,3,7)              109.3607         calculate D2E/DX2 analytically  !
 ! A9    A(2,3,8)              110.5253         calculate D2E/DX2 analytically  !
 ! A10   A(2,3,9)              112.017          calculate D2E/DX2 analytically  !
 ! A11   A(7,3,8)              108.6688         calculate D2E/DX2 analytically  !
 ! A12   A(7,3,9)              108.2521         calculate D2E/DX2 analytically  !
 ! A13   A(8,3,9)              107.9294         calculate D2E/DX2 analytically  !
 ! A14   A(2,4,10)             110.5292         calculate D2E/DX2 analytically  !
 ! A15   A(2,4,11)             111.0789         calculate D2E/DX2 analytically  !
 ! A16   A(2,4,12)             111.0987         calculate D2E/DX2 analytically  !
 ! A17   A(10,4,11)            107.7691         calculate D2E/DX2 analytically  !
 ! A18   A(10,4,12)            108.2274         calculate D2E/DX2 analytically  !
 ! A19   A(11,4,12)            108.0113         calculate D2E/DX2 analytically  !
 ! A20   A(1,5,13)             111.9031         calculate D2E/DX2 analytically  !
 ! A21   A(1,5,14)             109.0052         calculate D2E/DX2 analytically  !
 ! A22   A(13,5,14)            114.1316         calculate D2E/DX2 analytically  !
 ! D1    D(5,1,2,3)             62.5784         calculate D2E/DX2 analytically  !
 ! D2    D(5,1,2,4)           -172.2392         calculate D2E/DX2 analytically  !
 ! D3    D(5,1,2,6)            -55.0442         calculate D2E/DX2 analytically  !
 ! D4    D(2,1,5,13)           -35.5686         calculate D2E/DX2 analytically  !
 ! D5    D(2,1,5,14)          -162.7634         calculate D2E/DX2 analytically  !
 ! D6    D(1,2,3,7)            -49.8485         calculate D2E/DX2 analytically  !
 ! D7    D(1,2,3,8)           -169.4416         calculate D2E/DX2 analytically  !
 ! D8    D(1,2,3,9)             70.1631         calculate D2E/DX2 analytically  !
 ! D9    D(4,2,3,7)           -172.2545         calculate D2E/DX2 analytically  !
 ! D10   D(4,2,3,8)             68.1524         calculate D2E/DX2 analytically  !
 ! D11   D(4,2,3,9)            -52.2429         calculate D2E/DX2 analytically  !
 ! D12   D(6,2,3,7)             66.722          calculate D2E/DX2 analytically  !
 ! D13   D(6,2,3,8)            -52.8711         calculate D2E/DX2 analytically  !
 ! D14   D(6,2,3,9)           -173.2663         calculate D2E/DX2 analytically  !
 ! D15   D(1,2,4,10)           177.9422         calculate D2E/DX2 analytically  !
 ! D16   D(1,2,4,11)           -62.4814         calculate D2E/DX2 analytically  !
 ! D17   D(1,2,4,12)            57.7777         calculate D2E/DX2 analytically  !
 ! D18   D(3,2,4,10)           -58.3924         calculate D2E/DX2 analytically  !
 ! D19   D(3,2,4,11)            61.184          calculate D2E/DX2 analytically  !
 ! D20   D(3,2,4,12)          -178.5569         calculate D2E/DX2 analytically  !
 ! D21   D(6,2,4,10)            62.2671         calculate D2E/DX2 analytically  !
 ! D22   D(6,2,4,11)          -178.1566         calculate D2E/DX2 analytically  !
 ! D23   D(6,2,4,12)           -57.8975         calculate D2E/DX2 analytically  !
 ! D24   D(1,5,13,14)         -124.3826         calculate D2E/DX2 analytically  !
 --------------------------------------------------------------------------------
 Trust Radius=3.00D-01 FncErr=1.00D-07 GrdErr=1.00D-06 EigMax=2.50D+02 EigMin=1.00D-04
 Number of steps in this run=    100 maximum allowed number of steps=    100.
 GradGradGradGradGradGradGradGradGradGradGradGradGradGradGradGradGradGrad

 Leave Link  103 at Sun Mar 10 20:13:46 2019, MaxMem=   671088640 cpu:               0.2 elap:               0.0
 (Enter /shared/centos7/gaussian/g16/l202.exe)
                          Input orientation:                          
 ---------------------------------------------------------------------
 Center     Atomic      Atomic             Coordinates (Angstroms)
 Number     Number       Type             X           Y           Z
 ---------------------------------------------------------------------
      1          8           0        1.083972   -0.292862   -0.580312
      2          6           0       -0.160851   -0.040330    0.181107
      3          6           0       -0.308602    1.428681    0.497399
      4          6           0       -1.322362   -0.605215   -0.597018
      5          6           0        2.224162    0.057455    0.183273
      6          1           0       -0.062981   -0.604631    1.155120
      7          1           0        0.646004    1.810137    0.947979
      8          1           0       -1.139266    1.590768    1.228345
      9          1           0       -0.531177    2.034364   -0.416914
     10          1           0       -2.278232   -0.465059   -0.032370
     11          1           0       -1.431560   -0.092902   -1.585776
     12          1           0       -1.185503   -1.699869   -0.787579
     13          1           0        2.035880    0.963277    0.829775
     14          1           0        3.104682    0.158627   -0.501451
 ---------------------------------------------------------------------
                    Distance matrix (angstroms):
                    1          2          3          4          5
     1  O    0.000000
     2  C    1.480917   0.000000
     3  C    2.462607   1.509922   0.000000
     4  C    2.426579   1.507874   2.522338   0.000000
     5  C    1.416268   2.387017   2.897210   3.691316   0.000000
     6  H    2.103432   1.129919   2.151112   2.157784   2.571744
     7  H    2.636303   2.159475   1.122410   3.477845   2.479364
     8  H    3.429590   2.171286   1.118283   2.861436   3.841337
     9  H    2.837496   2.190690   1.119089   2.761483   3.443876
    10  H    3.410910   2.170085   2.783226   1.118999   4.537738
    11  H    2.716403   2.177003   2.813515   1.118942   4.064043
    12  H    2.678272   2.177690   3.493987   1.119513   3.956836
    13  H    2.114796   2.500725   2.413229   3.971611   1.128684
    14  H    2.072035   3.342031   3.776407   4.493474   1.120000
                    6          7          8          9         10
     6  H    0.000000
     7  H    2.525207   0.000000
     8  H    2.446125   1.820416   0.000000
     9  H    3.107216   1.816306   1.809261   0.000000
    10  H    2.517330   3.832591   2.667034   3.073628   0.000000
    11  H    3.106025   3.789162   3.292333   2.588858   1.807878
    12  H    2.496734   4.322813   3.859323   3.809203   1.813602
    13  H    2.639963   1.631839   3.261005   3.048155   4.625473
    14  H    3.655254   3.297488   4.801491   4.092066   5.439190
                   11         12         13         14
    11  H    0.000000
    12  H    1.811079   0.000000
    13  H    4.355863   4.481683   0.000000
    14  H    4.670816   4.684182   1.887316   0.000000
 Stoichiometry    C4H9O(2)
 Framework group  C1[X(C4H9O)]
 Deg. of freedom    36
 Full point group                 C1      NOp   1
 Largest Abelian subgroup         C1      NOp   1
 Largest concise Abelian subgroup C1      NOp   1
                         Standard orientation:                         
 ---------------------------------------------------------------------
 Center     Atomic      Atomic             Coordinates (Angstroms)
 Number     Number       Type             X           Y           Z
 ---------------------------------------------------------------------
      1          8           0       -0.733510   -0.748769    0.261083
      2          6           0        0.406942   -0.001633   -0.317080
      3          6           0        0.393358    1.437515    0.139573
      4          6           0        1.681940   -0.728059    0.029861
      5          6           0       -1.966954   -0.211621   -0.181526
      6          1           0        0.268492   -0.019145   -1.438348
      7          1           0       -0.629423    1.870045   -0.023647
      8          1           0        1.134013    2.040474   -0.442171
      9          1           0        0.646187    1.535544    1.225311
     10          1           0        2.564318   -0.210516   -0.423699
     11          1           0        1.837622   -0.761181    1.137424
     12          1           0        1.661287   -1.781511   -0.348455
     13          1           0       -1.921376    0.910522   -0.293971
     14          1           0       -2.784756   -0.571284    0.493931
 ---------------------------------------------------------------------
 Rotational constants (GHZ):           7.8746167           3.9467200           2.8896845
 Leave Link  202 at Sun Mar 10 20:13:46 2019, MaxMem=   671088640 cpu:               0.2 elap:               0.0
 (Enter /shared/centos7/gaussian/g16/l301.exe)
 Standard basis: 6-311+G(2df,2p) (5D, 7F)
 Ernie: Thresh=  0.10000D-02 Tol=  0.10000D-05 Strict=F.
 There are   276 symmetry adapted cartesian basis functions of A   symmetry.
 There are   251 symmetry adapted basis functions of A   symmetry.
   251 basis functions,   359 primitive gaussians,   276 cartesian basis functions
    21 alpha electrons       20 beta electrons
       nuclear repulsion energy       185.8371499897 Hartrees.
 IExCor= 4336 DFT=T Ex+Corr=M062X ExCW=0 ScaHFX=  0.540000
 ScaDFX=  1.000000  1.000000  1.000000  1.000000 ScalE2=  1.000000  1.000000
 IRadAn=      5 IRanWt=     -1 IRanGd=            0 ICorTp=0 IEmpDi=  4
 NAtoms=   14 NActive=   14 NUniq=   14 SFac= 1.00D+00 NAtFMM=   60 NAOKFM=F Big=F
 Integral buffers will be    131072 words long.
 Raffenetti 2 integral format.
 Two-electron integral symmetry is turned on.
 Leave Link  301 at Sun Mar 10 20:13:46 2019, MaxMem=   671088640 cpu:               1.3 elap:               0.1
 (Enter /shared/centos7/gaussian/g16/l302.exe)
 NPDir=0 NMtPBC=     1 NCelOv=     1 NCel=       1 NClECP=     1 NCelD=      1
         NCelK=      1 NCelE2=     1 NClLst=     1 CellRange=     0.0.
 One-electron integrals computed using PRISM.
 One-electron integral symmetry used in STVInt
 NBasis=   251 RedAO= T EigKep=  4.60D-05  NBF=   251
 NBsUse=   251 1.00D-06 EigRej= -1.00D+00 NBFU=   251
 Precomputing XC quadrature grid using
 IXCGrd= 4 IRadAn=           5 IRanWt=          -1 IRanGd=           0 AccXCQ= 0.00D+00.
 Generated NRdTot=       0 NPtTot=           0 NUsed=           0 NTot=          32
 NSgBfM=   276   276   276   276   276 MxSgAt=    14 MxSgA2=    14.
 Leave Link  302 at Sun Mar 10 20:13:46 2019, MaxMem=   671088640 cpu:               8.9 elap:               0.5
 (Enter /shared/centos7/gaussian/g16/l303.exe)
 DipDrv:  MaxL=1.
 Leave Link  303 at Sun Mar 10 20:13:46 2019, MaxMem=   671088640 cpu:               0.8 elap:               0.1
 (Enter /shared/centos7/gaussian/g16/l401.exe)
 ExpMin= 4.38D-02 ExpMax= 8.59D+03 ExpMxC= 1.30D+03 IAcc=3 IRadAn=         5 AccDes= 0.00D+00
 Harris functional with IExCor= 1009 and IRadAn=       5 diagonalized for initial guess.
 HarFok:  IExCor= 1009 AccDes= 0.00D+00 IRadAn=         5 IDoV= 1 UseB2=F ITyADJ=14
 ICtDFT=  3500011 ScaDFX=  1.000000  1.000000  1.000000  1.000000
 FoFCou: FMM=F IPFlag=           0 FMFlag=      100000 FMFlg1=           0
         NFxFlg=           0 DoJE=T BraDBF=F KetDBF=T FulRan=T
         wScrn=  0.000000 ICntrl=       500 IOpCl=  0 I1Cent=   200000004 NGrid=           0
         NMat0=    1 NMatS0=      1 NMatT0=    0 NMatD0=    1 NMtDS0=    0 NMtDT0=    0
 Petite list used in FoFCou.
 Harris En= -232.849155484414    
 JPrj=0 DoOrth=F DoCkMO=F.
 Initial guess <Sx>= 0.0000 <Sy>= 0.0000 <Sz>= 0.5000 <S**2>= 0.7500 S= 0.5000
 Leave Link  401 at Sun Mar 10 20:13:48 2019, MaxMem=   671088640 cpu:              25.7 elap:               1.3
 (Enter /shared/centos7/gaussian/g16/l502.exe)
 Integral symmetry usage will be decided dynamically.
 UHF open shell SCF:
 Using DIIS extrapolation, IDIIS=  1040.
 NGot=   671088640 LenX=   670928170 LenY=   670851553
 Requested convergence on RMS density matrix=1.00D-08 within 128 cycles.
 Requested convergence on MAX density matrix=1.00D-06.
 Requested convergence on             energy=1.00D-06.
 No special actions if energy rises.
 Fock matrices will be formed incrementally for  20 cycles.

 Cycle   1  Pass 1  IDiag  1:
 FoFJK:  IHMeth= 1 ICntrl=       0 DoSepK=F KAlg= 0 I1Cent=           0 FoldK=F
 IRaf= 990000000 NMat=       1 IRICut=       1 DoRegI=T DoRafI=F ISym2E= 0 IDoP0=0 IntGTp=1.
 FoFCou: FMM=F IPFlag=           0 FMFlag=      100000 FMFlg1=           0
         NFxFlg=           0 DoJE=F BraDBF=F KetDBF=F FulRan=T
         wScrn=  0.000000 ICntrl=         0 IOpCl=  1 I1Cent=           0 NGrid=           0
         NMat0=    1 NMatS0=      1 NMatT0=    0 NMatD0=    1 NMtDS0=    0 NMtDT0=    0
 Symmetry not used in FoFCou.
 E= -232.783332343008    
 DIIS: error= 1.92D-02 at cycle   1 NSaved=   1.
 NSaved= 1 IEnMin= 1 EnMin= -232.783332343008     IErMin= 1 ErrMin= 1.92D-02
 ErrMax= 1.92D-02  0.00D+00 EMaxC= 1.00D-01 BMatC= 7.49D-01 BMatP= 7.49D-01
 IDIUse=3 WtCom= 8.08D-01 WtEn= 1.92D-01
 Coeff-Com:  0.100D+01
 Coeff-En:   0.100D+01
 Coeff:      0.100D+01
 Gap=     0.277 Goal=   None    Shift=    0.000
 Gap=     0.347 Goal=   None    Shift=    0.000
 GapD=    0.277 DampG=1.000 DampE=0.500 DampFc=0.5000 IDamp=-1.
 Damping current iteration by 5.00D-01
 RMSDP=2.27D-03 MaxDP=1.06D-01              OVMax= 1.42D-01

 Cycle   2  Pass 1  IDiag  1:
 RMSU=  1.10D-03    CP:  9.71D-01
 E= -232.866841825797     Delta-E=       -0.083509482790 Rises=F Damp=T
 DIIS: error= 5.04D-03 at cycle   2 NSaved=   2.
 NSaved= 2 IEnMin= 2 EnMin= -232.866841825797     IErMin= 2 ErrMin= 5.04D-03
 ErrMax= 5.04D-03  0.00D+00 EMaxC= 1.00D-01 BMatC= 5.45D-02 BMatP= 7.49D-01
 IDIUse=3 WtCom= 9.50D-01 WtEn= 5.04D-02
 Coeff-Com: -0.152D+00 0.115D+01
 Coeff-En:   0.000D+00 0.100D+01
 Coeff:     -0.144D+00 0.114D+01
 Gap=     0.272 Goal=   None    Shift=    0.000
 Gap=     0.366 Goal=   None    Shift=    0.000
 RMSDP=9.24D-04 MaxDP=5.88D-02 DE=-8.35D-02 OVMax= 6.87D-02

 Cycle   3  Pass 1  IDiag  1:
 RMSU=  8.97D-04    CP:  9.53D-01  1.13D+00
 E= -232.942485510780     Delta-E=       -0.075643684983 Rises=F Damp=F
 DIIS: error= 2.47D-03 at cycle   3 NSaved=   3.
 NSaved= 3 IEnMin= 3 EnMin= -232.942485510780     IErMin= 3 ErrMin= 2.47D-03
 ErrMax= 2.47D-03  0.00D+00 EMaxC= 1.00D-01 BMatC= 5.91D-03 BMatP= 5.45D-02
 IDIUse=3 WtCom= 9.75D-01 WtEn= 2.47D-02
 Coeff-Com: -0.754D-01 0.239D+00 0.837D+00
 Coeff-En:   0.000D+00 0.000D+00 0.100D+01
 Coeff:     -0.736D-01 0.233D+00 0.841D+00
 Gap=     0.279 Goal=   None    Shift=    0.000
 Gap=     0.334 Goal=   None    Shift=    0.000
 RMSDP=1.98D-04 MaxDP=9.34D-03 DE=-7.56D-02 OVMax= 1.18D-02

 Cycle   4  Pass 1  IDiag  1:
 RMSU=  1.91D-04    CP:  9.49D-01  1.16D+00  9.99D-01
 E= -232.943898618197     Delta-E=       -0.001413107417 Rises=F Damp=F
 DIIS: error= 9.14D-04 at cycle   4 NSaved=   4.
 NSaved= 4 IEnMin= 4 EnMin= -232.943898618197     IErMin= 4 ErrMin= 9.14D-04
 ErrMax= 9.14D-04  0.00D+00 EMaxC= 1.00D-01 BMatC= 1.25D-03 BMatP= 5.91D-03
 IDIUse=3 WtCom= 9.91D-01 WtEn= 9.14D-03
 Coeff-Com: -0.220D-01 0.481D-01 0.346D+00 0.628D+00
 Coeff-En:   0.000D+00 0.000D+00 0.000D+00 0.100D+01
 Coeff:     -0.218D-01 0.476D-01 0.343D+00 0.631D+00
 Gap=     0.276 Goal=   None    Shift=    0.000
 Gap=     0.340 Goal=   None    Shift=    0.000
 RMSDP=6.91D-05 MaxDP=4.36D-03 DE=-1.41D-03 OVMax= 1.28D-02

 Cycle   5  Pass 1  IDiag  1:
 RMSU=  5.82D-05    CP:  9.49D-01  1.15D+00  1.02D+00  8.41D-01
 E= -232.944275950412     Delta-E=       -0.000377332215 Rises=F Damp=F
 DIIS: error= 3.19D-04 at cycle   5 NSaved=   5.
 NSaved= 5 IEnMin= 5 EnMin= -232.944275950412     IErMin= 5 ErrMin= 3.19D-04
 ErrMax= 3.19D-04  0.00D+00 EMaxC= 1.00D-01 BMatC= 2.02D-04 BMatP= 1.25D-03
 IDIUse=3 WtCom= 9.97D-01 WtEn= 3.19D-03
 Coeff-Com:  0.372D-02-0.181D-01-0.221D-02 0.227D+00 0.790D+00
 Coeff-En:   0.000D+00 0.000D+00 0.000D+00 0.000D+00 0.100D+01
 Coeff:      0.371D-02-0.181D-01-0.220D-02 0.226D+00 0.790D+00
 Gap=     0.277 Goal=   None    Shift=    0.000
 Gap=     0.340 Goal=   None    Shift=    0.000
 RMSDP=4.47D-05 MaxDP=1.70D-03 DE=-3.77D-04 OVMax= 5.99D-03

 Cycle   6  Pass 1  IDiag  1:
 RMSU=  2.84D-05    CP:  9.49D-01  1.15D+00  1.03D+00  9.90D-01  1.31D+00
 E= -232.944370790923     Delta-E=       -0.000094840511 Rises=F Damp=F
 DIIS: error= 1.84D-04 at cycle   6 NSaved=   6.
 NSaved= 6 IEnMin= 6 EnMin= -232.944370790923     IErMin= 6 ErrMin= 1.84D-04
 ErrMax= 1.84D-04  0.00D+00 EMaxC= 1.00D-01 BMatC= 4.50D-05 BMatP= 2.02D-04
 IDIUse=3 WtCom= 9.98D-01 WtEn= 1.84D-03
 Coeff-Com:  0.738D-02-0.182D-01-0.986D-01-0.614D-01 0.208D+00 0.963D+00
 Coeff-En:   0.000D+00 0.000D+00 0.000D+00 0.000D+00 0.000D+00 0.100D+01
 Coeff:      0.737D-02-0.182D-01-0.984D-01-0.613D-01 0.208D+00 0.963D+00
 Gap=     0.278 Goal=   None    Shift=    0.000
 Gap=     0.340 Goal=   None    Shift=    0.000
 RMSDP=4.18D-05 MaxDP=1.86D-03 DE=-9.48D-05 OVMax= 7.11D-03

 Cycle   7  Pass 1  IDiag  1:
 RMSU=  1.80D-05    CP:  9.49D-01  1.14D+00  1.03D+00  1.12D+00  1.69D+00
                    CP:  1.49D+00
 E= -232.944412253064     Delta-E=       -0.000041462141 Rises=F Damp=F
 DIIS: error= 1.22D-04 at cycle   7 NSaved=   7.
 NSaved= 7 IEnMin= 7 EnMin= -232.944412253064     IErMin= 7 ErrMin= 1.22D-04
 ErrMax= 1.22D-04  0.00D+00 EMaxC= 1.00D-01 BMatC= 2.56D-05 BMatP= 4.50D-05
 IDIUse=3 WtCom= 9.99D-01 WtEn= 1.22D-03
 Coeff-Com:  0.156D-02-0.161D-02-0.443D-01-0.102D+00-0.257D+00 0.536D+00
 Coeff-Com:  0.867D+00
 Coeff-En:   0.000D+00 0.000D+00 0.000D+00 0.000D+00 0.000D+00 0.000D+00
 Coeff-En:   0.100D+01
 Coeff:      0.156D-02-0.160D-02-0.442D-01-0.102D+00-0.256D+00 0.535D+00
 Coeff:      0.867D+00
 Gap=     0.278 Goal=   None    Shift=    0.000
 Gap=     0.340 Goal=   None    Shift=    0.000
 RMSDP=2.51D-05 MaxDP=1.11D-03 DE=-4.15D-05 OVMax= 4.20D-03

 Cycle   8  Pass 1  IDiag  1:
 RMSU=  7.56D-06    CP:  9.49D-01  1.14D+00  1.03D+00  1.19D+00  1.90D+00
                    CP:  1.99D+00  1.23D+00
 E= -232.944426130542     Delta-E=       -0.000013877478 Rises=F Damp=F
 DIIS: error= 2.78D-05 at cycle   8 NSaved=   8.
 NSaved= 8 IEnMin= 8 EnMin= -232.944426130542     IErMin= 8 ErrMin= 2.78D-05
 ErrMax= 2.78D-05  0.00D+00 EMaxC= 1.00D-01 BMatC= 9.86D-07 BMatP= 2.56D-05
 IDIUse=1 WtCom= 1.00D+00 WtEn= 0.00D+00
 Coeff-Com: -0.146D-02 0.346D-02 0.178D-01 0.184D-01-0.278D-01-0.144D+00
 Coeff-Com: -0.291D-01 0.116D+01
 Coeff:     -0.146D-02 0.346D-02 0.178D-01 0.184D-01-0.278D-01-0.144D+00
 Coeff:     -0.291D-01 0.116D+01
 Gap=     0.278 Goal=   None    Shift=    0.000
 Gap=     0.340 Goal=   None    Shift=    0.000
 RMSDP=6.94D-06 MaxDP=2.71D-04 DE=-1.39D-05 OVMax= 1.13D-03

 Cycle   9  Pass 1  IDiag  1:
 RMSU=  3.15D-06    CP:  9.49D-01  1.14D+00  1.03D+00  1.20D+00  1.93D+00
                    CP:  2.12D+00  1.38D+00  1.41D+00
 E= -232.944427017651     Delta-E=       -0.000000887108 Rises=F Damp=F
 DIIS: error= 1.19D-05 at cycle   9 NSaved=   9.
 NSaved= 9 IEnMin= 9 EnMin= -232.944427017651     IErMin= 9 ErrMin= 1.19D-05
 ErrMax= 1.19D-05  0.00D+00 EMaxC= 1.00D-01 BMatC= 1.86D-07 BMatP= 9.86D-07
 IDIUse=1 WtCom= 1.00D+00 WtEn= 0.00D+00
 Coeff-Com: -0.588D-03 0.120D-02 0.103D-01 0.172D-01 0.165D-01-0.102D+00
 Coeff-Com: -0.104D+00 0.352D+00 0.810D+00
 Coeff:     -0.588D-03 0.120D-02 0.103D-01 0.172D-01 0.165D-01-0.102D+00
 Coeff:     -0.104D+00 0.352D+00 0.810D+00
 Gap=     0.278 Goal=   None    Shift=    0.000
 Gap=     0.340 Goal=   None    Shift=    0.000
 RMSDP=1.74D-06 MaxDP=6.59D-05 DE=-8.87D-07 OVMax= 2.43D-04

 Cycle  10  Pass 1  IDiag  1:
 RMSU=  1.02D-06    CP:  9.49D-01  1.14D+00  1.03D+00  1.21D+00  1.93D+00
                    CP:  2.14D+00  1.40D+00  1.53D+00  1.07D+00
 E= -232.944427103235     Delta-E=       -0.000000085584 Rises=F Damp=F
 DIIS: error= 3.09D-06 at cycle  10 NSaved=  10.
 NSaved=10 IEnMin=10 EnMin= -232.944427103235     IErMin=10 ErrMin= 3.09D-06
 ErrMax= 3.09D-06  0.00D+00 EMaxC= 1.00D-01 BMatC= 2.05D-08 BMatP= 1.86D-07
 IDIUse=1 WtCom= 1.00D+00 WtEn= 0.00D+00
 Coeff-Com:  0.122D-03-0.288D-03-0.449D-03 0.119D-02 0.533D-02 0.238D-02
 Coeff-Com: -0.158D-01-0.873D-01 0.137D+00 0.958D+00
 Coeff:      0.122D-03-0.288D-03-0.449D-03 0.119D-02 0.533D-02 0.238D-02
 Coeff:     -0.158D-01-0.873D-01 0.137D+00 0.958D+00
 Gap=     0.278 Goal=   None    Shift=    0.000
 Gap=     0.340 Goal=   None    Shift=    0.000
 RMSDP=6.99D-07 MaxDP=2.50D-05 DE=-8.56D-08 OVMax= 6.10D-05

 Cycle  11  Pass 1  IDiag  1:
 RMSU=  3.38D-07    CP:  9.49D-01  1.14D+00  1.03D+00  1.20D+00  1.93D+00
                    CP:  2.14D+00  1.39D+00  1.56D+00  1.19D+00  1.27D+00
 E= -232.944427113478     Delta-E=       -0.000000010243 Rises=F Damp=F
 DIIS: error= 1.28D-06 at cycle  11 NSaved=  11.
 NSaved=11 IEnMin=11 EnMin= -232.944427113478     IErMin=11 ErrMin= 1.28D-06
 ErrMax= 1.28D-06  0.00D+00 EMaxC= 1.00D-01 BMatC= 2.74D-09 BMatP= 2.05D-08
 IDIUse=1 WtCom= 1.00D+00 WtEn= 0.00D+00
 Coeff-Com:  0.945D-04-0.203D-03-0.136D-02-0.184D-02-0.156D-02 0.143D-01
 Coeff-Com:  0.943D-02-0.627D-01-0.894D-01 0.191D+00 0.943D+00
 Coeff:      0.945D-04-0.203D-03-0.136D-02-0.184D-02-0.156D-02 0.143D-01
 Coeff:      0.943D-02-0.627D-01-0.894D-01 0.191D+00 0.943D+00
 Gap=     0.278 Goal=   None    Shift=    0.000
 Gap=     0.340 Goal=   None    Shift=    0.000
 RMSDP=2.41D-07 MaxDP=9.38D-06 DE=-1.02D-08 OVMax= 1.66D-05

 Cycle  12  Pass 1  IDiag  1:
 RMSU=  1.30D-07    CP:  9.49D-01  1.14D+00  1.03D+00  1.20D+00  1.93D+00
                    CP:  2.14D+00  1.39D+00  1.57D+00  1.23D+00  1.39D+00
                    CP:  1.15D+00
 E= -232.944427114868     Delta-E=       -0.000000001390 Rises=F Damp=F
 DIIS: error= 3.02D-07 at cycle  12 NSaved=  12.
 NSaved=12 IEnMin=12 EnMin= -232.944427114868     IErMin=12 ErrMin= 3.02D-07
 ErrMax= 3.02D-07  0.00D+00 EMaxC= 1.00D-01 BMatC= 1.76D-10 BMatP= 2.74D-09
 IDIUse=1 WtCom= 1.00D+00 WtEn= 0.00D+00
 Coeff-Com: -0.639D-05 0.121D-04-0.595D-04-0.192D-03-0.358D-03 0.865D-03
 Coeff-Com:  0.143D-02 0.204D-02-0.201D-01-0.664D-01 0.820D-01 0.100D+01
 Coeff:     -0.639D-05 0.121D-04-0.595D-04-0.192D-03-0.358D-03 0.865D-03
 Coeff:      0.143D-02 0.204D-02-0.201D-01-0.664D-01 0.820D-01 0.100D+01
 Gap=     0.278 Goal=   None    Shift=    0.000
 Gap=     0.340 Goal=   None    Shift=    0.000
 RMSDP=6.71D-08 MaxDP=2.06D-06 DE=-1.39D-09 OVMax= 4.29D-06

 Cycle  13  Pass 1  IDiag  1:
 RMSU=  3.81D-08    CP:  9.49D-01  1.14D+00  1.03D+00  1.20D+00  1.93D+00
                    CP:  2.14D+00  1.39D+00  1.57D+00  1.23D+00  1.42D+00
                    CP:  1.24D+00  1.21D+00
 E= -232.944427114978     Delta-E=       -0.000000000110 Rises=F Damp=F
 DIIS: error= 9.02D-08 at cycle  13 NSaved=  13.
 NSaved=13 IEnMin=13 EnMin= -232.944427114978     IErMin=13 ErrMin= 9.02D-08
 ErrMax= 9.02D-08  0.00D+00 EMaxC= 1.00D-01 BMatC= 1.74D-11 BMatP= 1.76D-10
 IDIUse=1 WtCom= 1.00D+00 WtEn= 0.00D+00
 Coeff-Com: -0.682D-05 0.145D-04 0.810D-04 0.102D-03 0.108D-03-0.904D-03
 Coeff-Com: -0.493D-03 0.442D-02 0.495D-02-0.199D-01-0.666D-01 0.824D-01
 Coeff-Com:  0.996D+00
 Coeff:     -0.682D-05 0.145D-04 0.810D-04 0.102D-03 0.108D-03-0.904D-03
 Coeff:     -0.493D-03 0.442D-02 0.495D-02-0.199D-01-0.666D-01 0.824D-01
 Coeff:      0.996D+00
 Gap=     0.278 Goal=   None    Shift=    0.000
 Gap=     0.340 Goal=   None    Shift=    0.000
 RMSDP=2.02D-08 MaxDP=7.66D-07 DE=-1.10D-10 OVMax= 1.47D-06

 Cycle  14  Pass 1  IDiag  1:
 RMSU=  1.14D-08    CP:  9.49D-01  1.14D+00  1.03D+00  1.20D+00  1.93D+00
                    CP:  2.14D+00  1.39D+00  1.57D+00  1.23D+00  1.42D+00
                    CP:  1.25D+00  1.31D+00  1.15D+00
 E= -232.944427114984     Delta-E=       -0.000000000007 Rises=F Damp=F
 DIIS: error= 4.87D-08 at cycle  14 NSaved=  14.
 NSaved=14 IEnMin=14 EnMin= -232.944427114984     IErMin=14 ErrMin= 4.87D-08
 ErrMax= 4.87D-08  0.00D+00 EMaxC= 1.00D-01 BMatC= 3.58D-12 BMatP= 1.74D-11
 IDIUse=1 WtCom= 1.00D+00 WtEn= 0.00D+00
 Coeff-Com: -0.848D-06 0.218D-05 0.238D-04 0.363D-04 0.382D-04-0.276D-03
 Coeff-Com: -0.237D-03 0.944D-03 0.327D-02 0.967D-03-0.265D-01-0.879D-01
 Coeff-Com:  0.282D+00 0.828D+00
 Coeff:     -0.848D-06 0.218D-05 0.238D-04 0.363D-04 0.382D-04-0.276D-03
 Coeff:     -0.237D-03 0.944D-03 0.327D-02 0.967D-03-0.265D-01-0.879D-01
 Coeff:      0.282D+00 0.828D+00
 Gap=     0.278 Goal=   None    Shift=    0.000
 Gap=     0.340 Goal=   None    Shift=    0.000
 RMSDP=6.80D-09 MaxDP=2.11D-07 DE=-6.54D-12 OVMax= 4.97D-07

 SCF Done:  E(UM062X) =  -232.944427115     A.U. after   14 cycles
            NFock= 14  Conv=0.68D-08     -V/T= 2.0061
 <Sx>= 0.0000 <Sy>= 0.0000 <Sz>= 0.5000 <S**2>= 0.7548 S= 0.5024
 <L.S>= 0.000000000000E+00
 KE= 2.315376277775D+02 PE=-9.140275007315D+02 EE= 2.637082958492D+02
 Annihilation of the first spin contaminant:
 S**2 before annihilation     0.7548,   after     0.7500
 Leave Link  502 at Sun Mar 10 20:15:00 2019, MaxMem=   671088640 cpu:            1455.5 elap:              72.8
 (Enter /shared/centos7/gaussian/g16/l801.exe)
 DoSCS=F DFT=T ScalE2(SS,OS)=  1.000000  1.000000
 Range of M.O.s used for correlation:     1   251
 NBasis=   251 NAE=    21 NBE=    20 NFC=     0 NFV=     0
 NROrb=    251 NOA=    21 NOB=    20 NVA=   230 NVB=   231

 **** Warning!!: The largest alpha MO coefficient is  0.35873891D+02


 **** Warning!!: The largest beta MO coefficient is  0.42974424D+02

 Leave Link  801 at Sun Mar 10 20:15:01 2019, MaxMem=   671088640 cpu:               0.5 elap:               0.0
 (Enter /shared/centos7/gaussian/g16/l1101.exe)
 Using compressed storage, NAtomX=    14.
 Will process     15 centers per pass.
 Leave Link 1101 at Sun Mar 10 20:15:01 2019, MaxMem=   671088640 cpu:               9.0 elap:               0.5
 (Enter /shared/centos7/gaussian/g16/l1102.exe)
 Symmetrizing basis deriv contribution to polar:
 IMax=3 JMax=2 DiffMx= 0.00D+00
 Leave Link 1102 at Sun Mar 10 20:15:01 2019, MaxMem=   671088640 cpu:               0.7 elap:               0.1
 (Enter /shared/centos7/gaussian/g16/l1110.exe)
 Forming Gx(P) for the SCF density, NAtomX=    14.
 Integral derivatives from FoFJK, PRISM(SPDF).
 Do as many integral derivatives as possible in FoFJK.
 G2DrvN: MDV=     671087496.
 G2DrvN: will do    15 centers at a time, making    1 passes.
 Calling FoFCou, ICntrl=  3107 FMM=F I1Cent=   0 AccDes= 0.00D+00.
 FoFJK:  IHMeth= 1 ICntrl=    3107 DoSepK=F KAlg= 0 I1Cent=           0 FoldK=F
 IRaf=         0 NMat=       1 IRICut=       1 DoRegI=T DoRafI=F ISym2E= 0 IDoP0=0 IntGTp=1.
 FoFCou: FMM=F IPFlag=           0 FMFlag=      100000 FMFlg1=           0
         NFxFlg=           0 DoJE=F BraDBF=F KetDBF=F FulRan=T
         wScrn=  0.000000 ICntrl=      3107 IOpCl=  1 I1Cent=           0 NGrid=           0
         NMat0=    1 NMatS0=      1 NMatT0=    0 NMatD0=    1 NMtDS0=    0 NMtDT0=    0
 Symmetry not used in FoFCou.
 End of G2Drv F.D. properties file   721 does not exist.
 End of G2Drv F.D. properties file   722 does not exist.
 End of G2Drv F.D. properties file   788 does not exist.
 Leave Link 1110 at Sun Mar 10 20:17:24 2019, MaxMem=   671088640 cpu:            2858.4 elap:             143.0
 (Enter /shared/centos7/gaussian/g16/l1002.exe)
 Minotr:  UHF open shell wavefunction.
          IDoAtm=11111111111111
          Direct CPHF calculation.
          Differentiating once with respect to nuclear coordinates.
          Requested convergence is 1.0D-08 RMS, and 1.0D-07 maximum.
          Secondary convergence is 1.0D-12 RMS, and 1.0D-12 maximum.
          NewPWx=T KeepS1=F KeepF1=F KeepIn=T MapXYZ=F SortEE=F KeepMc=T.
         4257 words used for storage of precomputed grid.
 Two-electron integrals replicated using symmetry.
          MDV=     671088640 using IRadAn=       1.
          Solving linear equations simultaneously, MaxMat=     380.
 FoF2E skips out because all densities are zero.
 CalDSu exits because no D1Ps are significant.
 FoFJK:  IHMeth= 1 ICntrl=       0 DoSepK=F KAlg= 0 I1Cent=           0 FoldK=F
 IRaf= 980000000 NMat=      42 IRICut=     105 DoRegI=T DoRafI=T ISym2E= 2 IDoP0=3 IntGTp=3.
 FoFCou: FMM=F IPFlag=           0 FMFlag=      100000 FMFlg1=           0
         NFxFlg=           0 DoJE=F BraDBF=F KetDBF=F FulRan=T
         wScrn=  0.000000 ICntrl=         0 IOpCl=  1 I1Cent=           0 NGrid=           0
         NMat0=   42 NMatS0=     42 NMatT0=    0 NMatD0=   42 NMtDS0=    0 NMtDT0=    0
 Integrals replicated using symmetry in FoFCou.
 Raff kept on since  96.55% of shell-pairs survive, threshold=   0.20 IRatSp=97.
          There are    45 degrees of freedom in the 1st order CPHF.  IDoFFX=6 NUNeed=     0.
     39 vectors produced by pass  0 Test12= 2.10D-14 2.22D-09 XBig12= 1.33D-01 5.43D-02.
 AX will form    39 AO Fock derivatives at one time.
     39 vectors produced by pass  1 Test12= 2.10D-14 2.22D-09 XBig12= 8.38D-03 2.33D-02.
     39 vectors produced by pass  2 Test12= 2.10D-14 2.22D-09 XBig12= 5.58D-04 6.47D-03.
     39 vectors produced by pass  3 Test12= 2.10D-14 2.22D-09 XBig12= 8.83D-06 4.33D-04.
     39 vectors produced by pass  4 Test12= 2.10D-14 2.22D-09 XBig12= 1.23D-07 4.06D-05.
     39 vectors produced by pass  5 Test12= 2.10D-14 2.22D-09 XBig12= 1.73D-09 3.78D-06.
     37 vectors produced by pass  6 Test12= 2.10D-14 2.22D-09 XBig12= 1.31D-11 4.28D-07.
     11 vectors produced by pass  7 Test12= 2.10D-14 2.22D-09 XBig12= 8.45D-14 2.73D-08.
      1 vectors produced by pass  8 Test12= 2.10D-14 2.22D-09 XBig12= 5.74D-16 2.32D-09.
 InvSVY:  IOpt=1 It=  1 EMax= 1.55D-15
 Solved reduced A of dimension   283 with    39 vectors.
 End of Minotr F.D. properties file   721 does not exist.
 End of Minotr F.D. properties file   722 does not exist.
 End of Minotr F.D. properties file   788 does not exist.
 Leave Link 1002 at Sun Mar 10 20:21:06 2019, MaxMem=   671088640 cpu:            4440.4 elap:             222.1
 (Enter /shared/centos7/gaussian/g16/l601.exe)
 Copying SCF densities to generalized density rwf, IOpCl= 1 IROHF=0.

 **********************************************************************

            Population analysis using the SCF density.

 **********************************************************************

 Orbital symmetries:
 Alpha Orbitals:
       Occupied  (A) (A) (A) (A) (A) (A) (A) (A) (A) (A) (A) (A)
                 (A) (A) (A) (A) (A) (A) (A) (A) (A)
       Virtual   (A) (A) (A) (A) (A) (A) (A) (A) (A) (A) (A) (A)
                 (A) (A) (A) (A) (A) (A) (A) (A) (A) (A) (A) (A)
                 (A) (A) (A) (A) (A) (A) (A) (A) (A) (A) (A) (A)
                 (A) (A) (A) (A) (A) (A) (A) (A) (A) (A) (A) (A)
                 (A) (A) (A) (A) (A) (A) (A) (A) (A) (A) (A) (A)
                 (A) (A) (A) (A) (A) (A) (A) (A) (A) (A) (A) (A)
                 (A) (A) (A) (A) (A) (A) (A) (A) (A) (A) (A) (A)
                 (A) (A) (A) (A) (A) (A) (A) (A) (A) (A) (A) (A)
                 (A) (A) (A) (A) (A) (A) (A) (A) (A) (A) (A) (A)
                 (A) (A) (A) (A) (A) (A) (A) (A) (A) (A) (A) (A)
                 (A) (A) (A) (A) (A) (A) (A) (A) (A) (A) (A) (A)
                 (A) (A) (A) (A) (A) (A) (A) (A) (A) (A) (A) (A)
                 (A) (A) (A) (A) (A) (A) (A) (A) (A) (A) (A) (A)
                 (A) (A) (A) (A) (A) (A) (A) (A) (A) (A) (A) (A)
                 (A) (A) (A) (A) (A) (A) (A) (A) (A) (A) (A) (A)
                 (A) (A) (A) (A) (A) (A) (A) (A) (A) (A) (A) (A)
                 (A) (A) (A) (A) (A) (A) (A) (A) (A) (A) (A) (A)
                 (A) (A) (A) (A) (A) (A) (A) (A) (A) (A) (A) (A)
                 (A) (A) (A) (A) (A) (A) (A) (A) (A) (A) (A) (A)
                 (A) (A)
 Beta  Orbitals:
       Occupied  (A) (A) (A) (A) (A) (A) (A) (A) (A) (A) (A) (A)
                 (A) (A) (A) (A) (A) (A) (A) (A)
       Virtual   (A) (A) (A) (A) (A) (A) (A) (A) (A) (A) (A) (A)
                 (A) (A) (A) (A) (A) (A) (A) (A) (A) (A) (A) (A)
                 (A) (A) (A) (A) (A) (A) (A) (A) (A) (A) (A) (A)
                 (A) (A) (A) (A) (A) (A) (A) (A) (A) (A) (A) (A)
                 (A) (A) (A) (A) (A) (A) (A) (A) (A) (A) (A) (A)
                 (A) (A) (A) (A) (A) (A) (A) (A) (A) (A) (A) (A)
                 (A) (A) (A) (A) (A) (A) (A) (A) (A) (A) (A) (A)
                 (A) (A) (A) (A) (A) (A) (A) (A) (A) (A) (A) (A)
                 (A) (A) (A) (A) (A) (A) (A) (A) (A) (A) (A) (A)
                 (A) (A) (A) (A) (A) (A) (A) (A) (A) (A) (A) (A)
                 (A) (A) (A) (A) (A) (A) (A) (A) (A) (A) (A) (A)
                 (A) (A) (A) (A) (A) (A) (A) (A) (A) (A) (A) (A)
                 (A) (A) (A) (A) (A) (A) (A) (A) (A) (A) (A) (A)
                 (A) (A) (A) (A) (A) (A) (A) (A) (A) (A) (A) (A)
                 (A) (A) (A) (A) (A) (A) (A) (A) (A) (A) (A) (A)
                 (A) (A) (A) (A) (A) (A) (A) (A) (A) (A) (A) (A)
                 (A) (A) (A) (A) (A) (A) (A) (A) (A) (A) (A) (A)
                 (A) (A) (A) (A) (A) (A) (A) (A) (A) (A) (A) (A)
                 (A) (A) (A) (A) (A) (A) (A) (A) (A) (A) (A) (A)
                 (A) (A) (A)
 The electronic state is 2-A.
 Alpha  occ. eigenvalues --  -19.65219 -10.60141 -10.59211 -10.54070 -10.53842
 Alpha  occ. eigenvalues --   -1.16017  -0.88858  -0.79096  -0.74524  -0.65722
 Alpha  occ. eigenvalues --   -0.57408  -0.54941  -0.52338  -0.47840  -0.45779
 Alpha  occ. eigenvalues --   -0.45555  -0.43817  -0.42756  -0.38928  -0.38617
 Alpha  occ. eigenvalues --   -0.26149
 Alpha virt. eigenvalues --    0.01687   0.03118   0.03941   0.04099   0.05555
 Alpha virt. eigenvalues --    0.06342   0.07423   0.07551   0.08192   0.09803
 Alpha virt. eigenvalues --    0.10235   0.11819   0.12168   0.13194   0.13865
 Alpha virt. eigenvalues --    0.15331   0.17659   0.18163   0.19835   0.21292
 Alpha virt. eigenvalues --    0.22242   0.24055   0.24518   0.25409   0.26084
 Alpha virt. eigenvalues --    0.27003   0.28676   0.28934   0.30042   0.32089
 Alpha virt. eigenvalues --    0.33363   0.35177   0.36667   0.41111   0.43098
 Alpha virt. eigenvalues --    0.45991   0.46699   0.48691   0.49424   0.50689
 Alpha virt. eigenvalues --    0.51158   0.53746   0.54471   0.56205   0.56796
 Alpha virt. eigenvalues --    0.56879   0.58522   0.59217   0.60126   0.62351
 Alpha virt. eigenvalues --    0.64551   0.64646   0.65711   0.67855   0.68401
 Alpha virt. eigenvalues --    0.69666   0.73727   0.76148   0.78885   0.82278
 Alpha virt. eigenvalues --    0.83341   0.85273   0.89168   0.91202   0.93731
 Alpha virt. eigenvalues --    0.94123   0.95147   0.99516   1.01394   1.04150
 Alpha virt. eigenvalues --    1.05164   1.07892   1.08700   1.10911   1.12908
 Alpha virt. eigenvalues --    1.15847   1.16145   1.17709   1.19854   1.22273
 Alpha virt. eigenvalues --    1.22563   1.24979   1.26738   1.28260   1.29176
 Alpha virt. eigenvalues --    1.30261   1.32146   1.33869   1.34181   1.36175
 Alpha virt. eigenvalues --    1.36974   1.38014   1.40726   1.42101   1.44381
 Alpha virt. eigenvalues --    1.46995   1.47846   1.48271   1.49618   1.54566
 Alpha virt. eigenvalues --    1.56019   1.57478   1.61278   1.61914   1.66188
 Alpha virt. eigenvalues --    1.67689   1.73683   1.75527   1.79901   1.95565
 Alpha virt. eigenvalues --    2.04111   2.10853   2.22797   2.31372   2.40388
 Alpha virt. eigenvalues --    2.44127   2.47395   2.50883   2.56390   2.58760
 Alpha virt. eigenvalues --    2.63414   2.69324   2.71369   2.75825   2.81756
 Alpha virt. eigenvalues --    2.86414   2.87237   2.90674   2.92941   2.95106
 Alpha virt. eigenvalues --    2.95775   2.97290   3.01382   3.01556   3.03318
 Alpha virt. eigenvalues --    3.04998   3.08772   3.12066   3.13137   3.14918
 Alpha virt. eigenvalues --    3.18411   3.20480   3.21233   3.23519   3.28051
 Alpha virt. eigenvalues --    3.28553   3.29913   3.31837   3.33878   3.37009
 Alpha virt. eigenvalues --    3.37821   3.42691   3.43911   3.49185   3.50171
 Alpha virt. eigenvalues --    3.52563   3.55114   3.58888   3.59494   3.60452
 Alpha virt. eigenvalues --    3.64175   3.65766   3.69817   3.72279   3.72700
 Alpha virt. eigenvalues --    3.76356   3.78263   3.80555   3.85747   3.87174
 Alpha virt. eigenvalues --    3.89453   3.91026   3.94514   3.95489   3.97914
 Alpha virt. eigenvalues --    3.99644   4.02514   4.07485   4.09376   4.12462
 Alpha virt. eigenvalues --    4.16257   4.18004   4.18907   4.19243   4.21600
 Alpha virt. eigenvalues --    4.23545   4.25302   4.28090   4.30864   4.32138
 Alpha virt. eigenvalues --    4.34117   4.40295   4.43002   4.46779   4.51360
 Alpha virt. eigenvalues --    4.53234   4.57346   4.59308   4.61818   4.69313
 Alpha virt. eigenvalues --    4.82072   5.03500   5.15483   5.22136   5.25978
 Alpha virt. eigenvalues --    5.30392   5.35901   5.39886   5.43179   5.44814
 Alpha virt. eigenvalues --    5.48500   5.48922   5.50753   5.54463   5.60011
 Alpha virt. eigenvalues --    5.72931   5.74200   6.07438   6.33519   6.55453
 Alpha virt. eigenvalues --    7.13711   7.20297   7.26232   7.61378   7.71106
 Alpha virt. eigenvalues --   24.15581  24.19266  24.30345  24.41139  50.14285
  Beta  occ. eigenvalues --  -19.64820 -10.60148 -10.58390 -10.54065 -10.53843
  Beta  occ. eigenvalues --   -1.14708  -0.88634  -0.78863  -0.72224  -0.64933
  Beta  occ. eigenvalues --   -0.56566  -0.54277  -0.51608  -0.46281  -0.45377
  Beta  occ. eigenvalues --   -0.45151  -0.42784  -0.42429  -0.38148  -0.36599
  Beta virt. eigenvalues --   -0.02558   0.01606   0.02981   0.03971   0.04202
  Beta virt. eigenvalues --    0.05568   0.06418   0.07278   0.07571   0.08659
  Beta virt. eigenvalues --    0.09463   0.10311   0.11196   0.12211   0.13009
  Beta virt. eigenvalues --    0.13860   0.14879   0.17734   0.18106   0.19904
  Beta virt. eigenvalues --    0.21204   0.22720   0.24017   0.24801   0.25816
  Beta virt. eigenvalues --    0.26349   0.27519   0.28699   0.28955   0.30264
  Beta virt. eigenvalues --    0.32431   0.33282   0.35110   0.36767   0.41035
  Beta virt. eigenvalues --    0.43045   0.46329   0.47043   0.48721   0.49554
  Beta virt. eigenvalues --    0.50638   0.51717   0.53319   0.54472   0.56179
  Beta virt. eigenvalues --    0.56876   0.57236   0.59180   0.59721   0.60343
  Beta virt. eigenvalues --    0.62385   0.64143   0.64895   0.66059   0.67804
  Beta virt. eigenvalues --    0.68450   0.69995   0.73518   0.76121   0.79077
  Beta virt. eigenvalues --    0.82295   0.83204   0.85752   0.89315   0.90804
  Beta virt. eigenvalues --    0.93766   0.94374   0.95308   0.99173   1.01700
  Beta virt. eigenvalues --    1.04222   1.05047   1.07876   1.08789   1.11209
  Beta virt. eigenvalues --    1.12955   1.15865   1.16265   1.17744   1.19855
  Beta virt. eigenvalues --    1.22473   1.22702   1.24981   1.27117   1.28287
  Beta virt. eigenvalues --    1.29315   1.30310   1.32162   1.33973   1.34145
  Beta virt. eigenvalues --    1.36131   1.37055   1.37907   1.40854   1.42493
  Beta virt. eigenvalues --    1.44637   1.47098   1.47711   1.48353   1.50091
  Beta virt. eigenvalues --    1.54561   1.56091   1.57550   1.61376   1.61989
  Beta virt. eigenvalues --    1.66364   1.67864   1.73845   1.76007   1.80020
  Beta virt. eigenvalues --    1.96479   2.04428   2.11113   2.23506   2.31765
  Beta virt. eigenvalues --    2.40475   2.45025   2.48080   2.51216   2.56623
  Beta virt. eigenvalues --    2.59230   2.63591   2.69677   2.71471   2.76360
  Beta virt. eigenvalues --    2.81990   2.87362   2.87524   2.93118   2.94162
  Beta virt. eigenvalues --    2.95857   2.97237   2.97899   3.02021   3.03855
  Beta virt. eigenvalues --    3.04896   3.06872   3.10464   3.12684   3.14163
  Beta virt. eigenvalues --    3.16268   3.19522   3.21491   3.24391   3.25421
  Beta virt. eigenvalues --    3.28924   3.30579   3.31735   3.33037   3.35154
  Beta virt. eigenvalues --    3.39362   3.39892   3.43571   3.44914   3.51111
  Beta virt. eigenvalues --    3.52448   3.54190   3.55348   3.59282   3.60289
  Beta virt. eigenvalues --    3.62265   3.64866   3.67226   3.70454   3.72603
  Beta virt. eigenvalues --    3.73380   3.77449   3.78714   3.81463   3.86863
  Beta virt. eigenvalues --    3.88170   3.89857   3.91850   3.95357   3.96312
  Beta virt. eigenvalues --    3.99042   4.00066   4.02646   4.09525   4.10002
  Beta virt. eigenvalues --    4.12714   4.16794   4.18315   4.19142   4.19494
  Beta virt. eigenvalues --    4.21876   4.24405   4.26719   4.28525   4.31580
  Beta virt. eigenvalues --    4.32507   4.34706   4.40645   4.43465   4.47323
  Beta virt. eigenvalues --    4.51569   4.53269   4.57538   4.59337   4.61890
  Beta virt. eigenvalues --    4.69327   4.82115   5.06536   5.16159   5.23325
  Beta virt. eigenvalues --    5.27547   5.31117   5.37893   5.40176   5.44143
  Beta virt. eigenvalues --    5.45309   5.48645   5.49415   5.50856   5.54553
  Beta virt. eigenvalues --    5.60604   5.73137   5.74785   6.07661   6.33694
  Beta virt. eigenvalues --    6.56000   7.14595   7.21291   7.27214   7.61701
  Beta virt. eigenvalues --    7.71054  24.16051  24.20137  24.30359  24.41124
  Beta virt. eigenvalues --   50.14013
          Condensed to atoms (all electrons):
               1          2          3          4          5          6
     1  O    8.065999   0.268978  -0.092893  -0.117308   0.100889  -0.036251
     2  C    0.268978   5.417823   0.042899   0.312426  -0.121355   0.467009
     3  C   -0.092893   0.042899   5.308075  -0.102136   0.033480  -0.078145
     4  C   -0.117308   0.312426  -0.102136   5.176069  -0.013558  -0.018823
     5  C    0.100889  -0.121355   0.033480  -0.013558   5.449110  -0.003275
     6  H   -0.036251   0.467009  -0.078145  -0.018823  -0.003275   0.512767
     7  H   -0.008986  -0.036992   0.415785   0.004051  -0.007602  -0.005604
     8  H    0.007489  -0.037592   0.428585  -0.013092   0.000016  -0.005068
     9  H   -0.007374  -0.025394   0.407841  -0.001965  -0.001775   0.005992
    10  H    0.010785  -0.040469  -0.006305   0.414317   0.000933  -0.007171
    11  H   -0.008539  -0.005837  -0.020878   0.398350  -0.000137   0.005604
    12  H   -0.002593  -0.029978   0.020719   0.390227  -0.000544  -0.006573
    13  H   -0.034216  -0.013376  -0.002893  -0.013284   0.397899  -0.002863
    14  H   -0.051977   0.007763  -0.003273   0.001460   0.421351  -0.000267
               7          8          9         10         11         12
     1  O   -0.008986   0.007489  -0.007374   0.010785  -0.008539  -0.002593
     2  C   -0.036992  -0.037592  -0.025394  -0.040469  -0.005837  -0.029978
     3  C    0.415785   0.428585   0.407841  -0.006305  -0.020878   0.020719
     4  C    0.004051  -0.013092  -0.001965   0.414317   0.398350   0.390227
     5  C   -0.007602   0.000016  -0.001775   0.000933  -0.000137  -0.000544
     6  H   -0.005604  -0.005068   0.005992  -0.007171   0.005604  -0.006573
     7  H    0.553795  -0.024394  -0.026487   0.000336  -0.000136  -0.000272
     8  H   -0.024394   0.528761  -0.030517   0.000454   0.000242  -0.000034
     9  H   -0.026487  -0.030517   0.523739  -0.000989   0.002611  -0.000051
    10  H    0.000336   0.000454  -0.000989   0.542726  -0.031072  -0.021103
    11  H   -0.000136   0.000242   0.002611  -0.031072   0.528756  -0.023560
    12  H   -0.000272  -0.000034  -0.000051  -0.021103  -0.023560   0.524852
    13  H    0.001261  -0.000457   0.000832  -0.000006  -0.000025   0.000035
    14  H    0.001183   0.000041  -0.000081   0.000021   0.000023  -0.000007
              13         14
     1  O   -0.034216  -0.051977
     2  C   -0.013376   0.007763
     3  C   -0.002893  -0.003273
     4  C   -0.013284   0.001460
     5  C    0.397899   0.421351
     6  H   -0.002863  -0.000267
     7  H    0.001261   0.001183
     8  H   -0.000457   0.000041
     9  H    0.000832  -0.000081
    10  H   -0.000006   0.000021
    11  H   -0.000025   0.000023
    12  H    0.000035  -0.000007
    13  H    0.575264  -0.035627
    14  H   -0.035627   0.510849
          Atomic-Atomic Spin Densities.
               1          2          3          4          5          6
     1  O    0.254696   0.024481  -0.009653  -0.008244  -0.194632  -0.004798
     2  C    0.024481   0.083958  -0.054336  -0.005175  -0.001144   0.008502
     3  C   -0.009653  -0.054336   0.067543  -0.016092   0.005007   0.000294
     4  C   -0.008244  -0.005175  -0.016092   0.028685   0.004772  -0.002608
     5  C   -0.194632  -0.001144   0.005007   0.004772   1.152244   0.007070
     6  H   -0.004798   0.008502   0.000294  -0.002608   0.007070  -0.010121
     7  H   -0.000798   0.005689  -0.006543   0.000622   0.001526  -0.000269
     8  H    0.000164   0.000805  -0.003207   0.000987   0.000500  -0.000241
     9  H    0.000031  -0.001821   0.005111  -0.002325  -0.000131  -0.000105
    10  H   -0.000045  -0.001451   0.000421   0.000779  -0.000071   0.000001
    11  H   -0.000230   0.000796   0.003019  -0.003670   0.000093  -0.000235
    12  H    0.000986  -0.001430   0.001574  -0.001529  -0.000070  -0.000079
    13  H    0.003770  -0.018685   0.010511  -0.004713  -0.022875  -0.000917
    14  H    0.002222  -0.003023  -0.000813  -0.000382  -0.012022  -0.000164
               7          8          9         10         11         12
     1  O   -0.000798   0.000164   0.000031  -0.000045  -0.000230   0.000986
     2  C    0.005689   0.000805  -0.001821  -0.001451   0.000796  -0.001430
     3  C   -0.006543  -0.003207   0.005111   0.000421   0.003019   0.001574
     4  C    0.000622   0.000987  -0.002325   0.000779  -0.003670  -0.001529
     5  C    0.001526   0.000500  -0.000131  -0.000071   0.000093  -0.000070
     6  H   -0.000269  -0.000241  -0.000105   0.000001  -0.000235  -0.000079
     7  H   -0.004053   0.000447   0.000312  -0.000006  -0.000018   0.000009
     8  H    0.000447  -0.000046  -0.000300  -0.000000  -0.000043   0.000009
     9  H    0.000312  -0.000300  -0.000810  -0.000024   0.000098  -0.000008
    10  H   -0.000006  -0.000000  -0.000024  -0.000487   0.000183   0.000169
    11  H   -0.000018  -0.000043   0.000098   0.000183  -0.000836   0.000235
    12  H    0.000009   0.000009  -0.000008   0.000169   0.000235   0.000146
    13  H    0.002677   0.000025   0.000134  -0.000002   0.000038   0.000019
    14  H    0.000107   0.000002   0.000046  -0.000000   0.000009   0.000012
              13         14
     1  O    0.003770   0.002222
     2  C   -0.018685  -0.003023
     3  C    0.010511  -0.000813
     4  C   -0.004713  -0.000382
     5  C   -0.022875  -0.012022
     6  H   -0.000917  -0.000164
     7  H    0.002677   0.000107
     8  H    0.000025   0.000002
     9  H    0.000134   0.000046
    10  H   -0.000002  -0.000000
    11  H    0.000038   0.000009
    12  H    0.000019   0.000012
    13  H    0.004412   0.008906
    14  H    0.008906  -0.011826
 Mulliken charges and spin densities:
               1          2
     1  O   -0.094003   0.067951
     2  C   -0.205905   0.037167
     3  C   -0.350862   0.002837
     4  C   -0.416735  -0.008893
     5  C   -0.255431   0.940267
     6  H    0.172668  -0.003668
     7  H    0.134062  -0.000297
     8  H    0.145566  -0.000897
     9  H    0.153618   0.000208
    10  H    0.137544  -0.000530
    11  H    0.154597  -0.000562
    12  H    0.148883   0.000043
    13  H    0.127456  -0.016701
    14  H    0.148542  -0.016924
 Sum of Mulliken charges =  -0.00000   1.00000
 Mulliken charges and spin densities with hydrogens summed into heavy atoms:
               1          2
     1  O   -0.094003   0.067951
     2  C   -0.033237   0.033499
     3  C    0.082384   0.001851
     4  C    0.024290  -0.009942
     5  C    0.020566   0.906641
 APT charges:
               1
     1  O   -0.121168
     2  C   -0.335988
     3  C   -1.064439
     4  C   -1.175339
     5  C   -0.812323
     6  H    0.382305
     7  H    0.318906
     8  H    0.448533
     9  H    0.366081
    10  H    0.451399
    11  H    0.347752
    12  H    0.399283
    13  H    0.247510
    14  H    0.547489
 Sum of APT charges =  -0.00000
 APT charges with hydrogens summed into heavy atoms:
               1
     1  O   -0.121168
     2  C    0.046317
     3  C    0.069081
     4  C    0.023094
     5  C   -0.017324
 Electronic spatial extent (au):  <R**2>=            485.5116
 Charge=             -0.0000 electrons
 Dipole moment (field-independent basis, Debye):
    X=              0.9168    Y=              1.4336    Z=             -0.2167  Tot=              1.7154
 Quadrupole moment (field-independent basis, Debye-Ang):
   XX=            -31.6393   YY=            -34.0310   ZZ=            -33.9880
   XY=             -1.3020   XZ=             -1.3367   YZ=             -0.0448
 Traceless Quadrupole moment (field-independent basis, Debye-Ang):
   XX=              1.5801   YY=             -0.8116   ZZ=             -0.7685
   XY=             -1.3020   XZ=             -1.3367   YZ=             -0.0448
 Octapole moment (field-independent basis, Debye-Ang**2):
  XXX=             -3.3474  YYY=             -1.5126  ZZZ=              2.9418  XYY=              1.0005
  XXY=              0.2492  XXZ=              4.1710  XZZ=              2.6938  YZZ=             -0.3055
  YYZ=             -0.4783  XYZ=              0.9041
 Hexadecapole moment (field-independent basis, Debye-Ang**3):
 XXXX=           -391.9400 YYYY=           -209.7039 ZZZZ=            -70.0314 XXXY=              5.0424
 XXXZ=            -18.0393 YYYX=             -2.4214 YYYZ=             -1.1962 ZZZX=             -2.7858
 ZZZY=             -0.6781 XXYY=            -99.7101 XXZZ=            -82.2510 YYZZ=            -47.0238
 XXYZ=             -5.8866 YYXZ=             -2.6483 ZZXY=              0.6698
 N-N= 1.858371499897D+02 E-N=-9.140275032727D+02  KE= 2.315376277775D+02
  Exact polarizability:   0.000   0.000   0.000   0.000   0.000   0.000
 Approx polarizability:  68.943   0.887  62.361   0.132  -1.565  61.609
                          Isotropic Fermi Contact Couplings
        Atom                 a.u.       MegaHertz       Gauss      10(-4) cm-1
     1  O(17)              0.03946     -23.92329      -8.53643      -7.97995
     2  C(13)             -0.00212      -2.38375      -0.85058      -0.79513
     3  C(13)             -0.00049      -0.55423      -0.19776      -0.18487
     4  C(13)             -0.00092      -1.03883      -0.37068      -0.34652
     5  C(13)              0.34766     390.84066     139.46167     130.37041
     6  H(1)               0.00064       2.88289       1.02869       0.96163
     7  H(1)              -0.00032      -1.43900      -0.51347      -0.48000
     8  H(1)              -0.00034      -1.51358      -0.54008      -0.50488
     9  H(1)              -0.00011      -0.51020      -0.18205      -0.17019
    10  H(1)              -0.00028      -1.26133      -0.45007      -0.42073
    11  H(1)               0.00006       0.24781       0.08843       0.08266
    12  H(1)              -0.00006      -0.27749      -0.09902      -0.09256
    13  H(1)               0.00186       8.29664       2.96045       2.76746
    14  H(1)              -0.00170      -7.57926      -2.70447      -2.52817
 --------------------------------------------------------
       Center         ----  Spin Dipole Couplings  ----
                      3XX-RR        3YY-RR        3ZZ-RR
 --------------------------------------------------------
     1   Atom       -0.413969     -0.168300      0.582269
     2   Atom        0.014441     -0.005676     -0.008766
     3   Atom        0.002855      0.006649     -0.009504
     4   Atom        0.006205     -0.003941     -0.002264
     5   Atom       -0.451126     -0.228949      0.680075
     6   Atom        0.011132     -0.007873     -0.003259
     7   Atom        0.000514      0.007291     -0.007805
     8   Atom        0.001917      0.000647     -0.002565
     9   Atom        0.001225     -0.000014     -0.001210
    10   Atom        0.003399     -0.001747     -0.001652
    11   Atom        0.004453     -0.002686     -0.001767
    12   Atom        0.004526     -0.001805     -0.002721
    13   Atom       -0.052967      0.065051     -0.012084
    14   Atom        0.011081     -0.026875      0.015794
 --------------------------------------------------------
                        XY            XZ            YZ
 --------------------------------------------------------
     1   Atom        0.106845      0.107151      0.504769
     2   Atom        0.006499      0.001111     -0.002580
     3   Atom       -0.000531      0.000324      0.001669
     4   Atom       -0.000441      0.000859     -0.000157
     5   Atom        0.076943      0.152469      0.523363
     6   Atom        0.003405     -0.008757     -0.002759
     7   Atom        0.009664      0.000557      0.001030
     8   Atom        0.003590     -0.000612     -0.000659
     9   Atom        0.003743      0.002922      0.002359
    10   Atom        0.000306     -0.000282      0.000037
    11   Atom       -0.000642      0.002396     -0.000159
    12   Atom       -0.003035     -0.000422      0.000252
    13   Atom        0.006596      0.000364     -0.005708
    14   Atom        0.035147     -0.044498     -0.006491
 --------------------------------------------------------


 ---------------------------------------------------------------------------------
              Anisotropic Spin Dipole Couplings in Principal Axis System
 ---------------------------------------------------------------------------------

       Atom             a.u.   MegaHertz   Gauss  10(-4) cm-1        Axes

              Baa    -0.4734    34.253    12.222    11.426  0.7330 -0.6397  0.2315
     1 O(17)  Bbb    -0.3789    27.419     9.784     9.146  0.6708  0.6232 -0.4020
              Bcc     0.8523   -61.673   -22.006   -20.572  0.1129  0.4500  0.8859
 
              Baa    -0.0110    -1.480    -0.528    -0.494 -0.1873  0.6014  0.7767
     2 C(13)  Bbb    -0.0053    -0.715    -0.255    -0.239 -0.2104  0.7478 -0.6298
              Bcc     0.0164     2.196     0.783     0.732  0.9595  0.2814  0.0135
 
              Baa    -0.0097    -1.300    -0.464    -0.434 -0.0300 -0.1025  0.9943
     3 C(13)  Bbb     0.0028     0.376     0.134     0.126  0.9920  0.1188  0.0422
              Bcc     0.0069     0.923     0.329     0.308 -0.1224  0.9876  0.0982
 
              Baa    -0.0040    -0.533    -0.190    -0.178  0.0371  0.9966  0.0729
     4 C(13)  Bbb    -0.0023    -0.314    -0.112    -0.105 -0.1032 -0.0688  0.9923
              Bcc     0.0063     0.847     0.302     0.283  0.9940 -0.0443  0.1003
 
              Baa    -0.4769   -63.995   -22.835   -21.346  0.8050 -0.5731  0.1532
     5 C(13)  Bbb    -0.4628   -62.101   -22.159   -20.715  0.5806  0.7082 -0.4018
              Bcc     0.9397   126.096    44.994    42.061  0.1218  0.4124  0.9028
 
              Baa    -0.0092    -4.914    -1.753    -1.639  0.0754  0.8576  0.5087
     6 H(1)   Bbb    -0.0068    -3.639    -1.299    -1.214  0.4562 -0.4833  0.7472
              Bcc     0.0160     8.553     3.052     2.853  0.8867  0.1757 -0.4277
 
              Baa    -0.0079    -4.204    -1.500    -1.402  0.0442 -0.0957  0.9944
     7 H(1)   Bbb    -0.0063    -3.375    -1.204    -1.126  0.8153 -0.5718 -0.0912
              Bcc     0.0142     7.579     2.704     2.528  0.5773  0.8148  0.0527
 
              Baa    -0.0027    -1.444    -0.515    -0.482 -0.1134  0.3072  0.9449
     8 H(1)   Bbb    -0.0023    -1.242    -0.443    -0.414 -0.6401  0.7047 -0.3060
              Bcc     0.0050     2.685     0.958     0.896  0.7599  0.6395 -0.1168
 
              Baa    -0.0032    -1.726    -0.616    -0.576  0.7286 -0.5223 -0.4430
     9 H(1)   Bbb    -0.0030    -1.625    -0.580    -0.542  0.0207 -0.6298  0.7765
              Bcc     0.0063     3.351     1.196     1.118  0.6846  0.5749  0.4481
 
              Baa    -0.0018    -0.954    -0.341    -0.318 -0.0758  0.9117 -0.4038
    10 H(1)   Bbb    -0.0016    -0.877    -0.313    -0.293  0.0264  0.4066  0.9132
              Bcc     0.0034     1.832     0.654     0.611  0.9968  0.0586 -0.0549
 
              Baa    -0.0028    -1.472    -0.525    -0.491  0.1721  0.9491 -0.2637
    11 H(1)   Bbb    -0.0026    -1.369    -0.488    -0.457 -0.2827  0.3040  0.9097
              Bcc     0.0053     2.840     1.013     0.947  0.9436 -0.0820  0.3207
 
              Baa    -0.0030    -1.624    -0.580    -0.542  0.3481  0.9034 -0.2505
    12 H(1)   Bbb    -0.0027    -1.456    -0.520    -0.486  0.1450  0.2121  0.9664
              Bcc     0.0058     3.081     1.099     1.028  0.9262 -0.3728 -0.0571
 
              Baa    -0.0533   -28.463   -10.156    -9.494  0.9983 -0.0564 -0.0166
    13 H(1)   Bbb    -0.0125    -6.662    -2.377    -2.222  0.0206  0.0717  0.9972
              Bcc     0.0658    35.125    12.533    11.716  0.0551  0.9958 -0.0727
 
              Baa    -0.0538   -28.720   -10.248    -9.580 -0.6126  0.7207 -0.3244
    14 H(1)   Bbb    -0.0135    -7.192    -2.566    -2.399  0.3650  0.6220  0.6927
              Bcc     0.0673    35.912    12.814    11.979  0.7010  0.3060 -0.6441
 

 ---------------------------------------------------------------------------------

 No NMR shielding tensors so no spin-rotation constants.
 Leave Link  601 at Sun Mar 10 20:21:07 2019, MaxMem=   671088640 cpu:              12.7 elap:               0.7
 (Enter /shared/centos7/gaussian/g16/l701.exe)
 SCFChk:  SCF convergence  6.80D-09 required  1.00D-08
 ... and contract with generalized density number  0.
 Compute integral second derivatives.
 Entering OneElI...
 Calculate overlap and kinetic energy integrals
    NBasis = 276  MinDer = 2  MaxDer = 2
 Requested accuracy = 0.1000D-12
 PrmmSu-InSpLW:  IPartL=    0 NPrtUS=   20 NPrtUL=    1 DoSpLW=F IThBeg=    0 IThEnd=   19 NThAct=   20.
 PrsmSu:  NPrtUS=  20 ThrOK=T IAlg=1 NPAlg=1 LenDen=           0 ISkipM=0 DoSpLW=F IThBeg=    0 IThEnd=   19.
 Prism:   IPart=     0 DynPar=F LinDyn=F Incr=           1.
 PRISM was handed    33456773 working-precision words and  3654 shell-pairs
 PRISM was handed    33456773 working-precision words and  3654 shell-pairs
 PRISM was handed    33456773 working-precision words and  3654 shell-pairs
 PRISM was handed    33456773 working-precision words and  3654 shell-pairs
 PRISM was handed    33456773 working-precision words and  3654 shell-pairs
 PRISM was handed    33456773 working-precision words and  3654 shell-pairs
 PRISM was handed    33456773 working-precision words and  3654 shell-pairs
 PRISM was handed    33456773 working-precision words and  3654 shell-pairs
 PRISM was handed    33456773 working-precision words and  3654 shell-pairs
 PRISM was handed    33456773 working-precision words and  3654 shell-pairs
 PRISM was handed    33456773 working-precision words and  3654 shell-pairs
 PRISM was handed    33456773 working-precision words and  3654 shell-pairs
 PRISM was handed    33456773 working-precision words and  3654 shell-pairs
 PRISM was handed    33456773 working-precision words and  3654 shell-pairs
 PRISM was handed    33456773 working-precision words and  3654 shell-pairs
 PRISM was handed    33456773 working-precision words and  3654 shell-pairs
 PRISM was handed    33456773 working-precision words and  3654 shell-pairs
 PRISM was handed    33456773 working-precision words and  3654 shell-pairs
 PRISM was handed    33456773 working-precision words and  3654 shell-pairs
 PRISM was handed    33456773 working-precision words and  3654 shell-pairs
 IPart=  4 NShTot=         202 NBatch=          45 AvBLen=         4.5
 IPart= 17 NShTot=         164 NBatch=          29 AvBLen=         5.7
 IPart=  1 NShTot=         210 NBatch=          50 AvBLen=         4.2
 IPart=  7 NShTot=         185 NBatch=          37 AvBLen=         5.0
 IPart=  9 NShTot=         185 NBatch=          37 AvBLen=         5.0
 IPart=  3 NShTot=         204 NBatch=          47 AvBLen=         4.3
 IPart=  8 NShTot=         185 NBatch=          37 AvBLen=         5.0
 IPart= 10 NShTot=         175 NBatch=          35 AvBLen=         5.0
 IPart= 12 NShTot=         171 NBatch=          32 AvBLen=         5.3
 IPart=  2 NShTot=         205 NBatch=          47 AvBLen=         4.4
 IPart= 13 NShTot=         171 NBatch=          32 AvBLen=         5.3
 IPart=  5 NShTot=         192 NBatch=          39 AvBLen=         4.9
 IPart=  6 NShTot=         189 NBatch=          38 AvBLen=         5.0
 IPart= 15 NShTot=         166 NBatch=          31 AvBLen=         5.4
 IPart= 14 NShTot=         171 NBatch=          32 AvBLen=         5.3
 IPart= 11 NShTot=         174 NBatch=          34 AvBLen=         5.1
 IPart=  0 NShTot=         214 NBatch=          54 AvBLen=         4.0
 IPart= 19 NShTot=         163 NBatch=          28 AvBLen=         5.8
 IPart= 16 NShTot=         164 NBatch=          29 AvBLen=         5.7
 IPart= 18 NShTot=         164 NBatch=          29 AvBLen=         5.7
 PrSmSu:  NxtVal=             21.
 Entering OneElI...
 Calculate potential energy integrals
    NBasis = 276  MinDer = 2  MaxDer = 2
 Requested accuracy = 0.1000D-12
 PrmmSu-InSpLW:  IPartL=    0 NPrtUS=   20 NPrtUL=    1 DoSpLW=F IThBeg=    0 IThEnd=   19 NThAct=   20.
 PrsmSu:  NPrtUS=  20 ThrOK=T IAlg=1 NPAlg=1 LenDen=           0 ISkipM=0 DoSpLW=F IThBeg=    0 IThEnd=   19.
 Prism:   IPart=     0 DynPar=F LinDyn=F Incr=          24.
 PRISM was handed    33469017 working-precision words and  3512 shell-pairs
 PRISM was handed    33469017 working-precision words and  3512 shell-pairs
 PRISM was handed    33469017 working-precision words and  3512 shell-pairs
 PRISM was handed    33469017 working-precision words and  3512 shell-pairs
 PRISM was handed    33469017 working-precision words and  3512 shell-pairs
 PRISM was handed    33469017 working-precision words and  3512 shell-pairs
 PRISM was handed    33469017 working-precision words and  3512 shell-pairs
 PRISM was handed    33469017 working-precision words and  3512 shell-pairs
 PRISM was handed    33469017 working-precision words and  3512 shell-pairs
 PRISM was handed    33469017 working-precision words and  3512 shell-pairs
 PRISM was handed    33469017 working-precision words and  3512 shell-pairs
 PRISM was handed    33469017 working-precision words and  3512 shell-pairs
 PRISM was handed    33469017 working-precision words and  3512 shell-pairs
 PRISM was handed    33469017 working-precision words and  3512 shell-pairs
 PRISM was handed    33469017 working-precision words and  3512 shell-pairs
 PRISM was handed    33469017 working-precision words and  3512 shell-pairs
 PRISM was handed    33469017 working-precision words and  3512 shell-pairs
 PRISM was handed    33469017 working-precision words and  3512 shell-pairs
 PRISM was handed    33469017 working-precision words and  3512 shell-pairs
 PRISM was handed    33469017 working-precision words and  3512 shell-pairs
 IPart=  9 NShTot=        2436 NBatch=         174 AvBLen=        14.0
 IPart= 18 NShTot=        2198 NBatch=         157 AvBLen=        14.0
 IPart=  3 NShTot=        2744 NBatch=         196 AvBLen=        14.0
 IPart=  7 NShTot=        2520 NBatch=         180 AvBLen=        14.0
 IPart=  4 NShTot=        2660 NBatch=         190 AvBLen=        14.0
 IPart= 15 NShTot=        2226 NBatch=         159 AvBLen=        14.0
 IPart=  1 NShTot=        2870 NBatch=         205 AvBLen=        14.0
 IPart=  5 NShTot=        2590 NBatch=         185 AvBLen=        14.0
 IPart=  2 NShTot=        2786 NBatch=         199 AvBLen=        14.0
 IPart= 16 NShTot=        2226 NBatch=         159 AvBLen=        14.0
 IPart=  8 NShTot=        2492 NBatch=         178 AvBLen=        14.0
 IPart= 12 NShTot=        2310 NBatch=         165 AvBLen=        14.0
 IPart= 11 NShTot=        2338 NBatch=         167 AvBLen=        14.0
 IPart= 17 NShTot=        2212 NBatch=         158 AvBLen=        14.0
 IPart= 14 NShTot=        2282 NBatch=         163 AvBLen=        14.0
 IPart=  6 NShTot=        2520 NBatch=         180 AvBLen=        14.0
 IPart= 13 NShTot=        2296 NBatch=         164 AvBLen=        14.0
 IPart= 10 NShTot=        2380 NBatch=         170 AvBLen=        14.0
 IPart=  0 NShTot=        2898 NBatch=         207 AvBLen=        14.0
 IPart= 19 NShTot=        2184 NBatch=         156 AvBLen=        14.0
 PrSmSu:  NxtVal=            481.
 Polarizability after L701:
                1             2             3 
      1  0.000000D+00
      2  0.000000D+00  0.000000D+00
      3  0.000000D+00  0.000000D+00  0.000000D+00
 Dipole Derivatives after L701:
                 1             2             3             4             5 
      1  -0.277744D-01 -0.112992D+00  0.344637D-01 -0.969502D-01  0.155996D-01
      2  -0.926906D-01 -0.169133D+00 -0.494462D-02  0.343505D-01  0.461468D-02
      3   0.930874D-02 -0.905436D-02 -0.166597D+00  0.208579D-01  0.105206D+00
                 6             7             8             9            10 
      1   0.142496D+00 -0.828917D+00 -0.315140D+00 -0.107979D+00 -0.153468D+01
      2   0.994297D-01 -0.407666D-01 -0.153763D+01 -0.204789D+00  0.150084D+00
      3  -0.915629D+00 -0.615062D-01 -0.197042D-01 -0.826771D+00  0.720264D-01
                11            12            13            14            15 
      1   0.358132D+00 -0.116650D+00 -0.145495D+01  0.525862D+00  0.789995D+00
      2  -0.965612D+00  0.108497D-01 -0.190249D+00 -0.688957D+00  0.296414D+00
      3  -0.551534D-01 -0.102572D+01  0.164227D+00  0.263569D+00 -0.293059D+00
                16            17            18            19            20 
      1   0.188131D+00  0.646328D-02 -0.107710D+00  0.430983D+00 -0.833431D-01
      2   0.151562D-03  0.200267D+00  0.279171D-01 -0.795872D+00  0.395737D+00
      3   0.261117D-01 -0.150217D-01  0.758517D+00  0.268182D-01  0.870628D-03
                21            22            23            24            25 
      1   0.555042D-01  0.465519D+00  0.296090D+00 -0.265643D+00  0.189807D+00
      2  -0.110519D+00  0.601020D+00  0.633605D+00 -0.440439D+00  0.166320D+00
      3   0.129997D+00 -0.149867D+00 -0.112703D+00  0.246476D+00  0.134660D+00
                26            27            28            29            30 
      1   0.395956D-01  0.265603D+00  0.104635D+01  0.495243D+00 -0.413223D+00
      2   0.238489D+00  0.612759D+00 -0.631425D-01  0.951883D-01  0.759913D-02
      3   0.589970D-01  0.669948D+00 -0.166557D+00 -0.105325D+00  0.212662D+00
                31            32            33            34            35 
      1   0.255903D+00 -0.316722D-01  0.749263D+00  0.113451D+00 -0.689509D+00
      2  -0.543325D-01  0.138784D+00 -0.313640D+00  0.108572D-01  0.894691D+00
      3   0.666784D-01 -0.161271D-01  0.648568D+00  0.125155D-01  0.154981D+00
                36            37            38            39            40 
      1  -0.237439D+00  0.101982D+00 -0.876523D+00  0.717391D-01  0.115116D+01
      2   0.277015D+00  0.696632D-01  0.530413D+00 -0.454832D-01  0.204607D+00
      3   0.189708D+00 -0.727347D-02 -0.155045D+00  0.110134D+00 -0.148001D+00
                41            42 
      1   0.372194D+00 -0.860419D+00
      2   0.229541D+00 -0.212168D+00
      3  -0.954899D-01  0.261770D+00
 Hessian after L701:
                1             2             3             4             5 
      1  0.115732D+01
      2 -0.537353D+00  0.982498D+01
      3  0.559100D-02  0.207359D+01  0.116867D+02
      4 -0.174800D+01  0.258082D+01 -0.196400D+01  0.126240D+02
      5  0.255367D+01 -0.471277D+01 -0.140471D+01 -0.664664D+00  0.143653D+02
      6 -0.187541D+01 -0.130947D+01 -0.551839D+01  0.803441D+00  0.668559D+00
      7 -0.786909D-01  0.375428D+00  0.132610D+00 -0.552139D+01  0.127732D+00
      8  0.304375D+00  0.567417D+00  0.195807D+00  0.832881D-01 -0.927016D+00
      9  0.876938D-01  0.104317D+00 -0.251957D+00  0.104540D+00  0.113582D+01
     10  0.761908D+00 -0.108206D+00 -0.633981D-01 -0.206756D+01 -0.197351D+01
     11 -0.997238D-03 -0.158186D+00  0.231252D-01 -0.196987D+01 -0.473448D+01
     12 -0.813942D-01  0.285998D-01 -0.155953D+00  0.885353D+00 -0.396375D+00
     13 -0.375633D+00 -0.249221D+01  0.210993D+01  0.481610D+00 -0.287273D-01
     14 -0.243933D+01 -0.590522D+01 -0.918476D+00  0.395546D-01 -0.833372D-01
     15  0.215156D+01 -0.951856D+00 -0.600694D+01  0.460732D-01  0.312804D-01
     16 -0.153723D-01 -0.643548D-01  0.745417D-02 -0.403457D+01 -0.137243D-02
     17 -0.533136D-01 -0.531934D-01  0.544678D-01 -0.541811D-02 -0.402347D+01
     18 -0.514383D-01  0.411188D-01  0.272586D+00  0.129175D+00 -0.282849D-01
     19 -0.254122D-01 -0.576815D-01  0.963444D-02  0.357476D-01 -0.456928D-01
     20  0.118481D-01  0.527302D-01  0.279594D-01  0.601039D-01  0.630334D-01
     21  0.803210D-03  0.827481D-02 -0.280302D-01  0.383493D-01 -0.205472D-01
     22  0.306038D-01  0.108184D+00 -0.338400D-01 -0.135610D-01 -0.268234D-01
     23  0.103533D+00  0.888769D-01 -0.458664D-01 -0.903692D-01  0.541105D-01
     24 -0.391345D-01 -0.531134D-01 -0.296722D-01 -0.142294D-01 -0.184493D-01
     25 -0.255153D-02  0.404727D-01  0.118462D-01  0.370156D-01  0.139420D-01
     26  0.256875D-01  0.345783D-01  0.146714D-01  0.118744D-01 -0.850349D-02
     27  0.285202D-01  0.538090D-01 -0.605712D-03  0.329260D-01 -0.739141D-02
     28  0.192977D+00  0.549761D-01 -0.521152D-01 -0.398265D-01 -0.754433D-01
     29  0.559717D-01 -0.460569D-01 -0.110334D-01  0.114882D-02  0.591076D-01
     30 -0.566802D-01 -0.109176D-01 -0.420512D-01  0.301882D-02 -0.926893D-02
     31  0.599361D-01 -0.146501D-01  0.180679D-01  0.464634D-01  0.989872D-03
     32 -0.665118D-02 -0.265554D-01 -0.170872D-02 -0.176957D-02 -0.486519D-02
     33  0.705124D-01 -0.737136D-02 -0.376485D-02  0.344190D-01  0.899692D-02
     34  0.786587D-01 -0.330906D-01 -0.657943D-02  0.473664D-01  0.611449D-01
     35 -0.944841D-01 -0.112418D-01  0.119925D-01 -0.281256D-01 -0.154477D-01
     36 -0.349513D-01  0.121375D-01 -0.429992D-01 -0.176288D-01  0.468656D-01
     37 -0.526957D-01  0.803224D-01 -0.801007D-01  0.312570D-01  0.236828D-01
     38 -0.177640D-01  0.289485D+00  0.229607D-02 -0.492071D-01  0.426960D-02
     39 -0.439382D-01  0.255292D-01  0.210790D-01 -0.168937D-01  0.451158D-02
[...]
 ! A21   A(1,5,14)             114.7791         -DE/DX =    0.0                 !
 ! A22   A(13,5,14)            121.9051         -DE/DX =    0.0                 !
 ! D1    D(5,1,2,3)             79.0591         -DE/DX =    0.0                 !
 ! D2    D(5,1,2,4)           -158.7294         -DE/DX =    0.0                 !
 ! D3    D(5,1,2,6)            -40.8359         -DE/DX =    0.0                 !
 ! D4    D(2,1,5,13)           -12.9905         -DE/DX =    0.0                 !
 ! D5    D(2,1,5,14)          -170.3771         -DE/DX =    0.0                 !
 ! D6    D(1,2,3,7)            -58.3293         -DE/DX =    0.0                 !
 ! D7    D(1,2,3,8)           -178.6264         -DE/DX =    0.0                 !
 ! D8    D(1,2,3,9)             61.6749         -DE/DX =    0.0                 !
 ! D9    D(4,2,3,7)           -177.1427         -DE/DX =    0.0                 !
 ! D10   D(4,2,3,8)             62.5602         -DE/DX =    0.0                 !
 ! D11   D(4,2,3,9)            -57.1385         -DE/DX =    0.0                 !
 ! D12   D(6,2,3,7)             60.2745         -DE/DX =    0.0                 !
 ! D13   D(6,2,3,8)            -60.0226         -DE/DX =    0.0                 !
 ! D14   D(6,2,3,9)           -179.7212         -DE/DX =    0.0                 !
 ! D15   D(1,2,4,10)           179.6012         -DE/DX =    0.0                 !
 ! D16   D(1,2,4,11)           -60.753          -DE/DX =    0.0                 !
 ! D17   D(1,2,4,12)            59.0425         -DE/DX =    0.0                 !
 ! D18   D(3,2,4,10)           -59.6751         -DE/DX =    0.0                 !
 ! D19   D(3,2,4,11)            59.9707         -DE/DX =    0.0                 !
 ! D20   D(3,2,4,12)           179.7662         -DE/DX =    0.0                 !
 ! D21   D(6,2,4,10)            62.9987         -DE/DX =    0.0                 !
 ! D22   D(6,2,4,11)          -177.3555         -DE/DX =    0.0                 !
 ! D23   D(6,2,4,12)           -57.5601         -DE/DX =    0.0                 !
 ! D24   D(1,5,13,14)         -155.7174         -DE/DX =    0.0                 !
 --------------------------------------------------------------------------------
 GradGradGradGradGradGradGradGradGradGradGradGradGradGradGradGradGradGrad

 Leave Link  103 at Sun Mar 10 20:53:43 2019, MaxMem=   671088640 cpu:               0.6 elap:               0.1
 (Enter /shared/centos7/gaussian/g16/l9999.exe)

 ----------------------------------------------------------------------

 Electric dipole moment (input orientation):
 (Debye = 10**-18 statcoulomb cm , SI units = C m)
                  (au)            (Debye)         (10**-30 SI)
   Tot        0.606811D+00      0.154236D+01      0.514476D+01
   x         -0.402242D+00     -0.102240D+01     -0.341035D+01
   y          0.229503D+00      0.583338D+00      0.194580D+01
   z          0.392108D+00      0.996640D+00      0.332443D+01

 Dipole polarizability, Alpha (input orientation).
 (esu units = cm**3 , SI units = C**2 m**2 J**-1)
 Alpha(0;0):
               (au)            (10**-24 esu)      (10**-40 SI)
   iso        0.556360D+02      0.824441D+01      0.917314D+01
   aniso      0.135493D+02      0.200780D+01      0.223398D+01
   xx         0.640388D+02      0.948957D+01      0.105586D+02
   yx        -0.402379D+00     -0.596264D-01     -0.663433D-01
   yy         0.535783D+02      0.793948D+01      0.883387D+01
   zx         0.112099D+01      0.166114D+00      0.184827D+00
   zy         0.149196D+01      0.221086D+00      0.245991D+00
   zz         0.492910D+02      0.730417D+01      0.812698D+01

 ----------------------------------------------------------------------

 Dipole orientation:
     8          0.65324833          0.57933060         -2.09503819
     6          0.07311639         -0.09555960          0.45172998
     6          0.46896460          2.16180594          2.18238916
     6         -2.63602394         -1.01621457          0.46420885
     6          3.12345923          0.64095336         -2.69917652
     1          1.33927405         -1.63765714          1.00248648
     1          2.40469561          2.85303340          2.07437315
     1          0.07256662          1.64349107          4.13542232
     1         -0.80084770          3.68893768          1.63419432
     1         -3.19197664         -1.57609603          2.36542102
     1         -3.88773912          0.49240922         -0.16907413
     1         -2.85985182         -2.62553309         -0.79645308
     1          4.51363687          0.58793036         -1.20334597
     1          3.53573953          1.44483024         -4.52260176

 Electric dipole moment (dipole orientation):
 (Debye = 10**-18 statcoulomb cm , SI units = C m)
                  (au)            (Debye)         (10**-30 SI)
   Tot        0.606811D+00      0.154236D+01      0.514476D+01
   x          0.000000D+00      0.000000D+00      0.000000D+00
   y          0.000000D+00      0.000000D+00      0.000000D+00
   z          0.606811D+00      0.154236D+01      0.514476D+01

 Dipole polarizability, Alpha (dipole orientation).
 (esu units = cm**3 , SI units = C**2 m**2 J**-1)
 Alpha(0;0):
               (au)            (10**-24 esu)      (10**-40 SI)
   iso        0.556360D+02      0.824441D+01      0.917314D+01
   aniso      0.135493D+02      0.200780D+01      0.223398D+01
   xx         0.586167D+02      0.868610D+01      0.966459D+01
   yx         0.258353D+01      0.382840D+00      0.425967D+00
   yy         0.519361D+02      0.769614D+01      0.856311D+01
   zx        -0.643121D+01     -0.953008D+00     -0.106036D+01
   zy         0.127038D+01      0.188250D+00      0.209457D+00
   zz         0.563552D+02      0.835099D+01      0.929172D+01

 ----------------------------------------------------------------------

 Test job not archived.
 1\1\GINC-C0046\Freq\UM062X\6-311+G(2df,2p)\C4H9O1(2)\UNDERKOFFLER.C\10
 -Mar-2019\0\\#P Geom=AllCheck Guess=TCheck SCRF=Check Test GenChk UM06
 2X/6-311+G(2df,2p) Freq\\Gaussian input prepared by ASE\\0,2\O,1.03499
 98799,-0.0867265598,-0.6031853205\C,-0.1377956597,0.0501283407,0.19923
 92343\C,-0.4093912962,1.5191531326,0.4780913855\C,-1.2673162783,-0.610
 5651743,-0.5625464834\C,2.2101448881,0.0212161242,0.0444020415\H,0.035
 9041029,-0.4827336796,1.1403467908\H,0.4351263208,1.9875368838,0.98182
 97675\H,-1.2900222968,1.6276412845,1.1106053736\H,-0.5866134913,2.0450
 019126,-0.4604269371\H,-2.1950148413,-0.5453921306,0.0045981601\H,-1.4
 091624749,-0.1092304592,-1.5201078159\H,-1.0416278265,-1.6585279788,-0
 .7500455138\H,2.2204494587,0.4070099063,1.054150527\H,3.0744871891,0.0
 779298331,-0.5953747959\\Version=EM64L-G16RevA.03\State=2-A\HF=-232.96
 44788\S2=0.754696\S2-1=0.\S2A=0.750016\RMSD=6.050e-09\RMSF=9.115e-07\Z
 eroPoint=0.1228562\Thermal=0.1297546\Dipole=-0.402242,0.2295027,0.3921
 085\DipoleDeriv=-1.5840249,0.0840997,-0.0973426,-0.017311,-0.2771753,-
 0.0932056,-0.1353964,-0.0781366,-0.5694534,0.9177057,-0.0522765,-0.072
 0303,-0.0350998,0.4494244,0.0683344,-0.3266273,0.082208,0.3456146,-0.0
 301709,-0.0144765,-0.0255974,0.0404114,-0.1347068,-0.0711748,0.050441,
 -0.0496684,0.0609287,-0.0464311,-0.0218956,-0.0347224,-0.0545786,0.003
 3439,-0.0442252,-0.0559951,-0.0592993,0.0485037,0.8151253,-0.0147342,0
 .1757556,0.1089811,-0.3240329,0.1408695,0.3762129,0.1062108,0.2684998,
 -0.0375,0.0417639,-0.0743524,0.0022432,-0.0516576,0.0672814,0.0410922,
 0.0515862,-0.104109,-0.0329573,-0.0769969,-0.0774797,-0.0433548,0.0016
 91,-0.0316193,-0.0652265,-0.0371419,0.028872,-0.0616233,0.0333084,0.09
 02925,0.0195982,0.0519938,0.014772,0.0966671,-0.0133536,0.0171073,0.06
 49392,0.0199279,-0.0135547,0.0119393,0.0154725,0.0225907,-0.0372374,0.
 0895992,-0.0692856,-0.0787881,-0.0008007,0.0519922,0.0190797,0.0715315
 ,-0.0237756,0.089073,-0.0108737,0.0033253,0.056783,-0.018178,-0.000677
 ,0.0073256,0.0115442,0.0915563,-0.0509518,0.0475264,-0.0580509,0.05340
 24,0.0404087,-0.0051987,0.0031252,-0.1067202,-0.0440449,-0.023504,-0.0
 353738,0.0550597,0.0047779,0.0053456,0.0687137,-0.0141437,0.12882,-0.0
 987732,-0.0281043,-0.0780353,-0.0361424,-0.0412381,-0.0254957,0.014201
 2,-0.0482159,0.1604716,0.0014143,0.0695566,-0.015248,0.0091302\Polar=6
 4.0387838,-0.402379,53.5782968,1.1209938,1.4919622,49.2909782\Quadrupo
 le=0.8126291,-0.7784361,-0.0341931,0.8995842,0.1382513,0.1038759\PG=C0
 1 [X(C4H9O1)]\NImag=0\\0.58538643,0.01033621,0.06741252,0.04128670,0.0
 5316647,0.32959169,-0.15044995,0.00585551,0.04379450,0.49474407,0.0113
 7016,-0.06416082,-0.01085673,0.00347605,0.52163312,0.07577630,-0.01207
 765,-0.14290892,0.05485935,-0.04484766,0.58114295,-0.02501050,0.034508
 86,0.01555785,-0.07778833,0.01100832,-0.00450509,0.58551214,0.00708336
 ,-0.00181176,-0.00772804,0.01623490,-0.19745809,-0.01461344,0.02286687
 ,0.48793239,0.01820587,-0.02402272,-0.00892938,-0.00386030,-0.00760548
 ,-0.08106081,0.00196774,-0.01423674,0.58169504,-0.04654713,-0.01353590
 ,-0.01194490,-0.13869004,-0.03892044,-0.04854271,0.00687576,-0.0017852
 6,-0.00014647,0.53949091,0.00115761,0.00319896,0.00167772,-0.04274681,
 -0.10605878,-0.02790323,-0.02747915,-0.02095603,-0.02047883,-0.0315685
 4,0.57644623,0.02561767,0.00882791,0.01184436,-0.06289467,-0.03212441,
 -0.12262446,-0.00559841,-0.00511224,-0.00357410,-0.04060418,-0.0159958
 7,0.55935448,-0.31266578,-0.00951899,-0.10229333,-0.05318575,-0.002065
 08,-0.01107510,0.00340492,0.00116491,-0.00130319,-0.00239828,0.0013434
 1,0.00113622,0.65508866,-0.02401496,-0.00562936,-0.03185396,-0.0011340
 4,-0.00423920,0.00524959,0.00315676,-0.00057335,-0.00239343,-0.0010886
 6,0.00006784,0.00000864,0.03354349,0.06452036,-0.14263306,-0.02600946,
 -0.17024907,0.01293529,0.00343942,0.01293489,0.00400085,0.00139960,-0.
 00094273,0.00397441,-0.00064539,-0.00330025,-0.04413903,0.13731003,0.6
 3863684,-0.01352498,-0.01330333,0.03399662,-0.05738695,0.02321548,-0.0
 4574389,0.00064128,0.00224622,-0.00519410,-0.00408814,0.01200585,-0.02
 264991,0.00515536,-0.00013183,0.00518408,0.07040745,-0.00101442,0.0048
 1308,-0.00396307,0.02163317,-0.11320247,0.10591481,0.00701931,-0.01817
 976,0.02762377,-0.00325422,0.00763921,-0.01435381,-0.00042505,0.000470
 12,0.00041140,-0.02265567,0.12189791,0.01288858,0.00823893,-0.02531451
 ,-0.03810174,0.10337734,-0.22730810,0.00033545,-0.00342815,0.00712892,
 -0.00481038,0.00704953,-0.01332513,-0.00417631,-0.00161954,-0.00001608
 ,0.03538721,-0.11184516,0.25587940,0.00122542,-0.00104046,-0.00040354,
 0.00469890,0.00337928,0.00422628,-0.21190997,-0.08975905,-0.09883677,0
 .00026397,0.00095240,0.00070460,-0.00065172,0.00062219,-0.00008754,0.0
 0030625,-0.00086457,-0.00006457,0.22861952,0.00020044,0.00257668,0.001
 79520,-0.02838935,-0.01316325,-0.01567144,-0.08755274,-0.09508662,-0.0
 5220436,0.00304985,-0.00620855,-0.00047938,-0.00025537,-0.00014624,-0.
 00090154,0.00010358,0.00135685,0.00054116,0.09682759,0.10405115,-0.000
 09285,0.00037079,0.00015206,-0.00351779,-0.00203591,-0.00397472,-0.098
 21624,-0.05198410,-0.10608348,0.00073736,-0.00153249,0.00051140,-0.000
 06944,0.00046284,-0.00034293,0.00063639,-0.00006948,0.00022713,0.10819
 389,0.05831238,0.11034833,-0.00043273,0.00183943,-0.00003267,-0.005614
 34,-0.00187163,0.00235912,-0.22368129,0.02134238,0.12770004,-0.0002795
 7,-0.00049789,-0.00006671,0.00093788,0.00039590,0.00041261,0.00011907,
 0.00034223,-0.00029171,-0.01894328,0.00316364,0.01476485,0.24159775,0.
 00576113,-0.00743697,-0.00275379,0.02426559,0.00204217,-0.01772172,0.0
 1941262,-0.05018329,-0.01391935,-0.00003844,0.00116575,0.00014841,-0.0
 0171087,-0.00028678,-0.00146351,-0.00019125,0.00100813,0.00107498,-0.0
 1050296,0.00082370,0.00926978,-0.02290140,0.05196834,0.00105495,-0.001
 80277,0.00122999,0.00332360,0.00146946,-0.00461437,0.12749792,-0.01502
 471,-0.13828983,0.00015532,0.00045075,-0.00006717,-0.00072782,0.000097
 76,-0.00040536,-0.00010415,-0.00033968,0.00017780,-0.01281891,0.002632
 88,0.00970014,-0.14047900,0.01705744,0.14643133,0.00114259,-0.00074194
 ,-0.00027282,-0.00223832,0.00428963,-0.00533401,-0.05446354,0.01960795
 ,-0.03811776,-0.00000508,-0.00072603,0.00060003,-0.00088285,-0.0003173
 6,-0.00044630,0.00057008,0.00115298,0.00030321,-0.00346945,0.01315879,
 -0.02176485,0.00558962,-0.01362270,0.02258178,0.05339831,-0.00127190,0
 .00308791,-0.00059188,0.00505265,-0.01989179,0.03145248,0.02015898,-0.
 10571340,0.10881466,0.00072224,0.00176465,0.00143917,0.00008374,0.0000
 7031,-0.00011019,0.00117922,-0.00579750,-0.00225061,-0.00121408,0.0067
 9419,-0.01267210,-0.00139983,0.00121588,-0.00399620,-0.02279928,0.1182
 3876,-0.00134030,0.00023694,0.00135484,0.00132482,-0.00312517,0.004184
 61,-0.03806636,0.11077210,-0.24942301,0.00039789,-0.00032857,0.0010651
 2,0.00004917,0.00017556,-0.00012305,0.00039030,-0.00168454,0.00093162,
 -0.00108828,0.00639549,-0.01187341,-0.00406770,0.00782376,-0.01466994,
 0.04212165,-0.12069424,0.26810546,-0.00628043,-0.00233329,-0.00390671,
 -0.01689408,0.00398260,0.01632766,0.00057402,0.00073282,0.00087362,-0.
 24296417,0.01272620,0.11937298,0.00036059,-0.00021764,0.00152023,0.000
 45043,0.00056709,-0.00043896,0.00026567,0.00016968,-0.00032166,0.00048
 248,-0.00050742,-0.00041720,-0.00003499,-0.00006165,-0.00012676,0.2644
 2961,-0.00361486,-0.00023978,-0.00172772,-0.00936593,-0.00040377,0.009
 68305,0.00026569,0.00021339,0.00026412,0.01457162,-0.04848399,-0.01003
 443,-0.00045966,0.00014165,0.00057582,0.00038162,0.00032494,-0.0000521
 2,0.00019322,0.00016685,0.00006210,-0.00034357,-0.00052759,-0.00048509
 ,-0.00004284,-0.00004512,0.00011335,-0.01428411,0.04815493,-0.00449913
 ,-0.00182875,-0.00093477,-0.01285103,0.00205396,0.00922180,0.00029256,
 0.00013219,0.00012555,0.12194251,-0.00918917,-0.12259973,-0.00060443,-
 0.00009138,0.00098170,0.00069869,0.00075837,0.00035711,-0.00007256,0.0
 0027504,0.00005829,-0.00021706,-0.00030791,0.00014550,0.00014773,-0.00
 007676,-0.00001381,-0.13194328,0.01116672,0.12953024,0.00284409,0.0002
 5677,0.00067701,-0.00548134,0.01222038,-0.02548487,0.00057552,0.001470
 20,0.00082093,-0.05016927,0.01537087,-0.02738143,-0.00046316,-0.000063
 65,-0.00016498,-0.00342185,-0.00264684,-0.00212937,-0.00006258,0.00010
 681,0.00026108,0.00003013,-0.00008508,0.00011399,0.00037706,-0.0005356
 3,0.00031707,0.00497268,-0.01387027,0.02426265,0.05248677,0.00143688,0
 .00007863,0.00032410,-0.00178368,0.00641468,-0.01424213,0.00024521,0.0
 0161109,-0.00093927,0.01582438,-0.10711459,0.11082403,-0.00005061,-0.0
 0009228,-0.00024233,-0.00248832,-0.00061241,-0.00157163,0.00009317,0.0
 0005557,0.00020597,0.00006345,-0.00007891,-0.00008104,-0.00022226,-0.0
 0012707,0.00026063,-0.00084016,0.00028844,-0.00313667,-0.01524391,0.11
 248078,0.00058294,-0.00030923,0.00153365,-0.00241049,0.00868393,-0.018
 70978,0.00068560,0.00096717,0.00059020,-0.02921441,0.10943107,-0.25331
 588,0.00007105,-0.00008332,0.00039939,-0.00261118,-0.00216445,-0.00020
 963,0.00005701,-0.00012112,0.00050575,-0.00010655,-0.00002747,-0.00000
 184,0.00000985,-0.00099827,0.00016015,-0.00284325,0.00686174,-0.013299
 08,0.03471297,-0.11933700,0.27598599,0.00255645,0.00079211,0.00031854,
 0.00476109,-0.02676429,-0.00373993,-0.00419830,-0.00142198,-0.00219370
 ,-0.06008348,0.05912254,0.01026193,-0.00023392,0.00011320,-0.00029692,
 0.00105061,0.00072833,0.00058918,0.00035875,-0.00151328,-0.00049717,0.
 00015924,0.00000322,-0.00024899,-0.00015545,0.00010572,0.00006628,-0.0
 0483958,0.02677396,0.00307391,-0.00182090,0.00297672,0.00093436,0.0623
 0002,0.00066237,0.00141062,0.00074666,0.00424990,-0.01414366,-0.001846
 37,-0.00321958,0.00008468,-0.00188337,0.05612342,-0.30135381,-0.043312
 10,-0.00033430,0.00016080,-0.00007184,-0.00020991,0.00079300,-0.000098
 22,0.00026519,-0.00082849,-0.00028317,0.00016185,0.00014575,0.00004568
 ,0.00003154,0.00046798,-0.00003485,0.00015573,0.00041185,0.00024823,0.
 00289924,-0.01295365,-0.00299431,-0.06086199,0.32585396,0.00087461,0.0
 0117277,0.00033791,0.00524405,-0.01789131,-0.00420605,-0.00337097,-0.0
 0082682,-0.00141986,0.00887943,-0.04244179,-0.05524289,0.00012276,0.00
 014057,-0.00005972,0.00083418,0.00019384,0.00024822,0.00003071,-0.0012
 8238,0.00028192,-0.00017238,0.00038496,0.00013854,-0.00003745,-0.00032
 641,0.00020043,0.00228859,-0.01625496,-0.00340116,-0.00635126,0.027790
 72,0.00634039,-0.00836309,0.04937333,0.05677210,-0.00790399,-0.0123747
 7,-0.03247599,0.00312903,-0.00071446,-0.00432663,-0.00032262,0.0003971
 9,0.00000528,-0.00027262,-0.00004192,0.00033461,-0.05851574,0.00221651
 ,0.01717922,-0.00020417,-0.00048045,0.00027396,-0.00071988,0.00078108,
 -0.00017127,0.00004514,-0.00003948,0.00003864,0.00016138,-0.00006770,0
 .00003685,-0.00012523,-0.00000398,0.00006607,0.00009608,-0.00006220,0.
 00018555,0.00008477,0.00008523,0.00000540,0.05907417,-0.00444929,0.000
 13112,0.00063149,0.00174481,0.00007478,-0.00203722,-0.00005797,0.00000
 918,0.00047254,-0.00014757,-0.00018938,0.00036904,0.00159207,-0.045935
 80,-0.12081058,-0.00034327,-0.00038859,0.00073891,0.00107853,-0.000535
 19,-0.00002292,-0.00025761,0.00005300,-0.00005691,0.00008877,-0.000052
 02,0.00003916,-0.00008195,-0.00002027,-0.00004728,0.00012438,0.0000498
 2,0.00009180,-0.00003818,-0.00001607,-0.00004357,0.00164863,0.04599175
 ,-0.00671074,-0.00673743,-0.01219727,0.00371764,0.00036099,-0.00025541
 ,-0.00025774,-0.00032805,0.00004329,-0.00006581,0.00001390,0.00043081,
 0.00437828,-0.10374251,-0.30305366,-0.00048579,-0.00011555,0.00072863,
 0.00016143,0.00040835,0.00049308,0.00018139,0.00032056,0.00019897,0.00
 011869,0.00000467,0.00005120,-0.00014366,-0.00005398,-0.00000426,0.000
 21240,0.00005650,-0.00000524,0.00006688,0.00009812,0.00000821,0.001487
 07,0.11576895,0.32045835,-0.03033948,-0.00074020,0.01569873,0.00039599
 ,-0.00260600,-0.00479647,-0.00020908,-0.00018051,0.00007880,-0.0011328
 4,0.00038146,0.00116726,-0.23595022,-0.01307989,0.14256116,-0.00007445
 ,-0.00010188,0.00023546,0.00001839,0.00014930,0.00005769,-0.00001011,0
 .00015705,0.00002987,0.00001064,0.00004753,-0.00001463,-0.00039701,-0.
 00020089,-0.00029664,0.00003678,0.00005133,-0.00005344,0.00006072,-0.0
 0000872,0.00001541,0.00547368,-0.00090135,-0.00266003,0.26211700,-0.00
 364275,-0.00343083,0.00113357,0.00090723,0.00255706,-0.00133907,-0.000
 33317,0.00011159,0.00050845,0.00004753,0.00008249,-0.00020497,-0.02290
 769,-0.00852808,0.00711857,0.00019162,-0.00012250,-0.00015542,-0.00003
 043,0.00014334,-0.00008369,-0.00003697,0.00009084,0.00003242,0.0001427
 5,-0.00001277,0.00005037,-0.00000789,0.00001845,0.00004340,-0.00000328
 ,-0.00000010,-0.00000054,-0.00001606,-0.00003298,0.00001105,0.00865632
 ,0.00082766,-0.00605451,0.01703278,0.00829583,-0.02101153,0.00077420,0
 .01448941,-0.00156322,-0.00089843,-0.00182163,-0.00032316,0.00001121,0
 .00014019,-0.00075806,-0.00010761,0.00084344,0.15863117,-0.00366084,-0
 .17445996,-0.00033844,-0.00036646,0.00049462,-0.00000175,0.00029973,-0
 .00000356,0.00001577,0.00011385,0.00002624,0.00009026,0.00000567,0.000
 04980,-0.00024160,-0.00011858,-0.00016737,0.00013380,0.00008811,0.0000
 2593,0.00002872,0.00001219,0.00000197,0.01736124,0.00490659,-0.0068967
 0,-0.15202318,-0.00105963,0.16727763\\-0.00000048,-0.00000110,-0.00000
 007,-0.00000045,0.00000025,0.00000031,0.00000107,0.00000052,-0.0000004
 7,-0.00000079,0.00000077,0.00000064,0.00000007,-0.00000158,-0.00000011
 ,-0.00000041,0.00000048,0.00000032,0.00000147,0.00000011,-0.00000080,0
 .00000124,0.00000149,-0.00000037,0.00000127,0.00000029,-0.00000068,-0.
 00000064,0.00000174,0.00000073,-0.00000058,0.00000048,0.00000038,-0.00
 000165,0.00000048,0.00000102,0.00000020,-0.00000126,-0.00000048,-0.000
 00033,-0.00000267,-0.00000042\\\@


 WE DON'T KNOW ONE MILLIONTH OF ONE PERCENT ABOUT
 ANYTHING.
                                     T. A. EDISON.
 Job cpu time:       0 days  3 hours  3 minutes 21.6 seconds.
 Elapsed time:       0 days  0 hours  9 minutes 10.8 seconds.
 File lengths (MBytes):  RWF=   1376 Int=      0 D2E=      0 Chk=     32 Scr=     32
 Normal termination of Gaussian 16 at Sun Mar 10 20:53:43 2019.
