 Entering Gaussian System, Link 0=g16
 Input=BWWHSGPVJDTLAO-UHFFFAOYSA-N_GeoFreq_c3_a1.com
 Output=BWWHSGPVJDTLAO-UHFFFAOYSA-N_GeoFreq_c3_a1.log
 Initial command:
 /shared/centos7/gaussian/g16/l1.exe "/scratch/underkoffler.c/gaussian_scratch/Gau-29811.inp" -scrdir="/scratch/underkoffler.c/gaussian_scratch/"
 Entering Link 1 = /shared/centos7/gaussian/g16/l1.exe PID=     29812.
  
 Copyright (c) 1988,1990,1992,1993,1995,1998,2003,2009,2016,
            Gaussian, Inc.  All Rights Reserved.
  
 This is part of the Gaussian(R) 16 program.  It is based on
 the Gaussian(R) 09 system (copyright 2009, Gaussian, Inc.),
 the Gaussian(R) 03 system (copyright 2003, Gaussian, Inc.),
 the Gaussian(R) 98 system (copyright 1998, Gaussian, Inc.),
 the Gaussian(R) 94 system (copyright 1995, Gaussian, Inc.),
 the Gaussian 92(TM) system (copyright 1992, Gaussian, Inc.),
 the Gaussian 90(TM) system (copyright 1990, Gaussian, Inc.),
 the Gaussian 88(TM) system (copyright 1988, Gaussian, Inc.),
 the Gaussian 86(TM) system (copyright 1986, Carnegie Mellon
 University), and the Gaussian 82(TM) system (copyright 1983,
 Carnegie Mellon University). Gaussian is a federally registered
 trademark of Gaussian, Inc.
  
 This software contains proprietary and confidential information,
 including trade secrets, belonging to Gaussian, Inc.
  
 This software is provided under written license and may be
 used, copied, transmitted, or stored only in accord with that
 written license.
  
 The following legend is applicable only to US Government
 contracts under FAR:
  
                    RESTRICTED RIGHTS LEGEND
  
 Use, reproduction and disclosure by the US Government is
 subject to restrictions as set forth in subparagraphs (a)
 and (c) of the Commercial Computer Software - Restricted
 Rights clause in FAR 52.227-19.
  
 Gaussian, Inc.
 340 Quinnipiac St., Bldg. 40, Wallingford CT 06492
  
  
 ---------------------------------------------------------------
 Warning -- This program may not be used in any manner that
 competes with the business of Gaussian, Inc. or will provide
 assistance to any competitor of Gaussian, Inc.  The licensee
 of this program is prohibited from giving any competitor of
 Gaussian, Inc. access to this program.  By using this program,
 the user acknowledges that Gaussian, Inc. is engaged in the
 business of creating and licensing software in the field of
 computational chemistry and represents and warrants to the
 licensee that it is not a competitor of Gaussian, Inc. and that
 it will not use this program in any manner prohibited above.
 ---------------------------------------------------------------
  

 Cite this work as:
 Gaussian 16, Revision A.03,
 M. J. Frisch, G. W. Trucks, H. B. Schlegel, G. E. Scuseria, 
 M. A. Robb, J. R. Cheeseman, G. Scalmani, V. Barone, 
 G. A. Petersson, H. Nakatsuji, X. Li, M. Caricato, A. V. Marenich, 
 J. Bloino, B. G. Janesko, R. Gomperts, B. Mennucci, H. P. Hratchian, 
 J. V. Ortiz, A. F. Izmaylov, J. L. Sonnenberg, D. Williams-Young, 
 F. Ding, F. Lipparini, F. Egidi, J. Goings, B. Peng, A. Petrone, 
 T. Henderson, D. Ranasinghe, V. G. Zakrzewski, J. Gao, N. Rega, 
 G. Zheng, W. Liang, M. Hada, M. Ehara, K. Toyota, R. Fukuda, 
 J. Hasegawa, M. Ishida, T. Nakajima, Y. Honda, O. Kitao, H. Nakai, 
 T. Vreven, K. Throssell, J. A. Montgomery, Jr., J. E. Peralta, 
 F. Ogliaro, M. J. Bearpark, J. J. Heyd, E. N. Brothers, K. N. Kudin, 
 V. N. Staroverov, T. A. Keith, R. Kobayashi, J. Normand, 
 K. Raghavachari, A. P. Rendell, J. C. Burant, S. S. Iyengar, 
 J. Tomasi, M. Cossi, J. M. Millam, M. Klene, C. Adamo, R. Cammi, 
 J. W. Ochterski, R. L. Martin, K. Morokuma, O. Farkas, 
 J. B. Foresman, and D. J. Fox, Gaussian, Inc., Wallingford CT, 2016.
 
 ******************************************
 Gaussian 16:  EM64L-G16RevA.03 25-Dec-2016
                 9-Apr-2019 
 ******************************************
 %nprocshared=20
 Will use up to   20 processors via shared memory.
 %mem=5GB
 ----------------------------------------------------------------------
 #p m062x/6-311+g(2df,2p) opt=(calcfc,verytight,gdiis,maxcycles=900) fr
 eq iop(7/33=1,2/16=3)
 ----------------------------------------------------------------------

 Warning!  Use of Opt=GDIIS is deprecated since it is seldom a good choice.

 1/6=900,7=1,10=4,18=20,19=11,26=3,38=1/1,3;
 2/9=110,12=2,16=3,17=6,18=5,40=1/2;
 3/5=4,6=6,7=214,11=2,25=1,30=1,71=2,74=-55,140=1/1,2,3;
 4//1;
 5/5=2,38=5/2;
 8/6=4,10=90,11=11/1;
 11/6=1,8=1,9=11,15=111,16=1/1,2,10;
 10/6=1,13=1/2;
 6/7=2,8=2,9=2,10=2,28=1/1;
 7/10=1,18=20,25=1,33=1/1,2,3,16;
 1/6=900,7=1,10=4,18=20,19=11,26=3/3(2);
 2/9=110,16=3/2;
 99//99;
 2/9=110,16=3/2;
 3/5=4,6=6,7=214,11=2,25=1,30=1,71=1,74=-55/1,2,3;
 4/5=5,16=3,69=1/1;
 5/5=2,38=5/2;
 7/33=1/1,2,3,16;
 1/6=900,7=1,18=20,19=11,26=3/3(-5);
 2/9=110,16=3/2;
 6/7=2,8=2,9=2,10=2,19=2,28=1/1;
 99/9=1/99;
 Leave Link    1 at Tue Apr  9 01:40:59 2019, MaxMem=   671088640 cpu:              27.9 elap:               1.5
 (Enter /shared/centos7/gaussian/g16/l101.exe)
 ------------------------------
 Gaussian input prepared by ASE
 ------------------------------
 Symbolic Z-matrix:
 Charge =  0 Multiplicity = 2
 O                     0.83166  -0.19652   0.66026 
 C                    -0.14175   0.02705  -0.30238 
 C                    -0.94599   1.26544   0.07187 
 C                    -1.02486  -1.17376  -0.4942 
 C                     1.97156  -0.78653   0.14404 
 H                     0.36611   0.23943  -1.27559 
 H                    -0.26429   2.12996   0.23677 
 H                    -1.652     1.53274  -0.73637 
 H                    -1.5255    1.10008   1.00789 
 H                    -1.47713  -1.49736   0.47793 
 H                    -0.45878  -2.0219   -0.90876 
 H                    -1.86611  -0.9385   -1.19577 
 H                     2.19351  -0.44112  -0.87743 
 H                     2.81659  -0.65358   0.86548 
 
 Add atom      5 valence  3 ND=      2 dihedral       1      5     13     14
 ITRead=  0  0  0  0  0  0  0  0  0  0  0  0  0  0
 MicOpt= -1 -1 -1 -1 -1 -1 -1 -1 -1 -1 -1 -1 -1 -1
 NAtoms=     14 NQM=       14 NQMF=       0 NMMI=      0 NMMIF=      0
                NMic=       0 NMicF=      0.
                    Isotopes and Nuclear Properties:
 (Nuclear quadrupole moments (NQMom) in fm**2, nuclear magnetic moments (NMagM)
  in nuclear magnetons)

  Atom         1           2           3           4           5           6           7           8           9          10
 IAtWgt=          16          12          12          12          12           1           1           1           1           1
 AtmWgt=  15.9949146  12.0000000  12.0000000  12.0000000  12.0000000   1.0078250   1.0078250   1.0078250   1.0078250   1.0078250
 NucSpn=           0           0           0           0           0           1           1           1           1           1
 AtZEff=  -0.0000000  -0.0000000  -0.0000000  -0.0000000  -0.0000000  -0.0000000  -0.0000000  -0.0000000  -0.0000000  -0.0000000
 NQMom=    0.0000000   0.0000000   0.0000000   0.0000000   0.0000000   0.0000000   0.0000000   0.0000000   0.0000000   0.0000000
 NMagM=    0.0000000   0.0000000   0.0000000   0.0000000   0.0000000   2.7928460   2.7928460   2.7928460   2.7928460   2.7928460
 AtZNuc=   8.0000000   6.0000000   6.0000000   6.0000000   6.0000000   1.0000000   1.0000000   1.0000000   1.0000000   1.0000000

  Atom        11          12          13          14
 IAtWgt=           1           1           1           1
 AtmWgt=   1.0078250   1.0078250   1.0078250   1.0078250
 NucSpn=           1           1           1           1
 AtZEff=  -0.0000000  -0.0000000  -0.0000000  -0.0000000
 NQMom=    0.0000000   0.0000000   0.0000000   0.0000000
 NMagM=    2.7928460   2.7928460   2.7928460   2.7928460
 AtZNuc=   1.0000000   1.0000000   1.0000000   1.0000000
 Leave Link  101 at Tue Apr  9 01:41:00 2019, MaxMem=   671088640 cpu:               6.6 elap:               0.4
 (Enter /shared/centos7/gaussian/g16/l103.exe)

 GradGradGradGradGradGradGradGradGradGradGradGradGradGradGradGradGradGrad
 Berny optimization.
 Initialization pass.
                           ----------------------------
                           !    Initial Parameters    !
                           ! (Angstroms and Degrees)  !
 --------------------------                            --------------------------
 ! Name  Definition              Value          Derivative Info.                !
 --------------------------------------------------------------------------------
 ! R1    R(1,2)                  1.3872         calculate D2E/DX2 analytically  !
 ! R2    R(1,5)                  1.3835         calculate D2E/DX2 analytically  !
 ! R3    R(2,3)                  1.5233         calculate D2E/DX2 analytically  !
 ! R4    R(2,4)                  1.5029         calculate D2E/DX2 analytically  !
 ! R5    R(2,6)                  1.1181         calculate D2E/DX2 analytically  !
 ! R6    R(3,7)                  1.1132         calculate D2E/DX2 analytically  !
 ! R7    R(3,8)                  1.106          calculate D2E/DX2 analytically  !
 ! R8    R(3,9)                  1.1132         calculate D2E/DX2 analytically  !
 ! R9    R(4,10)                 1.12           calculate D2E/DX2 analytically  !
 ! R10   R(4,11)                 1.1007         calculate D2E/DX2 analytically  !
 ! R11   R(4,12)                 1.1204         calculate D2E/DX2 analytically  !
 ! R12   R(5,13)                 1.1009         calculate D2E/DX2 analytically  !
 ! R13   R(5,14)                 1.119          calculate D2E/DX2 analytically  !
 ! A1    A(2,1,5)              112.8285         calculate D2E/DX2 analytically  !
 ! A2    A(1,2,3)              109.3299         calculate D2E/DX2 analytically  !
 ! A3    A(1,2,4)              111.8479         calculate D2E/DX2 analytically  !
 ! A4    A(1,2,6)              108.416          calculate D2E/DX2 analytically  !
 ! A5    A(3,2,4)              111.758          calculate D2E/DX2 analytically  !
 ! A6    A(3,2,6)              107.4113         calculate D2E/DX2 analytically  !
 ! A7    A(4,2,6)              107.9139         calculate D2E/DX2 analytically  !
 ! A8    A(2,3,7)              110.1467         calculate D2E/DX2 analytically  !
 ! A9    A(2,3,8)              110.7302         calculate D2E/DX2 analytically  !
 ! A10   A(2,3,9)              111.1402         calculate D2E/DX2 analytically  !
 ! A11   A(7,3,8)              108.1474         calculate D2E/DX2 analytically  !
 ! A12   A(7,3,9)              108.0336         calculate D2E/DX2 analytically  !
 ! A13   A(8,3,9)              108.5454         calculate D2E/DX2 analytically  !
 ! A14   A(2,4,10)             110.9393         calculate D2E/DX2 analytically  !
 ! A15   A(2,4,11)             111.1936         calculate D2E/DX2 analytically  !
 ! A16   A(2,4,12)             110.6928         calculate D2E/DX2 analytically  !
 ! A17   A(10,4,11)            108.1772         calculate D2E/DX2 analytically  !
 ! A18   A(10,4,12)            107.5171         calculate D2E/DX2 analytically  !
 ! A19   A(11,4,12)            108.1861         calculate D2E/DX2 analytically  !
 ! A20   A(1,5,13)             112.2425         calculate D2E/DX2 analytically  !
 ! A21   A(1,5,14)             109.3278         calculate D2E/DX2 analytically  !
 ! A22   A(13,5,14)            114.121          calculate D2E/DX2 analytically  !
 ! D1    D(5,1,2,3)           -148.9325         calculate D2E/DX2 analytically  !
 ! D2    D(5,1,2,4)             86.7435         calculate D2E/DX2 analytically  !
 ! D3    D(5,1,2,6)            -32.1235         calculate D2E/DX2 analytically  !
 ! D4    D(2,1,5,13)            34.877          calculate D2E/DX2 analytically  !
 ! D5    D(2,1,5,14)           162.5625         calculate D2E/DX2 analytically  !
 ! D6    D(1,2,3,7)             53.9492         calculate D2E/DX2 analytically  !
 ! D7    D(1,2,3,8)            173.5253         calculate D2E/DX2 analytically  !
 ! D8    D(1,2,3,9)            -65.7472         calculate D2E/DX2 analytically  !
 ! D9    D(4,2,3,7)            178.3259         calculate D2E/DX2 analytically  !
 ! D10   D(4,2,3,8)            -62.098          calculate D2E/DX2 analytically  !
 ! D11   D(4,2,3,9)             58.6295         calculate D2E/DX2 analytically  !
 ! D12   D(6,2,3,7)            -63.4938         calculate D2E/DX2 analytically  !
 ! D13   D(6,2,3,8)             56.0823         calculate D2E/DX2 analytically  !
 ! D14   D(6,2,3,9)            176.8097         calculate D2E/DX2 analytically  !
 ! D15   D(1,2,4,10)            54.8921         calculate D2E/DX2 analytically  !
 ! D16   D(1,2,4,11)           -65.5465         calculate D2E/DX2 analytically  !
 ! D17   D(1,2,4,12)           174.1693         calculate D2E/DX2 analytically  !
 ! D18   D(3,2,4,10)           -68.0642         calculate D2E/DX2 analytically  !
 ! D19   D(3,2,4,11)           171.4972         calculate D2E/DX2 analytically  !
 ! D20   D(3,2,4,12)            51.2129         calculate D2E/DX2 analytically  !
 ! D21   D(6,2,4,10)           174.0561         calculate D2E/DX2 analytically  !
 ! D22   D(6,2,4,11)            53.6175         calculate D2E/DX2 analytically  !
 ! D23   D(6,2,4,12)           -66.6668         calculate D2E/DX2 analytically  !
 ! D24   D(1,5,13,14)          125.093          calculate D2E/DX2 analytically  !
 --------------------------------------------------------------------------------
 Trust Radius=3.00D-01 FncErr=1.00D-07 GrdErr=1.00D-06 EigMax=2.50D+02 EigMin=1.00D-04
 Number of steps in this run=    100 maximum allowed number of steps=    100.
 GradGradGradGradGradGradGradGradGradGradGradGradGradGradGradGradGradGrad

 Leave Link  103 at Tue Apr  9 01:41:00 2019, MaxMem=   671088640 cpu:               0.2 elap:               0.0
 (Enter /shared/centos7/gaussian/g16/l202.exe)
                          Input orientation:                          
 ---------------------------------------------------------------------
 Center     Atomic      Atomic             Coordinates (Angstroms)
 Number     Number       Type             X           Y           Z
 ---------------------------------------------------------------------
      1          8           0        0.831658   -0.196522    0.660264
      2          6           0       -0.141752    0.027046   -0.302385
      3          6           0       -0.945990    1.265439    0.071871
      4          6           0       -1.024861   -1.173761   -0.494196
      5          6           0        1.971559   -0.786530    0.144039
      6          1           0        0.366111    0.239431   -1.275593
      7          1           0       -0.264286    2.129965    0.236768
      8          1           0       -1.652002    1.532743   -0.736370
      9          1           0       -1.525499    1.100082    1.007895
     10          1           0       -1.477134   -1.497359    0.477931
     11          1           0       -0.458779   -2.021899   -0.908759
     12          1           0       -1.866106   -0.938499   -1.195767
     13          1           0        2.193508   -0.441125   -0.877426
     14          1           0        2.816595   -0.653579    0.865475
 ---------------------------------------------------------------------
                    Distance matrix (angstroms):
                    1          2          3          4          5
     1  O    0.000000
     2  C    1.387156   0.000000
     3  C    2.375619   1.523313   0.000000
     4  C    2.394669   1.502868   2.505264   0.000000
     5  C    1.383464   2.308091   3.567615   3.088014   0.000000
     6  H    2.038218   1.118108   2.142419   2.131314   2.376008
     7  H    2.606335   2.174390   1.113246   3.468053   3.676077
     8  H    3.333093   2.176309   1.105964   2.788749   4.391394
     9  H    2.712603   2.187006   1.113245   2.770790   4.066321
    10  H    2.656302   2.171623   2.842543   1.119954   3.536983
    11  H    2.731128   2.160178   3.464909   1.100749   2.922510
    12  H    3.357575   2.168826   2.703860   1.120376   4.067659
    13  H    2.068564   2.450162   3.697292   3.322879   1.100889
    14  H    2.047190   3.252531   4.297613   4.108051   1.119031
                    6          7          8          9         10
     6  H    0.000000
     7  H    2.501750   0.000000
     8  H    2.456868   1.797061   0.000000
     9  H    3.087592   1.801653   1.801571   0.000000
    10  H    3.080396   3.832315   3.269040   2.651396   0.000000
    11  H    2.434877   4.311384   3.753529   3.815523   1.798637
    12  H    2.525210   3.746125   2.522681   3.021249   1.806900
    13  H    1.990244   3.727289   4.324812   4.445308   4.052929
    14  H    3.374390   4.199430   5.226305   4.685017   4.392978
                   11         12         13         14
    11  H    0.000000
    12  H    1.799083   0.000000
    13  H    3.087792   4.102340   0.000000
    14  H    3.968410   5.124216   1.863083   0.000000
 Stoichiometry    C4H9O(2)
 Framework group  C1[X(C4H9O)]
 Deg. of freedom    36
 Full point group                 C1      NOp   1
 Largest Abelian subgroup         C1      NOp   1
 Largest concise Abelian subgroup C1      NOp   1
                         Standard orientation:                         
 ---------------------------------------------------------------------
 Center     Atomic      Atomic             Coordinates (Angstroms)
 Number     Number       Type             X           Y           Z
 ---------------------------------------------------------------------
      1          8           0        0.800140   -0.373238   -0.468502
      2          6           0       -0.322578   -0.003783    0.257590
      3          6           0       -1.428662   -1.026369    0.030923
      4          6           0       -0.773907    1.389247   -0.080610
      5          6           0        1.982295    0.013816    0.137032
      6          1           0       -0.063337   -0.026827    1.344986
      7          1           0       -1.057023   -2.050379    0.260283
      8          1           0       -2.294138   -0.818929    0.687489
      9          1           0       -1.775757   -1.014576   -1.026764
     10          1           0       -0.944525    1.498355   -1.182100
     11          1           0       -0.025426    2.135634    0.226527
     12          1           0       -1.738998    1.628977    0.435502
     13          1           0        1.923856   -0.036296    1.235227
     14          1           0        2.831338   -0.567522   -0.302744
 ---------------------------------------------------------------------
 Rotational constants (GHZ):           7.7627320           3.9841026           2.9828604
 Leave Link  202 at Tue Apr  9 01:41:00 2019, MaxMem=   671088640 cpu:               0.2 elap:               0.0
 (Enter /shared/centos7/gaussian/g16/l301.exe)
 Standard basis: 6-311+G(2df,2p) (5D, 7F)
 Ernie: Thresh=  0.10000D-02 Tol=  0.10000D-05 Strict=F.
 There are   276 symmetry adapted cartesian basis functions of A   symmetry.
 There are   251 symmetry adapted basis functions of A   symmetry.
   251 basis functions,   359 primitive gaussians,   276 cartesian basis functions
    21 alpha electrons       20 beta electrons
       nuclear repulsion energy       188.0790430290 Hartrees.
 IExCor= 4336 DFT=T Ex+Corr=M062X ExCW=0 ScaHFX=  0.540000
 ScaDFX=  1.000000  1.000000  1.000000  1.000000 ScalE2=  1.000000  1.000000
 IRadAn=      5 IRanWt=     -1 IRanGd=            0 ICorTp=0 IEmpDi=  4
 NAtoms=   14 NActive=   14 NUniq=   14 SFac= 1.00D+00 NAtFMM=   60 NAOKFM=F Big=F
 Integral buffers will be    131072 words long.
 Raffenetti 2 integral format.
 Two-electron integral symmetry is turned on.
 Leave Link  301 at Tue Apr  9 01:41:00 2019, MaxMem=   671088640 cpu:               1.3 elap:               0.1
 (Enter /shared/centos7/gaussian/g16/l302.exe)
 NPDir=0 NMtPBC=     1 NCelOv=     1 NCel=       1 NClECP=     1 NCelD=      1
         NCelK=      1 NCelE2=     1 NClLst=     1 CellRange=     0.0.
 One-electron integrals computed using PRISM.
 One-electron integral symmetry used in STVInt
 NBasis=   251 RedAO= T EigKep=  5.09D-05  NBF=   251
 NBsUse=   251 1.00D-06 EigRej= -1.00D+00 NBFU=   251
 Precomputing XC quadrature grid using
 IXCGrd= 4 IRadAn=           5 IRanWt=          -1 IRanGd=           0 AccXCQ= 0.00D+00.
 Generated NRdTot=       0 NPtTot=           0 NUsed=           0 NTot=          32
 NSgBfM=   276   276   276   276   276 MxSgAt=    14 MxSgA2=    14.
 Leave Link  302 at Tue Apr  9 01:41:00 2019, MaxMem=   671088640 cpu:               6.6 elap:               0.4
 (Enter /shared/centos7/gaussian/g16/l303.exe)
 DipDrv:  MaxL=1.
 Leave Link  303 at Tue Apr  9 01:41:00 2019, MaxMem=   671088640 cpu:               0.7 elap:               0.1
 (Enter /shared/centos7/gaussian/g16/l401.exe)
 ExpMin= 4.38D-02 ExpMax= 8.59D+03 ExpMxC= 1.30D+03 IAcc=3 IRadAn=         5 AccDes= 0.00D+00
 Harris functional with IExCor= 1009 and IRadAn=       5 diagonalized for initial guess.
 HarFok:  IExCor= 1009 AccDes= 0.00D+00 IRadAn=         5 IDoV= 1 UseB2=F ITyADJ=14
 ICtDFT=  3500011 ScaDFX=  1.000000  1.000000  1.000000  1.000000
 FoFCou: FMM=F IPFlag=           0 FMFlag=      100000 FMFlg1=           0
         NFxFlg=           0 DoJE=T BraDBF=F KetDBF=T FulRan=T
         wScrn=  0.000000 ICntrl=       500 IOpCl=  0 I1Cent=   200000004 NGrid=           0
         NMat0=    1 NMatS0=      1 NMatT0=    0 NMatD0=    1 NMtDS0=    0 NMtDT0=    0
 Petite list used in FoFCou.
 Harris En= -232.864376879427    
 JPrj=0 DoOrth=F DoCkMO=F.
 Initial guess <Sx>= 0.0000 <Sy>= 0.0000 <Sz>= 0.5000 <S**2>= 0.7500 S= 0.5000
 Leave Link  401 at Tue Apr  9 01:41:02 2019, MaxMem=   671088640 cpu:              25.1 elap:               1.3
 (Enter /shared/centos7/gaussian/g16/l502.exe)
 Integral symmetry usage will be decided dynamically.
 UHF open shell SCF:
 Using DIIS extrapolation, IDIIS=  1040.
 NGot=   671088640 LenX=   670928170 LenY=   670851553
 Requested convergence on RMS density matrix=1.00D-08 within 128 cycles.
 Requested convergence on MAX density matrix=1.00D-06.
 Requested convergence on             energy=1.00D-06.
 No special actions if energy rises.
 Fock matrices will be formed incrementally for  20 cycles.

 Cycle   1  Pass 1  IDiag  1:
 FoFJK:  IHMeth= 1 ICntrl=       0 DoSepK=F KAlg= 0 I1Cent=           0 FoldK=F
 IRaf= 990000000 NMat=       1 IRICut=       1 DoRegI=T DoRafI=F ISym2E= 0 IDoP0=0 IntGTp=1.
 FoFCou: FMM=F IPFlag=           0 FMFlag=      100000 FMFlg1=           0
         NFxFlg=           0 DoJE=F BraDBF=F KetDBF=F FulRan=T
         wScrn=  0.000000 ICntrl=         0 IOpCl=  1 I1Cent=           0 NGrid=           0
         NMat0=    1 NMatS0=      1 NMatT0=    0 NMatD0=    1 NMtDS0=    0 NMtDT0=    0
 Symmetry not used in FoFCou.
 E= -232.784076052048    
 DIIS: error= 2.16D-02 at cycle   1 NSaved=   1.
 NSaved= 1 IEnMin= 1 EnMin= -232.784076052048     IErMin= 1 ErrMin= 2.16D-02
 ErrMax= 2.16D-02  0.00D+00 EMaxC= 1.00D-01 BMatC= 7.93D-01 BMatP= 7.93D-01
 IDIUse=3 WtCom= 7.84D-01 WtEn= 2.16D-01
 Coeff-Com:  0.100D+01
 Coeff-En:   0.100D+01
 Coeff:      0.100D+01
 Gap=     0.265 Goal=   None    Shift=    0.000
 Gap=     0.363 Goal=   None    Shift=    0.000
 GapD=    0.265 DampG=1.000 DampE=0.500 DampFc=0.5000 IDamp=-1.
 Damping current iteration by 5.00D-01
 RMSDP=2.32D-03 MaxDP=1.10D-01              OVMax= 1.45D-01

 Cycle   2  Pass 1  IDiag  1:
 RMSU=  1.14D-03    CP:  9.73D-01
 E= -232.872671595884     Delta-E=       -0.088595543837 Rises=F Damp=T
 DIIS: error= 5.20D-03 at cycle   2 NSaved=   2.
 NSaved= 2 IEnMin= 2 EnMin= -232.872671595884     IErMin= 2 ErrMin= 5.20D-03
 ErrMax= 5.20D-03  0.00D+00 EMaxC= 1.00D-01 BMatC= 5.55D-02 BMatP= 7.93D-01
 IDIUse=3 WtCom= 9.48D-01 WtEn= 5.20D-02
 Coeff-Com: -0.147D+00 0.115D+01
 Coeff-En:   0.000D+00 0.100D+01
 Coeff:     -0.140D+00 0.114D+01
 Gap=     0.274 Goal=   None    Shift=    0.000
 Gap=     0.371 Goal=   None    Shift=    0.000
 RMSDP=9.58D-04 MaxDP=4.69D-02 DE=-8.86D-02 OVMax= 7.37D-02

 Cycle   3  Pass 1  IDiag  1:
 RMSU=  9.20D-04    CP:  9.63D-01  1.22D+00
 E= -232.953030244027     Delta-E=       -0.080358648143 Rises=F Damp=F
 DIIS: error= 3.73D-03 at cycle   3 NSaved=   3.
 NSaved= 3 IEnMin= 3 EnMin= -232.953030244027     IErMin= 3 ErrMin= 3.73D-03
 ErrMax= 3.73D-03  0.00D+00 EMaxC= 1.00D-01 BMatC= 6.66D-03 BMatP= 5.55D-02
 IDIUse=3 WtCom= 9.63D-01 WtEn= 3.73D-02
 Coeff-Com: -0.759D-01 0.247D+00 0.828D+00
 Coeff-En:   0.000D+00 0.000D+00 0.100D+01
 Coeff:     -0.731D-01 0.238D+00 0.835D+00
 Gap=     0.276 Goal=   None    Shift=    0.000
 Gap=     0.340 Goal=   None    Shift=    0.000
 RMSDP=2.04D-04 MaxDP=8.44D-03 DE=-8.04D-02 OVMax= 1.21D-02

 Cycle   4  Pass 1  IDiag  1:
 RMSU=  1.81D-04    CP:  9.58D-01  1.29D+00  1.01D+00
 E= -232.954418593751     Delta-E=       -0.001388349724 Rises=F Damp=F
 DIIS: error= 1.46D-03 at cycle   4 NSaved=   4.
 NSaved= 4 IEnMin= 4 EnMin= -232.954418593751     IErMin= 4 ErrMin= 1.46D-03
 ErrMax= 1.46D-03  0.00D+00 EMaxC= 1.00D-01 BMatC= 1.75D-03 BMatP= 6.66D-03
 IDIUse=3 WtCom= 9.85D-01 WtEn= 1.46D-02
 Coeff-Com: -0.247D-01 0.581D-01 0.375D+00 0.592D+00
 Coeff-En:   0.000D+00 0.000D+00 0.000D+00 0.100D+01
 Coeff:     -0.243D-01 0.572D-01 0.370D+00 0.598D+00
 Gap=     0.274 Goal=   None    Shift=    0.000
 Gap=     0.346 Goal=   None    Shift=    0.000
 RMSDP=7.17D-05 MaxDP=4.32D-03 DE=-1.39D-03 OVMax= 1.28D-02

 Cycle   5  Pass 1  IDiag  1:
 RMSU=  5.91D-05    CP:  9.59D-01  1.28D+00  1.02D+00  8.04D-01
 E= -232.954859746744     Delta-E=       -0.000441152993 Rises=F Damp=F
 DIIS: error= 3.95D-04 at cycle   5 NSaved=   5.
 NSaved= 5 IEnMin= 5 EnMin= -232.954859746744     IErMin= 5 ErrMin= 3.95D-04
 ErrMax= 3.95D-04  0.00D+00 EMaxC= 1.00D-01 BMatC= 2.43D-04 BMatP= 1.75D-03
 IDIUse=3 WtCom= 9.96D-01 WtEn= 3.95D-03
 Coeff-Com:  0.649D-03-0.100D-01 0.356D-01 0.254D+00 0.720D+00
 Coeff-En:   0.000D+00 0.000D+00 0.000D+00 0.000D+00 0.100D+01
 Coeff:      0.646D-03-0.998D-02 0.355D-01 0.253D+00 0.721D+00
 Gap=     0.274 Goal=   None    Shift=    0.000
 Gap=     0.346 Goal=   None    Shift=    0.000
 RMSDP=4.41D-05 MaxDP=2.83D-03 DE=-4.41D-04 OVMax= 4.65D-03

 Cycle   6  Pass 1  IDiag  1:
 RMSU=  2.92D-05    CP:  9.59D-01  1.28D+00  1.03D+00  9.48D-01  1.31D+00
 E= -232.954942017879     Delta-E=       -0.000082271134 Rises=F Damp=F
 DIIS: error= 2.02D-04 at cycle   6 NSaved=   6.
 NSaved= 6 IEnMin= 6 EnMin= -232.954942017879     IErMin= 6 ErrMin= 2.02D-04
 ErrMax= 2.02D-04  0.00D+00 EMaxC= 1.00D-01 BMatC= 4.18D-05 BMatP= 2.43D-04
 IDIUse=3 WtCom= 9.98D-01 WtEn= 2.02D-03
 Coeff-Com:  0.689D-02-0.177D-01-0.928D-01-0.414D-01 0.145D+00 0.100D+01
 Coeff-En:   0.000D+00 0.000D+00 0.000D+00 0.000D+00 0.000D+00 0.100D+01
 Coeff:      0.687D-02-0.176D-01-0.926D-01-0.413D-01 0.145D+00 0.100D+01
 Gap=     0.276 Goal=   None    Shift=    0.000
 Gap=     0.346 Goal=   None    Shift=    0.000
 RMSDP=4.19D-05 MaxDP=2.94D-03 DE=-8.23D-05 OVMax= 5.79D-03

 Cycle   7  Pass 1  IDiag  1:
 RMSU=  1.72D-05    CP:  9.58D-01  1.27D+00  1.03D+00  1.08D+00  1.71D+00
                    CP:  1.59D+00
 E= -232.954978885990     Delta-E=       -0.000036868112 Rises=F Damp=F
 DIIS: error= 9.33D-05 at cycle   7 NSaved=   7.
 NSaved= 7 IEnMin= 7 EnMin= -232.954978885990     IErMin= 7 ErrMin= 9.33D-05
 ErrMax= 9.33D-05  0.00D+00 EMaxC= 1.00D-01 BMatC= 1.61D-05 BMatP= 4.18D-05
 IDIUse=1 WtCom= 1.00D+00 WtEn= 0.00D+00
 Coeff-Com:  0.130D-02-0.136D-02-0.386D-01-0.770D-01-0.250D+00 0.378D+00
 Coeff-Com:  0.987D+00
 Coeff:      0.130D-02-0.136D-02-0.386D-01-0.770D-01-0.250D+00 0.378D+00
 Coeff:      0.987D+00
 Gap=     0.276 Goal=   None    Shift=    0.000
 Gap=     0.347 Goal=   None    Shift=    0.000
 RMSDP=2.63D-05 MaxDP=1.73D-03 DE=-3.69D-05 OVMax= 3.67D-03

 Cycle   8  Pass 1  IDiag  1:
 RMSU=  7.11D-06    CP:  9.58D-01  1.27D+00  1.03D+00  1.15D+00  1.95D+00
                    CP:  2.09D+00  1.39D+00
 E= -232.954989703104     Delta-E=       -0.000010817113 Rises=F Damp=F
 DIIS: error= 2.53D-05 at cycle   8 NSaved=   8.
 NSaved= 8 IEnMin= 8 EnMin= -232.954989703104     IErMin= 8 ErrMin= 2.53D-05
 ErrMax= 2.53D-05  0.00D+00 EMaxC= 1.00D-01 BMatC= 8.48D-07 BMatP= 1.61D-05
 IDIUse=1 WtCom= 1.00D+00 WtEn= 0.00D+00
 Coeff-Com: -0.121D-02 0.295D-02 0.141D-01 0.116D-01-0.248D-01-0.127D+00
 Coeff-Com: -0.175D-01 0.114D+01
 Coeff:     -0.121D-02 0.295D-02 0.141D-01 0.116D-01-0.248D-01-0.127D+00
 Coeff:     -0.175D-01 0.114D+01
 Gap=     0.276 Goal=   None    Shift=    0.000
 Gap=     0.347 Goal=   None    Shift=    0.000
 RMSDP=8.06D-06 MaxDP=4.58D-04 DE=-1.08D-05 OVMax= 9.59D-04

 Cycle   9  Pass 1  IDiag  1:
 RMSU=  2.35D-06    CP:  9.58D-01  1.27D+00  1.03D+00  1.17D+00  2.00D+00
                    CP:  2.24D+00  1.60D+00  1.31D+00
 E= -232.954990441409     Delta-E=       -0.000000738306 Rises=F Damp=F
 DIIS: error= 1.02D-05 at cycle   9 NSaved=   9.
 NSaved= 9 IEnMin= 9 EnMin= -232.954990441409     IErMin= 9 ErrMin= 1.02D-05
 ErrMax= 1.02D-05  0.00D+00 EMaxC= 1.00D-01 BMatC= 1.35D-07 BMatP= 8.48D-07
 IDIUse=1 WtCom= 1.00D+00 WtEn= 0.00D+00
 Coeff-Com: -0.476D-03 0.981D-03 0.865D-02 0.129D-01 0.208D-01-0.794D-01
 Coeff-Com: -0.121D+00 0.312D+00 0.845D+00
 Coeff:     -0.476D-03 0.981D-03 0.865D-02 0.129D-01 0.208D-01-0.794D-01
 Coeff:     -0.121D+00 0.312D+00 0.845D+00
 Gap=     0.276 Goal=   None    Shift=    0.000
 Gap=     0.347 Goal=   None    Shift=    0.000
 RMSDP=1.50D-06 MaxDP=6.50D-05 DE=-7.38D-07 OVMax= 1.94D-04

 Cycle  10  Pass 1  IDiag  1:
 RMSU=  8.39D-07    CP:  9.58D-01  1.27D+00  1.03D+00  1.17D+00  2.01D+00
                    CP:  2.26D+00  1.64D+00  1.42D+00  1.06D+00
 E= -232.954990502854     Delta-E=       -0.000000061444 Rises=F Damp=F
 DIIS: error= 2.80D-06 at cycle  10 NSaved=  10.
 NSaved=10 IEnMin=10 EnMin= -232.954990502854     IErMin=10 ErrMin= 2.80D-06
 ErrMax= 2.80D-06  0.00D+00 EMaxC= 1.00D-01 BMatC= 1.44D-08 BMatP= 1.35D-07
 IDIUse=1 WtCom= 1.00D+00 WtEn= 0.00D+00
 Coeff-Com:  0.743D-04-0.184D-03 0.299D-04 0.154D-02 0.555D-02 0.502D-03
 Coeff-Com: -0.194D-01-0.670D-01 0.152D+00 0.927D+00
 Coeff:      0.743D-04-0.184D-03 0.299D-04 0.154D-02 0.555D-02 0.502D-03
 Coeff:     -0.194D-01-0.670D-01 0.152D+00 0.927D+00
 Gap=     0.276 Goal=   None    Shift=    0.000
 Gap=     0.347 Goal=   None    Shift=    0.000
 RMSDP=4.47D-07 MaxDP=1.60D-05 DE=-6.14D-08 OVMax= 4.19D-05

 Cycle  11  Pass 1  IDiag  1:
 RMSU=  2.86D-07    CP:  9.58D-01  1.27D+00  1.03D+00  1.17D+00  2.00D+00
                    CP:  2.25D+00  1.63D+00  1.44D+00  1.14D+00  1.21D+00
 E= -232.954990509192     Delta-E=       -0.000000006338 Rises=F Damp=F
 DIIS: error= 1.03D-06 at cycle  11 NSaved=  11.
 NSaved=11 IEnMin=11 EnMin= -232.954990509192     IErMin=11 ErrMin= 1.03D-06
 ErrMax= 1.03D-06  0.00D+00 EMaxC= 1.00D-01 BMatC= 2.11D-09 BMatP= 1.44D-08
 IDIUse=1 WtCom= 1.00D+00 WtEn= 0.00D+00
 Coeff-Com:  0.770D-04-0.166D-03-0.111D-02-0.125D-02-0.205D-02 0.108D-01
 Coeff-Com:  0.113D-01-0.564D-01-0.895D-01 0.213D+00 0.916D+00
 Coeff:      0.770D-04-0.166D-03-0.111D-02-0.125D-02-0.205D-02 0.108D-01
 Coeff:      0.113D-01-0.564D-01-0.895D-01 0.213D+00 0.916D+00
 Gap=     0.276 Goal=   None    Shift=    0.000
 Gap=     0.347 Goal=   None    Shift=    0.000
 RMSDP=1.78D-07 MaxDP=6.34D-06 DE=-6.34D-09 OVMax= 1.57D-05

 Cycle  12  Pass 1  IDiag  1:
 RMSU=  9.81D-08    CP:  9.58D-01  1.27D+00  1.03D+00  1.17D+00  2.00D+00
                    CP:  2.25D+00  1.63D+00  1.44D+00  1.17D+00  1.33D+00
                    CP:  1.09D+00
 E= -232.954990510109     Delta-E=       -0.000000000917 Rises=F Damp=F
 DIIS: error= 3.29D-07 at cycle  12 NSaved=  12.
 NSaved=12 IEnMin=12 EnMin= -232.954990510109     IErMin=12 ErrMin= 3.29D-07
 ErrMax= 3.29D-07  0.00D+00 EMaxC= 1.00D-01 BMatC= 1.00D-10 BMatP= 2.11D-09
 IDIUse=1 WtCom= 1.00D+00 WtEn= 0.00D+00
 Coeff-Com: -0.400D-05 0.711D-05-0.651D-04-0.140D-03-0.439D-03 0.771D-03
 Coeff-Com:  0.175D-02 0.109D-02-0.194D-01-0.578D-01 0.608D-01 0.101D+01
 Coeff:     -0.400D-05 0.711D-05-0.651D-04-0.140D-03-0.439D-03 0.771D-03
 Coeff:      0.175D-02 0.109D-02-0.194D-01-0.578D-01 0.608D-01 0.101D+01
 Gap=     0.276 Goal=   None    Shift=    0.000
 Gap=     0.347 Goal=   None    Shift=    0.000
 RMSDP=6.28D-08 MaxDP=3.35D-06 DE=-9.17D-10 OVMax= 3.73D-06

 Cycle  13  Pass 1  IDiag  1:
 RMSU=  2.89D-08    CP:  9.58D-01  1.27D+00  1.03D+00  1.17D+00  2.00D+00
                    CP:  2.25D+00  1.63D+00  1.44D+00  1.17D+00  1.36D+00
                    CP:  1.17D+00  1.17D+00
 E= -232.954990510171     Delta-E=       -0.000000000062 Rises=F Damp=F
 DIIS: error= 7.48D-08 at cycle  13 NSaved=  13.
 NSaved=13 IEnMin=13 EnMin= -232.954990510171     IErMin=13 ErrMin= 7.48D-08
 ErrMax= 7.48D-08  0.00D+00 EMaxC= 1.00D-01 BMatC= 6.82D-12 BMatP= 1.00D-10
 IDIUse=1 WtCom= 1.00D+00 WtEn= 0.00D+00
 Coeff-Com: -0.433D-05 0.925D-05 0.523D-04 0.571D-04 0.998D-04-0.545D-03
 Coeff-Com: -0.493D-03 0.297D-02 0.450D-02-0.148D-01-0.561D-01 0.521D-01
 Coeff-Com:  0.101D+01
 Coeff:     -0.433D-05 0.925D-05 0.523D-04 0.571D-04 0.998D-04-0.545D-03
 Coeff:     -0.493D-03 0.297D-02 0.450D-02-0.148D-01-0.561D-01 0.521D-01
 Coeff:      0.101D+01
 Gap=     0.276 Goal=   None    Shift=    0.000
 Gap=     0.347 Goal=   None    Shift=    0.000
 RMSDP=1.18D-08 MaxDP=3.79D-07 DE=-6.24D-11 OVMax= 9.05D-07

 Cycle  14  Pass 1  IDiag  1:
 RMSU=  8.08D-09    CP:  9.58D-01  1.27D+00  1.03D+00  1.17D+00  2.00D+00
                    CP:  2.25D+00  1.63D+00  1.44D+00  1.17D+00  1.36D+00
                    CP:  1.18D+00  1.24D+00  1.10D+00
 E= -232.954990510175     Delta-E=       -0.000000000003 Rises=F Damp=F
 DIIS: error= 2.20D-08 at cycle  14 NSaved=  14.
 NSaved=14 IEnMin=14 EnMin= -232.954990510175     IErMin=14 ErrMin= 2.20D-08
 ErrMax= 2.20D-08  0.00D+00 EMaxC= 1.00D-01 BMatC= 7.73D-13 BMatP= 6.82D-12
 IDIUse=1 WtCom= 1.00D+00 WtEn= 0.00D+00
 Coeff-Com:  0.654D-07 0.135D-06 0.720D-05 0.999D-05 0.165D-04-0.748D-04
 Coeff-Com: -0.130D-03 0.182D-03 0.175D-02 0.230D-02-0.109D-01-0.714D-01
 Coeff-Com:  0.123D+00 0.955D+00
 Coeff:      0.654D-07 0.135D-06 0.720D-05 0.999D-05 0.165D-04-0.748D-04
 Coeff:     -0.130D-03 0.182D-03 0.175D-02 0.230D-02-0.109D-01-0.714D-01
 Coeff:      0.123D+00 0.955D+00
 Gap=     0.276 Goal=   None    Shift=    0.000
 Gap=     0.347 Goal=   None    Shift=    0.000
 RMSDP=3.59D-09 MaxDP=8.92D-08 DE=-3.24D-12 OVMax= 2.78D-07

 SCF Done:  E(UM062X) =  -232.954990510     A.U. after   14 cycles
            NFock= 14  Conv=0.36D-08     -V/T= 2.0048
 <Sx>= 0.0000 <Sy>= 0.0000 <Sz>= 0.5000 <S**2>= 0.7546 S= 0.5023
 <L.S>= 0.000000000000E+00
 KE= 2.318421543709D+02 PE=-9.186787505758D+02 EE= 2.658025626658D+02
 Annihilation of the first spin contaminant:
 S**2 before annihilation     0.7546,   after     0.7500
 Leave Link  502 at Tue Apr  9 01:42:21 2019, MaxMem=   671088640 cpu:            1588.9 elap:              79.5
 (Enter /shared/centos7/gaussian/g16/l801.exe)
 DoSCS=F DFT=T ScalE2(SS,OS)=  1.000000  1.000000
 Range of M.O.s used for correlation:     1   251
 NBasis=   251 NAE=    21 NBE=    20 NFC=     0 NFV=     0
 NROrb=    251 NOA=    21 NOB=    20 NVA=   230 NVB=   231

 **** Warning!!: The largest alpha MO coefficient is  0.41310733D+02


 **** Warning!!: The largest beta MO coefficient is  0.38664554D+02

 Leave Link  801 at Tue Apr  9 01:42:21 2019, MaxMem=   671088640 cpu:               0.5 elap:               0.1
 (Enter /shared/centos7/gaussian/g16/l1101.exe)
 Using compressed storage, NAtomX=    14.
 Will process     15 centers per pass.
 Leave Link 1101 at Tue Apr  9 01:42:22 2019, MaxMem=   671088640 cpu:               9.5 elap:               0.5
 (Enter /shared/centos7/gaussian/g16/l1102.exe)
 Symmetrizing basis deriv contribution to polar:
 IMax=3 JMax=2 DiffMx= 0.00D+00
 Leave Link 1102 at Tue Apr  9 01:42:22 2019, MaxMem=   671088640 cpu:               1.1 elap:               0.1
 (Enter /shared/centos7/gaussian/g16/l1110.exe)
 Forming Gx(P) for the SCF density, NAtomX=    14.
 Integral derivatives from FoFJK, PRISM(SPDF).
 Do as many integral derivatives as possible in FoFJK.
 G2DrvN: MDV=     671087496.
 G2DrvN: will do    15 centers at a time, making    1 passes.
 Calling FoFCou, ICntrl=  3107 FMM=F I1Cent=   0 AccDes= 0.00D+00.
 FoFJK:  IHMeth= 1 ICntrl=    3107 DoSepK=F KAlg= 0 I1Cent=           0 FoldK=F
 IRaf=         0 NMat=       1 IRICut=       1 DoRegI=T DoRafI=F ISym2E= 0 IDoP0=0 IntGTp=1.
 FoFCou: FMM=F IPFlag=           0 FMFlag=      100000 FMFlg1=           0
         NFxFlg=           0 DoJE=F BraDBF=F KetDBF=F FulRan=T
         wScrn=  0.000000 ICntrl=      3107 IOpCl=  1 I1Cent=           0 NGrid=           0
         NMat0=    1 NMatS0=      1 NMatT0=    0 NMatD0=    1 NMtDS0=    0 NMtDT0=    0
 Symmetry not used in FoFCou.
 End of G2Drv F.D. properties file   721 does not exist.
 End of G2Drv F.D. properties file   722 does not exist.
 End of G2Drv F.D. properties file   788 does not exist.
 Leave Link 1110 at Tue Apr  9 01:44:49 2019, MaxMem=   671088640 cpu:            2935.8 elap:             146.8
 (Enter /shared/centos7/gaussian/g16/l1002.exe)
 Minotr:  UHF open shell wavefunction.
          IDoAtm=11111111111111
          Direct CPHF calculation.
          Differentiating once with respect to nuclear coordinates.
          Requested convergence is 1.0D-08 RMS, and 1.0D-07 maximum.
          Secondary convergence is 1.0D-12 RMS, and 1.0D-12 maximum.
          NewPWx=T KeepS1=F KeepF1=F KeepIn=T MapXYZ=F SortEE=F KeepMc=T.
         4257 words used for storage of precomputed grid.
 Two-electron integrals replicated using symmetry.
          MDV=     671088640 using IRadAn=       1.
          Solving linear equations simultaneously, MaxMat=     380.
 FoF2E skips out because all densities are zero.
 CalDSu exits because no D1Ps are significant.
 FoFJK:  IHMeth= 1 ICntrl=       0 DoSepK=F KAlg= 0 I1Cent=           0 FoldK=F
 IRaf= 980000000 NMat=      42 IRICut=     105 DoRegI=T DoRafI=T ISym2E= 2 IDoP0=3 IntGTp=3.
 FoFCou: FMM=F IPFlag=           0 FMFlag=      100000 FMFlg1=           0
         NFxFlg=           0 DoJE=F BraDBF=F KetDBF=F FulRan=T
         wScrn=  0.000000 ICntrl=         0 IOpCl=  1 I1Cent=           0 NGrid=           0
         NMat0=   42 NMatS0=     42 NMatT0=    0 NMatD0=   42 NMtDS0=    0 NMtDT0=    0
 Integrals replicated using symmetry in FoFCou.
 Raff kept on since  96.47% of shell-pairs survive, threshold=   0.20 IRatSp=96.
          There are    45 degrees of freedom in the 1st order CPHF.  IDoFFX=6 NUNeed=     0.
     39 vectors produced by pass  0 Test12= 2.10D-14 2.22D-09 XBig12= 1.51D-01 5.70D-02.
 AX will form    39 AO Fock derivatives at one time.
     39 vectors produced by pass  1 Test12= 2.10D-14 2.22D-09 XBig12= 9.47D-03 1.57D-02.
     39 vectors produced by pass  2 Test12= 2.10D-14 2.22D-09 XBig12= 4.67D-04 5.55D-03.
     39 vectors produced by pass  3 Test12= 2.10D-14 2.22D-09 XBig12= 6.55D-06 5.55D-04.
     39 vectors produced by pass  4 Test12= 2.10D-14 2.22D-09 XBig12= 7.63D-08 5.32D-05.
     39 vectors produced by pass  5 Test12= 2.10D-14 2.22D-09 XBig12= 9.51D-10 2.63D-06.
     36 vectors produced by pass  6 Test12= 2.10D-14 2.22D-09 XBig12= 8.91D-12 3.07D-07.
     11 vectors produced by pass  7 Test12= 2.10D-14 2.22D-09 XBig12= 6.92D-14 3.03D-08.
 InvSVY:  IOpt=1 It=  1 EMax= 3.33D-15
 Solved reduced A of dimension   281 with    39 vectors.
 End of Minotr F.D. properties file   721 does not exist.
 End of Minotr F.D. properties file   722 does not exist.
 End of Minotr F.D. properties file   788 does not exist.
 Leave Link 1002 at Tue Apr  9 01:48:38 2019, MaxMem=   671088640 cpu:            4572.4 elap:             228.7
 (Enter /shared/centos7/gaussian/g16/l601.exe)
 Copying SCF densities to generalized density rwf, IOpCl= 1 IROHF=0.

 **********************************************************************

            Population analysis using the SCF density.

 **********************************************************************

 Orbital symmetries:
 Alpha Orbitals:
       Occupied  (A) (A) (A) (A) (A) (A) (A) (A) (A) (A) (A) (A)
                 (A) (A) (A) (A) (A) (A) (A) (A) (A)
       Virtual   (A) (A) (A) (A) (A) (A) (A) (A) (A) (A) (A) (A)
                 (A) (A) (A) (A) (A) (A) (A) (A) (A) (A) (A) (A)
                 (A) (A) (A) (A) (A) (A) (A) (A) (A) (A) (A) (A)
                 (A) (A) (A) (A) (A) (A) (A) (A) (A) (A) (A) (A)
                 (A) (A) (A) (A) (A) (A) (A) (A) (A) (A) (A) (A)
                 (A) (A) (A) (A) (A) (A) (A) (A) (A) (A) (A) (A)
                 (A) (A) (A) (A) (A) (A) (A) (A) (A) (A) (A) (A)
                 (A) (A) (A) (A) (A) (A) (A) (A) (A) (A) (A) (A)
                 (A) (A) (A) (A) (A) (A) (A) (A) (A) (A) (A) (A)
                 (A) (A) (A) (A) (A) (A) (A) (A) (A) (A) (A) (A)
                 (A) (A) (A) (A) (A) (A) (A) (A) (A) (A) (A) (A)
                 (A) (A) (A) (A) (A) (A) (A) (A) (A) (A) (A) (A)
                 (A) (A) (A) (A) (A) (A) (A) (A) (A) (A) (A) (A)
                 (A) (A) (A) (A) (A) (A) (A) (A) (A) (A) (A) (A)
                 (A) (A) (A) (A) (A) (A) (A) (A) (A) (A) (A) (A)
                 (A) (A) (A) (A) (A) (A) (A) (A) (A) (A) (A) (A)
                 (A) (A) (A) (A) (A) (A) (A) (A) (A) (A) (A) (A)
                 (A) (A) (A) (A) (A) (A) (A) (A) (A) (A) (A) (A)
                 (A) (A) (A) (A) (A) (A) (A) (A) (A) (A) (A) (A)
                 (A) (A)
 Beta  Orbitals:
       Occupied  (A) (A) (A) (A) (A) (A) (A) (A) (A) (A) (A) (A)
                 (A) (A) (A) (A) (A) (A) (A) (A)
       Virtual   (A) (A) (A) (A) (A) (A) (A) (A) (A) (A) (A) (A)
                 (A) (A) (A) (A) (A) (A) (A) (A) (A) (A) (A) (A)
                 (A) (A) (A) (A) (A) (A) (A) (A) (A) (A) (A) (A)
                 (A) (A) (A) (A) (A) (A) (A) (A) (A) (A) (A) (A)
                 (A) (A) (A) (A) (A) (A) (A) (A) (A) (A) (A) (A)
                 (A) (A) (A) (A) (A) (A) (A) (A) (A) (A) (A) (A)
                 (A) (A) (A) (A) (A) (A) (A) (A) (A) (A) (A) (A)
                 (A) (A) (A) (A) (A) (A) (A) (A) (A) (A) (A) (A)
                 (A) (A) (A) (A) (A) (A) (A) (A) (A) (A) (A) (A)
                 (A) (A) (A) (A) (A) (A) (A) (A) (A) (A) (A) (A)
                 (A) (A) (A) (A) (A) (A) (A) (A) (A) (A) (A) (A)
                 (A) (A) (A) (A) (A) (A) (A) (A) (A) (A) (A) (A)
                 (A) (A) (A) (A) (A) (A) (A) (A) (A) (A) (A) (A)
                 (A) (A) (A) (A) (A) (A) (A) (A) (A) (A) (A) (A)
                 (A) (A) (A) (A) (A) (A) (A) (A) (A) (A) (A) (A)
                 (A) (A) (A) (A) (A) (A) (A) (A) (A) (A) (A) (A)
                 (A) (A) (A) (A) (A) (A) (A) (A) (A) (A) (A) (A)
                 (A) (A) (A) (A) (A) (A) (A) (A) (A) (A) (A) (A)
                 (A) (A) (A) (A) (A) (A) (A) (A) (A) (A) (A) (A)
                 (A) (A) (A)
 The electronic state is 2-A.
 Alpha  occ. eigenvalues --  -19.65563 -10.59430 -10.59036 -10.53294 -10.53122
 Alpha  occ. eigenvalues --   -1.19786  -0.89029  -0.78396  -0.75994  -0.67174
 Alpha  occ. eigenvalues --   -0.57300  -0.55153  -0.54420  -0.48948  -0.45756
 Alpha  occ. eigenvalues --   -0.45322  -0.43531  -0.41964  -0.39937  -0.38399
 Alpha  occ. eigenvalues --   -0.25803
 Alpha virt. eigenvalues --    0.01799   0.03405   0.03688   0.03940   0.05929
 Alpha virt. eigenvalues --    0.06568   0.07241   0.07707   0.07821   0.09917
 Alpha virt. eigenvalues --    0.10482   0.11590   0.12375   0.13163   0.14369
 Alpha virt. eigenvalues --    0.15630   0.18317   0.19867   0.20967   0.21490
 Alpha virt. eigenvalues --    0.22807   0.23283   0.24268   0.25776   0.26505
 Alpha virt. eigenvalues --    0.26964   0.27785   0.28820   0.30927   0.31559
 Alpha virt. eigenvalues --    0.33614   0.35177   0.36255   0.41234   0.43595
 Alpha virt. eigenvalues --    0.46313   0.49019   0.49499   0.49610   0.51047
 Alpha virt. eigenvalues --    0.53193   0.54513   0.55398   0.56308   0.57591
 Alpha virt. eigenvalues --    0.58054   0.58935   0.59808   0.60691   0.61092
 Alpha virt. eigenvalues --    0.62604   0.64096   0.65210   0.68598   0.69142
 Alpha virt. eigenvalues --    0.72147   0.73373   0.75690   0.79942   0.80446
 Alpha virt. eigenvalues --    0.86596   0.86850   0.89448   0.91181   0.93941
 Alpha virt. eigenvalues --    0.95717   0.97785   0.98604   1.01633   1.03725
 Alpha virt. eigenvalues --    1.06862   1.06932   1.08100   1.10163   1.11922
 Alpha virt. eigenvalues --    1.14054   1.15859   1.16956   1.18452   1.22263
 Alpha virt. eigenvalues --    1.22912   1.24115   1.25646   1.27978   1.28701
 Alpha virt. eigenvalues --    1.30503   1.32109   1.33638   1.35534   1.35999
 Alpha virt. eigenvalues --    1.37434   1.39064   1.40210   1.42267   1.43727
 Alpha virt. eigenvalues --    1.47172   1.49307   1.49977   1.50454   1.52483
 Alpha virt. eigenvalues --    1.55641   1.58812   1.60019   1.60659   1.63647
 Alpha virt. eigenvalues --    1.65317   1.67847   1.76527   1.81349   1.97406
 Alpha virt. eigenvalues --    2.06255   2.13726   2.23184   2.37716   2.40878
 Alpha virt. eigenvalues --    2.45985   2.47954   2.52259   2.57269   2.58318
 Alpha virt. eigenvalues --    2.62309   2.67006   2.72899   2.75371   2.80514
 Alpha virt. eigenvalues --    2.86804   2.88203   2.90498   2.94651   2.96166
 Alpha virt. eigenvalues --    2.96831   2.98227   3.00352   3.02638   3.05661
 Alpha virt. eigenvalues --    3.07666   3.07985   3.10176   3.11735   3.13796
 Alpha virt. eigenvalues --    3.18282   3.20857   3.21475   3.25801   3.27665
 Alpha virt. eigenvalues --    3.29029   3.30836   3.32203   3.34119   3.35387
 Alpha virt. eigenvalues --    3.38536   3.41914   3.43269   3.49068   3.51718
 Alpha virt. eigenvalues --    3.53681   3.55200   3.57621   3.60492   3.62780
 Alpha virt. eigenvalues --    3.64400   3.68566   3.70919   3.74627   3.75441
 Alpha virt. eigenvalues --    3.78502   3.82322   3.82924   3.85966   3.87755
 Alpha virt. eigenvalues --    3.91940   3.92849   3.95882   3.98257   3.99678
 Alpha virt. eigenvalues --    4.01791   4.03636   4.07655   4.12165   4.13687
 Alpha virt. eigenvalues --    4.18334   4.18980   4.20231   4.21028   4.21689
 Alpha virt. eigenvalues --    4.23371   4.27114   4.29468   4.31049   4.35508
 Alpha virt. eigenvalues --    4.40031   4.41242   4.44278   4.50892   4.51957
 Alpha virt. eigenvalues --    4.55841   4.56790   4.58369   4.63205   4.68019
 Alpha virt. eigenvalues --    4.80239   5.05132   5.15220   5.25336   5.28540
 Alpha virt. eigenvalues --    5.32745   5.39735   5.44145   5.45804   5.49085
 Alpha virt. eigenvalues --    5.50145   5.51892   5.55807   5.59130   5.66959
 Alpha virt. eigenvalues --    5.83553   5.92942   6.21554   6.50273   6.78460
 Alpha virt. eigenvalues --    7.13744   7.22953   7.35792   7.66837   7.75755
 Alpha virt. eigenvalues --   24.25685  24.28984  24.32936  24.52371  50.17749
  Beta  occ. eigenvalues --  -19.65127 -10.59440 -10.58233 -10.53291 -10.53114
  Beta  occ. eigenvalues --   -1.18441  -0.88697  -0.78203  -0.73805  -0.66495
  Beta  occ. eigenvalues --   -0.56242  -0.54609  -0.52344  -0.48313  -0.45431
  Beta  occ. eigenvalues --   -0.45147  -0.42406  -0.41220  -0.38850  -0.36832
  Beta virt. eigenvalues --   -0.02179   0.01608   0.03165   0.03757   0.04020
  Beta virt. eigenvalues --    0.06072   0.06552   0.07325   0.07721   0.08108
  Beta virt. eigenvalues --    0.09377   0.10643   0.11733   0.12382   0.13354
  Beta virt. eigenvalues --    0.14177   0.15269   0.18201   0.20032   0.21239
  Beta virt. eigenvalues --    0.21787   0.23052   0.23374   0.24323   0.25779
  Beta virt. eigenvalues --    0.26736   0.27124   0.28086   0.29066   0.31205
  Beta virt. eigenvalues --    0.31937   0.33507   0.35244   0.36294   0.41283
  Beta virt. eigenvalues --    0.43511   0.46583   0.49215   0.49513   0.50017
  Beta virt. eigenvalues --    0.51325   0.53275   0.55219   0.55551   0.56334
  Beta virt. eigenvalues --    0.57638   0.58080   0.59099   0.60002   0.60632
  Beta virt. eigenvalues --    0.61077   0.63179   0.64703   0.65052   0.68690
  Beta virt. eigenvalues --    0.69045   0.72237   0.73513   0.75592   0.80101
  Beta virt. eigenvalues --    0.80453   0.86667   0.87684   0.89454   0.91196
  Beta virt. eigenvalues --    0.93943   0.95796   0.97203   0.98707   1.01829
  Beta virt. eigenvalues --    1.03648   1.06904   1.07208   1.08206   1.10227
  Beta virt. eigenvalues --    1.11871   1.14161   1.15914   1.16952   1.18486
  Beta virt. eigenvalues --    1.22428   1.22917   1.24177   1.25735   1.28119
  Beta virt. eigenvalues --    1.28794   1.30719   1.32067   1.33672   1.35737
  Beta virt. eigenvalues --    1.36044   1.37531   1.39144   1.40331   1.42416
  Beta virt. eigenvalues --    1.43856   1.47190   1.49532   1.50097   1.50848
  Beta virt. eigenvalues --    1.52797   1.55715   1.58981   1.60159   1.60761
  Beta virt. eigenvalues --    1.63817   1.65414   1.68123   1.76832   1.81622
  Beta virt. eigenvalues --    1.98441   2.06523   2.14210   2.23978   2.38132
  Beta virt. eigenvalues --    2.40948   2.47081   2.48718   2.52451   2.57652
  Beta virt. eigenvalues --    2.58538   2.62460   2.67173   2.73323   2.75775
  Beta virt. eigenvalues --    2.80902   2.87110   2.89281   2.92705   2.95853
  Beta virt. eigenvalues --    2.97104   2.98252   2.99904   3.01863   3.03492
  Beta virt. eigenvalues --    3.07520   3.09140   3.09601   3.11677   3.12888
  Beta virt. eigenvalues --    3.15941   3.19570   3.21788   3.23122   3.27867
  Beta virt. eigenvalues --    3.29678   3.29924   3.32859   3.33771   3.35091
  Beta virt. eigenvalues --    3.36596   3.40512   3.43754   3.44907   3.50274
  Beta virt. eigenvalues --    3.53396   3.54451   3.56506   3.58051   3.60769
  Beta virt. eigenvalues --    3.63854   3.65015   3.69156   3.72236   3.75152
  Beta virt. eigenvalues --    3.76824   3.79294   3.82879   3.85660   3.86755
  Beta virt. eigenvalues --    3.87944   3.92479   3.93418   3.97033   3.98693
  Beta virt. eigenvalues --    4.00260   4.02510   4.03892   4.10801   4.12488
  Beta virt. eigenvalues --    4.14068   4.18487   4.19366   4.20391   4.21548
  Beta virt. eigenvalues --    4.22093   4.24820   4.27675   4.29715   4.32364
  Beta virt. eigenvalues --    4.36228   4.40243   4.42039   4.44364   4.51442
  Beta virt. eigenvalues --    4.52089   4.56050   4.56889   4.58539   4.63349
  Beta virt. eigenvalues --    4.68113   4.80271   5.08945   5.15306   5.26374
  Beta virt. eigenvalues --    5.29802   5.33881   5.40865   5.44862   5.47033
  Beta virt. eigenvalues --    5.49433   5.51208   5.52464   5.55943   5.59302
  Beta virt. eigenvalues --    5.67441   5.83862   5.93640   6.21588   6.50929
  Beta virt. eigenvalues --    6.78737   7.14789   7.24250   7.36655   7.67208
  Beta virt. eigenvalues --    7.75651  24.25818  24.30226  24.32942  24.52344
  Beta virt. eigenvalues --   50.17430
          Condensed to atoms (all electrons):
               1          2          3          4          5          6
     1  O    8.107809   0.216252  -0.109055  -0.128151   0.093703  -0.040749
     2  C    0.216252   5.371896   0.335908   0.145898  -0.100408   0.451445
     3  C   -0.109055   0.335908   5.145656  -0.128420  -0.006337  -0.039966
     4  C   -0.128151   0.145898  -0.128420   5.277835  -0.001838  -0.049662
     5  C    0.093703  -0.100408  -0.006337  -0.001838   5.469316  -0.014983
     6  H   -0.040749   0.451445  -0.039966  -0.049662  -0.014983   0.549458
     7  H   -0.004294  -0.028981   0.389979   0.021306   0.000604  -0.005555
     8  H    0.012256  -0.040337   0.426445  -0.014269   0.001299  -0.007974
     9  H   -0.008833  -0.004630   0.387034  -0.009622  -0.000489   0.006785
    10  H   -0.009535  -0.023331  -0.021231   0.423071  -0.000041   0.006070
    11  H   -0.005746  -0.021246   0.009279   0.390040   0.009519  -0.008374
    12  H    0.010111  -0.056584   0.005781   0.421895  -0.000355  -0.003072
    13  H   -0.042016  -0.018114  -0.005863   0.011919   0.389877   0.008554
    14  H   -0.057151   0.002389   0.002754   0.002004   0.422111   0.001025
               7          8          9         10         11         12
     1  O   -0.004294   0.012256  -0.008833  -0.009535  -0.005746   0.010111
     2  C   -0.028981  -0.040337  -0.004630  -0.023331  -0.021246  -0.056584
     3  C    0.389979   0.426445   0.387034  -0.021231   0.009279   0.005781
     4  C    0.021306  -0.014269  -0.009622   0.423071   0.390040   0.421895
     5  C    0.000604   0.001299  -0.000489  -0.000041   0.009519  -0.000355
     6  H   -0.005555  -0.007974   0.006785   0.006070  -0.008374  -0.003072
     7  H    0.533754  -0.022592  -0.024226  -0.000191  -0.000314   0.000241
     8  H   -0.022592   0.534187  -0.030622   0.000558   0.000161  -0.000399
     9  H   -0.024226  -0.030622   0.534009   0.001986  -0.000030  -0.001142
    10  H   -0.000191   0.000558   0.001986   0.520509  -0.022970  -0.031887
    11  H   -0.000314   0.000161  -0.000030  -0.022970   0.532578  -0.025300
    12  H    0.000241  -0.000399  -0.001142  -0.031887  -0.025300   0.550323
    13  H    0.000175   0.000020  -0.000013   0.000005  -0.001183  -0.000023
    14  H   -0.000068   0.000011   0.000061  -0.000072   0.000067   0.000036
              13         14
     1  O   -0.042016  -0.057151
     2  C   -0.018114   0.002389
     3  C   -0.005863   0.002754
     4  C    0.011919   0.002004
     5  C    0.389877   0.422111
     6  H    0.008554   0.001025
     7  H    0.000175  -0.000068
     8  H    0.000020   0.000011
     9  H   -0.000013   0.000061
    10  H    0.000005  -0.000072
    11  H   -0.001183   0.000067
    12  H   -0.000023   0.000036
    13  H    0.563669  -0.033336
    14  H   -0.033336   0.514890
          Atomic-Atomic Spin Densities.
               1          2          3          4          5          6
     1  O    0.303771  -0.035721   0.016203   0.012080  -0.214108  -0.001868
     2  C   -0.035721   0.043640   0.009672  -0.034017   0.057748   0.000516
     3  C    0.016203   0.009672  -0.025229   0.011817  -0.006524  -0.002483
     4  C    0.012080  -0.034017   0.011817   0.031596  -0.030682   0.002684
     5  C   -0.214108   0.057748  -0.006524  -0.030682   1.182501  -0.004810
     6  H   -0.001868   0.000516  -0.002483   0.002684  -0.004810  -0.001592
     7  H   -0.000565  -0.001814   0.002614  -0.000714   0.000680   0.000204
     8  H    0.000326  -0.004098   0.005276  -0.000710  -0.000075  -0.000222
     9  H   -0.000739   0.002336  -0.001314  -0.000728  -0.000063   0.000107
    10  H   -0.001780   0.001420   0.002219  -0.004391   0.002115  -0.000172
    11  H   -0.000452  -0.001775  -0.003047   0.010654  -0.003285   0.000156
    12  H   -0.000006   0.002009  -0.002330   0.000184  -0.000020   0.000138
    13  H   -0.002547  -0.002698  -0.004187   0.004630  -0.034591   0.003335
    14  H    0.001044  -0.005128  -0.000637   0.003070  -0.013907   0.000461
               7          8          9         10         11         12
     1  O   -0.000565   0.000326  -0.000739  -0.001780  -0.000452  -0.000006
     2  C   -0.001814  -0.004098   0.002336   0.001420  -0.001775   0.002009
     3  C    0.002614   0.005276  -0.001314   0.002219  -0.003047  -0.002330
     4  C   -0.000714  -0.000710  -0.000728  -0.004391   0.010654   0.000184
     5  C    0.000680  -0.000075  -0.000063   0.002115  -0.003285  -0.000020
     6  H    0.000204  -0.000222   0.000107  -0.000172   0.000156   0.000138
     7  H   -0.000383  -0.000196   0.000025  -0.000008   0.000023   0.000001
     8  H   -0.000196   0.000195  -0.000355   0.000032   0.000014  -0.000003
     9  H    0.000025  -0.000355   0.000318  -0.000084   0.000007   0.000052
    10  H   -0.000008   0.000032  -0.000084   0.000597   0.000404  -0.000264
    11  H    0.000023   0.000014   0.000007   0.000404  -0.013097   0.000903
    12  H    0.000001  -0.000003   0.000052  -0.000264   0.000903  -0.002738
    13  H    0.000021  -0.000042   0.000035  -0.000099   0.000390   0.000010
    14  H    0.000016  -0.000005   0.000014  -0.000031  -0.000013  -0.000002
              13         14
     1  O   -0.002547   0.001044
     2  C   -0.002698  -0.005128
     3  C   -0.004187  -0.000637
     4  C    0.004630   0.003070
     5  C   -0.034591  -0.013907
     6  H    0.003335   0.000461
     7  H    0.000021   0.000016
     8  H   -0.000042  -0.000005
     9  H    0.000035   0.000014
    10  H   -0.000099  -0.000031
    11  H    0.000390  -0.000013
    12  H    0.000010  -0.000002
    13  H    0.007127   0.010728
    14  H    0.010728  -0.012829
 Mulliken charges and spin densities:
               1          2
     1  O   -0.034602   0.075636
     2  C   -0.230157   0.032090
     3  C   -0.391962   0.002049
     4  C   -0.362007   0.005472
     5  C   -0.261978   0.934978
     6  H    0.146998  -0.003544
     7  H    0.140162  -0.000097
     8  H    0.141258   0.000138
     9  H    0.149731  -0.000388
    10  H    0.157059  -0.000043
    11  H    0.143517  -0.009118
    12  H    0.130374  -0.002064
    13  H    0.126329  -0.017888
    14  H    0.145279  -0.017220
 Sum of Mulliken charges =  -0.00000   1.00000
 Mulliken charges and spin densities with hydrogens summed into heavy atoms:
               1          2
     1  O   -0.034602   0.075636
     2  C   -0.083159   0.028545
     3  C    0.039188   0.001702
     4  C    0.068943  -0.005754
     5  C    0.009630   0.899871
 APT charges:
               1
     1  O   -0.033095
     2  C   -0.299313
     3  C   -1.156155
     4  C   -1.113320
     5  C   -0.918275
     6  H    0.341033
     7  H    0.364549
     8  H    0.444612
     9  H    0.358314
    10  H    0.358545
    11  H    0.361412
    12  H    0.435628
    13  H    0.300126
    14  H    0.555940
 Sum of APT charges =  -0.00000
 APT charges with hydrogens summed into heavy atoms:
               1
     1  O   -0.033095
     2  C    0.041720
     3  C    0.011320
     4  C    0.042264
     5  C   -0.062209
 Electronic spatial extent (au):  <R**2>=            480.9701
 Charge=             -0.0000 electrons
 Dipole moment (field-independent basis, Debye):
    X=             -0.7550    Y=             -0.0409    Z=              1.1538  Tot=              1.3794
 Quadrupole moment (field-independent basis, Debye-Ang):
   XX=            -32.0576   YY=            -34.0563   ZZ=            -33.1923
   XY=             -1.1562   XZ=              0.8616   YZ=             -0.2932
 Traceless Quadrupole moment (field-independent basis, Debye-Ang):
   XX=              1.0445   YY=             -0.9542   ZZ=             -0.0902
   XY=             -1.1562   XZ=              0.8616   YZ=             -0.2932
 Octapole moment (field-independent basis, Debye-Ang**2):
  XXX=              4.0445  YYY=             -3.0973  ZZZ=             -1.0936  XYY=             -0.8054
  XXY=             -4.5773  XXZ=              0.4216  XZZ=             -0.3511  YZZ=             -0.3393
  YYZ=             -0.3244  XYZ=              0.1590
 Hexadecapole moment (field-independent basis, Debye-Ang**3):
 XXXX=           -377.2835 YYYY=           -209.5950 ZZZZ=            -74.6737 XXXY=            -17.1298
 XXXZ=             -7.7996 YYYX=             -2.3218 YYYZ=              0.5704 ZZZX=              2.3282
 ZZZY=             -0.0685 XXYY=           -104.7410 XXZZ=            -74.9983 YYZZ=            -48.8598
 XXYZ=              3.1776 YYXZ=             -1.0490 ZZXY=             -1.1459
 N-N= 1.880790430290D+02 E-N=-9.186787511639D+02  KE= 2.318421543709D+02
  Exact polarizability:   0.000   0.000   0.000   0.000   0.000   0.000
 Approx polarizability:  66.534   0.164  59.153   0.755   0.909  62.241
                          Isotropic Fermi Contact Couplings
        Atom                 a.u.       MegaHertz       Gauss      10(-4) cm-1
     1  O(17)              0.03608     -21.87129      -7.80422      -7.29548
     2  C(13)             -0.00470      -5.28250      -1.88493      -1.76205
     3  C(13)              0.00290       3.25592       1.16179       1.08606
     4  C(13)             -0.00003      -0.03279      -0.01170      -0.01094
     5  C(13)              0.32909     369.95726     132.00995     123.40446
     6  H(1)               0.00045       2.00392       0.71505       0.66844
     7  H(1)              -0.00004      -0.17206      -0.06139      -0.05739
     8  H(1)               0.00006       0.25225       0.09001       0.08414
     9  H(1)              -0.00006      -0.28776      -0.10268      -0.09599
    10  H(1)               0.00002       0.08473       0.03023       0.02826
    11  H(1)               0.00027       1.21368       0.43307       0.40484
    12  H(1)              -0.00046      -2.03871      -0.72746      -0.68004
    13  H(1)               0.00083       3.72489       1.32913       1.24249
    14  H(1)              -0.00176      -7.86893      -2.80783      -2.62479
 --------------------------------------------------------
       Center         ----  Spin Dipole Couplings  ----
                      3XX-RR        3YY-RR        3ZZ-RR
 --------------------------------------------------------
     1   Atom       -0.447331      0.766250     -0.318919
     2   Atom        0.017118     -0.009386     -0.007732
     3   Atom        0.007657     -0.002948     -0.004709
     4   Atom        0.000272      0.011840     -0.012112
     5   Atom       -0.452251      0.827439     -0.375188
     6   Atom        0.007326     -0.007532      0.000206
     7   Atom        0.002811      0.000407     -0.003218
     8   Atom        0.003278     -0.001648     -0.001629
     9   Atom        0.004322     -0.002088     -0.002233
    10   Atom        0.003371     -0.001573     -0.001798
    11   Atom        0.005913      0.001708     -0.007621
    12   Atom        0.004045     -0.001330     -0.002715
    13   Atom       -0.055152     -0.010659      0.065811
    14   Atom        0.016022      0.010204     -0.026225
 --------------------------------------------------------
                        XY            XZ            YZ
 --------------------------------------------------------
     1   Atom        0.119328     -0.076389     -0.410183
     2   Atom       -0.000039     -0.007547      0.003418
     3   Atom        0.004444     -0.000369     -0.000062
     4   Atom       -0.002071      0.000142      0.002628
     5   Atom        0.147542     -0.047711     -0.342837
     6   Atom        0.001138     -0.011057     -0.000367
     7   Atom        0.004741     -0.001075     -0.000886
     8   Atom        0.001079     -0.001130     -0.000213
     9   Atom        0.002051      0.002028      0.000572
    10   Atom       -0.003883      0.003404     -0.002011
    11   Atom       -0.008483     -0.000079      0.001647
    12   Atom       -0.002348     -0.001498      0.000604
    13   Atom        0.001520     -0.008511     -0.007797
    14   Atom       -0.038070     -0.040964      0.010436
 --------------------------------------------------------


 ---------------------------------------------------------------------------------
              Anisotropic Spin Dipole Couplings in Principal Axis System
 ---------------------------------------------------------------------------------

       Atom             a.u.   MegaHertz   Gauss  10(-4) cm-1        Axes

              Baa    -0.4932    35.689    12.735    11.905  0.7271  0.1494  0.6701
     1 O(17)  Bbb    -0.4245    30.714    10.960    10.245  0.6792 -0.2990 -0.6703
              Bcc     0.9177   -66.404   -23.694   -22.150  0.1002  0.9425 -0.3188
 
              Baa    -0.0129    -1.733    -0.619    -0.578  0.1770 -0.6835  0.7082
     2 C(13)  Bbb    -0.0063    -0.851    -0.304    -0.284  0.2106  0.7292  0.6511
              Bcc     0.0193     2.585     0.922     0.862  0.9614 -0.0339 -0.2731
 
              Baa    -0.0047    -0.637    -0.227    -0.212  0.1441 -0.3246  0.9348
     3 C(13)  Bbb    -0.0045    -0.609    -0.217    -0.203 -0.3107  0.8820  0.3542
              Bcc     0.0093     1.246     0.444     0.416  0.9395  0.3415 -0.0263
 
              Baa    -0.0124    -1.665    -0.594    -0.555 -0.0291 -0.1102  0.9935
     4 C(13)  Bbb    -0.0001    -0.008    -0.003    -0.003  0.9858  0.1613  0.0468
              Bcc     0.0125     1.673     0.597     0.558 -0.1654  0.9807  0.1039
 
              Baa    -0.4762   -63.907   -22.803   -21.317  0.7716  0.0787  0.6312
     5 C(13)  Bbb    -0.4593   -61.640   -21.995   -20.561 -0.6264  0.2670  0.7324
              Bcc     0.9356   125.546    44.798    41.878  0.1109  0.9605 -0.2553
 
              Baa    -0.0081    -4.329    -1.545    -1.444  0.5029 -0.5777  0.6429
     6 H(1)   Bbb    -0.0073    -3.907    -1.394    -1.303  0.3077  0.8147  0.4915
              Bcc     0.0154     8.237     2.939     2.747  0.8077  0.0494 -0.5875
 
              Baa    -0.0034    -1.827    -0.652    -0.609 -0.0551  0.2892  0.9557
     7 H(1)   Bbb    -0.0033    -1.745    -0.623    -0.582 -0.6218  0.7389 -0.2595
              Bcc     0.0067     3.572     1.275     1.192  0.7812  0.6086 -0.1391
 
              Baa    -0.0019    -1.012    -0.361    -0.338  0.2891 -0.6561  0.6972
     8 H(1)   Bbb    -0.0019    -0.988    -0.353    -0.330 -0.0021  0.7278  0.6858
              Bcc     0.0037     2.001     0.714     0.667  0.9573  0.1997 -0.2090
 
              Baa    -0.0028    -1.500    -0.535    -0.500 -0.2947  0.0837  0.9519
     9 H(1)   Bbb    -0.0027    -1.433    -0.511    -0.478 -0.2353  0.9591 -0.1571
              Bcc     0.0055     2.932     1.046     0.978  0.9262  0.2703  0.2630
 
              Baa    -0.0038    -2.007    -0.716    -0.669  0.2801  0.8700  0.4057
    10 H(1)   Bbb    -0.0035    -1.852    -0.661    -0.618 -0.5293 -0.2126  0.8214
              Bcc     0.0072     3.859     1.377     1.287  0.8009 -0.4448  0.4009
 
              Baa    -0.0082    -4.354    -1.553    -1.452 -0.1837 -0.3134  0.9317
    11 H(1)   Bbb    -0.0044    -2.373    -0.847    -0.792  0.5928  0.7207  0.3593
              Bcc     0.0126     6.727     2.400     2.244  0.7841 -0.6183 -0.0534
 
              Baa    -0.0030    -1.624    -0.580    -0.542  0.1694 -0.1130  0.9790
    12 H(1)   Bbb    -0.0022    -1.179    -0.421    -0.393  0.3605  0.9317  0.0451
              Bcc     0.0053     2.803     1.000     0.935  0.9172 -0.3453 -0.1986
 
              Baa    -0.0558   -29.756   -10.618    -9.925  0.9974 -0.0218  0.0684
    13 H(1)   Bbb    -0.0114    -6.102    -2.177    -2.035  0.0147  0.9947  0.1020
              Bcc     0.0672    35.858    12.795    11.961 -0.0703 -0.1007  0.9924
 
              Baa    -0.0536   -28.617   -10.211    -9.546  0.5805  0.2179  0.7846
    14 H(1)   Bbb    -0.0132    -7.054    -2.517    -2.353  0.3575  0.7975 -0.4860
              Bcc     0.0669    35.671    12.728    11.899  0.7316 -0.5626 -0.3850
 

 ---------------------------------------------------------------------------------

 No NMR shielding tensors so no spin-rotation constants.
 Leave Link  601 at Tue Apr  9 01:48:38 2019, MaxMem=   671088640 cpu:              10.6 elap:               0.6
 (Enter /shared/centos7/gaussian/g16/l701.exe)
 SCFChk:  SCF convergence  3.59D-09 required  1.00D-08
 ... and contract with generalized density number  0.
 Compute integral second derivatives.
 Entering OneElI...
 Calculate overlap and kinetic energy integrals
    NBasis = 276  MinDer = 2  MaxDer = 2
 Requested accuracy = 0.1000D-12
 PrmmSu-InSpLW:  IPartL=    0 NPrtUS=   20 NPrtUL=    1 DoSpLW=F IThBeg=    0 IThEnd=   19 NThAct=   20.
 PrsmSu:  NPrtUS=  20 ThrOK=T IAlg=1 NPAlg=1 LenDen=           0 ISkipM=0 DoSpLW=F IThBeg=    0 IThEnd=   19.
 Prism:   IPart=     0 DynPar=F LinDyn=F Incr=           1.
 PRISM was handed    33456574 working-precision words and  3655 shell-pairs
 PRISM was handed    33456574 working-precision words and  3655 shell-pairs
 PRISM was handed    33456574 working-precision words and  3655 shell-pairs
 PRISM was handed    33456574 working-precision words and  3655 shell-pairs
 PRISM was handed    33456574 working-precision words and  3655 shell-pairs
 PRISM was handed    33456574 working-precision words and  3655 shell-pairs
 PRISM was handed    33456574 working-precision words and  3655 shell-pairs
 PRISM was handed    33456574 working-precision words and  3655 shell-pairs
 PRISM was handed    33456574 working-precision words and  3655 shell-pairs
 PRISM was handed    33456574 working-precision words and  3655 shell-pairs
 PRISM was handed    33456574 working-precision words and  3655 shell-pairs
 PRISM was handed    33456574 working-precision words and  3655 shell-pairs
 PRISM was handed    33456574 working-precision words and  3655 shell-pairs
 PRISM was handed    33456574 working-precision words and  3655 shell-pairs
 PRISM was handed    33456574 working-precision words and  3655 shell-pairs
 PRISM was handed    33456574 working-precision words and  3655 shell-pairs
 PRISM was handed    33456574 working-precision words and  3655 shell-pairs
 PRISM was handed    33456574 working-precision words and  3655 shell-pairs
 PRISM was handed    33456574 working-precision words and  3655 shell-pairs
 PRISM was handed    33456574 working-precision words and  3655 shell-pairs
 IPart=  5 NShTot=         191 NBatch=          41 AvBLen=         4.7
 IPart=  8 NShTot=         186 NBatch=          38 AvBLen=         4.9
 IPart=  6 NShTot=         189 NBatch=          40 AvBLen=         4.7
 IPart=  2 NShTot=         207 NBatch=          50 AvBLen=         4.1
 IPart=  4 NShTot=         201 NBatch=          46 AvBLen=         4.4
 IPart=  7 NShTot=         187 NBatch=          39 AvBLen=         4.8
 IPart=  3 NShTot=         203 NBatch=          48 AvBLen=         4.2
 IPart=  1 NShTot=         212 NBatch=          53 AvBLen=         4.0
 IPart= 10 NShTot=         176 NBatch=          35 AvBLen=         5.0
 IPart= 16 NShTot=         165 NBatch=          30 AvBLen=         5.5
 IPart= 19 NShTot=         163 NBatch=          28 AvBLen=         5.8
 IPart=  0 NShTot=         214 NBatch=          55 AvBLen=         3.9
 IPart=  9 NShTot=         185 NBatch=          37 AvBLen=         5.0
 IPart= 13 NShTot=         171 NBatch=          32 AvBLen=         5.3
 IPart= 14 NShTot=         170 NBatch=          32 AvBLen=         5.3
 IPart= 17 NShTot=         165 NBatch=          30 AvBLen=         5.5
 IPart= 15 NShTot=         165 NBatch=          30 AvBLen=         5.5
 IPart= 11 NShTot=         171 NBatch=          32 AvBLen=         5.3
 IPart= 18 NShTot=         163 NBatch=          28 AvBLen=         5.8
 IPart= 12 NShTot=         171 NBatch=          32 AvBLen=         5.3
 PrSmSu:  NxtVal=             21.
 Entering OneElI...
 Calculate potential energy integrals
    NBasis = 276  MinDer = 2  MaxDer = 2
 Requested accuracy = 0.1000D-12
 PrmmSu-InSpLW:  IPartL=    0 NPrtUS=   20 NPrtUL=    1 DoSpLW=F IThBeg=    0 IThEnd=   19 NThAct=   20.
 PrsmSu:  NPrtUS=  20 ThrOK=T IAlg=1 NPAlg=1 LenDen=           0 ISkipM=0 DoSpLW=F IThBeg=    0 IThEnd=   19.
 Prism:   IPart=     0 DynPar=F LinDyn=F Incr=          24.
 PRISM was handed    33469137 working-precision words and  3509 shell-pairs
 PRISM was handed    33469137 working-precision words and  3509 shell-pairs
 PRISM was handed    33469137 working-precision words and  3509 shell-pairs
 PRISM was handed    33469137 working-precision words and  3509 shell-pairs
 PRISM was handed    33469137 working-precision words and  3509 shell-pairs
 PRISM was handed    33469137 working-precision words and  3509 shell-pairs
 PRISM was handed    33469137 working-precision words and  3509 shell-pairs
 PRISM was handed    33469137 working-precision words and  3509 shell-pairs
 PRISM was handed    33469137 working-precision words and  3509 shell-pairs
 PRISM was handed    33469137 working-precision words and  3509 shell-pairs
 PRISM was handed    33469137 working-precision words and  3509 shell-pairs
 PRISM was handed    33469137 working-precision words and  3509 shell-pairs
 PRISM was handed    33469137 working-precision words and  3509 shell-pairs
 PRISM was handed    33469137 working-precision words and  3509 shell-pairs
 PRISM was handed    33469137 working-precision words and  3509 shell-pairs
 PRISM was handed    33469137 working-precision words and  3509 shell-pairs
 PRISM was handed    33469137 working-precision words and  3509 shell-pairs
 PRISM was handed    33469137 working-precision words and  3509 shell-pairs
 PRISM was handed    33469137 working-precision words and  3509 shell-pairs
 PRISM was handed    33469137 working-precision words and  3509 shell-pairs
 IPart= 10 NShTot=        2338 NBatch=         167 AvBLen=        14.0
 IPart=  6 NShTot=        2548 NBatch=         182 AvBLen=        14.0
 IPart=  2 NShTot=        2828 NBatch=         202 AvBLen=        14.0
 IPart=  7 NShTot=        2492 NBatch=         178 AvBLen=        14.0
 IPart=  5 NShTot=        2576 NBatch=         184 AvBLen=        14.0
 IPart=  4 NShTot=        2688 NBatch=         192 AvBLen=        14.0
 IPart=  8 NShTot=        2436 NBatch=         174 AvBLen=        14.0
 IPart=  3 NShTot=        2786 NBatch=         199 AvBLen=        14.0
 IPart=  1 NShTot=        2898 NBatch=         207 AvBLen=        14.0
 IPart= 19 NShTot=        2156 NBatch=         154 AvBLen=        14.0
 IPart= 18 NShTot=        2156 NBatch=         154 AvBLen=        14.0
 IPart= 17 NShTot=        2184 NBatch=         156 AvBLen=        14.0
 IPart= 15 NShTot=        2254 NBatch=         161 AvBLen=        14.0
 IPart= 16 NShTot=        2254 NBatch=         161 AvBLen=        14.0
 IPart= 14 NShTot=        2296 NBatch=         164 AvBLen=        14.0
 IPart= 12 NShTot=        2310 NBatch=         165 AvBLen=        14.0
 IPart=  9 NShTot=        2394 NBatch=         171 AvBLen=        14.0
 IPart= 11 NShTot=        2324 NBatch=         166 AvBLen=        14.0
 IPart= 13 NShTot=        2296 NBatch=         164 AvBLen=        14.0
 IPart=  0 NShTot=        2912 NBatch=         208 AvBLen=        14.0
 PrSmSu:  NxtVal=            481.
 Polarizability after L701:
                1             2             3 
      1  0.000000D+00
      2  0.000000D+00  0.000000D+00
      3  0.000000D+00  0.000000D+00  0.000000D+00
 Dipole Derivatives after L701:
                 1             2             3             4             5 
      1   0.654860D-01  0.800818D-01  0.144190D+00 -0.441615D-01 -0.116598D+00
      2   0.284902D-01 -0.873974D-01 -0.456617D-01 -0.129308D+00 -0.434795D-01
      3   0.785978D-01  0.323123D-02 -0.773749D-01  0.141125D-01 -0.689911D-01
                 6             7             8             9            10 
      1   0.932169D-01 -0.139748D+01 -0.453828D+00  0.265972D-01 -0.101376D+01
      2  -0.363315D-01 -0.228071D+00 -0.110550D+01 -0.265053D-01  0.271121D+00
      3  -0.810299D+00  0.879571D-01  0.361321D-01 -0.965486D+00 -0.995418D-01
                11            12            13            14            15 
      1   0.510968D+00 -0.219285D+00 -0.155888D+01  0.716786D+00 -0.458394D+00
      2  -0.142834D+01  0.178742D+00  0.218029D+00 -0.316538D+00 -0.955933D-01
      3   0.111834D-01 -0.897854D+00  0.652871D-01 -0.112943D+00 -0.879408D+00
                16            17            18            19            20 
      1   0.177044D+00 -0.719698D-03 -0.228578D-01 -0.220770D-01  0.406231D+00
      2  -0.883558D-03  0.183655D+00 -0.257064D-01 -0.304280D+00  0.970068D+00
      3   0.791939D-01  0.171158D-01  0.662400D+00  0.480397D-01 -0.108994D+00
                21            22            23            24            25 
      1  -0.847005D-01  0.939297D+00 -0.161709D+00 -0.589577D+00  0.370875D+00
      2  -0.191961D+00  0.277496D+00  0.727893D-01 -0.181689D+00  0.142090D+00
      3   0.145657D+00 -0.257963D+00  0.687068D-01  0.321750D+00  0.146466D+00
                26            27            28            29            30 
      1  -0.665136D-04  0.692863D+00  0.194090D+00 -0.564263D-01  0.388646D+00
      2   0.123459D+00  0.390575D+00 -0.118982D+00  0.215625D+00 -0.616514D+00
      3  -0.477451D-02  0.580608D+00  0.834890D-01 -0.529256D-01  0.665919D+00
                31            32            33            34            35 
      1   0.148050D+00  0.989456D-02  0.137086D-01  0.799178D+00 -0.184160D+00
      2   0.632610D+00  0.772205D+00  0.269152D+00 -0.614429D+00  0.290977D+00
      3   0.819953D-01  0.657460D-01  0.163982D+00 -0.198425D+00  0.460511D-01
                36            37            38            39            40 
      1  -0.324182D+00  0.143081D+00  0.384481D-02  0.825598D+00  0.119926D+01
      2   0.272198D+00  0.130818D-01  0.967523D-01 -0.115748D-01 -0.186965D+00
      3   0.216727D+00 -0.258445D-01 -0.514370D-02  0.660546D+00 -0.103363D+00
                41            42 
      1  -0.754298D+00 -0.485823D+00
      2   0.255730D+00  0.120869D+00
      3   0.105606D+00  0.212833D+00
 Hessian after L701:
                1             2             3             4             5 
      1  0.172939D+01
      2 -0.180462D+00  0.130142D+02
      3  0.403117D+00 -0.182335D+01  0.115699D+02
      4 -0.195523D+01 -0.155344D+01 -0.305338D+01  0.137442D+02
      5 -0.153804D+01 -0.692424D+01  0.107768D+01  0.579613D+00  0.163839D+02
      6 -0.292407D+01  0.105259D+01 -0.580367D+01  0.183286D+01 -0.627839D+00
      7  0.609410D+00  0.324288D+00 -0.103613D+00 -0.298805D+01  0.234074D+01
      8  0.203447D+00 -0.363148D-01 -0.420996D-01  0.234957D+01 -0.367517D+01
      9 -0.150029D+00 -0.833405D-01 -0.137676D+00  0.433908D+00  0.280443D+00
     10  0.108121D+00 -0.370180D+00  0.795078D-01 -0.519626D+01 -0.150395D+01
     11 -0.304857D+00  0.333899D+00 -0.650877D-01 -0.147763D+01 -0.156307D+01
     12  0.127547D-01  0.273755D-01 -0.196262D+00  0.346267D+00 -0.751772D+00
     13 -0.770386D+00  0.192752D+01  0.291274D+01  0.345946D+00  0.744255D-01
     14  0.197992D+01 -0.660906D+01  0.974238D+00  0.847600D-01 -0.166154D+00
     15  0.288428D+01  0.977160D+00 -0.594134D+01 -0.857853D-01  0.163955D-01
     16 -0.387941D-01  0.721355D-01  0.977437D-01 -0.412698D+01  0.103358D-01
     17  0.592245D-01 -0.399980D-02 -0.884597D-01  0.144946D-01 -0.418474D+01
     18  0.495724D-01 -0.106432D+00  0.287302D+00  0.454092D+00  0.417494D-01
     19  0.193950D-01  0.386056D-01 -0.104096D-01  0.462445D-01 -0.473163D-01
     20  0.980773D-01  0.371149D-01 -0.236743D-01  0.519243D-01 -0.103248D-01
     21 -0.309872D-01 -0.239938D-01 -0.387130D-01 -0.471970D-02 -0.395223D-01
     22  0.184178D+00  0.201685D-01 -0.941779D-01 -0.511810D-01  0.558784D-01
     23  0.187726D-01 -0.615193D-01 -0.849520D-02 -0.133347D-01  0.826610D-01
     24 -0.103247D+00 -0.106923D-01 -0.198283D-01  0.130568D-01 -0.694775D-03
     25  0.561936D-01  0.388309D-01  0.822155D-02  0.496706D-01  0.224937D-02
     26  0.220338D-01 -0.162111D-01  0.993986D-03 -0.616372D-02 -0.145060D-01
     27  0.472853D-01  0.190811D-01 -0.123785D-01  0.337942D-01 -0.145157D-01
     28  0.521342D-02 -0.501950D-01  0.614949D-02  0.347262D-01 -0.173688D-01
     29 -0.372212D-01  0.341858D-01 -0.836599D-02 -0.135512D-01  0.412968D-01
     30  0.348391D-01 -0.488106D-01 -0.587644D-02  0.224727D-01 -0.211806D-01
     31 -0.274361D-01  0.669647D-02  0.872508D-02  0.290981D-01  0.341691D-01
     32 -0.334446D-01  0.763951D-01  0.559263D-02 -0.552369D-01  0.853113D-02
     33 -0.513404D-02  0.216605D-01 -0.313302D-01  0.216623D-01  0.506274D-01
     34  0.108436D+00 -0.113383D+00 -0.691652D-01 -0.267836D-01  0.265634D-01
     35 -0.106109D+00  0.148969D-01  0.475333D-01  0.906547D-01  0.545133D-01
     36 -0.656104D-01  0.465006D-01 -0.269971D-01  0.104953D-01 -0.275806D-01
     37 -0.485892D-01 -0.851585D-01 -0.859176D-01 -0.251790D-01  0.902590D-02
     38 -0.529092D-01  0.404212D-01 -0.688758D-01 -0.345311D-02 -0.350316D-02
     39 -0.147968D-01 -0.741852D-01  0.289881D+00  0.147351D-01  0.106570D-01
     40  0.200935D-01 -0.754263D-01 -0.995384D-01  0.119818D+00 -0.263188D-01
     41 -0.128432D+00  0.100236D+00  0.223697D-01 -0.481978D-01 -0.292164D-01
     42 -0.137972D+00  0.264387D-01  0.670095D-01 -0.394526D-01  0.554974D-02
[...]
 ! A21   A(1,5,14)             114.1603         -DE/DX =    0.0                 !
 ! A22   A(13,5,14)            121.1072         -DE/DX =    0.0                 !
 ! D1    D(5,1,2,3)           -164.6592         -DE/DX =    0.0                 !
 ! D2    D(5,1,2,4)             72.8585         -DE/DX =    0.0                 !
 ! D3    D(5,1,2,6)            -46.8057         -DE/DX =    0.0                 !
 ! D4    D(2,1,5,13)            27.1076         -DE/DX =    0.0                 !
 ! D5    D(2,1,5,14)           178.8178         -DE/DX =    0.0                 !
 ! D6    D(1,2,3,7)             58.3699         -DE/DX =    0.0                 !
 ! D7    D(1,2,3,8)            178.9155         -DE/DX =    0.0                 !
 ! D8    D(1,2,3,9)            -61.4665         -DE/DX =    0.0                 !
 ! D9    D(4,2,3,7)            179.4098         -DE/DX =    0.0                 !
 ! D10   D(4,2,3,8)            -60.0446         -DE/DX =    0.0                 !
 ! D11   D(4,2,3,9)             59.5735         -DE/DX =    0.0                 !
 ! D12   D(6,2,3,7)            -58.1271         -DE/DX =    0.0                 !
 ! D13   D(6,2,3,8)             62.4184         -DE/DX =    0.0                 !
 ! D14   D(6,2,3,9)           -177.9635         -DE/DX =    0.0                 !
 ! D15   D(1,2,4,10)            60.862          -DE/DX =    0.0                 !
 ! D16   D(1,2,4,11)           -58.9424         -DE/DX =    0.0                 !
 ! D17   D(1,2,4,12)          -179.4201         -DE/DX =    0.0                 !
 ! D18   D(3,2,4,10)           -58.1233         -DE/DX =    0.0                 !
 ! D19   D(3,2,4,11)          -177.9277         -DE/DX =    0.0                 !
 ! D20   D(3,2,4,12)            61.5946         -DE/DX =    0.0                 !
 ! D21   D(6,2,4,10)           179.3485         -DE/DX =    0.0                 !
 ! D22   D(6,2,4,11)            59.5441         -DE/DX =    0.0                 !
 ! D23   D(6,2,4,12)           -60.9336         -DE/DX =    0.0                 !
 ! D24   D(1,5,13,14)          149.666          -DE/DX =    0.0                 !
 --------------------------------------------------------------------------------
 GradGradGradGradGradGradGradGradGradGradGradGradGradGradGradGradGradGrad

 Leave Link  103 at Tue Apr  9 02:13:59 2019, MaxMem=   671088640 cpu:               0.5 elap:               0.1
 (Enter /shared/centos7/gaussian/g16/l9999.exe)

 ----------------------------------------------------------------------

 Electric dipole moment (input orientation):
 (Debye = 10**-18 statcoulomb cm , SI units = C m)
                  (au)            (Debye)         (10**-30 SI)
   Tot        0.559618D+00      0.142241D+01      0.474464D+01
   x         -0.281797D+00     -0.716256D+00     -0.238917D+01
   y          0.931941D-01      0.236876D+00      0.790133D+00
   z         -0.474424D+00     -0.120587D+01     -0.402233D+01

 Dipole polarizability, Alpha (input orientation).
 (esu units = cm**3 , SI units = C**2 m**2 J**-1)
 Alpha(0;0):
               (au)            (10**-24 esu)      (10**-40 SI)
   iso        0.553358D+02      0.819992D+01      0.912364D+01
   aniso      0.135183D+02      0.200320D+01      0.222886D+01
   xx         0.616682D+02      0.913829D+01      0.101677D+02
   yx        -0.411690D+01     -0.610062D+00     -0.678786D+00
   yy         0.554046D+02      0.821011D+01      0.913498D+01
   zx         0.178407D+01      0.264371D+00      0.294153D+00
   zy         0.493351D+00      0.731070D-01      0.813426D-01
   zz         0.489347D+02      0.725137D+01      0.806824D+01

 ----------------------------------------------------------------------

 Dipole orientation:
     8          0.90097911         -0.21754643         -1.78295624
     6          0.12714121         -0.13845965          0.79838814
     6         -1.61778312         -2.36949275          1.20219852
     6         -1.14272303          2.37060513          1.37879428
     6          2.91103259          1.22494760         -2.38036856
     1          1.82138660         -0.35114918          1.97244676
     1         -0.65900972         -4.13256178          0.75222718
     1         -2.24966287         -2.43604103          3.16001085
     1         -3.26969251         -2.19176658         -0.01557026
     1         -2.81532033          2.59226056          0.19594794
     1          0.13293578          3.94202195          1.00628599
     1         -1.71723126          2.44061745          3.35495546
     1          4.27481585          1.63344355         -0.90801506
     1          3.47647129          1.09915393         -4.33277237

 Electric dipole moment (dipole orientation):
 (Debye = 10**-18 statcoulomb cm , SI units = C m)
                  (au)            (Debye)         (10**-30 SI)
   Tot        0.559618D+00      0.142241D+01      0.474464D+01
   x          0.000000D+00      0.000000D+00      0.000000D+00
   y          0.000000D+00      0.000000D+00      0.000000D+00
   z          0.559618D+00      0.142241D+01      0.474464D+01

 Dipole polarizability, Alpha (dipole orientation).
 (esu units = cm**3 , SI units = C**2 m**2 J**-1)
 Alpha(0;0):
               (au)            (10**-24 esu)      (10**-40 SI)
   iso        0.553358D+02      0.819992D+01      0.912364D+01
   aniso      0.135183D+02      0.200320D+01      0.222886D+01
   xx         0.565314D+02      0.837709D+01      0.932077D+01
   yx         0.274472D+01      0.406726D+00      0.452544D+00
   yy         0.550588D+02      0.815887D+01      0.907797D+01
   zx        -0.689352D+01     -0.102151D+01     -0.113659D+01
   zy        -0.216459D+01     -0.320760D+00     -0.356893D+00
   zz         0.544172D+02      0.806380D+01      0.897219D+01

 ----------------------------------------------------------------------

 Test job not archived.
 1\1\GINC-C0263\Freq\UM062X\6-311+G(2df,2p)\C4H9O1(2)\UNDERKOFFLER.C\09
 -Apr-2019\0\\#P Geom=AllCheck Guess=TCheck SCRF=Check Test GenChk UM06
 2X/6-311+G(2df,2p) Freq\\Gaussian input prepared by ASE\\0,2\O,0.89167
 61065,-0.0220920338,0.5789535383\C,-0.1513723134,0.1455810969,-0.37984
 79139\C,-1.0020566618,1.3021534393,0.1005717801\C,-0.9460575034,-1.141
 5795713,-0.5229601693\C,1.9339337449,-0.7783441522,0.184228264\H,0.314
 4099603,0.4005943709,-1.3392699264\H,-0.4020752614,2.2044985621,0.2023
 239209\H,-1.81064378,1.494197298,-0.6034958441\H,-1.4360229989,1.06252
 90754,1.0714028505\H,-1.399829808,-1.401520707,0.4338455171\H,-0.30212
 05836,-1.9628481597,-0.8342497056\H,-1.7366200962,-1.0177210555,-1.262
 5814482\H,2.1544361206,-0.8287635558,-0.8756980587\H,2.7153646027,-0.8
 712516809,0.9205240372\\Version=EM64L-G16RevA.03\State=2-A\HF=-232.965
 1962\S2=0.754568\S2-1=0.\S2A=0.750015\RMSD=3.613e-09\RMSF=7.089e-07\Ze
 roPoint=0.1231436\Thermal=0.1298841\Dipole=-0.2817969,0.0931941,-0.474
 4241\DipoleDeriv=-1.2551863,0.4507473,-0.1243499,0.6067214,-0.6367079,
 -0.0435735,-0.1157389,-0.0793986,-0.5445058,0.8043688,-0.1194235,0.162
 9889,-0.0892951,0.4888998,-0.0112154,0.3632613,-0.1038651,0.4285511,-0
 .012532,0.0406577,0.0021173,0.0711491,-0.0480863,-0.0292082,0.0121836,
 -0.0515795,0.0674559,-0.0465324,-0.016046,-0.0141408,-0.0782105,-0.129
 6758,-0.0514955,-0.0580522,0.0009373,0.0618412,0.5802283,-0.4465877,-0
 .0326082,-0.5790513,0.0185925,0.0688906,-0.2009184,0.1709293,0.2366404
 ,-0.0780981,-0.0237525,0.111854,-0.0079163,-0.0213746,0.0192896,0.0032
 749,0.0516882,-0.1194877,0.0123377,-0.090584,-0.0025031,-0.0498839,-0.
 0802195,-0.0251917,0.0119302,-0.02911,0.0674711,-0.0432811,0.0451725,-
 0.0711848,0.0206678,0.0579051,-0.0090784,-0.0973029,0.0199701,-0.01708
 93,0.0409929,0.004648,0.047946,-0.0206473,0.0316492,0.0664897,0.081477
 6,0.0087561,-0.0608736,0.0371946,-0.0331136,0.0378412,-0.0152228,0.042
 0328,-0.0044271,0.0833628,0.0457805,-0.0702697,0.0083563,0.0750486,0.0
 41914,0.0426527,-0.0510418,-0.0365439,0.0354554,-0.030808,0.0559998,-0
 .0461297,-0.0015581,-0.0871582,0.0113449,0.0709642,0.0400878,-0.103323
 1,0.0184878,-0.0123007,0.0363978,0.0511263,-0.0305631,0.0666989,0.1148
 305,0.0593715,0.0568135,-0.0115323,-0.100981,-0.0381169,0.063665,-0.04
 21532,0.0209924,0.1422318,-0.0433956,-0.0724238,-0.010256,0.0075484\Po
 lar=61.6682082,-4.1169044,55.4045906,1.7840661,0.4933508,48.9346604\Qu
 adrupole=0.8905352,-0.816227,-0.0743082,-0.4225809,-0.2417638,-0.10751
 17\PG=C01 [X(C4H9O1)]\NImag=0\\0.47173244,-0.20878265,0.20533940,0.043
 42636,0.06675939,0.30643862,-0.13054594,0.01667391,-0.04845898,0.51087
 228,0.00842158,-0.07063282,-0.00763903,-0.00576992,0.51783755,-0.07558
 005,0.00562076,-0.15706413,-0.07386047,-0.00817077,0.56814147,-0.03242
 628,0.02906525,0.00225601,-0.11293482,0.04876620,0.02632398,0.56181203
 ,0.01057054,-0.00560628,0.00117857,0.05388990,-0.15595737,-0.03289012,
 0.04241747,0.53898828,-0.02632494,0.02450972,0.00635473,0.03715445,-0.
 04280532,-0.09940227,0.02388991,-0.02209491,0.57485034,-0.03138575,-0.
 02157862,-0.01644082,-0.10600694,-0.04845825,0.00372228,0.01352729,0.0
 1535642,0.00225504,0.55744278,0.00283446,0.00535028,-0.00313072,-0.053
 46643,-0.17263964,-0.00516886,-0.01286678,-0.03053824,-0.00350960,-0.0
 5110567,0.51501773,-0.02877975,-0.02080278,-0.00982416,0.00665231,0.00
 207341,-0.07845576,-0.00408855,-0.01253444,-0.00025793,-0.00096141,-0.
 00647257,0.58400409,-0.23650128,0.16062017,0.03970318,-0.04336183,0.02
 321758,0.00019919,-0.00202587,-0.00058561,-0.00127392,0.00103972,-0.00
 231645,0.00044908,0.52801968,0.15911871,-0.12912965,-0.05347989,0.0150
 4784,-0.00984717,0.00491776,0.00096059,0.00019584,0.00015509,-0.003952
 99,0.00216192,-0.00297000,-0.22166388,0.17528787,0.07082156,-0.0799408
 8,-0.12288969,-0.01745774,0.01759770,0.00794645,-0.00392162,0.00027270
 ,-0.00419565,-0.00245586,0.00162942,-0.00094812,0.06770961,0.05816200,
 0.65547372,-0.00106985,0.01104101,-0.03203589,-0.10011809,-0.02621970,
 0.10169916,-0.00785247,-0.00402763,0.01667135,-0.00701173,-0.00475711,
 0.01563214,0.00436360,-0.00214051,-0.00472757,0.11195151,0.00327483,0.
 00017152,0.00485128,-0.02593904,-0.06518798,0.04884674,0.01233779,0.00
 533280,-0.02380291,-0.01510680,-0.00833731,0.02480205,-0.00142729,0.00
 045103,0.00234461,0.02624606,0.07174499,-0.00737672,0.00952481,-0.0338
 8293,0.09502343,0.04926927,-0.22861781,0.00568710,0.00104749,-0.007323
 70,-0.00029555,-0.00092468,0.00439826,0.00439162,-0.00331336,-0.000211
 59,-0.09687141,-0.05438208,0.26135502,0.00176836,-0.00113446,0.0003693
 5,0.01089629,0.01823064,0.00123320,-0.13362636,-0.12829494,-0.01341727
 ,-0.00226622,0.00256339,0.00070255,-0.00007168,0.00004512,0.00021808,0
 .00093816,-0.00088837,-0.00037044,0.14139241,-0.00097023,0.00243112,0.
 00036121,-0.01595618,-0.02186992,-0.00175929,-0.12512420,-0.23275618,-
 0.01950254,0.00477104,-0.00288290,-0.00185564,0.00039652,0.00010180,-0
 .00010346,0.00010468,0.00109047,-0.00003779,0.13662468,0.25343460,-0.0
 0008793,0.00096224,0.00006068,-0.00769158,-0.00948963,-0.00251715,-0.0
 1236028,-0.01958415,-0.04992636,0.00185524,-0.00146776,-0.00034609,-0.
 00010136,0.00016329,-0.00002877,-0.00062470,0.00026348,0.00002763,0.01
 343596,0.02379226,0.04973382,-0.00366350,0.00451169,0.00191134,-0.0122
 3153,-0.00082462,-0.01359577,-0.19570763,0.03619857,-0.12980838,0.0002
 3606,-0.00084750,-0.00052094,0.00047218,-0.00013567,-0.00124232,0.0000
 8568,-0.00049389,0.00044984,-0.01250132,0.00408816,-0.01044684,0.21164
 456,0.00541151,-0.00449418,-0.00188862,0.01441469,-0.00219473,0.018944
 92,0.03422498,-0.05615546,0.02874102,-0.00031434,0.00075025,0.00047596
 ,0.00032075,0.00021418,0.00126214,-0.00031318,0.00080354,-0.00033029,-
 0.01929401,0.00659212,-0.01818761,-0.04017928,0.05779237,0.00211083,-0
 .00232806,0.00053131,0.00793671,-0.00108494,0.00637996,-0.13156579,0.0
 3076348,-0.16221311,-0.00014774,0.00004385,-0.00008159,0.00049122,-0.0
 0026564,0.00079832,-0.00031773,0.00083217,0.00026164,-0.00042067,0.000
 11752,-0.00196291,0.14365221,-0.03224580,0.17281987,0.00183214,-0.0011
 0245,-0.00021894,-0.01002707,-0.00370110,0.01950053,-0.08827491,-0.025
 14277,0.09350214,0.00028791,-0.00110865,-0.00096051,-0.00037570,0.0001
 6893,0.00002079,-0.00140791,0.00328086,0.00062386,-0.00722905,-0.00300
 800,0.01615116,0.01133232,0.00548655,-0.02203520,0.09313930,-0.0022256
 9,0.00120967,0.00033766,0.01125546,0.00500613,-0.02584964,-0.02564036,
 -0.06205086,0.05632534,0.00036164,0.00210102,-0.00076200,0.00021332,-0
 .00015133,-0.00024702,0.00316960,-0.00361871,-0.00135241,-0.00910619,-
 0.00531330,0.02442729,-0.00248509,-0.00251668,0.00421642,0.02490908,0.
 06565169,-0.00019448,-0.00007617,0.00136044,0.00470351,0.00261715,-0.0
 1259508,0.09472764,0.05434850,-0.26041002,-0.00037946,0.00075586,0.000
 39950,-0.00020797,0.00003434,0.00040903,0.00093323,-0.00202563,0.00077
 597,-0.00203050,-0.00073594,0.00411723,0.00864569,0.00403467,-0.016837
 04,-0.10570845,-0.05819987,0.28223738,0.00194476,0.00109168,-0.0001336
 0,-0.00956486,-0.00609831,0.01725900,0.00028651,0.00130144,-0.00031373
 ,-0.09243135,-0.02418698,0.09749594,-0.00053690,0.00058473,0.00016335,
 -0.00109349,-0.00318145,-0.00080648,-0.00008191,0.00017464,-0.00015212
 ,0.00000701,0.00000280,-0.00015686,0.00062604,-0.00016138,-0.00030931,
 0.09707628,0.00208028,0.00201532,-0.00061330,-0.01286607,-0.00941838,0
 .02829036,-0.00031341,0.00171671,0.00139232,-0.02434533,-0.06069683,0.
 05280693,-0.00004162,-0.00014229,-0.00005379,-0.00314304,-0.00448007,-
 0.00124151,0.00015495,0.00036623,-0.00034826,0.00005601,-0.00007387,-0
 .00000730,0.00031044,-0.00040974,-0.00078003,0.03034343,0.06652738,0.0
 0100049,-0.00035011,0.00163143,-0.00159136,-0.00071321,0.00116892,-0.0
 0050680,-0.00009195,0.00073363,0.09830562,0.05474685,-0.25625841,0.000
 06870,0.00032932,-0.00004020,-0.00072243,-0.00078258,0.00121759,-0.000
 12761,-0.00000659,0.00023446,0.00015010,0.00005193,-0.00001620,-0.0001
 9118,0.00044733,0.00017696,-0.10837095,-0.05980178,0.27568004,0.001709
 31,0.00151333,0.00112696,0.01131071,-0.01483120,-0.00636095,-0.0019114
 4,-0.00268852,-0.00064225,-0.14449270,0.12293635,0.04795992,-0.0011135
 0,-0.00050153,-0.00051849,0.00080369,0.00110552,0.00008517,0.00063227,
 -0.00092166,-0.00033504,0.00005576,-0.00012396,0.00019946,-0.00008230,
 -0.00007390,-0.00015188,-0.00792320,0.00908469,0.00239153,0.15459699,0
 .00008935,0.00234308,0.00120030,0.01953423,-0.02193526,-0.00823316,-0.
 00488068,-0.00396234,0.00004827,0.12031601,-0.19866939,-0.05851627,0.0
 0061128,0.00001072,-0.00061224,0.00004717,0.00108511,0.00035548,0.0010
 4750,-0.00133831,-0.00076865,-0.00011204,0.00031311,0.00016557,-0.0000
 6866,0.00015163,-0.00003011,-0.00555243,0.00663577,0.00197686,-0.13145
 382,0.21744043,0.00006083,0.00032685,0.00002931,0.00092761,-0.00159378
 ,-0.00221573,-0.00068608,-0.00058136,0.00048755,0.04751776,-0.05793776
 ,-0.07056681,0.00012661,-0.00005070,-0.00010931,-0.00059406,0.00018232
 ,0.00008543,0.00019054,-0.00026228,0.00049926,0.00034089,-0.00013440,0
 .00010142,-0.00021848,0.00033678,0.00042172,0.01665500,-0.02218965,-0.
 00718457,-0.05184335,0.06410668,0.07127533,-0.00366788,-0.00310384,-0.
 00096379,-0.01138231,0.00610348,-0.01103016,0.00013906,0.00093119,-0.0
 0003386,-0.18845553,0.02201938,-0.13300160,0.00109413,-0.00116729,-0.0
 0062215,0.00012367,0.00013270,0.00069402,0.00004645,-0.00008100,0.0003
 2434,0.00060566,-0.00008653,0.00014518,0.00002003,-0.00009773,0.000104
 68,0.01153775,-0.00134706,0.00958429,-0.01317319,0.00081426,-0.0125659
 0,0.20321215,-0.00719767,-0.00421947,-0.00236134,-0.01687172,0.0062207
 4,-0.01910243,0.00041390,0.00086788,-0.00002015,0.02382055,-0.05151630
 ,0.02308365,0.00172878,-0.00079810,-0.00074238,0.00045008,0.00097180,0
 .00078439,0.00003296,0.00024991,0.00027053,0.00007503,-0.00080769,-0.0
 0017758,0.00003800,-0.00007906,-0.00005719,0.00581835,-0.00198363,0.00
 417464,0.01630400,-0.00203647,0.01780021,-0.02432204,0.05305060,-0.001
 15162,-0.00057306,0.00161154,-0.00032130,0.00137539,-0.00319368,-0.000
 01511,0.00042838,-0.00013189,-0.13351341,0.02164417,-0.17221837,0.0008
 8055,-0.00030922,-0.00016430,-0.00013578,-0.00048883,0.00014707,0.0002
 3755,-0.00007203,0.00015463,0.00021852,-0.00044920,0.00032171,-0.00014
 085,-0.00002489,-0.00000813,-0.02115299,0.00254734,-0.01737105,0.00787
 562,-0.00017038,0.00716926,0.14733519,-0.02392134,0.18359124,-0.013619
 32,0.00686048,0.02647499,0.00231307,-0.00115883,0.00602947,-0.00016514
 ,0.00015013,-0.00038436,-0.00035719,0.00005786,-0.00037016,-0.05520966
 ,0.01981753,0.04457410,0.00024557,0.00049037,-0.00073861,0.00004313,-0
 .00009612,0.00001946,-0.00007510,0.00007896,-0.00007903,0.00013426,-0.
 00004877,-0.00018520,0.00019081,0.00002357,-0.00002883,-0.00040357,-0.
 00031331,0.00007412,-0.00002521,-0.00013715,-0.00008899,0.05883691,0.0
 0972542,-0.00027516,-0.02228678,-0.00195608,0.00024248,-0.00264661,0.0
 0002098,-0.00013377,0.00005082,-0.00001835,0.00013400,0.00034711,0.019
 34912,-0.02007020,0.00570261,-0.00037199,-0.00000832,0.00080978,0.0000
 3044,-0.00006615,-0.00003951,0.00000310,-0.00002626,0.00004668,-0.0000
 6285,-0.00000034,0.00013267,-0.00001280,-0.00012507,-0.00002495,-0.000
 35725,-0.00026631,-0.00003607,0.00016232,-0.00010875,-0.00004314,-0.02
 451414,0.01910951,0.00937483,-0.00179623,-0.00644080,-0.00398826,-0.00
 002176,0.00101199,-0.00008718,0.00001284,0.00071179,0.00036845,-0.0001
 4608,-0.00001781,0.04327958,-0.01759988,-0.32988020,0.00104671,-0.0003
 1140,0.00107892,-0.00000602,0.00004108,-0.00004150,0.00011714,-0.00011
 315,-0.00002178,-0.00024012,0.00022159,-0.00005580,-0.00011184,-0.0000
 2269,0.00000339,0.00013146,0.00027716,0.00005883,0.00001021,0.00018999
 ,0.00007649,-0.05687284,0.01774299,0.34283244,-0.02610722,0.00432449,-
 0.01701617,0.00078104,0.00232246,0.00446059,-0.00083998,-0.00007619,-0
 .00127420,-0.00012635,0.00024412,-0.00020902,-0.19579289,0.03381842,-0
 .15256174,0.00004166,0.00016870,-0.00049583,0.00005947,-0.00000232,0.0
 0001369,-0.00026014,0.00037106,0.00018741,0.00002494,-0.00007000,0.000
 05250,-0.00003745,0.00000315,0.00003843,-0.00000880,-0.00007886,0.0000
 1453,-0.00007477,-0.00015306,-0.00002738,0.00809143,-0.00199791,0.0069
 7788,0.21424905,0.01764955,-0.00450283,0.01671125,0.00200942,0.0003763
 8,-0.00279966,0.00061828,0.00005900,0.00051285,0.00025469,-0.00023459,
 0.00032459,0.01957732,-0.01828464,-0.00527141,-0.00008545,-0.00001887,
 -0.00020911,-0.00001171,-0.00003948,0.00000647,0.00014554,-0.00019670,
 -0.00007638,0.00000061,0.00001988,-0.00001825,-0.00012373,0.00006848,0
 .00004423,0.00000794,0.00022824,0.00003314,0.00004218,0.00018855,0.000
 05681,-0.00121058,0.00159434,0.00152552,-0.03887406,0.02074225,0.01270
 058,-0.00183647,0.01208365,0.00097165,-0.00141449,-0.00058718,0.000346
 78,-0.00027503,0.00072290,0.00016987,-0.00006214,0.00017321,-0.1557160
 7,0.01422689,-0.20615969,0.00004697,-0.00032924,0.00068849,-0.00001471
 ,0.00002346,-0.00000494,0.00012853,-0.00016158,-0.00008161,-0.00008476
 ,0.00012344,0.00000782,-0.00006541,0.00002136,0.00002399,0.00008184,0.
 00020048,-0.00005169,0.00001955,0.00007900,0.00001551,-0.01842414,0.00
 024439,-0.00931597,0.15983932,-0.01084006,0.20248550\\0.00000025,0.000
 00082,-0.00000043,-0.00000025,-0.00000009,-0.00000029,-0.00000013,0.,-
 0.00000068,0.00000011,-0.00000043,0.00000119,0.00000031,0.00000052,-0.
 00000038,-0.00000059,-0.00000082,-0.00000052,-0.00000030,0.00000021,-0
 .00000162,-0.00000047,-0.00000068,-0.00000045,0.00000030,0.00000068,-0
 .00000030,0.00000051,0.00000019,0.00000157,0.00000010,-0.00000057,0.00
 000152,-0.00000028,-0.00000116,0.00000142,-0.00000020,-0.00000010,-0.0
 0000043,0.00000064,0.00000141,-0.00000059\\\@


 Age does not diminish the extreme disappointment of
 having a scoop of ice cream fall from the cone.
 -- Jim Fiebig
 Job cpu time:       0 days  3 hours 10 minutes 19.0 seconds.
 Elapsed time:       0 days  0 hours  9 minutes 31.7 seconds.
 File lengths (MBytes):  RWF=   1376 Int=      0 D2E=      0 Chk=     32 Scr=     32
 Normal termination of Gaussian 16 at Tue Apr  9 02:13:59 2019.
