 Entering Gaussian System, Link 0=g16
 Input=BWWHSGPVJDTLAO-UHFFFAOYSA-N_36by-10.0_tor13_a1.com
 Output=BWWHSGPVJDTLAO-UHFFFAOYSA-N_36by-10.0_tor13_a1.log
 Initial command:
 /shared/centos7/gaussian/g16/l1.exe "/scratch/underkoffler.c/gaussian_scratch/Gau-2020.inp" -scrdir="/scratch/underkoffler.c/gaussian_scratch/"
 Entering Link 1 = /shared/centos7/gaussian/g16/l1.exe PID=      2021.
  
 Copyright (c) 1988,1990,1992,1993,1995,1998,2003,2009,2016,
            Gaussian, Inc.  All Rights Reserved.
  
 This is part of the Gaussian(R) 16 program.  It is based on
 the Gaussian(R) 09 system (copyright 2009, Gaussian, Inc.),
 the Gaussian(R) 03 system (copyright 2003, Gaussian, Inc.),
 the Gaussian(R) 98 system (copyright 1998, Gaussian, Inc.),
 the Gaussian(R) 94 system (copyright 1995, Gaussian, Inc.),
 the Gaussian 92(TM) system (copyright 1992, Gaussian, Inc.),
 the Gaussian 90(TM) system (copyright 1990, Gaussian, Inc.),
 the Gaussian 88(TM) system (copyright 1988, Gaussian, Inc.),
 the Gaussian 86(TM) system (copyright 1986, Carnegie Mellon
 University), and the Gaussian 82(TM) system (copyright 1983,
 Carnegie Mellon University). Gaussian is a federally registered
 trademark of Gaussian, Inc.
  
 This software contains proprietary and confidential information,
 including trade secrets, belonging to Gaussian, Inc.
  
 This software is provided under written license and may be
 used, copied, transmitted, or stored only in accord with that
 written license.
  
 The following legend is applicable only to US Government
 contracts under FAR:
  
                    RESTRICTED RIGHTS LEGEND
  
 Use, reproduction and disclosure by the US Government is
 subject to restrictions as set forth in subparagraphs (a)
 and (c) of the Commercial Computer Software - Restricted
 Rights clause in FAR 52.227-19.
  
 Gaussian, Inc.
 340 Quinnipiac St., Bldg. 40, Wallingford CT 06492
  
  
 ---------------------------------------------------------------
 Warning -- This program may not be used in any manner that
 competes with the business of Gaussian, Inc. or will provide
 assistance to any competitor of Gaussian, Inc.  The licensee
 of this program is prohibited from giving any competitor of
 Gaussian, Inc. access to this program.  By using this program,
 the user acknowledges that Gaussian, Inc. is engaged in the
 business of creating and licensing software in the field of
 computational chemistry and represents and warrants to the
 licensee that it is not a competitor of Gaussian, Inc. and that
 it will not use this program in any manner prohibited above.
 ---------------------------------------------------------------
  

 Cite this work as:
 Gaussian 16, Revision A.03,
 M. J. Frisch, G. W. Trucks, H. B. Schlegel, G. E. Scuseria, 
 M. A. Robb, J. R. Cheeseman, G. Scalmani, V. Barone, 
 G. A. Petersson, H. Nakatsuji, X. Li, M. Caricato, A. V. Marenich, 
 J. Bloino, B. G. Janesko, R. Gomperts, B. Mennucci, H. P. Hratchian, 
 J. V. Ortiz, A. F. Izmaylov, J. L. Sonnenberg, D. Williams-Young, 
 F. Ding, F. Lipparini, F. Egidi, J. Goings, B. Peng, A. Petrone, 
 T. Henderson, D. Ranasinghe, V. G. Zakrzewski, J. Gao, N. Rega, 
 G. Zheng, W. Liang, M. Hada, M. Ehara, K. Toyota, R. Fukuda, 
 J. Hasegawa, M. Ishida, T. Nakajima, Y. Honda, O. Kitao, H. Nakai, 
 T. Vreven, K. Throssell, J. A. Montgomery, Jr., J. E. Peralta, 
 F. Ogliaro, M. J. Bearpark, J. J. Heyd, E. N. Brothers, K. N. Kudin, 
 V. N. Staroverov, T. A. Keith, R. Kobayashi, J. Normand, 
 K. Raghavachari, A. P. Rendell, J. C. Burant, S. S. Iyengar, 
 J. Tomasi, M. Cossi, J. M. Millam, M. Klene, C. Adamo, R. Cammi, 
 J. W. Ochterski, R. L. Martin, K. Morokuma, O. Farkas, 
 J. B. Foresman, and D. J. Fox, Gaussian, Inc., Wallingford CT, 2016.
 
 ******************************************
 Gaussian 16:  EM64L-G16RevA.03 25-Dec-2016
                12-Mar-2019 
 ******************************************
 %nprocshared=20
 Will use up to   20 processors via shared memory.
 %mem=5GB
 ----------------------------------------------
 #p m062x/6-311+g(2df,2p) Opt=(CalcFC,ModRedun)
 ----------------------------------------------
 1/10=4,18=120,19=15,26=3,38=1/1,3;
 2/9=110,12=2,17=6,18=5,40=1/2;
 3/5=4,6=6,7=214,11=2,25=1,30=1,71=2,74=-55,140=1/1,2,3;
 4//1;
 5/5=2,38=5/2;
 8/6=4,10=90,11=11/1;
 11/6=1,8=1,9=11,15=111,16=1/1,2,10;
 10/6=1,13=1/2;
 6/7=2,8=2,9=2,10=2,28=1/1;
 7/10=1,18=20,25=1/1,2,3,16;
 1/10=4,18=20,19=15,26=3/3(2);
 2/9=110/2;
 99//99;
 2/9=110/2;
 3/5=4,6=6,7=214,11=2,25=1,30=1,71=1,74=-55/1,2,3;
 4/5=5,16=3,69=1/1;
 5/5=2,38=5/2;
 7//1,2,3,16;
 1/18=20,19=15,26=3/3(-5);
 2/9=110/2;
 6/7=2,8=2,9=2,10=2,19=2,28=1/1;
 99/9=1/99;
 Leave Link    1 at Tue Mar 12 00:34:38 2019, MaxMem=   671088640 cpu:              42.6 elap:               2.2
 (Enter /shared/centos7/gaussian/g16/l101.exe)
 ----------------------------------------
 Gaussian Input Prepared from Scan Object
 ----------------------------------------
 Symbolic Z-matrix:
 Charge =  0 Multiplicity = 2
 O                     0.76009  -0.55752  -0.33284 
 C                    -0.37264   0.01562   0.31815 
 C                    -0.57802   1.44741  -0.14726 
 C                    -1.555    -0.87388  -0.0027 
 C                     1.96143  -0.11011   0.08023 
 H                    -0.18      0.00225   1.39758 
 H                     0.30135   2.05418   0.06383 
 H                    -1.43688   1.88949   0.35701 
 H                    -0.75814   1.46194  -1.22258 
 H                    -2.45365  -0.49787   0.48458 
 H                    -1.72381  -0.88888  -1.07952 
 H                    -1.37215  -1.89269   0.33368 
 H                     2.04567   0.26073   1.09511 
 H                     2.79889  -0.57448  -0.41418 
 
 The following ModRedundant input section has been read:
 B       5      13 B                                                           
 B       3       9 B                                                           
 B       1       5 B                                                           
 B       4      10 B                                                           
 B       1       2 B                                                           
 B       2       4 B                                                           
 B       3       7 B                                                           
 B       4      12 B                                                           
 B       2       3 B                                                           
 B       4      11 B                                                           
 B       5      14 B                                                           
 B       3       8 B                                                           
 B       2       6 B                                                           
 D       6       2       4      11 S  36 -10.00                                
 
 Add atom      5 valence  3 ND=      2 dihedral       1      5     13     14
 ITRead=  0  0  0  0  0  0  0  0  0  0  0  0  0  0
 MicOpt= -1 -1 -1 -1 -1 -1 -1 -1 -1 -1 -1 -1 -1 -1
 NAtoms=     14 NQM=       14 NQMF=       0 NMMI=      0 NMMIF=      0
                NMic=       0 NMicF=      0.
                    Isotopes and Nuclear Properties:
 (Nuclear quadrupole moments (NQMom) in fm**2, nuclear magnetic moments (NMagM)
  in nuclear magnetons)

  Atom         1           2           3           4           5           6           7           8           9          10
 IAtWgt=          16          12          12          12          12           1           1           1           1           1
 AtmWgt=  15.9949146  12.0000000  12.0000000  12.0000000  12.0000000   1.0078250   1.0078250   1.0078250   1.0078250   1.0078250
 NucSpn=           0           0           0           0           0           1           1           1           1           1
 AtZEff=  -0.0000000  -0.0000000  -0.0000000  -0.0000000  -0.0000000  -0.0000000  -0.0000000  -0.0000000  -0.0000000  -0.0000000
 NQMom=    0.0000000   0.0000000   0.0000000   0.0000000   0.0000000   0.0000000   0.0000000   0.0000000   0.0000000   0.0000000
 NMagM=    0.0000000   0.0000000   0.0000000   0.0000000   0.0000000   2.7928460   2.7928460   2.7928460   2.7928460   2.7928460
 AtZNuc=   8.0000000   6.0000000   6.0000000   6.0000000   6.0000000   1.0000000   1.0000000   1.0000000   1.0000000   1.0000000

  Atom        11          12          13          14
 IAtWgt=           1           1           1           1
 AtmWgt=   1.0078250   1.0078250   1.0078250   1.0078250
 NucSpn=           1           1           1           1
 AtZEff=  -0.0000000  -0.0000000  -0.0000000  -0.0000000
 NQMom=    0.0000000   0.0000000   0.0000000   0.0000000
 NMagM=    2.7928460   2.7928460   2.7928460   2.7928460
 AtZNuc=   1.0000000   1.0000000   1.0000000   1.0000000
 Leave Link  101 at Tue Mar 12 00:34:38 2019, MaxMem=   671088640 cpu:               6.1 elap:               0.3
 (Enter /shared/centos7/gaussian/g16/l103.exe)

 GradGradGradGradGradGradGradGradGradGradGradGradGradGradGradGradGradGrad
 Berny optimization.
 Initialization pass.
                           ----------------------------
                           !    Initial Parameters    !
                           ! (Angstroms and Degrees)  !
 --------------------------                            --------------------------
 ! Name  Definition              Value          Derivative Info.                !
 --------------------------------------------------------------------------------
 ! R1    R(1,2)                  1.4267         calculate D2E/DX2 analytically  !
 ! R2    R(1,5)                  1.3469         calculate D2E/DX2 analytically  !
 ! R3    R(2,3)                  1.5195         calculate D2E/DX2 analytically  !
 ! R4    R(2,4)                  1.514          calculate D2E/DX2 analytically  !
 ! R5    R(2,6)                  1.0966         calculate D2E/DX2 analytically  !
 ! R6    R(3,7)                  1.0891         calculate D2E/DX2 analytically  !
 ! R7    R(3,8)                  1.0897         calculate D2E/DX2 analytically  !
 ! R8    R(3,9)                  1.0904         calculate D2E/DX2 analytically  !
 ! R9    R(4,10)                 1.0892         calculate D2E/DX2 analytically  !
 ! R10   R(4,11)                 1.0901         calculate D2E/DX2 analytically  !
 ! R11   R(4,12)                 1.0884         calculate D2E/DX2 analytically  !
 ! R12   R(5,13)                 1.0838         calculate D2E/DX2 analytically  !
 ! R13   R(5,14)                 1.0777         calculate D2E/DX2 analytically  !
 ! A1    A(2,1,5)              115.7723         calculate D2E/DX2 analytically  !
 ! A2    A(1,2,3)              110.2496         calculate D2E/DX2 analytically  !
 ! A3    A(1,2,4)              106.6979         calculate D2E/DX2 analytically  !
 ! A4    A(1,2,6)              107.7453         calculate D2E/DX2 analytically  !
 ! A5    A(3,2,4)              112.5292         calculate D2E/DX2 analytically  !
 ! A6    A(3,2,6)              109.6787         calculate D2E/DX2 analytically  !
 ! A7    A(4,2,6)              109.7944         calculate D2E/DX2 analytically  !
 ! A8    A(2,3,7)              110.8852         calculate D2E/DX2 analytically  !
 ! A9    A(2,3,8)              110.3091         calculate D2E/DX2 analytically  !
 ! A10   A(2,3,9)              109.691          calculate D2E/DX2 analytically  !
 ! A11   A(7,3,8)              108.7043         calculate D2E/DX2 analytically  !
 ! A12   A(7,3,9)              108.4881         calculate D2E/DX2 analytically  !
 ! A13   A(8,3,9)              108.7099         calculate D2E/DX2 analytically  !
 ! A14   A(2,4,10)             110.2852         calculate D2E/DX2 analytically  !
 ! A15   A(2,4,11)             109.7778         calculate D2E/DX2 analytically  !
 ! A16   A(2,4,12)             110.6877         calculate D2E/DX2 analytically  !
 ! A17   A(10,4,11)            108.5969         calculate D2E/DX2 analytically  !
 ! A18   A(10,4,12)            108.8739         calculate D2E/DX2 analytically  !
 ! A19   A(11,4,12)            108.5692         calculate D2E/DX2 analytically  !
 ! A20   A(1,5,13)             118.046          calculate D2E/DX2 analytically  !
 ! A21   A(1,5,14)             114.1603         calculate D2E/DX2 analytically  !
 ! A22   A(13,5,14)            121.1071         calculate D2E/DX2 analytically  !
 ! D1    D(5,1,2,3)             72.8588         calculate D2E/DX2 analytically  !
 ! D2    D(5,1,2,4)           -164.659          calculate D2E/DX2 analytically  !
 ! D3    D(5,1,2,6)            -46.8054         calculate D2E/DX2 analytically  !
 ! D4    D(2,1,5,13)            27.1079         calculate D2E/DX2 analytically  !
 ! D5    D(2,1,5,14)           178.818          calculate D2E/DX2 analytically  !
 ! D6    D(1,2,3,7)            -58.9423         calculate D2E/DX2 analytically  !
 ! D7    D(1,2,3,8)           -179.42           calculate D2E/DX2 analytically  !
 ! D8    D(1,2,3,9)             60.8621         calculate D2E/DX2 analytically  !
 ! D9    D(4,2,3,7)           -177.9276         calculate D2E/DX2 analytically  !
 ! D10   D(4,2,3,8)             61.5947         calculate D2E/DX2 analytically  !
 ! D11   D(4,2,3,9)            -58.1232         calculate D2E/DX2 analytically  !
 ! D12   D(6,2,3,7)             59.5441         calculate D2E/DX2 analytically  !
 ! D13   D(6,2,3,8)            -60.9336         calculate D2E/DX2 analytically  !
 ! D14   D(6,2,3,9)            179.3485         calculate D2E/DX2 analytically  !
 ! D15   D(1,2,4,10)           178.9155         calculate D2E/DX2 analytically  !
 ! D16   D(1,2,4,11)           -61.4664         calculate D2E/DX2 analytically  !
 ! D17   D(1,2,4,12)            58.37           calculate D2E/DX2 analytically  !
 ! D18   D(3,2,4,10)           -60.0446         calculate D2E/DX2 analytically  !
 ! D19   D(3,2,4,11)            59.5735         calculate D2E/DX2 analytically  !
 ! D20   D(3,2,4,12)           179.4098         calculate D2E/DX2 analytically  !
 ! D21   D(6,2,4,10)            62.4185         calculate D2E/DX2 analytically  !
 ! D22   D(6,2,4,11)          -177.9634         Scan                            !
 ! D23   D(6,2,4,12)           -58.1271         calculate D2E/DX2 analytically  !
 ! D24   D(1,5,13,14)          149.6658         calculate D2E/DX2 analytically  !
 --------------------------------------------------------------------------------
 Trust Radius=3.00D-01 FncErr=1.00D-07 GrdErr=1.00D-06 EigMax=2.50D+02 EigMin=1.00D-04
 Number of optimizations in scan=  37
 Number of steps in this run=     69 maximum allowed number of steps=    100.
 GradGradGradGradGradGradGradGradGradGradGradGradGradGradGradGradGradGrad

 Leave Link  103 at Tue Mar 12 00:34:38 2019, MaxMem=   671088640 cpu:               1.3 elap:               0.2
 (Enter /shared/centos7/gaussian/g16/l202.exe)
                          Input orientation:                          
 ---------------------------------------------------------------------
 Center     Atomic      Atomic             Coordinates (Angstroms)
 Number     Number       Type             X           Y           Z
 ---------------------------------------------------------------------
      1          8           0        0.760092   -0.557525   -0.332839
      2          6           0       -0.372641    0.015623    0.318147
      3          6           0       -0.578019    1.447406   -0.147263
      4          6           0       -1.554995   -0.873883   -0.002701
      5          6           0        1.961435   -0.110113    0.080228
      6          1           0       -0.179996    0.002253    1.397584
      7          1           0        0.301354    2.054184    0.063831
      8          1           0       -1.436877    1.889494    0.357011
      9          1           0       -0.758135    1.461938   -1.222578
     10          1           0       -2.453647   -0.497872    0.484582
     11          1           0       -1.723809   -0.888879   -1.079519
     12          1           0       -1.372146   -1.892692    0.333681
     13          1           0        2.045671    0.260727    1.095113
     14          1           0        2.798885   -0.574478   -0.414178
 ---------------------------------------------------------------------
                    Distance matrix (angstroms):
                    1          2          3          4          5
     1  O    0.000000
     2  C    1.426662   0.000000
     3  C    2.417587   1.519470   0.000000
     4  C    2.359810   1.513977   2.522650   0.000000
     5  C    1.346858   2.349537   2.987715   3.599375   0.000000
     6  H    2.047311   1.096574   2.152543   2.149195   2.516700
     7  H    2.681196   2.162100   1.089054   3.467569   2.727695
     8  H    3.360129   2.155343   1.089665   2.789193   3.952664
     9  H    2.678597   2.148085   1.090392   2.753025   3.400692
    10  H    3.316603   2.149876   2.775124   1.089222   4.450484
    11  H    2.614783   2.144120   2.764084   1.090073   3.941130
    12  H    2.602568   2.154279   3.466727   1.088374   3.788745
    13  H    2.088371   2.551858   3.136152   3.931581   1.083793
    14  H    2.040486   3.308035   3.944964   4.383518   1.077681
                    6          7          8          9         10
     6  H    0.000000
     7  H    2.494197   0.000000
     8  H    2.494839   1.770458   0.000000
     9  H    3.054534   1.768649   1.771608   0.000000
    10  H    2.500638   3.778896   2.598002   3.103226   0.000000
    11  H    3.051805   3.751021   3.140909   2.545453   1.769736
    12  H    2.478695   4.295492   3.782812   3.748665   1.771423
    13  H    2.260949   2.706044   3.914819   3.830917   4.603486
    14  H    3.533955   3.657325   4.960602   4.177667   5.329422
                   11         12         13         14
    11  H    0.000000
    12  H    1.768740   0.000000
    13  H    4.501065   4.110774   0.000000
    14  H    4.582171   4.437847   1.882248   0.000000
 Stoichiometry    C4H9O(2)
 Framework group  C1[X(C4H9O)]
 Deg. of freedom    36
 Full point group                 C1      NOp   1
 Largest Abelian subgroup         C1      NOp   1
 Largest concise Abelian subgroup C1      NOp   1
                         Standard orientation:                         
 ---------------------------------------------------------------------
 Center     Atomic      Atomic             Coordinates (Angstroms)
 Number     Number       Type             X           Y           Z
 ---------------------------------------------------------------------
      1          8           0        0.766002   -0.550062   -0.335243
      2          6           0       -0.372487    0.002651    0.323328
      3          6           0       -0.600018    1.434252   -0.132235
      4          6           0       -1.543119   -0.901681    0.000948
      5          6           0        1.962283   -0.088080    0.076472
      6          1           0       -0.175808   -0.014773    1.401980
      7          1           0        0.271323    2.052238    0.079650
      8          1           0       -1.463309    1.860779    0.377837
      9          1           0       -0.784172    1.452992   -1.206801
     10          1           0       -2.445316   -0.541688    0.493748
     11          1           0       -1.715554   -0.912294   -1.075348
     12          1           0       -1.344492   -1.919867    0.330195
     13          1           0        2.044831    0.277511    1.093398
     14          1           0        2.804525   -0.537250   -0.423800
 ---------------------------------------------------------------------
 Rotational constants (GHZ):           7.8722109           4.0196546           2.9672803
 Leave Link  202 at Tue Mar 12 00:34:38 2019, MaxMem=   671088640 cpu:               0.2 elap:               0.0
 (Enter /shared/centos7/gaussian/g16/l301.exe)
 Standard basis: 6-311+G(2df,2p) (5D, 7F)
 Ernie: Thresh=  0.10000D-02 Tol=  0.10000D-05 Strict=F.
 There are   276 symmetry adapted cartesian basis functions of A   symmetry.
 There are   251 symmetry adapted basis functions of A   symmetry.
   251 basis functions,   359 primitive gaussians,   276 cartesian basis functions
    21 alpha electrons       20 beta electrons
       nuclear repulsion energy       188.6762691400 Hartrees.
 IExCor= 4336 DFT=T Ex+Corr=M062X ExCW=0 ScaHFX=  0.540000
 ScaDFX=  1.000000  1.000000  1.000000  1.000000 ScalE2=  1.000000  1.000000
 IRadAn=      5 IRanWt=     -1 IRanGd=            0 ICorTp=0 IEmpDi=  4
 NAtoms=   14 NActive=   14 NUniq=   14 SFac= 1.00D+00 NAtFMM=   60 NAOKFM=F Big=F
 Integral buffers will be    131072 words long.
 Raffenetti 2 integral format.
 Two-electron integral symmetry is turned on.
 Leave Link  301 at Tue Mar 12 00:34:39 2019, MaxMem=   671088640 cpu:               1.3 elap:               0.1
 (Enter /shared/centos7/gaussian/g16/l302.exe)
 NPDir=0 NMtPBC=     1 NCelOv=     1 NCel=       1 NClECP=     1 NCelD=      1
         NCelK=      1 NCelE2=     1 NClLst=     1 CellRange=     0.0.
 One-electron integrals computed using PRISM.
 One-electron integral symmetry used in STVInt
 NBasis=   251 RedAO= T EigKep=  4.68D-05  NBF=   251
 NBsUse=   251 1.00D-06 EigRej= -1.00D+00 NBFU=   251
 Precomputing XC quadrature grid using
 IXCGrd= 4 IRadAn=           5 IRanWt=          -1 IRanGd=           0 AccXCQ= 0.00D+00.
 Generated NRdTot=       0 NPtTot=           0 NUsed=           0 NTot=          32
 NSgBfM=   276   276   276   276   276 MxSgAt=    14 MxSgA2=    14.
 Leave Link  302 at Tue Mar 12 00:34:39 2019, MaxMem=   671088640 cpu:               7.7 elap:               0.4
 (Enter /shared/centos7/gaussian/g16/l303.exe)
 DipDrv:  MaxL=1.
 Leave Link  303 at Tue Mar 12 00:34:39 2019, MaxMem=   671088640 cpu:               0.8 elap:               0.1
 (Enter /shared/centos7/gaussian/g16/l401.exe)
 ExpMin= 4.38D-02 ExpMax= 8.59D+03 ExpMxC= 1.30D+03 IAcc=3 IRadAn=         5 AccDes= 0.00D+00
 Harris functional with IExCor= 1009 and IRadAn=       5 diagonalized for initial guess.
 HarFok:  IExCor= 1009 AccDes= 0.00D+00 IRadAn=         5 IDoV= 1 UseB2=F ITyADJ=14
 ICtDFT=  3500011 ScaDFX=  1.000000  1.000000  1.000000  1.000000
 FoFCou: FMM=F IPFlag=           0 FMFlag=      100000 FMFlg1=           0
         NFxFlg=           0 DoJE=T BraDBF=F KetDBF=T FulRan=T
         wScrn=  0.000000 ICntrl=       500 IOpCl=  0 I1Cent=   200000004 NGrid=           0
         NMat0=    1 NMatS0=      1 NMatT0=    0 NMatD0=    1 NMtDS0=    0 NMtDT0=    0
 Petite list used in FoFCou.
 Harris En= -232.888725005029    
 JPrj=0 DoOrth=F DoCkMO=F.
 Initial guess <Sx>= 0.0000 <Sy>= 0.0000 <Sz>= 0.5000 <S**2>= 0.7500 S= 0.5000
 Leave Link  401 at Tue Mar 12 00:34:40 2019, MaxMem=   671088640 cpu:              24.1 elap:               1.2
 (Enter /shared/centos7/gaussian/g16/l502.exe)
 Integral symmetry usage will be decided dynamically.
 UHF open shell SCF:
 Using DIIS extrapolation, IDIIS=  1040.
 NGot=   671088640 LenX=   670928170 LenY=   670851553
 Requested convergence on RMS density matrix=1.00D-08 within 128 cycles.
 Requested convergence on MAX density matrix=1.00D-06.
 Requested convergence on             energy=1.00D-06.
 No special actions if energy rises.
 Fock matrices will be formed incrementally for  20 cycles.

 Cycle   1  Pass 1  IDiag  1:
 FoFJK:  IHMeth= 1 ICntrl=       0 DoSepK=F KAlg= 0 I1Cent=           0 FoldK=F
 IRaf= 990000000 NMat=       1 IRICut=       1 DoRegI=T DoRafI=F ISym2E= 0 IDoP0=0 IntGTp=1.
 FoFCou: FMM=F IPFlag=           0 FMFlag=      100000 FMFlg1=           0
         NFxFlg=           0 DoJE=F BraDBF=F KetDBF=F FulRan=T
         wScrn=  0.000000 ICntrl=         0 IOpCl=  1 I1Cent=           0 NGrid=           0
         NMat0=    1 NMatS0=      1 NMatT0=    0 NMatD0=    1 NMtDS0=    0 NMtDT0=    0
 Symmetry not used in FoFCou.
 E= -232.782538775263    
 DIIS: error= 2.02D-02 at cycle   1 NSaved=   1.
 NSaved= 1 IEnMin= 1 EnMin= -232.782538775263     IErMin= 1 ErrMin= 2.02D-02
 ErrMax= 2.02D-02  0.00D+00 EMaxC= 1.00D-01 BMatC= 8.50D-01 BMatP= 8.50D-01
 IDIUse=3 WtCom= 7.98D-01 WtEn= 2.02D-01
 Coeff-Com:  0.100D+01
 Coeff-En:   0.100D+01
 Coeff:      0.100D+01
 Gap=     0.226 Goal=   None    Shift=    0.000
 Gap=     0.401 Goal=   None    Shift=    0.000
 GapD=    0.226 DampG=1.000 DampE=0.500 DampFc=0.5000 IDamp=-1.
 Damping current iteration by 5.00D-01
 RMSDP=2.26D-03 MaxDP=1.14D-01              OVMax= 1.46D-01

 Cycle   2  Pass 1  IDiag  1:
 RMSU=  1.10D-03    CP:  9.72D-01
 E= -232.878535419307     Delta-E=       -0.095996644044 Rises=F Damp=T
 DIIS: error= 6.16D-03 at cycle   2 NSaved=   2.
 NSaved= 2 IEnMin= 2 EnMin= -232.878535419307     IErMin= 2 ErrMin= 6.16D-03
 ErrMax= 6.16D-03  0.00D+00 EMaxC= 1.00D-01 BMatC= 5.79D-02 BMatP= 8.50D-01
 IDIUse=3 WtCom= 9.38D-01 WtEn= 6.16D-02
 Coeff-Com: -0.162D+00 0.116D+01
 Coeff-En:   0.000D+00 0.100D+01
 Coeff:     -0.152D+00 0.115D+01
 Gap=     0.243 Goal=   None    Shift=    0.000
 Gap=     0.408 Goal=   None    Shift=    0.000
 RMSDP=9.20D-04 MaxDP=4.92D-02 DE=-9.60D-02 OVMax= 6.84D-02

 Cycle   3  Pass 1  IDiag  1:
 RMSU=  8.96D-04    CP:  9.61D-01  1.17D+00
 E= -232.963770687660     Delta-E=       -0.085235268352 Rises=F Damp=F
 DIIS: error= 2.73D-03 at cycle   3 NSaved=   3.
 NSaved= 3 IEnMin= 3 EnMin= -232.963770687660     IErMin= 3 ErrMin= 2.73D-03
 ErrMax= 2.73D-03  0.00D+00 EMaxC= 1.00D-01 BMatC= 4.88D-03 BMatP= 5.79D-02
 IDIUse=3 WtCom= 9.73D-01 WtEn= 2.73D-02
 Coeff-Com: -0.666D-01 0.214D+00 0.852D+00
 Coeff-En:   0.000D+00 0.000D+00 0.100D+01
 Coeff:     -0.648D-01 0.208D+00 0.856D+00
 Gap=     0.246 Goal=   None    Shift=    0.000
 Gap=     0.361 Goal=   None    Shift=    0.000
 RMSDP=1.72D-04 MaxDP=7.45D-03 DE=-8.52D-02 OVMax= 1.01D-02

 Cycle   4  Pass 1  IDiag  1:
 RMSU=  1.54D-04    CP:  9.57D-01  1.22D+00  1.02D+00
 E= -232.964819638822     Delta-E=       -0.001048951163 Rises=F Damp=F
 DIIS: error= 1.13D-03 at cycle   4 NSaved=   4.
 NSaved= 4 IEnMin= 4 EnMin= -232.964819638822     IErMin= 4 ErrMin= 1.13D-03
 ErrMax= 1.13D-03  0.00D+00 EMaxC= 1.00D-01 BMatC= 1.16D-03 BMatP= 4.88D-03
 IDIUse=3 WtCom= 9.89D-01 WtEn= 1.13D-02
 Coeff-Com: -0.197D-01 0.474D-01 0.359D+00 0.614D+00
 Coeff-En:   0.000D+00 0.000D+00 0.000D+00 0.100D+01
 Coeff:     -0.194D-01 0.469D-01 0.355D+00 0.618D+00
 Gap=     0.245 Goal=   None    Shift=    0.000
 Gap=     0.366 Goal=   None    Shift=    0.000
 RMSDP=5.90D-05 MaxDP=3.48D-03 DE=-1.05D-03 OVMax= 1.01D-02

 Cycle   5  Pass 1  IDiag  1:
 RMSU=  4.94D-05    CP:  9.58D-01  1.22D+00  1.03D+00  8.11D-01
 E= -232.965109859808     Delta-E=       -0.000290220985 Rises=F Damp=F
 DIIS: error= 3.63D-04 at cycle   5 NSaved=   5.
 NSaved= 5 IEnMin= 5 EnMin= -232.965109859808     IErMin= 5 ErrMin= 3.63D-04
 ErrMax= 3.63D-04  0.00D+00 EMaxC= 1.00D-01 BMatC= 1.81D-04 BMatP= 1.16D-03
 IDIUse=3 WtCom= 9.96D-01 WtEn= 3.63D-03
 Coeff-Com:  0.188D-02-0.117D-01 0.252D-01 0.260D+00 0.725D+00
 Coeff-En:   0.000D+00 0.000D+00 0.000D+00 0.000D+00 0.100D+01
 Coeff:      0.187D-02-0.116D-01 0.251D-01 0.259D+00 0.726D+00
 Gap=     0.245 Goal=   None    Shift=    0.000
 Gap=     0.366 Goal=   None    Shift=    0.000
 RMSDP=3.01D-05 MaxDP=1.21D-03 DE=-2.90D-04 OVMax= 3.44D-03

 Cycle   6  Pass 1  IDiag  1:
 RMSU=  2.31D-05    CP:  9.58D-01  1.22D+00  1.04D+00  9.10D-01  1.21D+00
 E= -232.965167854202     Delta-E=       -0.000057994394 Rises=F Damp=F
 DIIS: error= 1.68D-04 at cycle   6 NSaved=   6.
 NSaved= 6 IEnMin= 6 EnMin= -232.965167854202     IErMin= 6 ErrMin= 1.68D-04
 ErrMax= 1.68D-04  0.00D+00 EMaxC= 1.00D-01 BMatC= 2.64D-05 BMatP= 1.81D-04
 IDIUse=3 WtCom= 9.98D-01 WtEn= 1.68D-03
 Coeff-Com:  0.516D-02-0.133D-01-0.793D-01-0.415D-01 0.121D+00 0.101D+01
 Coeff-En:   0.000D+00 0.000D+00 0.000D+00 0.000D+00 0.000D+00 0.100D+01
 Coeff:      0.515D-02-0.133D-01-0.792D-01-0.414D-01 0.120D+00 0.101D+01
 Gap=     0.247 Goal=   None    Shift=    0.000
 Gap=     0.366 Goal=   None    Shift=    0.000
 RMSDP=2.48D-05 MaxDP=1.26D-03 DE=-5.80D-05 OVMax= 4.24D-03

 Cycle   7  Pass 1  IDiag  1:
 RMSU=  1.25D-05    CP:  9.58D-01  1.22D+00  1.04D+00  9.96D-01  1.48D+00
                    CP:  1.42D+00
 E= -232.965189545035     Delta-E=       -0.000021690833 Rises=F Damp=F
 DIIS: error= 8.42D-05 at cycle   7 NSaved=   7.
 NSaved= 7 IEnMin= 7 EnMin= -232.965189545035     IErMin= 7 ErrMin= 8.42D-05
 ErrMax= 8.42D-05  0.00D+00 EMaxC= 1.00D-01 BMatC= 1.18D-05 BMatP= 2.64D-05
 IDIUse=1 WtCom= 1.00D+00 WtEn= 0.00D+00
 Coeff-Com:  0.116D-02-0.153D-02-0.386D-01-0.823D-01-0.215D+00 0.461D+00
 Coeff-Com:  0.875D+00
 Coeff:      0.116D-02-0.153D-02-0.386D-01-0.823D-01-0.215D+00 0.461D+00
 Coeff:      0.875D+00
 Gap=     0.247 Goal=   None    Shift=    0.000
 Gap=     0.366 Goal=   None    Shift=    0.000
 RMSDP=1.43D-05 MaxDP=7.61D-04 DE=-2.17D-05 OVMax= 2.38D-03

 Cycle   8  Pass 1  IDiag  1:
 RMSU=  5.48D-06    CP:  9.58D-01  1.21D+00  1.04D+00  1.03D+00  1.62D+00
                    CP:  1.80D+00  1.29D+00
 E= -232.965195725364     Delta-E=       -0.000006180329 Rises=F Damp=F
 DIIS: error= 2.57D-05 at cycle   8 NSaved=   8.
 NSaved= 8 IEnMin= 8 EnMin= -232.965195725364     IErMin= 8 ErrMin= 2.57D-05
 ErrMax= 2.57D-05  0.00D+00 EMaxC= 1.00D-01 BMatC= 6.03D-07 BMatP= 1.18D-05
 IDIUse=1 WtCom= 1.00D+00 WtEn= 0.00D+00
 Coeff-Com: -0.843D-03 0.216D-02 0.959D-02 0.522D-02-0.362D-01-0.100D+00
 Coeff-Com:  0.444D-01 0.108D+01
 Coeff:     -0.843D-03 0.216D-02 0.959D-02 0.522D-02-0.362D-01-0.100D+00
 Coeff:      0.444D-01 0.108D+01
 Gap=     0.247 Goal=   None    Shift=    0.000
 Gap=     0.366 Goal=   None    Shift=    0.000
 RMSDP=4.83D-06 MaxDP=2.48D-04 DE=-6.18D-06 OVMax= 6.77D-04

 Cycle   9  Pass 1  IDiag  1:
 RMSU=  2.19D-06    CP:  9.58D-01  1.21D+00  1.04D+00  1.04D+00  1.64D+00
                    CP:  1.93D+00  1.48D+00  1.27D+00
 E= -232.965196187470     Delta-E=       -0.000000462106 Rises=F Damp=F
 DIIS: error= 8.20D-06 at cycle   9 NSaved=   9.
 NSaved= 9 IEnMin= 9 EnMin= -232.965196187470     IErMin= 9 ErrMin= 8.20D-06
 ErrMax= 8.20D-06  0.00D+00 EMaxC= 1.00D-01 BMatC= 9.54D-08 BMatP= 6.03D-07
 IDIUse=1 WtCom= 1.00D+00 WtEn= 0.00D+00
 Coeff-Com: -0.367D-03 0.782D-03 0.769D-02 0.125D-01 0.170D-01-0.864D-01
 Coeff-Com: -0.101D+00 0.282D+00 0.869D+00
 Coeff:     -0.367D-03 0.782D-03 0.769D-02 0.125D-01 0.170D-01-0.864D-01
 Coeff:     -0.101D+00 0.282D+00 0.869D+00
 Gap=     0.247 Goal=   None    Shift=    0.000
 Gap=     0.366 Goal=   None    Shift=    0.000
 RMSDP=1.20D-06 MaxDP=4.57D-05 DE=-4.62D-07 OVMax= 1.64D-04

 Cycle  10  Pass 1  IDiag  1:
 RMSU=  6.70D-07    CP:  9.58D-01  1.21D+00  1.04D+00  1.04D+00  1.64D+00
                    CP:  1.94D+00  1.52D+00  1.39D+00  1.08D+00
 E= -232.965196232512     Delta-E=       -0.000000045042 Rises=F Damp=F
 DIIS: error= 2.41D-06 at cycle  10 NSaved=  10.
 NSaved=10 IEnMin=10 EnMin= -232.965196232512     IErMin=10 ErrMin= 2.41D-06
 ErrMax= 2.41D-06  0.00D+00 EMaxC= 1.00D-01 BMatC= 1.03D-08 BMatP= 9.54D-08
 IDIUse=1 WtCom= 1.00D+00 WtEn= 0.00D+00
 Coeff-Com:  0.467D-04-0.122D-03 0.432D-03 0.218D-02 0.636D-02-0.450D-02
 Coeff-Com: -0.236D-01-0.618D-01 0.163D+00 0.918D+00
 Coeff:      0.467D-04-0.122D-03 0.432D-03 0.218D-02 0.636D-02-0.450D-02
 Coeff:     -0.236D-01-0.618D-01 0.163D+00 0.918D+00
 Gap=     0.247 Goal=   None    Shift=    0.000
 Gap=     0.366 Goal=   None    Shift=    0.000
 RMSDP=3.96D-07 MaxDP=1.86D-05 DE=-4.50D-08 OVMax= 3.70D-05

 Cycle  11  Pass 1  IDiag  1:
 RMSU=  2.33D-07    CP:  9.58D-01  1.22D+00  1.04D+00  1.04D+00  1.64D+00
                    CP:  1.95D+00  1.52D+00  1.41D+00  1.17D+00  1.22D+00
 E= -232.965196236888     Delta-E=       -0.000000004376 Rises=F Damp=F
 DIIS: error= 9.18D-07 at cycle  11 NSaved=  11.
 NSaved=11 IEnMin=11 EnMin= -232.965196236888     IErMin=11 ErrMin= 9.18D-07
 ErrMax= 9.18D-07  0.00D+00 EMaxC= 1.00D-01 BMatC= 1.56D-09 BMatP= 1.03D-08
 IDIUse=1 WtCom= 1.00D+00 WtEn= 0.00D+00
 Coeff-Com:  0.619D-04-0.137D-03-0.940D-03-0.108D-02-0.134D-02 0.111D-01
 Coeff-Com:  0.804D-02-0.533D-01-0.902D-01 0.224D+00 0.903D+00
 Coeff:      0.619D-04-0.137D-03-0.940D-03-0.108D-02-0.134D-02 0.111D-01
 Coeff:      0.804D-02-0.533D-01-0.902D-01 0.224D+00 0.903D+00
 Gap=     0.247 Goal=   None    Shift=    0.000
 Gap=     0.366 Goal=   None    Shift=    0.000
 RMSDP=1.36D-07 MaxDP=5.46D-06 DE=-4.38D-09 OVMax= 1.23D-05

 Cycle  12  Pass 1  IDiag  1:
 RMSU=  8.24D-08    CP:  9.58D-01  1.22D+00  1.04D+00  1.04D+00  1.64D+00
                    CP:  1.95D+00  1.52D+00  1.41D+00  1.20D+00  1.34D+00
                    CP:  1.11D+00
 E= -232.965196237523     Delta-E=       -0.000000000635 Rises=F Damp=F
 DIIS: error= 2.19D-07 at cycle  12 NSaved=  12.
 NSaved=12 IEnMin=12 EnMin= -232.965196237523     IErMin=12 ErrMin= 2.19D-07
 ErrMax= 2.19D-07  0.00D+00 EMaxC= 1.00D-01 BMatC= 7.45D-11 BMatP= 1.56D-09
 IDIUse=1 WtCom= 1.00D+00 WtEn= 0.00D+00
 Coeff-Com: -0.227D-05 0.360D-05-0.866D-04-0.174D-03-0.546D-03 0.109D-02
 Coeff-Com:  0.199D-02 0.197D-02-0.203D-01-0.612D-01 0.398D-01 0.104D+01
 Coeff:     -0.227D-05 0.360D-05-0.866D-04-0.174D-03-0.546D-03 0.109D-02
 Coeff:      0.199D-02 0.197D-02-0.203D-01-0.612D-01 0.398D-01 0.104D+01
 Gap=     0.247 Goal=   None    Shift=    0.000
 Gap=     0.366 Goal=   None    Shift=    0.000
 RMSDP=4.75D-08 MaxDP=1.95D-06 DE=-6.35D-10 OVMax= 3.23D-06

 Cycle  13  Pass 1  IDiag  1:
 RMSU=  2.71D-08    CP:  9.58D-01  1.22D+00  1.04D+00  1.04D+00  1.64D+00
                    CP:  1.95D+00  1.52D+00  1.41D+00  1.20D+00  1.36D+00
                    CP:  1.19D+00  1.25D+00
 E= -232.965196237564     Delta-E=       -0.000000000041 Rises=F Damp=F
 DIIS: error= 7.07D-08 at cycle  13 NSaved=  13.
 NSaved=13 IEnMin=13 EnMin= -232.965196237564     IErMin=13 ErrMin= 7.07D-08
 ErrMax= 7.07D-08  0.00D+00 EMaxC= 1.00D-01 BMatC= 7.69D-12 BMatP= 7.45D-11
 IDIUse=1 WtCom= 1.00D+00 WtEn= 0.00D+00
 Coeff-Com: -0.408D-05 0.873D-05 0.375D-04 0.359D-04-0.350D-05-0.468D-03
 Coeff-Com: -0.902D-04 0.346D-02 0.197D-02-0.249D-01-0.526D-01 0.206D+00
 Coeff-Com:  0.867D+00
 Coeff:     -0.408D-05 0.873D-05 0.375D-04 0.359D-04-0.350D-05-0.468D-03
 Coeff:     -0.902D-04 0.346D-02 0.197D-02-0.249D-01-0.526D-01 0.206D+00
 Coeff:      0.867D+00
 Gap=     0.247 Goal=   None    Shift=    0.000
 Gap=     0.366 Goal=   None    Shift=    0.000
 RMSDP=1.02D-08 MaxDP=2.99D-07 DE=-4.10D-11 OVMax= 8.35D-07

 Cycle  14  Pass 1  IDiag  1:
 RMSU=  6.79D-09    CP:  9.58D-01  1.22D+00  1.04D+00  1.04D+00  1.64D+00
                    CP:  1.95D+00  1.52D+00  1.41D+00  1.20D+00  1.37D+00
                    CP:  1.20D+00  1.32D+00  1.08D+00
 E= -232.965196237567     Delta-E=       -0.000000000003 Rises=F Damp=F
 DIIS: error= 3.10D-08 at cycle  14 NSaved=  14.
 NSaved=14 IEnMin=14 EnMin= -232.965196237567     IErMin=14 ErrMin= 3.10D-08
 ErrMax= 3.10D-08  0.00D+00 EMaxC= 1.00D-01 BMatC= 1.39D-12 BMatP= 7.69D-12
 IDIUse=1 WtCom= 1.00D+00 WtEn= 0.00D+00
 Coeff-Com: -0.841D-06 0.207D-05 0.190D-04 0.255D-04 0.432D-04-0.237D-03
 Coeff-Com: -0.214D-03 0.772D-03 0.278D-02-0.849D-03-0.211D-01-0.558D-01
 Coeff-Com:  0.258D+00 0.816D+00
 Coeff:     -0.841D-06 0.207D-05 0.190D-04 0.255D-04 0.432D-04-0.237D-03
 Coeff:     -0.214D-03 0.772D-03 0.278D-02-0.849D-03-0.211D-01-0.558D-01
 Coeff:      0.258D+00 0.816D+00
 Gap=     0.247 Goal=   None    Shift=    0.000
 Gap=     0.366 Goal=   None    Shift=    0.000
 RMSDP=3.84D-09 MaxDP=1.64D-07 DE=-2.84D-12 OVMax= 2.62D-07

 SCF Done:  E(UM062X) =  -232.965196238     A.U. after   14 cycles
            NFock= 14  Conv=0.38D-08     -V/T= 2.0039
 <Sx>= 0.0000 <Sy>= 0.0000 <Sz>= 0.5000 <S**2>= 0.7546 S= 0.5023
 <L.S>= 0.000000000000E+00
 KE= 2.320590619825D+02 PE=-9.200635990089D+02 EE= 2.663630716489D+02
 Annihilation of the first spin contaminant:
 S**2 before annihilation     0.7546,   after     0.7500
 Leave Link  502 at Tue Mar 12 00:36:03 2019, MaxMem=   671088640 cpu:            1652.5 elap:              82.7
 (Enter /shared/centos7/gaussian/g16/l801.exe)
 DoSCS=F DFT=T ScalE2(SS,OS)=  1.000000  1.000000
 Range of M.O.s used for correlation:     1   251
 NBasis=   251 NAE=    21 NBE=    20 NFC=     0 NFV=     0
 NROrb=    251 NOA=    21 NOB=    20 NVA=   230 NVB=   231

 **** Warning!!: The largest alpha MO coefficient is  0.37601532D+02


 **** Warning!!: The largest beta MO coefficient is  0.42477204D+02

 Leave Link  801 at Tue Mar 12 00:36:03 2019, MaxMem=   671088640 cpu:               0.6 elap:               0.1
 (Enter /shared/centos7/gaussian/g16/l1101.exe)
 Using compressed storage, NAtomX=    14.
 Will process     15 centers per pass.
 Leave Link 1101 at Tue Mar 12 00:36:04 2019, MaxMem=   671088640 cpu:               9.7 elap:               0.5
 (Enter /shared/centos7/gaussian/g16/l1102.exe)
 Symmetrizing basis deriv contribution to polar:
 IMax=3 JMax=2 DiffMx= 0.00D+00
 Leave Link 1102 at Tue Mar 12 00:36:04 2019, MaxMem=   671088640 cpu:               0.6 elap:               0.1
 (Enter /shared/centos7/gaussian/g16/l1110.exe)
 Forming Gx(P) for the SCF density, NAtomX=    14.
 Integral derivatives from FoFJK, PRISM(SPDF).
 Do as many integral derivatives as possible in FoFJK.
 G2DrvN: MDV=     671087496.
 G2DrvN: will do    15 centers at a time, making    1 passes.
 Calling FoFCou, ICntrl=  3107 FMM=F I1Cent=   0 AccDes= 0.00D+00.
 FoFJK:  IHMeth= 1 ICntrl=    3107 DoSepK=F KAlg= 0 I1Cent=           0 FoldK=F
 IRaf=         0 NMat=       1 IRICut=       1 DoRegI=T DoRafI=F ISym2E= 0 IDoP0=0 IntGTp=1.
 FoFCou: FMM=F IPFlag=           0 FMFlag=      100000 FMFlg1=           0
         NFxFlg=           0 DoJE=F BraDBF=F KetDBF=F FulRan=T
         wScrn=  0.000000 ICntrl=      3107 IOpCl=  1 I1Cent=           0 NGrid=           0
         NMat0=    1 NMatS0=      1 NMatT0=    0 NMatD0=    1 NMtDS0=    0 NMtDT0=    0
 Symmetry not used in FoFCou.
 End of G2Drv F.D. properties file   721 does not exist.
 End of G2Drv F.D. properties file   722 does not exist.
 End of G2Drv F.D. properties file   788 does not exist.
 Leave Link 1110 at Tue Mar 12 00:38:34 2019, MaxMem=   671088640 cpu:            3007.5 elap:             150.4
 (Enter /shared/centos7/gaussian/g16/l1002.exe)
 Minotr:  UHF open shell wavefunction.
          IDoAtm=11111111111111
          Direct CPHF calculation.
          Differentiating once with respect to nuclear coordinates.
          Requested convergence is 1.0D-08 RMS, and 1.0D-07 maximum.
          Secondary convergence is 1.0D-12 RMS, and 1.0D-12 maximum.
          NewPWx=T KeepS1=F KeepF1=F KeepIn=T MapXYZ=F SortEE=F KeepMc=T.
         4257 words used for storage of precomputed grid.
 Two-electron integrals replicated using symmetry.
          MDV=     671088640 using IRadAn=       1.
          Solving linear equations simultaneously, MaxMat=     380.
 FoF2E skips out because all densities are zero.
 CalDSu exits because no D1Ps are significant.
 FoFJK:  IHMeth= 1 ICntrl=       0 DoSepK=F KAlg= 0 I1Cent=           0 FoldK=F
 IRaf= 980000000 NMat=      42 IRICut=     105 DoRegI=T DoRafI=T ISym2E= 2 IDoP0=3 IntGTp=3.
 FoFCou: FMM=F IPFlag=           0 FMFlag=      100000 FMFlg1=           0
         NFxFlg=           0 DoJE=F BraDBF=F KetDBF=F FulRan=T
         wScrn=  0.000000 ICntrl=         0 IOpCl=  1 I1Cent=           0 NGrid=           0
         NMat0=   42 NMatS0=     42 NMatT0=    0 NMatD0=   42 NMtDS0=    0 NMtDT0=    0
 Integrals replicated using symmetry in FoFCou.
 Raff kept on since  96.53% of shell-pairs survive, threshold=   0.20 IRatSp=97.
          There are    45 degrees of freedom in the 1st order CPHF.  IDoFFX=6 NUNeed=     0.
     39 vectors produced by pass  0 Test12= 2.10D-14 2.22D-09 XBig12= 1.55D-01 5.71D-02.
 AX will form    39 AO Fock derivatives at one time.
     39 vectors produced by pass  1 Test12= 2.10D-14 2.22D-09 XBig12= 1.10D-02 1.67D-02.
     39 vectors produced by pass  2 Test12= 2.10D-14 2.22D-09 XBig12= 5.42D-04 5.25D-03.
     39 vectors produced by pass  3 Test12= 2.10D-14 2.22D-09 XBig12= 7.53D-06 3.58D-04.
     39 vectors produced by pass  4 Test12= 2.10D-14 2.22D-09 XBig12= 1.03D-07 3.69D-05.
     39 vectors produced by pass  5 Test12= 2.10D-14 2.22D-09 XBig12= 1.41D-09 3.21D-06.
     37 vectors produced by pass  6 Test12= 2.10D-14 2.22D-09 XBig12= 1.09D-11 3.12D-07.
     12 vectors produced by pass  7 Test12= 2.10D-14 2.22D-09 XBig12= 7.92D-14 2.95D-08.
 InvSVY:  IOpt=1 It=  1 EMax= 1.55D-15
 Solved reduced A of dimension   283 with    39 vectors.
 End of Minotr F.D. properties file   721 does not exist.
 End of Minotr F.D. properties file   722 does not exist.
 End of Minotr F.D. properties file   788 does not exist.
 Leave Link 1002 at Tue Mar 12 00:42:39 2019, MaxMem=   671088640 cpu:            4899.6 elap:             245.0
 (Enter /shared/centos7/gaussian/g16/l601.exe)
 Copying SCF densities to generalized density rwf, IOpCl= 1 IROHF=0.

 **********************************************************************

            Population analysis using the SCF density.

 **********************************************************************

 Orbital symmetries:
 Alpha Orbitals:
       Occupied  (A) (A) (A) (A) (A) (A) (A) (A) (A) (A) (A) (A)
                 (A) (A) (A) (A) (A) (A) (A) (A) (A)
       Virtual   (A) (A) (A) (A) (A) (A) (A) (A) (A) (A) (A) (A)
                 (A) (A) (A) (A) (A) (A) (A) (A) (A) (A) (A) (A)
                 (A) (A) (A) (A) (A) (A) (A) (A) (A) (A) (A) (A)
                 (A) (A) (A) (A) (A) (A) (A) (A) (A) (A) (A) (A)
                 (A) (A) (A) (A) (A) (A) (A) (A) (A) (A) (A) (A)
                 (A) (A) (A) (A) (A) (A) (A) (A) (A) (A) (A) (A)
                 (A) (A) (A) (A) (A) (A) (A) (A) (A) (A) (A) (A)
                 (A) (A) (A) (A) (A) (A) (A) (A) (A) (A) (A) (A)
                 (A) (A) (A) (A) (A) (A) (A) (A) (A) (A) (A) (A)
                 (A) (A) (A) (A) (A) (A) (A) (A) (A) (A) (A) (A)
                 (A) (A) (A) (A) (A) (A) (A) (A) (A) (A) (A) (A)
                 (A) (A) (A) (A) (A) (A) (A) (A) (A) (A) (A) (A)
                 (A) (A) (A) (A) (A) (A) (A) (A) (A) (A) (A) (A)
                 (A) (A) (A) (A) (A) (A) (A) (A) (A) (A) (A) (A)
                 (A) (A) (A) (A) (A) (A) (A) (A) (A) (A) (A) (A)
                 (A) (A) (A) (A) (A) (A) (A) (A) (A) (A) (A) (A)
                 (A) (A) (A) (A) (A) (A) (A) (A) (A) (A) (A) (A)
                 (A) (A) (A) (A) (A) (A) (A) (A) (A) (A) (A) (A)
                 (A) (A) (A) (A) (A) (A) (A) (A) (A) (A) (A) (A)
                 (A) (A)
 Beta  Orbitals:
       Occupied  (A) (A) (A) (A) (A) (A) (A) (A) (A) (A) (A) (A)
                 (A) (A) (A) (A) (A) (A) (A) (A)
       Virtual   (A) (A) (A) (A) (A) (A) (A) (A) (A) (A) (A) (A)
                 (A) (A) (A) (A) (A) (A) (A) (A) (A) (A) (A) (A)
                 (A) (A) (A) (A) (A) (A) (A) (A) (A) (A) (A) (A)
                 (A) (A) (A) (A) (A) (A) (A) (A) (A) (A) (A) (A)
                 (A) (A) (A) (A) (A) (A) (A) (A) (A) (A) (A) (A)
                 (A) (A) (A) (A) (A) (A) (A) (A) (A) (A) (A) (A)
                 (A) (A) (A) (A) (A) (A) (A) (A) (A) (A) (A) (A)
                 (A) (A) (A) (A) (A) (A) (A) (A) (A) (A) (A) (A)
                 (A) (A) (A) (A) (A) (A) (A) (A) (A) (A) (A) (A)
                 (A) (A) (A) (A) (A) (A) (A) (A) (A) (A) (A) (A)
                 (A) (A) (A) (A) (A) (A) (A) (A) (A) (A) (A) (A)
                 (A) (A) (A) (A) (A) (A) (A) (A) (A) (A) (A) (A)
                 (A) (A) (A) (A) (A) (A) (A) (A) (A) (A) (A) (A)
                 (A) (A) (A) (A) (A) (A) (A) (A) (A) (A) (A) (A)
                 (A) (A) (A) (A) (A) (A) (A) (A) (A) (A) (A) (A)
                 (A) (A) (A) (A) (A) (A) (A) (A) (A) (A) (A) (A)
                 (A) (A) (A) (A) (A) (A) (A) (A) (A) (A) (A) (A)
                 (A) (A) (A) (A) (A) (A) (A) (A) (A) (A) (A) (A)
                 (A) (A) (A) (A) (A) (A) (A) (A) (A) (A) (A) (A)
                 (A) (A) (A)
 The electronic state is 2-A.
 Alpha  occ. eigenvalues --  -19.65166 -10.59644 -10.57371 -10.52745 -10.52698
 Alpha  occ. eigenvalues --   -1.19238  -0.89547  -0.79167  -0.75655  -0.67270
 Alpha  occ. eigenvalues --   -0.57916  -0.55713  -0.54382  -0.49707  -0.46289
 Alpha  occ. eigenvalues --   -0.45780  -0.44411  -0.42241  -0.40123  -0.38859
 Alpha  occ. eigenvalues --   -0.22851
 Alpha virt. eigenvalues --    0.01819   0.03467   0.03655   0.03926   0.05867
 Alpha virt. eigenvalues --    0.06590   0.07257   0.07655   0.08314   0.10053
 Alpha virt. eigenvalues --    0.10606   0.11776   0.12702   0.13169   0.13832
 Alpha virt. eigenvalues --    0.15433   0.18790   0.19594   0.21796   0.22522
 Alpha virt. eigenvalues --    0.23449   0.24359   0.25172   0.25413   0.26518
 Alpha virt. eigenvalues --    0.27268   0.28351   0.29383   0.30758   0.31957
 Alpha virt. eigenvalues --    0.33571   0.35952   0.36957   0.40686   0.43002
 Alpha virt. eigenvalues --    0.45704   0.48185   0.49610   0.49967   0.50313
 Alpha virt. eigenvalues --    0.54454   0.54994   0.56417   0.57125   0.57637
 Alpha virt. eigenvalues --    0.58594   0.59785   0.60506   0.62257   0.62793
 Alpha virt. eigenvalues --    0.64431   0.65206   0.65531   0.69491   0.70164
 Alpha virt. eigenvalues --    0.72901   0.74482   0.75099   0.81405   0.82367
 Alpha virt. eigenvalues --    0.83325   0.86522   0.88933   0.92157   0.93903
 Alpha virt. eigenvalues --    0.96514   0.97387   0.98774   1.03166   1.04880
 Alpha virt. eigenvalues --    1.05423   1.07731   1.08593   1.11865   1.14511
 Alpha virt. eigenvalues --    1.15250   1.16041   1.17447   1.20147   1.21107
 Alpha virt. eigenvalues --    1.23214   1.24507   1.25361   1.28505   1.29225
 Alpha virt. eigenvalues --    1.30867   1.33078   1.34408   1.35254   1.37115
 Alpha virt. eigenvalues --    1.37601   1.39946   1.41490   1.44209   1.45347
 Alpha virt. eigenvalues --    1.48010   1.49623   1.50630   1.52089   1.54910
 Alpha virt. eigenvalues --    1.58124   1.60110   1.61413   1.63117   1.66887
 Alpha virt. eigenvalues --    1.67955   1.69624   1.74509   1.82819   1.96534
 Alpha virt. eigenvalues --    2.06742   2.16090   2.30202   2.35051   2.39123
 Alpha virt. eigenvalues --    2.45132   2.49923   2.54009   2.58468   2.58826
 Alpha virt. eigenvalues --    2.63529   2.69143   2.70657   2.75606   2.81391
 Alpha virt. eigenvalues --    2.86023   2.87763   2.89766   2.94054   2.95072
 Alpha virt. eigenvalues --    2.96803   2.99194   3.00662   3.02731   3.03940
 Alpha virt. eigenvalues --    3.06652   3.09511   3.10944   3.12113   3.14797
 Alpha virt. eigenvalues --    3.18581   3.19760   3.23107   3.26204   3.29346
 Alpha virt. eigenvalues --    3.30024   3.31538   3.33505   3.33680   3.36290
 Alpha virt. eigenvalues --    3.37868   3.42382   3.45437   3.46377   3.50141
 Alpha virt. eigenvalues --    3.52975   3.56986   3.57848   3.60524   3.62041
 Alpha virt. eigenvalues --    3.64964   3.67667   3.70646   3.74797   3.77666
 Alpha virt. eigenvalues --    3.80334   3.85037   3.86963   3.89080   3.90753
 Alpha virt. eigenvalues --    3.93337   3.97828   3.99346   4.01772   4.02370
 Alpha virt. eigenvalues --    4.04273   4.07240   4.11355   4.14519   4.18132
 Alpha virt. eigenvalues --    4.19667   4.20877   4.21776   4.22807   4.23109
 Alpha virt. eigenvalues --    4.25127   4.26662   4.30734   4.33790   4.38011
 Alpha virt. eigenvalues --    4.42134   4.47592   4.50323   4.53672   4.55655
 Alpha virt. eigenvalues --    4.58768   4.60923   4.63242   4.65713   4.72088
 Alpha virt. eigenvalues --    4.81404   5.14631   5.18758   5.25145   5.28813
 Alpha virt. eigenvalues --    5.36608   5.42587   5.47945   5.52960   5.54688
 Alpha virt. eigenvalues --    5.58224   5.60802   5.62599   5.66342   5.68600
 Alpha virt. eigenvalues --    5.84007   5.91632   6.28492   6.48017   6.82598
 Alpha virt. eigenvalues --    7.14571   7.22521   7.33787   7.72355   7.74866
 Alpha virt. eigenvalues --   24.31696  24.41717  24.47688  24.50938  50.19623
  Beta  occ. eigenvalues --  -19.64727 -10.59652 -10.56674 -10.52744 -10.52687
  Beta  occ. eigenvalues --   -1.17842  -0.89230  -0.78985  -0.73519  -0.66409
  Beta  occ. eigenvalues --   -0.56861  -0.55068  -0.52729  -0.48827  -0.46117
  Beta  occ. eigenvalues --   -0.45525  -0.43222  -0.41854  -0.39231  -0.37221
  Beta virt. eigenvalues --   -0.00642   0.01611   0.03203   0.03781   0.04086
  Beta virt. eigenvalues --    0.05973   0.06642   0.07269   0.07668   0.08497
  Beta virt. eigenvalues --    0.09544   0.10600   0.11992   0.12726   0.13098
  Beta virt. eigenvalues --    0.13587   0.15377   0.18784   0.19765   0.21946
  Beta virt. eigenvalues --    0.23068   0.23638   0.24389   0.25399   0.25536
  Beta virt. eigenvalues --    0.26604   0.27368   0.28720   0.29479   0.30806
  Beta virt. eigenvalues --    0.32497   0.33613   0.35771   0.37139   0.40817
  Beta virt. eigenvalues --    0.42851   0.46019   0.48535   0.49846   0.49972
  Beta virt. eigenvalues --    0.51031   0.54665   0.55685   0.56551   0.57104
  Beta virt. eigenvalues --    0.57774   0.58559   0.59944   0.60730   0.62571
  Beta virt. eigenvalues --    0.63835   0.64528   0.65347   0.66021   0.69523
  Beta virt. eigenvalues --    0.70162   0.73354   0.74571   0.75135   0.81545
  Beta virt. eigenvalues --    0.82709   0.83240   0.86657   0.88844   0.92452
  Beta virt. eigenvalues --    0.93983   0.96260   0.97361   0.98692   1.03205
  Beta virt. eigenvalues --    1.04720   1.05814   1.07683   1.08692   1.11834
  Beta virt. eigenvalues --    1.14712   1.15210   1.16039   1.17432   1.20281
  Beta virt. eigenvalues --    1.20968   1.23427   1.24779   1.25550   1.28631
  Beta virt. eigenvalues --    1.29455   1.31011   1.33192   1.34513   1.35648
  Beta virt. eigenvalues --    1.37168   1.37655   1.40008   1.41605   1.44761
  Beta virt. eigenvalues --    1.45625   1.48088   1.49799   1.50832   1.52311
  Beta virt. eigenvalues --    1.55808   1.58373   1.60171   1.61503   1.63223
  Beta virt. eigenvalues --    1.66945   1.68227   1.69979   1.74858   1.83105
  Beta virt. eigenvalues --    1.97726   2.07065   2.16494   2.31342   2.35472
  Beta virt. eigenvalues --    2.39320   2.45590   2.50054   2.54263   2.58770
  Beta virt. eigenvalues --    2.59751   2.64508   2.69366   2.71001   2.76294
  Beta virt. eigenvalues --    2.81620   2.87637   2.90060   2.91161   2.95538
  Beta virt. eigenvalues --    2.96988   2.98909   2.99595   3.01944   3.03427
  Beta virt. eigenvalues --    3.07706   3.08021   3.11699   3.13041   3.13611
  Beta virt. eigenvalues --    3.16180   3.20474   3.21132   3.23926   3.29802
  Beta virt. eigenvalues --    3.30969   3.31542   3.33218   3.34153   3.36432
  Beta virt. eigenvalues --    3.38375   3.39597   3.43326   3.47096   3.48126
  Beta virt. eigenvalues --    3.52084   3.54298   3.57781   3.58522   3.61588
  Beta virt. eigenvalues --    3.62911   3.66193   3.68541   3.71452   3.75635
  Beta virt. eigenvalues --    3.78019   3.81777   3.86072   3.87801   3.89887
  Beta virt. eigenvalues --    3.92360   3.93539   3.98931   3.99871   4.02327
  Beta virt. eigenvalues --    4.03398   4.05050   4.07983   4.11815   4.16907
  Beta virt. eigenvalues --    4.19874   4.20927   4.21544   4.22268   4.23282
  Beta virt. eigenvalues --    4.24282   4.25397   4.28269   4.31276   4.34077
  Beta virt. eigenvalues --    4.39055   4.42227   4.47849   4.50563   4.53910
  Beta virt. eigenvalues --    4.55722   4.58874   4.61040   4.64408   4.67042
  Beta virt. eigenvalues --    4.72159   4.81476   5.18312   5.20106   5.26242
  Beta virt. eigenvalues --    5.29958   5.37660   5.44219   5.48479   5.55061
  Beta virt. eigenvalues --    5.56275   5.59700   5.61633   5.62791   5.66491
  Beta virt. eigenvalues --    5.69154   5.84635   5.92494   6.28922   6.48268
  Beta virt. eigenvalues --    6.83385   7.15628   7.23779   7.34732   7.72825
  Beta virt. eigenvalues --    7.74782  24.31702  24.41725  24.48996  24.50933
  Beta virt. eigenvalues --   50.19312
          Condensed to atoms (all electrons):
               1          2          3          4          5          6
     1  O    8.138532   0.237475  -0.110974  -0.123868   0.053769  -0.039883
     2  C    0.237475   5.339936   0.157354   0.332583  -0.098683   0.453883
     3  C   -0.110974   0.157354   5.260142  -0.132083  -0.021347  -0.059003
     4  C   -0.123868   0.332583  -0.132083   5.157006   0.001502  -0.021958
     5  C    0.053769  -0.098683  -0.021347   0.001502   5.533665  -0.009073
     6  H   -0.039883   0.453883  -0.059003  -0.021958  -0.009073   0.517445
     7  H   -0.009342  -0.015836   0.390307   0.009388   0.011036  -0.006805
     8  H    0.008913  -0.045065   0.430831  -0.009346   0.000511  -0.002735
     9  H   -0.007689  -0.023687   0.417261  -0.011786  -0.001332   0.005801
    10  H    0.013350  -0.046936  -0.005921   0.424876   0.001477  -0.006412
    11  H   -0.010073  -0.006175  -0.019831   0.401818  -0.000862   0.005996
    12  H   -0.005030  -0.024611   0.019057   0.394042  -0.001347  -0.006137
    13  H   -0.044567   0.007188  -0.000410  -0.002599   0.402321   0.005283
    14  H   -0.054199   0.004165   0.001542   0.000791   0.441977   0.000061
               7          8          9         10         11         12
     1  O   -0.009342   0.008913  -0.007689   0.013350  -0.010073  -0.005030
     2  C   -0.015836  -0.045065  -0.023687  -0.046936  -0.006175  -0.024611
     3  C    0.390307   0.430831   0.417261  -0.005921  -0.019831   0.019057
     4  C    0.009388  -0.009346  -0.011786   0.424876   0.401818   0.394042
     5  C    0.011036   0.000511  -0.001332   0.001477  -0.000862  -0.001347
     6  H   -0.006805  -0.002735   0.005801  -0.006412   0.005996  -0.006137
     7  H    0.528985  -0.025049  -0.024959   0.000252  -0.000059  -0.000288
     8  H   -0.025049   0.530966  -0.031970   0.000459  -0.000071   0.000050
     9  H   -0.024959  -0.031970   0.514531  -0.000217   0.002383  -0.000135
    10  H    0.000252   0.000459  -0.000217   0.531578  -0.031759  -0.022155
    11  H   -0.000059  -0.000071   0.002383  -0.031759   0.522592  -0.025317
    12  H   -0.000288   0.000050  -0.000135  -0.022155  -0.025317   0.521462
    13  H   -0.003174  -0.000029   0.000173   0.000002  -0.000002   0.000092
    14  H    0.000243   0.000039  -0.000128   0.000017   0.000018  -0.000026
              13         14
     1  O   -0.044567  -0.054199
     2  C    0.007188   0.004165
     3  C   -0.000410   0.001542
     4  C   -0.002599   0.000791
     5  C    0.402321   0.441977
     6  H    0.005283   0.000061
     7  H   -0.003174   0.000243
     8  H   -0.000029   0.000039
     9  H    0.000173  -0.000128
    10  H    0.000002   0.000017
    11  H   -0.000002   0.000018
    12  H    0.000092  -0.000026
    13  H    0.515451  -0.028057
    14  H   -0.028057   0.469138
          Atomic-Atomic Spin Densities.
               1          2          3          4          5          6
     1  O    0.311625  -0.006741   0.007874   0.003870  -0.242742  -0.005860
     2  C   -0.006741   0.059396  -0.047622   0.001200   0.014710   0.007860
     3  C    0.007874  -0.047622   0.067637   0.004983  -0.030072  -0.000982
     4  C    0.003870   0.001200   0.004983  -0.006481  -0.000373  -0.002312
     5  C   -0.242742   0.014710  -0.030072  -0.000373   1.278411  -0.004028
     6  H   -0.005860   0.007860  -0.000982  -0.002312  -0.004028   0.001282
     7  H   -0.000987   0.004116   0.003115  -0.000552  -0.001055  -0.000346
     8  H   -0.000046   0.003007  -0.002923  -0.001328   0.000220   0.000129
     9  H   -0.001650   0.000109  -0.001678   0.000265   0.002493  -0.000157
    10  H    0.000220  -0.002788   0.001324   0.001339  -0.000068  -0.000216
    11  H   -0.000289   0.002269  -0.000779  -0.001149  -0.000375   0.000089
    12  H   -0.000184  -0.001878   0.000685   0.000708   0.000636   0.000174
    13  H   -0.003531   0.006971  -0.000470  -0.000107  -0.026359   0.002889
    14  H    0.000921  -0.000480   0.001227  -0.000386  -0.004636   0.000270
               7          8          9         10         11         12
     1  O   -0.000987  -0.000046  -0.001650   0.000220  -0.000289  -0.000184
     2  C    0.004116   0.003007   0.000109  -0.002788   0.002269  -0.001878
     3  C    0.003115  -0.002923  -0.001678   0.001324  -0.000779   0.000685
     4  C   -0.000552  -0.001328   0.000265   0.001339  -0.001149   0.000708
     5  C   -0.001055   0.000220   0.002493  -0.000068  -0.000375   0.000636
     6  H   -0.000346   0.000129  -0.000157  -0.000216   0.000089   0.000174
     7  H   -0.016066   0.000882   0.000636   0.000007  -0.000038   0.000015
     8  H    0.000882  -0.001506  -0.000215  -0.000006   0.000034   0.000006
     9  H    0.000636  -0.000215  -0.000060  -0.000018  -0.000042  -0.000016
    10  H    0.000007  -0.000006  -0.000018  -0.000140  -0.000144   0.000154
    11  H   -0.000038   0.000034  -0.000042  -0.000144  -0.000207   0.000168
    12  H    0.000015   0.000006  -0.000016   0.000154   0.000168  -0.001110
    13  H    0.000293  -0.000010  -0.000099  -0.000007   0.000023   0.000010
    14  H   -0.000012  -0.000002  -0.000009  -0.000001   0.000011   0.000006
              13         14
     1  O   -0.003531   0.000921
     2  C    0.006971  -0.000480
     3  C   -0.000470   0.001227
     4  C   -0.000107  -0.000386
     5  C   -0.026359  -0.004636
     6  H    0.002889   0.000270
     7  H    0.000293  -0.000012
     8  H   -0.000010  -0.000002
     9  H   -0.000099  -0.000009
    10  H   -0.000007  -0.000001
    11  H    0.000023   0.000011
    12  H    0.000010   0.000006
    13  H   -0.028213   0.007329
    14  H    0.007329  -0.039528
 Mulliken charges and spin densities:
               1          2
     1  O   -0.046413   0.062479
     2  C   -0.271591   0.040129
     3  C   -0.326925   0.002319
     4  C   -0.420366  -0.000322
     5  C   -0.313612   0.986761
     6  H    0.163535  -0.001208
     7  H    0.145301  -0.009991
     8  H    0.142496  -0.001758
     9  H    0.161754  -0.000441
    10  H    0.141390  -0.000344
    11  H    0.161341  -0.000427
    12  H    0.150343  -0.000625
    13  H    0.148328  -0.041281
    14  H    0.164420  -0.035292
 Sum of Mulliken charges =  -0.00000   1.00000
 Mulliken charges and spin densities with hydrogens summed into heavy atoms:
               1          2
     1  O   -0.046413   0.062479
     2  C   -0.108056   0.038921
     3  C    0.122626  -0.009871
     4  C    0.032708  -0.001718
     5  C   -0.000865   0.910189
 APT charges:
               1
     1  O   -0.019484
     2  C   -0.335919
     3  C   -1.051092
     4  C   -1.175130
     5  C   -1.047435
     6  H    0.361633
     7  H    0.350744
     8  H    0.441674
     9  H    0.346652
    10  H    0.446946
    11  H    0.341831
    12  H    0.381849
    13  H    0.343682
    14  H    0.614048
 Sum of APT charges =  -0.00000
 APT charges with hydrogens summed into heavy atoms:
               1
     1  O   -0.019484
     2  C    0.025715
     3  C    0.087977
     4  C   -0.004504
     5  C   -0.089704
 Electronic spatial extent (au):  <R**2>=            478.6020
 Charge=             -0.0000 electrons
 Dipole moment (field-independent basis, Debye):
    X=             -0.9014    Y=              0.4774    Z=              0.9914  Tot=              1.4224
 Quadrupole moment (field-independent basis, Debye-Ang):
   XX=            -31.7166   YY=            -34.0872   ZZ=            -32.8291
   XY=             -0.2388   XZ=              0.5335   YZ=              0.1625
 Traceless Quadrupole moment (field-independent basis, Debye-Ang):
   XX=              1.1611   YY=             -1.2096   ZZ=              0.0485
   XY=             -0.2388   XZ=              0.5335   YZ=              0.1625
 Octapole moment (field-independent basis, Debye-Ang**2):
  XXX=              4.0886  YYY=             -2.9919  ZZZ=             -0.9886  XYY=             -1.8245
  XXY=             -2.6867  XXZ=              0.0528  XZZ=             -0.3413  YZZ=             -0.2677
  YYZ=              0.3415  XYZ=              1.2210
 Hexadecapole moment (field-independent basis, Debye-Ang**3):
 XXXX=           -374.1432 YYYY=           -206.7208 ZZZZ=            -70.5748 XXXY=            -12.6463
 XXXZ=             -7.9833 YYYX=             -0.4515 YYYZ=              0.7995 ZZZX=              2.1225
 ZZZY=              1.2730 XXYY=           -102.9197 XXZZ=            -75.4266 YYZZ=            -47.3891
 XXYZ=              6.4310 YYXZ=             -1.3379 ZZXY=             -0.4978
 N-N= 1.886762691400D+02 E-N=-9.200636011721D+02  KE= 2.320590619825D+02
  Exact polarizability:   0.000   0.000   0.000   0.000   0.000   0.000
 Approx polarizability:  64.422   0.014  58.758   0.071   0.672  59.548
                          Isotropic Fermi Contact Couplings
        Atom                 a.u.       MegaHertz       Gauss      10(-4) cm-1
     1  O(17)              0.03624     -21.96979      -7.83937      -7.32833
     2  C(13)             -0.00306      -3.44203      -1.22820      -1.14814
     3  C(13)              0.00033       0.36866       0.13155       0.12297
     4  C(13)              0.00029       0.32749       0.11686       0.10924
     5  C(13)              0.19009     213.69981      76.25341      71.28258
     6  H(1)               0.00107       4.76999       1.70205       1.59110
     7  H(1)               0.00001       0.04830       0.01723       0.01611
     8  H(1)              -0.00051      -2.29093      -0.81746      -0.76417
     9  H(1)              -0.00012      -0.54486      -0.19442      -0.18174
    10  H(1)              -0.00026      -1.17124      -0.41793      -0.39068
    11  H(1)              -0.00008      -0.37982      -0.13553      -0.12669
    12  H(1)              -0.00003      -0.14565      -0.05197      -0.04858
    13  H(1)              -0.00889     -39.74960     -14.18364     -13.25904
    14  H(1)              -0.01054     -47.09682     -16.80532     -15.70981
 --------------------------------------------------------
       Center         ----  Spin Dipole Couplings  ----
                      3XX-RR        3YY-RR        3ZZ-RR
 --------------------------------------------------------
     1   Atom       -0.461044      0.492449     -0.031405
     2   Atom        0.015475     -0.008619     -0.006856
     3   Atom        0.001340      0.014082     -0.015423
     4   Atom        0.006998     -0.003391     -0.003607
     5   Atom       -0.496885      0.657761     -0.160876
     6   Atom        0.005980     -0.006852      0.000872
     7   Atom        0.006049      0.003727     -0.009776
     8   Atom        0.003561     -0.000446     -0.003115
     9   Atom        0.003089     -0.001462     -0.001627
    10   Atom        0.003544     -0.001753     -0.001792
    11   Atom        0.005028     -0.002468     -0.002561
    12   Atom        0.004076     -0.000864     -0.003212
    13   Atom       -0.064221      0.001703      0.062518
    14   Atom        0.014475      0.002500     -0.016975
 --------------------------------------------------------
                        XY            XZ            YZ
 --------------------------------------------------------
     1   Atom        0.023006     -0.056549     -0.635125
     2   Atom       -0.003865     -0.009243      0.005003
     3   Atom        0.003748     -0.000299     -0.000175
     4   Atom        0.001783     -0.000153     -0.000266
     5   Atom       -0.021861      0.004471     -0.615441
     6   Atom       -0.000947     -0.010286      0.001132
     7   Atom       -0.010266     -0.000213      0.001735
     8   Atom       -0.003267     -0.001803      0.000946
     9   Atom       -0.004263      0.003641     -0.002307
    10   Atom        0.000559     -0.000830     -0.000208
    11   Atom        0.001805      0.002456      0.000452
    12   Atom        0.004214     -0.001238     -0.000740
    13   Atom       -0.000127      0.008617      0.019401
    14   Atom       -0.042748     -0.050099     -0.000039
 --------------------------------------------------------


 ---------------------------------------------------------------------------------
              Anisotropic Spin Dipole Couplings in Principal Axis System
 ---------------------------------------------------------------------------------

       Atom             a.u.   MegaHertz   Gauss  10(-4) cm-1        Axes

              Baa    -0.4940    35.747    12.755    11.924  0.7389  0.3525  0.5743
     1 O(17)  Bbb    -0.4254    30.779    10.983    10.267  0.6728 -0.4323 -0.6003
              Bcc     0.9194   -66.526   -23.738   -22.191  0.0366  0.8300 -0.5566
 
              Baa    -0.0133    -1.779    -0.635    -0.593  0.1454 -0.6669  0.7308
     2 C(13)  Bbb    -0.0066    -0.880    -0.314    -0.294  0.3717  0.7214  0.5843
              Bcc     0.0198     2.659     0.949     0.887  0.9169 -0.1867 -0.3527
 
              Baa    -0.0154    -2.070    -0.739    -0.691  0.0170  0.0038  0.9998
     3 C(13)  Bbb     0.0003     0.043     0.015     0.014  0.9647 -0.2630 -0.0154
              Bcc     0.0151     2.027     0.723     0.676  0.2629  0.9648 -0.0081
 
              Baa    -0.0039    -0.522    -0.186    -0.174 -0.1145  0.7544  0.6463
     4 C(13)  Bbb    -0.0034    -0.458    -0.163    -0.153  0.1201 -0.6353  0.7628
              Bcc     0.0073     0.979     0.349     0.327  0.9861  0.1650 -0.0179
 
              Baa    -0.5011   -67.243   -23.994   -22.430  0.8526  0.2576  0.4547
     5 C(13)  Bbb    -0.4868   -65.320   -23.308   -21.788 -0.5224  0.3961  0.7551
              Bcc     0.9879   132.564    47.302    44.218 -0.0144  0.8814 -0.4722
 
              Baa    -0.0074    -3.942    -1.407    -1.315  0.4734 -0.5739  0.6682
     6 H(1)   Bbb    -0.0067    -3.594    -1.282    -1.199  0.3991  0.8160  0.4182
              Bcc     0.0141     7.536     2.689     2.514  0.7852 -0.0687 -0.6154
 
              Baa    -0.0101    -5.403    -1.928    -1.802 -0.1213 -0.2113  0.9699
     7 H(1)   Bbb    -0.0052    -2.754    -0.983    -0.919  0.6584  0.7141  0.2380
              Bcc     0.0153     8.157     2.911     2.721  0.7428 -0.6674 -0.0525
 
              Baa    -0.0036    -1.910    -0.681    -0.637  0.2132 -0.0718  0.9744
     8 H(1)   Bbb    -0.0023    -1.212    -0.433    -0.404  0.4788  0.8770 -0.0401
              Bcc     0.0059     3.122     1.114     1.041  0.8517 -0.4750 -0.2213
 
              Baa    -0.0040    -2.156    -0.769    -0.719  0.4220  0.8826  0.2070
     9 H(1)   Bbb    -0.0036    -1.924    -0.687    -0.642 -0.4692  0.0173  0.8829
              Bcc     0.0076     4.081     1.456     1.361  0.7757 -0.4697  0.4214
 
              Baa    -0.0020    -1.066    -0.380    -0.356  0.0694  0.5488  0.8331
    10 H(1)   Bbb    -0.0017    -0.926    -0.330    -0.309 -0.1715  0.8292 -0.5320
              Bcc     0.0037     1.992     0.711     0.664  0.9827  0.1059 -0.1517
 
              Baa    -0.0033    -1.761    -0.628    -0.587 -0.3125  0.1704  0.9345
    11 H(1)   Bbb    -0.0029    -1.523    -0.544    -0.508 -0.1501  0.9626 -0.2257
              Bcc     0.0062     3.284     1.172     1.095  0.9380  0.2108  0.2753
 
              Baa    -0.0034    -1.828    -0.652    -0.610  0.0353  0.2233  0.9741
    12 H(1)   Bbb    -0.0033    -1.747    -0.623    -0.583 -0.5117  0.8413 -0.1743
              Bcc     0.0067     3.575     1.276     1.192  0.8584  0.4923 -0.1440
 
              Baa    -0.0648   -34.594   -12.344   -11.539  0.9972  0.0226 -0.0709
    13 H(1)   Bbb    -0.0039    -2.057    -0.734    -0.686 -0.0413  0.9604 -0.2754
              Bcc     0.0687    36.650    13.078    12.225  0.0619  0.2775  0.9587
 
              Baa    -0.0650   -34.662   -12.368   -11.562  0.6333  0.4017  0.6615
    14 H(1)   Bbb    -0.0053    -2.803    -1.000    -0.935  0.1420  0.7799 -0.6096
              Bcc     0.0702    37.465    13.368    12.497  0.7607 -0.4800 -0.4369
 

 ---------------------------------------------------------------------------------

 No NMR shielding tensors so no spin-rotation constants.
 Leave Link  601 at Tue Mar 12 00:42:40 2019, MaxMem=   671088640 cpu:              12.3 elap:               0.7
 (Enter /shared/centos7/gaussian/g16/l701.exe)
 ... and contract with generalized density number  0.
 Compute integral second derivatives.
 Leave Link  701 at Tue Mar 12 00:42:40 2019, MaxMem=   671088640 cpu:               7.9 elap:               0.4
 (Enter /shared/centos7/gaussian/g16/l702.exe)
 L702 exits ... SP integral derivatives will be done elsewhere.
 Leave Link  702 at Tue Mar 12 00:42:40 2019, MaxMem=   671088640 cpu:               0.4 elap:               0.0
 (Enter /shared/centos7/gaussian/g16/l703.exe)
 Integral derivatives from FoFJK, PRISM(SPDF).
 Compute integral second derivatives, UseDBF=F ICtDFT=           0.
 Calling FoFJK, ICntrl=    100147 FMM=F ISym2X=0 I1Cent= 0 IOpClX= 1 NMat=1 NMatS=1 NMatT=0.
 FoFJK:  IHMeth= 1 ICntrl=  100147 DoSepK=F KAlg= 0 I1Cent=           0 FoldK=F
 IRaf=         0 NMat=       1 IRICut=       1 DoRegI=T DoRafI=F ISym2E= 0 IDoP0=0 IntGTp=1.
 FoFCou: FMM=F IPFlag=           0 FMFlag=      100000 FMFlg1=         800
         NFxFlg=           0 DoJE=F BraDBF=F KetDBF=F FulRan=T
         wScrn=  0.000000 ICntrl=    100147 IOpCl=  1 I1Cent=           0 NGrid=           0
         NMat0=    1 NMatS0=      1 NMatT0=    0 NMatD0=    1 NMtDS0=    0 NMtDT0=    0
 Symmetry not used in FoFCou.
 Leave Link  703 at Tue Mar 12 00:45:09 2019, MaxMem=   671088640 cpu:            2974.9 elap:             148.8
 (Enter /shared/centos7/gaussian/g16/l716.exe)
 Dipole        =-3.54650647D-01 1.87806803D-01 3.90031414D-01
 Polarizability= 0.00000000D+00 0.00000000D+00 0.00000000D+00
                 0.00000000D+00 0.00000000D+00 0.00000000D+00
 ***** Axes restored to original set *****
 -------------------------------------------------------------------
 Center     Atomic                   Forces (Hartrees/Bohr)
 Number     Number              X              Y              Z
 -------------------------------------------------------------------
      1        8           0.000000052    0.000000541   -0.000000738
      2        6           0.000000135   -0.000000213   -0.000000078
      3        6          -0.000000408    0.000000102    0.000001249
      4        6           0.000000244   -0.000000308   -0.000000593
      5        6           0.000000019    0.000000539   -0.000000493
      6        1           0.000000267   -0.000001113   -0.000000104
      7        1          -0.000000512    0.000000109    0.000001515
      8        1          -0.000000396   -0.000000578    0.000001714
      9        1          -0.000000559    0.000000941    0.000001235
     10        1           0.000000257   -0.000000917   -0.000000111
     11        1           0.000000039    0.000000579   -0.000000566
     12        1           0.000000561   -0.000000514   -0.000001487
     13        1           0.000000144   -0.000000311   -0.000000344
     14        1           0.000000155    0.000001142   -0.000001199
 -------------------------------------------------------------------
 Cartesian Forces:  Max     0.000001714 RMS     0.000000709
 FormGI is forming the generalized inverse of G from B-inverse, IUseBI=4.
 Leave Link  716 at Tue Mar 12 00:45:09 2019, MaxMem=   671088640 cpu:               0.7 elap:               0.1
 (Enter /shared/centos7/gaussian/g16/l103.exe)

 GradGradGradGradGradGradGradGradGradGradGradGradGradGradGradGradGradGrad
 Berny optimization.
 Red2BG is reusing G-inverse.
 Internal  Forces:  Max     0.000000085 RMS     0.000000022
 Search for a local minimum.
 Step number   1 out of a maximum of   69 on scan point     1 out of    37
 All quantities printed in internal units (Hartrees-Bohrs-Radians)
 RMS Force = .21728D-07 SwitMx=.10000D-02 MixMth= 2
 Mixed Optimization -- En-DIIS/RFO-DIIS
 Second derivative matrix not updated -- analytic derivatives used.
 ITU=  0
     Eigenvalues ---    0.00235   0.00612   0.00847   0.01211   0.01579
     Eigenvalues ---    0.04066   0.04342   0.04476   0.04520   0.05552
     Eigenvalues ---    0.06546   0.10423   0.12135   0.12412   0.12601
     Eigenvalues ---    0.13251   0.14441   0.14874   0.16701   0.19712
     Eigenvalues ---    0.19842   0.23823   0.29713   0.31295   0.32400
     Eigenvalues ---    0.34208   0.34395   0.34427   0.34638   0.35048
     Eigenvalues ---    0.35191   0.35530   0.37131   0.38888   0.49308
     Eigenvalues --- 1000.000001000.000001000.000001000.000001000.00000
     Eigenvalues --- 1000.000001000.000001000.000001000.000001000.00000
     Eigenvalues --- 1000.000001000.000001000.000001000.000001000.00000
     Eigenvalues --- 1000.000001000.000001000.000001000.000001000.00000
     Eigenvalues --- 1000.000001000.000001000.000001000.00000
 RFO step:  Lambda= 0.00000000D+00 EMin= 2.34795670D-03
 Linear search not attempted -- first point.
 Iteration  1 RMS(Cart)=  0.00000075 RMS(Int)=  0.00000000
 Iteration  1 RMS(Cart)=  0.00000000 RMS(Int)=  0.00000000
 ITry= 1 IFail=0 DXMaxC= 2.13D-06 DCOld= 1.00D+10 DXMaxT= 3.00D-01 DXLimC= 3.00D+00 Rises=F
 Variable       Old X    -DE/DX   Delta X   Delta X   Delta X     New X
                                 (Linear)    (Quad)   (Total)
    R1        2.69600  -0.00000   0.00000  -0.00000  -0.00000   2.69600
    R2        2.54519   0.00000   0.00000   0.00000   0.00000   2.54519
    R3        2.87138  -0.00000   0.00000  -0.00000  -0.00000   2.87138
    R4        2.86100  -0.00000   0.00000   0.00000   0.00000   2.86100
    R5        2.07223  -0.00000   0.00000  -0.00000  -0.00000   2.07223
    R6        2.05801  -0.00000   0.00000  -0.00000  -0.00000   2.05801
    R7        2.05917  -0.00000   0.00000  -0.00000  -0.00000   2.05917
    R8        2.06054  -0.00000   0.00000   0.00000   0.00000   2.06054
    R9        2.05833  -0.00000   0.00000  -0.00000  -0.00000   2.05833
   R10        2.05994  -0.00000   0.00000  -0.00000  -0.00000   2.05994
   R11        2.05673  -0.00000   0.00000  -0.00000  -0.00000   2.05673
   R12        2.04807  -0.00000   0.00000  -0.00000  -0.00000   2.04807
   R13        2.03652   0.00000   0.00000   0.00000   0.00000   2.03652
    A1        2.02061   0.00000   0.00000   0.00000   0.00000   2.02061
    A2        1.92422   0.00000   0.00000   0.00000   0.00000   1.92422
    A3        1.86223  -0.00000   0.00000  -0.00000  -0.00000   1.86223
    A4        1.88051  -0.00000   0.00000   0.00000   0.00000   1.88051
    A5        1.96400  -0.00000   0.00000  -0.00000  -0.00000   1.96400
    A6        1.91425  -0.00000   0.00000  -0.00000  -0.00000   1.91425
    A7        1.91627   0.00000   0.00000  -0.00000  -0.00000   1.91627
    A8        1.93531   0.00000   0.00000   0.00000   0.00000   1.93531
    A9        1.92526  -0.00000   0.00000  -0.00000  -0.00000   1.92526
   A10        1.91447  -0.00000   0.00000  -0.00000  -0.00000   1.91447
   A11        1.89725   0.00000   0.00000   0.00000   0.00000   1.89725
   A12        1.89347  -0.00000   0.00000  -0.00000  -0.00000   1.89347
   A13        1.89735   0.00000   0.00000   0.00000   0.00000   1.89735
   A14        1.92484  -0.00000   0.00000  -0.00000  -0.00000   1.92484
   A15        1.91598   0.00000   0.00000  -0.00000  -0.00000   1.91598
   A16        1.93187   0.00000   0.00000   0.00000   0.00000   1.93187
   A17        1.89537   0.00000   0.00000  -0.00000  -0.00000   1.89537
   A18        1.90021   0.00000   0.00000   0.00000   0.00000   1.90021
   A19        1.89489   0.00000   0.00000   0.00000   0.00000   1.89489
   A20        2.06029  -0.00000   0.00000   0.00000   0.00000   2.06029
   A21        1.99247   0.00000   0.00000   0.00000   0.00000   1.99247
   A22        2.11372   0.00000   0.00000   0.00000   0.00000   2.11372
    D1        1.27163   0.00000   0.00000   0.00000   0.00000   1.27163
    D2       -2.87384  -0.00000   0.00000   0.00000   0.00000  -2.87384
    D3       -0.81691  -0.00000   0.00000   0.00000   0.00000  -0.81691
    D4        0.47312   0.00000   0.00000   0.00000   0.00000   0.47312
    D5        3.12096   0.00000   0.00000   0.00000   0.00000   3.12096
    D6       -1.02874  -0.00000   0.00000  -0.00000  -0.00000  -1.02874
    D7       -3.13147  -0.00000   0.00000  -0.00000  -0.00000  -3.13147
    D8        1.06224  -0.00000   0.00000  -0.00000  -0.00000   1.06224
    D9       -3.10542   0.00000   0.00000  -0.00000  -0.00000  -3.10542
   D10        1.07503  -0.00000   0.00000  -0.00000  -0.00000   1.07503
   D11       -1.01444   0.00000   0.00000  -0.00000  -0.00000  -1.01444
   D12        1.03924   0.00000   0.00000  -0.00000  -0.00000   1.03924
   D13       -1.06349   0.00000   0.00000  -0.00000  -0.00000  -1.06349
   D14        3.13022   0.00000   0.00000  -0.00000  -0.00000   3.13022
   D15        3.12267  -0.00000   0.00000   0.00000   0.00000   3.12267
   D16       -1.07279  -0.00000   0.00000   0.00000   0.00000  -1.07279
   D17        1.01875  -0.00000   0.00000   0.00000   0.00000   1.01875
   D18       -1.04798   0.00000   0.00000   0.00000   0.00000  -1.04798
   D19        1.03975   0.00000   0.00000   0.00000   0.00000   1.03975
   D20        3.13129   0.00000   0.00000   0.00000   0.00000   3.13129
   D21        1.08941   0.00000   0.00000   0.00000   0.00000   1.08941
   D22       -3.10605  -0.00000   0.00000   0.00000   0.00000  -3.10605
   D23       -1.01451  -0.00000   0.00000   0.00000   0.00000  -1.01451
   D24        2.61216   0.00000   0.00000   0.00000   0.00000   2.61216
         Item               Value     Threshold  Converged?
 Maximum Force            0.000000     0.000450     YES
 RMS     Force            0.000000     0.000300     YES
 Maximum Displacement     0.000002     0.001800     YES
 RMS     Displacement     0.000001     0.001200     YES
 Predicted change in Energy=-1.269146D-13
 Optimization completed.
    -- Stationary point found.
                           ----------------------------
                           !   Optimized Parameters   !
                           ! (Angstroms and Degrees)  !
 --------------------------                            --------------------------
 ! Name  Definition              Value          Derivative Info.                !
 --------------------------------------------------------------------------------
 ! R1    R(1,2)                  1.4267         -DE/DX =    0.0                 !
 ! R2    R(1,5)                  1.3469         -DE/DX =    0.0                 !
 ! R3    R(2,3)                  1.5195         -DE/DX =    0.0                 !
 ! R4    R(2,4)                  1.514          -DE/DX =    0.0                 !
 ! R5    R(2,6)                  1.0966         -DE/DX =    0.0                 !
 ! R6    R(3,7)                  1.0891         -DE/DX =    0.0                 !
 ! R7    R(3,8)                  1.0897         -DE/DX =    0.0                 !
 ! R8    R(3,9)                  1.0904         -DE/DX =    0.0                 !
 ! R9    R(4,10)                 1.0892         -DE/DX =    0.0                 !
 ! R10   R(4,11)                 1.0901         -DE/DX =    0.0                 !
 ! R11   R(4,12)                 1.0884         -DE/DX =    0.0                 !
 ! R12   R(5,13)                 1.0838         -DE/DX =    0.0                 !
 ! R13   R(5,14)                 1.0777         -DE/DX =    0.0                 !
 ! A1    A(2,1,5)              115.7723         -DE/DX =    0.0                 !
 ! A2    A(1,2,3)              110.2496         -DE/DX =    0.0                 !
 ! A3    A(1,2,4)              106.6979         -DE/DX =    0.0                 !
 ! A4    A(1,2,6)              107.7453         -DE/DX =    0.0                 !
 ! A5    A(3,2,4)              112.5292         -DE/DX =    0.0                 !
 ! A6    A(3,2,6)              109.6787         -DE/DX =    0.0                 !
 ! A7    A(4,2,6)              109.7944         -DE/DX =    0.0                 !
 ! A8    A(2,3,7)              110.8852         -DE/DX =    0.0                 !
 ! A9    A(2,3,8)              110.3091         -DE/DX =    0.0                 !
 ! A10   A(2,3,9)              109.691          -DE/DX =    0.0                 !
[...]
  Beta virt. eigenvalues --    3.07703   3.08025   3.11696   3.13045   3.13610
  Beta virt. eigenvalues --    3.16185   3.20470   3.21126   3.23927   3.29799
  Beta virt. eigenvalues --    3.30958   3.31548   3.33212   3.34149   3.36427
  Beta virt. eigenvalues --    3.38376   3.39593   3.43338   3.47094   3.48129
  Beta virt. eigenvalues --    3.52084   3.54295   3.57786   3.58529   3.61590
  Beta virt. eigenvalues --    3.62904   3.66194   3.68543   3.71453   3.75642
  Beta virt. eigenvalues --    3.78016   3.81775   3.86069   3.87794   3.89891
  Beta virt. eigenvalues --    3.92357   3.93536   3.98926   3.99869   4.02324
  Beta virt. eigenvalues --    4.03403   4.05076   4.07969   4.11812   4.16909
  Beta virt. eigenvalues --    4.19868   4.20927   4.21545   4.22269   4.23275
  Beta virt. eigenvalues --    4.24287   4.25390   4.28267   4.31266   4.34074
  Beta virt. eigenvalues --    4.39060   4.42223   4.47838   4.50563   4.53909
  Beta virt. eigenvalues --    4.55723   4.58880   4.61035   4.64414   4.67045
  Beta virt. eigenvalues --    4.72145   4.81470   5.18310   5.20109   5.26241
  Beta virt. eigenvalues --    5.29961   5.37650   5.44223   5.48493   5.55053
  Beta virt. eigenvalues --    5.56280   5.59705   5.61632   5.62793   5.66488
  Beta virt. eigenvalues --    5.69160   5.84649   5.92501   6.28932   6.48289
  Beta virt. eigenvalues --    6.83397   7.15627   7.23783   7.34739   7.72827
  Beta virt. eigenvalues --    7.74785  24.31720  24.41722  24.48992  24.50940
  Beta virt. eigenvalues --   50.19310
          Condensed to atoms (all electrons):
               1          2          3          4          5          6
     1  O    8.138562   0.237262  -0.110823  -0.123915   0.053830  -0.039896
     2  C    0.237262   5.340178   0.157320   0.332561  -0.098658   0.453951
     3  C   -0.110823   0.157320   5.260129  -0.132081  -0.021383  -0.059049
     4  C   -0.123915   0.332561  -0.132081   5.157055   0.001508  -0.021997
     5  C    0.053830  -0.098658  -0.021383   0.001508   5.533572  -0.009089
     6  H   -0.039896   0.453951  -0.059049  -0.021997  -0.009089   0.517506
     7  H   -0.009343  -0.015874   0.390309   0.009381   0.011072  -0.006795
     8  H    0.008907  -0.045010   0.430882  -0.009417   0.000503  -0.002754
     9  H   -0.007691  -0.023749   0.417209  -0.011694  -0.001326   0.005804
    10  H    0.013356  -0.046926  -0.005882   0.424831   0.001476  -0.006422
    11  H   -0.010072  -0.006198  -0.019857   0.401874  -0.000860   0.006001
    12  H   -0.005031  -0.024606   0.019059   0.394035  -0.001346  -0.006144
    13  H   -0.044571   0.007168  -0.000381  -0.002612   0.402326   0.005289
    14  H   -0.054199   0.004168   0.001541   0.000792   0.441976   0.000061
               7          8          9         10         11         12
     1  O   -0.009343   0.008907  -0.007691   0.013356  -0.010072  -0.005031
     2  C   -0.015874  -0.045010  -0.023749  -0.046926  -0.006198  -0.024606
     3  C    0.390309   0.430882   0.417209  -0.005882  -0.019857   0.019059
     4  C    0.009381  -0.009417  -0.011694   0.424831   0.401874   0.394035
     5  C    0.011072   0.000503  -0.001326   0.001476  -0.000860  -0.001346
     6  H   -0.006795  -0.002754   0.005804  -0.006422   0.006001  -0.006144
     7  H    0.528979  -0.025054  -0.024948   0.000253  -0.000061  -0.000288
     8  H   -0.025054   0.530941  -0.031985   0.000458  -0.000066   0.000050
     9  H   -0.024948  -0.031985   0.514625  -0.000223   0.002387  -0.000135
    10  H    0.000253   0.000458  -0.000223   0.531628  -0.031779  -0.022152
    11  H   -0.000061  -0.000066   0.002387  -0.031779   0.522564  -0.025300
    12  H   -0.000288   0.000050  -0.000135  -0.022152  -0.025300   0.521448
    13  H   -0.003174  -0.000029   0.000171   0.000002  -0.000002   0.000092
    14  H    0.000243   0.000039  -0.000128   0.000017   0.000018  -0.000026
              13         14
     1  O   -0.044571  -0.054199
     2  C    0.007168   0.004168
     3  C   -0.000381   0.001541
     4  C   -0.002612   0.000792
     5  C    0.402326   0.441976
     6  H    0.005289   0.000061
     7  H   -0.003174   0.000243
     8  H   -0.000029   0.000039
     9  H    0.000171  -0.000128
    10  H    0.000002   0.000017
    11  H   -0.000002   0.000018
    12  H    0.000092  -0.000026
    13  H    0.515438  -0.028058
    14  H   -0.028058   0.469133
          Atomic-Atomic Spin Densities.
               1          2          3          4          5          6
     1  O    0.311606  -0.006844   0.007918   0.003922  -0.242700  -0.005862
     2  C   -0.006844   0.059557  -0.047645   0.001115   0.014755   0.007861
     3  C    0.007918  -0.047645   0.067580   0.005051  -0.030126  -0.000963
     4  C    0.003922   0.001115   0.005051  -0.006506  -0.000345  -0.002330
     5  C   -0.242700   0.014755  -0.030126  -0.000345   1.278329  -0.004029
     6  H   -0.005862   0.007861  -0.000963  -0.002330  -0.004029   0.001279
     7  H   -0.000994   0.004104   0.003138  -0.000562  -0.001041  -0.000347
     8  H   -0.000044   0.003006  -0.002921  -0.001328   0.000216   0.000131
     9  H   -0.001653   0.000099  -0.001679   0.000272   0.002498  -0.000158
    10  H    0.000220  -0.002794   0.001323   0.001347  -0.000068  -0.000216
    11  H   -0.000291   0.002270  -0.000777  -0.001152  -0.000374   0.000089
    12  H   -0.000188  -0.001876   0.000680   0.000713   0.000637   0.000175
    13  H   -0.003538   0.006970  -0.000465  -0.000116  -0.026349   0.002890
    14  H    0.000918  -0.000479   0.001228  -0.000389  -0.004631   0.000270
               7          8          9         10         11         12
     1  O   -0.000994  -0.000044  -0.001653   0.000220  -0.000291  -0.000188
     2  C    0.004104   0.003006   0.000099  -0.002794   0.002270  -0.001876
     3  C    0.003138  -0.002921  -0.001679   0.001323  -0.000777   0.000680
     4  C   -0.000562  -0.001328   0.000272   0.001347  -0.001152   0.000713
     5  C   -0.001041   0.000216   0.002498  -0.000068  -0.000374   0.000637
     6  H   -0.000347   0.000131  -0.000158  -0.000216   0.000089   0.000175
     7  H   -0.016081   0.000881   0.000636   0.000008  -0.000038   0.000015
     8  H    0.000881  -0.001504  -0.000216  -0.000006   0.000035   0.000006
     9  H    0.000636  -0.000216  -0.000055  -0.000018  -0.000042  -0.000016
    10  H    0.000008  -0.000006  -0.000018  -0.000139  -0.000144   0.000153
    11  H   -0.000038   0.000035  -0.000042  -0.000144  -0.000206   0.000168
    12  H    0.000015   0.000006  -0.000016   0.000153   0.000168  -0.001108
    13  H    0.000292  -0.000010  -0.000099  -0.000007   0.000023   0.000010
    14  H   -0.000012  -0.000002  -0.000009  -0.000001   0.000011   0.000006
              13         14
     1  O   -0.003538   0.000918
     2  C    0.006970  -0.000479
     3  C   -0.000465   0.001228
     4  C   -0.000116  -0.000389
     5  C   -0.026349  -0.004631
     6  H    0.002890   0.000270
     7  H    0.000292  -0.000012
     8  H   -0.000010  -0.000002
     9  H   -0.000099  -0.000009
    10  H   -0.000007  -0.000001
    11  H    0.000023   0.000011
    12  H    0.000010   0.000006
    13  H   -0.028214   0.007327
    14  H    0.007327  -0.039529
 Mulliken charges and spin densities:
               1          2
     1  O   -0.046375   0.062470
     2  C   -0.271585   0.040099
     3  C   -0.326992   0.002343
     4  C   -0.420320  -0.000308
     5  C   -0.313602   0.986770
     6  H    0.163534  -0.001210
     7  H    0.145299  -0.009999
     8  H    0.142534  -0.001757
     9  H    0.161683  -0.000439
    10  H    0.141365  -0.000343
    11  H    0.161351  -0.000427
    12  H    0.150345  -0.000623
    13  H    0.148339  -0.041284
    14  H    0.164423  -0.035291
 Sum of Mulliken charges =  -0.00000   1.00000
 Mulliken charges and spin densities with hydrogens summed into heavy atoms:
               1          2
     1  O   -0.046375   0.062470
     2  C   -0.108051   0.038890
     3  C    0.122524  -0.009853
     4  C    0.032742  -0.001702
     5  C   -0.000839   0.910195
 Electronic spatial extent (au):  <R**2>=            478.6142
 Charge=             -0.0000 electrons
 Dipole moment (field-independent basis, Debye):
    X=             -0.9010    Y=              0.4770    Z=              0.9915  Tot=              1.4221
 Quadrupole moment (field-independent basis, Debye-Ang):
   XX=            -31.7167   YY=            -34.0866   ZZ=            -32.8298
   XY=             -0.2397   XZ=              0.5337   YZ=              0.1619
 Traceless Quadrupole moment (field-independent basis, Debye-Ang):
   XX=              1.1610   YY=             -1.2089   ZZ=              0.0479
   XY=             -0.2397   XZ=              0.5337   YZ=              0.1619
 Octapole moment (field-independent basis, Debye-Ang**2):
  XXX=              4.0937  YYY=             -2.9914  ZZZ=             -0.9888  XYY=             -1.8229
  XXY=             -2.6858  XXZ=              0.0513  XZZ=             -0.3424  YZZ=             -0.2670
  YYZ=              0.3416  XYZ=              1.2201
 Hexadecapole moment (field-independent basis, Debye-Ang**3):
 XXXX=           -374.1211 YYYY=           -206.7591 ZZZZ=            -70.5757 XXXY=            -12.6461
 XXXZ=             -7.9825 YYYX=             -0.4549 YYYZ=              0.7953 ZZZX=              2.1231
 ZZZY=              1.2743 XXYY=           -102.9311 XXZZ=            -75.4197 YYZZ=            -47.3924
 XXYZ=              6.4282 YYXZ=             -1.3391 ZZXY=             -0.5006
 N-N= 1.886759117560D+02 E-N=-9.200628440381D+02  KE= 2.320592304944D+02
                          Isotropic Fermi Contact Couplings
        Atom                 a.u.       MegaHertz       Gauss      10(-4) cm-1
     1  O(17)              0.03623     -21.96446      -7.83746      -7.32655
     2  C(13)             -0.00306      -3.44144      -1.22799      -1.14794
     3  C(13)              0.00033       0.37073       0.13229       0.12366
     4  C(13)              0.00029       0.32845       0.11720       0.10956
     5  C(13)              0.19009     213.69826      76.25285      71.28207
     6  H(1)               0.00107       4.76936       1.70182       1.59089
     7  H(1)               0.00001       0.04166       0.01487       0.01390
     8  H(1)              -0.00051      -2.28721      -0.81613      -0.76293
     9  H(1)              -0.00012      -0.54303      -0.19377      -0.18113
    10  H(1)              -0.00026      -1.16968      -0.41737      -0.39016
    11  H(1)              -0.00008      -0.37989      -0.13555      -0.12672
    12  H(1)              -0.00003      -0.14505      -0.05176      -0.04838
    13  H(1)              -0.00889     -39.75474     -14.18548     -13.26075
    14  H(1)              -0.01054     -47.10092     -16.80678     -15.71117
 --------------------------------------------------------
       Center         ----  Spin Dipole Couplings  ----
                      3XX-RR        3YY-RR        3ZZ-RR
 --------------------------------------------------------
     1   Atom       -0.460982      0.492649     -0.031666
     2   Atom        0.015481     -0.008624     -0.006858
     3   Atom        0.001332      0.014088     -0.015420
     4   Atom        0.006998     -0.003391     -0.003607
     5   Atom       -0.496900      0.657985     -0.161085
     6   Atom        0.005984     -0.006853      0.000869
     7   Atom        0.006053      0.003724     -0.009777
     8   Atom        0.003559     -0.000447     -0.003112
     9   Atom        0.003087     -0.001463     -0.001624
    10   Atom        0.003544     -0.001753     -0.001792
    11   Atom        0.005027     -0.002466     -0.002561
    12   Atom        0.004074     -0.000863     -0.003212
    13   Atom       -0.064226      0.001698      0.062528
    14   Atom        0.014496      0.002498     -0.016994
 --------------------------------------------------------
                        XY            XZ            YZ
 --------------------------------------------------------
     1   Atom        0.023114     -0.056604     -0.634955
     2   Atom       -0.003862     -0.009242      0.005002
     3   Atom        0.003746     -0.000301     -0.000180
     4   Atom        0.001787     -0.000153     -0.000265
     5   Atom       -0.021778      0.004420     -0.615325
     6   Atom       -0.000946     -0.010286      0.001130
     7   Atom       -0.010265     -0.000210      0.001727
     8   Atom       -0.003265     -0.001806      0.000947
     9   Atom       -0.004257      0.003638     -0.002304
    10   Atom        0.000560     -0.000830     -0.000208
    11   Atom        0.001807      0.002456      0.000452
    12   Atom        0.004216     -0.001240     -0.000741
    13   Atom       -0.000134      0.008591      0.019393
    14   Atom       -0.042739     -0.050102     -0.000045
 --------------------------------------------------------


 ---------------------------------------------------------------------------------
              Anisotropic Spin Dipole Couplings in Principal Axis System
 ---------------------------------------------------------------------------------

       Atom             a.u.   MegaHertz   Gauss  10(-4) cm-1        Axes

              Baa    -0.4940    35.743    12.754    11.923  0.7388  0.3524  0.5745
     1 O(17)  Bbb    -0.4253    30.777    10.982    10.266  0.6729 -0.4322 -0.6003
              Bcc     0.9193   -66.520   -23.736   -22.189  0.0367  0.8301 -0.5564
 
              Baa    -0.0133    -1.780    -0.635    -0.594  0.1453 -0.6671  0.7307
     2 C(13)  Bbb    -0.0066    -0.880    -0.314    -0.294  0.3715  0.7213  0.5846
              Bcc     0.0198     2.660     0.949     0.887  0.9170 -0.1865 -0.3526
 
              Baa    -0.0154    -2.070    -0.739    -0.690  0.0171  0.0039  0.9998
     3 C(13)  Bbb     0.0003     0.043     0.015     0.014  0.9648 -0.2627 -0.0154
              Bcc     0.0151     2.027     0.723     0.676  0.2626  0.9649 -0.0083
 
              Baa    -0.0039    -0.522    -0.186    -0.174 -0.1148  0.7549  0.6457
     4 C(13)  Bbb    -0.0034    -0.458    -0.163    -0.153  0.1202 -0.6347  0.7634
              Bcc     0.0073     0.980     0.350     0.327  0.9861  0.1652 -0.0179
 
              Baa    -0.5011   -67.245   -23.995   -22.431  0.8525  0.2575  0.4549
     5 C(13)  Bbb    -0.4868   -65.322   -23.309   -21.789 -0.5226  0.3959  0.7551
              Bcc     0.9879   132.568    47.303    44.220 -0.0143  0.8814 -0.4721
 
              Baa    -0.0074    -3.942    -1.407    -1.315  0.4734 -0.5740  0.6682
     6 H(1)   Bbb    -0.0067    -3.594    -1.282    -1.199  0.3989  0.8160  0.4183
              Bcc     0.0141     7.536     2.689     2.514  0.7854 -0.0686 -0.6152
 
              Baa    -0.0101    -5.403    -1.928    -1.802 -0.1211 -0.2107  0.9700
     7 H(1)   Bbb    -0.0052    -2.754    -0.983    -0.919  0.6583  0.7144  0.2373
              Bcc     0.0153     8.157     2.910     2.721  0.7430 -0.6673 -0.0522
 
              Baa    -0.0036    -1.909    -0.681    -0.637  0.2138 -0.0716  0.9742
     8 H(1)   Bbb    -0.0023    -1.212    -0.433    -0.404  0.4786  0.8771 -0.0405
              Bcc     0.0059     3.121     1.114     1.041  0.8516 -0.4749 -0.2218
 
              Baa    -0.0040    -2.154    -0.769    -0.719  0.4219  0.8827  0.2068
     9 H(1)   Bbb    -0.0036    -1.922    -0.686    -0.641 -0.4691  0.0173  0.8830
              Bcc     0.0076     4.076     1.454     1.360  0.7758 -0.4695  0.4214
 
              Baa    -0.0020    -1.066    -0.380    -0.356  0.0692  0.5490  0.8330
    10 H(1)   Bbb    -0.0017    -0.926    -0.330    -0.309 -0.1716  0.8291 -0.5322
              Bcc     0.0037     1.992     0.711     0.664  0.9827  0.1061 -0.1516
 
              Baa    -0.0033    -1.761    -0.628    -0.587 -0.3126  0.1704  0.9345
    11 H(1)   Bbb    -0.0029    -1.523    -0.544    -0.508 -0.1503  0.9625 -0.2258
              Bcc     0.0062     3.284     1.172     1.095  0.9379  0.2111  0.2752
 
              Baa    -0.0034    -1.828    -0.652    -0.610  0.0356  0.2230  0.9742
    12 H(1)   Bbb    -0.0033    -1.748    -0.624    -0.583 -0.5119  0.8413 -0.1739
              Bcc     0.0067     3.576     1.276     1.193  0.8583  0.4925 -0.1442
 
              Baa    -0.0648   -34.595   -12.344   -11.540  0.9972  0.0226 -0.0707
    13 H(1)   Bbb    -0.0039    -2.056    -0.734    -0.686 -0.0413  0.9605 -0.2752
              Bcc     0.0687    36.651    13.078    12.225  0.0617  0.2774  0.9588
 
              Baa    -0.0650   -34.663   -12.369   -11.562  0.6332  0.4016  0.6617
    14 H(1)   Bbb    -0.0053    -2.803    -1.000    -0.935  0.1421  0.7800 -0.6094
              Bcc     0.0702    37.466    13.369    12.497  0.7608 -0.4799 -0.4368
 

 ---------------------------------------------------------------------------------

 No NMR shielding tensors so no spin-rotation constants.
 Leave Link  601 at Tue Mar 12 03:21:14 2019, MaxMem=   671088640 cpu:              10.6 elap:               0.6
 (Enter /shared/centos7/gaussian/g16/l9999.exe)
 1\1\GINC-C0230\Scan\UM062X\6-311+G(2df,2p)\C4H9O1(2)\UNDERKOFFLER.C\12
 -Mar-2019\0\\#p m062x/6-311+g(2df,2p) Opt=(CalcFC,ModRedun)\\Gaussian 
 Input Prepared from Scan Object\\0,2\O,0.6808586248,-0.6558413871,0.46
 54041612\C,-0.4473828122,0.1918574519,0.2569588328\C,-0.2476211209,1.0
 369973962,-0.9899213384\C,-1.6580149024,-0.7118317006,0.1576671145\C,1
 .800484541,-0.0447589292,0.8979099393\H,-0.5421518996,0.8439105858,1.1
 334925854\H,0.649576921,1.6484325157,-0.9048799124\H,-1.1041715725,1.6
 928764581,-1.1432767926\H,-0.1431464419,0.3888383327,-1.8605131181\H,-
 2.5610047352,-0.1193094304,0.016098996\H,-1.5471926842,-1.384759518,-0
 .6926756309\H,-1.7668121151,-1.3092673609,1.0608351266\H,1.6935705525,
 0.8707076639,1.4680754191\H,2.6301796447,-0.7116690781,1.0659246173\\V
 ersion=EM64L-G16RevA.03\State=2-A\HF=-232.9651962,-232.9649125,-232.96
 41059,-232.9629254,-232.9616397,-232.9606324,-232.9602698,-232.9606955
 ,-232.9617349,-232.9630124,-232.9641641,-232.964937,-232.9651958,-232.
 9649008,-232.9641011,-232.962947,-232.9616956,-232.9606925,-232.960270
 7,-232.9606016,-232.9615717,-232.9628446,-232.9640471,-232.964889,-232
 .9651961,-232.9649143,-232.9640993,-232.9629172,-232.9616479,-232.9606
 559,-232.9602691,-232.960631,-232.9616147,-232.962889,-232.9640823,-23
 2.964905,-232.9651962\S2=0.754568,0.754565,0.75456,0.754556,0.754554,0
 .754556,0.75456,0.754564,0.754567,0.754569,0.75457,0.75457,0.754568,0.
 754564,0.754559,0.754556,0.754554,0.754555,0.754559,0.754563,0.754567,
 0.754569,0.75457,0.75457,0.754568,0.754564,0.754559,0.754555,0.754553,
 0.754555,0.754559,0.754564,0.754568,0.75457,0.754571,0.75457,0.754568\
 S2-1=0.,0.,0.,0.,0.,0.,0.,0.,0.,0.,0.,0.,0.,0.,0.,0.,0.,0.,0.,0.,0.,0.
 ,0.,0.,0.,0.,0.,0.,0.,0.,0.,0.,0.,0.,0.,0.,0.\S2A=0.750015,0.750015,0.
 750015,0.750015,0.750015,0.750015,0.750015,0.750015,0.750015,0.750015,
 0.750015,0.750015,0.750015,0.750015,0.750015,0.750015,0.750015,0.75001
 5,0.750015,0.750015,0.750015,0.750015,0.750015,0.750015,0.750015,0.750
 015,0.750015,0.750015,0.750015,0.750015,0.750015,0.750015,0.750015,0.7
 50015,0.750015,0.750015,0.750015\RMSD=3.839e-09,8.105e-09,5.086e-09,3.
 178e-09,3.131e-09,8.281e-09,3.394e-09,4.247e-09,6.477e-09,9.038e-09,6.
 938e-09,7.279e-09,3.330e-09,6.517e-09,7.717e-09,4.846e-09,3.639e-09,5.
 270e-09,6.287e-09,4.412e-09,4.654e-09,6.885e-09,7.070e-09,5.714e-09,3.
 627e-09,2.543e-09,7.144e-09,5.131e-09,3.789e-09,4.083e-09,7.536e-09,6.
 598e-09,9.359e-09,6.630e-09,5.172e-09,5.953e-09,6.985e-09\PG=C01 [X(C4
 H9O1)]\\@


 ALL SCIENCE IS EITHER PHYSICS, OR STAMP COLLECTING.
   --ERNEST RUTHERFORD, 1871-1937.
 Job cpu time:       2 days  7 hours  9 minutes 56.0 seconds.
 Elapsed time:       0 days  2 hours 46 minutes 24.4 seconds.
 File lengths (MBytes):  RWF=   1376 Int=      0 D2E=      0 Chk=     32 Scr=     32
 Normal termination of Gaussian 16 at Tue Mar 12 03:21:14 2019.
