 Entering Gaussian System, Link 0=g16
 Input=BWWHSGPVJDTLAO-UHFFFAOYSA-N_GeoFreq_c2_a1.com
 Output=BWWHSGPVJDTLAO-UHFFFAOYSA-N_GeoFreq_c2_a1.log
 Initial command:
 /shared/centos7/gaussian/g16/l1.exe "/scratch/underkoffler.c/gaussian_scratch/Gau-14199.inp" -scrdir="/scratch/underkoffler.c/gaussian_scratch/"
 Entering Link 1 = /shared/centos7/gaussian/g16/l1.exe PID=     14200.
  
 Copyright (c) 1988,1990,1992,1993,1995,1998,2003,2009,2016,
            Gaussian, Inc.  All Rights Reserved.
  
 This is part of the Gaussian(R) 16 program.  It is based on
 the Gaussian(R) 09 system (copyright 2009, Gaussian, Inc.),
 the Gaussian(R) 03 system (copyright 2003, Gaussian, Inc.),
 the Gaussian(R) 98 system (copyright 1998, Gaussian, Inc.),
 the Gaussian(R) 94 system (copyright 1995, Gaussian, Inc.),
 the Gaussian 92(TM) system (copyright 1992, Gaussian, Inc.),
 the Gaussian 90(TM) system (copyright 1990, Gaussian, Inc.),
 the Gaussian 88(TM) system (copyright 1988, Gaussian, Inc.),
 the Gaussian 86(TM) system (copyright 1986, Carnegie Mellon
 University), and the Gaussian 82(TM) system (copyright 1983,
 Carnegie Mellon University). Gaussian is a federally registered
 trademark of Gaussian, Inc.
  
 This software contains proprietary and confidential information,
 including trade secrets, belonging to Gaussian, Inc.
  
 This software is provided under written license and may be
 used, copied, transmitted, or stored only in accord with that
 written license.
  
 The following legend is applicable only to US Government
 contracts under FAR:
  
                    RESTRICTED RIGHTS LEGEND
  
 Use, reproduction and disclosure by the US Government is
 subject to restrictions as set forth in subparagraphs (a)
 and (c) of the Commercial Computer Software - Restricted
 Rights clause in FAR 52.227-19.
  
 Gaussian, Inc.
 340 Quinnipiac St., Bldg. 40, Wallingford CT 06492
  
  
 ---------------------------------------------------------------
 Warning -- This program may not be used in any manner that
 competes with the business of Gaussian, Inc. or will provide
 assistance to any competitor of Gaussian, Inc.  The licensee
 of this program is prohibited from giving any competitor of
 Gaussian, Inc. access to this program.  By using this program,
 the user acknowledges that Gaussian, Inc. is engaged in the
 business of creating and licensing software in the field of
 computational chemistry and represents and warrants to the
 licensee that it is not a competitor of Gaussian, Inc. and that
 it will not use this program in any manner prohibited above.
 ---------------------------------------------------------------
  

 Cite this work as:
 Gaussian 16, Revision A.03,
 M. J. Frisch, G. W. Trucks, H. B. Schlegel, G. E. Scuseria, 
 M. A. Robb, J. R. Cheeseman, G. Scalmani, V. Barone, 
 G. A. Petersson, H. Nakatsuji, X. Li, M. Caricato, A. V. Marenich, 
 J. Bloino, B. G. Janesko, R. Gomperts, B. Mennucci, H. P. Hratchian, 
 J. V. Ortiz, A. F. Izmaylov, J. L. Sonnenberg, D. Williams-Young, 
 F. Ding, F. Lipparini, F. Egidi, J. Goings, B. Peng, A. Petrone, 
 T. Henderson, D. Ranasinghe, V. G. Zakrzewski, J. Gao, N. Rega, 
 G. Zheng, W. Liang, M. Hada, M. Ehara, K. Toyota, R. Fukuda, 
 J. Hasegawa, M. Ishida, T. Nakajima, Y. Honda, O. Kitao, H. Nakai, 
 T. Vreven, K. Throssell, J. A. Montgomery, Jr., J. E. Peralta, 
 F. Ogliaro, M. J. Bearpark, J. J. Heyd, E. N. Brothers, K. N. Kudin, 
 V. N. Staroverov, T. A. Keith, R. Kobayashi, J. Normand, 
 K. Raghavachari, A. P. Rendell, J. C. Burant, S. S. Iyengar, 
 J. Tomasi, M. Cossi, J. M. Millam, M. Klene, C. Adamo, R. Cammi, 
 J. W. Ochterski, R. L. Martin, K. Morokuma, O. Farkas, 
 J. B. Foresman, and D. J. Fox, Gaussian, Inc., Wallingford CT, 2016.
 
 ******************************************
 Gaussian 16:  EM64L-G16RevA.03 25-Dec-2016
                 9-Apr-2019 
 ******************************************
 %nprocshared=20
 Will use up to   20 processors via shared memory.
 %mem=5GB
 ----------------------------------------------------------------------
 #p m062x/6-311+g(2df,2p) opt=(calcfc,verytight,gdiis,maxcycles=900) fr
 eq iop(7/33=1,2/16=3)
 ----------------------------------------------------------------------

 Warning!  Use of Opt=GDIIS is deprecated since it is seldom a good choice.

 1/6=900,7=1,10=4,18=20,19=11,26=3,38=1/1,3;
 2/9=110,12=2,16=3,17=6,18=5,40=1/2;
 3/5=4,6=6,7=214,11=2,25=1,30=1,71=2,74=-55,140=1/1,2,3;
 4//1;
 5/5=2,38=5/2;
 8/6=4,10=90,11=11/1;
 11/6=1,8=1,9=11,15=111,16=1/1,2,10;
 10/6=1,13=1/2;
 6/7=2,8=2,9=2,10=2,28=1/1;
 7/10=1,18=20,25=1,33=1/1,2,3,16;
 1/6=900,7=1,10=4,18=20,19=11,26=3/3(2);
 2/9=110,16=3/2;
 99//99;
 2/9=110,16=3/2;
 3/5=4,6=6,7=214,11=2,25=1,30=1,71=1,74=-55/1,2,3;
 4/5=5,16=3,69=1/1;
 5/5=2,38=5/2;
 7/33=1/1,2,3,16;
 1/6=900,7=1,18=20,19=11,26=3/3(-5);
 2/9=110,16=3/2;
 6/7=2,8=2,9=2,10=2,19=2,28=1/1;
 99/9=1/99;
 Leave Link    1 at Tue Apr  9 01:40:44 2019, MaxMem=   671088640 cpu:              28.7 elap:               1.5
 (Enter /shared/centos7/gaussian/g16/l101.exe)
 ------------------------------
 Gaussian input prepared by ASE
 ------------------------------
 Symbolic Z-matrix:
 Charge =  0 Multiplicity = 2
 O                     0.90155   0.13429   0.63185 
 C                    -0.08322   0.13437  -0.3451 
 C                    -0.9158   -1.14086  -0.31222 
 C                     0.46342   0.41397  -1.71682 
 C                     1.97271  -0.69534   0.35206 
 H                    -0.7633    0.97826  -0.07029 
 H                    -1.33918  -1.30505   0.7042 
 H                    -1.75489  -1.07257  -1.02946 
 H                    -0.29996  -2.03028  -0.57489 
 H                     1.3342   -0.25412  -1.93976 
 H                     0.80531   1.45754  -1.79246 
 H                    -0.31597   0.23974  -2.50259 
 H                     2.5263   -0.90425   1.28042 
 H                     1.6797   -1.61093  -0.22071 
 
 Add atom      5 valence  3 ND=      2 dihedral       1      5     13     14
 ITRead=  0  0  0  0  0  0  0  0  0  0  0  0  0  0
 MicOpt= -1 -1 -1 -1 -1 -1 -1 -1 -1 -1 -1 -1 -1 -1
 NAtoms=     14 NQM=       14 NQMF=       0 NMMI=      0 NMMIF=      0
                NMic=       0 NMicF=      0.
                    Isotopes and Nuclear Properties:
 (Nuclear quadrupole moments (NQMom) in fm**2, nuclear magnetic moments (NMagM)
  in nuclear magnetons)

  Atom         1           2           3           4           5           6           7           8           9          10
 IAtWgt=          16          12          12          12          12           1           1           1           1           1
 AtmWgt=  15.9949146  12.0000000  12.0000000  12.0000000  12.0000000   1.0078250   1.0078250   1.0078250   1.0078250   1.0078250
 NucSpn=           0           0           0           0           0           1           1           1           1           1
 AtZEff=  -0.0000000  -0.0000000  -0.0000000  -0.0000000  -0.0000000  -0.0000000  -0.0000000  -0.0000000  -0.0000000  -0.0000000
 NQMom=    0.0000000   0.0000000   0.0000000   0.0000000   0.0000000   0.0000000   0.0000000   0.0000000   0.0000000   0.0000000
 NMagM=    0.0000000   0.0000000   0.0000000   0.0000000   0.0000000   2.7928460   2.7928460   2.7928460   2.7928460   2.7928460
 AtZNuc=   8.0000000   6.0000000   6.0000000   6.0000000   6.0000000   1.0000000   1.0000000   1.0000000   1.0000000   1.0000000

  Atom        11          12          13          14
 IAtWgt=           1           1           1           1
 AtmWgt=   1.0078250   1.0078250   1.0078250   1.0078250
 NucSpn=           1           1           1           1
 AtZEff=  -0.0000000  -0.0000000  -0.0000000  -0.0000000
 NQMom=    0.0000000   0.0000000   0.0000000   0.0000000
 NMagM=    2.7928460   2.7928460   2.7928460   2.7928460
 AtZNuc=   1.0000000   1.0000000   1.0000000   1.0000000
 Leave Link  101 at Tue Apr  9 01:40:44 2019, MaxMem=   671088640 cpu:               5.7 elap:               0.3
 (Enter /shared/centos7/gaussian/g16/l103.exe)

 GradGradGradGradGradGradGradGradGradGradGradGradGradGradGradGradGradGrad
 Berny optimization.
 Initialization pass.
                           ----------------------------
                           !    Initial Parameters    !
                           ! (Angstroms and Degrees)  !
 --------------------------                            --------------------------
 ! Name  Definition              Value          Derivative Info.                !
 --------------------------------------------------------------------------------
 ! R1    R(1,2)                  1.3872         calculate D2E/DX2 analytically  !
 ! R2    R(1,5)                  1.3835         calculate D2E/DX2 analytically  !
 ! R3    R(2,3)                  1.5233         calculate D2E/DX2 analytically  !
 ! R4    R(2,4)                  1.5029         calculate D2E/DX2 analytically  !
 ! R5    R(2,6)                  1.1181         calculate D2E/DX2 analytically  !
 ! R6    R(3,7)                  1.1132         calculate D2E/DX2 analytically  !
 ! R7    R(3,8)                  1.106          calculate D2E/DX2 analytically  !
 ! R8    R(3,9)                  1.1132         calculate D2E/DX2 analytically  !
 ! R9    R(4,10)                 1.12           calculate D2E/DX2 analytically  !
 ! R10   R(4,11)                 1.1007         calculate D2E/DX2 analytically  !
 ! R11   R(4,12)                 1.1204         calculate D2E/DX2 analytically  !
 ! R12   R(5,13)                 1.1009         calculate D2E/DX2 analytically  !
 ! R13   R(5,14)                 1.119          calculate D2E/DX2 analytically  !
 ! A1    A(2,1,5)              114.0333         calculate D2E/DX2 analytically  !
 ! A2    A(1,2,3)              111.886          calculate D2E/DX2 analytically  !
 ! A3    A(1,2,4)              112.6195         calculate D2E/DX2 analytically  !
 ! A4    A(1,2,6)              104.9957         calculate D2E/DX2 analytically  !
 ! A5    A(3,2,4)              111.9776         calculate D2E/DX2 analytically  !
 ! A6    A(3,2,6)              107.103          calculate D2E/DX2 analytically  !
 ! A7    A(4,2,6)              107.7676         calculate D2E/DX2 analytically  !
 ! A8    A(2,3,7)              110.5503         calculate D2E/DX2 analytically  !
 ! A9    A(2,3,8)              110.4246         calculate D2E/DX2 analytically  !
 ! A10   A(2,3,9)              111.1855         calculate D2E/DX2 analytically  !
 ! A11   A(7,3,8)              108.2208         calculate D2E/DX2 analytically  !
 ! A12   A(7,3,9)              107.9376         calculate D2E/DX2 analytically  !
 ! A13   A(8,3,9)              108.4225         calculate D2E/DX2 analytically  !
 ! A14   A(2,4,10)             110.7027         calculate D2E/DX2 analytically  !
 ! A15   A(2,4,11)             110.6139         calculate D2E/DX2 analytically  !
 ! A16   A(2,4,12)             110.9883         calculate D2E/DX2 analytically  !
 ! A17   A(10,4,11)            108.0814         calculate D2E/DX2 analytically  !
 ! A18   A(10,4,12)            107.9696         calculate D2E/DX2 analytically  !
 ! A19   A(11,4,12)            108.3791         calculate D2E/DX2 analytically  !
 ! A20   A(1,5,13)             109.4262         calculate D2E/DX2 analytically  !
 ! A21   A(1,5,14)             113.0436         calculate D2E/DX2 analytically  !
 ! A22   A(13,5,14)            114.0819         calculate D2E/DX2 analytically  !
 ! D1    D(5,1,2,3)             74.5135         calculate D2E/DX2 analytically  !
 ! D2    D(5,1,2,4)            -52.6648         calculate D2E/DX2 analytically  !
 ! D3    D(5,1,2,6)           -169.6559         calculate D2E/DX2 analytically  !
 ! D4    D(2,1,5,13)          -161.2188         calculate D2E/DX2 analytically  !
 ! D5    D(2,1,5,14)           -32.8875         calculate D2E/DX2 analytically  !
 ! D6    D(1,2,3,7)             54.5538         calculate D2E/DX2 analytically  !
 ! D7    D(1,2,3,8)            174.2852         calculate D2E/DX2 analytically  !
 ! D8    D(1,2,3,9)            -65.3174         calculate D2E/DX2 analytically  !
 ! D9    D(4,2,3,7)           -177.9229         calculate D2E/DX2 analytically  !
 ! D10   D(4,2,3,8)            -58.1916         calculate D2E/DX2 analytically  !
 ! D11   D(4,2,3,9)             62.2058         calculate D2E/DX2 analytically  !
 ! D12   D(6,2,3,7)            -59.9877         calculate D2E/DX2 analytically  !
 ! D13   D(6,2,3,8)             59.7437         calculate D2E/DX2 analytically  !
 ! D14   D(6,2,3,9)           -179.8589         calculate D2E/DX2 analytically  !
 ! D15   D(1,2,4,10)            50.6249         calculate D2E/DX2 analytically  !
 ! D16   D(1,2,4,11)           -69.1535         calculate D2E/DX2 analytically  !
 ! D17   D(1,2,4,12)           170.5077         calculate D2E/DX2 analytically  !
 ! D18   D(3,2,4,10)           -76.5048         calculate D2E/DX2 analytically  !
 ! D19   D(3,2,4,11)           163.7168         calculate D2E/DX2 analytically  !
 ! D20   D(3,2,4,12)            43.378          calculate D2E/DX2 analytically  !
 ! D21   D(6,2,4,10)           165.9569         calculate D2E/DX2 analytically  !
 ! D22   D(6,2,4,11)            46.1786         calculate D2E/DX2 analytically  !
 ! D23   D(6,2,4,12)           -74.1603         calculate D2E/DX2 analytically  !
 ! D24   D(1,5,13,14)          127.7526         calculate D2E/DX2 analytically  !
 --------------------------------------------------------------------------------
 Trust Radius=3.00D-01 FncErr=1.00D-07 GrdErr=1.00D-06 EigMax=2.50D+02 EigMin=1.00D-04
 Number of steps in this run=    100 maximum allowed number of steps=    100.
 GradGradGradGradGradGradGradGradGradGradGradGradGradGradGradGradGradGrad

 Leave Link  103 at Tue Apr  9 01:40:44 2019, MaxMem=   671088640 cpu:               0.1 elap:               0.0
 (Enter /shared/centos7/gaussian/g16/l202.exe)
                          Input orientation:                          
 ---------------------------------------------------------------------
 Center     Atomic      Atomic             Coordinates (Angstroms)
 Number     Number       Type             X           Y           Z
 ---------------------------------------------------------------------
      1          8           0        0.901545    0.134290    0.631849
      2          6           0       -0.083225    0.134371   -0.345100
      3          6           0       -0.915800   -1.140863   -0.312224
      4          6           0        0.463423    0.413965   -1.716820
      5          6           0        1.972712   -0.695344    0.352059
      6          1           0       -0.763302    0.978257   -0.070293
      7          1           0       -1.339179   -1.305047    0.704196
      8          1           0       -1.754885   -1.072566   -1.029460
      9          1           0       -0.299963   -2.030281   -0.574893
     10          1           0        1.334205   -0.254119   -1.939755
     11          1           0        0.805314    1.457535   -1.792455
     12          1           0       -0.315971    0.239743   -2.502590
     13          1           0        2.526300   -0.904247    1.280421
     14          1           0        1.679696   -1.610934   -0.220712
 ---------------------------------------------------------------------
                    Distance matrix (angstroms):
                    1          2          3          4          5
     1  O    0.000000
     2  C    1.387156   0.000000
     3  C    2.412474   1.523313   0.000000
     4  C    2.405497   1.502868   2.508512   0.000000
     5  C    1.383464   2.324077   2.997209   2.790838   0.000000
     6  H    1.994241   1.118108   2.138330   2.129397   3.234979
     7  H    2.664164   2.179534   1.113246   3.473571   3.385907
     8  H    3.357540   2.172440   1.105964   2.757378   3.993229
     9  H    2.754127   2.187579   1.113245   2.803765   2.793985
    10  H    2.636514   2.168630   2.915080   1.119954   2.419665
    11  H    2.763601   2.152928   3.450360   1.100749   3.255249
    12  H    3.364249   2.172564   2.657738   1.120376   3.776437
    13  H    2.034461   3.245099   3.800073   3.869961   1.100889
    14  H    2.092411   2.483839   2.639307   2.796047   1.119031
                    6          7          8          9         10
     6  H    0.000000
     7  H    2.478899   0.000000
     8  H    2.471663   1.797894   0.000000
     9  H    3.085548   1.800557   1.800180   0.000000
    10  H    3.068089   3.904089   3.322795   2.772744   0.000000
    11  H    2.378257   4.296973   3.679429   3.856029   1.797549
    12  H    2.581003   3.703621   2.441873   2.978134   1.812115
    13  H    4.023646   3.928690   4.867488   3.563413   3.494752
    14  H    3.562973   3.172165   3.569351   2.054349   2.217075
                   11         12         13         14
    11  H    0.000000
    12  H    1.801274   0.000000
    13  H    4.240563   4.868099   0.000000
    14  H    3.556744   3.551713   1.862672   0.000000
 Stoichiometry    C4H9O(2)
 Framework group  C1[X(C4H9O)]
 Deg. of freedom    36
 Full point group                 C1      NOp   1
 Largest Abelian subgroup         C1      NOp   1
 Largest concise Abelian subgroup C1      NOp   1
                         Standard orientation:                         
 ---------------------------------------------------------------------
 Center     Atomic      Atomic             Coordinates (Angstroms)
 Number     Number       Type             X           Y           Z
 ---------------------------------------------------------------------
      1          8           0       -0.905900   -0.127094   -0.678022
      2          6           0        0.457814    0.018837   -0.470199
      3          6           0        1.053597   -1.181866    0.253566
      4          6           0        0.803590    1.313770    0.209653
      5          6           0       -1.671410    0.048838    0.460844
      6          1           0        0.905812    0.040937   -1.494394
      7          1           0        0.814758   -2.123688   -0.289798
      8          1           0        2.153814   -1.088052    0.315852
      9          1           0        0.648979   -1.270162    1.286912
     10          1           0        0.179066    1.457852    1.128078
     11          1           0        0.622434    2.165453   -0.463747
     12          1           0        1.880589    1.330055    0.517957
     13          1           0       -2.664803   -0.400090    0.307253
     14          1           0       -1.154997   -0.293028    1.392872
 ---------------------------------------------------------------------
 Rotational constants (GHZ):           6.6790504           4.5593855           3.5282333
 Leave Link  202 at Tue Apr  9 01:40:44 2019, MaxMem=   671088640 cpu:               0.2 elap:               0.0
 (Enter /shared/centos7/gaussian/g16/l301.exe)
 Standard basis: 6-311+G(2df,2p) (5D, 7F)
 Ernie: Thresh=  0.10000D-02 Tol=  0.10000D-05 Strict=F.
 There are   276 symmetry adapted cartesian basis functions of A   symmetry.
 There are   251 symmetry adapted basis functions of A   symmetry.
   251 basis functions,   359 primitive gaussians,   276 cartesian basis functions
    21 alpha electrons       20 beta electrons
       nuclear repulsion energy       190.8308069193 Hartrees.
 IExCor= 4336 DFT=T Ex+Corr=M062X ExCW=0 ScaHFX=  0.540000
 ScaDFX=  1.000000  1.000000  1.000000  1.000000 ScalE2=  1.000000  1.000000
 IRadAn=      5 IRanWt=     -1 IRanGd=            0 ICorTp=0 IEmpDi=  4
 NAtoms=   14 NActive=   14 NUniq=   14 SFac= 1.00D+00 NAtFMM=   60 NAOKFM=F Big=F
 Integral buffers will be    131072 words long.
 Raffenetti 2 integral format.
 Two-electron integral symmetry is turned on.
 Leave Link  301 at Tue Apr  9 01:40:44 2019, MaxMem=   671088640 cpu:               0.9 elap:               0.1
 (Enter /shared/centos7/gaussian/g16/l302.exe)
 NPDir=0 NMtPBC=     1 NCelOv=     1 NCel=       1 NClECP=     1 NCelD=      1
         NCelK=      1 NCelE2=     1 NClLst=     1 CellRange=     0.0.
 One-electron integrals computed using PRISM.
 One-electron integral symmetry used in STVInt
 NBasis=   251 RedAO= T EigKep=  2.87D-05  NBF=   251
 NBsUse=   251 1.00D-06 EigRej= -1.00D+00 NBFU=   251
 Precomputing XC quadrature grid using
 IXCGrd= 4 IRadAn=           5 IRanWt=          -1 IRanGd=           0 AccXCQ= 0.00D+00.
 Generated NRdTot=       0 NPtTot=           0 NUsed=           0 NTot=          32
 NSgBfM=   276   276   276   276   276 MxSgAt=    14 MxSgA2=    14.
 Leave Link  302 at Tue Apr  9 01:40:45 2019, MaxMem=   671088640 cpu:               6.2 elap:               0.3
 (Enter /shared/centos7/gaussian/g16/l303.exe)
 DipDrv:  MaxL=1.
 Leave Link  303 at Tue Apr  9 01:40:45 2019, MaxMem=   671088640 cpu:               0.5 elap:               0.0
 (Enter /shared/centos7/gaussian/g16/l401.exe)
 ExpMin= 4.38D-02 ExpMax= 8.59D+03 ExpMxC= 1.30D+03 IAcc=3 IRadAn=         5 AccDes= 0.00D+00
 Harris functional with IExCor= 1009 and IRadAn=       5 diagonalized for initial guess.
 HarFok:  IExCor= 1009 AccDes= 0.00D+00 IRadAn=         5 IDoV= 1 UseB2=F ITyADJ=14
 ICtDFT=  3500011 ScaDFX=  1.000000  1.000000  1.000000  1.000000
 FoFCou: FMM=F IPFlag=           0 FMFlag=      100000 FMFlg1=           0
         NFxFlg=           0 DoJE=T BraDBF=F KetDBF=T FulRan=T
         wScrn=  0.000000 ICntrl=       500 IOpCl=  0 I1Cent=   200000004 NGrid=           0
         NMat0=    1 NMatS0=      1 NMatT0=    0 NMatD0=    1 NMtDS0=    0 NMtDT0=    0
 Petite list used in FoFCou.
 Harris En= -232.860582019320    
 JPrj=0 DoOrth=F DoCkMO=F.
 Initial guess <Sx>= 0.0000 <Sy>= 0.0000 <Sz>= 0.5000 <S**2>= 0.7500 S= 0.5000
 Leave Link  401 at Tue Apr  9 01:40:45 2019, MaxMem=   671088640 cpu:              16.0 elap:               0.8
 (Enter /shared/centos7/gaussian/g16/l502.exe)
 Integral symmetry usage will be decided dynamically.
 UHF open shell SCF:
 Using DIIS extrapolation, IDIIS=  1040.
 NGot=   671088640 LenX=   670928170 LenY=   670851553
 Requested convergence on RMS density matrix=1.00D-08 within 128 cycles.
 Requested convergence on MAX density matrix=1.00D-06.
 Requested convergence on             energy=1.00D-06.
 No special actions if energy rises.
 Fock matrices will be formed incrementally for  20 cycles.

 Cycle   1  Pass 1  IDiag  1:
 FoFJK:  IHMeth= 1 ICntrl=       0 DoSepK=F KAlg= 0 I1Cent=           0 FoldK=F
 IRaf= 990000000 NMat=       1 IRICut=       1 DoRegI=T DoRafI=F ISym2E= 0 IDoP0=0 IntGTp=1.
 FoFCou: FMM=F IPFlag=           0 FMFlag=      100000 FMFlg1=           0
         NFxFlg=           0 DoJE=F BraDBF=F KetDBF=F FulRan=T
         wScrn=  0.000000 ICntrl=         0 IOpCl=  1 I1Cent=           0 NGrid=           0
         NMat0=    1 NMatS0=      1 NMatT0=    0 NMatD0=    1 NMtDS0=    0 NMtDT0=    0
 Symmetry not used in FoFCou.
 E= -232.781040268706    
 DIIS: error= 2.72D-02 at cycle   1 NSaved=   1.
 NSaved= 1 IEnMin= 1 EnMin= -232.781040268706     IErMin= 1 ErrMin= 2.72D-02
 ErrMax= 2.72D-02  0.00D+00 EMaxC= 1.00D-01 BMatC= 7.94D-01 BMatP= 7.94D-01
 IDIUse=3 WtCom= 7.28D-01 WtEn= 2.72D-01
 Coeff-Com:  0.100D+01
 Coeff-En:   0.100D+01
 Coeff:      0.100D+01
 Gap=     0.251 Goal=   None    Shift=    0.000
 Gap=     0.349 Goal=   None    Shift=    0.000
 GapD=    0.251 DampG=1.000 DampE=0.500 DampFc=0.5000 IDamp=-1.
 Damping current iteration by 5.00D-01
 RMSDP=2.55D-03 MaxDP=1.09D-01              OVMax= 1.46D-01

 Cycle   2  Pass 1  IDiag  1:
 RMSU=  1.24D-03    CP:  9.70D-01
 E= -232.869150263446     Delta-E=       -0.088109994740 Rises=F Damp=T
 DIIS: error= 6.88D-03 at cycle   2 NSaved=   2.
 NSaved= 2 IEnMin= 2 EnMin= -232.869150263446     IErMin= 2 ErrMin= 6.88D-03
 ErrMax= 6.88D-03  0.00D+00 EMaxC= 1.00D-01 BMatC= 5.72D-02 BMatP= 7.94D-01
 IDIUse=3 WtCom= 9.31D-01 WtEn= 6.88D-02
 Coeff-Com: -0.147D+00 0.115D+01
 Coeff-En:   0.000D+00 0.100D+01
 Coeff:     -0.137D+00 0.114D+01
 Gap=     0.268 Goal=   None    Shift=    0.000
 Gap=     0.384 Goal=   None    Shift=    0.000
 RMSDP=1.01D-03 MaxDP=5.02D-02 DE=-8.81D-02 OVMax= 7.47D-02

 Cycle   3  Pass 1  IDiag  1:
 RMSU=  1.01D-03    CP:  9.76D-01  9.83D-01
 E= -232.949476782360     Delta-E=       -0.080326518914 Rises=F Damp=F
 DIIS: error= 3.14D-03 at cycle   3 NSaved=   3.
 NSaved= 3 IEnMin= 3 EnMin= -232.949476782360     IErMin= 3 ErrMin= 3.14D-03
 ErrMax= 3.14D-03  0.00D+00 EMaxC= 1.00D-01 BMatC= 6.47D-03 BMatP= 5.72D-02
 IDIUse=3 WtCom= 9.69D-01 WtEn= 3.14D-02
 Coeff-Com: -0.753D-01 0.250D+00 0.825D+00
 Coeff-En:   0.000D+00 0.000D+00 0.100D+01
 Coeff:     -0.729D-01 0.242D+00 0.830D+00
 Gap=     0.269 Goal=   None    Shift=    0.000
 Gap=     0.338 Goal=   None    Shift=    0.000
 RMSDP=2.36D-04 MaxDP=2.48D-02 DE=-8.03D-02 OVMax= 1.06D-02

 Cycle   4  Pass 1  IDiag  1:
 RMSU=  1.98D-04    CP:  9.68D-01  1.04D+00  9.24D-01
 E= -232.951015792352     Delta-E=       -0.001539009992 Rises=F Damp=F
 DIIS: error= 1.11D-03 at cycle   4 NSaved=   4.
 NSaved= 4 IEnMin= 4 EnMin= -232.951015792352     IErMin= 4 ErrMin= 1.11D-03
 ErrMax= 1.11D-03  0.00D+00 EMaxC= 1.00D-01 BMatC= 9.54D-04 BMatP= 6.47D-03
 IDIUse=3 WtCom= 9.89D-01 WtEn= 1.11D-02
 Coeff-Com: -0.186D-01 0.398D-01 0.300D+00 0.679D+00
 Coeff-En:   0.000D+00 0.000D+00 0.000D+00 0.100D+01
 Coeff:     -0.184D-01 0.394D-01 0.296D+00 0.683D+00
 Gap=     0.268 Goal=   None    Shift=    0.000
 Gap=     0.343 Goal=   None    Shift=    0.000
 RMSDP=8.93D-05 MaxDP=7.82D-03 DE=-1.54D-03 OVMax= 9.70D-03

 Cycle   5  Pass 1  IDiag  1:
 RMSU=  5.93D-05    CP:  9.70D-01  1.02D+00  9.80D-01  8.77D-01
 E= -232.951309473481     Delta-E=       -0.000293681129 Rises=F Damp=F
 DIIS: error= 3.75D-04 at cycle   5 NSaved=   5.
 NSaved= 5 IEnMin= 5 EnMin= -232.951309473481     IErMin= 5 ErrMin= 3.75D-04
 ErrMax= 3.75D-04  0.00D+00 EMaxC= 1.00D-01 BMatC= 1.69D-04 BMatP= 9.54D-04
 IDIUse=3 WtCom= 9.96D-01 WtEn= 3.75D-03
 Coeff-Com:  0.291D-02-0.162D-01 0.275D-02 0.239D+00 0.772D+00
 Coeff-En:   0.000D+00 0.000D+00 0.000D+00 0.000D+00 0.100D+01
 Coeff:      0.290D-02-0.161D-01 0.274D-02 0.238D+00 0.772D+00
 Gap=     0.269 Goal=   None    Shift=    0.000
 Gap=     0.342 Goal=   None    Shift=    0.000
 RMSDP=4.11D-05 MaxDP=2.70D-03 DE=-2.94D-04 OVMax= 4.50D-03

 Cycle   6  Pass 1  IDiag  1:
 RMSU=  2.81D-05    CP:  9.70D-01  1.02D+00  9.94D-01  9.65D-01  1.33D+00
 E= -232.951387630216     Delta-E=       -0.000078156735 Rises=F Damp=F
 DIIS: error= 2.93D-04 at cycle   6 NSaved=   6.
 NSaved= 6 IEnMin= 6 EnMin= -232.951387630216     IErMin= 6 ErrMin= 2.93D-04
 ErrMax= 2.93D-04  0.00D+00 EMaxC= 1.00D-01 BMatC= 3.06D-05 BMatP= 1.69D-04
 IDIUse=3 WtCom= 9.97D-01 WtEn= 2.93D-03
 Coeff-Com:  0.575D-02-0.130D-01-0.864D-01-0.121D+00 0.916D-01 0.112D+01
 Coeff-En:   0.000D+00 0.000D+00 0.000D+00 0.000D+00 0.000D+00 0.100D+01
 Coeff:      0.573D-02-0.130D-01-0.861D-01-0.121D+00 0.914D-01 0.112D+01
 Gap=     0.270 Goal=   None    Shift=    0.000
 Gap=     0.343 Goal=   None    Shift=    0.000
 RMSDP=3.36D-05 MaxDP=1.56D-03 DE=-7.82D-05 OVMax= 5.98D-03

 Cycle   7  Pass 1  IDiag  1:
 RMSU=  1.61D-05    CP:  9.70D-01  1.02D+00  9.97D-01  1.05D+00  1.67D+00
                    CP:  1.39D+00
 E= -232.951422682691     Delta-E=       -0.000035052475 Rises=F Damp=F
 DIIS: error= 1.51D-04 at cycle   7 NSaved=   7.
 NSaved= 7 IEnMin= 7 EnMin= -232.951422682691     IErMin= 7 ErrMin= 1.51D-04
 ErrMax= 1.51D-04  0.00D+00 EMaxC= 1.00D-01 BMatC= 1.88D-05 BMatP= 3.06D-05
 IDIUse=3 WtCom= 9.98D-01 WtEn= 1.51D-03
 Coeff-Com:  0.190D-02-0.275D-02-0.451D-01-0.121D+00-0.187D+00 0.631D+00
 Coeff-Com:  0.722D+00
 Coeff-En:   0.000D+00 0.000D+00 0.000D+00 0.000D+00 0.000D+00 0.000D+00
 Coeff-En:   0.100D+01
 Coeff:      0.190D-02-0.275D-02-0.450D-01-0.121D+00-0.186D+00 0.630D+00
 Coeff:      0.723D+00
 Gap=     0.270 Goal=   None    Shift=    0.000
 Gap=     0.343 Goal=   None    Shift=    0.000
 RMSDP=1.57D-05 MaxDP=7.76D-04 DE=-3.51D-05 OVMax= 2.29D-03

 Cycle   8  Pass 1  IDiag  1:
 RMSU=  6.25D-06    CP:  9.70D-01  1.02D+00  9.99D-01  1.08D+00  1.82D+00
                    CP:  1.72D+00  1.25D+00
 E= -232.951430713490     Delta-E=       -0.000008030799 Rises=F Damp=F
 DIIS: error= 6.18D-05 at cycle   8 NSaved=   8.
 NSaved= 8 IEnMin= 8 EnMin= -232.951430713490     IErMin= 8 ErrMin= 6.18D-05
 ErrMax= 6.18D-05  0.00D+00 EMaxC= 1.00D-01 BMatC= 1.07D-06 BMatP= 1.88D-05
 IDIUse=1 WtCom= 1.00D+00 WtEn= 0.00D+00
 Coeff-Com: -0.129D-02 0.322D-02 0.135D-01 0.121D-01-0.592D-01-0.116D+00
 Coeff-Com:  0.874D-01 0.106D+01
 Coeff:     -0.129D-02 0.322D-02 0.135D-01 0.121D-01-0.592D-01-0.116D+00
 Coeff:      0.874D-01 0.106D+01
 Gap=     0.270 Goal=   None    Shift=    0.000
 Gap=     0.343 Goal=   None    Shift=    0.000
 RMSDP=6.55D-06 MaxDP=3.04D-04 DE=-8.03D-06 OVMax= 8.82D-04

 Cycle   9  Pass 1  IDiag  1:
 RMSU=  3.15D-06    CP:  9.70D-01  1.02D+00  9.97D-01  1.09D+00  1.85D+00
                    CP:  1.85D+00  1.40D+00  1.30D+00
 E= -232.951431542266     Delta-E=       -0.000000828775 Rises=F Damp=F
 DIIS: error= 1.21D-05 at cycle   9 NSaved=   9.
 NSaved= 9 IEnMin= 9 EnMin= -232.951431542266     IErMin= 9 ErrMin= 1.21D-05
 ErrMax= 1.21D-05  0.00D+00 EMaxC= 1.00D-01 BMatC= 1.09D-07 BMatP= 1.07D-06
 IDIUse=1 WtCom= 1.00D+00 WtEn= 0.00D+00
 Coeff-Com: -0.405D-03 0.819D-03 0.767D-02 0.174D-01 0.129D-01-0.975D-01
 Coeff-Com: -0.749D-01 0.180D+00 0.954D+00
 Coeff:     -0.405D-03 0.819D-03 0.767D-02 0.174D-01 0.129D-01-0.975D-01
 Coeff:     -0.749D-01 0.180D+00 0.954D+00
 Gap=     0.270 Goal=   None    Shift=    0.000
 Gap=     0.343 Goal=   None    Shift=    0.000
 RMSDP=1.65D-06 MaxDP=1.22D-04 DE=-8.29D-07 OVMax= 1.93D-04

 Cycle  10  Pass 1  IDiag  1:
 RMSU=  1.10D-06    CP:  9.70D-01  1.02D+00  9.97D-01  1.09D+00  1.85D+00
                    CP:  1.85D+00  1.44D+00  1.40D+00  1.08D+00
 E= -232.951431607535     Delta-E=       -0.000000065270 Rises=F Damp=F
 DIIS: error= 2.67D-06 at cycle  10 NSaved=  10.
 NSaved=10 IEnMin=10 EnMin= -232.951431607535     IErMin=10 ErrMin= 2.67D-06
 ErrMax= 2.67D-06  0.00D+00 EMaxC= 1.00D-01 BMatC= 7.75D-09 BMatP= 1.09D-07
 IDIUse=1 WtCom= 1.00D+00 WtEn= 0.00D+00
 Coeff-Com:  0.145D-03-0.320D-03-0.135D-02-0.144D-02 0.213D-02 0.163D-01
 Coeff-Com: -0.521D-02-0.878D-01-0.463D-01 0.112D+01
 Coeff:      0.145D-03-0.320D-03-0.135D-02-0.144D-02 0.213D-02 0.163D-01
 Coeff:     -0.521D-02-0.878D-01-0.463D-01 0.112D+01
 Gap=     0.270 Goal=   None    Shift=    0.000
 Gap=     0.343 Goal=   None    Shift=    0.000
 RMSDP=5.03D-07 MaxDP=2.84D-05 DE=-6.53D-08 OVMax= 3.21D-05

 Cycle  11  Pass 1  IDiag  1:
 RMSU=  2.65D-07    CP:  9.70D-01  1.02D+00  9.97D-01  1.09D+00  1.84D+00
                    CP:  1.85D+00  1.43D+00  1.41D+00  1.14D+00  1.29D+00
 E= -232.951431612185     Delta-E=       -0.000000004650 Rises=F Damp=F
 DIIS: error= 9.26D-07 at cycle  11 NSaved=  11.
 NSaved=11 IEnMin=11 EnMin= -232.951431612185     IErMin=11 ErrMin= 9.26D-07
 ErrMax= 9.26D-07  0.00D+00 EMaxC= 1.00D-01 BMatC= 9.59D-10 BMatP= 7.75D-09
 IDIUse=1 WtCom= 1.00D+00 WtEn= 0.00D+00
 Coeff-Com:  0.505D-04-0.110D-03-0.781D-03-0.149D-02-0.665D-03 0.104D-01
 Coeff-Com:  0.299D-02-0.294D-01-0.844D-01 0.205D+00 0.899D+00
 Coeff:      0.505D-04-0.110D-03-0.781D-03-0.149D-02-0.665D-03 0.104D-01
 Coeff:      0.299D-02-0.294D-01-0.844D-01 0.205D+00 0.899D+00
 Gap=     0.270 Goal=   None    Shift=    0.000
 Gap=     0.343 Goal=   None    Shift=    0.000
 RMSDP=1.29D-07 MaxDP=8.24D-06 DE=-4.65D-09 OVMax= 8.08D-06

 Cycle  12  Pass 1  IDiag  1:
 RMSU=  7.87D-08    CP:  9.70D-01  1.02D+00  9.97D-01  1.09D+00  1.84D+00
                    CP:  1.85D+00  1.43D+00  1.42D+00  1.15D+00  1.34D+00
                    CP:  1.15D+00
 E= -232.951431612584     Delta-E=       -0.000000000399 Rises=F Damp=F
 DIIS: error= 3.55D-07 at cycle  12 NSaved=  12.
 NSaved=12 IEnMin=12 EnMin= -232.951431612584     IErMin=12 ErrMin= 3.55D-07
 ErrMax= 3.55D-07  0.00D+00 EMaxC= 1.00D-01 BMatC= 1.42D-10 BMatP= 9.59D-10
 IDIUse=1 WtCom= 1.00D+00 WtEn= 0.00D+00
 Coeff-Com: -0.361D-05 0.650D-05-0.621D-04-0.195D-03-0.260D-03 0.103D-02
 Coeff-Com:  0.106D-02 0.146D-02-0.182D-01-0.686D-01 0.261D+00 0.823D+00
 Coeff:     -0.361D-05 0.650D-05-0.621D-04-0.195D-03-0.260D-03 0.103D-02
 Coeff:      0.106D-02 0.146D-02-0.182D-01-0.686D-01 0.261D+00 0.823D+00
 Gap=     0.270 Goal=   None    Shift=    0.000
 Gap=     0.343 Goal=   None    Shift=    0.000
 RMSDP=4.07D-08 MaxDP=1.90D-06 DE=-3.99D-10 OVMax= 3.12D-06

 Cycle  13  Pass 1  IDiag  1:
 RMSU=  2.91D-08    CP:  9.70D-01  1.02D+00  9.97D-01  1.09D+00  1.84D+00
                    CP:  1.85D+00  1.43D+00  1.42D+00  1.14D+00  1.35D+00
                    CP:  1.22D+00  1.10D+00
 E= -232.951431612635     Delta-E=       -0.000000000051 Rises=F Damp=F
 DIIS: error= 7.90D-08 at cycle  13 NSaved=  13.
 NSaved=13 IEnMin=13 EnMin= -232.951431612635     IErMin=13 ErrMin= 7.90D-08
 ErrMax= 7.90D-08  0.00D+00 EMaxC= 1.00D-01 BMatC= 1.03D-11 BMatP= 1.42D-10
 IDIUse=1 WtCom= 1.00D+00 WtEn= 0.00D+00
 Coeff-Com: -0.484D-05 0.102D-04 0.534D-04 0.896D-04 0.232D-05-0.712D-03
 Coeff-Com: -0.647D-05 0.261D-02 0.473D-02-0.273D-01-0.599D-01 0.115D+00
 Coeff-Com:  0.965D+00
 Coeff:     -0.484D-05 0.102D-04 0.534D-04 0.896D-04 0.232D-05-0.712D-03
 Coeff:     -0.647D-05 0.261D-02 0.473D-02-0.273D-01-0.599D-01 0.115D+00
 Coeff:      0.965D+00
 Gap=     0.270 Goal=   None    Shift=    0.000
 Gap=     0.343 Goal=   None    Shift=    0.000
 RMSDP=1.35D-08 MaxDP=8.72D-07 DE=-5.06D-11 OVMax= 1.06D-06

 Cycle  14  Pass 1  IDiag  1:
 RMSU=  8.20D-09    CP:  9.70D-01  1.02D+00  9.97D-01  1.09D+00  1.84D+00
                    CP:  1.85D+00  1.43D+00  1.42D+00  1.14D+00  1.35D+00
                    CP:  1.23D+00  1.21D+00  1.13D+00
 E= -232.951431612643     Delta-E=       -0.000000000009 Rises=F Damp=F
 DIIS: error= 2.61D-08 at cycle  14 NSaved=  14.
 NSaved=14 IEnMin=14 EnMin= -232.951431612643     IErMin=14 ErrMin= 2.61D-08
 ErrMax= 2.61D-08  0.00D+00 EMaxC= 1.00D-01 BMatC= 8.21D-13 BMatP= 1.03D-11
 IDIUse=1 WtCom= 1.00D+00 WtEn= 0.00D+00
 Coeff-Com:  0.315D-06-0.342D-06 0.490D-05 0.120D-04 0.594D-05-0.752D-04
 Coeff-Com: -0.802D-04 0.634D-05 0.157D-02 0.405D-02-0.254D-01-0.641D-01
 Coeff-Com:  0.715D-01 0.101D+01
 Coeff:      0.315D-06-0.342D-06 0.490D-05 0.120D-04 0.594D-05-0.752D-04
 Coeff:     -0.802D-04 0.634D-05 0.157D-02 0.405D-02-0.254D-01-0.641D-01
 Coeff:      0.715D-01 0.101D+01
 Gap=     0.270 Goal=   None    Shift=    0.000
 Gap=     0.343 Goal=   None    Shift=    0.000
 RMSDP=5.03D-09 MaxDP=2.68D-07 DE=-8.58D-12 OVMax= 4.31D-07

 SCF Done:  E(UM062X) =  -232.951431613     A.U. after   14 cycles
            NFock= 14  Conv=0.50D-08     -V/T= 2.0047
 <Sx>= 0.0000 <Sy>= 0.0000 <Sz>= 0.5000 <S**2>= 0.7545 S= 0.5022
 <L.S>= 0.000000000000E+00
 KE= 2.318687568362D+02 PE=-9.241983251216D+02 EE= 2.685473297534D+02
 Annihilation of the first spin contaminant:
 S**2 before annihilation     0.7545,   after     0.7500
 Leave Link  502 at Tue Apr  9 01:41:31 2019, MaxMem=   671088640 cpu:             908.5 elap:              45.7
 (Enter /shared/centos7/gaussian/g16/l801.exe)
 DoSCS=F DFT=T ScalE2(SS,OS)=  1.000000  1.000000
 Range of M.O.s used for correlation:     1   251
 NBasis=   251 NAE=    21 NBE=    20 NFC=     0 NFV=     0
 NROrb=    251 NOA=    21 NOB=    20 NVA=   230 NVB=   231

 **** Warning!!: The largest alpha MO coefficient is  0.54696450D+02


 **** Warning!!: The largest beta MO coefficient is  0.55960708D+02

 Leave Link  801 at Tue Apr  9 01:41:31 2019, MaxMem=   671088640 cpu:               0.3 elap:               0.0
 (Enter /shared/centos7/gaussian/g16/l1101.exe)
 Using compressed storage, NAtomX=    14.
 Will process     15 centers per pass.
 Leave Link 1101 at Tue Apr  9 01:41:32 2019, MaxMem=   671088640 cpu:               6.8 elap:               0.4
 (Enter /shared/centos7/gaussian/g16/l1102.exe)
 Symmetrizing basis deriv contribution to polar:
 IMax=3 JMax=2 DiffMx= 0.00D+00
 Leave Link 1102 at Tue Apr  9 01:41:32 2019, MaxMem=   671088640 cpu:               0.4 elap:               0.0
 (Enter /shared/centos7/gaussian/g16/l1110.exe)
 Forming Gx(P) for the SCF density, NAtomX=    14.
 Integral derivatives from FoFJK, PRISM(SPDF).
 Do as many integral derivatives as possible in FoFJK.
 G2DrvN: MDV=     671087496.
 G2DrvN: will do    15 centers at a time, making    1 passes.
 Calling FoFCou, ICntrl=  3107 FMM=F I1Cent=   0 AccDes= 0.00D+00.
 FoFJK:  IHMeth= 1 ICntrl=    3107 DoSepK=F KAlg= 0 I1Cent=           0 FoldK=F
 IRaf=         0 NMat=       1 IRICut=       1 DoRegI=T DoRafI=F ISym2E= 0 IDoP0=0 IntGTp=1.
 FoFCou: FMM=F IPFlag=           0 FMFlag=      100000 FMFlg1=           0
         NFxFlg=           0 DoJE=F BraDBF=F KetDBF=F FulRan=T
         wScrn=  0.000000 ICntrl=      3107 IOpCl=  1 I1Cent=           0 NGrid=           0
         NMat0=    1 NMatS0=      1 NMatT0=    0 NMatD0=    1 NMtDS0=    0 NMtDT0=    0
 Symmetry not used in FoFCou.
 End of G2Drv F.D. properties file   721 does not exist.
 End of G2Drv F.D. properties file   722 does not exist.
 End of G2Drv F.D. properties file   788 does not exist.
 Leave Link 1110 at Tue Apr  9 01:43:01 2019, MaxMem=   671088640 cpu:            1786.1 elap:              89.3
 (Enter /shared/centos7/gaussian/g16/l1002.exe)
 Minotr:  UHF open shell wavefunction.
          IDoAtm=11111111111111
          Direct CPHF calculation.
          Differentiating once with respect to nuclear coordinates.
          Requested convergence is 1.0D-08 RMS, and 1.0D-07 maximum.
          Secondary convergence is 1.0D-12 RMS, and 1.0D-12 maximum.
          NewPWx=T KeepS1=F KeepF1=F KeepIn=T MapXYZ=F SortEE=F KeepMc=T.
         4243 words used for storage of precomputed grid.
 Two-electron integrals replicated using symmetry.
          MDV=     671088640 using IRadAn=       1.
          Solving linear equations simultaneously, MaxMat=     380.
 FoF2E skips out because all densities are zero.
 CalDSu exits because no D1Ps are significant.
 FoFJK:  IHMeth= 1 ICntrl=       0 DoSepK=F KAlg= 0 I1Cent=           0 FoldK=F
 IRaf= 990000000 NMat=      42 IRICut=     105 DoRegI=T DoRafI=T ISym2E= 2 IDoP0=3 IntGTp=3.
 FoFCou: FMM=F IPFlag=           0 FMFlag=      100000 FMFlg1=           0
         NFxFlg=           0 DoJE=F BraDBF=F KetDBF=F FulRan=T
         wScrn=  0.000000 ICntrl=         0 IOpCl=  1 I1Cent=           0 NGrid=           0
         NMat0=   42 NMatS0=     42 NMatT0=    0 NMatD0=   42 NMtDS0=    0 NMtDT0=    0
 Integrals replicated using symmetry in FoFCou.
 Raff kept on since  97.65% of shell-pairs survive, threshold=   0.20 IRatSp=98.
          There are    45 degrees of freedom in the 1st order CPHF.  IDoFFX=6 NUNeed=     0.
     39 vectors produced by pass  0 Test12= 2.10D-14 2.22D-09 XBig12= 1.42D-01 6.93D-02.
 AX will form    39 AO Fock derivatives at one time.
     39 vectors produced by pass  1 Test12= 2.10D-14 2.22D-09 XBig12= 9.14D-03 3.56D-02.
     39 vectors produced by pass  2 Test12= 2.10D-14 2.22D-09 XBig12= 3.83D-04 4.56D-03.
     39 vectors produced by pass  3 Test12= 2.10D-14 2.22D-09 XBig12= 5.44D-06 4.72D-04.
     39 vectors produced by pass  4 Test12= 2.10D-14 2.22D-09 XBig12= 7.97D-08 4.27D-05.
     39 vectors produced by pass  5 Test12= 2.10D-14 2.22D-09 XBig12= 1.07D-09 3.82D-06.
     39 vectors produced by pass  6 Test12= 2.10D-14 2.22D-09 XBig12= 8.11D-12 2.46D-07.
     14 vectors produced by pass  7 Test12= 2.10D-14 2.22D-09 XBig12= 6.76D-14 2.19D-08.
 InvSVY:  IOpt=1 It=  1 EMax= 3.11D-15
 Solved reduced A of dimension   287 with    39 vectors.
 End of Minotr F.D. properties file   721 does not exist.
 End of Minotr F.D. properties file   722 does not exist.
 End of Minotr F.D. properties file   788 does not exist.
 Leave Link 1002 at Tue Apr  9 01:45:25 2019, MaxMem=   671088640 cpu:            2872.1 elap:             143.6
 (Enter /shared/centos7/gaussian/g16/l601.exe)
 Copying SCF densities to generalized density rwf, IOpCl= 1 IROHF=0.

 **********************************************************************

            Population analysis using the SCF density.

 **********************************************************************

 Orbital symmetries:
 Alpha Orbitals:
       Occupied  (A) (A) (A) (A) (A) (A) (A) (A) (A) (A) (A) (A)
                 (A) (A) (A) (A) (A) (A) (A) (A) (A)
       Virtual   (A) (A) (A) (A) (A) (A) (A) (A) (A) (A) (A) (A)
                 (A) (A) (A) (A) (A) (A) (A) (A) (A) (A) (A) (A)
                 (A) (A) (A) (A) (A) (A) (A) (A) (A) (A) (A) (A)
                 (A) (A) (A) (A) (A) (A) (A) (A) (A) (A) (A) (A)
                 (A) (A) (A) (A) (A) (A) (A) (A) (A) (A) (A) (A)
                 (A) (A) (A) (A) (A) (A) (A) (A) (A) (A) (A) (A)
                 (A) (A) (A) (A) (A) (A) (A) (A) (A) (A) (A) (A)
                 (A) (A) (A) (A) (A) (A) (A) (A) (A) (A) (A) (A)
                 (A) (A) (A) (A) (A) (A) (A) (A) (A) (A) (A) (A)
                 (A) (A) (A) (A) (A) (A) (A) (A) (A) (A) (A) (A)
                 (A) (A) (A) (A) (A) (A) (A) (A) (A) (A) (A) (A)
                 (A) (A) (A) (A) (A) (A) (A) (A) (A) (A) (A) (A)
                 (A) (A) (A) (A) (A) (A) (A) (A) (A) (A) (A) (A)
                 (A) (A) (A) (A) (A) (A) (A) (A) (A) (A) (A) (A)
                 (A) (A) (A) (A) (A) (A) (A) (A) (A) (A) (A) (A)
                 (A) (A) (A) (A) (A) (A) (A) (A) (A) (A) (A) (A)
                 (A) (A) (A) (A) (A) (A) (A) (A) (A) (A) (A) (A)
                 (A) (A) (A) (A) (A) (A) (A) (A) (A) (A) (A) (A)
                 (A) (A) (A) (A) (A) (A) (A) (A) (A) (A) (A) (A)
                 (A) (A)
 Beta  Orbitals:
       Occupied  (A) (A) (A) (A) (A) (A) (A) (A) (A) (A) (A) (A)
                 (A) (A) (A) (A) (A) (A) (A) (A)
       Virtual   (A) (A) (A) (A) (A) (A) (A) (A) (A) (A) (A) (A)
                 (A) (A) (A) (A) (A) (A) (A) (A) (A) (A) (A) (A)
                 (A) (A) (A) (A) (A) (A) (A) (A) (A) (A) (A) (A)
                 (A) (A) (A) (A) (A) (A) (A) (A) (A) (A) (A) (A)
                 (A) (A) (A) (A) (A) (A) (A) (A) (A) (A) (A) (A)
                 (A) (A) (A) (A) (A) (A) (A) (A) (A) (A) (A) (A)
                 (A) (A) (A) (A) (A) (A) (A) (A) (A) (A) (A) (A)
                 (A) (A) (A) (A) (A) (A) (A) (A) (A) (A) (A) (A)
                 (A) (A) (A) (A) (A) (A) (A) (A) (A) (A) (A) (A)
                 (A) (A) (A) (A) (A) (A) (A) (A) (A) (A) (A) (A)
                 (A) (A) (A) (A) (A) (A) (A) (A) (A) (A) (A) (A)
                 (A) (A) (A) (A) (A) (A) (A) (A) (A) (A) (A) (A)
                 (A) (A) (A) (A) (A) (A) (A) (A) (A) (A) (A) (A)
                 (A) (A) (A) (A) (A) (A) (A) (A) (A) (A) (A) (A)
                 (A) (A) (A) (A) (A) (A) (A) (A) (A) (A) (A) (A)
                 (A) (A) (A) (A) (A) (A) (A) (A) (A) (A) (A) (A)
                 (A) (A) (A) (A) (A) (A) (A) (A) (A) (A) (A) (A)
                 (A) (A) (A) (A) (A) (A) (A) (A) (A) (A) (A) (A)
                 (A) (A) (A) (A) (A) (A) (A) (A) (A) (A) (A) (A)
                 (A) (A) (A)
 The electronic state is 2-A.
 Alpha  occ. eigenvalues --  -19.65243 -10.59354 -10.58830 -10.53436 -10.53182
 Alpha  occ. eigenvalues --   -1.19543  -0.88717  -0.78480  -0.77699  -0.64541
 Alpha  occ. eigenvalues --   -0.59281  -0.55219  -0.53336  -0.48697  -0.46632
 Alpha  occ. eigenvalues --   -0.46237  -0.43287  -0.42843  -0.39601  -0.37215
 Alpha  occ. eigenvalues --   -0.25608
 Alpha virt. eigenvalues --    0.01427   0.03139   0.03430   0.03839   0.06258
 Alpha virt. eigenvalues --    0.06578   0.07016   0.07415   0.07920   0.09876
 Alpha virt. eigenvalues --    0.10734   0.11284   0.12303   0.13401   0.14430
 Alpha virt. eigenvalues --    0.15073   0.17110   0.20417   0.21004   0.21895
 Alpha virt. eigenvalues --    0.23435   0.23826   0.24890   0.26235   0.26622
 Alpha virt. eigenvalues --    0.27417   0.28291   0.29424   0.31618   0.32749
 Alpha virt. eigenvalues --    0.33422   0.35308   0.38016   0.41082   0.43133
 Alpha virt. eigenvalues --    0.45265   0.47107   0.48359   0.49750   0.51085
 Alpha virt. eigenvalues --    0.52912   0.54354   0.54875   0.57073   0.57297
 Alpha virt. eigenvalues --    0.58341   0.58494   0.60088   0.60722   0.61677
 Alpha virt. eigenvalues --    0.63646   0.65213   0.67583   0.68635   0.70727
 Alpha virt. eigenvalues --    0.71636   0.72423   0.75399   0.78798   0.81451
 Alpha virt. eigenvalues --    0.82345   0.86422   0.90003   0.93108   0.94828
 Alpha virt. eigenvalues --    0.95615   0.97461   0.99778   1.02008   1.03226
 Alpha virt. eigenvalues --    1.06184   1.06962   1.07543   1.12264   1.14077
 Alpha virt. eigenvalues --    1.15371   1.17910   1.18153   1.21498   1.23242
 Alpha virt. eigenvalues --    1.24171   1.24762   1.26873   1.28357   1.30106
 Alpha virt. eigenvalues --    1.31223   1.32417   1.34050   1.34676   1.36160
 Alpha virt. eigenvalues --    1.37112   1.38654   1.41741   1.43709   1.45543
 Alpha virt. eigenvalues --    1.45744   1.50292   1.52107   1.53602   1.54694
 Alpha virt. eigenvalues --    1.56332   1.58831   1.60883   1.62321   1.64738
 Alpha virt. eigenvalues --    1.66401   1.69944   1.71903   1.79905   1.96274
 Alpha virt. eigenvalues --    2.08603   2.10812   2.28682   2.35096   2.40544
 Alpha virt. eigenvalues --    2.46099   2.49205   2.53831   2.54988   2.57667
 Alpha virt. eigenvalues --    2.65111   2.66102   2.72061   2.74746   2.83903
 Alpha virt. eigenvalues --    2.86585   2.87316   2.93335   2.94215   2.95943
 Alpha virt. eigenvalues --    2.96998   2.97275   3.00874   3.01756   3.03272
 Alpha virt. eigenvalues --    3.08380   3.10827   3.11412   3.13920   3.15289
 Alpha virt. eigenvalues --    3.17664   3.20295   3.23981   3.25141   3.27698
 Alpha virt. eigenvalues --    3.31346   3.32845   3.34567   3.35952   3.37695
 Alpha virt. eigenvalues --    3.38252   3.42071   3.44690   3.48665   3.51387
 Alpha virt. eigenvalues --    3.53063   3.58774   3.59129   3.60734   3.62327
 Alpha virt. eigenvalues --    3.64590   3.70882   3.71974   3.74267   3.75376
 Alpha virt. eigenvalues --    3.81040   3.83012   3.84715   3.85999   3.87857
 Alpha virt. eigenvalues --    3.91363   3.93119   3.95463   3.98293   4.00056
 Alpha virt. eigenvalues --    4.03119   4.04555   4.08274   4.11489   4.13577
 Alpha virt. eigenvalues --    4.17056   4.17951   4.22103   4.23830   4.24005
 Alpha virt. eigenvalues --    4.26899   4.28350   4.31195   4.33471   4.36033
 Alpha virt. eigenvalues --    4.41504   4.43843   4.47538   4.49421   4.52310
 Alpha virt. eigenvalues --    4.55772   4.58176   4.59763   4.65684   4.67935
 Alpha virt. eigenvalues --    4.82848   5.08085   5.16001   5.23500   5.27747
 Alpha virt. eigenvalues --    5.35417   5.39132   5.45292   5.47384   5.48751
 Alpha virt. eigenvalues --    5.52261   5.54904   5.57093   5.57729   5.68195
 Alpha virt. eigenvalues --    5.79756   5.96048   6.24990   6.49564   6.78755
 Alpha virt. eigenvalues --    7.16180   7.23464   7.33503   7.68802   7.73491
 Alpha virt. eigenvalues --   24.26051  24.29411  24.32592  24.53161  50.19285
  Beta  occ. eigenvalues --  -19.64836 -10.59366 -10.58015 -10.53426 -10.53170
  Beta  occ. eigenvalues --   -1.18262  -0.88422  -0.78344  -0.75626  -0.63263
  Beta  occ. eigenvalues --   -0.58765  -0.54310  -0.51453  -0.48244  -0.46175
  Beta  occ. eigenvalues --   -0.45700  -0.42497  -0.42347  -0.37836  -0.36108
  Beta virt. eigenvalues --   -0.01793   0.01321   0.02880   0.03563   0.03897
  Beta virt. eigenvalues --    0.06195   0.06605   0.07061   0.07449   0.08218
  Beta virt. eigenvalues --    0.09502   0.10840   0.11418   0.12376   0.12990
  Beta virt. eigenvalues --    0.14070   0.15409   0.17221   0.20437   0.20705
  Beta virt. eigenvalues --    0.22212   0.23908   0.24536   0.25095   0.26394
  Beta virt. eigenvalues --    0.26781   0.27394   0.28328   0.29609   0.31652
  Beta virt. eigenvalues --    0.32811   0.33828   0.35293   0.37624   0.41177
  Beta virt. eigenvalues --    0.43232   0.45377   0.47376   0.48587   0.50087
  Beta virt. eigenvalues --    0.51686   0.53225   0.54219   0.54923   0.57194
  Beta virt. eigenvalues --    0.57456   0.58384   0.59173   0.60115   0.61147
  Beta virt. eigenvalues --    0.61926   0.63607   0.65371   0.67664   0.68785
  Beta virt. eigenvalues --    0.70787   0.72024   0.72594   0.75430   0.79413
  Beta virt. eigenvalues --    0.81605   0.82549   0.86662   0.90107   0.93048
  Beta virt. eigenvalues --    0.94428   0.95661   0.97483   0.99999   1.02295
  Beta virt. eigenvalues --    1.03244   1.06333   1.06964   1.07816   1.12057
  Beta virt. eigenvalues --    1.14155   1.15553   1.17974   1.18227   1.21435
  Beta virt. eigenvalues --    1.23309   1.24294   1.24834   1.27083   1.28430
  Beta virt. eigenvalues --    1.30282   1.31357   1.32616   1.34116   1.34852
  Beta virt. eigenvalues --    1.36159   1.37058   1.38718   1.41781   1.44109
  Beta virt. eigenvalues --    1.45635   1.46095   1.50457   1.52467   1.53925
  Beta virt. eigenvalues --    1.54937   1.56701   1.59022   1.61157   1.62414
  Beta virt. eigenvalues --    1.64800   1.66714   1.70143   1.72417   1.79917
  Beta virt. eigenvalues --    1.97126   2.08979   2.11215   2.29438   2.35431
  Beta virt. eigenvalues --    2.40682   2.46759   2.50077   2.54432   2.55279
  Beta virt. eigenvalues --    2.58069   2.65548   2.66263   2.72232   2.74960
  Beta virt. eigenvalues --    2.84153   2.87119   2.89805   2.94131   2.95822
  Beta virt. eigenvalues --    2.97377   2.97725   2.99458   3.01796   3.03653
  Beta virt. eigenvalues --    3.04755   3.09594   3.12157   3.13063   3.14996
  Beta virt. eigenvalues --    3.16162   3.20467   3.21785   3.25603   3.26851
  Beta virt. eigenvalues --    3.29358   3.32781   3.33998   3.35799   3.36803
  Beta virt. eigenvalues --    3.38266   3.40805   3.43508   3.44904   3.51320
  Beta virt. eigenvalues --    3.53346   3.55049   3.59296   3.59989   3.62258
  Beta virt. eigenvalues --    3.63724   3.66847   3.71681   3.72457   3.74823
  Beta virt. eigenvalues --    3.76132   3.82097   3.83767   3.85439   3.86987
  Beta virt. eigenvalues --    3.88436   3.92273   3.94533   3.95746   3.98734
  Beta virt. eigenvalues --    4.00903   4.04549   4.04822   4.09619   4.12366
  Beta virt. eigenvalues --    4.14460   4.17522   4.18235   4.22313   4.24130
  Beta virt. eigenvalues --    4.24366   4.28054   4.29421   4.31963   4.34239
  Beta virt. eigenvalues --    4.36473   4.42085   4.44386   4.47967   4.50042
  Beta virt. eigenvalues --    4.52748   4.55984   4.58419   4.59976   4.65883
  Beta virt. eigenvalues --    4.68294   4.82955   5.11507   5.16350   5.24770
  Beta virt. eigenvalues --    5.28326   5.36026   5.41515   5.45736   5.48626
  Beta virt. eigenvalues --    5.49857   5.52520   5.55361   5.57370   5.57902
  Beta virt. eigenvalues --    5.68956   5.80072   5.96742   6.25091   6.50256
  Beta virt. eigenvalues --    6.78982   7.17141   7.24517   7.34390   7.69165
  Beta virt. eigenvalues --    7.73370  24.26055  24.30812  24.32605  24.53138
  Beta virt. eigenvalues --   50.18994
          Condensed to atoms (all electrons):
               1          2          3          4          5          6
     1  O    8.070445   0.197954  -0.074921  -0.064074   0.101020  -0.070979
     2  C    0.197954   5.766322  -0.022668  -0.010663  -0.127863   0.496041
     3  C   -0.074921  -0.022668   5.284006   0.022502   0.014732  -0.044824
     4  C   -0.064074  -0.010663   0.022502   5.241419  -0.024929  -0.048309
     5  C    0.101020  -0.127863   0.014732  -0.024929   5.548200   0.005206
     6  H   -0.070979   0.496041  -0.044824  -0.048309   0.005206   0.527264
     7  H   -0.001620  -0.034519   0.409443   0.017676  -0.000893  -0.007128
     8  H    0.011713  -0.070207   0.440985  -0.002373   0.002624  -0.005241
     9  H   -0.011916   0.011494   0.397792  -0.019170  -0.008936   0.006208
    10  H   -0.017329   0.036764  -0.031614   0.392427  -0.005125   0.005793
    11  H    0.000399  -0.046153   0.020347   0.421483  -0.000883  -0.009103
    12  H    0.011785  -0.095623   0.011956   0.443287   0.004937  -0.002785
    13  H   -0.057359   0.001625  -0.000920   0.005557   0.430025  -0.000042
    14  H   -0.046383   0.067109  -0.015705  -0.032457   0.363380  -0.001073
               7          8          9         10         11         12
     1  O   -0.001620   0.011713  -0.011916  -0.017329   0.000399   0.011785
     2  C   -0.034519  -0.070207   0.011494   0.036764  -0.046153  -0.095623
     3  C    0.409443   0.440985   0.397792  -0.031614   0.020347   0.011956
     4  C    0.017676  -0.002373  -0.019170   0.392427   0.421483   0.443287
     5  C   -0.000893   0.002624  -0.008936  -0.005125  -0.000883   0.004937
     6  H   -0.007128  -0.005241   0.006208   0.005793  -0.009103  -0.002785
     7  H    0.517303  -0.020115  -0.029442  -0.000321  -0.000360   0.000554
     8  H   -0.020115   0.535918  -0.031546   0.000917   0.000322  -0.000110
     9  H   -0.029442  -0.031546   0.550010   0.000930  -0.000238  -0.000620
    10  H   -0.000321   0.000917   0.000930   0.538096  -0.025602  -0.032134
    11  H   -0.000360   0.000322  -0.000238  -0.025602   0.512336  -0.021982
    12  H    0.000554  -0.000110  -0.000620  -0.032134  -0.021982   0.556584
    13  H   -0.000119   0.000006   0.000441   0.000185  -0.000135   0.000047
    14  H    0.000214  -0.000144  -0.001800  -0.006686   0.000734  -0.000424
              13         14
     1  O   -0.057359  -0.046383
     2  C    0.001625   0.067109
     3  C   -0.000920  -0.015705
     4  C    0.005557  -0.032457
     5  C    0.430025   0.363380
     6  H   -0.000042  -0.001073
     7  H   -0.000119   0.000214
     8  H    0.000006  -0.000144
     9  H    0.000441  -0.001800
    10  H    0.000185  -0.006686
    11  H   -0.000135   0.000734
    12  H    0.000047  -0.000424
    13  H    0.502421  -0.032850
    14  H   -0.032850   0.573277
          Atomic-Atomic Spin Densities.
               1          2          3          4          5          6
     1  O    0.262285   0.032923  -0.019535  -0.001969  -0.209311  -0.000108
     2  C    0.032923   0.010128   0.012089  -0.023927  -0.020409   0.001458
     3  C   -0.019535   0.012089   0.047929  -0.031972  -0.001679  -0.002087
     4  C   -0.001969  -0.023927  -0.031972   0.080143  -0.010387   0.002061
     5  C   -0.209311  -0.020409  -0.001679  -0.010387   1.249606  -0.000302
     6  H   -0.000108   0.001458  -0.002087   0.002061  -0.000302  -0.001590
     7  H    0.001219  -0.002290  -0.002306   0.002293   0.000221   0.000204
     8  H    0.000393   0.000849  -0.002658   0.000702   0.000184  -0.000054
     9  H    0.000240   0.003879  -0.005341   0.002518  -0.000565  -0.000105
    10  H    0.001086   0.004344   0.001947   0.000827  -0.005972  -0.000349
    11  H    0.000261   0.001108   0.002933  -0.005254  -0.000427   0.000051
    12  H   -0.000356  -0.000543  -0.001092  -0.002008   0.001972  -0.000055
    13  H    0.000535  -0.000529   0.000239   0.000507  -0.014152   0.000013
    14  H   -0.002204   0.007663   0.002985  -0.002095  -0.044648   0.000142
               7          8          9         10         11         12
     1  O    0.001219   0.000393   0.000240   0.001086   0.000261  -0.000356
     2  C   -0.002290   0.000849   0.003879   0.004344   0.001108  -0.000543
     3  C   -0.002306  -0.002658  -0.005341   0.001947   0.002933  -0.001092
     4  C    0.002293   0.000702   0.002518   0.000827  -0.005254  -0.002008
     5  C    0.000221   0.000184  -0.000565  -0.005972  -0.000427   0.001972
     6  H    0.000204  -0.000054  -0.000105  -0.000349   0.000051  -0.000055
     7  H    0.000202   0.000252   0.000655  -0.000012  -0.000016   0.000016
     8  H    0.000252  -0.001059   0.000355  -0.000057  -0.000011   0.000160
     9  H    0.000655   0.000355  -0.002643  -0.000192  -0.000016  -0.000027
    10  H   -0.000012  -0.000057  -0.000192  -0.013145   0.000418   0.000422
    11  H   -0.000016  -0.000011  -0.000016   0.000418  -0.000076   0.000137
    12  H    0.000016   0.000160  -0.000027   0.000422   0.000137   0.000520
    13  H    0.000026  -0.000006   0.000023  -0.000085   0.000011  -0.000008
    14  H   -0.000230  -0.000065   0.000196   0.002153  -0.000019  -0.000316
              13         14
     1  O    0.000535  -0.002204
     2  C   -0.000529   0.007663
     3  C    0.000239   0.002985
     4  C    0.000507  -0.002095
     5  C   -0.014152  -0.044648
     6  H    0.000013   0.000142
     7  H    0.000026  -0.000230
     8  H   -0.000006  -0.000065
     9  H    0.000023   0.000196
    10  H   -0.000085   0.002153
    11  H    0.000011  -0.000019
    12  H   -0.000008  -0.000316
    13  H   -0.014123   0.010462
    14  H    0.010462   0.007053
 Mulliken charges and spin densities:
               1          2
     1  O   -0.048734   0.065458
     2  C   -0.169614   0.026743
     3  C   -0.411111   0.001451
     4  C   -0.342375   0.011439
     5  C   -0.301495   0.944132
     6  H    0.148971  -0.000720
     7  H    0.149327   0.000234
     8  H    0.137251  -0.001014
     9  H    0.136791  -0.001022
    10  H    0.143700  -0.008616
    11  H    0.148836  -0.000898
    12  H    0.124527  -0.001178
    13  H    0.151119  -0.017086
    14  H    0.132807  -0.018922
 Sum of Mulliken charges =  -0.00000   1.00000
 Mulliken charges and spin densities with hydrogens summed into heavy atoms:
               1          2
     1  O   -0.048734   0.065458
     2  C   -0.020643   0.026023
     3  C    0.012258  -0.000351
     4  C    0.074688   0.000747
     5  C   -0.017569   0.908124
 APT charges:
               1
     1  O   -0.047169
     2  C   -0.393045
     3  C   -1.126147
     4  C   -1.095523
     5  C   -0.831270
     6  H    0.433389
     7  H    0.404749
     8  H    0.441081
     9  H    0.289202
    10  H    0.292425
    11  H    0.420301
    12  H    0.415702
    13  H    0.550231
    14  H    0.246075
 Sum of APT charges =  -0.00000
 APT charges with hydrogens summed into heavy atoms:
               1
     1  O   -0.047169
     2  C    0.040344
     3  C    0.008885
     4  C    0.032905
     5  C   -0.034964
 Electronic spatial extent (au):  <R**2>=            445.2503
 Charge=             -0.0000 electrons
 Dipole moment (field-independent basis, Debye):
    X=              1.2106    Y=             -0.3295    Z=              0.7659  Tot=              1.4699
 Quadrupole moment (field-independent basis, Debye-Ang):
   XX=            -32.6053   YY=            -33.8432   ZZ=            -33.5316
   XY=              1.1225   XZ=             -1.6276   YZ=             -0.6578
 Traceless Quadrupole moment (field-independent basis, Debye-Ang):
   XX=              0.7214   YY=             -0.5165   ZZ=             -0.2049
   XY=              1.1225   XZ=             -1.6276   YZ=             -0.6578
 Octapole moment (field-independent basis, Debye-Ang**2):
  XXX=             -3.0749  YYY=             -1.4595  ZZZ=             -2.6986  XYY=              0.6352
  XXY=             -3.3897  XXZ=             -0.4547  XZZ=              0.8491  YZZ=             -0.4803
  YYZ=             -2.9870  XYZ=              0.9850
 Hexadecapole moment (field-independent basis, Debye-Ang**3):
 XXXX=           -281.7454 YYYY=           -211.7989 ZZZZ=           -101.7724 XXXY=             10.7326
 XXXZ=              4.9551 YYYX=              2.3584 YYYZ=             -0.4915 ZZZX=             -1.0680
 ZZZY=             -1.4947 XXYY=            -91.1804 XXZZ=            -71.7245 YYZZ=            -52.8544
 XXYZ=             -0.9763 YYXZ=              0.8389 ZZXY=              1.0903
 N-N= 1.908308069193D+02 E-N=-9.241983246592D+02  KE= 2.318687568362D+02
  Exact polarizability:   0.000   0.000   0.000   0.000   0.000   0.000
 Approx polarizability:  65.353  -0.192  58.647  -2.385   0.220  62.692
                          Isotropic Fermi Contact Couplings
        Atom                 a.u.       MegaHertz       Gauss      10(-4) cm-1
     1  O(17)              0.03672     -22.25733      -7.94197      -7.42425
     2  C(13)             -0.00501      -5.63680      -2.01135      -1.88023
     3  C(13)              0.00228       2.56408       0.91493       0.85529
     4  C(13)              0.00026       0.29581       0.10555       0.09867
     5  C(13)              0.33674     378.55701     135.07856     126.27303
     6  H(1)              -0.00045      -2.01473      -0.71891      -0.67204
     7  H(1)              -0.00017      -0.75594      -0.26974      -0.25215
     8  H(1)              -0.00043      -1.93317      -0.68980      -0.64484
     9  H(1)               0.00011       0.48714       0.17382       0.16249
    10  H(1)               0.00008       0.34416       0.12281       0.11480
    11  H(1)              -0.00026      -1.15170      -0.41096      -0.38417
    12  H(1)              -0.00053      -2.34886      -0.83813      -0.78349
    13  H(1)              -0.00164      -7.34910      -2.62234      -2.45140
    14  H(1)              -0.00011      -0.48103      -0.17164      -0.16045
 --------------------------------------------------------
       Center         ----  Spin Dipole Couplings  ----
                      3XX-RR        3YY-RR        3ZZ-RR
 --------------------------------------------------------
     1   Atom       -0.379767      0.840989     -0.461221
     2   Atom        0.018440     -0.011656     -0.006785
     3   Atom       -0.000376     -0.002328      0.002704
     4   Atom        0.001716     -0.003874      0.002158
     5   Atom       -0.452012      0.922487     -0.470475
     6   Atom        0.006577     -0.004818     -0.001759
     7   Atom        0.001327      0.002051     -0.003378
     8   Atom        0.004474     -0.002080     -0.002393
     9   Atom        0.005534     -0.002684     -0.002850
    10   Atom        0.013694     -0.006466     -0.007228
    11   Atom        0.001972      0.001002     -0.002974
    12   Atom        0.005750     -0.002906     -0.002844
    13   Atom        0.048492      0.004288     -0.052780
    14   Atom       -0.027069     -0.001811      0.028880
 --------------------------------------------------------
                        XY            XZ            YZ
 --------------------------------------------------------
     1   Atom       -0.167790      0.022673     -0.003312
     2   Atom       -0.000759     -0.003951      0.001493
     3   Atom       -0.006482      0.002289     -0.009554
     4   Atom        0.000742     -0.008298      0.014724
     5   Atom       -0.147554     -0.003771      0.093252
     6   Atom        0.000091     -0.007091      0.000228
     7   Atom       -0.004932     -0.000748      0.001089
     8   Atom       -0.001878      0.000397     -0.000341
     9   Atom       -0.006347      0.002883     -0.002261
    10   Atom        0.012035      0.004607      0.004165
    11   Atom        0.005728     -0.002584     -0.002760
    12   Atom        0.002079      0.001046      0.000807
    13   Atom        0.032231      0.018319      0.006257
    14   Atom       -0.015368      0.047521     -0.021575
 --------------------------------------------------------


 ---------------------------------------------------------------------------------
              Anisotropic Spin Dipole Couplings in Principal Axis System
 ---------------------------------------------------------------------------------

       Atom             a.u.   MegaHertz   Gauss  10(-4) cm-1        Axes

              Baa    -0.4686    33.906    12.099    11.310 -0.3136 -0.0378  0.9488
     1 O(17)  Bbb    -0.3951    28.588    10.201     9.536  0.9401  0.1285  0.3158
              Bcc     0.8637   -62.494   -22.299   -20.846 -0.1338  0.9910 -0.0048
 
              Baa    -0.0121    -1.621    -0.578    -0.541 -0.0124  0.9600 -0.2798
     2 C(13)  Bbb    -0.0070    -0.939    -0.335    -0.313  0.1555  0.2783  0.9478
              Bcc     0.0191     2.560     0.913     0.854  0.9878 -0.0318 -0.1528
 
              Baa    -0.0112    -1.503    -0.536    -0.501  0.3723  0.7924  0.4832
     3 C(13)  Bbb    -0.0015    -0.206    -0.073    -0.069  0.8284 -0.0490 -0.5580
              Bcc     0.0127     1.709     0.610     0.570  0.4184 -0.6080  0.6747
 
              Baa    -0.0177    -2.380    -0.849    -0.794 -0.3021  0.7017 -0.6453
     4 C(13)  Bbb     0.0010     0.137     0.049     0.046  0.8691  0.4808  0.1160
              Bcc     0.0167     2.243     0.800     0.748 -0.3917  0.5258  0.7551
 
              Baa    -0.4797   -64.369   -22.968   -21.471 -0.4430 -0.1058  0.8903
     5 C(13)  Bbb    -0.4646   -62.344   -22.246   -20.796  0.8904  0.0644  0.4507
              Bcc     0.9443   126.713    45.214    42.267 -0.1050  0.9923  0.0657
 
              Baa    -0.0059    -3.133    -1.118    -1.045  0.4835 -0.2250  0.8460
     6 H(1)   Bbb    -0.0048    -2.541    -0.907    -0.848  0.1136  0.9744  0.1942
              Bcc     0.0106     5.674     2.025     1.893  0.8679 -0.0022 -0.4966
 
              Baa    -0.0036    -1.943    -0.693    -0.648 -0.2498 -0.3863  0.8879
     7 H(1)   Bbb    -0.0032    -1.686    -0.602    -0.563  0.6958  0.5661  0.4420
              Bcc     0.0068     3.629     1.295     1.210 -0.6734  0.7282  0.1274
 
              Baa    -0.0027    -1.463    -0.522    -0.488  0.1753  0.7960  0.5793
     8 H(1)   Bbb    -0.0023    -1.207    -0.431    -0.402 -0.2004 -0.5472  0.8126
              Bcc     0.0050     2.670     0.953     0.891  0.9639 -0.2586  0.0636
 
              Baa    -0.0063    -3.351    -1.196    -1.118  0.4165  0.8796  0.2298
     9 H(1)   Bbb    -0.0037    -1.987    -0.709    -0.663 -0.3462 -0.0803  0.9347
              Bcc     0.0100     5.337     1.904     1.780  0.8407 -0.4688  0.2711
 
              Baa    -0.0128    -6.843    -2.442    -2.283 -0.3283  0.8669 -0.3750
    10 H(1)   Bbb    -0.0078    -4.140    -1.477    -1.381 -0.3407  0.2616  0.9031
              Bcc     0.0206    10.983     3.919     3.664  0.8810  0.4242  0.2095
 
              Baa    -0.0045    -2.406    -0.858    -0.803 -0.3470  0.6827  0.6431
    11 H(1)   Bbb    -0.0040    -2.117    -0.755    -0.706  0.6302 -0.3381  0.6990
              Bcc     0.0085     4.523     1.614     1.509  0.6946  0.6478 -0.3129
 
              Baa    -0.0038    -2.012    -0.718    -0.671 -0.1134  0.8094 -0.5763
    12 H(1)   Bbb    -0.0026    -1.392    -0.497    -0.464 -0.2356  0.5416  0.8070
              Bcc     0.0064     3.404     1.215     1.135  0.9652  0.2273  0.1293
 
              Baa    -0.0560   -29.878   -10.661    -9.966 -0.1691 -0.0119  0.9855
    13 H(1)   Bbb    -0.0125    -6.664    -2.378    -2.223 -0.4505  0.8903 -0.0666
              Bcc     0.0685    36.543    13.039    12.189  0.8766  0.4553  0.1559
 
              Baa    -0.0544   -29.019   -10.355    -9.680  0.8734  0.0568 -0.4837
    14 H(1)   Bbb    -0.0119    -6.336    -2.261    -2.114  0.1290  0.9307  0.3422
              Bcc     0.0663    35.355    12.615    11.793  0.4696 -0.3613  0.8055
 

 ---------------------------------------------------------------------------------

 No NMR shielding tensors so no spin-rotation constants.
 Leave Link  601 at Tue Apr  9 01:45:25 2019, MaxMem=   671088640 cpu:               8.5 elap:               0.5
 (Enter /shared/centos7/gaussian/g16/l701.exe)
 SCFChk:  SCF convergence  5.03D-09 required  1.00D-08
 ... and contract with generalized density number  0.
 Compute integral second derivatives.
 Entering OneElI...
 Calculate overlap and kinetic energy integrals
    NBasis = 276  MinDer = 2  MaxDer = 2
 Requested accuracy = 0.1000D-12
 PrmmSu-InSpLW:  IPartL=    0 NPrtUS=   20 NPrtUL=    1 DoSpLW=F IThBeg=    0 IThEnd=   19 NThAct=   20.
 PrsmSu:  NPrtUS=  20 ThrOK=T IAlg=1 NPAlg=1 LenDen=           0 ISkipM=0 DoSpLW=F IThBeg=    0 IThEnd=   19.
 Prism:   IPart=     0 DynPar=F LinDyn=F Incr=           1.
 PRISM was handed    33456002 working-precision words and  3655 shell-pairs
 PRISM was handed    33456002 working-precision words and  3655 shell-pairs
 PRISM was handed    33456002 working-precision words and  3655 shell-pairs
 PRISM was handed    33456002 working-precision words and  3655 shell-pairs
 PRISM was handed    33456002 working-precision words and  3655 shell-pairs
 PRISM was handed    33456002 working-precision words and  3655 shell-pairs
 PRISM was handed    33456002 working-precision words and  3655 shell-pairs
 PRISM was handed    33456002 working-precision words and  3655 shell-pairs
 PRISM was handed    33456002 working-precision words and  3655 shell-pairs
 PRISM was handed    33456002 working-precision words and  3655 shell-pairs
 PRISM was handed    33456002 working-precision words and  3655 shell-pairs
 PRISM was handed    33456002 working-precision words and  3655 shell-pairs
 PRISM was handed    33456002 working-precision words and  3655 shell-pairs
 PRISM was handed    33456002 working-precision words and  3655 shell-pairs
 PRISM was handed    33456002 working-precision words and  3655 shell-pairs
 PRISM was handed    33456002 working-precision words and  3655 shell-pairs
 PRISM was handed    33456002 working-precision words and  3655 shell-pairs
 PRISM was handed    33456002 working-precision words and  3655 shell-pairs
 PRISM was handed    33456002 working-precision words and  3655 shell-pairs
 PRISM was handed    33456002 working-precision words and  3655 shell-pairs
 IPart= 10 NShTot=         173 NBatch=          34 AvBLen=         5.1
 IPart=  0 NShTot=         212 NBatch=          53 AvBLen=         4.0
 IPart= 12 NShTot=         171 NBatch=          33 AvBLen=         5.2
 IPart= 14 NShTot=         169 NBatch=          32 AvBLen=         5.3
 IPart= 19 NShTot=         162 NBatch=          29 AvBLen=         5.6
 IPart= 17 NShTot=         164 NBatch=          30 AvBLen=         5.5
 IPart=  5 NShTot=         193 NBatch=          41 AvBLen=         4.7
 IPart=  4 NShTot=         202 NBatch=          46 AvBLen=         4.4
 IPart=  9 NShTot=         187 NBatch=          37 AvBLen=         5.1
 IPart=  6 NShTot=         191 NBatch=          39 AvBLen=         4.9
 IPart=  7 NShTot=         190 NBatch=          38 AvBLen=         5.0
 IPart=  1 NShTot=         211 NBatch=          52 AvBLen=         4.1
 IPart= 13 NShTot=         169 NBatch=          32 AvBLen=         5.3
 IPart= 15 NShTot=         165 NBatch=          31 AvBLen=         5.3
 IPart=  3 NShTot=         203 NBatch=          46 AvBLen=         4.4
 IPart= 11 NShTot=         171 NBatch=          33 AvBLen=         5.2
 IPart=  8 NShTot=         188 NBatch=          37 AvBLen=         5.1
 IPart= 18 NShTot=         164 NBatch=          30 AvBLen=         5.5
 IPart=  2 NShTot=         206 NBatch=          48 AvBLen=         4.3
 IPart= 16 NShTot=         164 NBatch=          30 AvBLen=         5.5
 PrSmSu:  NxtVal=             21.
 Entering OneElI...
 Calculate potential energy integrals
    NBasis = 276  MinDer = 2  MaxDer = 2
 Requested accuracy = 0.1000D-12
 PrmmSu-InSpLW:  IPartL=    0 NPrtUS=   20 NPrtUL=    1 DoSpLW=F IThBeg=    0 IThEnd=   19 NThAct=   20.
 PrsmSu:  NPrtUS=  20 ThrOK=T IAlg=1 NPAlg=1 LenDen=           0 ISkipM=0 DoSpLW=F IThBeg=    0 IThEnd=   19.
 Prism:   IPart=     0 DynPar=F LinDyn=F Incr=          24.
 PRISM was handed    33468282 working-precision words and  3546 shell-pairs
 PRISM was handed    33468282 working-precision words and  3546 shell-pairs
 PRISM was handed    33468282 working-precision words and  3546 shell-pairs
 PRISM was handed    33468282 working-precision words and  3546 shell-pairs
 PRISM was handed    33468282 working-precision words and  3546 shell-pairs
 PRISM was handed    33468282 working-precision words and  3546 shell-pairs
 PRISM was handed    33468282 working-precision words and  3546 shell-pairs
 PRISM was handed    33468282 working-precision words and  3546 shell-pairs
 PRISM was handed    33468282 working-precision words and  3546 shell-pairs
 PRISM was handed    33468282 working-precision words and  3546 shell-pairs
 PRISM was handed    33468282 working-precision words and  3546 shell-pairs
 PRISM was handed    33468282 working-precision words and  3546 shell-pairs
 PRISM was handed    33468282 working-precision words and  3546 shell-pairs
 PRISM was handed    33468282 working-precision words and  3546 shell-pairs
 PRISM was handed    33468282 working-precision words and  3546 shell-pairs
 PRISM was handed    33468282 working-precision words and  3546 shell-pairs
 PRISM was handed    33468282 working-precision words and  3546 shell-pairs
 PRISM was handed    33468282 working-precision words and  3546 shell-pairs
 PRISM was handed    33468282 working-precision words and  3546 shell-pairs
 PRISM was handed    33468282 working-precision words and  3546 shell-pairs
 IPart= 19 NShTot=        2184 NBatch=         156 AvBLen=        14.0
 IPart= 17 NShTot=        2212 NBatch=         158 AvBLen=        14.0
 IPart= 14 NShTot=        2310 NBatch=         165 AvBLen=        14.0
 IPart= 10 NShTot=        2366 NBatch=         169 AvBLen=        14.0
 IPart= 12 NShTot=        2338 NBatch=         167 AvBLen=        14.0
 IPart=  0 NShTot=        2954 NBatch=         211 AvBLen=        14.0
 IPart= 13 NShTot=        2338 NBatch=         167 AvBLen=        14.0
 IPart=  9 NShTot=        2422 NBatch=         173 AvBLen=        14.0
 IPart= 15 NShTot=        2268 NBatch=         162 AvBLen=        14.0
 IPart=  7 NShTot=        2534 NBatch=         181 AvBLen=        14.0
 IPart=  8 NShTot=        2492 NBatch=         178 AvBLen=        14.0
 IPart=  5 NShTot=        2646 NBatch=         189 AvBLen=        14.0
 IPart=  2 NShTot=        2814 NBatch=         201 AvBLen=        14.0
 IPart=  1 NShTot=        2898 NBatch=         207 AvBLen=        14.0
 IPart= 11 NShTot=        2338 NBatch=         167 AvBLen=        14.0
 IPart=  6 NShTot=        2590 NBatch=         185 AvBLen=        14.0
 IPart= 18 NShTot=        2184 NBatch=         156 AvBLen=        14.0
 IPart=  3 NShTot=        2786 NBatch=         199 AvBLen=        14.0
 IPart=  4 NShTot=        2730 NBatch=         195 AvBLen=        14.0
 IPart= 16 NShTot=        2240 NBatch=         160 AvBLen=        14.0
 PrSmSu:  NxtVal=            481.
 Polarizability after L701:
                1             2             3 
      1  0.000000D+00
      2  0.000000D+00  0.000000D+00
      3  0.000000D+00  0.000000D+00  0.000000D+00
 Dipole Derivatives after L701:
                 1             2             3             4             5 
      1  -0.814739D-01 -0.156434D-01 -0.234452D+00 -0.228384D+00  0.816675D-01
      2  -0.231431D-01 -0.922910D-01 -0.428701D-01  0.229510D-01  0.197958D+00
      3  -0.199014D+00 -0.519172D-02  0.322580D-01  0.474254D+00 -0.130486D-01
                 6             7             8             9            10 
      1   0.492678D+00 -0.116503D+01  0.444634D+00 -0.182357D+00 -0.988596D+00
      2  -0.110927D-01  0.281437D+00 -0.138630D+01  0.212206D+00 -0.244009D+00
      3  -0.114871D+01  0.114743D-01  0.425761D-01 -0.827113D+00 -0.115703D-01
                11            12            13            14            15 
      1  -0.487082D+00 -0.193105D+00 -0.146822D+01 -0.724453D+00  0.453909D+00
      2  -0.150261D+01 -0.172383D+00 -0.761459D-01 -0.224674D+00  0.910410D-01
      3   0.518724D-02 -0.795367D+00 -0.142203D-01  0.224516D+00 -0.800919D+00
                16            17            18            19            20 
      1   0.368780D+00  0.317410D-02 -0.337757D+00  0.423744D-01 -0.312228D+00
      2   0.157002D-02  0.183996D+00 -0.198900D-01  0.194123D+00  0.954406D+00
      3  -0.253567D+00 -0.191507D-01  0.747391D+00  0.347218D-01  0.121337D+00
                21            22            23            24            25 
      1  -0.161323D+00  0.109750D+01  0.747700D-01  0.692711D-01  0.439653D-01
      2   0.453606D+00 -0.460714D+00  0.944112D-01 -0.480388D-01  0.188821D+00
      3   0.217466D+00  0.126884D+00  0.144734D-02  0.131330D+00 -0.235136D+00
                26            27            28            29            30 
      1  -0.455180D-01  0.219857D+00  0.116628D+00  0.367676D-01  0.386708D-01
      2   0.174290D+00 -0.474209D+00 -0.351806D+00  0.219877D+00  0.497375D+00
      3  -0.442769D-01  0.649351D+00 -0.316318D+00  0.519322D-01  0.540770D+00
                31            32            33            34            35 
      1   0.709466D-01  0.217204D+00 -0.168875D+00  0.922046D+00  0.224713D-01
      2  -0.142056D+00  0.903936D+00 -0.612133D+00  0.522949D+00  0.147376D+00
      3   0.366951D-01 -0.161864D+00  0.286020D+00  0.200895D+00  0.758697D-02
                36            37            38            39            40 
      1   0.267785D+00  0.131527D+01  0.586869D+00  0.170293D+00 -0.458127D-01
      2   0.192143D+00  0.156470D+00  0.182788D+00  0.366365D-01 -0.704490D-01
      3   0.177684D+00 -0.138627D+00 -0.589050D-01  0.152632D+00  0.283529D+00
                41            42 
      1   0.117367D+00 -0.434596D+00
      2   0.146831D+00 -0.102391D+00
      3  -0.152147D+00  0.637207D+00
 Hessian after L701:
                1             2             3             4             5 
      1  0.367669D+01
      2 -0.245044D+00  0.141215D+02
      3  0.192520D+01 -0.101290D+01  0.944265D+01
      4 -0.171719D+00  0.679922D+00  0.110133D+01  0.129254D+02
      5  0.691804D+00 -0.765789D+01  0.103989D+00 -0.262850D+00  0.168777D+02
      6  0.116073D+01  0.106744D+00 -0.717231D+01 -0.879154D+00 -0.143256D+00
      7  0.231047D+00 -0.465528D+00  0.258973D+00 -0.448015D+01 -0.165118D+01
      8 -0.367054D+00  0.546818D-01 -0.184957D+00 -0.167420D+01 -0.267204D+01
      9  0.261302D+00 -0.219916D+00 -0.872819D-01  0.100128D+01 -0.156608D+01
     10  0.137115D+00  0.552371D+00  0.193353D+00 -0.520196D+01  0.111134D+01
     11  0.462986D+00  0.252419D+00  0.222552D+00  0.111705D+01 -0.226848D+01
     12  0.200672D+00  0.263728D+00 -0.158089D+00  0.597618D+00  0.167775D+01
     13 -0.425401D+01 -0.636158D+00 -0.390311D+01  0.351335D+00  0.958484D-01
     14 -0.667467D+00 -0.719987D+01  0.104283D+01  0.568496D-01 -0.286101D-01
     15 -0.389772D+01  0.101715D+01 -0.221199D+01 -0.316596D+00 -0.716847D-02
     16 -0.151271D+00  0.133602D-01 -0.828881D-01 -0.348353D+01  0.404425D-01
     17  0.457464D-02  0.106263D+00 -0.180291D-01  0.444141D-01 -0.420498D+01
     18 -0.128755D+00 -0.325843D-01  0.297307D+00 -0.130897D+01 -0.578764D-01
     19  0.924027D-02 -0.501112D-01  0.231999D-01  0.306250D-01  0.222779D-01
     20 -0.973877D-01  0.555086D-01 -0.343982D-01 -0.515949D-01  0.117631D-01
     21  0.160797D-02  0.381051D-02 -0.420163D-01  0.776157D-02  0.556534D-01
     22  0.191402D+00 -0.564064D-01  0.772956D-01 -0.506591D-01  0.144526D-01
     23 -0.511112D-01 -0.511266D-01 -0.166834D-01  0.837738D-01  0.906151D-01
     24  0.631954D-01 -0.124392D-01 -0.373360D-01 -0.434732D-01 -0.166828D-01
     25 -0.133442D-01 -0.633746D-02 -0.150428D-01 -0.803987D-03 -0.306932D-02
     26 -0.934425D-02 -0.233823D-02 -0.271926D-02 -0.445481D-01 -0.256342D-01
     27  0.257802D-01 -0.284727D-01  0.152132D-01  0.429006D-01 -0.110308D-01
     28 -0.125439D-01 -0.284615D-02 -0.374657D-01 -0.651838D-01 -0.714295D-02
     29  0.148709D-01  0.339192D-01 -0.583584D-02  0.514141D-01 -0.142895D-01
     30  0.808414D-02  0.378087D-01 -0.100351D-01  0.282029D-01  0.780192D-01
     31  0.233431D-02  0.637469D-01  0.125399D-01  0.479723D-01 -0.120828D-01
     32  0.975737D-01  0.829230D-01  0.212930D-01  0.422864D-01 -0.276331D-01
     33 -0.130400D-01 -0.235078D-01 -0.480077D-01  0.535449D-02 -0.530824D-01
     34  0.157478D+00  0.955180D-01  0.894638D-01 -0.152487D-01 -0.896126D-01
     35  0.862970D-01 -0.254533D-01  0.359878D-01 -0.136094D+00  0.655230D-01
     36  0.873520D-01  0.375288D-01 -0.221702D-01 -0.528378D-01 -0.979029D-02
     37  0.109664D+00  0.627574D-01  0.118519D+00  0.150267D+00  0.213765D-01
     38  0.971518D-01  0.103619D+00 -0.164130D-01  0.406578D-01 -0.312039D-01
     39  0.160211D+00  0.665952D-02 -0.394092D-01 -0.296690D-01 -0.213720D-02
     40  0.879115D-01 -0.524340D-02  0.238620D+00 -0.363183D-01  0.283898D-01
[...]
 ! A21   A(1,5,14)             119.4348         -DE/DX =    0.0                 !
 ! A22   A(13,5,14)            120.7511         -DE/DX =    0.0                 !
 ! D1    D(5,1,2,3)             66.7842         -DE/DX =    0.0                 !
 ! D2    D(5,1,2,4)            -60.0757         -DE/DX =    0.0                 !
 ! D3    D(5,1,2,6)           -176.7861         -DE/DX =    0.0                 !
 ! D4    D(2,1,5,13)          -177.1579         -DE/DX =    0.0                 !
 ! D5    D(2,1,5,14)           -24.377          -DE/DX =    0.0                 !
 ! D6    D(1,2,3,7)             50.0329         -DE/DX =    0.0                 !
 ! D7    D(1,2,3,8)            169.6623         -DE/DX =    0.0                 !
 ! D8    D(1,2,3,9)            -71.0955         -DE/DX =    0.0                 !
 ! D9    D(4,2,3,7)            176.0422         -DE/DX =    0.0                 !
 ! D10   D(4,2,3,8)            -64.3283         -DE/DX =    0.0                 !
 ! D11   D(4,2,3,9)             54.9139         -DE/DX =    0.0                 !
 ! D12   D(6,2,3,7)            -62.8724         -DE/DX =    0.0                 !
 ! D13   D(6,2,3,8)             56.757          -DE/DX =    0.0                 !
 ! D14   D(6,2,3,9)            175.9992         -DE/DX =    0.0                 !
 ! D15   D(1,2,4,10)            68.8235         -DE/DX =    0.0                 !
 ! D16   D(1,2,4,11)           -51.4688         -DE/DX =    0.0                 !
 ! D17   D(1,2,4,12)          -171.438          -DE/DX =    0.0                 !
 ! D18   D(3,2,4,10)           -57.3463         -DE/DX =    0.0                 !
 ! D19   D(3,2,4,11)          -177.6386         -DE/DX =    0.0                 !
 ! D20   D(3,2,4,12)            62.3922         -DE/DX =    0.0                 !
 ! D21   D(6,2,4,10)          -178.2281         -DE/DX =    0.0                 !
 ! D22   D(6,2,4,11)            61.4796         -DE/DX =    0.0                 !
 ! D23   D(6,2,4,12)           -58.4896         -DE/DX =    0.0                 !
 ! D24   D(1,5,13,14)          152.3852         -DE/DX =    0.0                 !
 --------------------------------------------------------------------------------
 GradGradGradGradGradGradGradGradGradGradGradGradGradGradGradGradGradGrad

 Leave Link  103 at Tue Apr  9 01:59:45 2019, MaxMem=   671088640 cpu:               0.4 elap:               0.1
 (Enter /shared/centos7/gaussian/g16/l9999.exe)

 ----------------------------------------------------------------------

 Electric dipole moment (input orientation):
 (Debye = 10**-18 statcoulomb cm , SI units = C m)
                  (au)            (Debye)         (10**-30 SI)
   Tot        0.630941D+00      0.160369D+01      0.534934D+01
   x         -0.415251D+00     -0.105546D+01     -0.352065D+01
   y         -0.232197D+00     -0.590186D+00     -0.196865D+01
   z         -0.414412D+00     -0.105333D+01     -0.351353D+01

 Dipole polarizability, Alpha (input orientation).
 (esu units = cm**3 , SI units = C**2 m**2 J**-1)
 Alpha(0;0):
               (au)            (10**-24 esu)      (10**-40 SI)
   iso        0.544744D+02      0.807227D+01      0.898161D+01
   aniso      0.107936D+02      0.159944D+01      0.177962D+01
   xx         0.589578D+02      0.873664D+01      0.972082D+01
   yx        -0.336558D+00     -0.498727D-01     -0.554908D-01
   yy         0.512321D+02      0.759182D+01      0.844704D+01
   zx         0.319553D+01      0.473529D+00      0.526872D+00
   zy        -0.352597D+01     -0.522495D+00     -0.581354D+00
   zz         0.532333D+02      0.788836D+01      0.877698D+01

 ----------------------------------------------------------------------

 Dipole orientation:
     8          0.44118829          0.43062295         -1.98405649
     6          0.26777450         -0.50836041          0.54386238
     6         -0.53658981          1.55110351          2.38142041
     6          2.69876937         -1.81879451          1.33599778
     6          2.26336987          2.13945254         -2.47873692
     1         -1.23957876         -1.90620936          0.41708643
     1         -2.20632041          2.52773557          1.67978880
     1         -0.98437572          0.70969420          4.20661110
     1          0.96086634          2.93301717          2.67982665
     1          4.23697736         -0.46431149          1.53909518
     1          3.24657492         -3.22035158         -0.06726724
     1          2.42588172         -2.76240651          3.14578548
     1          2.23411995          2.83786164         -4.39116728
     1          3.00302682          3.28672066         -0.95899914

 Electric dipole moment (dipole orientation):
 (Debye = 10**-18 statcoulomb cm , SI units = C m)
                  (au)            (Debye)         (10**-30 SI)
   Tot        0.630941D+00      0.160369D+01      0.534934D+01
   x          0.000000D+00      0.000000D+00      0.000000D+00
   y          0.000000D+00      0.000000D+00      0.000000D+00
   z          0.630941D+00      0.160369D+01      0.534934D+01

 Dipole polarizability, Alpha (dipole orientation).
 (esu units = cm**3 , SI units = C**2 m**2 J**-1)
 Alpha(0;0):
               (au)            (10**-24 esu)      (10**-40 SI)
   iso        0.544744D+02      0.807227D+01      0.898161D+01
   aniso      0.107936D+02      0.159944D+01      0.177962D+01
   xx         0.526007D+02      0.779461D+01      0.867268D+01
   yx        -0.795218D+00     -0.117839D+00     -0.131114D+00
   yy         0.544856D+02      0.807393D+01      0.898346D+01
   zx        -0.418971D+01     -0.620851D+00     -0.690790D+00
   zy        -0.414219D+01     -0.613809D+00     -0.682954D+00
   zz         0.563369D+02      0.834827D+01      0.928871D+01

 ----------------------------------------------------------------------

 Test job not archived.
 1\1\GINC-C0211\Freq\UM062X\6-311+G(2df,2p)\C4H9O1(2)\UNDERKOFFLER.C\09
 -Apr-2019\0\\#P Geom=AllCheck Guess=TCheck SCRF=Check Test GenChk UM06
 2X/6-311+G(2df,2p) Freq\\Gaussian input prepared by ASE\\0,2\O,0.89674
 1291,0.1430089978,0.6198099213\C,-0.1240865965,0.1203921033,-0.3812920
 777\C,-0.919112806,-1.1759735768,-0.3387628354\C,0.4487619306,0.414830
 4707,-1.7584749346\C,1.9133845379,-0.7319717121,0.489913553\H,-0.77718
 98891,0.9409323643,-0.0844794943\H,-1.2517797617,-1.3847277026,0.67682
 6865\H,-1.7948819937,-1.0879245255,-0.9810567146\H,-0.3308850221,-2.02
 14292756,-0.6948857542\H,1.08398847,-0.4018876707,-2.1010060351\H,1.04
 31593105,1.3267767976,-1.7344743037\H,-0.3611937175,0.5420113462,-2.47
 62315695\H,2.6220348513,-0.6966410502,1.3008207747\H,1.7619294621,-1.6
 426348477,-0.0724835334\\Version=EM64L-G16RevA.03\State=2-A\HF=-232.96
 25749\S2=0.754565\S2-1=0.\S2A=0.750015\RMSD=2.384e-09\RMSF=8.033e-07\Z
 eroPoint=0.1231894\Thermal=0.1300019\Dipole=-0.4152512,-0.232197,-0.41
 44123\DipoleDeriv=-1.1970645,0.3236614,-0.3384483,0.3946968,-0.5790777
 ,0.0263237,-0.1991576,-0.0561012,-0.5477762,0.7469523,0.0181643,0.2304
 535,0.0981982,0.3613699,-0.0587648,0.3218297,-0.1204251,0.6207264,-0.0
 45419,-0.0706754,-0.0315158,-0.1186573,-0.0774571,-0.0030448,-0.023839
 1,0.0491234,0.004782,-0.0157475,-0.0307385,0.0684771,-0.0420561,0.0369
 967,0.041989,-0.0016431,0.0423748,-0.1284901,0.4991458,-0.366704,0.250
 4199,-0.5012968,0.2669647,0.1082111,0.0797843,0.212135,-0.0629792,-0.0
 542735,0.0545058,0.0075365,0.0723782,-0.0735863,-0.0220347,0.0257092,-
 0.037234,-0.0105177,0.055673,-0.0265592,0.0409075,-0.0275723,0.0275088
 ,0.0228523,0.0735338,0.051592,-0.0812029,-0.0545897,-0.0014116,-0.0845
 787,0.0166285,0.0661044,0.0209792,-0.1029824,0.0073298,0.0074853,-0.00
 5843,0.0895146,0.0510042,0.0355699,-0.0421013,-0.0276641,0.0450671,-0.
 0433224,0.0457981,0.0181337,0.0543333,0.0491425,0.0761607,-0.0528682,-
 0.0388462,0.0177737,0.0021664,0.0402765,0.0122288,-0.0905021,0.0375475
 ,-0.0813899,-0.0521402,0.0178432,0.0096424,-0.0141995,0.0442222,-0.039
 5809,0.0218294,-0.109856,0.0081609,0.0745039,0.016056,-0.0837285,0.022
 6958,-0.0172382,0.0441763,0.0541265,-0.0734965,0.0431245,0.0741627,-0.
 0311032,-0.1294929,-0.0192634,0.0106309,0.0362084,-0.0295446,-0.097593
 5,0.0260546,-0.0303803,-0.0727965,-0.0324966,-0.0968716,0.0742829\Pola
 r=58.9577678,-0.3365576,51.2321465,3.1955336,-3.5259727,53.2332583\Qua
 drupole=0.3569306,0.2632014,-0.620132,-0.9783887,0.5098414,-0.60548\PG
 =C01 [X(C4H9O1)]\NImag=0\\0.44562108,-0.19451549,0.27664421,0.11832738
 ,0.06736448,0.24505594,-0.13283624,0.01069128,-0.05479026,0.53019565,-
 0.00333539,-0.07887011,-0.02316786,-0.07263222,0.57890709,-0.07063875,
 -0.01081319,-0.14084992,-0.04788914,0.03043035,0.48109040,-0.02960402,
 -0.02468521,-0.01244475,-0.10287767,-0.04098227,0.00794537,0.54937832,
 -0.00195831,0.00264354,-0.00456341,-0.04820133,-0.17588090,0.00618153,
 -0.04667251,0.51142636,-0.02592694,-0.02094468,-0.00796128,0.00961678,
 0.00872817,-0.07773029,0.00148936,-0.00001453,0.59307818,0.00084277,0.
 00752855,-0.03660916,-0.10409618,-0.00839696,0.05601859,-0.00660480,-0
 .00483909,0.01926170,0.57633159,0.00060534,0.00111912,0.00346364,-0.00
 606206,-0.08679045,0.01601967,-0.01513415,-0.00839372,0.02990365,-0.00
 218416,0.58193646,-0.00530613,0.00501292,-0.03773389,0.04724864,0.0191
 0176,-0.16758982,0.00633027,0.00369812,-0.00069379,0.03604157,0.020024
 39,0.49892325,-0.23746551,0.14773563,-0.01096264,-0.03908523,0.0221825
 8,-0.00542257,0.00100993,-0.00214343,0.00044426,0.00459575,-0.00120671
 ,0.00022720,0.48775554,0.17528200,-0.18190728,-0.05777138,0.01127681,-
 0.00354185,0.01306028,-0.00467589,0.00375396,-0.00248258,-0.00332796,0
 .00159730,0.00068740,-0.14176731,0.46728774,0.00703245,-0.06496705,-0.
 06890723,-0.02105695,0.02089582,0.00274137,-0.00088963,0.00114707,0.00
 015858,-0.00363047,0.00122918,-0.00197238,0.22920015,0.21920990,0.4022
 0898,-0.02926533,0.02259407,-0.00297552,-0.13615561,0.11316182,0.04527
 993,0.01100362,-0.01530223,-0.00494115,-0.00696625,0.00940888,0.006032
 92,-0.00080809,-0.00201169,-0.00400759,0.16239818,0.00173455,0.0017911
 4,0.00167612,0.11997540,-0.20309404,-0.05545815,0.01460983,-0.02441517
 ,-0.00902386,-0.00515028,0.00649275,0.00241279,-0.00109196,0.00170071,
 0.00035770,-0.12568782,0.21783042,-0.02751401,0.02184894,0.00041540,0.
 05306384,-0.06196117,-0.07050904,-0.00076874,0.00184660,0.00143423,0.0
 1925204,-0.02283797,-0.01085500,-0.00235147,-0.00082310,-0.00274874,-0
 .04154437,0.05890682,0.08403410,0.00176188,0.00099073,0.00033545,-0.00
 732700,-0.00323316,0.01697470,-0.07158489,-0.01365745,0.07685136,-0.00
 162789,-0.00355212,-0.00094836,-0.00035358,0.00070193,-0.00026925,0.00
 043237,0.00034233,-0.00061316,0.07419744,0.00262073,0.00194181,-0.0004
 7374,-0.00844033,-0.00539155,0.02934055,-0.01414193,-0.05700261,0.0447
 9240,-0.00305035,-0.00488823,-0.00146202,-0.00057780,0.00014156,0.0000
 9571,0.00081977,0.00088448,-0.00002785,0.01826857,0.06053327,0.0002399
 0,-0.00051687,0.00152110,-0.00126351,-0.00045656,-0.00104839,0.0782858
 5,0.04689076,-0.28621992,-0.00019479,0.00069425,0.00107111,0.00030727,
 -0.00001877,-0.00001611,0.00011840,0.00057970,0.00030007,-0.08535450,-
 0.05153544,0.30817588,-0.00277477,-0.00286957,-0.00053104,-0.01300977,
 0.00536145,-0.00962380,-0.22197437,0.01792207,-0.12812314,0.00030182,0
 .00071319,-0.00014081,0.00101890,-0.00104695,-0.00002904,0.00078777,-0
 .00012329,0.00000627,0.00971033,-0.00070212,0.00611403,0.23921990,-0.0
 0756332,-0.00472666,-0.00153982,-0.02079932,0.00519224,-0.01682728,0.0
 1949918,-0.04846913,0.01542192,0.00055435,0.00064193,0.00015030,0.0019
 3038,-0.00208740,-0.00064093,0.00093407,0.00092985,-0.00048521,0.00513
 405,-0.00174739,0.00274077,-0.01930568,0.05142686,-0.00048722,-0.00029
 612,0.00139746,0.00148449,0.00001524,-0.00149104,-0.12896254,0.0142561
 0,-0.14076152,-0.00006163,0.00011213,-0.00028609,0.00076739,-0.0004618
 5,0.00011335,-0.00005512,-0.00034383,0.00009013,-0.02481048,0.00202897
 ,-0.01576443,0.14175002,-0.01551824,0.14985172,0.00117641,0.00181001,0
 .00010013,0.01129194,-0.01458581,-0.00562504,-0.12792413,0.11398014,0.
 04955029,0.00121012,0.00031435,-0.00099648,-0.00128726,0.00050535,0.00
 009029,-0.00123465,-0.00362923,0.00011134,-0.00569606,0.00635555,0.001
 78978,-0.01400960,0.01965643,0.00987474,0.13921242,-0.00117226,0.00211
 825,0.00034328,0.01901876,-0.02449747,-0.00855604,0.11286779,-0.205553
 69,-0.06751341,0.00105717,0.00143646,-0.00112615,0.00108402,-0.0009414
 1,-0.00037280,-0.00403440,-0.00376966,0.00049247,-0.00432480,0.0055581
 9,0.00179673,0.00076711,-0.00177166,-0.00019937,-0.12387909,0.22536370
 ,-0.00046141,0.00023371,0.00027661,-0.00116862,0.00083325,-0.00072045,
 0.04977835,-0.06766771,-0.07702101,-0.00096990,0.00080870,0.00040154,0
 .00055881,-0.00070734,-0.00049868,0.00020445,0.00054633,0.00082685,0.0
 1652679,-0.02404747,-0.00827098,-0.01006550,0.01589823,0.00670446,-0.0
 5375141,0.07395371,0.07761415,0.00082205,-0.00083022,0.00007169,-0.009
 68160,0.01053320,0.00352212,0.00020974,0.00087610,-0.00053626,-0.13732
 616,0.11722675,0.04869806,-0.00058437,0.00070139,-0.00070535,0.0001823
 7,-0.00116351,0.00234548,0.00028224,-0.00024068,-0.00019799,-0.0000566
 2,0.00004250,0.00008661,-0.00004291,-0.00070387,0.00020831,0.14763906,
 -0.00045235,0.00102766,-0.00134380,-0.00460770,0.00477007,0.00182642,-
 0.00057325,0.00155408,-0.00004967,0.11774265,-0.20188242,-0.06244334,0
 .00107363,-0.00128052,0.00071317,-0.00089940,0.00078206,0.00170651,0.0
 0003035,0.00009481,-0.00008773,-0.00010580,-0.00005864,-0.00007254,0.0
 0041374,0.00018033,-0.00004962,-0.13009018,0.21648735,-0.00137485,0.00
 093218,0.00251114,0.02085672,-0.02529625,-0.01036161,-0.00134555,-0.00
 130367,0.00122006,0.04743557,-0.06150101,-0.07101202,-0.00031845,-0.00
 058788,-0.00075839,0.00207766,0.00188823,-0.00515150,-0.00037850,0.000
 04866,0.00011577,-0.00009160,0.00007161,-0.00000523,0.00005446,0.00088
 615,0.00032848,-0.05504562,0.06672722,0.07758565,0.00095809,0.00139871
 ,-0.00083039,-0.00858055,-0.01068807,-0.00205719,-0.00021642,0.0004286
 9,0.00286986,-0.12748024,-0.12369869,-0.00349277,0.00023976,-0.0003509
 2,0.00045229,-0.00007484,0.00012981,-0.00035252,-0.00001616,-0.0009600
 8,0.00008768,0.00033821,0.00028946,0.00000738,0.00005660,-0.00020930,-
 0.00003977,0.01158968,0.01657154,0.00011819,0.13536972,0.00086801,0.00
 066096,-0.00031361,-0.00315941,-0.00572145,-0.00053775,-0.00039170,0.0
 0097318,0.00183507,-0.12374009,-0.24035569,-0.00714812,0.00029253,-0.0
 0027848,-0.00018857,0.00011406,0.00059242,0.00044927,-0.00046906,-0.00
 015409,-0.00006350,-0.00007804,-0.00000425,-0.00019681,0.00010505,0.00
 048686,-0.00011986,-0.01363860,-0.01907248,-0.00043460,0.13676732,0.25
 779397,0.00033202,-0.00131099,0.00302684,0.01734386,0.02810601,0.00046
 351,0.00152927,0.00029958,-0.00612696,-0.00560814,-0.00904655,-0.04704
 336,-0.00058398,0.00041813,0.00000485,-0.00049915,-0.00055703,0.001235
 06,0.00113636,0.00163512,-0.00000854,0.00015231,-0.00019619,0.00011416
 ,-0.00016459,-0.00003437,-0.00007530,-0.00598450,-0.00754505,-0.001177
 30,0.00248970,0.00713310,0.05003975,0.00150741,-0.00093451,0.00429253,
 0.00878256,-0.00184537,0.00733828,-0.00025054,-0.00003820,-0.00027570,
 -0.19860966,0.02362375,-0.13328479,-0.00050340,0.00080262,-0.00011950,
 0.00060989,0.00034155,-0.00072485,0.00024274,0.00019643,-0.00003478,0.
 00012311,-0.00031615,0.00042195,-0.00002754,-0.00006703,-0.00011217,-0
 .01329239,0.00077662,-0.01180231,-0.01219654,0.00345215,-0.01023570,0.
 21357525,0.00002199,0.00107218,0.00107804,0.00517584,-0.00278923,0.002
 27226,-0.00000480,0.00003694,-0.00031318,0.02313932,-0.05059551,0.0211
 8816,0.00008826,-0.00019580,0.00032541,-0.00019544,0.00018271,-0.00015
 159,-0.00000867,0.00004384,-0.00018837,-0.00048093,-0.00018128,0.00041
 639,0.00011305,-0.00005693,0.00007759,0.01740669,-0.00253122,0.0174106
 8,-0.01957268,0.00492877,-0.01884401,-0.02567553,0.04980984,-0.0003805
 0,0.00303564,-0.00811010,-0.02481540,0.00257780,-0.01511815,-0.0004882
 5,-0.00024200,0.00098384,-0.13111482,0.02139314,-0.16278565,0.00238615
 ,-0.00222326,-0.00009350,0.00006153,-0.00085184,0.00082858,0.00024742,
 -0.00031006,0.00017782,0.00067594,0.00049300,0.00007085,0.00008678,-0.
 00000675,-0.00008292,0.00826350,-0.00035383,0.00734347,0.00070408,-0.0
 0056113,-0.00041245,0.14461523,-0.02330009,0.17698162,-0.02351100,0.00
 208988,-0.02019832,0.00103043,0.00399580,0.00227475,0.00010828,0.00027
 892,0.00000470,-0.00033348,0.00004312,0.00019947,-0.15783275,0.0025540
 5,-0.15271110,-0.00086981,0.00008429,-0.00081420,-0.00006555,-0.000040
 16,0.00004517,-0.00001663,-0.00009698,0.00001030,0.00003952,-0.0000923
 3,-0.00002999,0.00016878,-0.00019891,-0.00009420,-0.00002817,-0.000019
 17,-0.00001037,0.00016555,-0.00012218,-0.00024042,0.17966210,0.0216894
 4,-0.00266099,0.02157179,0.00137627,-0.00201077,-0.00326721,0.00030811
 ,-0.00037749,0.00003732,0.00034526,-0.00006104,-0.00008784,-0.00098915
 ,-0.04170999,-0.02872504,0.00090128,0.00000749,0.00068006,-0.00011562,
 0.00006177,0.00004911,-0.00005694,0.00038719,0.00011933,-0.00001927,0.
 00052340,0.00017650,-0.00013351,-0.00000924,0.00024541,-0.00010854,0.0
 0004699,0.00000948,-0.00007361,0.00003270,0.00010000,-0.00865786,0.042
 32410,0.00599995,0.00351949,0.00629535,0.00122753,-0.00153557,0.001652
 03,0.00010896,-0.00011080,-0.00014197,0.00013439,-0.00028163,-0.000072
 88,-0.17576162,-0.03188931,-0.21877921,0.00010272,-0.00004967,0.000172
 90,-0.00000917,0.00004848,0.00000920,-0.00006388,0.00001604,-0.0000144
 9,0.00005108,0.00012934,0.00003501,-0.00019458,0.00018497,0.00018474,0
 .00000801,0.00011554,0.00000258,-0.00013205,0.00015724,0.00012146,0.17
 325827,0.02556501,0.21554032,0.00276718,0.02899615,0.01621490,0.002349
 27,0.00046439,0.00190275,-0.00067305,-0.00067337,-0.00028510,-0.000237
 38,-0.00009749,-0.00060878,-0.05669971,-0.03864344,-0.05335631,-0.0000
 3962,-0.00037167,-0.00009566,0.00004412,-0.00010760,0.00005749,0.00034
 172,0.00004104,-0.00002589,-0.00276487,-0.00031176,-0.00067794,0.00009
 013,0.00031908,-0.00009151,0.00004086,-0.00010305,0.00010292,-0.000126
 44,0.00011509,-0.00000126,0.00148273,-0.01446585,-0.00472963,0.0534250
 6,0.00617507,-0.02085383,-0.00632372,-0.00361199,-0.00028157,-0.003671
 44,-0.00002320,-0.00029535,-0.00037662,0.00032160,-0.00025695,-0.00000
 839,-0.02661066,-0.24253853,-0.14907957,0.00019705,0.00008486,0.000356
 21,-0.00010705,-0.00007587,0.00011592,0.00000550,0.00046834,0.00014058
 ,-0.00114029,0.00092364,0.00006399,0.00001393,-0.00006184,0.00091329,0
 .00000276,0.00010330,-0.00006723,-0.00024272,0.00024299,0.00024937,0.0
 0018152,0.00344587,0.00413085,0.02483849,0.25909493,0.00015813,-0.0030
 9846,0.00306258,0.00014203,0.00172902,-0.00052858,-0.00056798,-0.00041
 762,-0.00021815,0.00004504,0.00001840,-0.00035102,-0.03849051,-0.13641
 023,-0.11145290,0.00014530,-0.00008331,-0.00007304,0.00031134,-0.00013
 333,-0.00004259,-0.00002976,0.00041580,-0.00001932,-0.00117137,0.00020
 721,0.00048226,-0.00053147,0.00078730,-0.00082326,0.00003546,0.0000309
 6,-0.00004284,0.00005385,-0.00012854,0.00009514,-0.00169407,-0.0164739
 3,-0.00500505,0.04159402,0.15355675,0.11491675\\-0.00000107,0.00000061
 ,0.00000028,-0.00000045,-0.00000023,-0.00000045,0.00000030,-0.00000063
 ,-0.00000062,0.00000038,-0.00000019,-0.00000015,-0.00000052,0.00000106
 ,0.00000129,-0.00000106,-0.00000047,-0.00000103,-0.00000029,-0.0000005
 7,-0.00000083,0.00000069,-0.00000125,-0.00000127,0.00000100,-0.0000003
 8,-0.00000005,0.00000106,0.00000007,0.00000053,-0.00000013,0.00000013,
 0.00000008,0.00000083,-0.00000082,-0.00000066,-0.00000108,0.00000175,0
 .00000162,0.00000036,0.00000092,0.00000125\\\@


 NO MATTER HOW THIN YOU SLICE IT, IT'S STILL BALONEY

                                   -- ALFRED E. SMITH
 Job cpu time:       0 days  1 hours 50 minutes 29.2 seconds.
 Elapsed time:       0 days  0 hours  5 minutes 31.9 seconds.
 File lengths (MBytes):  RWF=   1376 Int=      0 D2E=      0 Chk=     32 Scr=     32
 Normal termination of Gaussian 16 at Tue Apr  9 01:59:45 2019.
