 Entering Gaussian System, Link 0=g16
 Input=BWWHSGPVJDTLAO-UHFFFAOYSA-N_GeoFreq_c6_a1.com
 Output=BWWHSGPVJDTLAO-UHFFFAOYSA-N_GeoFreq_c6_a1.log
 Initial command:
 /shared/centos7/gaussian/g16/l1.exe "/scratch/underkoffler.c/gaussian_scratch/Gau-47452.inp" -scrdir="/scratch/underkoffler.c/gaussian_scratch/"
 Entering Link 1 = /shared/centos7/gaussian/g16/l1.exe PID=     47453.
  
 Copyright (c) 1988,1990,1992,1993,1995,1998,2003,2009,2016,
            Gaussian, Inc.  All Rights Reserved.
  
 This is part of the Gaussian(R) 16 program.  It is based on
 the Gaussian(R) 09 system (copyright 2009, Gaussian, Inc.),
 the Gaussian(R) 03 system (copyright 2003, Gaussian, Inc.),
 the Gaussian(R) 98 system (copyright 1998, Gaussian, Inc.),
 the Gaussian(R) 94 system (copyright 1995, Gaussian, Inc.),
 the Gaussian 92(TM) system (copyright 1992, Gaussian, Inc.),
 the Gaussian 90(TM) system (copyright 1990, Gaussian, Inc.),
 the Gaussian 88(TM) system (copyright 1988, Gaussian, Inc.),
 the Gaussian 86(TM) system (copyright 1986, Carnegie Mellon
 University), and the Gaussian 82(TM) system (copyright 1983,
 Carnegie Mellon University). Gaussian is a federally registered
 trademark of Gaussian, Inc.
  
 This software contains proprietary and confidential information,
 including trade secrets, belonging to Gaussian, Inc.
  
 This software is provided under written license and may be
 used, copied, transmitted, or stored only in accord with that
 written license.
  
 The following legend is applicable only to US Government
 contracts under FAR:
  
                    RESTRICTED RIGHTS LEGEND
  
 Use, reproduction and disclosure by the US Government is
 subject to restrictions as set forth in subparagraphs (a)
 and (c) of the Commercial Computer Software - Restricted
 Rights clause in FAR 52.227-19.
  
 Gaussian, Inc.
 340 Quinnipiac St., Bldg. 40, Wallingford CT 06492
  
  
 ---------------------------------------------------------------
 Warning -- This program may not be used in any manner that
 competes with the business of Gaussian, Inc. or will provide
 assistance to any competitor of Gaussian, Inc.  The licensee
 of this program is prohibited from giving any competitor of
 Gaussian, Inc. access to this program.  By using this program,
 the user acknowledges that Gaussian, Inc. is engaged in the
 business of creating and licensing software in the field of
 computational chemistry and represents and warrants to the
 licensee that it is not a competitor of Gaussian, Inc. and that
 it will not use this program in any manner prohibited above.
 ---------------------------------------------------------------
  

 Cite this work as:
 Gaussian 16, Revision A.03,
 M. J. Frisch, G. W. Trucks, H. B. Schlegel, G. E. Scuseria, 
 M. A. Robb, J. R. Cheeseman, G. Scalmani, V. Barone, 
 G. A. Petersson, H. Nakatsuji, X. Li, M. Caricato, A. V. Marenich, 
 J. Bloino, B. G. Janesko, R. Gomperts, B. Mennucci, H. P. Hratchian, 
 J. V. Ortiz, A. F. Izmaylov, J. L. Sonnenberg, D. Williams-Young, 
 F. Ding, F. Lipparini, F. Egidi, J. Goings, B. Peng, A. Petrone, 
 T. Henderson, D. Ranasinghe, V. G. Zakrzewski, J. Gao, N. Rega, 
 G. Zheng, W. Liang, M. Hada, M. Ehara, K. Toyota, R. Fukuda, 
 J. Hasegawa, M. Ishida, T. Nakajima, Y. Honda, O. Kitao, H. Nakai, 
 T. Vreven, K. Throssell, J. A. Montgomery, Jr., J. E. Peralta, 
 F. Ogliaro, M. J. Bearpark, J. J. Heyd, E. N. Brothers, K. N. Kudin, 
 V. N. Staroverov, T. A. Keith, R. Kobayashi, J. Normand, 
 K. Raghavachari, A. P. Rendell, J. C. Burant, S. S. Iyengar, 
 J. Tomasi, M. Cossi, J. M. Millam, M. Klene, C. Adamo, R. Cammi, 
 J. W. Ochterski, R. L. Martin, K. Morokuma, O. Farkas, 
 J. B. Foresman, and D. J. Fox, Gaussian, Inc., Wallingford CT, 2016.
 
 ******************************************
 Gaussian 16:  EM64L-G16RevA.03 25-Dec-2016
                 9-Apr-2019 
 ******************************************
 %nprocshared=20
 Will use up to   20 processors via shared memory.
 %mem=5GB
 ----------------------------------------------------------------------
 #p m062x/6-311+g(2df,2p) opt=(calcfc,verytight,gdiis,maxcycles=900) fr
 eq iop(7/33=1,2/16=3)
 ----------------------------------------------------------------------

 Warning!  Use of Opt=GDIIS is deprecated since it is seldom a good choice.

 1/6=900,7=1,10=4,18=20,19=11,26=3,38=1/1,3;
 2/9=110,12=2,16=3,17=6,18=5,40=1/2;
 3/5=4,6=6,7=214,11=2,25=1,30=1,71=2,74=-55,140=1/1,2,3;
 4//1;
 5/5=2,38=5/2;
 8/6=4,10=90,11=11/1;
 11/6=1,8=1,9=11,15=111,16=1/1,2,10;
 10/6=1,13=1/2;
 6/7=2,8=2,9=2,10=2,28=1/1;
 7/10=1,18=20,25=1,33=1/1,2,3,16;
 1/6=900,7=1,10=4,18=20,19=11,26=3/3(2);
 2/9=110,16=3/2;
 99//99;
 2/9=110,16=3/2;
 3/5=4,6=6,7=214,11=2,25=1,30=1,71=1,74=-55/1,2,3;
 4/5=5,16=3,69=1/1;
 5/5=2,38=5/2;
 7/33=1/1,2,3,16;
 1/6=900,7=1,18=20,19=11,26=3/3(-5);
 2/9=110,16=3/2;
 6/7=2,8=2,9=2,10=2,19=2,28=1/1;
 99/9=1/99;
 Leave Link    1 at Tue Apr  9 01:43:02 2019, MaxMem=   671088640 cpu:              28.0 elap:               1.5
 (Enter /shared/centos7/gaussian/g16/l101.exe)
 ------------------------------
 Gaussian input prepared by ASE
 ------------------------------
 Symbolic Z-matrix:
 Charge =  0 Multiplicity = 2
 O                     1.13402   0.20624   0.67029 
 C                     0.07532   0.10548  -0.22033 
 C                     0.5096    0.18923  -1.67802 
 C                    -0.96547   1.13375   0.12321 
 C                     2.28118  -0.45551   0.27018 
 H                    -0.39976  -0.89556  -0.07069 
 H                     0.70531  -0.8231   -2.09779 
 H                    -0.27358   0.66154  -2.29988 
 H                     1.44319   0.78765  -1.77608 
 H                    -0.57019   2.17592   0.01392 
 H                    -1.31132   1.00653   1.16044 
 H                    -1.85153   1.03665  -0.55553 
 H                     2.91445  -0.6478    1.14993 
 H                     2.07655  -1.36473  -0.34922 
 
 Add atom      5 valence  3 ND=      2 dihedral       1      5     13     14
 ITRead=  0  0  0  0  0  0  0  0  0  0  0  0  0  0
 MicOpt= -1 -1 -1 -1 -1 -1 -1 -1 -1 -1 -1 -1 -1 -1
 NAtoms=     14 NQM=       14 NQMF=       0 NMMI=      0 NMMIF=      0
                NMic=       0 NMicF=      0.
                    Isotopes and Nuclear Properties:
 (Nuclear quadrupole moments (NQMom) in fm**2, nuclear magnetic moments (NMagM)
  in nuclear magnetons)

  Atom         1           2           3           4           5           6           7           8           9          10
 IAtWgt=          16          12          12          12          12           1           1           1           1           1
 AtmWgt=  15.9949146  12.0000000  12.0000000  12.0000000  12.0000000   1.0078250   1.0078250   1.0078250   1.0078250   1.0078250
 NucSpn=           0           0           0           0           0           1           1           1           1           1
 AtZEff=  -0.0000000  -0.0000000  -0.0000000  -0.0000000  -0.0000000  -0.0000000  -0.0000000  -0.0000000  -0.0000000  -0.0000000
 NQMom=    0.0000000   0.0000000   0.0000000   0.0000000   0.0000000   0.0000000   0.0000000   0.0000000   0.0000000   0.0000000
 NMagM=    0.0000000   0.0000000   0.0000000   0.0000000   0.0000000   2.7928460   2.7928460   2.7928460   2.7928460   2.7928460
 AtZNuc=   8.0000000   6.0000000   6.0000000   6.0000000   6.0000000   1.0000000   1.0000000   1.0000000   1.0000000   1.0000000

  Atom        11          12          13          14
 IAtWgt=           1           1           1           1
 AtmWgt=   1.0078250   1.0078250   1.0078250   1.0078250
 NucSpn=           1           1           1           1
 AtZEff=  -0.0000000  -0.0000000  -0.0000000  -0.0000000
 NQMom=    0.0000000   0.0000000   0.0000000   0.0000000
 NMagM=    2.7928460   2.7928460   2.7928460   2.7928460
 AtZNuc=   1.0000000   1.0000000   1.0000000   1.0000000
 Leave Link  101 at Tue Apr  9 01:43:02 2019, MaxMem=   671088640 cpu:               5.5 elap:               0.3
 (Enter /shared/centos7/gaussian/g16/l103.exe)

 GradGradGradGradGradGradGradGradGradGradGradGradGradGradGradGradGradGrad
 Berny optimization.
 Initialization pass.
                           ----------------------------
                           !    Initial Parameters    !
                           ! (Angstroms and Degrees)  !
 --------------------------                            --------------------------
 ! Name  Definition              Value          Derivative Info.                !
 --------------------------------------------------------------------------------
 ! R1    R(1,2)                  1.3872         calculate D2E/DX2 analytically  !
 ! R2    R(1,5)                  1.3835         calculate D2E/DX2 analytically  !
 ! R3    R(2,3)                  1.5233         calculate D2E/DX2 analytically  !
 ! R4    R(2,4)                  1.5029         calculate D2E/DX2 analytically  !
 ! R5    R(2,6)                  1.1181         calculate D2E/DX2 analytically  !
 ! R6    R(3,7)                  1.1132         calculate D2E/DX2 analytically  !
 ! R7    R(3,8)                  1.106          calculate D2E/DX2 analytically  !
 ! R8    R(3,9)                  1.1132         calculate D2E/DX2 analytically  !
 ! R9    R(4,10)                 1.12           calculate D2E/DX2 analytically  !
 ! R10   R(4,11)                 1.1007         calculate D2E/DX2 analytically  !
 ! R11   R(4,12)                 1.1204         calculate D2E/DX2 analytically  !
 ! R12   R(5,13)                 1.1009         calculate D2E/DX2 analytically  !
 ! R13   R(5,14)                 1.119          calculate D2E/DX2 analytically  !
 ! A1    A(2,1,5)              114.3574         calculate D2E/DX2 analytically  !
 ! A2    A(1,2,3)              113.1295         calculate D2E/DX2 analytically  !
 ! A3    A(1,2,4)              109.3956         calculate D2E/DX2 analytically  !
 ! A4    A(1,2,6)              107.6619         calculate D2E/DX2 analytically  !
 ! A5    A(3,2,4)              112.2443         calculate D2E/DX2 analytically  !
 ! A6    A(3,2,6)              107.3629         calculate D2E/DX2 analytically  !
 ! A7    A(4,2,6)              106.7215         calculate D2E/DX2 analytically  !
 ! A8    A(2,3,7)              111.1583         calculate D2E/DX2 analytically  !
 ! A9    A(2,3,8)              111.0792         calculate D2E/DX2 analytically  !
 ! A10   A(2,3,9)              110.6663         calculate D2E/DX2 analytically  !
 ! A11   A(7,3,8)              107.5064         calculate D2E/DX2 analytically  !
 ! A12   A(7,3,9)              107.9489         calculate D2E/DX2 analytically  !
 ! A13   A(8,3,9)              108.3474         calculate D2E/DX2 analytically  !
 ! A14   A(2,4,10)             111.7132         calculate D2E/DX2 analytically  !
 ! A15   A(2,4,11)             110.7264         calculate D2E/DX2 analytically  !
 ! A16   A(2,4,12)             110.4821         calculate D2E/DX2 analytically  !
 ! A17   A(10,4,11)            108.0838         calculate D2E/DX2 analytically  !
 ! A18   A(10,4,12)            107.4968         calculate D2E/DX2 analytically  !
 ! A19   A(11,4,12)            108.2014         calculate D2E/DX2 analytically  !
 ! A20   A(1,5,13)             109.2337         calculate D2E/DX2 analytically  !
 ! A21   A(1,5,14)             113.3965         calculate D2E/DX2 analytically  !
 ! A22   A(13,5,14)            113.9287         calculate D2E/DX2 analytically  !
 ! D1    D(5,1,2,3)            -39.2402         calculate D2E/DX2 analytically  !
 ! D2    D(5,1,2,4)           -165.1702         calculate D2E/DX2 analytically  !
 ! D3    D(5,1,2,6)             79.2212         calculate D2E/DX2 analytically  !
 ! D4    D(2,1,5,13)          -159.1006         calculate D2E/DX2 analytically  !
 ! D5    D(2,1,5,14)           -30.8561         calculate D2E/DX2 analytically  !
 ! D6    D(1,2,3,7)             92.1511         calculate D2E/DX2 analytically  !
 ! D7    D(1,2,3,8)           -148.1875         calculate D2E/DX2 analytically  !
 ! D8    D(1,2,3,9)            -27.7934         calculate D2E/DX2 analytically  !
 ! D9    D(4,2,3,7)           -143.457          calculate D2E/DX2 analytically  !
 ! D10   D(4,2,3,8)            -23.7956         calculate D2E/DX2 analytically  !
 ! D11   D(4,2,3,9)             96.5985         calculate D2E/DX2 analytically  !
 ! D12   D(6,2,3,7)            -26.4836         calculate D2E/DX2 analytically  !
 ! D13   D(6,2,3,8)             93.1778         calculate D2E/DX2 analytically  !
 ! D14   D(6,2,3,9)           -146.4282         calculate D2E/DX2 analytically  !
 ! D15   D(1,2,4,10)            63.05           calculate D2E/DX2 analytically  !
 ! D16   D(1,2,4,11)           -57.4751         calculate D2E/DX2 analytically  !
 ! D17   D(1,2,4,12)          -177.3331         calculate D2E/DX2 analytically  !
 ! D18   D(3,2,4,10)           -63.3859         calculate D2E/DX2 analytically  !
 ! D19   D(3,2,4,11)           176.0889         calculate D2E/DX2 analytically  !
 ! D20   D(3,2,4,12)            56.2309         calculate D2E/DX2 analytically  !
 ! D21   D(6,2,4,10)           179.2576         calculate D2E/DX2 analytically  !
 ! D22   D(6,2,4,11)            58.7325         calculate D2E/DX2 analytically  !
 ! D23   D(6,2,4,12)           -61.1255         calculate D2E/DX2 analytically  !
 ! D24   D(1,5,13,14)          127.947          calculate D2E/DX2 analytically  !
 --------------------------------------------------------------------------------
 Trust Radius=3.00D-01 FncErr=1.00D-07 GrdErr=1.00D-06 EigMax=2.50D+02 EigMin=1.00D-04
 Number of steps in this run=    100 maximum allowed number of steps=    100.
 GradGradGradGradGradGradGradGradGradGradGradGradGradGradGradGradGradGrad

 Leave Link  103 at Tue Apr  9 01:43:02 2019, MaxMem=   671088640 cpu:               0.2 elap:               0.0
 (Enter /shared/centos7/gaussian/g16/l202.exe)
                          Input orientation:                          
 ---------------------------------------------------------------------
 Center     Atomic      Atomic             Coordinates (Angstroms)
 Number     Number       Type             X           Y           Z
 ---------------------------------------------------------------------
      1          8           0        1.134021    0.206237    0.670291
      2          6           0        0.075320    0.105477   -0.220327
      3          6           0        0.509598    0.189231   -1.678020
      4          6           0       -0.965466    1.133755    0.123214
      5          6           0        2.281184   -0.455507    0.270184
      6          1           0       -0.399765   -0.895558   -0.070692
      7          1           0        0.705307   -0.823097   -2.097790
      8          1           0       -0.273581    0.661536   -2.299884
      9          1           0        1.443192    0.787647   -1.776078
     10          1           0       -0.570195    2.175921    0.013915
     11          1           0       -1.311317    1.006525    1.160445
     12          1           0       -1.851534    1.036651   -0.555534
     13          1           0        2.914455   -0.647802    1.149927
     14          1           0        2.076549   -1.364731   -0.349225
 ---------------------------------------------------------------------
                    Distance matrix (angstroms):
                    1          2          3          4          5
     1  O    0.000000
     2  C    1.387156   0.000000
     3  C    2.429971   1.523313   0.000000
     4  C    2.359540   1.502868   2.512446   0.000000
     5  C    1.383464   2.328334   2.711033   3.617746   0.000000
     6  H    2.028671   1.118108   2.141778   2.115592   2.738124
     7  H    2.984225   2.187236   1.113246   3.399060   2.868067
     8  H    3.318220   2.180710   1.105964   2.563806   3.792078
     9  H    2.533445   2.181007   1.113245   3.086864   2.536700
    10  H    2.686045   2.181353   2.824099   1.119954   3.888502
    11  H    2.619234   2.154340   3.469955   1.100749   3.979467
    12  H    3.332532   2.166152   2.748280   1.120376   4.470760
    13  H    2.032087   3.241251   3.805423   4.391113   1.100889
    14  H    2.096596   2.486573   2.576010   3.964780   1.119031
                    6          7          8          9         10
     6  H    0.000000
     7  H    2.309884   0.000000
     8  H    2.722089   1.789749   0.000000
     9  H    3.022914   1.800686   1.799330   0.000000
    10  H    3.077368   3.883338   2.781189   3.030694   0.000000
    11  H    2.442242   4.246220   3.629021   4.032169   1.797576
    12  H    2.464982   3.517763   2.381891   3.522350   1.806665
    13  H    3.540528   3.931758   4.876386   3.575840   4.626739
    14  H    2.535711   2.287171   3.665234   2.658906   4.435464
                   11         12         13         14
    11  H    0.000000
    12  H    1.799257   0.000000
    13  H    4.538067   5.334850   0.000000
    14  H    4.402226   4.608582   1.861056   0.000000
 Stoichiometry    C4H9O(2)
 Framework group  C1[X(C4H9O)]
 Deg. of freedom    36
 Full point group                 C1      NOp   1
 Largest Abelian subgroup         C1      NOp   1
 Largest concise Abelian subgroup C1      NOp   1
                         Standard orientation:                         
 ---------------------------------------------------------------------
 Center     Atomic      Atomic             Coordinates (Angstroms)
 Number     Number       Type             X           Y           Z
 ---------------------------------------------------------------------
      1          8           0       -0.678447   -0.785876   -0.122869
      2          6           0        0.385479   -0.018400    0.327959
      3          6           0        0.308871    1.434477   -0.123443
      4          6           0        1.677825   -0.671685   -0.074127
      5          6           0       -1.900100   -0.137019   -0.100054
      6          1           0        0.357077   -0.022467    1.445699
      7          1           0       -0.212656    2.063254    0.632842
      8          1           0        1.319431    1.859412   -0.269577
      9          1           0       -0.248889    1.518819   -1.083185
     10          1           0        1.786809   -0.723981   -1.187538
     11          1           0        1.736517   -1.696451    0.323439
     12          1           0        2.550381   -0.091786    0.322868
     13          1           0       -2.708020   -0.884827   -0.102479
     14          1           0       -1.985524    0.620796    0.718878
 ---------------------------------------------------------------------
 Rotational constants (GHZ):           8.0741948           4.1651177           3.0022987
 Leave Link  202 at Tue Apr  9 01:43:02 2019, MaxMem=   671088640 cpu:               0.2 elap:               0.0
 (Enter /shared/centos7/gaussian/g16/l301.exe)
 Standard basis: 6-311+G(2df,2p) (5D, 7F)
 Ernie: Thresh=  0.10000D-02 Tol=  0.10000D-05 Strict=F.
 There are   276 symmetry adapted cartesian basis functions of A   symmetry.
 There are   251 symmetry adapted basis functions of A   symmetry.
   251 basis functions,   359 primitive gaussians,   276 cartesian basis functions
    21 alpha electrons       20 beta electrons
       nuclear repulsion energy       189.1854635620 Hartrees.
 IExCor= 4336 DFT=T Ex+Corr=M062X ExCW=0 ScaHFX=  0.540000
 ScaDFX=  1.000000  1.000000  1.000000  1.000000 ScalE2=  1.000000  1.000000
 IRadAn=      5 IRanWt=     -1 IRanGd=            0 ICorTp=0 IEmpDi=  4
 NAtoms=   14 NActive=   14 NUniq=   14 SFac= 1.00D+00 NAtFMM=   60 NAOKFM=F Big=F
 Integral buffers will be    131072 words long.
 Raffenetti 2 integral format.
 Two-electron integral symmetry is turned on.
 Leave Link  301 at Tue Apr  9 01:43:02 2019, MaxMem=   671088640 cpu:               1.2 elap:               0.1
 (Enter /shared/centos7/gaussian/g16/l302.exe)
 NPDir=0 NMtPBC=     1 NCelOv=     1 NCel=       1 NClECP=     1 NCelD=      1
         NCelK=      1 NCelE2=     1 NClLst=     1 CellRange=     0.0.
 One-electron integrals computed using PRISM.
 One-electron integral symmetry used in STVInt
 NBasis=   251 RedAO= T EigKep=  3.91D-05  NBF=   251
 NBsUse=   251 1.00D-06 EigRej= -1.00D+00 NBFU=   251
 Precomputing XC quadrature grid using
 IXCGrd= 4 IRadAn=           5 IRanWt=          -1 IRanGd=           0 AccXCQ= 0.00D+00.
 Generated NRdTot=       0 NPtTot=           0 NUsed=           0 NTot=          32
 NSgBfM=   276   276   276   276   276 MxSgAt=    14 MxSgA2=    14.
 Leave Link  302 at Tue Apr  9 01:43:03 2019, MaxMem=   671088640 cpu:               6.0 elap:               0.3
 (Enter /shared/centos7/gaussian/g16/l303.exe)
 DipDrv:  MaxL=1.
 Leave Link  303 at Tue Apr  9 01:43:03 2019, MaxMem=   671088640 cpu:               0.6 elap:               0.0
 (Enter /shared/centos7/gaussian/g16/l401.exe)
 ExpMin= 4.38D-02 ExpMax= 8.59D+03 ExpMxC= 1.30D+03 IAcc=3 IRadAn=         5 AccDes= 0.00D+00
 Harris functional with IExCor= 1009 and IRadAn=       5 diagonalized for initial guess.
 HarFok:  IExCor= 1009 AccDes= 0.00D+00 IRadAn=         5 IDoV= 1 UseB2=F ITyADJ=14
 ICtDFT=  3500011 ScaDFX=  1.000000  1.000000  1.000000  1.000000
 FoFCou: FMM=F IPFlag=           0 FMFlag=      100000 FMFlg1=           0
         NFxFlg=           0 DoJE=T BraDBF=F KetDBF=T FulRan=T
         wScrn=  0.000000 ICntrl=       500 IOpCl=  0 I1Cent=   200000004 NGrid=           0
         NMat0=    1 NMatS0=      1 NMatT0=    0 NMatD0=    1 NMtDS0=    0 NMtDT0=    0
 Petite list used in FoFCou.
 Harris En= -232.859854914726    
 JPrj=0 DoOrth=F DoCkMO=F.
 Initial guess <Sx>= 0.0000 <Sy>= 0.0000 <Sz>= 0.5000 <S**2>= 0.7500 S= 0.5000
 Leave Link  401 at Tue Apr  9 01:43:04 2019, MaxMem=   671088640 cpu:              17.9 elap:               0.9
 (Enter /shared/centos7/gaussian/g16/l502.exe)
 Integral symmetry usage will be decided dynamically.
 UHF open shell SCF:
 Using DIIS extrapolation, IDIIS=  1040.
 NGot=   671088640 LenX=   670928170 LenY=   670851553
 Requested convergence on RMS density matrix=1.00D-08 within 128 cycles.
 Requested convergence on MAX density matrix=1.00D-06.
 Requested convergence on             energy=1.00D-06.
 No special actions if energy rises.
 Fock matrices will be formed incrementally for  20 cycles.

 Cycle   1  Pass 1  IDiag  1:
 FoFJK:  IHMeth= 1 ICntrl=       0 DoSepK=F KAlg= 0 I1Cent=           0 FoldK=F
 IRaf= 990000000 NMat=       1 IRICut=       1 DoRegI=T DoRafI=F ISym2E= 0 IDoP0=0 IntGTp=1.
 FoFCou: FMM=F IPFlag=           0 FMFlag=      100000 FMFlg1=           0
         NFxFlg=           0 DoJE=F BraDBF=F KetDBF=F FulRan=T
         wScrn=  0.000000 ICntrl=         0 IOpCl=  1 I1Cent=           0 NGrid=           0
         NMat0=    1 NMatS0=      1 NMatT0=    0 NMatD0=    1 NMtDS0=    0 NMtDT0=    0
 Symmetry not used in FoFCou.
 E= -232.779471425386    
 DIIS: error= 1.94D-02 at cycle   1 NSaved=   1.
 NSaved= 1 IEnMin= 1 EnMin= -232.779471425386     IErMin= 1 ErrMin= 1.94D-02
 ErrMax= 1.94D-02  0.00D+00 EMaxC= 1.00D-01 BMatC= 7.94D-01 BMatP= 7.94D-01
 IDIUse=3 WtCom= 8.06D-01 WtEn= 1.94D-01
 Coeff-Com:  0.100D+01
 Coeff-En:   0.100D+01
 Coeff:      0.100D+01
 Gap=     0.260 Goal=   None    Shift=    0.000
 Gap=     0.347 Goal=   None    Shift=    0.000
 GapD=    0.260 DampG=1.000 DampE=0.500 DampFc=0.5000 IDamp=-1.
 Damping current iteration by 5.00D-01
 RMSDP=2.44D-03 MaxDP=1.09D-01              OVMax= 1.46D-01

 Cycle   2  Pass 1  IDiag  1:
 RMSU=  1.20D-03    CP:  9.76D-01
 E= -232.867998515639     Delta-E=       -0.088527090253 Rises=F Damp=T
 DIIS: error= 5.64D-03 at cycle   2 NSaved=   2.
 NSaved= 2 IEnMin= 2 EnMin= -232.867998515639     IErMin= 2 ErrMin= 5.64D-03
 ErrMax= 5.64D-03  0.00D+00 EMaxC= 1.00D-01 BMatC= 5.64D-02 BMatP= 7.94D-01
 IDIUse=3 WtCom= 9.44D-01 WtEn= 5.64D-02
 Coeff-Com: -0.148D+00 0.115D+01
 Coeff-En:   0.000D+00 0.100D+01
 Coeff:     -0.140D+00 0.114D+01
 Gap=     0.270 Goal=   None    Shift=    0.000
 Gap=     0.389 Goal=   None    Shift=    0.000
 RMSDP=1.03D-03 MaxDP=6.62D-02 DE=-8.85D-02 OVMax= 7.12D-02

 Cycle   3  Pass 1  IDiag  1:
 RMSU=  1.01D-03    CP:  9.56D-01  9.80D-01
 E= -232.948514188167     Delta-E=       -0.080515672528 Rises=F Damp=F
 DIIS: error= 2.28D-03 at cycle   3 NSaved=   3.
 NSaved= 3 IEnMin= 3 EnMin= -232.948514188167     IErMin= 3 ErrMin= 2.28D-03
 ErrMax= 2.28D-03  0.00D+00 EMaxC= 1.00D-01 BMatC= 6.18D-03 BMatP= 5.64D-02
 IDIUse=3 WtCom= 9.77D-01 WtEn= 2.28D-02
 Coeff-Com: -0.745D-01 0.240D+00 0.834D+00
 Coeff-En:   0.000D+00 0.000D+00 0.100D+01
 Coeff:     -0.728D-01 0.235D+00 0.838D+00
 Gap=     0.273 Goal=   None    Shift=    0.000
 Gap=     0.332 Goal=   None    Shift=    0.000
 RMSDP=1.78D-04 MaxDP=7.27D-03 DE=-8.05D-02 OVMax= 1.10D-02

 Cycle   4  Pass 1  IDiag  1:
 RMSU=  1.66D-04    CP:  9.53D-01  1.02D+00  9.66D-01
 E= -232.949982415283     Delta-E=       -0.001468227116 Rises=F Damp=F
 DIIS: error= 9.07D-04 at cycle   4 NSaved=   4.
 NSaved= 4 IEnMin= 4 EnMin= -232.949982415283     IErMin= 4 ErrMin= 9.07D-04
 ErrMax= 9.07D-04  0.00D+00 EMaxC= 1.00D-01 BMatC= 1.15D-03 BMatP= 6.18D-03
 IDIUse=3 WtCom= 9.91D-01 WtEn= 9.07D-03
 Coeff-Com: -0.210D-01 0.472D-01 0.330D+00 0.643D+00
 Coeff-En:   0.000D+00 0.000D+00 0.000D+00 0.100D+01
 Coeff:     -0.208D-01 0.468D-01 0.327D+00 0.646D+00
 Gap=     0.271 Goal=   None    Shift=    0.000
 Gap=     0.337 Goal=   None    Shift=    0.000
 RMSDP=7.68D-05 MaxDP=3.80D-03 DE=-1.47D-03 OVMax= 1.24D-02

 Cycle   5  Pass 1  IDiag  1:
 RMSU=  6.64D-05    CP:  9.53D-01  1.00D+00  9.94D-01  9.00D-01
 E= -232.950321516175     Delta-E=       -0.000339100892 Rises=F Damp=F
 DIIS: error= 3.67D-04 at cycle   5 NSaved=   5.
 NSaved= 5 IEnMin= 5 EnMin= -232.950321516175     IErMin= 5 ErrMin= 3.67D-04
 ErrMax= 3.67D-04  0.00D+00 EMaxC= 1.00D-01 BMatC= 2.29D-04 BMatP= 1.15D-03
 IDIUse=3 WtCom= 9.96D-01 WtEn= 3.67D-03
 Coeff-Com:  0.209D-02-0.143D-01 0.195D-01 0.271D+00 0.721D+00
 Coeff-En:   0.000D+00 0.000D+00 0.000D+00 0.000D+00 0.100D+01
 Coeff:      0.208D-02-0.143D-01 0.194D-01 0.270D+00 0.722D+00
 Gap=     0.272 Goal=   None    Shift=    0.000
 Gap=     0.337 Goal=   None    Shift=    0.000
 RMSDP=4.51D-05 MaxDP=2.12D-03 DE=-3.39D-04 OVMax= 5.13D-03

 Cycle   6  Pass 1  IDiag  1:
 RMSU=  3.02D-05    CP:  9.53D-01  1.00D+00  1.00D+00  1.06D+00  1.25D+00
 E= -232.950412522878     Delta-E=       -0.000091006702 Rises=F Damp=F
 DIIS: error= 2.21D-04 at cycle   6 NSaved=   6.
 NSaved= 6 IEnMin= 6 EnMin= -232.950412522878     IErMin= 6 ErrMin= 2.21D-04
 ErrMax= 2.21D-04  0.00D+00 EMaxC= 1.00D-01 BMatC= 4.00D-05 BMatP= 2.29D-04
 IDIUse=3 WtCom= 9.98D-01 WtEn= 2.21D-03
 Coeff-Com:  0.695D-02-0.169D-01-0.957D-01-0.813D-01 0.101D+00 0.109D+01
 Coeff-En:   0.000D+00 0.000D+00 0.000D+00 0.000D+00 0.000D+00 0.100D+01
 Coeff:      0.694D-02-0.168D-01-0.955D-01-0.811D-01 0.100D+00 0.109D+01
 Gap=     0.274 Goal=   None    Shift=    0.000
 Gap=     0.338 Goal=   None    Shift=    0.000
 RMSDP=4.53D-05 MaxDP=2.33D-03 DE=-9.10D-05 OVMax= 7.13D-03

 Cycle   7  Pass 1  IDiag  1:
 RMSU=  1.73D-05    CP:  9.53D-01  9.91D-01  1.01D+00  1.22D+00  1.65D+00
                    CP:  1.45D+00
 E= -232.950455881371     Delta-E=       -0.000043358493 Rises=F Damp=F
 DIIS: error= 1.28D-04 at cycle   7 NSaved=   7.
 NSaved= 7 IEnMin= 7 EnMin= -232.950455881371     IErMin= 7 ErrMin= 1.28D-04
 ErrMax= 1.28D-04  0.00D+00 EMaxC= 1.00D-01 BMatC= 2.06D-05 BMatP= 4.00D-05
 IDIUse=3 WtCom= 9.99D-01 WtEn= 1.28D-03
 Coeff-Com:  0.186D-02-0.252D-02-0.452D-01-0.106D+00-0.233D+00 0.541D+00
 Coeff-Com:  0.844D+00
 Coeff-En:   0.000D+00 0.000D+00 0.000D+00 0.000D+00 0.000D+00 0.000D+00
 Coeff-En:   0.100D+01
 Coeff:      0.186D-02-0.252D-02-0.451D-01-0.106D+00-0.233D+00 0.540D+00
 Coeff:      0.844D+00
 Gap=     0.274 Goal=   None    Shift=    0.000
 Gap=     0.338 Goal=   None    Shift=    0.000
 RMSDP=2.27D-05 MaxDP=1.02D-03 DE=-4.34D-05 OVMax= 3.58D-03

 Cycle   8  Pass 1  IDiag  1:
 RMSU=  7.22D-06    CP:  9.53D-01  9.89D-01  1.01D+00  1.29D+00  1.83D+00
                    CP:  1.89D+00  1.26D+00
 E= -232.950467071896     Delta-E=       -0.000011190525 Rises=F Damp=F
 DIIS: error= 4.02D-05 at cycle   8 NSaved=   8.
 NSaved= 8 IEnMin= 8 EnMin= -232.950467071896     IErMin= 8 ErrMin= 4.02D-05
 ErrMax= 4.02D-05  0.00D+00 EMaxC= 1.00D-01 BMatC= 1.08D-06 BMatP= 2.06D-05
 IDIUse=1 WtCom= 1.00D+00 WtEn= 0.00D+00
 Coeff-Com: -0.134D-02 0.331D-02 0.145D-01 0.117D-01-0.433D-01-0.125D+00
 Coeff-Com:  0.472D-01 0.109D+01
 Coeff:     -0.134D-02 0.331D-02 0.145D-01 0.117D-01-0.433D-01-0.125D+00
 Coeff:      0.472D-01 0.109D+01
 Gap=     0.274 Goal=   None    Shift=    0.000
 Gap=     0.338 Goal=   None    Shift=    0.000
 RMSDP=7.22D-06 MaxDP=2.67D-04 DE=-1.12D-05 OVMax= 1.01D-03

 Cycle   9  Pass 1  IDiag  1:
 RMSU=  3.21D-06    CP:  9.53D-01  9.90D-01  1.01D+00  1.30D+00  1.86D+00
                    CP:  2.04D+00  1.42D+00  1.29D+00
 E= -232.950467943415     Delta-E=       -0.000000871519 Rises=F Damp=F
 DIIS: error= 8.32D-06 at cycle   9 NSaved=   9.
 NSaved= 9 IEnMin= 9 EnMin= -232.950467943415     IErMin= 9 ErrMin= 8.32D-06
 ErrMax= 8.32D-06  0.00D+00 EMaxC= 1.00D-01 BMatC= 1.24D-07 BMatP= 1.08D-06
 IDIUse=1 WtCom= 1.00D+00 WtEn= 0.00D+00
 Coeff-Com: -0.452D-03 0.917D-03 0.828D-02 0.154D-01 0.178D-01-0.877D-01
 Coeff-Com: -0.901D-01 0.218D+00 0.918D+00
 Coeff:     -0.452D-03 0.917D-03 0.828D-02 0.154D-01 0.178D-01-0.877D-01
 Coeff:     -0.901D-01 0.218D+00 0.918D+00
 Gap=     0.274 Goal=   None    Shift=    0.000
 Gap=     0.338 Goal=   None    Shift=    0.000
 RMSDP=1.84D-06 MaxDP=1.05D-04 DE=-8.72D-07 OVMax= 1.99D-04

 Cycle  10  Pass 1  IDiag  1:
 RMSU=  9.84D-07    CP:  9.53D-01  9.90D-01  1.01D+00  1.31D+00  1.86D+00
                    CP:  2.06D+00  1.44D+00  1.43D+00  1.12D+00
 E= -232.950468007908     Delta-E=       -0.000000064493 Rises=F Damp=F
 DIIS: error= 2.18D-06 at cycle  10 NSaved=  10.
 NSaved=10 IEnMin=10 EnMin= -232.950468007908     IErMin=10 ErrMin= 2.18D-06
 ErrMax= 2.18D-06  0.00D+00 EMaxC= 1.00D-01 BMatC= 1.29D-08 BMatP= 1.24D-07
 IDIUse=1 WtCom= 1.00D+00 WtEn= 0.00D+00
 Coeff-Com:  0.703D-04-0.172D-03 0.355D-04 0.166D-02 0.467D-02-0.124D-02
 Coeff-Com: -0.170D-01-0.563D-01 0.125D+00 0.943D+00
 Coeff:      0.703D-04-0.172D-03 0.355D-04 0.166D-02 0.467D-02-0.124D-02
 Coeff:     -0.170D-01-0.563D-01 0.125D+00 0.943D+00
 Gap=     0.274 Goal=   None    Shift=    0.000
 Gap=     0.338 Goal=   None    Shift=    0.000
 RMSDP=5.86D-07 MaxDP=2.58D-05 DE=-6.45D-08 OVMax= 3.69D-05

 Cycle  11  Pass 1  IDiag  1:
 RMSU=  2.62D-07    CP:  9.53D-01  9.91D-01  1.01D+00  1.31D+00  1.85D+00
                    CP:  2.06D+00  1.43D+00  1.45D+00  1.21D+00  1.27D+00
 E= -232.950468013553     Delta-E=       -0.000000005645 Rises=F Damp=F
 DIIS: error= 1.17D-06 at cycle  11 NSaved=  11.
 NSaved=11 IEnMin=11 EnMin= -232.950468013553     IErMin=11 ErrMin= 1.17D-06
 ErrMax= 1.17D-06  0.00D+00 EMaxC= 1.00D-01 BMatC= 2.74D-09 BMatP= 1.29D-08
 IDIUse=1 WtCom= 1.00D+00 WtEn= 0.00D+00
 Coeff-Com:  0.853D-04-0.182D-03-0.117D-02-0.166D-02-0.164D-02 0.126D-01
 Coeff-Com:  0.730D-02-0.485D-01-0.105D+00 0.296D+00 0.842D+00
 Coeff:      0.853D-04-0.182D-03-0.117D-02-0.166D-02-0.164D-02 0.126D-01
 Coeff:      0.730D-02-0.485D-01-0.105D+00 0.296D+00 0.842D+00
 Gap=     0.274 Goal=   None    Shift=    0.000
 Gap=     0.338 Goal=   None    Shift=    0.000
 RMSDP=1.97D-07 MaxDP=9.03D-06 DE=-5.64D-09 OVMax= 1.23D-05

 Cycle  12  Pass 1  IDiag  1:
 RMSU=  1.04D-07    CP:  9.53D-01  9.91D-01  1.01D+00  1.31D+00  1.85D+00
                    CP:  2.06D+00  1.43D+00  1.45D+00  1.23D+00  1.39D+00
                    CP:  1.10D+00
 E= -232.950468014588     Delta-E=       -0.000000001035 Rises=F Damp=F
 DIIS: error= 3.24D-07 at cycle  12 NSaved=  12.
 NSaved=12 IEnMin=12 EnMin= -232.950468014588     IErMin=12 ErrMin= 3.24D-07
 ErrMax= 3.24D-07  0.00D+00 EMaxC= 1.00D-01 BMatC= 1.66D-10 BMatP= 2.74D-09
 IDIUse=1 WtCom= 1.00D+00 WtEn= 0.00D+00
 Coeff-Com:  0.265D-05-0.710D-05-0.158D-03-0.319D-03-0.488D-03 0.200D-02
 Coeff-Com:  0.207D-02-0.245D-02-0.287D-01-0.408D-01 0.137D+00 0.932D+00
 Coeff:      0.265D-05-0.710D-05-0.158D-03-0.319D-03-0.488D-03 0.200D-02
 Coeff:      0.207D-02-0.245D-02-0.287D-01-0.408D-01 0.137D+00 0.932D+00
 Gap=     0.274 Goal=   None    Shift=    0.000
 Gap=     0.338 Goal=   None    Shift=    0.000
 RMSDP=6.57D-08 MaxDP=2.79D-06 DE=-1.04D-09 OVMax= 3.56D-06

 Cycle  13  Pass 1  IDiag  1:
 RMSU=  4.32D-08    CP:  9.53D-01  9.91D-01  1.01D+00  1.31D+00  1.85D+00
                    CP:  2.06D+00  1.43D+00  1.45D+00  1.23D+00  1.41D+00
                    CP:  1.16D+00  1.11D+00
 E= -232.950468014665     Delta-E=       -0.000000000077 Rises=F Damp=F
 DIIS: error= 1.03D-07 at cycle  13 NSaved=  13.
 NSaved=13 IEnMin=13 EnMin= -232.950468014665     IErMin=13 ErrMin= 1.03D-07
 ErrMax= 1.03D-07  0.00D+00 EMaxC= 1.00D-01 BMatC= 1.67D-11 BMatP= 1.66D-10
 IDIUse=1 WtCom= 1.00D+00 WtEn= 0.00D+00
 Coeff-Com: -0.603D-05 0.124D-04 0.563D-04 0.695D-04 0.697D-04-0.598D-03
 Coeff-Com: -0.189D-03 0.301D-02 0.347D-02-0.297D-01-0.475D-01 0.167D+00
 Coeff-Com:  0.904D+00
 Coeff:     -0.603D-05 0.124D-04 0.563D-04 0.695D-04 0.697D-04-0.598D-03
 Coeff:     -0.189D-03 0.301D-02 0.347D-02-0.297D-01-0.475D-01 0.167D+00
 Coeff:      0.904D+00
 Gap=     0.274 Goal=   None    Shift=    0.000
 Gap=     0.338 Goal=   None    Shift=    0.000
 RMSDP=1.50D-08 MaxDP=5.90D-07 DE=-7.69D-11 OVMax= 1.21D-06

 Cycle  14  Pass 1  IDiag  1:
 RMSU=  1.00D-08    CP:  9.53D-01  9.91D-01  1.01D+00  1.31D+00  1.85D+00
                    CP:  2.06D+00  1.43D+00  1.45D+00  1.23D+00  1.42D+00
                    CP:  1.17D+00  1.18D+00  1.13D+00
 E= -232.950468014668     Delta-E=       -0.000000000003 Rises=F Damp=F
 DIIS: error= 3.52D-08 at cycle  14 NSaved=  14.
 NSaved=14 IEnMin=14 EnMin= -232.950468014668     IErMin=14 ErrMin= 3.52D-08
 ErrMax= 3.52D-08  0.00D+00 EMaxC= 1.00D-01 BMatC= 2.50D-12 BMatP= 1.67D-11
 IDIUse=1 WtCom= 1.00D+00 WtEn= 0.00D+00
 Coeff-Com: -0.124D-05 0.287D-05 0.221D-04 0.326D-04 0.291D-04-0.265D-03
 Coeff-Com: -0.184D-03 0.798D-03 0.330D-02-0.267D-02-0.252D-01-0.610D-01
 Coeff-Com:  0.212D+00 0.873D+00
 Coeff:     -0.124D-05 0.287D-05 0.221D-04 0.326D-04 0.291D-04-0.265D-03
 Coeff:     -0.184D-03 0.798D-03 0.330D-02-0.267D-02-0.252D-01-0.610D-01
 Coeff:      0.212D+00 0.873D+00
 Gap=     0.274 Goal=   None    Shift=    0.000
 Gap=     0.338 Goal=   None    Shift=    0.000
 RMSDP=6.67D-09 MaxDP=2.17D-07 DE=-2.84D-12 OVMax= 5.40D-07

 SCF Done:  E(UM062X) =  -232.950468015     A.U. after   14 cycles
            NFock= 14  Conv=0.67D-08     -V/T= 2.0047
 <Sx>= 0.0000 <Sy>= 0.0000 <Sz>= 0.5000 <S**2>= 0.7545 S= 0.5022
 <L.S>= 0.000000000000E+00
 KE= 2.318587939410D+02 PE=-9.209085590530D+02 EE= 2.669138335353D+02
 Annihilation of the first spin contaminant:
 S**2 before annihilation     0.7545,   after     0.7500
 Leave Link  502 at Tue Apr  9 01:43:48 2019, MaxMem=   671088640 cpu:             885.1 elap:              44.4
 (Enter /shared/centos7/gaussian/g16/l801.exe)
 DoSCS=F DFT=T ScalE2(SS,OS)=  1.000000  1.000000
 Range of M.O.s used for correlation:     1   251
 NBasis=   251 NAE=    21 NBE=    20 NFC=     0 NFV=     0
 NROrb=    251 NOA=    21 NOB=    20 NVA=   230 NVB=   231

 **** Warning!!: The largest alpha MO coefficient is  0.39230006D+02


 **** Warning!!: The largest beta MO coefficient is  0.38960869D+02

 Leave Link  801 at Tue Apr  9 01:43:48 2019, MaxMem=   671088640 cpu:               0.3 elap:               0.0
 (Enter /shared/centos7/gaussian/g16/l1101.exe)
 Using compressed storage, NAtomX=    14.
 Will process     15 centers per pass.
 Leave Link 1101 at Tue Apr  9 01:43:49 2019, MaxMem=   671088640 cpu:               5.8 elap:               0.3
 (Enter /shared/centos7/gaussian/g16/l1102.exe)
 Symmetrizing basis deriv contribution to polar:
 IMax=3 JMax=2 DiffMx= 0.00D+00
 Leave Link 1102 at Tue Apr  9 01:43:49 2019, MaxMem=   671088640 cpu:               0.4 elap:               0.0
 (Enter /shared/centos7/gaussian/g16/l1110.exe)
 Forming Gx(P) for the SCF density, NAtomX=    14.
 Integral derivatives from FoFJK, PRISM(SPDF).
 Do as many integral derivatives as possible in FoFJK.
 G2DrvN: MDV=     671087496.
 G2DrvN: will do    15 centers at a time, making    1 passes.
 Calling FoFCou, ICntrl=  3107 FMM=F I1Cent=   0 AccDes= 0.00D+00.
 FoFJK:  IHMeth= 1 ICntrl=    3107 DoSepK=F KAlg= 0 I1Cent=           0 FoldK=F
 IRaf=         0 NMat=       1 IRICut=       1 DoRegI=T DoRafI=F ISym2E= 0 IDoP0=0 IntGTp=1.
 FoFCou: FMM=F IPFlag=           0 FMFlag=      100000 FMFlg1=           0
         NFxFlg=           0 DoJE=F BraDBF=F KetDBF=F FulRan=T
         wScrn=  0.000000 ICntrl=      3107 IOpCl=  1 I1Cent=           0 NGrid=           0
         NMat0=    1 NMatS0=      1 NMatT0=    0 NMatD0=    1 NMtDS0=    0 NMtDT0=    0
 Symmetry not used in FoFCou.
 End of G2Drv F.D. properties file   721 does not exist.
 End of G2Drv F.D. properties file   722 does not exist.
 End of G2Drv F.D. properties file   788 does not exist.
 Leave Link 1110 at Tue Apr  9 01:45:15 2019, MaxMem=   671088640 cpu:            1734.2 elap:              86.7
 (Enter /shared/centos7/gaussian/g16/l1002.exe)
 Minotr:  UHF open shell wavefunction.
          IDoAtm=11111111111111
          Direct CPHF calculation.
          Differentiating once with respect to nuclear coordinates.
          Requested convergence is 1.0D-08 RMS, and 1.0D-07 maximum.
          Secondary convergence is 1.0D-12 RMS, and 1.0D-12 maximum.
          NewPWx=T KeepS1=F KeepF1=F KeepIn=T MapXYZ=F SortEE=F KeepMc=T.
         4257 words used for storage of precomputed grid.
 Two-electron integrals replicated using symmetry.
          MDV=     671088640 using IRadAn=       1.
          Solving linear equations simultaneously, MaxMat=     380.
 FoF2E skips out because all densities are zero.
 CalDSu exits because no D1Ps are significant.
 FoFJK:  IHMeth= 1 ICntrl=       0 DoSepK=F KAlg= 0 I1Cent=           0 FoldK=F
 IRaf= 980000000 NMat=      42 IRICut=     105 DoRegI=T DoRafI=T ISym2E= 2 IDoP0=3 IntGTp=3.
 FoFCou: FMM=F IPFlag=           0 FMFlag=      100000 FMFlg1=           0
         NFxFlg=           0 DoJE=F BraDBF=F KetDBF=F FulRan=T
         wScrn=  0.000000 ICntrl=         0 IOpCl=  1 I1Cent=           0 NGrid=           0
         NMat0=   42 NMatS0=     42 NMatT0=    0 NMatD0=   42 NMtDS0=    0 NMtDT0=    0
 Integrals replicated using symmetry in FoFCou.
 Raff kept on since  96.83% of shell-pairs survive, threshold=   0.20 IRatSp=97.
          There are    45 degrees of freedom in the 1st order CPHF.  IDoFFX=6 NUNeed=     0.
     39 vectors produced by pass  0 Test12= 2.10D-14 2.22D-09 XBig12= 1.53D-01 7.33D-02.
 AX will form    39 AO Fock derivatives at one time.
     39 vectors produced by pass  1 Test12= 2.10D-14 2.22D-09 XBig12= 9.54D-03 2.18D-02.
     39 vectors produced by pass  2 Test12= 2.10D-14 2.22D-09 XBig12= 5.40D-04 5.39D-03.
     39 vectors produced by pass  3 Test12= 2.10D-14 2.22D-09 XBig12= 8.24D-06 4.33D-04.
     39 vectors produced by pass  4 Test12= 2.10D-14 2.22D-09 XBig12= 1.21D-07 3.73D-05.
     39 vectors produced by pass  5 Test12= 2.10D-14 2.22D-09 XBig12= 1.51D-09 3.54D-06.
     34 vectors produced by pass  6 Test12= 2.10D-14 2.22D-09 XBig12= 1.22D-11 4.86D-07.
     13 vectors produced by pass  7 Test12= 2.10D-14 2.22D-09 XBig12= 8.05D-14 3.67D-08.
 InvSVY:  IOpt=1 It=  1 EMax= 1.55D-15
 Solved reduced A of dimension   281 with    39 vectors.
 End of Minotr F.D. properties file   721 does not exist.
 End of Minotr F.D. properties file   722 does not exist.
 End of Minotr F.D. properties file   788 does not exist.
 Leave Link 1002 at Tue Apr  9 01:47:29 2019, MaxMem=   671088640 cpu:            2672.3 elap:             133.6
 (Enter /shared/centos7/gaussian/g16/l601.exe)
 Copying SCF densities to generalized density rwf, IOpCl= 1 IROHF=0.

 **********************************************************************

            Population analysis using the SCF density.

 **********************************************************************

 Orbital symmetries:
 Alpha Orbitals:
       Occupied  (A) (A) (A) (A) (A) (A) (A) (A) (A) (A) (A) (A)
                 (A) (A) (A) (A) (A) (A) (A) (A) (A)
       Virtual   (A) (A) (A) (A) (A) (A) (A) (A) (A) (A) (A) (A)
                 (A) (A) (A) (A) (A) (A) (A) (A) (A) (A) (A) (A)
                 (A) (A) (A) (A) (A) (A) (A) (A) (A) (A) (A) (A)
                 (A) (A) (A) (A) (A) (A) (A) (A) (A) (A) (A) (A)
                 (A) (A) (A) (A) (A) (A) (A) (A) (A) (A) (A) (A)
                 (A) (A) (A) (A) (A) (A) (A) (A) (A) (A) (A) (A)
                 (A) (A) (A) (A) (A) (A) (A) (A) (A) (A) (A) (A)
                 (A) (A) (A) (A) (A) (A) (A) (A) (A) (A) (A) (A)
                 (A) (A) (A) (A) (A) (A) (A) (A) (A) (A) (A) (A)
                 (A) (A) (A) (A) (A) (A) (A) (A) (A) (A) (A) (A)
                 (A) (A) (A) (A) (A) (A) (A) (A) (A) (A) (A) (A)
                 (A) (A) (A) (A) (A) (A) (A) (A) (A) (A) (A) (A)
                 (A) (A) (A) (A) (A) (A) (A) (A) (A) (A) (A) (A)
                 (A) (A) (A) (A) (A) (A) (A) (A) (A) (A) (A) (A)
                 (A) (A) (A) (A) (A) (A) (A) (A) (A) (A) (A) (A)
                 (A) (A) (A) (A) (A) (A) (A) (A) (A) (A) (A) (A)
                 (A) (A) (A) (A) (A) (A) (A) (A) (A) (A) (A) (A)
                 (A) (A) (A) (A) (A) (A) (A) (A) (A) (A) (A) (A)
                 (A) (A) (A) (A) (A) (A) (A) (A) (A) (A) (A) (A)
                 (A) (A)
 Beta  Orbitals:
       Occupied  (A) (A) (A) (A) (A) (A) (A) (A) (A) (A) (A) (A)
                 (A) (A) (A) (A) (A) (A) (A) (A)
       Virtual   (A) (A) (A) (A) (A) (A) (A) (A) (A) (A) (A) (A)
                 (A) (A) (A) (A) (A) (A) (A) (A) (A) (A) (A) (A)
                 (A) (A) (A) (A) (A) (A) (A) (A) (A) (A) (A) (A)
                 (A) (A) (A) (A) (A) (A) (A) (A) (A) (A) (A) (A)
                 (A) (A) (A) (A) (A) (A) (A) (A) (A) (A) (A) (A)
                 (A) (A) (A) (A) (A) (A) (A) (A) (A) (A) (A) (A)
                 (A) (A) (A) (A) (A) (A) (A) (A) (A) (A) (A) (A)
                 (A) (A) (A) (A) (A) (A) (A) (A) (A) (A) (A) (A)
                 (A) (A) (A) (A) (A) (A) (A) (A) (A) (A) (A) (A)
                 (A) (A) (A) (A) (A) (A) (A) (A) (A) (A) (A) (A)
                 (A) (A) (A) (A) (A) (A) (A) (A) (A) (A) (A) (A)
                 (A) (A) (A) (A) (A) (A) (A) (A) (A) (A) (A) (A)
                 (A) (A) (A) (A) (A) (A) (A) (A) (A) (A) (A) (A)
                 (A) (A) (A) (A) (A) (A) (A) (A) (A) (A) (A) (A)
                 (A) (A) (A) (A) (A) (A) (A) (A) (A) (A) (A) (A)
                 (A) (A) (A) (A) (A) (A) (A) (A) (A) (A) (A) (A)
                 (A) (A) (A) (A) (A) (A) (A) (A) (A) (A) (A) (A)
                 (A) (A) (A) (A) (A) (A) (A) (A) (A) (A) (A) (A)
                 (A) (A) (A) (A) (A) (A) (A) (A) (A) (A) (A) (A)
                 (A) (A) (A)
 The electronic state is 2-A.
 Alpha  occ. eigenvalues --  -19.65351 -10.59404 -10.58961 -10.53289 -10.53207
 Alpha  occ. eigenvalues --   -1.19562  -0.88946  -0.79341  -0.75687  -0.66087
 Alpha  occ. eigenvalues --   -0.57692  -0.55325  -0.55034  -0.48130  -0.46032
 Alpha  occ. eigenvalues --   -0.44873  -0.44192  -0.42594  -0.39272  -0.37832
 Alpha  occ. eigenvalues --   -0.25657
 Alpha virt. eigenvalues --    0.01721   0.03165   0.03425   0.04155   0.05603
 Alpha virt. eigenvalues --    0.06573   0.07345   0.07645   0.08353   0.09833
 Alpha virt. eigenvalues --    0.10543   0.11737   0.12108   0.13039   0.13923
 Alpha virt. eigenvalues --    0.15611   0.17904   0.18794   0.21139   0.21394
 Alpha virt. eigenvalues --    0.23347   0.24108   0.24809   0.25213   0.26815
 Alpha virt. eigenvalues --    0.27631   0.27927   0.29475   0.30378   0.32496
 Alpha virt. eigenvalues --    0.32772   0.36247   0.38941   0.40516   0.42957
 Alpha virt. eigenvalues --    0.44807   0.47221   0.48851   0.49775   0.50705
 Alpha virt. eigenvalues --    0.53054   0.53829   0.55187   0.56294   0.57586
 Alpha virt. eigenvalues --    0.58025   0.59506   0.60083   0.61697   0.61821
 Alpha virt. eigenvalues --    0.63332   0.65699   0.67333   0.67940   0.69667
 Alpha virt. eigenvalues --    0.70280   0.73803   0.75031   0.78509   0.83966
 Alpha virt. eigenvalues --    0.85623   0.86872   0.88380   0.89126   0.93084
 Alpha virt. eigenvalues --    0.96456   0.99337   1.00192   1.03951   1.04542
 Alpha virt. eigenvalues --    1.05860   1.07861   1.09614   1.10234   1.13288
 Alpha virt. eigenvalues --    1.15787   1.15910   1.19131   1.20171   1.21717
 Alpha virt. eigenvalues --    1.22732   1.23705   1.26460   1.27152   1.29592
 Alpha virt. eigenvalues --    1.29751   1.32335   1.33843   1.34617   1.36081
 Alpha virt. eigenvalues --    1.36934   1.40797   1.40925   1.42394   1.45698
 Alpha virt. eigenvalues --    1.46103   1.48814   1.49649   1.51226   1.53552
 Alpha virt. eigenvalues --    1.55278   1.58672   1.60068   1.62226   1.64743
 Alpha virt. eigenvalues --    1.65343   1.68072   1.73022   1.81444   1.96396
 Alpha virt. eigenvalues --    2.08107   2.18236   2.25431   2.37069   2.43042
 Alpha virt. eigenvalues --    2.44519   2.49219   2.51983   2.55425   2.57343
 Alpha virt. eigenvalues --    2.65935   2.69402   2.74441   2.78062   2.81723
 Alpha virt. eigenvalues --    2.87438   2.91060   2.92527   2.95310   2.95700
 Alpha virt. eigenvalues --    2.97364   2.99453   3.00386   3.02245   3.06019
 Alpha virt. eigenvalues --    3.06877   3.07898   3.14543   3.15573   3.17168
 Alpha virt. eigenvalues --    3.18109   3.18874   3.19724   3.23616   3.26399
 Alpha virt. eigenvalues --    3.29608   3.31018   3.34243   3.35893   3.37028
 Alpha virt. eigenvalues --    3.40385   3.42184   3.44946   3.46198   3.50881
 Alpha virt. eigenvalues --    3.51862   3.56352   3.57212   3.62480   3.63480
 Alpha virt. eigenvalues --    3.66394   3.68345   3.70276   3.72361   3.73648
 Alpha virt. eigenvalues --    3.80673   3.81953   3.85089   3.86299   3.89759
 Alpha virt. eigenvalues --    3.91884   3.93865   3.96323   3.97096   3.98942
 Alpha virt. eigenvalues --    4.02756   4.04522   4.11702   4.12292   4.14701
 Alpha virt. eigenvalues --    4.16565   4.20229   4.21423   4.22530   4.24110
 Alpha virt. eigenvalues --    4.27315   4.28836   4.29728   4.33898   4.38003
 Alpha virt. eigenvalues --    4.40031   4.42848   4.47084   4.50269   4.53807
 Alpha virt. eigenvalues --    4.56681   4.58741   4.60379   4.63838   4.68105
 Alpha virt. eigenvalues --    4.85995   5.04346   5.10647   5.25005   5.26853
 Alpha virt. eigenvalues --    5.32011   5.40108   5.44761   5.47744   5.50575
 Alpha virt. eigenvalues --    5.52369   5.53411   5.57178   5.60864   5.68065
 Alpha virt. eigenvalues --    5.80758   5.93526   6.24206   6.48637   6.77754
 Alpha virt. eigenvalues --    7.15124   7.24422   7.33147   7.71312   7.73850
 Alpha virt. eigenvalues --   24.26322  24.29904  24.32241  24.52169  50.20001
  Beta  occ. eigenvalues --  -19.64946 -10.59417 -10.58147 -10.53279 -10.53208
  Beta  occ. eigenvalues --   -1.18284  -0.88637  -0.78851  -0.73906  -0.65137
  Beta  occ. eigenvalues --   -0.56682  -0.54248  -0.54111  -0.47090  -0.45879
  Beta  occ. eigenvalues --   -0.43987  -0.43445  -0.42049  -0.38519  -0.35895
  Beta virt. eigenvalues --   -0.02079   0.01434   0.02939   0.03566   0.04373
  Beta virt. eigenvalues --    0.05604   0.06567   0.07237   0.07700   0.08424
  Beta virt. eigenvalues --    0.09735   0.10651   0.11357   0.11970   0.12517
  Beta virt. eigenvalues --    0.13800   0.15786   0.17831   0.18931   0.21138
  Beta virt. eigenvalues --    0.21522   0.23490   0.24318   0.24912   0.25657
  Beta virt. eigenvalues --    0.27055   0.27800   0.28102   0.29601   0.30492
  Beta virt. eigenvalues --    0.32379   0.33320   0.36199   0.38980   0.40588
  Beta virt. eigenvalues --    0.43389   0.44824   0.47259   0.48935   0.50471
  Beta virt. eigenvalues --    0.50798   0.53440   0.54038   0.55102   0.56386
  Beta virt. eigenvalues --    0.57695   0.58380   0.59855   0.60243   0.61747
  Beta virt. eigenvalues --    0.62139   0.63412   0.65532   0.67135   0.68177
  Beta virt. eigenvalues --    0.69513   0.70443   0.73977   0.75506   0.78942
  Beta virt. eigenvalues --    0.84137   0.85637   0.86902   0.88359   0.89136
  Beta virt. eigenvalues --    0.92953   0.96520   0.99221   1.00447   1.04094
  Beta virt. eigenvalues --    1.04327   1.05891   1.08397   1.09566   1.10339
  Beta virt. eigenvalues --    1.13417   1.15836   1.15983   1.19132   1.20293
  Beta virt. eigenvalues --    1.21860   1.22711   1.24040   1.26541   1.27486
  Beta virt. eigenvalues --    1.29463   1.29955   1.32419   1.33857   1.34612
  Beta virt. eigenvalues --    1.36199   1.37058   1.40908   1.41146   1.42566
  Beta virt. eigenvalues --    1.45896   1.46078   1.48842   1.49967   1.51462
  Beta virt. eigenvalues --    1.53699   1.55367   1.58747   1.60156   1.62419
  Beta virt. eigenvalues --    1.65204   1.65390   1.68339   1.73559   1.81499
  Beta virt. eigenvalues --    1.97411   2.08370   2.18681   2.26179   2.37398
  Beta virt. eigenvalues --    2.43388   2.45365   2.49441   2.52695   2.55722
  Beta virt. eigenvalues --    2.57740   2.66216   2.69754   2.74783   2.78634
  Beta virt. eigenvalues --    2.81886   2.87889   2.91771   2.95337   2.95882
  Beta virt. eigenvalues --    2.97413   2.98383   3.01770   3.02875   3.03777
  Beta virt. eigenvalues --    3.06338   3.08009   3.10337   3.15358   3.16556
  Beta virt. eigenvalues --    3.18338   3.18990   3.21035   3.23076   3.24461
  Beta virt. eigenvalues --    3.27028   3.30636   3.33821   3.35072   3.36692
  Beta virt. eigenvalues --    3.38561   3.41346   3.43472   3.46338   3.48962
  Beta virt. eigenvalues --    3.52392   3.53977   3.56555   3.58021   3.63996
  Beta virt. eigenvalues --    3.64881   3.67152   3.69153   3.71949   3.72525
  Beta virt. eigenvalues --    3.73917   3.81551   3.82435   3.86346   3.88004
  Beta virt. eigenvalues --    3.90520   3.92959   3.94478   3.97074   3.97367
  Beta virt. eigenvalues --    4.00668   4.03706   4.04842   4.12439   4.13488
  Beta virt. eigenvalues --    4.15342   4.17177   4.20479   4.22050   4.23134
  Beta virt. eigenvalues --    4.25028   4.27866   4.29189   4.30535   4.34375
  Beta virt. eigenvalues --    4.38711   4.40298   4.43098   4.47331   4.50578
  Beta virt. eigenvalues --    4.53992   4.56720   4.59479   4.60830   4.64186
  Beta virt. eigenvalues --    4.68139   4.86153   5.06795   5.12165   5.26370
  Beta virt. eigenvalues --    5.27672   5.32696   5.43053   5.45126   5.48075
  Beta virt. eigenvalues --    5.51332   5.52655   5.53533   5.57562   5.61178
  Beta virt. eigenvalues --    5.68852   5.81015   5.94265   6.24300   6.49261
  Beta virt. eigenvalues --    6.78090   7.16089   7.25420   7.34031   7.71570
  Beta virt. eigenvalues --    7.73852  24.26333  24.31300  24.32248  24.52140
  Beta virt. eigenvalues --   50.19708
          Condensed to atoms (all electrons):
               1          2          3          4          5          6
     1  O    8.173413   0.140826  -0.035569  -0.141366   0.071635  -0.055233
     2  C    0.140826   5.683937  -0.155075   0.275020  -0.085323   0.518914
     3  C   -0.035569  -0.155075   5.484396  -0.034169  -0.027578  -0.093643
     4  C   -0.141366   0.275020  -0.034169   5.176485  -0.006984  -0.052731
     5  C    0.071635  -0.085323  -0.027578  -0.006984   5.519813  -0.002310
     6  H   -0.055233   0.518914  -0.093643  -0.052731  -0.002310   0.532584
     7  H    0.003173  -0.036510   0.422516   0.014596  -0.019506  -0.012494
     8  H    0.005893  -0.064976   0.415839   0.011880   0.004807   0.002464
     9  H   -0.003197  -0.020716   0.403945  -0.011179   0.003512   0.005334
    10  H   -0.007675  -0.018750  -0.007097   0.399962   0.000093   0.006082
    11  H   -0.003422  -0.034162   0.021554   0.399829  -0.001736  -0.007803
    12  H    0.013357  -0.042767  -0.007825   0.413874   0.001549  -0.006931
    13  H   -0.060689   0.011625  -0.002412  -0.000828   0.428414   0.000536
    14  H   -0.040228   0.031105  -0.015911  -0.001195   0.371237   0.000789
               7          8          9         10         11         12
     1  O    0.003173   0.005893  -0.003197  -0.007675  -0.003422   0.013357
     2  C   -0.036510  -0.064976  -0.020716  -0.018750  -0.034162  -0.042767
     3  C    0.422516   0.415839   0.403945  -0.007097   0.021554  -0.007825
     4  C    0.014596   0.011880  -0.011179   0.399962   0.399829   0.413874
     5  C   -0.019506   0.004807   0.003512   0.000093  -0.001736   0.001549
     6  H   -0.012494   0.002464   0.005334   0.006082  -0.007803  -0.006931
     7  H    0.529087  -0.024667  -0.028952  -0.000020  -0.000367   0.000176
     8  H   -0.024667   0.535844  -0.023715  -0.001331   0.000621  -0.001108
     9  H   -0.028952  -0.023715   0.517152   0.000461  -0.000426   0.000678
    10  H   -0.000020  -0.001331   0.000461   0.527613  -0.023555  -0.030173
    11  H   -0.000367   0.000621  -0.000426  -0.023555   0.526232  -0.022649
    12  H    0.000176  -0.001108   0.000678  -0.030173  -0.022649   0.544692
    13  H    0.000218   0.000023   0.000253  -0.000017  -0.000029   0.000014
    14  H   -0.002817  -0.000024  -0.003644  -0.000026  -0.000009   0.000004
              13         14
     1  O   -0.060689  -0.040228
     2  C    0.011625   0.031105
     3  C   -0.002412  -0.015911
     4  C   -0.000828  -0.001195
     5  C    0.428414   0.371237
     6  H    0.000536   0.000789
     7  H    0.000218  -0.002817
     8  H    0.000023  -0.000024
     9  H    0.000253  -0.003644
    10  H   -0.000017  -0.000026
    11  H   -0.000029  -0.000009
    12  H    0.000014   0.000004
    13  H    0.506104  -0.032147
    14  H   -0.032147   0.564372
          Atomic-Atomic Spin Densities.
               1          2          3          4          5          6
     1  O    0.267349   0.001758   0.011888  -0.008145  -0.197785  -0.007232
     2  C    0.001758   0.104471  -0.091521   0.012899  -0.044593   0.022701
     3  C    0.011888  -0.091521   0.124909  -0.026244   0.019066  -0.013142
     4  C   -0.008145   0.012899  -0.026244   0.015082  -0.001216   0.002615
     5  C   -0.197785  -0.044593   0.019066  -0.001216   1.233083  -0.003044
     6  H   -0.007232   0.022701  -0.013142   0.002615  -0.003044   0.000445
     7  H    0.000206   0.000507  -0.002967   0.000147   0.000521   0.000472
     8  H   -0.000746  -0.005506   0.000218   0.002012   0.002660  -0.000431
     9  H    0.001445   0.016500  -0.003012  -0.002030  -0.012652  -0.000241
    10  H   -0.000391   0.003386   0.000996  -0.003518  -0.000097  -0.000242
    11  H    0.000927  -0.004322   0.001974   0.000474   0.000544  -0.000270
    12  H    0.000054  -0.000916   0.001425  -0.000541  -0.000162  -0.000236
    13  H   -0.000208   0.003695  -0.001782   0.001358  -0.016470   0.000316
    14  H   -0.003932   0.023162  -0.009960   0.001412  -0.043673   0.001818
               7          8          9         10         11         12
     1  O    0.000206  -0.000746   0.001445  -0.000391   0.000927   0.000054
     2  C    0.000507  -0.005506   0.016500   0.003386  -0.004322  -0.000916
     3  C   -0.002967   0.000218  -0.003012   0.000996   0.001974   0.001425
     4  C    0.000147   0.002012  -0.002030  -0.003518   0.000474  -0.000541
     5  C    0.000521   0.002660  -0.012652  -0.000097   0.000544  -0.000162
     6  H    0.000472  -0.000431  -0.000241  -0.000242  -0.000270  -0.000236
     7  H   -0.002446   0.000323   0.000363   0.000011  -0.000000  -0.000020
     8  H    0.000323  -0.000066   0.000404   0.000028   0.000031   0.000026
     9  H    0.000363   0.000404  -0.013995  -0.000142   0.000007  -0.000043
    10  H    0.000011   0.000028  -0.000142  -0.000944   0.000166   0.000035
    11  H   -0.000000   0.000031   0.000007   0.000166  -0.000283   0.000240
    12  H   -0.000020   0.000026  -0.000043   0.000035   0.000240  -0.000408
    13  H   -0.000018  -0.000017   0.000035  -0.000002  -0.000006  -0.000002
    14  H    0.000538  -0.000315   0.001059  -0.000003  -0.000036  -0.000012
              13         14
     1  O   -0.000208  -0.003932
     2  C    0.003695   0.023162
     3  C   -0.001782  -0.009960
     4  C    0.001358   0.001412
     5  C   -0.016470  -0.043673
     6  H    0.000316   0.001818
     7  H   -0.000018   0.000538
     8  H   -0.000017  -0.000315
     9  H    0.000035   0.001059
    10  H   -0.000002  -0.000003
    11  H   -0.000006  -0.000036
    12  H   -0.000002  -0.000012
    13  H   -0.013761   0.010643
    14  H    0.010643   0.000126
 Mulliken charges and spin densities:
               1          2
     1  O   -0.060919   0.065190
     2  C   -0.203148   0.042220
     3  C   -0.368971   0.011848
     4  C   -0.443194  -0.005697
     5  C   -0.257622   0.936182
     6  H    0.164445   0.003529
     7  H    0.155568  -0.002364
     8  H    0.138451  -0.001380
     9  H    0.160494  -0.012303
    10  H    0.154433  -0.000719
    11  H    0.145923  -0.000555
    12  H    0.137109  -0.000560
    13  H    0.148937  -0.016219
    14  H    0.128493  -0.019173
 Sum of Mulliken charges =  -0.00000   1.00000
 Mulliken charges and spin densities with hydrogens summed into heavy atoms:
               1          2
     1  O   -0.060919   0.065190
     2  C   -0.038703   0.045749
     3  C    0.085543  -0.004199
     4  C   -0.005728  -0.007531
     5  C    0.019807   0.900790
 APT charges:
               1
     1  O   -0.072663
     2  C   -0.230980
     3  C   -1.130581
     4  C   -1.225751
     5  C   -0.907608
     6  H    0.375342
     7  H    0.392146
     8  H    0.422105
     9  H    0.323057
    10  H    0.346332
    11  H    0.400602
    12  H    0.442484
    13  H    0.561152
    14  H    0.304362
 Sum of APT charges =  -0.00000
 APT charges with hydrogens summed into heavy atoms:
               1
     1  O   -0.072663
     2  C    0.144362
     3  C    0.006728
     4  C   -0.036333
     5  C   -0.042094
 Electronic spatial extent (au):  <R**2>=            470.9583
 Charge=             -0.0000 electrons
 Dipole moment (field-independent basis, Debye):
    X=              0.5929    Y=              0.8703    Z=              0.8853  Tot=              1.3757
 Quadrupole moment (field-independent basis, Debye-Ang):
   XX=            -31.5672   YY=            -34.1479   ZZ=            -33.5954
   XY=              0.0999   XZ=             -1.0736   YZ=              0.1381
 Traceless Quadrupole moment (field-independent basis, Debye-Ang):
   XX=              1.5363   YY=             -1.0444   ZZ=             -0.4919
   XY=              0.0999   XZ=             -1.0736   YZ=              0.1381
 Octapole moment (field-independent basis, Debye-Ang**2):
  XXX=             -3.5729  YYY=             -3.3757  ZZZ=              0.3327  XYY=              0.1464
  XXY=             -3.3013  XXZ=              2.3830  XZZ=              0.9791  YZZ=             -0.5813
  YYZ=              1.2120  XYZ=             -1.1245
 Hexadecapole moment (field-independent basis, Debye-Ang**3):
 XXXX=           -374.6455 YYYY=           -206.7123 ZZZZ=            -68.5602 XXXY=             16.4884
 XXXZ=             -3.4376 YYYX=              1.3889 YYYZ=              0.6071 ZZZX=             -2.6457
 ZZZY=              0.9822 XXYY=            -94.5431 XXZZ=            -79.9026 YYZZ=            -45.3886
 XXYZ=              3.0660 YYXZ=             -0.4581 ZZXY=             -0.9974
 N-N= 1.891854635620D+02 E-N=-9.209085637108D+02  KE= 2.318587939410D+02
  Exact polarizability:   0.000   0.000   0.000   0.000   0.000   0.000
 Approx polarizability:  65.922  -0.286  60.701   1.216   1.308  61.010
                          Isotropic Fermi Contact Couplings
        Atom                 a.u.       MegaHertz       Gauss      10(-4) cm-1
     1  O(17)              0.03650     -22.12887      -7.89613      -7.38139
     2  C(13)             -0.00579      -6.50497      -2.32114      -2.16983
     3  C(13)              0.00015       0.16866       0.06018       0.05626
     4  C(13)             -0.00138      -1.55334      -0.55427      -0.51814
     5  C(13)              0.34071     383.02772     136.67381     127.76429
     6  H(1)               0.00403      17.99611       6.42146       6.00286
     7  H(1)              -0.00026      -1.17577      -0.41954      -0.39219
     8  H(1)              -0.00026      -1.15363      -0.41164      -0.38481
     9  H(1)               0.00052       2.30839       0.82369       0.77000
    10  H(1)              -0.00007      -0.31616      -0.11281      -0.10546
    11  H(1)              -0.00006      -0.25830      -0.09217      -0.08616
    12  H(1)              -0.00024      -1.06233      -0.37906      -0.35435
    13  H(1)              -0.00137      -6.10717      -2.17919      -2.03713
    14  H(1)              -0.00047      -2.09305      -0.74685      -0.69817
 --------------------------------------------------------
       Center         ----  Spin Dipole Couplings  ----
                      3XX-RR        3YY-RR        3ZZ-RR
 --------------------------------------------------------
     1   Atom       -0.437086     -0.180721      0.617807
     2   Atom        0.015807     -0.004709     -0.011098
     3   Atom        0.000734      0.000120     -0.000853
     4   Atom        0.006344     -0.003335     -0.003009
     5   Atom       -0.471032     -0.112864      0.583896
     6   Atom        0.004904     -0.005253      0.000349
     7   Atom       -0.000587      0.003312     -0.002724
     8   Atom        0.003736     -0.000534     -0.003202
     9   Atom        0.006019      0.001025     -0.007044
    10   Atom        0.005162     -0.002831     -0.002332
    11   Atom        0.004372     -0.001702     -0.002669
    12   Atom        0.003485     -0.001765     -0.001720
    13   Atom        0.009338      0.007501     -0.016839
    14   Atom       -0.053645      0.018198      0.035447
 --------------------------------------------------------
                        XY            XZ            YZ
 --------------------------------------------------------
     1   Atom        0.029288      0.021171     -0.502219
     2   Atom        0.005924      0.008163      0.004054
     3   Atom        0.003172      0.009817     -0.011593
     4   Atom       -0.000767      0.001033     -0.000597
     5   Atom       -0.007257      0.027073     -0.606949
     6   Atom        0.001214      0.008773      0.001977
     7   Atom        0.006147      0.002750      0.004280
     8   Atom        0.004304      0.000033     -0.000705
     9   Atom        0.013562     -0.003047     -0.004755
    10   Atom       -0.001136     -0.002337      0.000219
    11   Atom       -0.002974      0.001042     -0.000466
    12   Atom        0.000154      0.000659     -0.000083
    13   Atom        0.059434      0.006919     -0.011702
    14   Atom       -0.003785     -0.006096      0.037277
 --------------------------------------------------------


 ---------------------------------------------------------------------------------
              Anisotropic Spin Dipole Couplings in Principal Axis System
 ---------------------------------------------------------------------------------

       Atom             a.u.   MegaHertz   Gauss  10(-4) cm-1        Axes

              Baa    -0.4663    33.745    12.041    11.256  0.7726 -0.5701 -0.2792
     1 O(17)  Bbb    -0.3938    28.496    10.168     9.505  0.6348  0.6973  0.3329
              Bcc     0.8602   -62.241   -22.209   -20.761  0.0049 -0.4344  0.9007
 
              Baa    -0.0141    -1.886    -0.673    -0.629 -0.2011 -0.2798  0.9388
     2 C(13)  Bbb    -0.0059    -0.794    -0.283    -0.265 -0.3283  0.9222  0.2045
              Bcc     0.0200     2.680     0.956     0.894  0.9229  0.2670  0.2773
 
              Baa    -0.0170    -2.285    -0.815    -0.762 -0.4769  0.5512  0.6846
     3 C(13)  Bbb     0.0036     0.484     0.173     0.161  0.7661  0.6425  0.0165
              Bcc     0.0134     1.801     0.643     0.601  0.4308 -0.5324  0.7287
 
              Baa    -0.0038    -0.509    -0.182    -0.170 -0.0020  0.7935  0.6086
     4 C(13)  Bbb    -0.0027    -0.367    -0.131    -0.122 -0.1403 -0.6028  0.7854
              Bcc     0.0065     0.876     0.313     0.292  0.9901 -0.0839  0.1125
 
              Baa    -0.4761   -63.883   -22.795   -21.309  0.8499 -0.4476 -0.2780
     5 C(13)  Bbb    -0.4598   -61.700   -22.016   -20.581  0.5266  0.7407  0.4171
              Bcc     0.9359   125.584    44.811    41.890  0.0192 -0.5009  0.8653
 
              Baa    -0.0069    -3.690    -1.317    -1.231 -0.4815 -0.5023  0.7182
     6 H(1)   Bbb    -0.0050    -2.694    -0.961    -0.899 -0.3971  0.8556  0.3321
              Bcc     0.0120     6.384     2.278     2.129  0.7813  0.1253  0.6115
 
              Baa    -0.0053    -2.805    -1.001    -0.936 -0.5854  0.6571 -0.4749
     7 H(1)   Bbb    -0.0046    -2.456    -0.876    -0.819 -0.6035  0.0380  0.7965
              Bcc     0.0099     5.261     1.877     1.755  0.5414  0.7528  0.3743
 
              Baa    -0.0038    -2.041    -0.728    -0.681 -0.3507  0.6108  0.7099
     8 H(1)   Bbb    -0.0026    -1.384    -0.494    -0.461  0.3972 -0.5895  0.7034
              Bcc     0.0064     3.424     1.222     1.142  0.8481  0.5287 -0.0358
 
              Baa    -0.0112    -5.973    -2.131    -1.992 -0.4908  0.7299  0.4758
     9 H(1)   Bbb    -0.0073    -3.873    -1.382    -1.292  0.4537 -0.2521  0.8547
              Bcc     0.0185     9.846     3.513     3.284  0.7438  0.6354 -0.2074
 
              Baa    -0.0031    -1.650    -0.589    -0.550  0.2864  0.6673  0.6875
    10 H(1)   Bbb    -0.0029    -1.541    -0.550    -0.514 -0.0920  0.7334 -0.6736
              Bcc     0.0060     3.192     1.139     1.065  0.9537 -0.1297 -0.2714
 
              Baa    -0.0029    -1.563    -0.558    -0.521  0.3143  0.8886  0.3339
    11 H(1)   Bbb    -0.0028    -1.500    -0.535    -0.500 -0.2447 -0.2640  0.9330
              Bcc     0.0057     3.063     1.093     1.022  0.9172 -0.3750  0.1344
 
              Baa    -0.0019    -1.008    -0.360    -0.336 -0.1110  0.6471  0.7543
    12 H(1)   Bbb    -0.0017    -0.898    -0.320    -0.299  0.0595  0.7619 -0.6449
              Bcc     0.0036     1.905     0.680     0.636  0.9920  0.0267  0.1231
 
              Baa    -0.0555   -29.628   -10.572    -9.883 -0.6578  0.6803  0.3234
    13 H(1)   Bbb    -0.0125    -6.648    -2.372    -2.217  0.2545 -0.2034  0.9455
              Bcc     0.0680    36.276    12.944    12.100  0.7089  0.7042 -0.0393
 
              Baa    -0.0541   -28.859   -10.297    -9.626  0.9980  0.0219  0.0588
    14 H(1)   Bbb    -0.0114    -6.095    -2.175    -2.033  0.0194  0.7837 -0.6208
              Bcc     0.0655    34.954    12.472    11.659 -0.0597  0.6207  0.7818
 

 ---------------------------------------------------------------------------------

 No NMR shielding tensors so no spin-rotation constants.
 Leave Link  601 at Tue Apr  9 01:47:30 2019, MaxMem=   671088640 cpu:               8.3 elap:               0.5
 (Enter /shared/centos7/gaussian/g16/l701.exe)
 SCFChk:  SCF convergence  6.67D-09 required  1.00D-08
 ... and contract with generalized density number  0.
 Compute integral second derivatives.
 Entering OneElI...
 Calculate overlap and kinetic energy integrals
    NBasis = 276  MinDer = 2  MaxDer = 2
 Requested accuracy = 0.1000D-12
 PrmmSu-InSpLW:  IPartL=    0 NPrtUS=   20 NPrtUL=    1 DoSpLW=F IThBeg=    0 IThEnd=   19 NThAct=   20.
 PrsmSu:  NPrtUS=  20 ThrOK=T IAlg=1 NPAlg=1 LenDen=           0 ISkipM=0 DoSpLW=F IThBeg=    0 IThEnd=   19.
 Prism:   IPart=     0 DynPar=F LinDyn=F Incr=           1.
 PRISM was handed    33456512 working-precision words and  3654 shell-pairs
 PRISM was handed    33456512 working-precision words and  3654 shell-pairs
 PRISM was handed    33456512 working-precision words and  3654 shell-pairs
 PRISM was handed    33456512 working-precision words and  3654 shell-pairs
 PRISM was handed    33456512 working-precision words and  3654 shell-pairs
 PRISM was handed    33456512 working-precision words and  3654 shell-pairs
 PRISM was handed    33456512 working-precision words and  3654 shell-pairs
 PRISM was handed    33456512 working-precision words and  3654 shell-pairs
 PRISM was handed    33456512 working-precision words and  3654 shell-pairs
 PRISM was handed    33456512 working-precision words and  3654 shell-pairs
 PRISM was handed    33456512 working-precision words and  3654 shell-pairs
 PRISM was handed    33456512 working-precision words and  3654 shell-pairs
 PRISM was handed    33456512 working-precision words and  3654 shell-pairs
 PRISM was handed    33456512 working-precision words and  3654 shell-pairs
 PRISM was handed    33456512 working-precision words and  3654 shell-pairs
 PRISM was handed    33456512 working-precision words and  3654 shell-pairs
 PRISM was handed    33456512 working-precision words and  3654 shell-pairs
 PRISM was handed    33456512 working-precision words and  3654 shell-pairs
 PRISM was handed    33456512 working-precision words and  3654 shell-pairs
 PRISM was handed    33456512 working-precision words and  3654 shell-pairs
 IPart= 19 NShTot=         164 NBatch=          29 AvBLen=         5.7
 IPart=  0 NShTot=         212 NBatch=          53 AvBLen=         4.0
 IPart= 18 NShTot=         164 NBatch=          29 AvBLen=         5.7
 IPart= 16 NShTot=         164 NBatch=          29 AvBLen=         5.7
 IPart= 17 NShTot=         164 NBatch=          29 AvBLen=         5.7
 IPart=  3 NShTot=         207 NBatch=          49 AvBLen=         4.2
 IPart=  4 NShTot=         203 NBatch=          46 AvBLen=         4.4
 IPart=  2 NShTot=         208 NBatch=          50 AvBLen=         4.2
 IPart=  6 NShTot=         189 NBatch=          38 AvBLen=         5.0
 IPart=  1 NShTot=         211 NBatch=          52 AvBLen=         4.1
 IPart=  9 NShTot=         184 NBatch=          36 AvBLen=         5.1
 IPart= 10 NShTot=         173 NBatch=          33 AvBLen=         5.2
 IPart=  5 NShTot=         194 NBatch=          40 AvBLen=         4.9
 IPart=  7 NShTot=         188 NBatch=          38 AvBLen=         4.9
 IPart=  8 NShTot=         185 NBatch=          37 AvBLen=         5.0
 IPart= 12 NShTot=         171 NBatch=          32 AvBLen=         5.3
 IPart= 11 NShTot=         172 NBatch=          32 AvBLen=         5.4
 IPart= 14 NShTot=         168 NBatch=          30 AvBLen=         5.6
 IPart= 15 NShTot=         164 NBatch=          29 AvBLen=         5.7
 IPart= 13 NShTot=         169 NBatch=          31 AvBLen=         5.5
 PrSmSu:  NxtVal=             21.
 Entering OneElI...
 Calculate potential energy integrals
    NBasis = 276  MinDer = 2  MaxDer = 2
 Requested accuracy = 0.1000D-12
 PrmmSu-InSpLW:  IPartL=    0 NPrtUS=   20 NPrtUL=    1 DoSpLW=F IThBeg=    0 IThEnd=   19 NThAct=   20.
 PrsmSu:  NPrtUS=  20 ThrOK=T IAlg=1 NPAlg=1 LenDen=           0 ISkipM=0 DoSpLW=F IThBeg=    0 IThEnd=   19.
 Prism:   IPart=     0 DynPar=F LinDyn=F Incr=          24.
 PRISM was handed    33468757 working-precision words and  3513 shell-pairs
 PRISM was handed    33468757 working-precision words and  3513 shell-pairs
 PRISM was handed    33468757 working-precision words and  3513 shell-pairs
 PRISM was handed    33468757 working-precision words and  3513 shell-pairs
 PRISM was handed    33468757 working-precision words and  3513 shell-pairs
 PRISM was handed    33468757 working-precision words and  3513 shell-pairs
 PRISM was handed    33468757 working-precision words and  3513 shell-pairs
 PRISM was handed    33468757 working-precision words and  3513 shell-pairs
 PRISM was handed    33468757 working-precision words and  3513 shell-pairs
 PRISM was handed    33468757 working-precision words and  3513 shell-pairs
 PRISM was handed    33468757 working-precision words and  3513 shell-pairs
 PRISM was handed    33468757 working-precision words and  3513 shell-pairs
 PRISM was handed    33468757 working-precision words and  3513 shell-pairs
 PRISM was handed    33468757 working-precision words and  3513 shell-pairs
 PRISM was handed    33468757 working-precision words and  3513 shell-pairs
 PRISM was handed    33468757 working-precision words and  3513 shell-pairs
 PRISM was handed    33468757 working-precision words and  3513 shell-pairs
 PRISM was handed    33468757 working-precision words and  3513 shell-pairs
 PRISM was handed    33468757 working-precision words and  3513 shell-pairs
 PRISM was handed    33468757 working-precision words and  3513 shell-pairs
 IPart= 17 NShTot=        2212 NBatch=         158 AvBLen=        14.0
 IPart= 16 NShTot=        2212 NBatch=         158 AvBLen=        14.0
 IPart= 19 NShTot=        2170 NBatch=         155 AvBLen=        14.0
 IPart= 18 NShTot=        2184 NBatch=         156 AvBLen=        14.0
 IPart=  8 NShTot=        2464 NBatch=         176 AvBLen=        14.0
 IPart=  0 NShTot=        2968 NBatch=         212 AvBLen=        14.0
 IPart=  7 NShTot=        2506 NBatch=         179 AvBLen=        14.0
 IPart= 10 NShTot=        2380 NBatch=         170 AvBLen=        14.0
 IPart=  9 NShTot=        2408 NBatch=         172 AvBLen=        14.0
 IPart=  4 NShTot=        2688 NBatch=         192 AvBLen=        14.0
 IPart=  6 NShTot=        2520 NBatch=         180 AvBLen=        14.0
 IPart=  5 NShTot=        2604 NBatch=         186 AvBLen=        14.0
 IPart=  2 NShTot=        2800 NBatch=         200 AvBLen=        14.0
 IPart= 12 NShTot=        2310 NBatch=         165 AvBLen=        14.0
 IPart= 11 NShTot=        2338 NBatch=         167 AvBLen=        14.0
 IPart=  3 NShTot=        2744 NBatch=         196 AvBLen=        14.0
 IPart= 13 NShTot=        2296 NBatch=         164 AvBLen=        14.0
 IPart=  1 NShTot=        2856 NBatch=         204 AvBLen=        14.0
 IPart= 15 NShTot=        2240 NBatch=         160 AvBLen=        14.0
 IPart= 14 NShTot=        2282 NBatch=         163 AvBLen=        14.0
 PrSmSu:  NxtVal=            481.
 Polarizability after L701:
                1             2             3 
      1  0.000000D+00
      2  0.000000D+00  0.000000D+00
      3  0.000000D+00  0.000000D+00  0.000000D+00
 Dipole Derivatives after L701:
                 1             2             3             4             5 
      1   0.132854D+00 -0.180594D+00 -0.339722D-01 -0.118103D+00  0.140374D+00
      2  -0.112300D+00 -0.271629D+00 -0.112126D-01 -0.122203D-01  0.376616D+00
      3   0.807510D-02  0.848394D-01 -0.792148D-01 -0.191549D+00 -0.104993D+00
                 6             7             8             9            10 
      1  -0.246053D+00 -0.818070D+00 -0.233063D+00  0.175652D+00 -0.158346D+01
      2  -0.109974D+00  0.515264D-01 -0.172493D+01  0.194417D+00  0.223828D+00
      3  -0.951452D+00  0.765182D-01 -0.335921D-01 -0.848738D+00 -0.253275D-01
                11            12            13            14            15 
      1   0.239310D+00  0.170364D+00 -0.168651D+01 -0.244053D+00  0.621268D+00
      2  -0.112723D+01 -0.462312D-01 -0.261324D+00 -0.630025D+00 -0.200158D+00
      3   0.149118D-01 -0.966566D+00 -0.203168D-01 -0.321224D+00 -0.406287D+00
                16            17            18            19            20 
      1   0.198928D+00 -0.347068D-02  0.137842D+00  0.188734D+00 -0.463723D-01
      2  -0.105530D-01  0.201685D+00 -0.208687D-01 -0.424333D+00  0.626792D+00
      3   0.230622D-01  0.157608D-01  0.725412D+00 -0.147939D+00  0.140594D+00
                21            22            23            24            25 
      1  -0.820876D-01  0.684656D+00  0.220531D+00 -0.101285D+00  0.193714D+00
      2   0.614122D+00  0.722626D+00  0.457426D+00 -0.142431D+00 -0.355619D+00
      3   0.360912D+00 -0.995355D-01 -0.365317D-01  0.124234D+00  0.271246D+00
                26            27            28            29            30 
      1   0.180534D-02  0.925494D-01  0.227394D+00 -0.413522D-01 -0.727757D+00
      2   0.214036D+00 -0.505202D+00 -0.415904D-01  0.143538D+00  0.302600D+00
      3  -0.461973D-01  0.561421D+00 -0.522416D-01  0.278189D-01  0.668064D+00
                31            32            33            34            35 
      1   0.168193D+00 -0.702214D+00  0.273183D+00  0.101734D+01  0.574353D+00
      2  -0.463229D-01  0.844030D+00 -0.288471D+00 -0.246192D-01  0.127187D+00
      3  -0.109194D-02 -0.141478D+00  0.189584D+00  0.127062D+00  0.961653D-01
                36            37            38            39            40 
      1   0.343621D+00  0.112555D+01  0.900522D+00 -0.476965D-01  0.268787D+00
      2   0.126416D-01  0.294927D+00  0.449278D+00  0.584917D-02 -0.402538D-02
      3   0.182927D+00  0.495960D-01  0.618223D-01  0.108632D+00 -0.175582D-01
                41            42 
      1  -0.625777D+00 -0.575629D+00
      2   0.313227D+00  0.194917D+00
      3   0.242104D+00  0.331072D+00
 Hessian after L701:
                1             2             3             4             5 
      1  0.201881D+01
      2 -0.265981D+00  0.100228D+02
      3 -0.173188D+01 -0.109806D+01  0.140516D+02
      4 -0.253100D+01  0.287110D+01  0.191726D+01  0.127837D+02
      5  0.284033D+01 -0.557155D+01  0.149402D+01 -0.126820D+01  0.159441D+02
      6  0.180094D+01  0.135838D+01 -0.680219D+01 -0.107669D+01 -0.775236D+00
      7 -0.113807D+00  0.449993D+00 -0.180646D+00 -0.491045D+01  0.458025D-01
      8  0.386777D+00  0.820841D+00 -0.406270D+00  0.434894D-01 -0.900488D+00
      9 -0.110978D+00 -0.245587D+00 -0.316589D+00 -0.656123D-01 -0.100172D+01
     10  0.850190D+00 -0.101349D+00 -0.137566D+00 -0.203158D+01 -0.169608D+01
     11  0.292161D-01 -0.127707D+00 -0.301377D-01 -0.174269D+01 -0.507847D+01
     12 -0.865835D-01 -0.271703D-01 -0.106691D+00 -0.100088D+01  0.364870D+00
     13 -0.428373D+00 -0.318106D+01  0.211830D+00  0.473019D+00  0.510468D-01
     14 -0.320983D+01 -0.555607D+01 -0.625677D-01  0.676996D-01 -0.663197D-01
     15  0.246701D+00 -0.508301D-01 -0.725181D+01  0.433353D-01 -0.622491D-01
     16 -0.323131D-01 -0.109394D+00 -0.569994D-01 -0.420078D+01  0.768098D-03
     17 -0.102294D+00 -0.877770D-02 -0.656490D-01 -0.846922D-03 -0.418482D+01
     18 -0.379567D-01 -0.670694D-01  0.324879D+00  0.231929D+00  0.461500D-01
     19 -0.439649D-01  0.312573D-02  0.112627D-02  0.499485D-01  0.242826D-01
     20  0.313135D-01  0.101153D+00  0.416275D-01  0.814852D-01 -0.730942D-01
     21  0.111575D-01  0.733299D-01 -0.242160D-01 -0.939300D-02  0.177789D-01
     22  0.508779D-01  0.119033D+00 -0.708037D-02  0.948536D-01 -0.505222D-01
     23  0.969570D-01  0.737181D-01 -0.489200D-02 -0.868026D-01 -0.721077D-01
     24 -0.108788D-01 -0.139076D-01 -0.463005D-01 -0.240683D-04 -0.590669D-02
     25 -0.494519D-01 -0.145447D-01  0.131244D-01  0.237706D-01 -0.310710D-01
     26  0.281784D-01  0.670131D-01 -0.224228D-01  0.125219D-01  0.560899D-01
     27 -0.132774D-01 -0.768145D-01 -0.225780D-01 -0.675290D-04 -0.208998D-01
     28  0.534417D-01 -0.892651D-02 -0.253922D-01  0.538057D-01  0.166198D-01
     29 -0.155558D-02 -0.297863D-01  0.146070D-02  0.941535D-02  0.119470D-01
     30 -0.729472D-01  0.729695D-02  0.484493D-02 -0.227841D-01 -0.240005D-01
     31  0.901812D-01 -0.379306D-01 -0.179520D-02  0.524400D-01  0.685733D-01
     32 -0.917024D-01 -0.104428D-01 -0.417459D-02 -0.275677D-01 -0.199376D-01
     33  0.297209D-01 -0.119664D-01 -0.454067D-01  0.198442D-01 -0.475537D-01
     34  0.206611D+00  0.735905D-01  0.352698D-01 -0.583257D-01 -0.898833D-01
     35  0.770599D-01 -0.456745D-01  0.995639D-02 -0.302190D-02  0.574661D-01
     36  0.441393D-01  0.104800D-01 -0.548628D-01  0.120952D-02  0.113352D-01
     37 -0.286091D-01  0.122545D+00  0.427161D-02  0.168911D+00  0.692446D-01
     38  0.178016D+00  0.140090D+00  0.646551D-02  0.879672D-01 -0.236290D-01
     39 -0.427008D-02  0.195418D-02  0.773678D-01  0.133543D-01  0.253017D-02
     40 -0.425957D-01  0.797985D-01 -0.415204D-01  0.316766D-01  0.190874D-01
[...]
 ! D2    D(5,1,2,4)            164.6592         -DE/DX =    0.0                 !
 ! D3    D(5,1,2,6)             46.8057         -DE/DX =    0.0                 !
 ! D4    D(2,1,5,13)          -178.818          -DE/DX =    0.0                 !
 ! D5    D(2,1,5,14)           -27.1077         -DE/DX =    0.0                 !
 ! D6    D(1,2,3,7)             58.9424         -DE/DX =    0.0                 !
 ! D7    D(1,2,3,8)            179.4201         -DE/DX =    0.0                 !
 ! D8    D(1,2,3,9)            -60.862          -DE/DX =    0.0                 !
 ! D9    D(4,2,3,7)            177.9277         -DE/DX =    0.0                 !
 ! D10   D(4,2,3,8)            -61.5946         -DE/DX =    0.0                 !
 ! D11   D(4,2,3,9)             58.1233         -DE/DX =    0.0                 !
 ! D12   D(6,2,3,7)            -59.544          -DE/DX =    0.0                 !
 ! D13   D(6,2,3,8)             60.9337         -DE/DX =    0.0                 !
 ! D14   D(6,2,3,9)           -179.3484         -DE/DX =    0.0                 !
 ! D15   D(1,2,4,10)            61.4665         -DE/DX =    0.0                 !
 ! D16   D(1,2,4,11)           -58.3699         -DE/DX =    0.0                 !
 ! D17   D(1,2,4,12)          -178.9155         -DE/DX =    0.0                 !
 ! D18   D(3,2,4,10)           -59.5734         -DE/DX =    0.0                 !
 ! D19   D(3,2,4,11)          -179.4098         -DE/DX =    0.0                 !
 ! D20   D(3,2,4,12)            60.0447         -DE/DX =    0.0                 !
 ! D21   D(6,2,4,10)           177.9635         -DE/DX =    0.0                 !
 ! D22   D(6,2,4,11)            58.1271         -DE/DX =    0.0                 !
 ! D23   D(6,2,4,12)           -62.4184         -DE/DX =    0.0                 !
 ! D24   D(1,5,13,14)          150.7562         -DE/DX =    0.0                 !
 --------------------------------------------------------------------------------
 GradGradGradGradGradGradGradGradGradGradGradGradGradGradGradGradGradGrad

 Leave Link  103 at Tue Apr  9 02:02:44 2019, MaxMem=   671088640 cpu:               0.4 elap:               0.1
 (Enter /shared/centos7/gaussian/g16/l9999.exe)

 ----------------------------------------------------------------------

 Electric dipole moment (input orientation):
 (Debye = 10**-18 statcoulomb cm , SI units = C m)
                  (au)            (Debye)         (10**-30 SI)
   Tot        0.559618D+00      0.142241D+01      0.474464D+01
   x         -0.450509D+00     -0.114508D+01     -0.381958D+01
   y         -0.200013D+00     -0.508382D+00     -0.169578D+01
   z         -0.264969D+00     -0.673485D+00     -0.224650D+01

 Dipole polarizability, Alpha (input orientation).
 (esu units = cm**3 , SI units = C**2 m**2 J**-1)
 Alpha(0;0):
               (au)            (10**-24 esu)      (10**-40 SI)
   iso        0.553358D+02      0.819992D+01      0.912364D+01
   aniso      0.135183D+02      0.200320D+01      0.222886D+01
   xx         0.591796D+02      0.876951D+01      0.975740D+01
   yx        -0.648668D+01     -0.961227D+00     -0.106951D+01
   yy         0.524897D+02      0.777817D+01      0.865438D+01
   zx         0.196721D+01      0.291510D+00      0.324348D+00
   zy        -0.174142D+01     -0.258051D+00     -0.287121D+00
   zz         0.543381D+02      0.805208D+01      0.895914D+01

 ----------------------------------------------------------------------

 Dipole orientation:
     8          0.47557327          0.36802978         -2.51272639
     6          0.57946458         -0.40287548          0.06861634
     6          3.12798577         -1.59158344          0.64900005
     6         -1.59443145         -2.21848408          0.47244109
     6          1.85279020          2.42335973         -3.11013522
     1          0.31253398          1.28367159          1.24267973
     1          4.65766009         -0.26616237          0.27647572
     1          3.21641413         -2.16354828          2.62516075
     1          3.40318054         -3.25620867         -0.53384773
     1         -1.36380849         -3.86383628         -0.74533602
     1         -3.38735883         -1.31676937          0.02249086
     1         -1.64065281         -2.85218101          2.43025158
     1          1.70893292          2.98445333         -5.06254508
     1          2.21726595          3.79956666         -1.63778658

 Electric dipole moment (dipole orientation):
 (Debye = 10**-18 statcoulomb cm , SI units = C m)
                  (au)            (Debye)         (10**-30 SI)
   Tot        0.559618D+00      0.142241D+01      0.474464D+01
   x          0.000000D+00      0.000000D+00      0.000000D+00
   y          0.000000D+00      0.000000D+00      0.000000D+00
   z          0.559618D+00      0.142241D+01      0.474464D+01

 Dipole polarizability, Alpha (dipole orientation).
 (esu units = cm**3 , SI units = C**2 m**2 J**-1)
 Alpha(0;0):
               (au)            (10**-24 esu)      (10**-40 SI)
   iso        0.553358D+02      0.819992D+01      0.912364D+01
   aniso      0.135183D+02      0.200320D+01      0.222886D+01
   xx         0.548842D+02      0.813300D+01      0.904919D+01
   yx         0.269174D+01      0.398875D+00      0.443809D+00
   yy         0.567061D+02      0.840297D+01      0.934956D+01
   zx        -0.194222D+01     -0.287807D+00     -0.320229D+00
   zy        -0.695948D+01     -0.103129D+01     -0.114746D+01
   zz         0.544171D+02      0.806379D+01      0.897218D+01

 ----------------------------------------------------------------------

 Test job not archived.
 1\1\GINC-C0316\Freq\UM062X\6-311+G(2df,2p)\C4H9O1(2)\UNDERKOFFLER.C\09
 -Apr-2019\0\\#P Geom=AllCheck Guess=TCheck SCRF=Check Test GenChk UM06
 2X/6-311+G(2df,2p) Freq\\Gaussian input prepared by ASE\\0,2\O,1.24943
 43158,0.2482282321,0.4965901274\C,0.1009115313,0.121855401,-0.34024308
 67\C,0.4862994476,0.3232462634,-1.7961641084\C,-0.9031426905,1.1475967
 487,0.1412716911\C,2.1245652268,-0.7744353028,0.44830618\H,-0.30409639
 31,-0.8877260045,-0.2017172079\H,1.2353993767,-0.4049383528,-2.1037914
 045\H,-0.3884406452,0.2167829796,-2.43715172\H,0.89976454,1.3230402918
 ,-1.9318634311\H,-0.4860186078,2.1492880746,0.0369570369\H,-1.14976864
 17,0.9821639018,1.1883464551\H,-1.8163589802,1.088352867,-0.4494325017
 \H,2.9716331032,-0.6614824341,1.1048996675\H,1.7475881933,-1.755688907
 3,0.1844180971\\Version=EM64L-G16RevA.03\State=2-A\HF=-232.9651962\S2=
 0.754568\S2-1=0.\S2A=0.750015\RMSD=4.485e-09\RMSF=7.077e-07\ZeroPoint=
 0.1231437\Thermal=0.1298841\Dipole=-0.4505091,-0.2000127,-0.2649695\Di
 poleDeriv=-1.1960248,0.5065108,-0.3375768,0.4812554,-0.7688614,0.02060
 59,-0.193111,-0.0440289,-0.4715142,0.8184354,-0.2055235,0.187042,-0.01
 55877,0.3167113,-0.0027615,0.2417753,-0.1053761,0.5866723,-0.0260324,0
 .0565125,0.0777692,0.0143622,0.0570079,-0.0033593,0.0024781,0.0297546,
 -0.1453415,-0.018587,0.07625,0.009588,0.0866428,0.0152746,-0.01885,0.0
 459186,-0.0290314,0.0101488,0.461733,-0.335122,0.2650678,-0.4728784,0.
 5602221,0.016736,0.1193768,0.1435613,-0.1864923,-0.0439771,0.0132434,-
 0.0054296,-0.0898996,-0.1488015,0.0126911,0.0010885,0.0617687,-0.02618
 02,-0.0068669,0.0712846,0.0642039,0.0742005,-0.0136053,-0.031619,0.035
 7699,-0.014094,0.0337868,-0.057136,-0.0188975,-0.1068519,-0.021861,0.0
 718364,0.0008392,-0.0818358,0.0169567,-0.002167,0.048401,-0.0548146,0.
 0224555,-0.0585144,-0.0807426,0.0428839,0.0015074,-0.0239039,0.0412989
 ,0.0258122,-0.0872116,0.0185572,-0.0195372,-0.0765249,0.0054141,0.0285
 4,0.0258566,0.0624815,0.0549734,0.0109322,0.0393836,0.0098284,0.046362
 3,0.0304311,0.0723982,0.0023422,-0.1017474,-0.0619225,0.0180237,-0.069
 569,-0.0100008,0.0506556,-0.0233307,-0.1031479,-0.0087172,0.0088015,0.
 0145819,0.0424146,-0.0883504,0.0151132,0.0363629,-0.031643,-0.1383276,
 -0.0073037,0.0607182,-0.01339,-0.0936025,-0.0762894,0.0068765,-0.06589
 75,-0.0180376,-0.0324303,-0.0477848,0.1295347\Polar=59.1796032,-6.4866
 836,52.4897082,1.967206,-1.741417,54.3381144\Quadrupole=0.1051486,0.52
 08038,-0.6259524,-0.4202899,0.5583059,-0.3944598\PG=C01 [X(C4H9O1)]\NI
 mag=0\\0.43562444,-0.16843866,0.36452184,0.13873253,0.05899771,0.18336
 411,-0.15055230,-0.00474001,-0.05888623,0.49890894,-0.02947113,-0.0899
 8374,-0.03224607,0.01392514,0.61628456,-0.07004497,-0.01664775,-0.1177
 0716,-0.03024252,-0.00754713,0.48165852,-0.00587360,0.00729107,-0.0422
 6785,-0.08936982,-0.00575155,0.04564030,0.58534524,0.00078452,0.003211
 99,-0.00418031,-0.00631765,-0.08740198,0.02188853,-0.00689460,0.580646
 82,-0.01086556,0.00148583,-0.03319801,0.03700917,0.01852729,-0.1803304
 8,0.02565531,0.01733715,0.49047249,-0.03982494,0.02891829,0.00115387,-
 0.12436251,0.04940601,0.02815211,-0.00642250,0.00775414,0.00965613,0.5
 5127194,0.00053267,0.00358395,0.00219802,0.06145397,-0.14949592,-0.030
 20927,-0.00275207,0.00328180,-0.00157587,0.04074409,0.53693041,-0.0239
 5405,0.01854136,0.00456337,0.03680043,-0.03489003,-0.09443609,0.026040
 05,-0.02480140,-0.01412818,0.02091820,-0.02030442,0.58744800,-0.199558
 19,0.13129807,-0.02544740,-0.04112152,0.02884065,-0.00515508,0.0032761
 0,0.00000079,0.00047392,-0.00319068,-0.00014479,-0.00343674,0.55259939
 ,0.17021386,-0.25054641,-0.03861298,0.01124431,-0.00271894,0.00987448,
 -0.00431506,0.00105864,-0.00020492,-0.00264839,-0.00090621,-0.00154761
 ,-0.04366146,0.58273647,-0.01472776,-0.04504675,-0.03841607,-0.0170447
 3,0.01926974,-0.00142226,-0.00320316,0.00014834,-0.00208130,-0.0019551
 7,-0.00057146,-0.00192881,0.24200503,0.13703964,0.22344641,-0.02924818
 ,-0.02460278,-0.00905592,-0.07798813,-0.07471076,0.01509732,-0.0016282
 5,-0.00862034,0.00365432,0.00912034,0.02228625,-0.00238530,0.00293583,
 -0.00699206,-0.00035023,0.09686235,-0.00703574,-0.00293679,-0.00469855
 ,-0.07986707,-0.26088247,0.03299549,-0.00099714,-0.00331261,0.00110099
 ,-0.00622631,-0.02064971,0.00290579,0.00275154,0.00172134,0.00049305,0
 .08888598,0.28346245,-0.02098122,-0.02017149,-0.00259626,0.01587490,0.
 03719459,-0.05505343,0.01255537,0.03085552,-0.00600995,-0.00273257,-0.
 01098443,0.00168598,0.00246918,-0.00308435,-0.00005423,-0.00929456,-0.
 03279203,0.06472693,0.00079845,-0.00076096,0.00000637,-0.00740069,0.00
 573054,0.00076863,-0.17488306,0.12515348,0.05244891,0.00031201,-0.0011
 5626,0.00186126,-0.00025591,0.00059500,-0.00075908,0.00001803,-0.00018
 985,-0.00003745,0.18766287,-0.00051495,0.00012358,-0.00100058,-0.00474
 457,0.00352357,0.00166733,0.12537778,-0.17189577,-0.05064668,-0.000060
 27,0.00069740,0.00073068,0.00034061,-0.00034604,0.00073963,-0.00021353
 ,0.00056117,-0.00082256,-0.13770261,0.18256179,-0.00048283,0.00090395,
 0.00315968,0.02334567,-0.02399856,-0.00896327,0.05007155,-0.04934503,-
 0.06695002,0.00049239,0.00218977,-0.00639564,-0.00028244,-0.00055567,-
 0.00061005,-0.00069651,0.00026210,0.00139503,-0.05806558,0.05413130,0.
 07308802,0.00157834,0.00021554,0.00277723,0.00583600,0.00127314,0.0048
 9093,-0.22317234,-0.02204810,-0.12806400,-0.00022974,0.00008632,-0.000
 07111,0.00011934,0.00014199,-0.00023036,0.00036126,0.00000806,-0.00082
 196,-0.01639632,-0.00354469,-0.01256240,0.24047122,0.00039296,0.001127
 49,0.00139701,0.00441924,-0.00150540,0.00199316,-0.02215922,-0.0494030
 4,-0.01554932,0.00000468,-0.00005606,-0.00013257,-0.00002484,0.0000047
 2,0.00045983,0.00007288,-0.00012571,-0.00039748,0.01676331,0.00259058,
 0.01429026,0.02376054,0.04843757,-0.00152108,0.00261569,-0.00898167,-0
 .02683035,-0.00477023,-0.01268585,-0.12571484,-0.01533150,-0.13961489,
 -0.00075110,-0.00012615,0.00116084,0.00164000,-0.00224323,0.00000776,0
 .00028463,0.00068955,0.00100700,0.00795792,0.00215633,0.00576534,0.139
 46936,0.01686136,0.15094525,0.00130384,0.00074245,-0.00023502,-0.00516
 333,-0.00900417,0.00054184,-0.08537439,-0.09230015,0.01205948,0.000044
 97,-0.00073087,-0.00056644,-0.00045889,0.00028381,0.00031271,0.0004858
 8,0.00022209,0.00178336,0.00973612,0.02098562,-0.00330435,-0.00897476,
 -0.02349834,0.00449017,0.08837305,0.00106283,0.00101922,-0.00010931,-0
 .00272239,-0.00613899,0.00109152,-0.09283693,-0.27459451,0.02811394,0.
 00057802,0.00103264,-0.00050872,0.00019724,-0.00033750,0.00010371,-0.0
 0000809,0.00130293,0.00077494,-0.00888488,-0.01842007,0.00250852,0.000
 08169,-0.00123236,-0.00021170,0.10276562,0.29649600,0.00026040,-0.0015
 1808,0.00326845,0.01458909,0.03280209,-0.00651201,0.01068735,0.0266062
 4,-0.04941768,-0.00095134,0.00121948,0.00165925,-0.00040179,0.00027692
 ,0.00007699,0.00153214,0.00045391,-0.00614477,-0.00422900,-0.00791314,
 0.00021196,-0.00588509,-0.01851766,0.00239016,-0.01544956,-0.03203222,
 0.05441466,0.00243649,-0.00133187,0.00051962,0.00796688,0.02318625,-0.
 00199151,0.00108120,0.00013537,-0.00128764,-0.08811952,-0.09831478,0.0
 1076149,-0.00019181,0.00059764,0.00001032,-0.00268008,0.00314787,0.001
 38814,0.00000140,-0.00008632,-0.00019993,0.00000684,-0.00012073,0.0000
 9026,-0.00004368,-0.00041903,0.00010678,0.09275967,-0.00068134,0.00198
 100,0.00004619,-0.00977838,-0.02562657,0.00177919,-0.00086535,0.001069
 89,0.00109925,-0.09606742,-0.27176141,0.02468980,0.00024764,0.00016650
 ,0.00008112,0.00381568,-0.00157184,-0.00165924,0.00018534,0.00045548,0
 .00014834,0.00012177,0.00001415,0.00000549,0.00039909,0.00051938,-0.00
 089533,0.10370588,0.29783742,-0.00013341,0.00081031,-0.00001520,-0.005
 14326,-0.01072720,0.00004369,-0.00108454,-0.00083996,0.00063735,0.0113
 8767,0.02515300,-0.05085487,-0.00009330,0.00006554,-0.00009269,0.00166
 075,-0.00145671,0.00000127,0.00000508,0.00030081,0.00003417,-0.0000283
 4,-0.00007745,-0.00008815,0.00047162,0.00007450,-0.00008245,-0.0135190
 6,-0.02526678,0.05043127,0.00204263,-0.00115530,-0.00034803,-0.0064657
 5,-0.00474074,0.02233535,-0.00293350,0.00358262,0.00023163,-0.06037025
 ,-0.01002382,0.05691939,-0.00013010,0.00035484,-0.00013307,0.00072658,
 -0.00032545,-0.00076584,-0.00005447,0.00008005,0.00144827,0.00026757,0
 .00005610,0.00021931,0.00013304,0.00014296,-0.00037219,-0.00342771,-0.
 00121153,0.01218969,0.06236219,-0.00190392,0.00083787,0.00045653,0.005
 15586,0.00370818,-0.02488333,0.00342574,-0.00310440,-0.00044233,-0.010
 29362,-0.05543465,0.04439120,-0.00015614,-0.00012272,0.00003293,-0.001
 02894,0.00090917,0.00007536,0.00067877,0.00047948,-0.00137198,-0.00004
 984,-0.00012450,0.00028772,0.00032529,0.00019991,-0.00017621,-0.005423
 45,-0.00352018,0.02908250,0.00859112,0.05721953,-0.00051790,0.00036714
 ,0.00137967,0.00074365,0.00239316,-0.01073321,0.00162242,-0.00253851,0
 .00054269,0.05936710,0.04212992,-0.30050391,0.00002752,-0.00006606,0.0
 0025418,-0.00012222,-0.00040673,0.00042052,0.00024214,0.00023956,-0.00
 063179,-0.00008475,0.00010281,0.00030792,-0.00015128,0.00001268,0.0001
 8584,-0.00003723,0.00020844,-0.00147723,-0.06534894,-0.04503914,0.3249
 7903,-0.00411319,0.00529267,0.00120051,-0.01545104,-0.00614580,-0.0129
 2552,0.00046535,-0.00078434,-0.00073605,-0.23753206,-0.01203433,-0.122
 16010,-0.00017416,-0.00110390,-0.00046861,0.00062277,0.00036713,-0.000
 02167,0.00040630,0.00010853,0.00010223,0.00018898,0.00025718,0.0008360
 8,-0.00007501,0.00008346,0.00002134,-0.00961960,0.00023427,-0.00570177
 ,0.00786004,0.00067791,0.00419718,0.25766670,0.00539555,-0.00402145,-0
 .00124232,0.01627837,0.00314764,0.01404532,-0.00043592,0.00049000,0.00
 037509,-0.01385046,-0.04841802,-0.01016432,0.00091259,0.00111234,0.000
 53400,-0.00095007,0.00025122,0.00051752,-0.00017066,-0.00014661,0.0001
 9028,0.00009511,0.00017393,-0.00033223,-0.00008353,-0.00000562,-0.0001
 4491,-0.02467412,0.00013770,-0.01716902,0.00478562,-0.00105546,0.00259
 295,0.01255246,0.04875964,0.00215376,-0.00159369,0.00050831,0.00848296
 ,0.00238707,0.00425704,-0.00010032,0.00008402,-0.00005061,-0.12471850,
 -0.00905512,-0.12812605,0.00059072,-0.00006526,0.00054646,-0.00047341,
 0.00033305,0.00027686,-0.00006782,0.00013317,0.00021060,0.00055536,-0.
 00034613,-0.00024323,0.00005096,0.00012305,-0.00000242,0.00423818,-0.0
 0026732,0.00146048,-0.02647996,-0.00234345,-0.01467671,0.13567080,0.01
 078111,0.13583046,-0.02072207,0.00063926,-0.01358633,0.00155513,0.0034
 9771,0.00127216,-0.00038392,-0.00007269,0.00000786,-0.00055559,-0.0001
 4635,-0.00080632,-0.21982149,-0.02366997,-0.15258078,0.00020848,0.0001
 0826,0.00009440,0.00006304,-0.00006242,-0.00006582,0.00006274,-0.00002
 212,-0.00017427,0.00004172,-0.00002135,-0.00000471,-0.00000088,0.00005
 404,0.00000502,-0.00000819,-0.00001431,0.00004667,-0.00020900,0.000221
 94,0.00011371,0.24152663,0.02871024,0.00035542,0.02086721,0.00025533,-
 0.00336978,-0.00260683,0.00043036,0.00007042,0.00008817,0.00126045,0.0
 0058723,0.00086703,-0.03288512,-0.05731752,-0.03676606,0.00065818,0.00
 060568,0.00001741,-0.00014477,-0.00005058,0.00019595,-0.00006827,0.000
 01101,0.00017821,-0.00003904,0.00003072,-0.00000971,-0.00015451,0.0000
 4426,0.00004339,-0.00004183,0.00002149,-0.00002205,0.00030791,-0.00035
 457,-0.00016519,0.01890553,0.05662481,0.00443265,0.00377941,0.00184035
 ,0.00062274,-0.00080292,0.00238493,0.00019961,0.00002982,0.00012581,0.
 00001824,-0.00016815,-0.00008972,-0.17509211,-0.03788745,-0.14309913,-
 0.00010239,-0.00016291,-0.00010287,-0.00010382,0.00001749,0.00015526,-
 0.00003747,0.00003688,0.00005551,-0.00007977,0.00013677,-0.00001742,-0
 .00000606,0.00002655,0.00000926,0.00003255,-0.00000701,0.00000175,-0.0
 0000848,0.00003297,0.00002512,0.17026760,0.03192264,0.13932612,0.00610
 828,0.02663221,0.00543664,0.00360813,0.00396471,0.00166095,-0.00012651
 ,-0.00037305,-0.00024347,-0.00014146,0.00019996,0.00007922,-0.09402792
 ,-0.10104061,-0.05087510,0.00020312,-0.00084937,0.00048992,-0.00000777
 ,0.00003678,0.00019975,-0.00011913,0.00009835,0.00000390,-0.00002856,-
 0.00001915,0.00009659,-0.00016920,-0.00015968,-0.00001615,-0.00000208,
 0.00001554,0.00001563,-0.00003607,-0.00007687,-0.00001647,-0.00175661,
 -0.01719447,-0.00014329,0.08649577,0.00095312,-0.02927398,-0.00187255,
 -0.00456215,0.00045983,-0.00344074,0.00048289,-0.00011725,0.00029141,0
 .00048080,0.00060855,0.00022320,-0.08771680,-0.27450468,-0.07651772,0.
 00140759,0.00066517,0.00047625,-0.00009645,-0.00013397,0.00045076,-0.0
 0007325,0.00008761,0.00022069,-0.00006787,0.00012823,-0.00015138,-0.00
 024821,0.00025423,0.00000709,-0.00009466,-0.00001370,0.00002584,0.0001
 8684,-0.00007074,-0.00000529,0.00058247,0.00274141,0.00304589,0.088765
 67,0.29916929,-0.00235056,-0.00252365,0.00283043,0.00067846,0.00240820
 ,-0.00050042,-0.00010124,0.00008708,0.00000278,-0.00003703,0.00010468,
 -0.00005419,-0.03729753,-0.06298905,-0.03662725,0.00025136,0.00028301,
 0.00044791,-0.00002757,0.00026667,-0.00046929,0.00009259,-0.00012069,-
 0.00002598,0.00007628,-0.00007768,-0.00003055,-0.00007338,0.00000429,-
 0.00000690,0.00007184,-0.00006279,-0.00004875,-0.00000593,-0.00001644,
 -0.00001633,-0.00458917,-0.01461016,-0.00061499,0.04331188,0.07724653,
 0.03511352\\-0.00000055,-0.00000051,0.00000050,0.00000016,-0.00000007,
 -0.00000012,0.00000089,0.00000086,0.00000008,-0.00000045,-0.00000043,-
 0.00000030,-0.00000062,-0.00000026,0.00000053,-0.00000006,-0.00000020,
 -0.00000117,0.00000118,0.00000110,0.00000016,0.00000133,0.00000116,-0.
 00000056,0.00000091,0.00000096,0.00000099,-0.00000047,-0.00000036,0.00
 000058,-0.00000112,-0.00000111,-0.00000059,-0.00000007,-0.00000017,-0.
 00000096,-0.00000090,-0.00000071,0.00000112,-0.00000023,-0.00000028,-0
 .00000026\\\@


 IF YOU BELIEVE CERTAIN WORDS, YOU BELIEVE THEIR HIDDEN ARGUMENTS.
 WHEN YOU BELIEVE SOMETHING IS RIGHT OR WRONG, TRUE OR FALSE, 
 YOU BELIEVE THE ASSUMPTIONS IN THE WORDS WHICH EXPRESS THE ARGUMENTS.
 SUCH ASSUMPTIONS ARE OFTEN FULL OF HOLES, BUT REMAIN MOST PRECIOUS 
 TO THE CONVINCED.

                 -- THE OPEN-ENDED PROOF FROM THE PANOPLIA PROPHETICA
                    CHILDREN OF DUNE BY FRANK HERBERT
 Job cpu time:       0 days  1 hours 46 minutes 36.3 seconds.
 Elapsed time:       0 days  0 hours  5 minutes 20.3 seconds.
 File lengths (MBytes):  RWF=   1376 Int=      0 D2E=      0 Chk=     32 Scr=     32
 Normal termination of Gaussian 16 at Tue Apr  9 02:02:44 2019.
