 Entering Gaussian System, Link 0=g16
 Input=DHVSQGCGLGSLDF-UHFFFAOYSA-N_12by30.0_tor24_a3.com
 Output=DHVSQGCGLGSLDF-UHFFFAOYSA-N_12by30.0_tor24_a3.log
 Initial command:
 /shared/centos7/gaussian/g16/l1.exe "/scratch/underkoffler.c/gaussian_scratch/Gau-16276.inp" -scrdir="/scratch/underkoffler.c/gaussian_scratch/"
 Entering Link 1 = /shared/centos7/gaussian/g16/l1.exe PID=     16277.
  
 Copyright (c) 1988,1990,1992,1993,1995,1998,2003,2009,2016,
            Gaussian, Inc.  All Rights Reserved.
  
 This is part of the Gaussian(R) 16 program.  It is based on
 the Gaussian(R) 09 system (copyright 2009, Gaussian, Inc.),
 the Gaussian(R) 03 system (copyright 2003, Gaussian, Inc.),
 the Gaussian(R) 98 system (copyright 1998, Gaussian, Inc.),
 the Gaussian(R) 94 system (copyright 1995, Gaussian, Inc.),
 the Gaussian 92(TM) system (copyright 1992, Gaussian, Inc.),
 the Gaussian 90(TM) system (copyright 1990, Gaussian, Inc.),
 the Gaussian 88(TM) system (copyright 1988, Gaussian, Inc.),
 the Gaussian 86(TM) system (copyright 1986, Carnegie Mellon
 University), and the Gaussian 82(TM) system (copyright 1983,
 Carnegie Mellon University). Gaussian is a federally registered
 trademark of Gaussian, Inc.
  
 This software contains proprietary and confidential information,
 including trade secrets, belonging to Gaussian, Inc.
  
 This software is provided under written license and may be
 used, copied, transmitted, or stored only in accord with that
 written license.
  
 The following legend is applicable only to US Government
 contracts under FAR:
  
                    RESTRICTED RIGHTS LEGEND
  
 Use, reproduction and disclosure by the US Government is
 subject to restrictions as set forth in subparagraphs (a)
 and (c) of the Commercial Computer Software - Restricted
 Rights clause in FAR 52.227-19.
  
 Gaussian, Inc.
 340 Quinnipiac St., Bldg. 40, Wallingford CT 06492
  
  
 ---------------------------------------------------------------
 Warning -- This program may not be used in any manner that
 competes with the business of Gaussian, Inc. or will provide
 assistance to any competitor of Gaussian, Inc.  The licensee
 of this program is prohibited from giving any competitor of
 Gaussian, Inc. access to this program.  By using this program,
 the user acknowledges that Gaussian, Inc. is engaged in the
 business of creating and licensing software in the field of
 computational chemistry and represents and warrants to the
 licensee that it is not a competitor of Gaussian, Inc. and that
 it will not use this program in any manner prohibited above.
 ---------------------------------------------------------------
  

 Cite this work as:
 Gaussian 16, Revision A.03,
 M. J. Frisch, G. W. Trucks, H. B. Schlegel, G. E. Scuseria, 
 M. A. Robb, J. R. Cheeseman, G. Scalmani, V. Barone, 
 G. A. Petersson, H. Nakatsuji, X. Li, M. Caricato, A. V. Marenich, 
 J. Bloino, B. G. Janesko, R. Gomperts, B. Mennucci, H. P. Hratchian, 
 J. V. Ortiz, A. F. Izmaylov, J. L. Sonnenberg, D. Williams-Young, 
 F. Ding, F. Lipparini, F. Egidi, J. Goings, B. Peng, A. Petrone, 
 T. Henderson, D. Ranasinghe, V. G. Zakrzewski, J. Gao, N. Rega, 
 G. Zheng, W. Liang, M. Hada, M. Ehara, K. Toyota, R. Fukuda, 
 J. Hasegawa, M. Ishida, T. Nakajima, Y. Honda, O. Kitao, H. Nakai, 
 T. Vreven, K. Throssell, J. A. Montgomery, Jr., J. E. Peralta, 
 F. Ogliaro, M. J. Bearpark, J. J. Heyd, E. N. Brothers, K. N. Kudin, 
 V. N. Staroverov, T. A. Keith, R. Kobayashi, J. Normand, 
 K. Raghavachari, A. P. Rendell, J. C. Burant, S. S. Iyengar, 
 J. Tomasi, M. Cossi, J. M. Millam, M. Klene, C. Adamo, R. Cammi, 
 J. W. Ochterski, R. L. Martin, K. Morokuma, O. Farkas, 
 J. B. Foresman, and D. J. Fox, Gaussian, Inc., Wallingford CT, 2016.
 
 ******************************************
 Gaussian 16:  EM64L-G16RevA.03 25-Dec-2016
                29-Mar-2019 
 ******************************************
 %nprocshared=20
 Will use up to   20 processors via shared memory.
 %mem=5GB
 ----------------------------------------------
 #p m062x/6-311+g(2df,2p) Opt=(CalcFC,ModRedun)
 ----------------------------------------------
 1/10=4,18=120,19=15,26=3,38=1/1,3;
 2/9=110,12=2,17=6,18=5,40=1/2;
 3/5=4,6=6,7=214,11=2,25=1,30=1,71=2,74=-55,140=1/1,2,3;
 4//1;
 5/5=2,38=5/2;
 8/6=4,10=90,11=11/1;
 11/6=1,8=1,9=11,15=111,16=1/1,2,10;
 10/6=1,13=1/2;
 6/7=2,8=2,9=2,10=2,28=1/1;
 7/10=1,18=20,25=1/1,2,3,16;
 1/10=4,18=20,19=15,26=3/3(2);
 2/9=110/2;
 99//99;
 2/9=110/2;
 3/5=4,6=6,7=214,11=2,25=1,30=1,71=1,74=-55/1,2,3;
 4/5=5,16=3,69=1/1;
 5/5=2,38=5/2;
 7//1,2,3,16;
 1/18=20,19=15,26=3/3(-5);
 2/9=110/2;
 6/7=2,8=2,9=2,10=2,19=2,28=1/1;
 99/9=1/99;
 Leave Link    1 at Fri Mar 29 04:42:30 2019, MaxMem=   671088640 cpu:              14.7 elap:               0.9
 (Enter /shared/centos7/gaussian/g16/l101.exe)
 ----------------------------------------
 Gaussian Input Prepared from Scan Object
 ----------------------------------------
 Symbolic Z-matrix:
 Charge =  0 Multiplicity = 2
 O                    -1.69272  -0.65279   0.40986 
 C                     1.07611   0.27945   0.59582 
 C                    -0.07195   1.04383  -0.07449 
 C                     1.76075  -0.69893  -0.351 
 C                    -1.15853   0.15455  -0.55595 
 H                     1.8012    1.00148   0.9749 
 H                     0.68352  -0.257     1.46069 
 H                    -0.47339   1.77604   0.63988 
 H                     0.30773   1.61122  -0.92685 
 H                     2.14709  -0.18208  -1.23135 
 H                     2.59478  -1.20334   0.13562 
 H                     1.05887  -1.45864  -0.69484 
 H                    -1.8152    0.44925  -1.36537 
 H                    -2.42003  -1.16283   0.0497 
 
 The following ModRedundant input section has been read:
 B       5      13 B                                                           
 B       2       3 B                                                           
 B       4      12 B                                                           
 B       2       7 B                                                           
 B       2       4 B                                                           
 B       4      11 B                                                           
 B       3       8 B                                                           
 B       2       6 B                                                           
 B       1       5 B                                                           
 B       3       5 B                                                           
 B       4      10 B                                                           
 B       1      14 B                                                           
 B       3       9 B                                                           
 D       9       3       5      13 S  12 30.000                                
 
 ITRead=  0  0  0  0  0  0  0  0  0  0  0  0  0  0
 MicOpt= -1 -1 -1 -1 -1 -1 -1 -1 -1 -1 -1 -1 -1 -1
 NAtoms=     14 NQM=       14 NQMF=       0 NMMI=      0 NMMIF=      0
                NMic=       0 NMicF=      0.
                    Isotopes and Nuclear Properties:
 (Nuclear quadrupole moments (NQMom) in fm**2, nuclear magnetic moments (NMagM)
  in nuclear magnetons)

  Atom         1           2           3           4           5           6           7           8           9          10
 IAtWgt=          16          12          12          12          12           1           1           1           1           1
 AtmWgt=  15.9949146  12.0000000  12.0000000  12.0000000  12.0000000   1.0078250   1.0078250   1.0078250   1.0078250   1.0078250
 NucSpn=           0           0           0           0           0           1           1           1           1           1
 AtZEff=  -0.0000000  -0.0000000  -0.0000000  -0.0000000  -0.0000000  -0.0000000  -0.0000000  -0.0000000  -0.0000000  -0.0000000
 NQMom=    0.0000000   0.0000000   0.0000000   0.0000000   0.0000000   0.0000000   0.0000000   0.0000000   0.0000000   0.0000000
 NMagM=    0.0000000   0.0000000   0.0000000   0.0000000   0.0000000   2.7928460   2.7928460   2.7928460   2.7928460   2.7928460
 AtZNuc=   8.0000000   6.0000000   6.0000000   6.0000000   6.0000000   1.0000000   1.0000000   1.0000000   1.0000000   1.0000000

  Atom        11          12          13          14
 IAtWgt=           1           1           1           1
 AtmWgt=   1.0078250   1.0078250   1.0078250   1.0078250
 NucSpn=           1           1           1           1
 AtZEff=  -0.0000000  -0.0000000  -0.0000000  -0.0000000
 NQMom=    0.0000000   0.0000000   0.0000000   0.0000000
 NMagM=    2.7928460   2.7928460   2.7928460   2.7928460
 AtZNuc=   1.0000000   1.0000000   1.0000000   1.0000000
 Leave Link  101 at Fri Mar 29 04:42:31 2019, MaxMem=   671088640 cpu:               5.8 elap:               0.4
 (Enter /shared/centos7/gaussian/g16/l103.exe)

 GradGradGradGradGradGradGradGradGradGradGradGradGradGradGradGradGradGrad
 Berny optimization.
 Initialization pass.
                           ----------------------------
                           !    Initial Parameters    !
                           ! (Angstroms and Degrees)  !
 --------------------------                            --------------------------
 ! Name  Definition              Value          Derivative Info.                !
 --------------------------------------------------------------------------------
 ! R1    R(1,5)                  1.3675         calculate D2E/DX2 analytically  !
 ! R2    R(1,14)                 0.9586         calculate D2E/DX2 analytically  !
 ! R3    R(2,3)                  1.5335         calculate D2E/DX2 analytically  !
 ! R4    R(2,4)                  1.5239         calculate D2E/DX2 analytically  !
 ! R5    R(2,6)                  1.0912         calculate D2E/DX2 analytically  !
 ! R6    R(2,7)                  1.0908         calculate D2E/DX2 analytically  !
 ! R7    R(3,5)                  1.4843         calculate D2E/DX2 analytically  !
 ! R8    R(3,8)                  1.0989         calculate D2E/DX2 analytically  !
 ! R9    R(3,9)                  1.0921         calculate D2E/DX2 analytically  !
 ! R10   R(4,10)                 1.0915         calculate D2E/DX2 analytically  !
 ! R11   R(4,11)                 1.0894         calculate D2E/DX2 analytically  !
 ! R12   R(4,12)                 1.09           calculate D2E/DX2 analytically  !
 ! R13   R(5,13)                 1.0831         calculate D2E/DX2 analytically  !
 ! A1    A(5,1,14)             110.1919         calculate D2E/DX2 analytically  !
 ! A2    A(3,2,4)              112.6293         calculate D2E/DX2 analytically  !
 ! A3    A(3,2,6)              108.6324         calculate D2E/DX2 analytically  !
 ! A4    A(3,2,7)              108.7993         calculate D2E/DX2 analytically  !
 ! A5    A(4,2,6)              110.0053         calculate D2E/DX2 analytically  !
 ! A6    A(4,2,7)              109.7894         calculate D2E/DX2 analytically  !
 ! A7    A(6,2,7)              106.8042         calculate D2E/DX2 analytically  !
 ! A8    A(2,3,5)              113.0285         calculate D2E/DX2 analytically  !
 ! A9    A(2,3,8)              108.7509         calculate D2E/DX2 analytically  !
 ! A10   A(2,3,9)              109.8681         calculate D2E/DX2 analytically  !
 ! A11   A(5,3,8)              110.0374         calculate D2E/DX2 analytically  !
 ! A12   A(5,3,9)              108.2169         calculate D2E/DX2 analytically  !
 ! A13   A(8,3,9)              106.75           calculate D2E/DX2 analytically  !
 ! A14   A(2,4,10)             110.8616         calculate D2E/DX2 analytically  !
 ! A15   A(2,4,11)             111.3253         calculate D2E/DX2 analytically  !
 ! A16   A(2,4,12)             110.7428         calculate D2E/DX2 analytically  !
 ! A17   A(10,4,11)            107.9709         calculate D2E/DX2 analytically  !
 ! A18   A(10,4,12)            107.6703         calculate D2E/DX2 analytically  !
 ! A19   A(11,4,12)            108.1306         calculate D2E/DX2 analytically  !
 ! A20   A(1,5,3)              114.2413         calculate D2E/DX2 analytically  !
 ! A21   A(1,5,13)             116.8459         calculate D2E/DX2 analytically  !
 ! A22   A(3,5,13)             121.5459         calculate D2E/DX2 analytically  !
 ! D1    D(14,1,5,3)           176.6916         calculate D2E/DX2 analytically  !
 ! D2    D(14,1,5,13)           26.1176         calculate D2E/DX2 analytically  !
 ! D3    D(4,2,3,5)             61.3099         calculate D2E/DX2 analytically  !
 ! D4    D(4,2,3,8)           -176.1788         calculate D2E/DX2 analytically  !
 ! D5    D(4,2,3,9)            -59.6732         calculate D2E/DX2 analytically  !
 ! D6    D(6,2,3,5)           -176.57           calculate D2E/DX2 analytically  !
 ! D7    D(6,2,3,8)            -54.0587         calculate D2E/DX2 analytically  !
 ! D8    D(6,2,3,9)             62.4468         calculate D2E/DX2 analytically  !
 ! D9    D(7,2,3,5)            -60.6535         calculate D2E/DX2 analytically  !
 ! D10   D(7,2,3,8)             61.8578         calculate D2E/DX2 analytically  !
 ! D11   D(7,2,3,9)            178.3633         calculate D2E/DX2 analytically  !
 ! D12   D(3,2,4,10)            57.7217         calculate D2E/DX2 analytically  !
 ! D13   D(3,2,4,11)           177.9353         calculate D2E/DX2 analytically  !
 ! D14   D(3,2,4,12)           -61.7293         calculate D2E/DX2 analytically  !
 ! D15   D(6,2,4,10)           -63.6199         calculate D2E/DX2 analytically  !
 ! D16   D(6,2,4,11)            56.5937         calculate D2E/DX2 analytically  !
 ! D17   D(6,2,4,12)           176.9291         calculate D2E/DX2 analytically  !
 ! D18   D(7,2,4,10)           179.1235         calculate D2E/DX2 analytically  !
 ! D19   D(7,2,4,11)           -60.6629         calculate D2E/DX2 analytically  !
 ! D20   D(7,2,4,12)            59.6726         calculate D2E/DX2 analytically  !
 ! D21   D(2,3,5,1)             55.8424         calculate D2E/DX2 analytically  !
 ! D22   D(2,3,5,13)          -155.1123         calculate D2E/DX2 analytically  !
 ! D23   D(8,3,5,1)            -65.9483         calculate D2E/DX2 analytically  !
 ! D24   D(8,3,5,13)            83.097          calculate D2E/DX2 analytically  !
 ! D25   D(9,3,5,1)            177.7575         calculate D2E/DX2 analytically  !
 ! D26   D(9,3,5,13)           -33.1972         Scan                            !
 --------------------------------------------------------------------------------
 Trust Radius=3.00D-01 FncErr=1.00D-07 GrdErr=1.00D-06 EigMax=2.50D+02 EigMin=1.00D-04
 Number of optimizations in scan=  13
 Number of steps in this run=     71 maximum allowed number of steps=    100.
 GradGradGradGradGradGradGradGradGradGradGradGradGradGradGradGradGradGrad

 Leave Link  103 at Fri Mar 29 04:42:31 2019, MaxMem=   671088640 cpu:               1.0 elap:               0.1
 (Enter /shared/centos7/gaussian/g16/l202.exe)
                          Input orientation:                          
 ---------------------------------------------------------------------
 Center     Atomic      Atomic             Coordinates (Angstroms)
 Number     Number       Type             X           Y           Z
 ---------------------------------------------------------------------
      1          8           0       -1.692718   -0.652790    0.409862
      2          6           0        1.076112    0.279447    0.595817
      3          6           0       -0.071953    1.043826   -0.074494
      4          6           0        1.760748   -0.698930   -0.351002
      5          6           0       -1.158531    0.154550   -0.555952
      6          1           0        1.801202    1.001478    0.974899
      7          1           0        0.683524   -0.256997    1.460692
      8          1           0       -0.473387    1.776040    0.639876
      9          1           0        0.307727    1.611223   -0.926853
     10          1           0        2.147091   -0.182080   -1.231353
     11          1           0        2.594777   -1.203337    0.135625
     12          1           0        1.058868   -1.458636   -0.694838
     13          1           0       -1.815199    0.449247   -1.365366
     14          1           0       -2.420030   -1.162828    0.049696
 ---------------------------------------------------------------------
                    Distance matrix (angstroms):
                    1          2          3          4          5
     1  O    0.000000
     2  C    2.927468   0.000000
     3  C    2.395827   1.533508   0.000000
     4  C    3.536591   1.523946   2.544101   0.000000
     5  C    1.367461   2.517102   1.484340   3.048381   0.000000
     6  H    3.906834   1.091232   2.147494   2.156626   3.438141
     7  H    2.628198   1.090828   2.149345   2.153590   2.762135
     8  H    2.727433   2.154688   1.098914   3.478315   2.128064
     9  H    3.303686   2.163924   1.092068   2.789209   2.099852
    10  H    4.202296   2.167614   2.786633   1.091519   3.390667
    11  H    4.331389   2.171812   3.493615   1.089420   4.050859
    12  H    3.072617   2.164953   2.815298   1.089961   2.745636
    13  H    2.093065   3.497821   2.249173   3.890327   1.083148
    14  H    0.958561   3.821180   3.224626   4.225478   1.921893
                    6          7          8          9         10
     6  H    0.000000
     7  H    1.751844   0.000000
     8  H    2.426096   2.478996   0.000000
     9  H    2.493776   3.054806   1.758392   0.000000
    10  H    2.527449   3.065085   3.768639   2.586874   0.000000
    11  H    2.489046   2.510827   4.306343   3.779049   1.764091
    12  H    3.064514   2.496223   3.820000   3.168924   1.761157
    13  H    4.342828   3.837838   2.753513   2.459531   4.014507
    14  H    4.833117   3.527532   3.574168   4.011192   4.843712
                   11         12         13         14
    11  H    0.000000
    12  H    1.764614   0.000000
    13  H    4.942863   3.514240   0.000000
    14  H    5.015707   3.569953   2.228679   0.000000
 Stoichiometry    C4H9O(2)
 Framework group  C1[X(C4H9O)]
 Deg. of freedom    36
 Full point group                 C1      NOp   1
 Largest Abelian subgroup         C1      NOp   1
 Largest concise Abelian subgroup C1      NOp   1
                         Standard orientation:                         
 ---------------------------------------------------------------------
 Center     Atomic      Atomic             Coordinates (Angstroms)
 Number     Number       Type             X           Y           Z
 ---------------------------------------------------------------------
      1          8           0        1.691898   -0.654767   -0.408984
      2          6           0       -1.076217    0.279377   -0.596024
      3          6           0        0.072217    1.043190    0.074301
      4          6           0       -1.761802   -0.698152    0.350983
      5          6           0        1.158033    0.153320    0.556382
      6          1           0       -1.800691    1.001782   -0.975572
      7          1           0       -0.683783   -0.257675   -1.460593
      8          1           0        0.474363    1.774846   -0.640240
      9          1           0       -0.307282    1.611181    0.926344
     10          1           0       -2.148007   -0.180693    1.231037
     11          1           0       -2.596062   -1.202148   -0.135673
     12          1           0       -1.060555   -1.458229    0.695293
     13          1           0        1.814696    0.447855    1.365859
     14          1           0        2.418750   -1.165188   -0.048433
 ---------------------------------------------------------------------
 Rotational constants (GHZ):           8.4948289           3.1738172           2.8419906
 Leave Link  202 at Fri Mar 29 04:42:31 2019, MaxMem=   671088640 cpu:               1.8 elap:               0.1
 (Enter /shared/centos7/gaussian/g16/l301.exe)
 Standard basis: 6-311+G(2df,2p) (5D, 7F)
 Ernie: Thresh=  0.10000D-02 Tol=  0.10000D-05 Strict=F.
 There are   276 symmetry adapted cartesian basis functions of A   symmetry.
 There are   251 symmetry adapted basis functions of A   symmetry.
   251 basis functions,   359 primitive gaussians,   276 cartesian basis functions
    21 alpha electrons       20 beta electrons
       nuclear repulsion energy       183.1052843314 Hartrees.
 IExCor= 4336 DFT=T Ex+Corr=M062X ExCW=0 ScaHFX=  0.540000
 ScaDFX=  1.000000  1.000000  1.000000  1.000000 ScalE2=  1.000000  1.000000
 IRadAn=      5 IRanWt=     -1 IRanGd=            0 ICorTp=0 IEmpDi=  4
 NAtoms=   14 NActive=   14 NUniq=   14 SFac= 1.00D+00 NAtFMM=   60 NAOKFM=F Big=F
 Integral buffers will be    131072 words long.
 Raffenetti 2 integral format.
 Two-electron integral symmetry is turned on.
 Leave Link  301 at Fri Mar 29 04:42:31 2019, MaxMem=   671088640 cpu:               1.4 elap:               0.1
 (Enter /shared/centos7/gaussian/g16/l302.exe)
 NPDir=0 NMtPBC=     1 NCelOv=     1 NCel=       1 NClECP=     1 NCelD=      1
         NCelK=      1 NCelE2=     1 NClLst=     1 CellRange=     0.0.
 One-electron integrals computed using PRISM.
 One-electron integral symmetry used in STVInt
 NBasis=   251 RedAO= T EigKep=  4.26D-05  NBF=   251
 NBsUse=   251 1.00D-06 EigRej= -1.00D+00 NBFU=   251
 Precomputing XC quadrature grid using
 IXCGrd= 4 IRadAn=           5 IRanWt=          -1 IRanGd=           0 AccXCQ= 0.00D+00.
 Generated NRdTot=       0 NPtTot=           0 NUsed=           0 NTot=          32
 NSgBfM=   276   276   276   276   276 MxSgAt=    14 MxSgA2=    14.
 Leave Link  302 at Fri Mar 29 04:42:36 2019, MaxMem=   671088640 cpu:              68.7 elap:               4.3
 (Enter /shared/centos7/gaussian/g16/l303.exe)
 DipDrv:  MaxL=1.
 Leave Link  303 at Fri Mar 29 04:42:36 2019, MaxMem=   671088640 cpu:               4.1 elap:               0.3
 (Enter /shared/centos7/gaussian/g16/l401.exe)
 ExpMin= 4.38D-02 ExpMax= 8.59D+03 ExpMxC= 1.30D+03 IAcc=3 IRadAn=         5 AccDes= 0.00D+00
 Harris functional with IExCor= 1009 and IRadAn=       5 diagonalized for initial guess.
 HarFok:  IExCor= 1009 AccDes= 0.00D+00 IRadAn=         5 IDoV= 1 UseB2=F ITyADJ=14
 ICtDFT=  3500011 ScaDFX=  1.000000  1.000000  1.000000  1.000000
 FoFCou: FMM=F IPFlag=           0 FMFlag=      100000 FMFlg1=           0
         NFxFlg=           0 DoJE=T BraDBF=F KetDBF=T FulRan=T
         wScrn=  0.000000 ICntrl=       500 IOpCl=  0 I1Cent=   200000004 NGrid=           0
         NMat0=    1 NMatS0=      1 NMatT0=    0 NMatD0=    1 NMtDS0=    0 NMtDT0=    0
 Petite list used in FoFCou.
 Harris En= -232.914763535506    
 JPrj=0 DoOrth=F DoCkMO=F.
 Initial guess <Sx>= 0.0000 <Sy>= 0.0000 <Sz>= 0.5000 <S**2>= 0.7500 S= 0.5000
 Leave Link  401 at Fri Mar 29 04:42:39 2019, MaxMem=   671088640 cpu:              49.1 elap:               3.1
 (Enter /shared/centos7/gaussian/g16/l502.exe)
 Integral symmetry usage will be decided dynamically.
 UHF open shell SCF:
 Using DIIS extrapolation, IDIIS=  1040.
 NGot=   671088640 LenX=   670928170 LenY=   670851553
 Requested convergence on RMS density matrix=1.00D-08 within 128 cycles.
 Requested convergence on MAX density matrix=1.00D-06.
 Requested convergence on             energy=1.00D-06.
 No special actions if energy rises.
 Fock matrices will be formed incrementally for  20 cycles.

 Cycle   1  Pass 1  IDiag  1:
 FoFJK:  IHMeth= 1 ICntrl=       0 DoSepK=F KAlg= 0 I1Cent=           0 FoldK=F
 IRaf= 980000000 NMat=       1 IRICut=       1 DoRegI=T DoRafI=F ISym2E= 0 IDoP0=0 IntGTp=1.
 FoFCou: FMM=F IPFlag=           0 FMFlag=      100000 FMFlg1=           0
         NFxFlg=           0 DoJE=F BraDBF=F KetDBF=F FulRan=T
         wScrn=  0.000000 ICntrl=         0 IOpCl=  1 I1Cent=           0 NGrid=           0
         NMat0=    1 NMatS0=      1 NMatT0=    0 NMatD0=    1 NMtDS0=    0 NMtDT0=    0
 Symmetry not used in FoFCou.
 E= -232.766332727865    
 DIIS: error= 2.13D-02 at cycle   1 NSaved=   1.
 NSaved= 1 IEnMin= 1 EnMin= -232.766332727865     IErMin= 1 ErrMin= 2.13D-02
 ErrMax= 2.13D-02  0.00D+00 EMaxC= 1.00D-01 BMatC= 9.66D-01 BMatP= 9.66D-01
 IDIUse=3 WtCom= 7.87D-01 WtEn= 2.13D-01
 Coeff-Com:  0.100D+01
 Coeff-En:   0.100D+01
 Coeff:      0.100D+01
 Gap=     0.195 Goal=   None    Shift=    0.000
 Gap=     0.407 Goal=   None    Shift=    0.000
 GapD=    0.195 DampG=1.000 DampE=0.500 DampFc=0.5000 IDamp=-1.
 Damping current iteration by 5.00D-01
 RMSDP=4.48D-03 MaxDP=4.01D-01              OVMax= 1.58D-01

 Cycle   2  Pass 1  IDiag  1:
 RMSU=  2.24D-03    CP:  1.00D+00
 E= -232.869355760604     Delta-E=       -0.103023032739 Rises=F Damp=T
 DIIS: error= 5.91D-03 at cycle   2 NSaved=   2.
 NSaved= 2 IEnMin= 2 EnMin= -232.869355760604     IErMin= 2 ErrMin= 5.91D-03
 ErrMax= 5.91D-03  0.00D+00 EMaxC= 1.00D-01 BMatC= 5.72D-02 BMatP= 9.66D-01
 IDIUse=3 WtCom= 9.41D-01 WtEn= 5.91D-02
 Coeff-Com: -0.724D-01 0.107D+01
 Coeff-En:   0.000D+00 0.100D+01
 Coeff:     -0.681D-01 0.107D+01
 Gap=     0.234 Goal=   None    Shift=    0.000
 Gap=     0.406 Goal=   None    Shift=    0.000
 RMSDP=2.16D-03 MaxDP=2.66D-01 DE=-1.03D-01 OVMax= 8.86D-02

 Cycle   3  Pass 1  IDiag  1:
 RMSU=  1.67D-03    CP:  9.51D-01  4.25D-01
 E= -232.972312201110     Delta-E=       -0.102956440506 Rises=F Damp=F
 DIIS: error= 2.94D-03 at cycle   3 NSaved=   3.
 NSaved= 3 IEnMin= 3 EnMin= -232.972312201110     IErMin= 3 ErrMin= 2.94D-03
 ErrMax= 2.94D-03  0.00D+00 EMaxC= 1.00D-01 BMatC= 1.16D-02 BMatP= 5.72D-02
 IDIUse=3 WtCom= 9.71D-01 WtEn= 2.94D-02
 Coeff-Com: -0.736D-01 0.285D+00 0.788D+00
 Coeff-En:   0.000D+00 0.000D+00 0.100D+01
 Coeff:     -0.714D-01 0.277D+00 0.795D+00
 Gap=     0.232 Goal=   None    Shift=    0.000
 Gap=     0.380 Goal=   None    Shift=    0.000
 RMSDP=1.92D-04 MaxDP=8.08D-03 DE=-1.03D-01 OVMax= 1.20D-02

 Cycle   4  Pass 1  IDiag  1:
 RMSU=  1.82D-04    CP:  9.48D-01  4.49D-01  1.01D+00
 E= -232.974377129686     Delta-E=       -0.002064928576 Rises=F Damp=F
 DIIS: error= 1.44D-03 at cycle   4 NSaved=   4.
 NSaved= 4 IEnMin= 4 EnMin= -232.974377129686     IErMin= 4 ErrMin= 1.44D-03
 ErrMax= 1.44D-03  0.00D+00 EMaxC= 1.00D-01 BMatC= 2.09D-03 BMatP= 1.16D-02
 IDIUse=3 WtCom= 9.86D-01 WtEn= 1.44D-02
 Coeff-Com: -0.269D-01 0.674D-01 0.345D+00 0.614D+00
 Coeff-En:   0.000D+00 0.000D+00 0.000D+00 0.100D+01
 Coeff:     -0.265D-01 0.665D-01 0.340D+00 0.620D+00
 Gap=     0.231 Goal=   None    Shift=    0.000
 Gap=     0.379 Goal=   None    Shift=    0.000
 RMSDP=9.53D-05 MaxDP=8.72D-03 DE=-2.06D-03 OVMax= 7.87D-03

 Cycle   5  Pass 1  IDiag  1:
 RMSU=  7.07D-05    CP:  9.47D-01  4.32D-01  1.04D+00  8.23D-01
 E= -232.974804667094     Delta-E=       -0.000427537408 Rises=F Damp=F
 DIIS: error= 3.63D-04 at cycle   5 NSaved=   5.
 NSaved= 5 IEnMin= 5 EnMin= -232.974804667094     IErMin= 5 ErrMin= 3.63D-04
 ErrMax= 3.63D-04  0.00D+00 EMaxC= 1.00D-01 BMatC= 2.45D-04 BMatP= 2.09D-03
 IDIUse=3 WtCom= 9.96D-01 WtEn= 3.63D-03
 Coeff-Com: -0.205D-02-0.578D-02 0.338D-01 0.251D+00 0.723D+00
 Coeff-En:   0.000D+00 0.000D+00 0.000D+00 0.000D+00 0.100D+01
 Coeff:     -0.204D-02-0.576D-02 0.336D-01 0.250D+00 0.724D+00
 Gap=     0.232 Goal=   None    Shift=    0.000
 Gap=     0.379 Goal=   None    Shift=    0.000
 RMSDP=5.61D-05 MaxDP=3.63D-03 DE=-4.28D-04 OVMax= 2.83D-03

 Cycle   6  Pass 1  IDiag  1:
 RMSU=  3.68D-05    CP:  9.46D-01  4.19D-01  1.05D+00  9.22D-01  1.08D+00
 E= -232.974874592956     Delta-E=       -0.000069925862 Rises=F Damp=F
 DIIS: error= 1.71D-04 at cycle   6 NSaved=   6.
 NSaved= 6 IEnMin= 6 EnMin= -232.974874592956     IErMin= 6 ErrMin= 1.71D-04
 ErrMax= 1.71D-04  0.00D+00 EMaxC= 1.00D-01 BMatC= 2.14D-05 BMatP= 2.45D-04
 IDIUse=3 WtCom= 9.98D-01 WtEn= 1.71D-03
 Coeff-Com:  0.465D-02-0.115D-01-0.640D-01-0.875D-01-0.419D-01 0.120D+01
 Coeff-En:   0.000D+00 0.000D+00 0.000D+00 0.000D+00 0.000D+00 0.100D+01
 Coeff:      0.464D-02-0.115D-01-0.638D-01-0.874D-01-0.418D-01 0.120D+01
 Gap=     0.233 Goal=   None    Shift=    0.000
 Gap=     0.380 Goal=   None    Shift=    0.000
 RMSDP=3.83D-05 MaxDP=2.78D-03 DE=-6.99D-05 OVMax= 3.24D-03

 Cycle   7  Pass 1  IDiag  1:
 RMSU=  1.72D-05    CP:  9.46D-01  4.09D-01  1.06D+00  9.82D-01  1.24D+00
                    CP:  1.40D+00
 E= -232.974894155253     Delta-E=       -0.000019562297 Rises=F Damp=F
 DIIS: error= 6.32D-05 at cycle   7 NSaved=   7.
 NSaved= 7 IEnMin= 7 EnMin= -232.974894155253     IErMin= 7 ErrMin= 6.32D-05
 ErrMax= 6.32D-05  0.00D+00 EMaxC= 1.00D-01 BMatC= 6.35D-06 BMatP= 2.14D-05
 IDIUse=1 WtCom= 1.00D+00 WtEn= 0.00D+00
 Coeff-Com:  0.165D-02-0.252D-02-0.268D-01-0.677D-01-0.155D+00 0.448D+00
 Coeff-Com:  0.803D+00
 Coeff:      0.165D-02-0.252D-02-0.268D-01-0.677D-01-0.155D+00 0.448D+00
 Coeff:      0.803D+00
 Gap=     0.233 Goal=   None    Shift=    0.000
 Gap=     0.380 Goal=   None    Shift=    0.000
 RMSDP=1.48D-05 MaxDP=1.00D-03 DE=-1.96D-05 OVMax= 1.01D-03

 Cycle   8  Pass 1  IDiag  1:
 RMSU=  5.35D-06    CP:  9.46D-01  4.06D-01  1.06D+00  1.00D+00  1.25D+00
                    CP:  1.61D+00  1.38D+00
 E= -232.974897136276     Delta-E=       -0.000002981023 Rises=F Damp=F
 DIIS: error= 2.36D-05 at cycle   8 NSaved=   8.
 NSaved= 8 IEnMin= 8 EnMin= -232.974897136276     IErMin= 8 ErrMin= 2.36D-05
 ErrMax= 2.36D-05  0.00D+00 EMaxC= 1.00D-01 BMatC= 5.11D-07 BMatP= 6.35D-06
 IDIUse=1 WtCom= 1.00D+00 WtEn= 0.00D+00
 Coeff-Com: -0.614D-03 0.164D-02 0.674D-02 0.552D-02-0.219D-01-0.111D+00
 Coeff-Com:  0.104D+00 0.102D+01
 Coeff:     -0.614D-03 0.164D-02 0.674D-02 0.552D-02-0.219D-01-0.111D+00
 Coeff:      0.104D+00 0.102D+01
 Gap=     0.233 Goal=   None    Shift=    0.000
 Gap=     0.380 Goal=   None    Shift=    0.000
 RMSDP=6.17D-06 MaxDP=4.36D-04 DE=-2.98D-06 OVMax= 3.91D-04

 Cycle   9  Pass 1  IDiag  1:
 RMSU=  2.33D-06    CP:  9.46D-01  4.05D-01  1.06D+00  1.00D+00  1.24D+00
                    CP:  1.69D+00  1.62D+00  1.40D+00
 E= -232.974897463976     Delta-E=       -0.000000327700 Rises=F Damp=F
 DIIS: error= 7.89D-06 at cycle   9 NSaved=   9.
 NSaved= 9 IEnMin= 9 EnMin= -232.974897463976     IErMin= 9 ErrMin= 7.89D-06
 ErrMax= 7.89D-06  0.00D+00 EMaxC= 1.00D-01 BMatC= 5.78D-08 BMatP= 5.11D-07
 IDIUse=1 WtCom= 1.00D+00 WtEn= 0.00D+00
 Coeff-Com: -0.327D-03 0.664D-03 0.475D-02 0.101D-01 0.152D-01-0.761D-01
 Coeff-Com: -0.873D-01 0.192D+00 0.941D+00
 Coeff:     -0.327D-03 0.664D-03 0.475D-02 0.101D-01 0.152D-01-0.761D-01
 Coeff:     -0.873D-01 0.192D+00 0.941D+00
 Gap=     0.233 Goal=   None    Shift=    0.000
 Gap=     0.380 Goal=   None    Shift=    0.000
 RMSDP=2.01D-06 MaxDP=1.84D-04 DE=-3.28D-07 OVMax= 1.01D-04

 Cycle  10  Pass 1  IDiag  1:
 RMSU=  1.03D-06    CP:  9.46D-01  4.05D-01  1.06D+00  1.00D+00  1.23D+00
                    CP:  1.70D+00  1.67D+00  1.53D+00  1.16D+00
 E= -232.974897495501     Delta-E=       -0.000000031525 Rises=F Damp=F
 DIIS: error= 1.62D-06 at cycle  10 NSaved=  10.
 NSaved=10 IEnMin=10 EnMin= -232.974897495501     IErMin=10 ErrMin= 1.62D-06
 ErrMax= 1.62D-06  0.00D+00 EMaxC= 1.00D-01 BMatC= 4.51D-09 BMatP= 5.78D-08
 IDIUse=1 WtCom= 1.00D+00 WtEn= 0.00D+00
 Coeff-Com:  0.451D-04-0.110D-03-0.376D-03 0.110D-03 0.192D-02 0.458D-02
 Coeff-Com: -0.113D-01-0.687D-01 0.359D-01 0.104D+01
 Coeff:      0.451D-04-0.110D-03-0.376D-03 0.110D-03 0.192D-02 0.458D-02
 Coeff:     -0.113D-01-0.687D-01 0.359D-01 0.104D+01
 Gap=     0.233 Goal=   None    Shift=    0.000
 Gap=     0.380 Goal=   None    Shift=    0.000
 RMSDP=5.80D-07 MaxDP=4.62D-05 DE=-3.15D-08 OVMax= 2.75D-05

 Cycle  11  Pass 1  IDiag  1:
 RMSU=  2.26D-07    CP:  9.46D-01  4.05D-01  1.06D+00  1.00D+00  1.23D+00
                    CP:  1.71D+00  1.68D+00  1.56D+00  1.27D+00  1.26D+00
 E= -232.974897497931     Delta-E=       -0.000000002430 Rises=F Damp=F
 DIIS: error= 7.23D-07 at cycle  11 NSaved=  11.
 NSaved=11 IEnMin=11 EnMin= -232.974897497931     IErMin=11 ErrMin= 7.23D-07
 ErrMax= 7.23D-07  0.00D+00 EMaxC= 1.00D-01 BMatC= 9.70D-10 BMatP= 4.51D-09
 IDIUse=1 WtCom= 1.00D+00 WtEn= 0.00D+00
 Coeff-Com:  0.500D-04-0.109D-03-0.643D-03-0.978D-03-0.817D-03 0.994D-02
 Coeff-Com:  0.552D-02-0.439D-01-0.969D-01 0.323D+00 0.805D+00
 Coeff:      0.500D-04-0.109D-03-0.643D-03-0.978D-03-0.817D-03 0.994D-02
 Coeff:      0.552D-02-0.439D-01-0.969D-01 0.323D+00 0.805D+00
 Gap=     0.233 Goal=   None    Shift=    0.000
 Gap=     0.380 Goal=   None    Shift=    0.000
 RMSDP=2.66D-07 MaxDP=2.99D-05 DE=-2.43D-09 OVMax= 9.31D-06

 Cycle  12  Pass 1  IDiag  1:
 RMSU=  9.26D-08    CP:  9.46D-01  4.05D-01  1.06D+00  1.01D+00  1.22D+00
                    CP:  1.71D+00  1.68D+00  1.57D+00  1.30D+00  1.39D+00
                    CP:  1.28D+00
 E= -232.974897498287     Delta-E=       -0.000000000356 Rises=F Damp=F
 DIIS: error= 2.60D-07 at cycle  12 NSaved=  12.
 NSaved=12 IEnMin=12 EnMin= -232.974897498287     IErMin=12 ErrMin= 2.60D-07
 ErrMax= 2.60D-07  0.00D+00 EMaxC= 1.00D-01 BMatC= 9.70D-11 BMatP= 9.70D-10
 IDIUse=1 WtCom= 1.00D+00 WtEn= 0.00D+00
 Coeff-Com: -0.103D-05 0.137D-05-0.331D-04-0.120D-03-0.306D-03 0.677D-03
 Coeff-Com:  0.199D-02 0.282D-02-0.215D-01-0.932D-01 0.161D+00 0.949D+00
 Coeff:     -0.103D-05 0.137D-05-0.331D-04-0.120D-03-0.306D-03 0.677D-03
 Coeff:      0.199D-02 0.282D-02-0.215D-01-0.932D-01 0.161D+00 0.949D+00
 Gap=     0.233 Goal=   None    Shift=    0.000
 Gap=     0.380 Goal=   None    Shift=    0.000
 RMSDP=6.67D-08 MaxDP=6.21D-06 DE=-3.56D-10 OVMax= 2.93D-06

 Cycle  13  Pass 1  IDiag  1:
 RMSU=  2.75D-08    CP:  9.46D-01  4.05D-01  1.06D+00  1.01D+00  1.22D+00
                    CP:  1.71D+00  1.68D+00  1.57D+00  1.31D+00  1.41D+00
                    CP:  1.46D+00  1.19D+00
 E= -232.974897498324     Delta-E=       -0.000000000037 Rises=F Damp=F
 DIIS: error= 4.68D-08 at cycle  13 NSaved=  13.
 NSaved=13 IEnMin=13 EnMin= -232.974897498324     IErMin=13 ErrMin= 4.68D-08
 ErrMax= 4.68D-08  0.00D+00 EMaxC= 1.00D-01 BMatC= 3.77D-12 BMatP= 9.70D-11
 IDIUse=1 WtCom= 1.00D+00 WtEn= 0.00D+00
 Coeff-Com: -0.289D-05 0.621D-05 0.339D-04 0.476D-04 0.171D-04-0.494D-03
 Coeff-Com: -0.236D-03 0.272D-02 0.533D-02-0.227D-01-0.495D-01 0.311D-02
 Coeff-Com:  0.106D+01
 Coeff:     -0.289D-05 0.621D-05 0.339D-04 0.476D-04 0.171D-04-0.494D-03
 Coeff:     -0.236D-03 0.272D-02 0.533D-02-0.227D-01-0.495D-01 0.311D-02
 Coeff:      0.106D+01
 Gap=     0.233 Goal=   None    Shift=    0.000
 Gap=     0.380 Goal=   None    Shift=    0.000
 RMSDP=1.70D-08 MaxDP=9.40D-07 DE=-3.69D-11 OVMax= 1.03D-06

 Cycle  14  Pass 1  IDiag  1:
 RMSU=  5.91D-09    CP:  9.46D-01  4.05D-01  1.06D+00  1.01D+00  1.22D+00
                    CP:  1.71D+00  1.68D+00  1.57D+00  1.31D+00  1.41D+00
                    CP:  1.50D+00  1.27D+00  1.28D+00
 E= -232.974897498332     Delta-E=       -0.000000000008 Rises=F Damp=F
 DIIS: error= 1.51D-08 at cycle  14 NSaved=  14.
 NSaved=14 IEnMin=14 EnMin= -232.974897498332     IErMin=14 ErrMin= 1.51D-08
 ErrMax= 1.51D-08  0.00D+00 EMaxC= 1.00D-01 BMatC= 3.47D-13 BMatP= 3.77D-12
 IDIUse=1 WtCom= 1.00D+00 WtEn= 0.00D+00
 Coeff-Com:  0.165D-06-0.162D-06 0.241D-05 0.622D-05 0.119D-04-0.357D-04
 Coeff-Com: -0.124D-03-0.172D-03 0.169D-02 0.591D-02-0.128D-01-0.706D-01
 Coeff-Com:  0.368D-01 0.104D+01
 Coeff:      0.165D-06-0.162D-06 0.241D-05 0.622D-05 0.119D-04-0.357D-04
 Coeff:     -0.124D-03-0.172D-03 0.169D-02 0.591D-02-0.128D-01-0.706D-01
 Coeff:      0.368D-01 0.104D+01
 Gap=     0.233 Goal=   None    Shift=    0.000
 Gap=     0.380 Goal=   None    Shift=    0.000
 RMSDP=4.17D-09 MaxDP=1.47D-07 DE=-7.96D-12 OVMax= 3.28D-07

 SCF Done:  E(UM062X) =  -232.974897498     A.U. after   14 cycles
            NFock= 14  Conv=0.42D-08     -V/T= 2.0039
 <Sx>= 0.0000 <Sy>= 0.0000 <Sz>= 0.5000 <S**2>= 0.7545 S= 0.5022
 <L.S>= 0.000000000000E+00
 KE= 2.320747635719D+02 PE=-9.093949148068D+02 EE= 2.612399694051D+02
 Annihilation of the first spin contaminant:
 S**2 before annihilation     0.7545,   after     0.7500
 Leave Link  502 at Fri Mar 29 04:44:52 2019, MaxMem=   671088640 cpu:            2136.1 elap:             133.6
 (Enter /shared/centos7/gaussian/g16/l801.exe)
 DoSCS=F DFT=T ScalE2(SS,OS)=  1.000000  1.000000
 Range of M.O.s used for correlation:     1   251
 NBasis=   251 NAE=    21 NBE=    20 NFC=     0 NFV=     0
 NROrb=    251 NOA=    21 NOB=    20 NVA=   230 NVB=   231

 **** Warning!!: The largest alpha MO coefficient is  0.49362934D+02


 **** Warning!!: The largest beta MO coefficient is  0.48737388D+02

 Leave Link  801 at Fri Mar 29 04:44:53 2019, MaxMem=   671088640 cpu:               1.4 elap:               0.1
 (Enter /shared/centos7/gaussian/g16/l1101.exe)
 Using compressed storage, NAtomX=    14.
 Will process     15 centers per pass.
 Leave Link 1101 at Fri Mar 29 04:44:55 2019, MaxMem=   671088640 cpu:              38.3 elap:               2.4
 (Enter /shared/centos7/gaussian/g16/l1102.exe)
 Symmetrizing basis deriv contribution to polar:
 IMax=3 JMax=2 DiffMx= 0.00D+00
 Leave Link 1102 at Fri Mar 29 04:44:55 2019, MaxMem=   671088640 cpu:               3.2 elap:               0.2
 (Enter /shared/centos7/gaussian/g16/l1110.exe)
 Forming Gx(P) for the SCF density, NAtomX=    14.
 Integral derivatives from FoFJK, PRISM(SPDF).
 Do as many integral derivatives as possible in FoFJK.
 G2DrvN: MDV=     671087496.
 G2DrvN: will do    15 centers at a time, making    1 passes.
 Calling FoFCou, ICntrl=  3107 FMM=F I1Cent=   0 AccDes= 0.00D+00.
 FoFJK:  IHMeth= 1 ICntrl=    3107 DoSepK=F KAlg= 0 I1Cent=           0 FoldK=F
 IRaf=         0 NMat=       1 IRICut=       1 DoRegI=T DoRafI=F ISym2E= 0 IDoP0=0 IntGTp=1.
 FoFCou: FMM=F IPFlag=           0 FMFlag=      100000 FMFlg1=           0
         NFxFlg=           0 DoJE=F BraDBF=F KetDBF=F FulRan=T
         wScrn=  0.000000 ICntrl=      3107 IOpCl=  1 I1Cent=           0 NGrid=           0
         NMat0=    1 NMatS0=      1 NMatT0=    0 NMatD0=    1 NMtDS0=    0 NMtDT0=    0
 Symmetry not used in FoFCou.
 End of G2Drv F.D. properties file   721 does not exist.
 End of G2Drv F.D. properties file   722 does not exist.
 End of G2Drv F.D. properties file   788 does not exist.
 Leave Link 1110 at Fri Mar 29 04:48:49 2019, MaxMem=   671088640 cpu:            3736.8 elap:             233.6
 (Enter /shared/centos7/gaussian/g16/l1002.exe)
 Minotr:  UHF open shell wavefunction.
          IDoAtm=11111111111111
          Direct CPHF calculation.
          Differentiating once with respect to nuclear coordinates.
          Requested convergence is 1.0D-08 RMS, and 1.0D-07 maximum.
          Secondary convergence is 1.0D-12 RMS, and 1.0D-12 maximum.
          NewPWx=T KeepS1=F KeepF1=F KeepIn=T MapXYZ=F SortEE=F KeepMc=T.
         4250 words used for storage of precomputed grid.
 Two-electron integrals replicated using symmetry.
          MDV=     671088640 using IRadAn=       1.
          Solving linear equations simultaneously, MaxMat=     380.
 FoF2E skips out because all densities are zero.
 CalDSu exits because no D1Ps are significant.
 FoFJK:  IHMeth= 1 ICntrl=       0 DoSepK=F KAlg= 0 I1Cent=           0 FoldK=F
 IRaf= 980000000 NMat=      42 IRICut=     105 DoRegI=T DoRafI=T ISym2E= 2 IDoP0=3 IntGTp=3.
 FoFCou: FMM=F IPFlag=           0 FMFlag=      100000 FMFlg1=           0
         NFxFlg=           0 DoJE=F BraDBF=F KetDBF=F FulRan=T
         wScrn=  0.000000 ICntrl=         0 IOpCl=  1 I1Cent=           0 NGrid=           0
         NMat0=   42 NMatS0=     42 NMatT0=    0 NMatD0=   42 NMtDS0=    0 NMtDT0=    0
 Integrals replicated using symmetry in FoFCou.
 Raff kept on since  96.25% of shell-pairs survive, threshold=   0.20 IRatSp=96.
          There are    45 degrees of freedom in the 1st order CPHF.  IDoFFX=6 NUNeed=     0.
     39 vectors produced by pass  0 Test12= 2.10D-14 2.22D-09 XBig12= 1.25D-01 5.12D-02.
 AX will form    39 AO Fock derivatives at one time.
     39 vectors produced by pass  1 Test12= 2.10D-14 2.22D-09 XBig12= 8.44D-03 1.54D-02.
     39 vectors produced by pass  2 Test12= 2.10D-14 2.22D-09 XBig12= 3.66D-04 2.67D-03.
     39 vectors produced by pass  3 Test12= 2.10D-14 2.22D-09 XBig12= 5.14D-06 2.33D-04.
     39 vectors produced by pass  4 Test12= 2.10D-14 2.22D-09 XBig12= 5.95D-08 2.99D-05.
     39 vectors produced by pass  5 Test12= 2.10D-14 2.22D-09 XBig12= 7.95D-10 4.35D-06.
     37 vectors produced by pass  6 Test12= 2.10D-14 2.22D-09 XBig12= 8.56D-12 2.44D-07.
     14 vectors produced by pass  7 Test12= 2.10D-14 2.22D-09 XBig12= 5.46D-14 1.90D-08.
 InvSVY:  IOpt=1 It=  1 EMax= 1.78D-15
 Solved reduced A of dimension   285 with    39 vectors.
 End of Minotr F.D. properties file   721 does not exist.
 End of Minotr F.D. properties file   722 does not exist.
 End of Minotr F.D. properties file   788 does not exist.
 Leave Link 1002 at Fri Mar 29 04:55:07 2019, MaxMem=   671088640 cpu:            6048.1 elap:             378.1
 (Enter /shared/centos7/gaussian/g16/l601.exe)
 Copying SCF densities to generalized density rwf, IOpCl= 1 IROHF=0.

 **********************************************************************

            Population analysis using the SCF density.

 **********************************************************************

 Orbital symmetries:
 Alpha Orbitals:
       Occupied  (A) (A) (A) (A) (A) (A) (A) (A) (A) (A) (A) (A)
                 (A) (A) (A) (A) (A) (A) (A) (A) (A)
       Virtual   (A) (A) (A) (A) (A) (A) (A) (A) (A) (A) (A) (A)
                 (A) (A) (A) (A) (A) (A) (A) (A) (A) (A) (A) (A)
                 (A) (A) (A) (A) (A) (A) (A) (A) (A) (A) (A) (A)
                 (A) (A) (A) (A) (A) (A) (A) (A) (A) (A) (A) (A)
                 (A) (A) (A) (A) (A) (A) (A) (A) (A) (A) (A) (A)
                 (A) (A) (A) (A) (A) (A) (A) (A) (A) (A) (A) (A)
                 (A) (A) (A) (A) (A) (A) (A) (A) (A) (A) (A) (A)
                 (A) (A) (A) (A) (A) (A) (A) (A) (A) (A) (A) (A)
                 (A) (A) (A) (A) (A) (A) (A) (A) (A) (A) (A) (A)
                 (A) (A) (A) (A) (A) (A) (A) (A) (A) (A) (A) (A)
                 (A) (A) (A) (A) (A) (A) (A) (A) (A) (A) (A) (A)
                 (A) (A) (A) (A) (A) (A) (A) (A) (A) (A) (A) (A)
                 (A) (A) (A) (A) (A) (A) (A) (A) (A) (A) (A) (A)
                 (A) (A) (A) (A) (A) (A) (A) (A) (A) (A) (A) (A)
                 (A) (A) (A) (A) (A) (A) (A) (A) (A) (A) (A) (A)
                 (A) (A) (A) (A) (A) (A) (A) (A) (A) (A) (A) (A)
                 (A) (A) (A) (A) (A) (A) (A) (A) (A) (A) (A) (A)
                 (A) (A) (A) (A) (A) (A) (A) (A) (A) (A) (A) (A)
                 (A) (A) (A) (A) (A) (A) (A) (A) (A) (A) (A) (A)
                 (A) (A)
 Beta  Orbitals:
       Occupied  (A) (A) (A) (A) (A) (A) (A) (A) (A) (A) (A) (A)
                 (A) (A) (A) (A) (A) (A) (A) (A)
       Virtual   (A) (A) (A) (A) (A) (A) (A) (A) (A) (A) (A) (A)
                 (A) (A) (A) (A) (A) (A) (A) (A) (A) (A) (A) (A)
                 (A) (A) (A) (A) (A) (A) (A) (A) (A) (A) (A) (A)
                 (A) (A) (A) (A) (A) (A) (A) (A) (A) (A) (A) (A)
                 (A) (A) (A) (A) (A) (A) (A) (A) (A) (A) (A) (A)
                 (A) (A) (A) (A) (A) (A) (A) (A) (A) (A) (A) (A)
                 (A) (A) (A) (A) (A) (A) (A) (A) (A) (A) (A) (A)
                 (A) (A) (A) (A) (A) (A) (A) (A) (A) (A) (A) (A)
                 (A) (A) (A) (A) (A) (A) (A) (A) (A) (A) (A) (A)
                 (A) (A) (A) (A) (A) (A) (A) (A) (A) (A) (A) (A)
                 (A) (A) (A) (A) (A) (A) (A) (A) (A) (A) (A) (A)
                 (A) (A) (A) (A) (A) (A) (A) (A) (A) (A) (A) (A)
                 (A) (A) (A) (A) (A) (A) (A) (A) (A) (A) (A) (A)
                 (A) (A) (A) (A) (A) (A) (A) (A) (A) (A) (A) (A)
                 (A) (A) (A) (A) (A) (A) (A) (A) (A) (A) (A) (A)
                 (A) (A) (A) (A) (A) (A) (A) (A) (A) (A) (A) (A)
                 (A) (A) (A) (A) (A) (A) (A) (A) (A) (A) (A) (A)
                 (A) (A) (A) (A) (A) (A) (A) (A) (A) (A) (A) (A)
                 (A) (A) (A) (A) (A) (A) (A) (A) (A) (A) (A) (A)
                 (A) (A) (A)
 The electronic state is 2-A.
 Alpha  occ. eigenvalues --  -19.65044 -10.57882 -10.52981 -10.52269 -10.51230
 Alpha  occ. eigenvalues --   -1.18062  -0.89323  -0.80735  -0.71841  -0.65405
 Alpha  occ. eigenvalues --   -0.61210  -0.53231  -0.51968  -0.49066  -0.46891
 Alpha  occ. eigenvalues --   -0.44539  -0.43277  -0.39664  -0.38711  -0.38437
 Alpha  occ. eigenvalues --   -0.22281
 Alpha virt. eigenvalues --    0.01006   0.02786   0.03542   0.04266   0.06218
 Alpha virt. eigenvalues --    0.06341   0.07783   0.08180   0.08549   0.10956
 Alpha virt. eigenvalues --    0.11590   0.12295   0.12553   0.13008   0.15802
 Alpha virt. eigenvalues --    0.17477   0.18811   0.20158   0.21134   0.22444
 Alpha virt. eigenvalues --    0.23874   0.24238   0.24891   0.26276   0.26868
 Alpha virt. eigenvalues --    0.27611   0.28241   0.30314   0.30837   0.31847
 Alpha virt. eigenvalues --    0.32860   0.35694   0.38419   0.43298   0.43590
 Alpha virt. eigenvalues --    0.46242   0.47214   0.48694   0.49836   0.53095
 Alpha virt. eigenvalues --    0.54024   0.55904   0.56204   0.57436   0.58955
 Alpha virt. eigenvalues --    0.59071   0.61812   0.62044   0.63782   0.64196
 Alpha virt. eigenvalues --    0.64667   0.67117   0.68759   0.69991   0.71197
 Alpha virt. eigenvalues --    0.72837   0.73971   0.76483   0.77668   0.82979
 Alpha virt. eigenvalues --    0.85051   0.86573   0.88323   0.89782   0.90293
 Alpha virt. eigenvalues --    0.95844   0.99586   1.01786   1.02980   1.05639
 Alpha virt. eigenvalues --    1.07194   1.10848   1.11500   1.13506   1.14716
 Alpha virt. eigenvalues --    1.16762   1.19204   1.19556   1.21401   1.24265
 Alpha virt. eigenvalues --    1.24597   1.27344   1.27686   1.28812   1.31435
 Alpha virt. eigenvalues --    1.33134   1.35097   1.36517   1.38288   1.38983
 Alpha virt. eigenvalues --    1.41918   1.42246   1.44032   1.45323   1.47510
 Alpha virt. eigenvalues --    1.48407   1.50134   1.52765   1.54586   1.54955
 Alpha virt. eigenvalues --    1.57515   1.58441   1.63552   1.64854   1.65665
 Alpha virt. eigenvalues --    1.68770   1.71495   1.76724   1.80298   1.91306
 Alpha virt. eigenvalues --    2.00731   2.15847   2.27257   2.33441   2.41506
 Alpha virt. eigenvalues --    2.45802   2.48930   2.53563   2.57713   2.61141
 Alpha virt. eigenvalues --    2.64146   2.69114   2.72312   2.77210   2.78205
 Alpha virt. eigenvalues --    2.82656   2.83997   2.87742   2.90391   2.92862
 Alpha virt. eigenvalues --    2.94817   2.96853   3.00279   3.01279   3.06835
 Alpha virt. eigenvalues --    3.07810   3.09842   3.10481   3.16580   3.18589
 Alpha virt. eigenvalues --    3.22890   3.26677   3.28437   3.29805   3.30981
 Alpha virt. eigenvalues --    3.34424   3.35133   3.36828   3.38865   3.40888
 Alpha virt. eigenvalues --    3.41625   3.45360   3.47726   3.49409   3.56770
 Alpha virt. eigenvalues --    3.58282   3.58977   3.62492   3.63260   3.67083
 Alpha virt. eigenvalues --    3.68329   3.70803   3.74289   3.76290   3.79725
 Alpha virt. eigenvalues --    3.81438   3.86599   3.89738   3.90106   3.95797
 Alpha virt. eigenvalues --    3.98228   4.00522   4.01273   4.02618   4.03169
 Alpha virt. eigenvalues --    4.05438   4.09015   4.11640   4.17343   4.18958
 Alpha virt. eigenvalues --    4.21060   4.22549   4.24876   4.25779   4.28782
 Alpha virt. eigenvalues --    4.30465   4.30815   4.41699   4.43008   4.45462
 Alpha virt. eigenvalues --    4.47979   4.51114   4.54543   4.56244   4.58244
 Alpha virt. eigenvalues --    4.60112   4.65230   4.66723   4.71826   4.72904
 Alpha virt. eigenvalues --    4.76864   5.02321   5.18726   5.20095   5.23746
 Alpha virt. eigenvalues --    5.29370   5.36141   5.42885   5.44321   5.49041
 Alpha virt. eigenvalues --    5.58234   5.60967   5.63268   5.67485   5.67869
 Alpha virt. eigenvalues --    5.73124   5.80563   6.09463   6.59541   6.94572
 Alpha virt. eigenvalues --    7.14809   7.18651   7.20968   7.56249   7.64304
 Alpha virt. eigenvalues --   24.30208  24.33552  24.45759  24.53543  50.13263
  Beta  occ. eigenvalues --  -19.64693 -10.57134 -10.53031 -10.52232 -10.51224
  Beta  occ. eigenvalues --   -1.16777  -0.88780  -0.79786  -0.70582  -0.64954
  Beta  occ. eigenvalues --   -0.59783  -0.52167  -0.50996  -0.48092  -0.45145
  Beta  occ. eigenvalues --   -0.43381  -0.42445  -0.38923  -0.38566  -0.38108
  Beta virt. eigenvalues --   -0.00125   0.01560   0.02853   0.03554   0.03874
  Beta virt. eigenvalues --    0.06199   0.06347   0.07636   0.08125   0.08475
  Beta virt. eigenvalues --    0.10736   0.11127   0.12364   0.12479   0.12824
  Beta virt. eigenvalues --    0.15253   0.17377   0.18830   0.20163   0.21429
  Beta virt. eigenvalues --    0.22470   0.23882   0.24716   0.24912   0.26239
  Beta virt. eigenvalues --    0.27030   0.28069   0.28552   0.30232   0.31563
  Beta virt. eigenvalues --    0.31756   0.33127   0.36160   0.38788   0.43251
  Beta virt. eigenvalues --    0.44137   0.46546   0.47399   0.48777   0.50803
  Beta virt. eigenvalues --    0.53261   0.54197   0.56194   0.56719   0.57490
  Beta virt. eigenvalues --    0.59020   0.59646   0.61808   0.62636   0.63720
  Beta virt. eigenvalues --    0.64668   0.65086   0.67393   0.69183   0.70061
  Beta virt. eigenvalues --    0.71292   0.73211   0.74407   0.77182   0.77592
  Beta virt. eigenvalues --    0.83130   0.85325   0.86687   0.88621   0.89570
  Beta virt. eigenvalues --    0.90445   0.95980   0.99618   1.01414   1.03156
  Beta virt. eigenvalues --    1.05707   1.07584   1.11004   1.11492   1.13678
  Beta virt. eigenvalues --    1.14842   1.16758   1.19339   1.19793   1.21588
  Beta virt. eigenvalues --    1.24366   1.24869   1.27653   1.27918   1.29020
  Beta virt. eigenvalues --    1.31842   1.33242   1.35162   1.36929   1.38588
  Beta virt. eigenvalues --    1.39292   1.42199   1.42665   1.44163   1.45509
  Beta virt. eigenvalues --    1.47615   1.48362   1.50389   1.52990   1.54616
  Beta virt. eigenvalues --    1.55048   1.57625   1.59132   1.63522   1.64764
  Beta virt. eigenvalues --    1.65996   1.68819   1.71460   1.76911   1.80492
  Beta virt. eigenvalues --    1.91803   2.01586   2.16347   2.27733   2.34313
  Beta virt. eigenvalues --    2.41562   2.46089   2.49390   2.54041   2.58190
  Beta virt. eigenvalues --    2.61803   2.65423   2.69596   2.73089   2.78357
  Beta virt. eigenvalues --    2.80218   2.84164   2.85876   2.88485   2.91303
  Beta virt. eigenvalues --    2.94190   2.97305   2.98249   3.00532   3.03497
  Beta virt. eigenvalues --    3.08064   3.08991   3.10778   3.12113   3.17470
  Beta virt. eigenvalues --    3.18872   3.24259   3.27645   3.30223   3.31920
  Beta virt. eigenvalues --    3.32582   3.36089   3.37281   3.38219   3.40990
  Beta virt. eigenvalues --    3.42043   3.44183   3.47817   3.49719   3.51045
  Beta virt. eigenvalues --    3.57910   3.59536   3.61233   3.63844   3.64642
  Beta virt. eigenvalues --    3.67579   3.69222   3.71027   3.74793   3.77091
  Beta virt. eigenvalues --    3.80931   3.81854   3.87361   3.90365   3.91235
  Beta virt. eigenvalues --    3.96768   3.98758   4.00555   4.01948   4.03233
  Beta virt. eigenvalues --    4.03782   4.06177   4.09958   4.12408   4.18584
  Beta virt. eigenvalues --    4.19294   4.21324   4.23149   4.25316   4.26127
  Beta virt. eigenvalues --    4.29824   4.31384   4.31483   4.42105   4.44222
  Beta virt. eigenvalues --    4.46406   4.49019   4.51551   4.54680   4.57012
  Beta virt. eigenvalues --    4.58617   4.60497   4.66232   4.67133   4.72977
  Beta virt. eigenvalues --    4.73946   4.78553   5.04827   5.20093   5.21100
  Beta virt. eigenvalues --    5.24066   5.30250   5.36339   5.42974   5.45111
  Beta virt. eigenvalues --    5.51250   5.59002   5.61104   5.63786   5.67764
  Beta virt. eigenvalues --    5.68859   5.73666   5.81563   6.10199   6.60623
  Beta virt. eigenvalues --    6.95423   7.15596   7.19806   7.21128   7.56765
  Beta virt. eigenvalues --    7.64211  24.30562  24.33787  24.45883  24.54313
  Beta virt. eigenvalues --   50.13011
          Condensed to atoms (all electrons):
               1          2          3          4          5          6
     1  O    8.035379   0.065563  -0.081298  -0.030227   0.076498  -0.000725
     2  C    0.065563   5.634486  -0.103274   0.089221  -0.213462   0.424273
     3  C   -0.081298  -0.103274   5.541409  -0.018105   0.189887  -0.061329
     4  C   -0.030227   0.089221  -0.018105   5.218008   0.033416  -0.020454
     5  C    0.076498  -0.213462   0.189887   0.033416   5.847887   0.031749
     6  H   -0.000725   0.424273  -0.061329  -0.020454   0.031749   0.527359
     7  H   -0.005990   0.476587  -0.015465  -0.061651  -0.023948  -0.029365
     8  H   -0.004444  -0.080371   0.456170   0.009107  -0.030735  -0.002548
     9  H    0.007271  -0.000152   0.451315  -0.011709  -0.082900  -0.007234
    10  H    0.000540  -0.008747  -0.010194   0.407041  -0.010033  -0.007082
    11  H   -0.000613  -0.065231   0.027828   0.424667   0.003769  -0.004752
    12  H    0.001690  -0.017214  -0.027917   0.414856   0.002340   0.005591
    13  H   -0.032491   0.021745  -0.024755  -0.000201   0.393426  -0.000211
    14  H    0.249861   0.000965  -0.023137   0.004642   0.007623   0.000054
               7          8          9         10         11         12
     1  O   -0.005990  -0.004444   0.007271   0.000540  -0.000613   0.001690
     2  C    0.476587  -0.080371  -0.000152  -0.008747  -0.065231  -0.017214
     3  C   -0.015465   0.456170   0.451315  -0.010194   0.027828  -0.027917
     4  C   -0.061651   0.009107  -0.011709   0.407041   0.424667   0.414856
     5  C   -0.023948  -0.030735  -0.082900  -0.010033   0.003769   0.002340
     6  H   -0.029365  -0.002548  -0.007234  -0.007082  -0.004752   0.005591
     7  H    0.485399  -0.006144   0.004166   0.005137  -0.003311  -0.006383
     8  H   -0.006144   0.527098  -0.027144   0.000050  -0.000121  -0.000277
     9  H    0.004166  -0.027144   0.503844   0.000883  -0.000226  -0.000014
    10  H    0.005137   0.000050   0.000883   0.551394  -0.025574  -0.036147
    11  H   -0.003311  -0.000121  -0.000226  -0.025574   0.535242  -0.025612
    12  H   -0.006383  -0.000277  -0.000014  -0.036147  -0.025612   0.543794
    13  H   -0.000261  -0.002145  -0.002614  -0.000060   0.000009   0.000187
    14  H    0.000142   0.000075  -0.000192   0.000029   0.000007  -0.000330
              13         14
     1  O   -0.032491   0.249861
     2  C    0.021745   0.000965
     3  C   -0.024755  -0.023137
     4  C   -0.000201   0.004642
     5  C    0.393426   0.007623
     6  H   -0.000211   0.000054
     7  H   -0.000261   0.000142
     8  H   -0.002145   0.000075
     9  H   -0.002614  -0.000192
    10  H   -0.000060   0.000029
    11  H    0.000009   0.000007
    12  H    0.000187  -0.000330
    13  H    0.493024  -0.007421
    14  H   -0.007421   0.502805
          Atomic-Atomic Spin Densities.
               1          2          3          4          5          6
     1  O    0.261436   0.025936   0.003767   0.005157  -0.240961  -0.000149
     2  C    0.025936   0.286253  -0.118066  -0.001993  -0.181108  -0.007622
     3  C    0.003767  -0.118066   0.043144  -0.000397  -0.000631   0.006674
     4  C    0.005157  -0.001993  -0.000397   0.024040  -0.003989   0.000531
     5  C   -0.240961  -0.181108  -0.000631  -0.003989   1.470891   0.000869
     6  H   -0.000149  -0.007622   0.006674   0.000531   0.000869  -0.003586
     7  H    0.000055   0.004680  -0.007404  -0.001944   0.003043   0.000348
     8  H    0.004199  -0.066001   0.046094   0.003801  -0.001752   0.001689
     9  H    0.000693   0.024274  -0.008174  -0.002503  -0.018299  -0.000486
    10  H    0.000125   0.005165  -0.004425  -0.001991  -0.001120  -0.000017
    11  H   -0.000584  -0.006134   0.003646  -0.003424   0.004925   0.000223
    12  H    0.003135   0.009929   0.001497   0.006095  -0.022876  -0.000375
    13  H    0.004856   0.015403   0.007915  -0.000183  -0.038114  -0.000035
    14  H    0.002827   0.002449  -0.001383   0.000516  -0.008355  -0.000006
               7          8          9         10         11         12
     1  O    0.000055   0.004199   0.000693   0.000125  -0.000584   0.003135
     2  C    0.004680  -0.066001   0.024274   0.005165  -0.006134   0.009929
     3  C   -0.007404   0.046094  -0.008174  -0.004425   0.003646   0.001497
     4  C   -0.001944   0.003801  -0.002503  -0.001991  -0.003424   0.006095
     5  C    0.003043  -0.001752  -0.018299  -0.001120   0.004925  -0.022876
     6  H    0.000348   0.001689  -0.000486  -0.000017   0.000223  -0.000375
     7  H   -0.000441  -0.000104   0.000111   0.000082   0.000196  -0.000022
     8  H   -0.000104   0.060468  -0.003889  -0.000043   0.000077  -0.000104
     9  H    0.000111  -0.003889   0.006775   0.000196  -0.000074   0.000149
    10  H    0.000082  -0.000043   0.000196  -0.002461   0.000576   0.000315
    11  H    0.000196   0.000077  -0.000074   0.000576   0.000479  -0.000327
    12  H   -0.000022  -0.000104   0.000149   0.000315  -0.000327  -0.009803
    13  H    0.000015  -0.003792   0.001630   0.000028  -0.000025   0.000360
    14  H    0.000011  -0.000363   0.000067  -0.000002  -0.000004   0.000037
              13         14
     1  O    0.004856   0.002827
     2  C    0.015403   0.002449
     3  C    0.007915  -0.001383
     4  C   -0.000183   0.000516
     5  C   -0.038114  -0.008355
     6  H   -0.000035  -0.000006
     7  H    0.000015   0.000011
     8  H   -0.003792  -0.000363
     9  H    0.001630   0.000067
    10  H    0.000028  -0.000002
    11  H   -0.000025  -0.000004
    12  H    0.000360   0.000037
    13  H   -0.028340   0.001359
    14  H    0.001359  -0.001814
 Mulliken charges and spin densities:
               1          2
     1  O   -0.281012   0.070494
     2  C   -0.224387  -0.006835
     3  C   -0.301135  -0.027743
     4  C   -0.458613   0.023716
     5  C   -0.225517   0.962523
     6  H    0.144675  -0.001943
     7  H    0.181088  -0.001372
     8  H    0.161430   0.040280
     9  H    0.164706   0.000472
    10  H    0.132765  -0.003571
    11  H    0.133919  -0.000450
    12  H    0.145436  -0.011987
    13  H    0.161767  -0.038923
    14  H    0.264877  -0.004660
 Sum of Mulliken charges =  -0.00000   1.00000
 Mulliken charges and spin densities with hydrogens summed into heavy atoms:
               1          2
     1  O   -0.016135   0.065834
     2  C    0.101377  -0.010150
     3  C    0.025001   0.013009
     4  C   -0.046493   0.007707
     5  C   -0.063750   0.923600
 APT charges:
               1
     1  O   -0.789756
     2  C   -0.697205
     3  C   -0.835534
     4  C   -1.154865
     5  C   -0.450348
     6  H    0.471128
     7  H    0.320205
     8  H    0.397520
     9  H    0.401957
    10  H    0.364020
    11  H    0.512599
    12  H    0.228478
    13  H    0.503971
    14  H    0.727832
 Sum of APT charges =  -0.00000
 APT charges with hydrogens summed into heavy atoms:
               1
     1  O   -0.061924
     2  C    0.094127
     3  C   -0.036058
     4  C   -0.049769
     5  C    0.053623
 Electronic spatial extent (au):  <R**2>=            506.1092
 Charge=             -0.0000 electrons
 Dipole moment (field-independent basis, Debye):
    X=              0.9942    Y=              0.0192    Z=              0.8315  Tot=              1.2962
 Quadrupole moment (field-independent basis, Debye-Ang):
   XX=            -28.5989   YY=            -31.9981   ZZ=            -34.0932
   XY=             -2.5937   XZ=              2.4135   YZ=              0.0197
 Traceless Quadrupole moment (field-independent basis, Debye-Ang):
   XX=              2.9645   YY=             -0.4347   ZZ=             -2.5298
   XY=             -2.5937   XZ=              2.4135   YZ=              0.0197
 Octapole moment (field-independent basis, Debye-Ang**2):
  XXX=             23.6473  YYY=             -4.7780  ZZZ=             -1.9647  XYY=              6.6522
  XXY=             -9.2259  XXZ=              3.3824  XZZ=              2.0314  YZZ=              0.8741
  YYZ=             -0.6169  XYZ=             -1.4322
 Hexadecapole moment (field-independent basis, Debye-Ang**3):
 XXXX=           -372.7839 YYYY=           -155.6756 ZZZZ=           -108.2603 XXXY=            -33.0250
 XXXZ=              9.1518 YYYX=            -14.8045 YYYZ=              0.6896 ZZZX=             -1.1770
 ZZZY=              4.5254 XXYY=            -82.9444 XXZZ=            -87.5428 YYZZ=            -43.3040
 XXYZ=              0.8952 YYXZ=             -0.0969 ZZXY=             -1.4930
 N-N= 1.831052843314D+02 E-N=-9.093949148918D+02  KE= 2.320747635719D+02
  Exact polarizability:   0.000   0.000   0.000   0.000   0.000   0.000
 Approx polarizability:  61.175  -2.248  60.538   0.688   0.341  61.285
                          Isotropic Fermi Contact Couplings
        Atom                 a.u.       MegaHertz       Gauss      10(-4) cm-1
     1  O(17)              0.02810     -17.03559      -6.07872      -5.68246
     2  C(13)              0.02578      28.98255      10.34169       9.66754
     3  C(13)             -0.02274     -25.56794      -9.12328      -8.52855
     4  C(13)              0.00186       2.09440       0.74733       0.69862
     5  C(13)              0.20851     234.40781      83.64253      78.19003
     6  H(1)              -0.00066      -2.95111      -1.05303      -0.98439
     7  H(1)              -0.00041      -1.83860      -0.65606      -0.61329
     8  H(1)               0.02219      99.20828      35.39998      33.09232
     9  H(1)               0.00107       4.79188       1.70986       1.59840
    10  H(1)              -0.00013      -0.57217      -0.20416      -0.19085
    11  H(1)              -0.00011      -0.49403      -0.17628      -0.16479
    12  H(1)               0.00044       1.97692       0.70542       0.65943
    13  H(1)              -0.00797     -35.63269     -12.71463     -11.88579
    14  H(1)              -0.00182      -8.11518      -2.89570      -2.70693
 --------------------------------------------------------
       Center         ----  Spin Dipole Couplings  ----
                      3XX-RR        3YY-RR        3ZZ-RR
 --------------------------------------------------------
     1   Atom        0.059024      0.115677     -0.174701
     2   Atom        0.012754     -0.008993     -0.003761
     3   Atom       -0.000380      0.002764     -0.002384
     4   Atom        0.008002     -0.001930     -0.006072
     5   Atom       -0.061614      0.238673     -0.177060
     6   Atom        0.004284     -0.002509     -0.001775
     7   Atom        0.000827     -0.005427      0.004600
     8   Atom       -0.003250      0.004830     -0.001580
     9   Atom        0.003820      0.006957     -0.010777
    10   Atom        0.007451     -0.003963     -0.003489
    11   Atom        0.003693     -0.001533     -0.002160
    12   Atom        0.010526     -0.001231     -0.009296
    13   Atom       -0.001302     -0.026326      0.027628
    14   Atom        0.022396     -0.003147     -0.019249
 --------------------------------------------------------
                        XY            XZ            YZ
 --------------------------------------------------------
     1   Atom        0.449845     -0.288109     -0.358954
     2   Atom        0.010472      0.021767      0.007668
     3   Atom       -0.010946      0.009064     -0.011450
     4   Atom       -0.001807      0.005628     -0.004946
     5   Atom        0.590725     -0.389887     -0.511814
     6   Atom       -0.002651      0.004730     -0.001984
     7   Atom        0.000692      0.007450      0.002223
     8   Atom       -0.006989      0.004684     -0.010082
     9   Atom       -0.013880     -0.002537      0.000912
    10   Atom       -0.000025     -0.002015      0.000200
    11   Atom        0.002215      0.001768      0.000182
    12   Atom        0.009906      0.002165      0.000051
    13   Atom        0.042586      0.047989      0.003316
    14   Atom       -0.025443      0.002574     -0.005056
 --------------------------------------------------------


 ---------------------------------------------------------------------------------
              Anisotropic Spin Dipole Couplings in Principal Axis System
 ---------------------------------------------------------------------------------

       Atom             a.u.   MegaHertz   Gauss  10(-4) cm-1        Axes

              Baa    -0.4182    30.258    10.797    10.093 -0.1138  0.6186  0.7774
     1 O(17)  Bbb    -0.3448    24.948     8.902     8.322  0.7885 -0.4198  0.4495
              Bcc     0.7629   -55.206   -19.699   -18.415  0.6045  0.6641 -0.4400
 
              Baa    -0.0188    -2.523    -0.900    -0.842 -0.5536 -0.0584  0.8307
     2 C(13)  Bbb    -0.0131    -1.756    -0.627    -0.586 -0.2830  0.9514 -0.1217
              Bcc     0.0319     4.280     1.527     1.428  0.7832  0.3025  0.5432
 
              Baa    -0.0116    -1.552    -0.554    -0.518 -0.0915  0.5780  0.8109
     3 C(13)  Bbb    -0.0097    -1.300    -0.464    -0.434  0.8308  0.4932 -0.2578
              Bcc     0.0213     2.853     1.018     0.952 -0.5489  0.6502 -0.5253
 
              Baa    -0.0102    -1.368    -0.488    -0.456 -0.2190  0.4654  0.8576
     4 C(13)  Bbb    -0.0007    -0.096    -0.034    -0.032  0.4037  0.8434 -0.3546
              Bcc     0.0109     1.464     0.522     0.488  0.8883 -0.2686  0.3726
 
              Baa    -0.5252   -70.475   -25.147   -23.508 -0.4633  0.7119  0.5278
     5 C(13)  Bbb    -0.5134   -68.888   -24.581   -22.979  0.7019 -0.0688  0.7090
              Bcc     1.0386   139.364    49.728    46.487  0.5410  0.6989 -0.4678
 
              Baa    -0.0046    -2.433    -0.868    -0.812 -0.3422  0.3863  0.8565
     6 H(1)   Bbb    -0.0033    -1.785    -0.637    -0.595  0.4382  0.8720 -0.2182
              Bcc     0.0079     4.218     1.505     1.407  0.8312 -0.3007  0.4677
 
              Baa    -0.0062    -3.330    -1.188    -1.111  0.3582  0.8351 -0.4174
     7 H(1)   Bbb    -0.0045    -2.376    -0.848    -0.792  0.7127 -0.5334 -0.4555
              Bcc     0.0107     5.706     2.036     1.903  0.6031  0.1343  0.7863
 
              Baa    -0.0090    -4.804    -1.714    -1.602  0.1410  0.6287  0.7648
     8 H(1)   Bbb    -0.0069    -3.678    -1.312    -1.227  0.9047  0.2319 -0.3575
              Bcc     0.0159     8.482     3.026     2.829 -0.4021  0.7423 -0.5360
 
              Baa    -0.0115    -6.147    -2.193    -2.050  0.3446  0.2137  0.9141
     9 H(1)   Bbb    -0.0080    -4.280    -1.527    -1.428  0.6607  0.6365 -0.3979
              Bcc     0.0195    10.427     3.721     3.478 -0.6669  0.7411  0.0781
 
              Baa    -0.0041    -2.191    -0.782    -0.731 -0.1009  0.8019 -0.5888
    10 H(1)   Bbb    -0.0037    -1.977    -0.705    -0.659  0.1438  0.5974  0.7889
              Bcc     0.0078     4.167     1.487     1.390  0.9844 -0.0051 -0.1756
 
              Baa    -0.0029    -1.549    -0.553    -0.517 -0.3779  0.5076  0.7743
    11 H(1)   Bbb    -0.0020    -1.079    -0.385    -0.360 -0.1284  0.7995 -0.5868
              Bcc     0.0049     2.628     0.938     0.877  0.9169  0.3211  0.2370
 
              Baa    -0.0098    -5.227    -1.865    -1.743 -0.2236  0.2530  0.9413
    12 H(1)   Bbb    -0.0065    -3.475    -1.240    -1.159 -0.4429  0.8339 -0.3294
              Bcc     0.0163     8.702     3.105     2.903  0.8682  0.4906  0.0744
 
              Baa    -0.0670   -35.723   -12.747   -11.916 -0.6678  0.6743  0.3152
    13 H(1)   Bbb    -0.0052    -2.766    -0.987    -0.923  0.3841  0.6749 -0.6300
              Bcc     0.0721    38.489    13.734    12.838  0.6376  0.2997  0.7097
 
              Baa    -0.0222   -11.855    -4.230    -3.954  0.2936  0.5909  0.7514
    14 H(1)   Bbb    -0.0163    -8.687    -3.100    -2.898 -0.4454 -0.6109  0.6545
              Bcc     0.0385    20.542     7.330     6.852  0.8458 -0.5269  0.0838
 

 ---------------------------------------------------------------------------------

 No NMR shielding tensors so no spin-rotation constants.
 Leave Link  601 at Fri Mar 29 04:55:11 2019, MaxMem=   671088640 cpu:              62.8 elap:               4.0
 (Enter /shared/centos7/gaussian/g16/l701.exe)
 ... and contract with generalized density number  0.
 Compute integral second derivatives.
 Leave Link  701 at Fri Mar 29 04:55:13 2019, MaxMem=   671088640 cpu:              29.5 elap:               1.9
 (Enter /shared/centos7/gaussian/g16/l702.exe)
 L702 exits ... SP integral derivatives will be done elsewhere.
 Leave Link  702 at Fri Mar 29 04:55:13 2019, MaxMem=   671088640 cpu:               1.0 elap:               0.1
 (Enter /shared/centos7/gaussian/g16/l703.exe)
 Integral derivatives from FoFJK, PRISM(SPDF).
 Compute integral second derivatives, UseDBF=F ICtDFT=           0.
 Calling FoFJK, ICntrl=    100147 FMM=F ISym2X=0 I1Cent= 0 IOpClX= 1 NMat=1 NMatS=1 NMatT=0.
 FoFJK:  IHMeth= 1 ICntrl=  100147 DoSepK=F KAlg= 0 I1Cent=           0 FoldK=F
 IRaf=         0 NMat=       1 IRICut=       1 DoRegI=T DoRafI=F ISym2E= 0 IDoP0=0 IntGTp=1.
 FoFCou: FMM=F IPFlag=           0 FMFlag=      100000 FMFlg1=         800
         NFxFlg=           0 DoJE=F BraDBF=F KetDBF=F FulRan=T
         wScrn=  0.000000 ICntrl=    100147 IOpCl=  1 I1Cent=           0 NGrid=           0
         NMat0=    1 NMatS0=      1 NMatT0=    0 NMatD0=    1 NMtDS0=    0 NMtDT0=    0
 Symmetry not used in FoFCou.
 Leave Link  703 at Fri Mar 29 04:59:55 2019, MaxMem=   671088640 cpu:            4502.3 elap:             281.5
 (Enter /shared/centos7/gaussian/g16/l716.exe)
 Dipole        = 3.91148632D-01 7.54565512D-03 3.27138980D-01
 Polarizability= 0.00000000D+00 0.00000000D+00 0.00000000D+00
                 0.00000000D+00 0.00000000D+00 0.00000000D+00
 ***** Axes restored to original set *****
 -------------------------------------------------------------------
 Center     Atomic                   Forces (Hartrees/Bohr)
 Number     Number              X              Y              Z
 -------------------------------------------------------------------
      1        8           0.000000356   -0.000000383    0.000000935
      2        6           0.000000676   -0.000001013   -0.000000469
      3        6           0.000000119    0.000000060    0.000001679
      4        6          -0.000000375    0.000000196   -0.000002462
      5        6          -0.000000453    0.000000863    0.000001504
      6        1           0.000001134   -0.000001636   -0.000000172
      7        1           0.000001430   -0.000002151   -0.000000813
      8        1           0.000000917   -0.000000867    0.000003082
      9        1          -0.000000621    0.000001168    0.000002111
     10        1          -0.000001156    0.000001338   -0.000002122
     11        1           0.000000028   -0.000000593   -0.000003955
     12        1          -0.000000812    0.000000751   -0.000002826
     13        1          -0.000001192    0.000002059    0.000002571
     14        1          -0.000000050    0.000000208    0.000000936
 -------------------------------------------------------------------
 Cartesian Forces:  Max     0.000003955 RMS     0.000001462
 FormGI is forming the generalized inverse of G from B-inverse, IUseBI=4.
 Leave Link  716 at Fri Mar 29 04:59:55 2019, MaxMem=   671088640 cpu:               3.2 elap:               0.2
 (Enter /shared/centos7/gaussian/g16/l103.exe)

 GradGradGradGradGradGradGradGradGradGradGradGradGradGradGradGradGradGrad
 Berny optimization.
 Red2BG is reusing G-inverse.
 Internal  Forces:  Max     0.000000014 RMS     0.000000004
 Search for a local minimum.
 Step number   1 out of a maximum of   71 on scan point     1 out of    13
 All quantities printed in internal units (Hartrees-Bohrs-Radians)
 RMS Force = .35234D-08 SwitMx=.10000D-02 MixMth= 2
 Mixed Optimization -- En-DIIS/RFO-DIIS
 Second derivative matrix not updated -- analytic derivatives used.
 ITU=  0
     Eigenvalues ---    0.00172   0.00310   0.00580   0.01108   0.03179
     Eigenvalues ---    0.03661   0.03930   0.04137   0.04505   0.04565
     Eigenvalues ---    0.06522   0.07025   0.10117   0.10938   0.11758
     Eigenvalues ---    0.12122   0.13929   0.15510   0.15708   0.20089
     Eigenvalues ---    0.21319   0.22618   0.28783   0.31132   0.31396
     Eigenvalues ---    0.33413   0.33575   0.33848   0.34215   0.34456
     Eigenvalues ---    0.34983   0.35075   0.35503   0.44690   0.55270
     Eigenvalues --- 1000.000001000.000001000.000001000.000001000.00000
     Eigenvalues --- 1000.000001000.000001000.000001000.000001000.00000
     Eigenvalues --- 1000.000001000.000001000.000001000.000001000.00000
     Eigenvalues --- 1000.000001000.000001000.000001000.000001000.00000
     Eigenvalues --- 1000.000001000.000001000.000001000.000001000.00000
     Eigenvalues --- 1000.00000
 RFO step:  Lambda= 0.00000000D+00 EMin= 1.71651154D-03
 Linear search not attempted -- first point.
 Iteration  1 RMS(Cart)=  0.00000057 RMS(Int)=  0.00000000
 Iteration  1 RMS(Cart)=  0.00000000 RMS(Int)=  0.00000000
 ITry= 1 IFail=0 DXMaxC= 1.39D-06 DCOld= 1.00D+10 DXMaxT= 3.00D-01 DXLimC= 3.00D+00 Rises=F
 Variable       Old X    -DE/DX   Delta X   Delta X   Delta X     New X
                                 (Linear)    (Quad)   (Total)
    R1        2.58413   0.00000   0.00000   0.00000   0.00000   2.58413
    R2        1.81142  -0.00000   0.00000  -0.00000  -0.00000   1.81142
    R3        2.89791   0.00000   0.00000   0.00000   0.00000   2.89791
    R4        2.87984  -0.00000   0.00000  -0.00000  -0.00000   2.87984
    R5        2.06213  -0.00000   0.00000  -0.00000  -0.00000   2.06213
    R6        2.06137   0.00000   0.00000   0.00000   0.00000   2.06137
    R7        2.80500  -0.00000   0.00000   0.00000   0.00000   2.80500
    R8        2.07665  -0.00000   0.00000  -0.00000  -0.00000   2.07665
    R9        2.06371  -0.00000   0.00000  -0.00000  -0.00000   2.06371
   R10        2.06267  -0.00000   0.00000  -0.00000  -0.00000   2.06267
   R11        2.05871   0.00000   0.00000   0.00000   0.00000   2.05871
   R12        2.05973   0.00000   0.00000   0.00000   0.00000   2.05973
   R13        2.04685  -0.00000   0.00000  -0.00000  -0.00000   2.04685
    A1        1.92321   0.00000   0.00000   0.00000   0.00000   1.92321
    A2        1.96575  -0.00000   0.00000  -0.00000  -0.00000   1.96575
    A3        1.89599   0.00000   0.00000   0.00000   0.00000   1.89599
    A4        1.89891   0.00000   0.00000   0.00000   0.00000   1.89891
    A5        1.91996  -0.00000   0.00000  -0.00000  -0.00000   1.91996
    A6        1.91619   0.00000   0.00000   0.00000   0.00000   1.91619
    A7        1.86409  -0.00000   0.00000  -0.00000  -0.00000   1.86408
    A8        1.97272   0.00000   0.00000   0.00000   0.00000   1.97272
    A9        1.89806  -0.00000   0.00000   0.00000   0.00000   1.89806
   A10        1.91756  -0.00000   0.00000  -0.00000  -0.00000   1.91756
   A11        1.92051  -0.00000   0.00000  -0.00000  -0.00000   1.92051
   A12        1.88874   0.00000   0.00000   0.00000   0.00000   1.88874
   A13        1.86314   0.00000   0.00000   0.00000   0.00000   1.86314
   A14        1.93490  -0.00000   0.00000  -0.00000  -0.00000   1.93490
   A15        1.94299  -0.00000   0.00000   0.00000   0.00000   1.94299
   A16        1.93283   0.00000   0.00000   0.00000   0.00000   1.93283
   A17        1.88445   0.00000   0.00000  -0.00000  -0.00000   1.88445
   A18        1.87920   0.00000   0.00000  -0.00000  -0.00000   1.87920
   A19        1.88723   0.00000   0.00000   0.00000   0.00000   1.88723
   A20        1.99389  -0.00000   0.00000  -0.00000  -0.00000   1.99389
   A21        2.03935  -0.00000   0.00000  -0.00000  -0.00000   2.03935
   A22        2.12138   0.00000   0.00000  -0.00000  -0.00000   2.12138
    D1        3.08385  -0.00000   0.00000  -0.00000  -0.00000   3.08385
    D2        0.45584   0.00000   0.00000   0.00000   0.00000   0.45584
    D3        1.07006   0.00000   0.00000   0.00000   0.00000   1.07006
    D4       -3.07490   0.00000   0.00000   0.00000   0.00000  -3.07490
    D5       -1.04149   0.00000   0.00000   0.00000   0.00000  -1.04149
    D6       -3.08173   0.00000   0.00000   0.00000   0.00000  -3.08173
    D7       -0.94350   0.00000   0.00000   0.00000   0.00000  -0.94350
    D8        1.08990  -0.00000   0.00000   0.00000   0.00000   1.08990
    D9       -1.05860   0.00000   0.00000   0.00000   0.00000  -1.05860
   D10        1.07962   0.00000   0.00000   0.00000   0.00000   1.07962
   D11        3.11303  -0.00000   0.00000   0.00000   0.00000   3.11303
   D12        1.00743  -0.00000   0.00000   0.00000   0.00000   1.00743
   D13        3.10556  -0.00000   0.00000   0.00000   0.00000   3.10556
   D14       -1.07738   0.00000   0.00000   0.00000   0.00000  -1.07738
   D15       -1.11038  -0.00000   0.00000   0.00000   0.00000  -1.11038
   D16        0.98775  -0.00000   0.00000   0.00000   0.00000   0.98775
   D17        3.08800  -0.00000   0.00000   0.00000   0.00000   3.08800
   D18        3.12629   0.00000   0.00000   0.00000   0.00000   3.12630
   D19       -1.05877   0.00000   0.00000   0.00000   0.00000  -1.05877
   D20        1.04148   0.00000   0.00000   0.00000   0.00000   1.04148
   D21        0.97463   0.00000   0.00000   0.00000   0.00000   0.97463
   D22       -2.70722  -0.00000   0.00000   0.00000   0.00000  -2.70722
   D23       -1.15101   0.00000   0.00000   0.00000   0.00000  -1.15101
   D24        1.45032  -0.00000   0.00000   0.00000   0.00000   1.45032
   D25        3.10245   0.00000   0.00000   0.00000   0.00000   3.10245
   D26       -0.57940  -0.00000   0.00000   0.00000  -0.00000  -0.57940
         Item               Value     Threshold  Converged?
 Maximum Force            0.000000     0.000450     YES
 RMS     Force            0.000000     0.000300     YES
 Maximum Displacement     0.000001     0.001800     YES
 RMS     Displacement     0.000001     0.001200     YES
 Predicted change in Energy=-1.126796D-14
 Optimization completed.
    -- Stationary point found.
                           ----------------------------
                           !   Optimized Parameters   !
                           ! (Angstroms and Degrees)  !
 --------------------------                            --------------------------
 ! Name  Definition              Value          Derivative Info.                !
 --------------------------------------------------------------------------------
 ! R1    R(1,5)                  1.3675         -DE/DX =    0.0                 !
 ! R2    R(1,14)                 0.9586         -DE/DX =    0.0                 !
 ! R3    R(2,3)                  1.5335         -DE/DX =    0.0                 !
 ! R4    R(2,4)                  1.5239         -DE/DX =    0.0                 !
 ! R5    R(2,6)                  1.0912         -DE/DX =    0.0                 !
 ! R6    R(2,7)                  1.0908         -DE/DX =    0.0                 !
 ! R7    R(3,5)                  1.4843         -DE/DX =    0.0                 !
 ! R8    R(3,8)                  1.0989         -DE/DX =    0.0                 !
 ! R9    R(3,9)                  1.0921         -DE/DX =    0.0                 !
 ! R10   R(4,10)                 1.0915         -DE/DX =    0.0                 !
 ! R11   R(4,11)                 1.0894         -DE/DX =    0.0                 !
 ! R12   R(4,12)                 1.09           -DE/DX =    0.0                 !
 ! R13   R(5,13)                 1.0831         -DE/DX =    0.0                 !
 ! A1    A(5,1,14)             110.1919         -DE/DX =    0.0                 !
 ! A2    A(3,2,4)              112.6293         -DE/DX =    0.0                 !
 ! A3    A(3,2,6)              108.6324         -DE/DX =    0.0                 !
 ! A4    A(3,2,7)              108.7993         -DE/DX =    0.0                 !
 ! A5    A(4,2,6)              110.0053         -DE/DX =    0.0                 !
 ! A6    A(4,2,7)              109.7894         -DE/DX =    0.0                 !
 ! A7    A(6,2,7)              106.8042         -DE/DX =    0.0                 !
[...]
  Beta virt. eigenvalues --    0.90442   0.95982   0.99620   1.01417   1.03159
  Beta virt. eigenvalues --    1.05709   1.07586   1.10998   1.11496   1.13676
  Beta virt. eigenvalues --    1.14846   1.16757   1.19336   1.19793   1.21592
  Beta virt. eigenvalues --    1.24366   1.24872   1.27652   1.27915   1.29023
  Beta virt. eigenvalues --    1.31843   1.33248   1.35165   1.36930   1.38590
  Beta virt. eigenvalues --    1.39291   1.42205   1.42661   1.44162   1.45508
  Beta virt. eigenvalues --    1.47614   1.48361   1.50390   1.52990   1.54613
  Beta virt. eigenvalues --    1.55047   1.57624   1.59133   1.63522   1.64761
  Beta virt. eigenvalues --    1.65993   1.68818   1.71457   1.76910   1.80484
  Beta virt. eigenvalues --    1.91805   2.01597   2.16336   2.27734   2.34318
  Beta virt. eigenvalues --    2.41563   2.46092   2.49386   2.54041   2.58189
  Beta virt. eigenvalues --    2.61800   2.65417   2.69593   2.73091   2.78359
  Beta virt. eigenvalues --    2.80217   2.84164   2.85876   2.88483   2.91303
  Beta virt. eigenvalues --    2.94195   2.97307   2.98246   3.00528   3.03499
  Beta virt. eigenvalues --    3.08062   3.08997   3.10773   3.12113   3.17470
  Beta virt. eigenvalues --    3.18875   3.24259   3.27645   3.30231   3.31926
  Beta virt. eigenvalues --    3.32583   3.36093   3.37286   3.38229   3.40994
  Beta virt. eigenvalues --    3.42039   3.44162   3.47825   3.49722   3.51045
  Beta virt. eigenvalues --    3.57911   3.59537   3.61235   3.63844   3.64643
  Beta virt. eigenvalues --    3.67580   3.69222   3.71025   3.74797   3.77093
  Beta virt. eigenvalues --    3.80933   3.81855   3.87365   3.90370   3.91232
  Beta virt. eigenvalues --    3.96766   3.98760   4.00555   4.01950   4.03237
  Beta virt. eigenvalues --    4.03785   4.06190   4.09958   4.12406   4.18582
  Beta virt. eigenvalues --    4.19291   4.21325   4.23151   4.25314   4.26123
  Beta virt. eigenvalues --    4.29828   4.31383   4.31491   4.42103   4.44218
  Beta virt. eigenvalues --    4.46410   4.49016   4.51562   4.54682   4.57008
  Beta virt. eigenvalues --    4.58618   4.60500   4.66232   4.67133   4.72974
  Beta virt. eigenvalues --    4.73942   4.78553   5.04830   5.20096   5.21097
  Beta virt. eigenvalues --    5.24066   5.30250   5.36337   5.42975   5.45113
  Beta virt. eigenvalues --    5.51247   5.58997   5.61102   5.63783   5.67763
  Beta virt. eigenvalues --    5.68855   5.73667   5.81566   6.10186   6.60620
  Beta virt. eigenvalues --    6.95426   7.15597   7.19803   7.21126   7.56771
  Beta virt. eigenvalues --    7.64209  24.30560  24.33786  24.45885  24.54319
  Beta virt. eigenvalues --   50.13010
          Condensed to atoms (all electrons):
               1          2          3          4          5          6
     1  O    8.035384   0.065560  -0.081260  -0.030218   0.076456  -0.000726
     2  C    0.065560   5.634602  -0.103388   0.089257  -0.213532   0.424259
     3  C   -0.081260  -0.103388   5.541529  -0.018114   0.189954  -0.061312
     4  C   -0.030218   0.089257  -0.018114   5.217985   0.033371  -0.020456
     5  C    0.076456  -0.213532   0.189954   0.033371   5.847948   0.031748
     6  H   -0.000726   0.424259  -0.061312  -0.020456   0.031748   0.527366
     7  H   -0.005998   0.476571  -0.015454  -0.061656  -0.023942  -0.029360
     8  H   -0.004460  -0.080322   0.456157   0.009094  -0.030726  -0.002551
     9  H    0.007273  -0.000175   0.451299  -0.011686  -0.082871  -0.007228
    10  H    0.000538  -0.008733  -0.010222   0.407051  -0.010022  -0.007086
    11  H   -0.000613  -0.065226   0.027832   0.424662   0.003768  -0.004748
    12  H    0.001687  -0.017233  -0.027919   0.414848   0.002359   0.005592
    13  H   -0.032477   0.021778  -0.024819  -0.000194   0.393404  -0.000212
    14  H    0.249846   0.000964  -0.023139   0.004640   0.007632   0.000054
               7          8          9         10         11         12
     1  O   -0.005998  -0.004460   0.007273   0.000538  -0.000613   0.001687
     2  C    0.476571  -0.080322  -0.000175  -0.008733  -0.065226  -0.017233
     3  C   -0.015454   0.456157   0.451299  -0.010222   0.027832  -0.027919
     4  C   -0.061656   0.009094  -0.011686   0.407051   0.424662   0.414848
     5  C   -0.023942  -0.030726  -0.082871  -0.010022   0.003768   0.002359
     6  H   -0.029360  -0.002551  -0.007228  -0.007086  -0.004748   0.005592
     7  H    0.485399  -0.006141   0.004164   0.005137  -0.003316  -0.006380
     8  H   -0.006141   0.527018  -0.027127   0.000050  -0.000121  -0.000277
     9  H    0.004164  -0.027127   0.503838   0.000884  -0.000226  -0.000015
    10  H    0.005137   0.000050   0.000884   0.551389  -0.025572  -0.036147
    11  H   -0.003316  -0.000121  -0.000226  -0.025572   0.535246  -0.025614
    12  H   -0.006380  -0.000277  -0.000015  -0.036147  -0.025614   0.543821
    13  H   -0.000261  -0.002145  -0.002616  -0.000060   0.000009   0.000186
    14  H    0.000143   0.000076  -0.000192   0.000029   0.000007  -0.000329
              13         14
     1  O   -0.032477   0.249846
     2  C    0.021778   0.000964
     3  C   -0.024819  -0.023139
     4  C   -0.000194   0.004640
     5  C    0.393404   0.007632
     6  H   -0.000212   0.000054
     7  H   -0.000261   0.000143
     8  H   -0.002145   0.000076
     9  H   -0.002616  -0.000192
    10  H   -0.000060   0.000029
    11  H    0.000009   0.000007
    12  H    0.000186  -0.000329
    13  H    0.493074  -0.007421
    14  H   -0.007421   0.502808
          Atomic-Atomic Spin Densities.
               1          2          3          4          5          6
     1  O    0.261399   0.025928   0.003776   0.005163  -0.240917  -0.000149
     2  C    0.025928   0.286224  -0.118107  -0.001941  -0.181082  -0.007606
     3  C    0.003776  -0.118107   0.043290  -0.000412  -0.000694   0.006663
     4  C    0.005163  -0.001941  -0.000412   0.024057  -0.004045   0.000536
     5  C   -0.240917  -0.181082  -0.000694  -0.004045   1.470882   0.000862
     6  H   -0.000149  -0.007606   0.006663   0.000536   0.000862  -0.003589
     7  H    0.000051   0.004653  -0.007382  -0.001948   0.003056   0.000349
     8  H    0.004202  -0.065951   0.046044   0.003795  -0.001729   0.001687
     9  H    0.000691   0.024218  -0.008160  -0.002496  -0.018258  -0.000484
    10  H    0.000124   0.005153  -0.004422  -0.001994  -0.001109  -0.000017
    11  H   -0.000583  -0.006129   0.003648  -0.003433   0.004923   0.000222
    12  H    0.003133   0.009932   0.001490   0.006122  -0.022883  -0.000376
    13  H    0.004851   0.015419   0.007925  -0.000181  -0.038170  -0.000035
    14  H    0.002826   0.002451  -0.001385   0.000515  -0.008358  -0.000006
               7          8          9         10         11         12
     1  O    0.000051   0.004202   0.000691   0.000124  -0.000583   0.003133
     2  C    0.004653  -0.065951   0.024218   0.005153  -0.006129   0.009932
     3  C   -0.007382   0.046044  -0.008160  -0.004422   0.003648   0.001490
     4  C   -0.001948   0.003795  -0.002496  -0.001994  -0.003433   0.006122
     5  C    0.003056  -0.001729  -0.018258  -0.001109   0.004923  -0.022883
     6  H    0.000349   0.001687  -0.000484  -0.000017   0.000222  -0.000376
     7  H   -0.000447  -0.000101   0.000110   0.000083   0.000197  -0.000023
     8  H   -0.000101   0.060414  -0.003871  -0.000043   0.000077  -0.000104
     9  H    0.000110  -0.003871   0.006748   0.000195  -0.000073   0.000149
    10  H    0.000083  -0.000043   0.000195  -0.002455   0.000577   0.000315
    11  H    0.000197   0.000077  -0.000073   0.000577   0.000480  -0.000326
    12  H   -0.000023  -0.000104   0.000149   0.000315  -0.000326  -0.009836
    13  H    0.000015  -0.003796   0.001628   0.000028  -0.000025   0.000361
    14  H    0.000011  -0.000363   0.000067  -0.000002  -0.000004   0.000037
              13         14
     1  O    0.004851   0.002826
     2  C    0.015419   0.002451
     3  C    0.007925  -0.001385
     4  C   -0.000181   0.000515
     5  C   -0.038170  -0.008358
     6  H   -0.000035  -0.000006
     7  H    0.000015   0.000011
     8  H   -0.003796  -0.000363
     9  H    0.001628   0.000067
    10  H    0.000028  -0.000002
    11  H   -0.000025  -0.000004
    12  H    0.000361   0.000037
    13  H   -0.028247   0.001361
    14  H    0.001361  -0.001812
 Mulliken charges and spin densities:
               1          2
     1  O   -0.280992   0.070496
     2  C   -0.224382  -0.006839
     3  C   -0.301143  -0.027725
     4  C   -0.458584   0.023737
     5  C   -0.225547   0.962478
     6  H    0.144661  -0.001944
     7  H    0.181095  -0.001376
     8  H    0.161475   0.040261
     9  H    0.164678   0.000464
    10  H    0.132765  -0.003567
    11  H    0.133914  -0.000450
    12  H    0.145423  -0.012008
    13  H    0.161753  -0.038867
    14  H    0.264885  -0.004662
 Sum of Mulliken charges =  -0.00000   1.00000
 Mulliken charges and spin densities with hydrogens summed into heavy atoms:
               1          2
     1  O   -0.016107   0.065835
     2  C    0.101373  -0.010158
     3  C    0.025010   0.013000
     4  C   -0.046482   0.007712
     5  C   -0.063794   0.923612
 Electronic spatial extent (au):  <R**2>=            506.1211
 Charge=             -0.0000 electrons
 Dipole moment (field-independent basis, Debye):
    X=              0.9943    Y=              0.0191    Z=              0.8314  Tot=              1.2962
 Quadrupole moment (field-independent basis, Debye-Ang):
   XX=            -28.5996   YY=            -31.9975   ZZ=            -34.0933
   XY=             -2.5936   XZ=              2.4134   YZ=              0.0205
 Traceless Quadrupole moment (field-independent basis, Debye-Ang):
   XX=              2.9638   YY=             -0.4340   ZZ=             -2.5298
   XY=             -2.5936   XZ=              2.4134   YZ=              0.0205
 Octapole moment (field-independent basis, Debye-Ang**2):
  XXX=             23.6497  YYY=             -4.7756  ZZZ=             -1.9649  XYY=              6.6534
  XXY=             -9.2256  XXZ=              3.3809  XZZ=              2.0319  YZZ=              0.8745
  YYZ=             -0.6183  XYZ=             -1.4310
 Hexadecapole moment (field-independent basis, Debye-Ang**3):
 XXXX=           -372.8304 YYYY=           -155.6316 ZZZZ=           -108.2758 XXXY=            -33.0262
 XXXZ=              9.1459 YYYX=            -14.8000 YYYZ=              0.6915 ZZZX=             -1.1764
 ZZZY=              4.5259 XXYY=            -82.9413 XXZZ=            -87.5523 YYZZ=            -43.2977
 XXYZ=              0.8990 YYXZ=             -0.0980 ZZXY=             -1.4924
 N-N= 1.831058737792D+02 E-N=-9.093962041160D+02  KE= 2.320748748570D+02
                          Isotropic Fermi Contact Couplings
        Atom                 a.u.       MegaHertz       Gauss      10(-4) cm-1
     1  O(17)              0.02810     -17.03328      -6.07790      -5.68169
     2  C(13)              0.02579      28.99581      10.34643       9.67196
     3  C(13)             -0.02272     -25.53822      -9.11267      -8.51863
     4  C(13)              0.00187       2.10383       0.75070       0.70176
     5  C(13)              0.20870     234.62205      83.71898      78.26149
     6  H(1)              -0.00066      -2.95085      -1.05294      -0.98430
     7  H(1)              -0.00041      -1.83946      -0.65636      -0.61358
     8  H(1)               0.02218      99.15606      35.38135      33.07490
     9  H(1)               0.00107       4.76633       1.70075       1.58988
    10  H(1)              -0.00013      -0.57295      -0.20444      -0.19111
    11  H(1)              -0.00011      -0.49511      -0.17667      -0.16515
    12  H(1)               0.00044       1.97437       0.70450       0.65858
    13  H(1)              -0.00795     -35.53179     -12.67863     -11.85213
    14  H(1)              -0.00181      -8.11164      -2.89443      -2.70575
 --------------------------------------------------------
       Center         ----  Spin Dipole Couplings  ----
                      3XX-RR        3YY-RR        3ZZ-RR
 --------------------------------------------------------
     1   Atom        0.059067      0.115978     -0.175045
     2   Atom        0.012755     -0.008996     -0.003759
     3   Atom       -0.000388      0.002782     -0.002395
     4   Atom        0.008005     -0.001930     -0.006075
     5   Atom       -0.061614      0.239050     -0.177435
     6   Atom        0.004282     -0.002508     -0.001774
     7   Atom        0.000825     -0.005429      0.004604
     8   Atom       -0.003256      0.004831     -0.001575
     9   Atom        0.003812      0.006966     -0.010777
    10   Atom        0.007449     -0.003962     -0.003488
    11   Atom        0.003694     -0.001533     -0.002161
    12   Atom        0.010542     -0.001239     -0.009303
    13   Atom       -0.001324     -0.026301      0.027625
    14   Atom        0.022403     -0.003152     -0.019251
 --------------------------------------------------------
                        XY            XZ            YZ
 --------------------------------------------------------
     1   Atom        0.449954     -0.287859     -0.358740
     2   Atom        0.010474      0.021777      0.007669
     3   Atom       -0.010965      0.009077     -0.011461
     4   Atom       -0.001821      0.005638     -0.004955
     5   Atom        0.590797     -0.389607     -0.511592
     6   Atom       -0.002652      0.004731     -0.001986
     7   Atom        0.000691      0.007451      0.002223
     8   Atom       -0.006984      0.004679     -0.010084
     9   Atom       -0.013881     -0.002535      0.000909
    10   Atom       -0.000030     -0.002013      0.000201
    11   Atom        0.002215      0.001770      0.000183
    12   Atom        0.009908      0.002168      0.000046
    13   Atom        0.042579      0.047988      0.003336
    14   Atom       -0.025441      0.002566     -0.005051
 --------------------------------------------------------


 ---------------------------------------------------------------------------------
              Anisotropic Spin Dipole Couplings in Principal Axis System
 ---------------------------------------------------------------------------------

       Atom             a.u.   MegaHertz   Gauss  10(-4) cm-1        Axes

              Baa    -0.4181    30.254    10.795    10.092 -0.1139  0.6183  0.7776
     1 O(17)  Bbb    -0.3447    24.945     8.901     8.321  0.7884 -0.4200  0.4494
              Bcc     0.7629   -55.200   -19.697   -18.413  0.6045  0.6643 -0.4396
 
              Baa    -0.0188    -2.525    -0.901    -0.842 -0.5538 -0.0581  0.8306
     2 C(13)  Bbb    -0.0131    -1.757    -0.627    -0.586 -0.2828  0.9514 -0.1220
              Bcc     0.0319     4.281     1.528     1.428  0.7832  0.3024  0.5433
 
              Baa    -0.0116    -1.554    -0.554    -0.518 -0.0940  0.5761  0.8119
     3 C(13)  Bbb    -0.0097    -1.303    -0.465    -0.435  0.8306  0.4950 -0.2551
              Bcc     0.0213     2.857     1.019     0.953 -0.5489  0.6504 -0.5251
 
              Baa    -0.0102    -1.369    -0.489    -0.457 -0.2190  0.4654  0.8576
     4 C(13)  Bbb    -0.0007    -0.097    -0.035    -0.032  0.4047  0.8431 -0.3542
              Bcc     0.0109     1.466     0.523     0.489  0.8878 -0.2695  0.3730
 
              Baa    -0.5251   -70.466   -25.144   -23.505 -0.4631  0.7117  0.5282
     5 C(13)  Bbb    -0.5133   -68.880   -24.578   -22.976  0.7020 -0.0693  0.7088
              Bcc     1.0384   139.346    49.722    46.481  0.5410  0.6991 -0.4675
 
              Baa    -0.0046    -2.434    -0.868    -0.812 -0.3423  0.3865  0.8564
     6 H(1)   Bbb    -0.0033    -1.785    -0.637    -0.595  0.4385  0.8718 -0.2182
              Bcc     0.0079     4.218     1.505     1.407  0.8310 -0.3009  0.4679
 
              Baa    -0.0062    -3.331    -1.189    -1.111  0.3583  0.8352 -0.4173
     7 H(1)   Bbb    -0.0045    -2.376    -0.848    -0.793  0.7128 -0.5334 -0.4555
              Bcc     0.0107     5.707     2.036     1.904  0.6030  0.1343  0.7864
 
              Baa    -0.0090    -4.803    -1.714    -1.602  0.1421  0.6289  0.7644
     8 H(1)   Bbb    -0.0069    -3.677    -1.312    -1.226  0.9047  0.2309 -0.3581
              Bcc     0.0159     8.480     3.026     2.829 -0.4018  0.7424 -0.5362
 
              Baa    -0.0115    -6.147    -2.193    -2.050  0.3448  0.2139  0.9140
     9 H(1)   Bbb    -0.0080    -4.281    -1.527    -1.428  0.6609  0.6362 -0.3982
              Bcc     0.0195    10.428     3.721     3.478 -0.6666  0.7413  0.0780
 
              Baa    -0.0041    -2.190    -0.782    -0.731 -0.1004  0.8024 -0.5883
    10 H(1)   Bbb    -0.0037    -1.976    -0.705    -0.659  0.1440  0.5968  0.7894
              Bcc     0.0078     4.166     1.487     1.390  0.9845 -0.0055 -0.1755
 
              Baa    -0.0029    -1.550    -0.553    -0.517 -0.3781  0.5074  0.7743
    11 H(1)   Bbb    -0.0020    -1.079    -0.385    -0.360 -0.1282  0.7996 -0.5866
              Bcc     0.0049     2.629     0.938     0.877  0.9169  0.3211  0.2372
 
              Baa    -0.0098    -5.232    -1.867    -1.745 -0.2238  0.2538  0.9410
    12 H(1)   Bbb    -0.0065    -3.476    -1.240    -1.159 -0.4424  0.8339 -0.3301
              Bcc     0.0163     8.708     3.107     2.905  0.8684  0.4902  0.0744
 
              Baa    -0.0669   -35.713   -12.743   -11.913 -0.6680  0.6741  0.3152
    13 H(1)   Bbb    -0.0052    -2.773    -0.989    -0.925  0.3839  0.6751 -0.6300
              Bcc     0.0721    38.486    13.733    12.838  0.6375  0.2998  0.7098
 
              Baa    -0.0222   -11.855    -4.230    -3.954  0.2936  0.5908  0.7514
    14 H(1)   Bbb    -0.0163    -8.687    -3.100    -2.898 -0.4453 -0.6111  0.6545
              Bcc     0.0385    20.542     7.330     6.852  0.8459 -0.5268  0.0837
 

 ---------------------------------------------------------------------------------

 No NMR shielding tensors so no spin-rotation constants.
 Leave Link  601 at Fri Mar 29 09:20:15 2019, MaxMem=   671088640 cpu:              52.9 elap:               3.3
 (Enter /shared/centos7/gaussian/g16/l9999.exe)
 1\1\GINC-C2001\Scan\UM062X\6-311+G(2df,2p)\C4H9O1(2)\UNDERKOFFLER.C\29
 -Mar-2019\0\\#p m062x/6-311+g(2df,2p) Opt=(CalcFC,ModRedun)\\Gaussian 
 Input Prepared from Scan Object\\0,2\O,-1.5278992701,-1.0778553464,0.1
 972147281\C,1.1886930707,-0.022490634,0.4739822153\C,-0.0970606984,0.8
 087524342,0.5609823792\C,1.6919158506,-0.1762451653,-0.956221589\C,-1.
 2314662969,0.2026975236,-0.1799570499\H,1.9537170095,0.4531495192,1.08
 98473266\H,1.0014113682,-1.0059076669,0.9072565261\H,-0.3640253724,0.9
 367856517,1.6192490026\H,0.0789879216,1.8082519444,0.1576767564\H,1.87
 08503248,0.7991318557,-1.4123280904\H,2.624038259,-0.739141402,-0.9898
 718168\H,0.9578632506,-0.6986543301,-1.5696463343\H,-2.0509437093,0.80
 4937963,-0.552789968\H,-2.297850708,-1.3931993471,-0.2787850862\\Versi
 on=EM64L-G16RevA.03\State=2-A\HF=-232.9748975,-232.9741576,-232.974507
 3,-232.9737879,-232.971486,-232.9728566,-232.9739272,-232.974035,-232.
 9727314,-232.9733856,-232.9729112,-232.9717591,-232.9748975\S2=0.75449
 8,0.754846,0.754742,0.754626,0.754776,0.754835,0.754605,0.754486,0.754
 715,0.754741,0.754585,0.754562,0.754496\S2-1=0.,0.,0.,0.,0.,0.,0.,0.,0
 .,0.,0.,0.,0.\S2A=0.750016,0.750019,0.750018,0.750016,0.750018,0.75001
 9,0.750017,0.750016,0.750018,0.750018,0.750017,0.750016,0.750016\RMSD=
 4.170e-09,1.678e-09,7.069e-09,3.227e-09,5.891e-09,5.896e-09,4.844e-09,
 6.160e-09,7.182e-09,3.713e-09,5.003e-09,3.865e-09,4.921e-09\PG=C01 [X(
 C4H9O1)]\\@


 BLESSED ARE THOSE WHO NOUGHT EXPECT,
 FOR THEY SHALL NOT BE DISAPPOINTED..  WALCOT - ODE TO PITT
 Job cpu time:       3 days  1 hours 50 minutes 46.3 seconds.
 Elapsed time:       0 days  4 hours 37 minutes 34.7 seconds.
 File lengths (MBytes):  RWF=   1376 Int=      0 D2E=      0 Chk=     32 Scr=     32
 Normal termination of Gaussian 16 at Fri Mar 29 09:20:15 2019.
