 Entering Gaussian System, Link 0=g16
 Input=DHVSQGCGLGSLDF-UHFFFAOYSA-N_GeoFreq_c8_a1.com
 Output=DHVSQGCGLGSLDF-UHFFFAOYSA-N_GeoFreq_c8_a1.log
 Initial command:
 /shared/centos7/gaussian/g16/l1.exe "/scratch/underkoffler.c/gaussian_scratch/Gau-17703.inp" -scrdir="/scratch/underkoffler.c/gaussian_scratch/"
 Entering Link 1 = /shared/centos7/gaussian/g16/l1.exe PID=     17704.
  
 Copyright (c) 1988,1990,1992,1993,1995,1998,2003,2009,2016,
            Gaussian, Inc.  All Rights Reserved.
  
 This is part of the Gaussian(R) 16 program.  It is based on
 the Gaussian(R) 09 system (copyright 2009, Gaussian, Inc.),
 the Gaussian(R) 03 system (copyright 2003, Gaussian, Inc.),
 the Gaussian(R) 98 system (copyright 1998, Gaussian, Inc.),
 the Gaussian(R) 94 system (copyright 1995, Gaussian, Inc.),
 the Gaussian 92(TM) system (copyright 1992, Gaussian, Inc.),
 the Gaussian 90(TM) system (copyright 1990, Gaussian, Inc.),
 the Gaussian 88(TM) system (copyright 1988, Gaussian, Inc.),
 the Gaussian 86(TM) system (copyright 1986, Carnegie Mellon
 University), and the Gaussian 82(TM) system (copyright 1983,
 Carnegie Mellon University). Gaussian is a federally registered
 trademark of Gaussian, Inc.
  
 This software contains proprietary and confidential information,
 including trade secrets, belonging to Gaussian, Inc.
  
 This software is provided under written license and may be
 used, copied, transmitted, or stored only in accord with that
 written license.
  
 The following legend is applicable only to US Government
 contracts under FAR:
  
                    RESTRICTED RIGHTS LEGEND
  
 Use, reproduction and disclosure by the US Government is
 subject to restrictions as set forth in subparagraphs (a)
 and (c) of the Commercial Computer Software - Restricted
 Rights clause in FAR 52.227-19.
  
 Gaussian, Inc.
 340 Quinnipiac St., Bldg. 40, Wallingford CT 06492
  
  
 ---------------------------------------------------------------
 Warning -- This program may not be used in any manner that
 competes with the business of Gaussian, Inc. or will provide
 assistance to any competitor of Gaussian, Inc.  The licensee
 of this program is prohibited from giving any competitor of
 Gaussian, Inc. access to this program.  By using this program,
 the user acknowledges that Gaussian, Inc. is engaged in the
 business of creating and licensing software in the field of
 computational chemistry and represents and warrants to the
 licensee that it is not a competitor of Gaussian, Inc. and that
 it will not use this program in any manner prohibited above.
 ---------------------------------------------------------------
  

 Cite this work as:
 Gaussian 16, Revision A.03,
 M. J. Frisch, G. W. Trucks, H. B. Schlegel, G. E. Scuseria, 
 M. A. Robb, J. R. Cheeseman, G. Scalmani, V. Barone, 
 G. A. Petersson, H. Nakatsuji, X. Li, M. Caricato, A. V. Marenich, 
 J. Bloino, B. G. Janesko, R. Gomperts, B. Mennucci, H. P. Hratchian, 
 J. V. Ortiz, A. F. Izmaylov, J. L. Sonnenberg, D. Williams-Young, 
 F. Ding, F. Lipparini, F. Egidi, J. Goings, B. Peng, A. Petrone, 
 T. Henderson, D. Ranasinghe, V. G. Zakrzewski, J. Gao, N. Rega, 
 G. Zheng, W. Liang, M. Hada, M. Ehara, K. Toyota, R. Fukuda, 
 J. Hasegawa, M. Ishida, T. Nakajima, Y. Honda, O. Kitao, H. Nakai, 
 T. Vreven, K. Throssell, J. A. Montgomery, Jr., J. E. Peralta, 
 F. Ogliaro, M. J. Bearpark, J. J. Heyd, E. N. Brothers, K. N. Kudin, 
 V. N. Staroverov, T. A. Keith, R. Kobayashi, J. Normand, 
 K. Raghavachari, A. P. Rendell, J. C. Burant, S. S. Iyengar, 
 J. Tomasi, M. Cossi, J. M. Millam, M. Klene, C. Adamo, R. Cammi, 
 J. W. Ochterski, R. L. Martin, K. Morokuma, O. Farkas, 
 J. B. Foresman, and D. J. Fox, Gaussian, Inc., Wallingford CT, 2016.
 
 ******************************************
 Gaussian 16:  EM64L-G16RevA.03 25-Dec-2016
                 9-Apr-2019 
 ******************************************
 %nprocshared=20
 Will use up to   20 processors via shared memory.
 %mem=5GB
 ----------------------------------------------------------------------
 #p m062x/6-311+g(2df,2p) opt=(calcfc,verytight,gdiis,maxcycles=900) fr
 eq iop(7/33=1,2/16=3)
 ----------------------------------------------------------------------

 Warning!  Use of Opt=GDIIS is deprecated since it is seldom a good choice.

 1/6=900,7=1,10=4,18=20,19=11,26=3,38=1/1,3;
 2/9=110,12=2,16=3,17=6,18=5,40=1/2;
 3/5=4,6=6,7=214,11=2,25=1,30=1,71=2,74=-55,140=1/1,2,3;
 4//1;
 5/5=2,38=5/2;
 8/6=4,10=90,11=11/1;
 11/6=1,8=1,9=11,15=111,16=1/1,2,10;
 10/6=1,13=1/2;
 6/7=2,8=2,9=2,10=2,28=1/1;
 7/10=1,18=20,25=1,33=1/1,2,3,16;
 1/6=900,7=1,10=4,18=20,19=11,26=3/3(2);
 2/9=110,16=3/2;
 99//99;
 2/9=110,16=3/2;
 3/5=4,6=6,7=214,11=2,25=1,30=1,71=1,74=-55/1,2,3;
 4/5=5,16=3,69=1/1;
 5/5=2,38=5/2;
 7/33=1/1,2,3,16;
 1/6=900,7=1,18=20,19=11,26=3/3(-5);
 2/9=110,16=3/2;
 6/7=2,8=2,9=2,10=2,19=2,28=1/1;
 99/9=1/99;
 Leave Link    1 at Tue Apr  9 00:40:33 2019, MaxMem=   671088640 cpu:              27.7 elap:               1.5
 (Enter /shared/centos7/gaussian/g16/l101.exe)
 ------------------------------
 Gaussian input prepared by ASE
 ------------------------------
 Symbolic Z-matrix:
 Charge =  0 Multiplicity = 2
 O                     4.76214   13.27877   8.99277 
 C                     7.69312   11.96325   7.27563 
 C                     7.07163   12.923    8.28287 
 C                     8.11438   10.64741   7.86715 
 C                     5.68218   13.38315   7.96619 
 H                     6.98677   11.78004   6.45574 
 H                     8.56943   12.45426   6.8045 
 H                     7.73789   13.80982   8.37966 
 H                     7.04814   12.44211   9.2759 
 H                     7.55515   9.79654   7.41028 
 H                     9.19362   10.46146   7.70728 
 H                     7.92751   10.61229   8.96661 
 H                     5.57564   14.34527   7.45191 
 H                     5.06217   12.52495   9.57677 
 
 ITRead=  0  0  0  0  0  0  0  0  0  0  0  0  0  0
 MicOpt= -1 -1 -1 -1 -1 -1 -1 -1 -1 -1 -1 -1 -1 -1
 NAtoms=     14 NQM=       14 NQMF=       0 NMMI=      0 NMMIF=      0
                NMic=       0 NMicF=      0.
                    Isotopes and Nuclear Properties:
 (Nuclear quadrupole moments (NQMom) in fm**2, nuclear magnetic moments (NMagM)
  in nuclear magnetons)

  Atom         1           2           3           4           5           6           7           8           9          10
 IAtWgt=          16          12          12          12          12           1           1           1           1           1
 AtmWgt=  15.9949146  12.0000000  12.0000000  12.0000000  12.0000000   1.0078250   1.0078250   1.0078250   1.0078250   1.0078250
 NucSpn=           0           0           0           0           0           1           1           1           1           1
 AtZEff=  -0.0000000  -0.0000000  -0.0000000  -0.0000000  -0.0000000  -0.0000000  -0.0000000  -0.0000000  -0.0000000  -0.0000000
 NQMom=    0.0000000   0.0000000   0.0000000   0.0000000   0.0000000   0.0000000   0.0000000   0.0000000   0.0000000   0.0000000
 NMagM=    0.0000000   0.0000000   0.0000000   0.0000000   0.0000000   2.7928460   2.7928460   2.7928460   2.7928460   2.7928460
 AtZNuc=   8.0000000   6.0000000   6.0000000   6.0000000   6.0000000   1.0000000   1.0000000   1.0000000   1.0000000   1.0000000

  Atom        11          12          13          14
 IAtWgt=           1           1           1           1
 AtmWgt=   1.0078250   1.0078250   1.0078250   1.0078250
 NucSpn=           1           1           1           1
 AtZEff=  -0.0000000  -0.0000000  -0.0000000  -0.0000000
 NQMom=    0.0000000   0.0000000   0.0000000   0.0000000
 NMagM=    2.7928460   2.7928460   2.7928460   2.7928460
 AtZNuc=   1.0000000   1.0000000   1.0000000   1.0000000
 Leave Link  101 at Tue Apr  9 00:40:33 2019, MaxMem=   671088640 cpu:               6.3 elap:               0.3
 (Enter /shared/centos7/gaussian/g16/l103.exe)

 GradGradGradGradGradGradGradGradGradGradGradGradGradGradGradGradGradGrad
 Berny optimization.
 Initialization pass.
                           ----------------------------
                           !    Initial Parameters    !
                           ! (Angstroms and Degrees)  !
 --------------------------                            --------------------------
 ! Name  Definition              Value          Derivative Info.                !
 --------------------------------------------------------------------------------
 ! R1    R(1,5)                  1.3825         calculate D2E/DX2 analytically  !
 ! R2    R(1,14)                 0.9997         calculate D2E/DX2 analytically  !
 ! R3    R(2,3)                  1.5238         calculate D2E/DX2 analytically  !
 ! R4    R(2,4)                  1.5029         calculate D2E/DX2 analytically  !
 ! R5    R(2,6)                  1.0976         calculate D2E/DX2 analytically  !
 ! R6    R(2,7)                  1.1095         calculate D2E/DX2 analytically  !
 ! R7    R(3,5)                  1.4975         calculate D2E/DX2 analytically  !
 ! R8    R(3,8)                  1.1134         calculate D2E/DX2 analytically  !
 ! R9    R(3,9)                  1.1036         calculate D2E/DX2 analytically  !
 ! R10   R(4,10)                 1.116          calculate D2E/DX2 analytically  !
 ! R11   R(4,11)                 1.1067         calculate D2E/DX2 analytically  !
 ! R12   R(4,12)                 1.1158         calculate D2E/DX2 analytically  !
 ! R13   R(5,13)                 1.0961         calculate D2E/DX2 analytically  !
 ! A1    A(5,1,14)             106.9177         calculate D2E/DX2 analytically  !
 ! A2    A(3,2,4)              113.9292         calculate D2E/DX2 analytically  !
 ! A3    A(3,2,6)              109.6592         calculate D2E/DX2 analytically  !
 ! A4    A(3,2,7)              108.9103         calculate D2E/DX2 analytically  !
 ! A5    A(4,2,6)              109.1617         calculate D2E/DX2 analytically  !
 ! A6    A(4,2,7)              109.4638         calculate D2E/DX2 analytically  !
 ! A7    A(6,2,7)              105.3646         calculate D2E/DX2 analytically  !
 ! A8    A(2,3,5)              115.606          calculate D2E/DX2 analytically  !
 ! A9    A(2,3,8)              108.3649         calculate D2E/DX2 analytically  !
 ! A10   A(2,3,9)              109.2087         calculate D2E/DX2 analytically  !
 ! A11   A(5,3,8)              109.1987         calculate D2E/DX2 analytically  !
 ! A12   A(5,3,9)              107.7235         calculate D2E/DX2 analytically  !
 ! A13   A(8,3,9)              106.3549         calculate D2E/DX2 analytically  !
 ! A14   A(2,4,10)             111.4655         calculate D2E/DX2 analytically  !
 ! A15   A(2,4,11)             111.3196         calculate D2E/DX2 analytically  !
 ! A16   A(2,4,12)             111.6192         calculate D2E/DX2 analytically  !
 ! A17   A(10,4,11)            107.5426         calculate D2E/DX2 analytically  !
 ! A18   A(10,4,12)            107.1862         calculate D2E/DX2 analytically  !
 ! A19   A(11,4,12)            107.4794         calculate D2E/DX2 analytically  !
 ! A20   A(1,5,3)              115.9283         calculate D2E/DX2 analytically  !
 ! A21   A(1,5,13)             110.4859         calculate D2E/DX2 analytically  !
 ! A22   A(3,5,13)             117.3297         calculate D2E/DX2 analytically  !
 ! D1    D(14,1,5,3)           -27.8224         calculate D2E/DX2 analytically  !
 ! D2    D(14,1,5,13)         -164.4246         calculate D2E/DX2 analytically  !
 ! D3    D(4,2,3,5)           -122.018          calculate D2E/DX2 analytically  !
 ! D4    D(4,2,3,8)            115.0717         calculate D2E/DX2 analytically  !
 ! D5    D(4,2,3,9)             -0.3865         calculate D2E/DX2 analytically  !
 ! D6    D(6,2,3,5)              0.656          calculate D2E/DX2 analytically  !
 ! D7    D(6,2,3,8)           -122.2544         calculate D2E/DX2 analytically  !
 ! D8    D(6,2,3,9)            122.2874         calculate D2E/DX2 analytically  !
 ! D9    D(7,2,3,5)            115.4778         calculate D2E/DX2 analytically  !
 ! D10   D(7,2,3,8)             -7.4326         calculate D2E/DX2 analytically  !
 ! D11   D(7,2,3,9)           -122.8908         calculate D2E/DX2 analytically  !
 ! D12   D(3,2,4,10)           117.898          calculate D2E/DX2 analytically  !
 ! D13   D(3,2,4,11)          -122.0269         calculate D2E/DX2 analytically  !
 ! D14   D(3,2,4,12)            -1.9277         calculate D2E/DX2 analytically  !
 ! D15   D(6,2,4,10)            -5.0479         calculate D2E/DX2 analytically  !
 ! D16   D(6,2,4,11)           115.0272         calculate D2E/DX2 analytically  !
 ! D17   D(6,2,4,12)          -124.8735         calculate D2E/DX2 analytically  !
 ! D18   D(7,2,4,10)          -119.9019         calculate D2E/DX2 analytically  !
 ! D19   D(7,2,4,11)             0.1732         calculate D2E/DX2 analytically  !
 ! D20   D(7,2,4,12)           120.2725         calculate D2E/DX2 analytically  !
 ! D21   D(2,3,5,1)            130.411          calculate D2E/DX2 analytically  !
 ! D22   D(2,3,5,13)           -96.0143         calculate D2E/DX2 analytically  !
 ! D23   D(8,3,5,1)           -107.1205         calculate D2E/DX2 analytically  !
 ! D24   D(8,3,5,13)            26.4542         calculate D2E/DX2 analytically  !
 ! D25   D(9,3,5,1)              7.9866         calculate D2E/DX2 analytically  !
 ! D26   D(9,3,5,13)           141.5614         calculate D2E/DX2 analytically  !
 --------------------------------------------------------------------------------
 Trust Radius=3.00D-01 FncErr=1.00D-07 GrdErr=1.00D-06 EigMax=2.50D+02 EigMin=1.00D-04
 Number of steps in this run=    100 maximum allowed number of steps=    100.
 GradGradGradGradGradGradGradGradGradGradGradGradGradGradGradGradGradGrad

 Leave Link  103 at Tue Apr  9 00:40:33 2019, MaxMem=   671088640 cpu:               0.3 elap:               0.0
 (Enter /shared/centos7/gaussian/g16/l202.exe)
                          Input orientation:                          
 ---------------------------------------------------------------------
 Center     Atomic      Atomic             Coordinates (Angstroms)
 Number     Number       Type             X           Y           Z
 ---------------------------------------------------------------------
      1          8           0        4.762137   13.278773    8.992773
      2          6           0        7.693124   11.963246    7.275634
      3          6           0        7.071633   12.923002    8.282870
      4          6           0        8.114380   10.647407    7.867152
      5          6           0        5.682184   13.383153    7.966191
      6          1           0        6.986770   11.780036    6.455742
      7          1           0        8.569429   12.454256    6.804502
      8          1           0        7.737885   13.809816    8.379660
      9          1           0        7.048137   12.442107    9.275900
     10          1           0        7.555148    9.796537    7.410278
     11          1           0        9.193618   10.461458    7.707282
     12          1           0        7.927515   10.612287    8.966607
     13          1           0        5.575636   14.345267    7.451911
     14          1           0        5.062166   12.524952    9.576766
 ---------------------------------------------------------------------
                    Distance matrix (angstroms):
                    1          2          3          4          5
     1  O    0.000000
     2  C    3.642782   0.000000
     3  C    2.442193   1.523780   0.000000
     4  C    4.407794   1.502925   2.537415   0.000000
     5  C    1.382481   2.556733   1.497528   3.661925   0.000000
     6  H    3.692118   1.097599   2.156842   2.132236   2.559959
     7  H    4.468090   1.109489   2.156082   2.144994   3.247854
     8  H    3.084314   2.151905   1.113418   3.225716   2.139838
     9  H    2.450707   2.155545   1.103594   2.518410   2.113464
    10  H    4.736156   2.175269   3.281766   1.115999   4.084220
    11  H    5.406272   2.166373   3.300503   1.106747   4.575314
    12  H    4.138894   2.177020   2.557232   1.115774   3.704057
    13  H    2.042902   3.191997   2.225159   4.504643   1.096129
    14  H    0.999656   3.540150   2.422926   3.970386   1.927404
                    6          7          8          9         10
     6  H    0.000000
     7  H    1.755282   0.000000
     8  H    2.895797   2.238332   0.000000
     9  H    2.897480   2.902117   1.774719   0.000000
    10  H    2.273424   2.908470   4.132735   3.276682   0.000000
    11  H    2.859226   2.275053   3.712512   3.314607   1.793018
    12  H    2.924564   2.911975   3.256479   2.053584   1.796181
    13  H    3.092582   3.599702   2.413037   3.019472   4.960962
    14  H    3.741630   4.471168   3.200533   2.010339   4.284026
                   11         12         13         14
    11  H    0.000000
    12  H    1.792112   0.000000
    13  H    5.314035   4.664844   0.000000
    14  H    4.982155   3.498686   2.844681   0.000000
 Stoichiometry    C4H9O(2)
 Framework group  C1[X(C4H9O)]
 Deg. of freedom    36
 Full point group                 C1      NOp   1
 Largest Abelian subgroup         C1      NOp   1
 Largest concise Abelian subgroup C1      NOp   1
                         Standard orientation:                         
 ---------------------------------------------------------------------
 Center     Atomic      Atomic             Coordinates (Angstroms)
 Number     Number       Type             X           Y           Z
 ---------------------------------------------------------------------
      1          8           0       -2.240647   -0.586722   -0.096079
      2          6           0        1.217348    0.551737   -0.222758
      3          6           0       -0.091961    0.385121    0.538725
      4          6           0        2.166990   -0.602036   -0.062223
      5          6           0       -1.335968    0.439907   -0.293162
      6          1           0        1.007601    0.699915   -1.289891
      7          1           0        1.711684    1.486801    0.112282
      8          1           0       -0.142699    1.171331    1.325490
      9          1           0       -0.083762   -0.583539    1.067452
     10          1           0        2.372081   -1.101129   -1.039104
     11          1           0        3.137615   -0.269544    0.352779
     12          1           0        1.757075   -1.379244    0.625433
     13          1           0       -1.856209    1.402550   -0.357712
     14          1           0       -1.716667   -1.381736    0.208403
 ---------------------------------------------------------------------
 Rotational constants (GHZ):          12.3871631           2.3363490           2.1617268
 Leave Link  202 at Tue Apr  9 00:40:33 2019, MaxMem=   671088640 cpu:               0.3 elap:               0.0
 (Enter /shared/centos7/gaussian/g16/l301.exe)
 Standard basis: 6-311+G(2df,2p) (5D, 7F)
 Ernie: Thresh=  0.10000D-02 Tol=  0.10000D-05 Strict=F.
 There are   276 symmetry adapted cartesian basis functions of A   symmetry.
 There are   251 symmetry adapted basis functions of A   symmetry.
   251 basis functions,   359 primitive gaussians,   276 cartesian basis functions
    21 alpha electrons       20 beta electrons
       nuclear repulsion energy       177.4483871181 Hartrees.
 IExCor= 4336 DFT=T Ex+Corr=M062X ExCW=0 ScaHFX=  0.540000
 ScaDFX=  1.000000  1.000000  1.000000  1.000000 ScalE2=  1.000000  1.000000
 IRadAn=      5 IRanWt=     -1 IRanGd=            0 ICorTp=0 IEmpDi=  4
 NAtoms=   14 NActive=   14 NUniq=   14 SFac= 1.00D+00 NAtFMM=   60 NAOKFM=F Big=F
 Integral buffers will be    131072 words long.
 Raffenetti 2 integral format.
 Two-electron integral symmetry is turned on.
 Leave Link  301 at Tue Apr  9 00:40:33 2019, MaxMem=   671088640 cpu:               1.2 elap:               0.1
 (Enter /shared/centos7/gaussian/g16/l302.exe)
 NPDir=0 NMtPBC=     1 NCelOv=     1 NCel=       1 NClECP=     1 NCelD=      1
         NCelK=      1 NCelE2=     1 NClLst=     1 CellRange=     0.0.
 One-electron integrals computed using PRISM.
 One-electron integral symmetry used in STVInt
 NBasis=   251 RedAO= T EigKep=  5.33D-05  NBF=   251
 NBsUse=   251 1.00D-06 EigRej= -1.00D+00 NBFU=   251
 Precomputing XC quadrature grid using
 IXCGrd= 4 IRadAn=           5 IRanWt=          -1 IRanGd=           0 AccXCQ= 0.00D+00.
 Generated NRdTot=       0 NPtTot=           0 NUsed=           0 NTot=          32
 NSgBfM=   276   276   276   276   276 MxSgAt=    14 MxSgA2=    14.
 Leave Link  302 at Tue Apr  9 00:40:34 2019, MaxMem=   671088640 cpu:               8.0 elap:               0.4
 (Enter /shared/centos7/gaussian/g16/l303.exe)
 DipDrv:  MaxL=1.
 Leave Link  303 at Tue Apr  9 00:40:34 2019, MaxMem=   671088640 cpu:               0.8 elap:               0.1
 (Enter /shared/centos7/gaussian/g16/l401.exe)
 ExpMin= 4.38D-02 ExpMax= 8.59D+03 ExpMxC= 1.30D+03 IAcc=3 IRadAn=         5 AccDes= 0.00D+00
 Harris functional with IExCor= 1009 and IRadAn=       5 diagonalized for initial guess.
 HarFok:  IExCor= 1009 AccDes= 0.00D+00 IRadAn=         5 IDoV= 1 UseB2=F ITyADJ=14
 ICtDFT=  3500011 ScaDFX=  1.000000  1.000000  1.000000  1.000000
 FoFCou: FMM=F IPFlag=           0 FMFlag=      100000 FMFlg1=           0
         NFxFlg=           0 DoJE=T BraDBF=F KetDBF=T FulRan=T
         wScrn=  0.000000 ICntrl=       500 IOpCl=  0 I1Cent=   200000004 NGrid=           0
         NMat0=    1 NMatS0=      1 NMatT0=    0 NMatD0=    1 NMtDS0=    0 NMtDT0=    0
 Petite list used in FoFCou.
 Harris En= -232.887573242069    
 JPrj=0 DoOrth=F DoCkMO=F.
 Initial guess <Sx>= 0.0000 <Sy>= 0.0000 <Sz>= 0.5000 <S**2>= 0.7500 S= 0.5000
 Leave Link  401 at Tue Apr  9 00:40:35 2019, MaxMem=   671088640 cpu:              26.2 elap:               1.3
 (Enter /shared/centos7/gaussian/g16/l502.exe)
 Integral symmetry usage will be decided dynamically.
 UHF open shell SCF:
 Using DIIS extrapolation, IDIIS=  1040.
 NGot=   671088640 LenX=   670928170 LenY=   670851553
 Requested convergence on RMS density matrix=1.00D-08 within 128 cycles.
 Requested convergence on MAX density matrix=1.00D-06.
 Requested convergence on             energy=1.00D-06.
 No special actions if energy rises.
 Fock matrices will be formed incrementally for  20 cycles.

 Cycle   1  Pass 1  IDiag  1:
 FoFJK:  IHMeth= 1 ICntrl=       0 DoSepK=F KAlg= 0 I1Cent=           0 FoldK=F
 IRaf= 970000000 NMat=       1 IRICut=       1 DoRegI=T DoRafI=F ISym2E= 0 IDoP0=0 IntGTp=1.
 FoFCou: FMM=F IPFlag=           0 FMFlag=      100000 FMFlg1=           0
         NFxFlg=           0 DoJE=F BraDBF=F KetDBF=F FulRan=T
         wScrn=  0.000000 ICntrl=         0 IOpCl=  1 I1Cent=           0 NGrid=           0
         NMat0=    1 NMatS0=      1 NMatT0=    0 NMatD0=    1 NMtDS0=    0 NMtDT0=    0
 Symmetry not used in FoFCou.
 E= -232.754825068444    
 DIIS: error= 2.38D-02 at cycle   1 NSaved=   1.
 NSaved= 1 IEnMin= 1 EnMin= -232.754825068444     IErMin= 1 ErrMin= 2.38D-02
 ErrMax= 2.38D-02  0.00D+00 EMaxC= 1.00D-01 BMatC= 9.14D-01 BMatP= 9.14D-01
 IDIUse=3 WtCom= 7.62D-01 WtEn= 2.38D-01
 Coeff-Com:  0.100D+01
 Coeff-En:   0.100D+01
 Coeff:      0.100D+01
 Gap=     0.216 Goal=   None    Shift=    0.000
 Gap=     0.367 Goal=   None    Shift=    0.000
 GapD=    0.216 DampG=1.000 DampE=0.500 DampFc=0.5000 IDamp=-1.
 Damping current iteration by 5.00D-01
 RMSDP=3.28D-03 MaxDP=1.26D-01              OVMax= 1.65D-01

 Cycle   2  Pass 1  IDiag  1:
 RMSU=  1.62D-03    CP:  9.74D-01
 E= -232.854378530672     Delta-E=       -0.099553462228 Rises=F Damp=T
 DIIS: error= 5.29D-03 at cycle   2 NSaved=   2.
 NSaved= 2 IEnMin= 2 EnMin= -232.854378530672     IErMin= 2 ErrMin= 5.29D-03
 ErrMax= 5.29D-03  0.00D+00 EMaxC= 1.00D-01 BMatC= 5.37D-02 BMatP= 9.14D-01
 IDIUse=3 WtCom= 9.47D-01 WtEn= 5.29D-02
 Coeff-Com: -0.900D-01 0.109D+01
 Coeff-En:   0.000D+00 0.100D+01
 Coeff:     -0.852D-01 0.109D+01
 Gap=     0.249 Goal=   None    Shift=    0.000
 Gap=     0.403 Goal=   None    Shift=    0.000
 RMSDP=1.18D-03 MaxDP=7.59D-02 DE=-9.96D-02 OVMax= 8.44D-02

 Cycle   3  Pass 1  IDiag  1:
 RMSU=  1.12D-03    CP:  9.62D-01  7.88D-01
 E= -232.951136318624     Delta-E=       -0.096757787953 Rises=F Damp=F
 DIIS: error= 2.47D-03 at cycle   3 NSaved=   3.
 NSaved= 3 IEnMin= 3 EnMin= -232.951136318624     IErMin= 3 ErrMin= 2.47D-03
 ErrMax= 2.47D-03  0.00D+00 EMaxC= 1.00D-01 BMatC= 8.24D-03 BMatP= 5.37D-02
 IDIUse=3 WtCom= 9.75D-01 WtEn= 2.47D-02
 Coeff-Com: -0.707D-01 0.247D+00 0.823D+00
 Coeff-En:   0.000D+00 0.000D+00 0.100D+01
 Coeff:     -0.689D-01 0.241D+00 0.828D+00
 Gap=     0.252 Goal=   None    Shift=    0.000
 Gap=     0.364 Goal=   None    Shift=    0.000
 RMSDP=1.86D-04 MaxDP=8.57D-03 DE=-9.68D-02 OVMax= 1.36D-02

 Cycle   4  Pass 1  IDiag  1:
 RMSU=  1.74D-04    CP:  9.61D-01  8.17D-01  1.03D+00
 E= -232.952711266018     Delta-E=       -0.001574947394 Rises=F Damp=F
 DIIS: error= 8.68D-04 at cycle   4 NSaved=   4.
 NSaved= 4 IEnMin= 4 EnMin= -232.952711266018     IErMin= 4 ErrMin= 8.68D-04
 ErrMax= 8.68D-04  0.00D+00 EMaxC= 1.00D-01 BMatC= 1.62D-03 BMatP= 8.24D-03
 IDIUse=3 WtCom= 9.91D-01 WtEn= 8.68D-03
 Coeff-Com: -0.242D-01 0.542D-01 0.353D+00 0.617D+00
 Coeff-En:   0.000D+00 0.000D+00 0.000D+00 0.100D+01
 Coeff:     -0.240D-01 0.537D-01 0.350D+00 0.620D+00
 Gap=     0.248 Goal=   None    Shift=    0.000
 Gap=     0.366 Goal=   None    Shift=    0.000
 RMSDP=7.87D-05 MaxDP=3.85D-03 DE=-1.57D-03 OVMax= 1.02D-02

 Cycle   5  Pass 1  IDiag  1:
 RMSU=  7.72D-05    CP:  9.61D-01  8.22D-01  1.04D+00  9.59D-01
 E= -232.953079468845     Delta-E=       -0.000368202827 Rises=F Damp=F
 DIIS: error= 3.77D-04 at cycle   5 NSaved=   5.
 NSaved= 5 IEnMin= 5 EnMin= -232.953079468845     IErMin= 5 ErrMin= 3.77D-04
 ErrMax= 3.77D-04  0.00D+00 EMaxC= 1.00D-01 BMatC= 2.29D-04 BMatP= 1.62D-03
 IDIUse=3 WtCom= 9.96D-01 WtEn= 3.77D-03
 Coeff-Com: -0.889D-03-0.801D-02 0.267D-01 0.255D+00 0.727D+00
 Coeff-En:   0.000D+00 0.000D+00 0.000D+00 0.000D+00 0.100D+01
 Coeff:     -0.885D-03-0.798D-02 0.266D-01 0.254D+00 0.728D+00
 Gap=     0.249 Goal=   None    Shift=    0.000
 Gap=     0.366 Goal=   None    Shift=    0.000
 RMSDP=6.40D-05 MaxDP=5.56D-03 DE=-3.68D-04 OVMax= 3.13D-03

 Cycle   6  Pass 1  IDiag  1:
 RMSU=  4.29D-05    CP:  9.63D-01  8.27D-01  1.04D+00  1.15D+00  1.39D+00
 E= -232.953151804075     Delta-E=       -0.000072335230 Rises=F Damp=F
 DIIS: error= 1.33D-04 at cycle   6 NSaved=   6.
 NSaved= 6 IEnMin= 6 EnMin= -232.953151804075     IErMin= 6 ErrMin= 1.33D-04
 ErrMax= 1.33D-04  0.00D+00 EMaxC= 1.00D-01 BMatC= 3.05D-05 BMatP= 2.29D-04
 IDIUse=3 WtCom= 9.99D-01 WtEn= 1.33D-03
 Coeff-Com:  0.545D-02-0.143D-01-0.795D-01-0.650D-01 0.112D+00 0.104D+01
 Coeff-En:   0.000D+00 0.000D+00 0.000D+00 0.000D+00 0.000D+00 0.100D+01
 Coeff:      0.544D-02-0.143D-01-0.794D-01-0.649D-01 0.111D+00 0.104D+01
 Gap=     0.250 Goal=   None    Shift=    0.000
 Gap=     0.366 Goal=   None    Shift=    0.000
 RMSDP=4.06D-05 MaxDP=2.43D-03 DE=-7.23D-05 OVMax= 3.95D-03

 Cycle   7  Pass 1  IDiag  1:
 RMSU=  2.10D-05    CP:  9.63D-01  8.29D-01  1.03D+00  1.26D+00  1.65D+00
                    CP:  1.38D+00
 E= -232.953176278215     Delta-E=       -0.000024474140 Rises=F Damp=F
 DIIS: error= 5.98D-05 at cycle   7 NSaved=   7.
 NSaved= 7 IEnMin= 7 EnMin= -232.953176278215     IErMin= 7 ErrMin= 5.98D-05
 ErrMax= 5.98D-05  0.00D+00 EMaxC= 1.00D-01 BMatC= 8.70D-06 BMatP= 3.05D-05
 IDIUse=1 WtCom= 1.00D+00 WtEn= 0.00D+00
 Coeff-Com:  0.159D-02-0.231D-02-0.303D-01-0.680D-01-0.148D+00 0.372D+00
 Coeff-Com:  0.875D+00
 Coeff:      0.159D-02-0.231D-02-0.303D-01-0.680D-01-0.148D+00 0.372D+00
 Coeff:      0.875D+00
 Gap=     0.250 Goal=   None    Shift=    0.000
 Gap=     0.367 Goal=   None    Shift=    0.000
 RMSDP=2.54D-05 MaxDP=1.82D-03 DE=-2.45D-05 OVMax= 1.74D-03

 Cycle   8  Pass 1  IDiag  1:
 RMSU=  7.41D-06    CP:  9.64D-01  8.34D-01  1.02D+00  1.30D+00  1.79D+00
                    CP:  1.71D+00  1.36D+00
 E= -232.953181067202     Delta-E=       -0.000004788987 Rises=F Damp=F
 DIIS: error= 2.30D-05 at cycle   8 NSaved=   8.
 NSaved= 8 IEnMin= 8 EnMin= -232.953181067202     IErMin= 8 ErrMin= 2.30D-05
 ErrMax= 2.30D-05  0.00D+00 EMaxC= 1.00D-01 BMatC= 7.16D-07 BMatP= 8.70D-06
 IDIUse=1 WtCom= 1.00D+00 WtEn= 0.00D+00
 Coeff-Com: -0.715D-03 0.197D-02 0.761D-02 0.167D-02-0.471D-01-0.800D-01
 Coeff-Com:  0.120D+00 0.996D+00
 Coeff:     -0.715D-03 0.197D-02 0.761D-02 0.167D-02-0.471D-01-0.800D-01
 Coeff:      0.120D+00 0.996D+00
 Gap=     0.250 Goal=   None    Shift=    0.000
 Gap=     0.367 Goal=   None    Shift=    0.000
 RMSDP=8.38D-06 MaxDP=6.13D-04 DE=-4.79D-06 OVMax= 5.92D-04

 Cycle   9  Pass 1  IDiag  1:
 RMSU=  2.24D-06    CP:  9.64D-01  8.36D-01  1.02D+00  1.31D+00  1.81D+00
                    CP:  1.80D+00  1.54D+00  1.26D+00
 E= -232.953181548264     Delta-E=       -0.000000481062 Rises=F Damp=F
 DIIS: error= 7.50D-06 at cycle   9 NSaved=   9.
 NSaved= 9 IEnMin= 9 EnMin= -232.953181548264     IErMin= 9 ErrMin= 7.50D-06
 ErrMax= 7.50D-06  0.00D+00 EMaxC= 1.00D-01 BMatC= 8.61D-08 BMatP= 7.16D-07
 IDIUse=1 WtCom= 1.00D+00 WtEn= 0.00D+00
 Coeff-Com: -0.352D-03 0.699D-03 0.576D-02 0.111D-01 0.136D-01-0.643D-01
 Coeff-Com: -0.120D+00 0.157D+00 0.996D+00
 Coeff:     -0.352D-03 0.699D-03 0.576D-02 0.111D-01 0.136D-01-0.643D-01
 Coeff:     -0.120D+00 0.157D+00 0.996D+00
 Gap=     0.250 Goal=   None    Shift=    0.000
 Gap=     0.367 Goal=   None    Shift=    0.000
 RMSDP=3.38D-06 MaxDP=2.49D-04 DE=-4.81D-07 OVMax= 1.76D-04

 Cycle  10  Pass 1  IDiag  1:
 RMSU=  9.85D-07    CP:  9.64D-01  8.37D-01  1.02D+00  1.31D+00  1.81D+00
                    CP:  1.83D+00  1.58D+00  1.45D+00  1.21D+00
 E= -232.953181601284     Delta-E=       -0.000000053020 Rises=F Damp=F
 DIIS: error= 2.05D-06 at cycle  10 NSaved=  10.
 NSaved=10 IEnMin=10 EnMin= -232.953181601284     IErMin=10 ErrMin= 2.05D-06
 ErrMax= 2.05D-06  0.00D+00 EMaxC= 1.00D-01 BMatC= 5.01D-09 BMatP= 8.61D-08
 IDIUse=1 WtCom= 1.00D+00 WtEn= 0.00D+00
 Coeff-Com:  0.103D-03-0.226D-03-0.114D-02-0.104D-02 0.130D-02 0.124D-01
 Coeff-Com:  0.489D-02-0.891D-01-0.871D-01 0.116D+01
 Coeff:      0.103D-03-0.226D-03-0.114D-02-0.104D-02 0.130D-02 0.124D-01
 Coeff:      0.489D-02-0.891D-01-0.871D-01 0.116D+01
 Gap=     0.250 Goal=   None    Shift=    0.000
 Gap=     0.367 Goal=   None    Shift=    0.000
 RMSDP=6.34D-07 MaxDP=7.15D-05 DE=-5.30D-08 OVMax= 3.68D-05

 Cycle  11  Pass 1  IDiag  1:
 RMSU=  2.10D-07    CP:  9.64D-01  8.37D-01  1.02D+00  1.31D+00  1.82D+00
                    CP:  1.83D+00  1.58D+00  1.47D+00  1.32D+00  1.40D+00
 E= -232.953181604789     Delta-E=       -0.000000003505 Rises=F Damp=F
 DIIS: error= 8.58D-07 at cycle  11 NSaved=  11.
 NSaved=11 IEnMin=11 EnMin= -232.953181604789     IErMin=11 ErrMin= 8.58D-07
 ErrMax= 8.58D-07  0.00D+00 EMaxC= 1.00D-01 BMatC= 9.27D-10 BMatP= 5.01D-09
 IDIUse=1 WtCom= 1.00D+00 WtEn= 0.00D+00
 Coeff-Com:  0.541D-04-0.117D-03-0.778D-03-0.113D-02-0.770D-03 0.852D-02
 Coeff-Com:  0.111D-01-0.382D-01-0.111D+00 0.309D+00 0.823D+00
 Coeff:      0.541D-04-0.117D-03-0.778D-03-0.113D-02-0.770D-03 0.852D-02
 Coeff:      0.111D-01-0.382D-01-0.111D+00 0.309D+00 0.823D+00
 Gap=     0.250 Goal=   None    Shift=    0.000
 Gap=     0.367 Goal=   None    Shift=    0.000
 RMSDP=1.61D-07 MaxDP=1.80D-05 DE=-3.50D-09 OVMax= 8.43D-06

 Cycle  12  Pass 1  IDiag  1:
 RMSU=  7.28D-08    CP:  9.64D-01  8.37D-01  1.02D+00  1.31D+00  1.82D+00
                    CP:  1.83D+00  1.57D+00  1.47D+00  1.34D+00  1.49D+00
                    CP:  1.16D+00
 E= -232.953181605167     Delta-E=       -0.000000000378 Rises=F Damp=F
 DIIS: error= 2.96D-07 at cycle  12 NSaved=  12.
 NSaved=12 IEnMin=12 EnMin= -232.953181605167     IErMin=12 ErrMin= 2.96D-07
 ErrMax= 2.96D-07  0.00D+00 EMaxC= 1.00D-01 BMatC= 1.63D-10 BMatP= 9.27D-10
 IDIUse=1 WtCom= 1.00D+00 WtEn= 0.00D+00
 Coeff-Com: -0.582D-05 0.112D-04-0.416D-05-0.735D-04-0.344D-03 0.109D-03
 Coeff-Com:  0.183D-02 0.466D-02-0.150D-01-0.116D+00 0.246D+00 0.880D+00
 Coeff:     -0.582D-05 0.112D-04-0.416D-05-0.735D-04-0.344D-03 0.109D-03
 Coeff:      0.183D-02 0.466D-02-0.150D-01-0.116D+00 0.246D+00 0.880D+00
 Gap=     0.250 Goal=   None    Shift=    0.000
 Gap=     0.367 Goal=   None    Shift=    0.000
 RMSDP=5.59D-08 MaxDP=3.16D-06 DE=-3.78D-10 OVMax= 3.76D-06

 Cycle  13  Pass 1  IDiag  1:
 RMSU=  3.16D-08    CP:  9.64D-01  8.37D-01  1.02D+00  1.31D+00  1.82D+00
                    CP:  1.83D+00  1.57D+00  1.48D+00  1.34D+00  1.51D+00
                    CP:  1.29D+00  1.22D+00
 E= -232.953181605236     Delta-E=       -0.000000000069 Rises=F Damp=F
 DIIS: error= 8.82D-08 at cycle  13 NSaved=  13.
 NSaved=13 IEnMin=13 EnMin= -232.953181605236     IErMin=13 ErrMin= 8.82D-08
 ErrMax= 8.82D-08  0.00D+00 EMaxC= 1.00D-01 BMatC= 1.04D-11 BMatP= 1.63D-10
 IDIUse=1 WtCom= 1.00D+00 WtEn= 0.00D+00
 Coeff-Com: -0.521D-05 0.111D-04 0.599D-04 0.724D-04 0.112D-04-0.653D-03
 Coeff-Com: -0.534D-03 0.378D-02 0.718D-02-0.432D-01-0.448D-01 0.124D+00
 Coeff-Com:  0.955D+00
 Coeff:     -0.521D-05 0.111D-04 0.599D-04 0.724D-04 0.112D-04-0.653D-03
 Coeff:     -0.534D-03 0.378D-02 0.718D-02-0.432D-01-0.448D-01 0.124D+00
 Coeff:      0.955D+00
 Gap=     0.250 Goal=   None    Shift=    0.000
 Gap=     0.367 Goal=   None    Shift=    0.000
 RMSDP=1.58D-08 MaxDP=5.60D-07 DE=-6.88D-11 OVMax= 1.17D-06

 Cycle  14  Pass 1  IDiag  1:
 RMSU=  8.73D-09    CP:  9.64D-01  8.37D-01  1.02D+00  1.31D+00  1.82D+00
                    CP:  1.83D+00  1.57D+00  1.48D+00  1.34D+00  1.52D+00
                    CP:  1.32D+00  1.33D+00  1.19D+00
 E= -232.953181605239     Delta-E=       -0.000000000004 Rises=F Damp=F
 DIIS: error= 2.44D-08 at cycle  14 NSaved=  14.
 NSaved=14 IEnMin=14 EnMin= -232.953181605239     IErMin=14 ErrMin= 2.44D-08
 ErrMax= 2.44D-08  0.00D+00 EMaxC= 1.00D-01 BMatC= 1.04D-12 BMatP= 1.04D-11
 IDIUse=1 WtCom= 1.00D+00 WtEn= 0.00D+00
 Coeff-Com:  0.496D-06-0.678D-06 0.259D-05 0.486D-05 0.198D-04-0.312D-04
 Coeff-Com: -0.155D-03-0.224D-03 0.194D-02 0.899D-02-0.324D-01-0.893D-01
 Coeff-Com:  0.861D-01 0.103D+01
 Coeff:      0.496D-06-0.678D-06 0.259D-05 0.486D-05 0.198D-04-0.312D-04
 Coeff:     -0.155D-03-0.224D-03 0.194D-02 0.899D-02-0.324D-01-0.893D-01
 Coeff:      0.861D-01 0.103D+01
 Gap=     0.250 Goal=   None    Shift=    0.000
 Gap=     0.367 Goal=   None    Shift=    0.000
 RMSDP=5.78D-09 MaxDP=2.06D-07 DE=-3.64D-12 OVMax= 3.71D-07

 SCF Done:  E(UM062X) =  -232.953181605     A.U. after   14 cycles
            NFock= 14  Conv=0.58D-08     -V/T= 2.0044
 <Sx>= 0.0000 <Sy>= 0.0000 <Sz>= 0.5000 <S**2>= 0.7546 S= 0.5023
 <L.S>= 0.000000000000E+00
 KE= 2.319214986421D+02 PE=-8.977157485653D+02 EE= 2.553926812000D+02
 Annihilation of the first spin contaminant:
 S**2 before annihilation     0.7546,   after     0.7500
 Leave Link  502 at Tue Apr  9 00:41:54 2019, MaxMem=   671088640 cpu:            1587.2 elap:              79.4
 (Enter /shared/centos7/gaussian/g16/l801.exe)
 DoSCS=F DFT=T ScalE2(SS,OS)=  1.000000  1.000000
 Range of M.O.s used for correlation:     1   251
 NBasis=   251 NAE=    21 NBE=    20 NFC=     0 NFV=     0
 NROrb=    251 NOA=    21 NOB=    20 NVA=   230 NVB=   231

 **** Warning!!: The largest alpha MO coefficient is  0.44509525D+02


 **** Warning!!: The largest beta MO coefficient is  0.45243815D+02

 Leave Link  801 at Tue Apr  9 00:41:55 2019, MaxMem=   671088640 cpu:               0.5 elap:               0.1
 (Enter /shared/centos7/gaussian/g16/l1101.exe)
 Using compressed storage, NAtomX=    14.
 Will process     15 centers per pass.
 Leave Link 1101 at Tue Apr  9 00:41:55 2019, MaxMem=   671088640 cpu:              10.1 elap:               0.6
 (Enter /shared/centos7/gaussian/g16/l1102.exe)
 Symmetrizing basis deriv contribution to polar:
 IMax=3 JMax=2 DiffMx= 0.00D+00
 Leave Link 1102 at Tue Apr  9 00:41:55 2019, MaxMem=   671088640 cpu:               0.7 elap:               0.1
 (Enter /shared/centos7/gaussian/g16/l1110.exe)
 Forming Gx(P) for the SCF density, NAtomX=    14.
 Integral derivatives from FoFJK, PRISM(SPDF).
 Do as many integral derivatives as possible in FoFJK.
 G2DrvN: MDV=     671087496.
 G2DrvN: will do    15 centers at a time, making    1 passes.
 Calling FoFCou, ICntrl=  3107 FMM=F I1Cent=   0 AccDes= 0.00D+00.
 FoFJK:  IHMeth= 1 ICntrl=    3107 DoSepK=F KAlg= 0 I1Cent=           0 FoldK=F
 IRaf=         0 NMat=       1 IRICut=       1 DoRegI=T DoRafI=F ISym2E= 0 IDoP0=0 IntGTp=1.
 FoFCou: FMM=F IPFlag=           0 FMFlag=      100000 FMFlg1=           0
         NFxFlg=           0 DoJE=F BraDBF=F KetDBF=F FulRan=T
         wScrn=  0.000000 ICntrl=      3107 IOpCl=  1 I1Cent=           0 NGrid=           0
         NMat0=    1 NMatS0=      1 NMatT0=    0 NMatD0=    1 NMtDS0=    0 NMtDT0=    0
 Symmetry not used in FoFCou.
 End of G2Drv F.D. properties file   721 does not exist.
 End of G2Drv F.D. properties file   722 does not exist.
 End of G2Drv F.D. properties file   788 does not exist.
 Leave Link 1110 at Tue Apr  9 00:44:25 2019, MaxMem=   671088640 cpu:            2989.6 elap:             149.5
 (Enter /shared/centos7/gaussian/g16/l1002.exe)
 Minotr:  UHF open shell wavefunction.
          IDoAtm=11111111111111
          Direct CPHF calculation.
          Differentiating once with respect to nuclear coordinates.
          Requested convergence is 1.0D-08 RMS, and 1.0D-07 maximum.
          Secondary convergence is 1.0D-12 RMS, and 1.0D-12 maximum.
          NewPWx=T KeepS1=F KeepF1=F KeepIn=T MapXYZ=F SortEE=F KeepMc=T.
         4264 words used for storage of precomputed grid.
 Two-electron integrals replicated using symmetry.
          MDV=     671088640 using IRadAn=       1.
          Solving linear equations simultaneously, MaxMat=     380.
 FoF2E skips out because all densities are zero.
 CalDSu exits because no D1Ps are significant.
 FoFJK:  IHMeth= 1 ICntrl=       0 DoSepK=F KAlg= 0 I1Cent=           0 FoldK=F
 IRaf= 970000000 NMat=      42 IRICut=     105 DoRegI=T DoRafI=T ISym2E= 2 IDoP0=3 IntGTp=3.
 FoFCou: FMM=F IPFlag=           0 FMFlag=      100000 FMFlg1=           0
         NFxFlg=           0 DoJE=F BraDBF=F KetDBF=F FulRan=T
         wScrn=  0.000000 ICntrl=         0 IOpCl=  1 I1Cent=           0 NGrid=           0
         NMat0=   42 NMatS0=     42 NMatT0=    0 NMatD0=   42 NMtDS0=    0 NMtDT0=    0
 Integrals replicated using symmetry in FoFCou.
 Raff kept on since  95.24% of shell-pairs survive, threshold=   0.20 IRatSp=95.
          There are    45 degrees of freedom in the 1st order CPHF.  IDoFFX=6 NUNeed=     0.
     39 vectors produced by pass  0 Test12= 2.10D-14 2.22D-09 XBig12= 1.22D-01 5.84D-02.
 AX will form    39 AO Fock derivatives at one time.
     39 vectors produced by pass  1 Test12= 2.10D-14 2.22D-09 XBig12= 9.56D-03 2.32D-02.
     39 vectors produced by pass  2 Test12= 2.10D-14 2.22D-09 XBig12= 6.92D-04 5.48D-03.
     39 vectors produced by pass  3 Test12= 2.10D-14 2.22D-09 XBig12= 1.43D-05 4.05D-04.
     39 vectors produced by pass  4 Test12= 2.10D-14 2.22D-09 XBig12= 1.68D-07 4.92D-05.
     39 vectors produced by pass  5 Test12= 2.10D-14 2.22D-09 XBig12= 2.21D-09 4.24D-06.
     35 vectors produced by pass  6 Test12= 2.10D-14 2.22D-09 XBig12= 1.98D-11 3.94D-07.
     13 vectors produced by pass  7 Test12= 2.10D-14 2.22D-09 XBig12= 1.17D-13 2.77D-08.
 InvSVY:  IOpt=1 It=  1 EMax= 2.22D-15
 Solved reduced A of dimension   282 with    39 vectors.
 End of Minotr F.D. properties file   721 does not exist.
 End of Minotr F.D. properties file   722 does not exist.
 End of Minotr F.D. properties file   788 does not exist.
 Leave Link 1002 at Tue Apr  9 00:48:25 2019, MaxMem=   671088640 cpu:            4796.1 elap:             239.9
 (Enter /shared/centos7/gaussian/g16/l601.exe)
 Copying SCF densities to generalized density rwf, IOpCl= 1 IROHF=0.

 **********************************************************************

            Population analysis using the SCF density.

 **********************************************************************

 Orbital symmetries:
 Alpha Orbitals:
       Occupied  (A) (A) (A) (A) (A) (A) (A) (A) (A) (A) (A) (A)
                 (A) (A) (A) (A) (A) (A) (A) (A) (A)
       Virtual   (A) (A) (A) (A) (A) (A) (A) (A) (A) (A) (A) (A)
                 (A) (A) (A) (A) (A) (A) (A) (A) (A) (A) (A) (A)
                 (A) (A) (A) (A) (A) (A) (A) (A) (A) (A) (A) (A)
                 (A) (A) (A) (A) (A) (A) (A) (A) (A) (A) (A) (A)
                 (A) (A) (A) (A) (A) (A) (A) (A) (A) (A) (A) (A)
                 (A) (A) (A) (A) (A) (A) (A) (A) (A) (A) (A) (A)
                 (A) (A) (A) (A) (A) (A) (A) (A) (A) (A) (A) (A)
                 (A) (A) (A) (A) (A) (A) (A) (A) (A) (A) (A) (A)
                 (A) (A) (A) (A) (A) (A) (A) (A) (A) (A) (A) (A)
                 (A) (A) (A) (A) (A) (A) (A) (A) (A) (A) (A) (A)
                 (A) (A) (A) (A) (A) (A) (A) (A) (A) (A) (A) (A)
                 (A) (A) (A) (A) (A) (A) (A) (A) (A) (A) (A) (A)
                 (A) (A) (A) (A) (A) (A) (A) (A) (A) (A) (A) (A)
                 (A) (A) (A) (A) (A) (A) (A) (A) (A) (A) (A) (A)
                 (A) (A) (A) (A) (A) (A) (A) (A) (A) (A) (A) (A)
                 (A) (A) (A) (A) (A) (A) (A) (A) (A) (A) (A) (A)
                 (A) (A) (A) (A) (A) (A) (A) (A) (A) (A) (A) (A)
                 (A) (A) (A) (A) (A) (A) (A) (A) (A) (A) (A) (A)
                 (A) (A) (A) (A) (A) (A) (A) (A) (A) (A) (A) (A)
                 (A) (A)
 Beta  Orbitals:
       Occupied  (A) (A) (A) (A) (A) (A) (A) (A) (A) (A) (A) (A)
                 (A) (A) (A) (A) (A) (A) (A) (A)
       Virtual   (A) (A) (A) (A) (A) (A) (A) (A) (A) (A) (A) (A)
                 (A) (A) (A) (A) (A) (A) (A) (A) (A) (A) (A) (A)
                 (A) (A) (A) (A) (A) (A) (A) (A) (A) (A) (A) (A)
                 (A) (A) (A) (A) (A) (A) (A) (A) (A) (A) (A) (A)
                 (A) (A) (A) (A) (A) (A) (A) (A) (A) (A) (A) (A)
                 (A) (A) (A) (A) (A) (A) (A) (A) (A) (A) (A) (A)
                 (A) (A) (A) (A) (A) (A) (A) (A) (A) (A) (A) (A)
                 (A) (A) (A) (A) (A) (A) (A) (A) (A) (A) (A) (A)
                 (A) (A) (A) (A) (A) (A) (A) (A) (A) (A) (A) (A)
                 (A) (A) (A) (A) (A) (A) (A) (A) (A) (A) (A) (A)
                 (A) (A) (A) (A) (A) (A) (A) (A) (A) (A) (A) (A)
                 (A) (A) (A) (A) (A) (A) (A) (A) (A) (A) (A) (A)
                 (A) (A) (A) (A) (A) (A) (A) (A) (A) (A) (A) (A)
                 (A) (A) (A) (A) (A) (A) (A) (A) (A) (A) (A) (A)
                 (A) (A) (A) (A) (A) (A) (A) (A) (A) (A) (A) (A)
                 (A) (A) (A) (A) (A) (A) (A) (A) (A) (A) (A) (A)
                 (A) (A) (A) (A) (A) (A) (A) (A) (A) (A) (A) (A)
                 (A) (A) (A) (A) (A) (A) (A) (A) (A) (A) (A) (A)
                 (A) (A) (A) (A) (A) (A) (A) (A) (A) (A) (A) (A)
                 (A) (A) (A)
 The electronic state is 2-A.
 Alpha  occ. eigenvalues --  -19.65149 -10.58363 -10.54238 -10.53336 -10.53067
 Alpha  occ. eigenvalues --   -1.16875  -0.90252  -0.81321  -0.71898  -0.67235
 Alpha  occ. eigenvalues --   -0.57346  -0.55313  -0.51815  -0.49628  -0.48029
 Alpha  occ. eigenvalues --   -0.45004  -0.44085  -0.40768  -0.39258  -0.37868
 Alpha  occ. eigenvalues --   -0.23501
 Alpha virt. eigenvalues --    0.01517   0.02916   0.03243   0.04383   0.05157
 Alpha virt. eigenvalues --    0.06315   0.06483   0.06927   0.07729   0.10140
 Alpha virt. eigenvalues --    0.10631   0.11264   0.11823   0.12613   0.15288
 Alpha virt. eigenvalues --    0.16618   0.17615   0.19183   0.20294   0.21642
 Alpha virt. eigenvalues --    0.22619   0.23602   0.24459   0.25847   0.26641
 Alpha virt. eigenvalues --    0.27712   0.28974   0.29771   0.31349   0.32096
 Alpha virt. eigenvalues --    0.34043   0.34626   0.35687   0.44009   0.44511
 Alpha virt. eigenvalues --    0.45959   0.46313   0.46581   0.48663   0.49386
 Alpha virt. eigenvalues --    0.50688   0.51850   0.53820   0.55308   0.57208
 Alpha virt. eigenvalues --    0.58823   0.59115   0.60586   0.61102   0.61493
 Alpha virt. eigenvalues --    0.63654   0.64397   0.67845   0.68102   0.69875
 Alpha virt. eigenvalues --    0.70152   0.73706   0.76031   0.79232   0.82737
 Alpha virt. eigenvalues --    0.84534   0.88522   0.90509   0.92290   0.94563
 Alpha virt. eigenvalues --    0.95507   0.97055   0.99685   1.01508   1.03777
 Alpha virt. eigenvalues --    1.05869   1.08256   1.09966   1.10996   1.12411
 Alpha virt. eigenvalues --    1.14825   1.16835   1.17644   1.19079   1.20803
 Alpha virt. eigenvalues --    1.23238   1.23909   1.27278   1.29301   1.29763
 Alpha virt. eigenvalues --    1.32186   1.33557   1.35053   1.35431   1.38305
 Alpha virt. eigenvalues --    1.39986   1.42134   1.43622   1.44662   1.45235
 Alpha virt. eigenvalues --    1.46865   1.47207   1.51355   1.52277   1.54512
 Alpha virt. eigenvalues --    1.55564   1.57381   1.58892   1.60059   1.62654
 Alpha virt. eigenvalues --    1.65346   1.69138   1.69482   1.70352   1.90379
 Alpha virt. eigenvalues --    2.02329   2.11309   2.26285   2.28408   2.33136
 Alpha virt. eigenvalues --    2.40877   2.45925   2.51992   2.56008   2.62404
 Alpha virt. eigenvalues --    2.66429   2.68502   2.72801   2.74226   2.80057
 Alpha virt. eigenvalues --    2.81307   2.82730   2.83284   2.85872   2.88644
 Alpha virt. eigenvalues --    2.94856   2.97550   3.00033   3.03631   3.07129
 Alpha virt. eigenvalues --    3.09195   3.13870   3.14548   3.17793   3.18310
 Alpha virt. eigenvalues --    3.20496   3.21483   3.24511   3.25838   3.27628
 Alpha virt. eigenvalues --    3.28460   3.31269   3.32589   3.33687   3.34860
 Alpha virt. eigenvalues --    3.37120   3.37863   3.41843   3.43828   3.47710
 Alpha virt. eigenvalues --    3.53336   3.57162   3.58004   3.61327   3.68720
 Alpha virt. eigenvalues --    3.69642   3.72209   3.72823   3.75533   3.79076
 Alpha virt. eigenvalues --    3.82212   3.85200   3.85744   3.89256   3.89976
 Alpha virt. eigenvalues --    3.96539   3.97565   3.99184   4.00079   4.01997
 Alpha virt. eigenvalues --    4.06517   4.08699   4.10628   4.11637   4.14386
 Alpha virt. eigenvalues --    4.17049   4.20751   4.22348   4.24832   4.26905
 Alpha virt. eigenvalues --    4.28359   4.29142   4.31956   4.36440   4.39634
 Alpha virt. eigenvalues --    4.40550   4.43166   4.46603   4.48119   4.52772
 Alpha virt. eigenvalues --    4.57075   4.59928   4.68478   4.69607   4.78652
 Alpha virt. eigenvalues --    4.88922   4.91679   5.07379   5.17200   5.21033
 Alpha virt. eigenvalues --    5.23768   5.34678   5.42860   5.46495   5.48280
 Alpha virt. eigenvalues --    5.49630   5.52889   5.53697   5.55838   5.61431
 Alpha virt. eigenvalues --    5.67007   5.81361   6.00438   6.54218   6.93865
 Alpha virt. eigenvalues --    6.97463   7.14390   7.21367   7.46520   7.61455
 Alpha virt. eigenvalues --   24.18632  24.27840  24.41373  24.48530  50.08994
  Beta  occ. eigenvalues --  -19.64764 -10.57564 -10.54258 -10.53278 -10.53066
  Beta  occ. eigenvalues --   -1.15508  -0.89821  -0.80384  -0.70424  -0.66757
  Beta  occ. eigenvalues --   -0.56220  -0.54401  -0.51273  -0.48578  -0.46298
  Beta  occ. eigenvalues --   -0.43661  -0.42487  -0.40514  -0.38678  -0.37432
  Beta virt. eigenvalues --   -0.00767   0.01881   0.02962   0.03281   0.04034
  Beta virt. eigenvalues --    0.05283   0.06152   0.06449   0.06942   0.07832
  Beta virt. eigenvalues --    0.09833   0.10744   0.10905   0.11850   0.12386
  Beta virt. eigenvalues --    0.15352   0.16099   0.17737   0.18594   0.20593
  Beta virt. eigenvalues --    0.21456   0.22792   0.23957   0.24500   0.25912
  Beta virt. eigenvalues --    0.26730   0.27754   0.28618   0.30138   0.31415
  Beta virt. eigenvalues --    0.31810   0.34348   0.35053   0.36238   0.44113
  Beta virt. eigenvalues --    0.44688   0.46184   0.46434   0.46755   0.48781
  Beta virt. eigenvalues --    0.49549   0.51305   0.52249   0.54044   0.55595
  Beta virt. eigenvalues --    0.58078   0.58904   0.59358   0.60488   0.60986
  Beta virt. eigenvalues --    0.61660   0.63640   0.64907   0.67565   0.68155
  Beta virt. eigenvalues --    0.69934   0.69982   0.73931   0.76510   0.79130
  Beta virt. eigenvalues --    0.82720   0.85115   0.88539   0.90586   0.92336
  Beta virt. eigenvalues --    0.94673   0.95427   0.96893   0.99617   1.01529
  Beta virt. eigenvalues --    1.03810   1.05503   1.08622   1.09951   1.11052
  Beta virt. eigenvalues --    1.12392   1.14971   1.16943   1.18309   1.19095
  Beta virt. eigenvalues --    1.20795   1.23453   1.23796   1.27691   1.29536
  Beta virt. eigenvalues --    1.29822   1.32403   1.33824   1.35276   1.35449
  Beta virt. eigenvalues --    1.38333   1.40267   1.42459   1.43810   1.44541
  Beta virt. eigenvalues --    1.45388   1.46816   1.47298   1.51799   1.52651
  Beta virt. eigenvalues --    1.54684   1.55865   1.57429   1.58729   1.60003
  Beta virt. eigenvalues --    1.62481   1.65457   1.69215   1.69427   1.70598
  Beta virt. eigenvalues --    1.90823   2.03342   2.11905   2.26463   2.29309
  Beta virt. eigenvalues --    2.33555   2.41261   2.46606   2.52351   2.56241
  Beta virt. eigenvalues --    2.63514   2.66907   2.69502   2.73199   2.75091
  Beta virt. eigenvalues --    2.80535   2.82159   2.83373   2.84081   2.87892
  Beta virt. eigenvalues --    2.92125   2.96009   2.98558   3.01729   3.05111
  Beta virt. eigenvalues --    3.08529   3.10072   3.14374   3.15282   3.18416
  Beta virt. eigenvalues --    3.19438   3.21221   3.22178   3.25315   3.26455
  Beta virt. eigenvalues --    3.29314   3.29770   3.31981   3.33462   3.35493
  Beta virt. eigenvalues --    3.37187   3.38408   3.40694   3.43865   3.44653
  Beta virt. eigenvalues --    3.50446   3.55821   3.57981   3.61377   3.63492
  Beta virt. eigenvalues --    3.69301   3.70209   3.73485   3.74347   3.75839
  Beta virt. eigenvalues --    3.80878   3.82585   3.85468   3.86812   3.89622
  Beta virt. eigenvalues --    3.91284   3.96862   3.98050   3.99515   4.00615
  Beta virt. eigenvalues --    4.02294   4.06982   4.09166   4.11471   4.12277
  Beta virt. eigenvalues --    4.15055   4.17382   4.22097   4.22707   4.25227
  Beta virt. eigenvalues --    4.27331   4.28772   4.29751   4.32456   4.36764
  Beta virt. eigenvalues --    4.40747   4.40963   4.43728   4.47113   4.48859
  Beta virt. eigenvalues --    4.53305   4.58546   4.62278   4.69289   4.69944
  Beta virt. eigenvalues --    4.79506   4.89539   4.92346   5.09823   5.18710
  Beta virt. eigenvalues --    5.21842   5.24171   5.35132   5.44130   5.47367
  Beta virt. eigenvalues --    5.48398   5.50387   5.53346   5.55434   5.56121
  Beta virt. eigenvalues --    5.61491   5.67155   5.82147   6.01173   6.55290
  Beta virt. eigenvalues --    6.94829   6.97858   7.15354   7.22081   7.47183
  Beta virt. eigenvalues --    7.61367  24.18761  24.28236  24.42008  24.48923
  Beta virt. eigenvalues --   50.08721
          Condensed to atoms (all electrons):
               1          2          3          4          5          6
     1  O    8.019144   0.010842  -0.035969  -0.006288   0.112865   0.000131
     2  C    0.010842   5.735848  -0.216111  -0.008219  -0.057189   0.445785
     3  C   -0.035969  -0.216111   5.520033  -0.051539   0.077407  -0.058676
     4  C   -0.006288  -0.008219  -0.051539   5.327222   0.112147  -0.044833
     5  C    0.112865  -0.057189   0.077407   0.112147   5.755016   0.005520
     6  H    0.000131   0.445785  -0.058676  -0.044833   0.005520   0.541121
     7  H   -0.000697   0.441083  -0.035931  -0.042046   0.001162  -0.035106
     8  H    0.004655  -0.032208   0.430568  -0.005646  -0.034921   0.004523
     9  H   -0.014742  -0.072339   0.453356  -0.003520  -0.031440   0.004790
    10  H    0.000088  -0.038679  -0.005783   0.427732  -0.001625  -0.016133
    11  H    0.000040  -0.022574   0.010058   0.404873  -0.003812   0.004621
    12  H   -0.000328  -0.085661  -0.010483   0.437482   0.010690   0.005955
    13  H   -0.049709  -0.010759  -0.009802  -0.000992   0.404515  -0.000300
    14  H    0.239067   0.001985  -0.001759  -0.004499  -0.018290   0.000289
               7          8          9         10         11         12
     1  O   -0.000697   0.004655  -0.014742   0.000088   0.000040  -0.000328
     2  C    0.441083  -0.032208  -0.072339  -0.038679  -0.022574  -0.085661
     3  C   -0.035931   0.430568   0.453356  -0.005783   0.010058  -0.010483
     4  C   -0.042046  -0.005646  -0.003520   0.427732   0.404873   0.437482
     5  C    0.001162  -0.034921  -0.031440  -0.001625  -0.003812   0.010690
     6  H   -0.035106   0.004523   0.004790  -0.016133   0.004621   0.005955
     7  H    0.553633  -0.013399   0.004814   0.005052  -0.016612   0.004829
     8  H   -0.013399   0.538895  -0.032019  -0.000412  -0.000168   0.001736
     9  H    0.004814  -0.032019   0.573028   0.001288   0.000302   0.001365
    10  H    0.005052  -0.000412   0.001288   0.554178  -0.027896  -0.033012
    11  H   -0.016612  -0.000168   0.000302  -0.027896   0.558299  -0.030917
    12  H    0.004829   0.001736   0.001365  -0.033012  -0.030917   0.582534
    13  H   -0.000128  -0.009718   0.004634   0.000039   0.000017  -0.000136
    14  H   -0.000058   0.000630   0.007587   0.000061  -0.000014  -0.000290
              13         14
     1  O   -0.049709   0.239067
     2  C   -0.010759   0.001985
     3  C   -0.009802  -0.001759
     4  C   -0.000992  -0.004499
     5  C    0.404515  -0.018290
     6  H   -0.000300   0.000289
     7  H   -0.000128  -0.000058
     8  H   -0.009718   0.000630
     9  H    0.004634   0.007587
    10  H    0.000039   0.000061
    11  H    0.000017  -0.000014
    12  H   -0.000136  -0.000290
    13  H    0.512301   0.007532
    14  H    0.007532   0.511286
          Atomic-Atomic Spin Densities.
               1          2          3          4          5          6
     1  O    0.270101  -0.004174   0.022085  -0.000240  -0.205662   0.000467
     2  C   -0.004174   0.079157  -0.017619  -0.039777   0.039993   0.002652
     3  C    0.022085  -0.017619   0.104457   0.010676  -0.205284   0.005250
     4  C   -0.000240  -0.039777   0.010676   0.011265   0.015278   0.010805
     5  C   -0.205662   0.039993  -0.205284   0.015278   1.328118  -0.010888
     6  H    0.000467   0.002652   0.005250   0.010805  -0.010888  -0.018052
     7  H   -0.000126  -0.002088  -0.002872  -0.002963   0.005393   0.000372
     8  H    0.004449   0.023615  -0.013109  -0.001330  -0.022785   0.000085
     9  H   -0.000254   0.000723  -0.004493   0.003262  -0.001113  -0.000029
    10  H   -0.000005  -0.003547  -0.000045   0.000922   0.001258   0.000465
    11  H    0.000025  -0.001926   0.001602   0.003123  -0.001709  -0.000461
    12  H    0.000018   0.004199  -0.002869   0.000518  -0.000782  -0.000403
    13  H   -0.000684  -0.010291   0.018062   0.000600  -0.017949   0.000081
    14  H    0.001999  -0.000869  -0.001159   0.001233   0.001134  -0.000041
               7          8          9         10         11         12
     1  O   -0.000126   0.004449  -0.000254  -0.000005   0.000025   0.000018
     2  C   -0.002088   0.023615   0.000723  -0.003547  -0.001926   0.004199
     3  C   -0.002872  -0.013109  -0.004493  -0.000045   0.001602  -0.002869
     4  C   -0.002963  -0.001330   0.003262   0.000922   0.003123   0.000518
     5  C    0.005393  -0.022785  -0.001113   0.001258  -0.001709  -0.000782
     6  H    0.000372   0.000085  -0.000029   0.000465  -0.000461  -0.000403
     7  H    0.002135   0.000342  -0.000071   0.000061  -0.000028   0.000094
     8  H    0.000342   0.038681  -0.000339  -0.000055  -0.000125   0.000266
     9  H   -0.000071  -0.000339   0.001631  -0.000003  -0.000010  -0.000088
    10  H    0.000061  -0.000055  -0.000003   0.000579  -0.000057  -0.000048
    11  H   -0.000028  -0.000125  -0.000010  -0.000057   0.000467  -0.000534
    12  H    0.000094   0.000266  -0.000088  -0.000048  -0.000534  -0.000232
    13  H   -0.000056  -0.004528   0.000054   0.000003   0.000008  -0.000021
    14  H    0.000023   0.000066   0.000707   0.000002  -0.000005  -0.000016
              13         14
     1  O   -0.000684   0.001999
     2  C   -0.010291  -0.000869
     3  C    0.018062  -0.001159
     4  C    0.000600   0.001233
     5  C   -0.017949   0.001134
     6  H    0.000081  -0.000041
     7  H   -0.000056   0.000023
     8  H   -0.004528   0.000066
     9  H    0.000054   0.000707
    10  H    0.000003   0.000002
    11  H    0.000008  -0.000005
    12  H   -0.000021  -0.000016
    13  H   -0.008872  -0.000519
    14  H   -0.000519  -0.005272
 Mulliken charges and spin densities:
               1          2
     1  O   -0.279099   0.088000
     2  C   -0.091804   0.070047
     3  C   -0.065369  -0.085319
     4  C   -0.541875   0.013371
     5  C   -0.332047   0.925000
     6  H    0.142313  -0.009696
     7  H    0.133403   0.000216
     8  H    0.147484   0.025232
     9  H    0.102897  -0.000022
    10  H    0.135103  -0.000470
    11  H    0.123781   0.000370
    12  H    0.116235   0.000102
    13  H    0.152505  -0.024112
    14  H    0.256473  -0.002718
 Sum of Mulliken charges =  -0.00000   1.00000
 Mulliken charges and spin densities with hydrogens summed into heavy atoms:
               1          2
     1  O   -0.022626   0.085282
     2  C    0.183913   0.060566
     3  C    0.185011  -0.060109
     4  C   -0.166756   0.013372
     5  C   -0.179542   0.900888
 APT charges:
               1
     1  O   -0.526116
     2  C   -0.660502
     3  C   -0.519357
     4  C   -1.275618
     5  C   -0.424794
     6  H    0.322869
     7  H    0.435472
     8  H    0.394749
     9  H    0.245927
    10  H    0.387662
    11  H    0.526734
    12  H    0.218221
    13  H    0.472944
    14  H    0.401810
 Sum of APT charges =  -0.00000
 APT charges with hydrogens summed into heavy atoms:
               1
     1  O   -0.124306
     2  C    0.097838
     3  C    0.121319
     4  C   -0.143001
     5  C    0.048150
 Electronic spatial extent (au):  <R**2>=            598.7011
 Charge=             -0.0000 electrons
 Dipole moment (field-independent basis, Debye):
    X=              1.5743    Y=             -0.2246    Z=              0.9201  Tot=              1.8373
 Quadrupole moment (field-independent basis, Debye-Ang):
   XX=            -38.8905   YY=            -29.9728   ZZ=            -34.2383
   XY=             -0.0476   XZ=             -1.2507   YZ=             -0.4368
 Traceless Quadrupole moment (field-independent basis, Debye-Ang):
   XX=             -4.5233   YY=              4.3944   ZZ=              0.1289
   XY=             -0.0476   XZ=             -1.2507   YZ=             -0.4368
 Octapole moment (field-independent basis, Debye-Ang**2):
  XXX=              9.0817  YYY=             -5.5689  ZZZ=              0.6767  XYY=             -8.3987
  XXY=              4.2508  XXZ=              1.9674  XZZ=             -0.7550  YZZ=             -1.3455
  YYZ=              2.2402  XYZ=              2.2907
 Hexadecapole moment (field-independent basis, Debye-Ang**3):
 XXXX=           -637.5489 YYYY=           -120.1226 ZZZZ=            -83.4287 XXXY=             -0.7860
 XXXZ=             -0.2319 YYYX=             13.7804 YYYZ=             -0.5709 ZZZX=             -4.3511
 ZZZY=              1.7637 XXYY=           -112.9547 XXZZ=           -114.6542 YYZZ=            -34.1622
 XXYZ=             -1.6555 YYXZ=             -1.4783 ZZXY=              1.4479
 N-N= 1.774483871181D+02 E-N=-8.977157501060D+02  KE= 2.319214986421D+02
  Exact polarizability:   0.000   0.000   0.000   0.000   0.000   0.000
 Approx polarizability:  62.779   1.490  63.979   0.810  -1.612  59.508
                          Isotropic Fermi Contact Couplings
        Atom                 a.u.       MegaHertz       Gauss      10(-4) cm-1
     1  O(17)              0.03549     -21.51120      -7.67573      -7.17537
     2  C(13)              0.04609      51.81725      18.48968      17.28438
     3  C(13)             -0.00304      -3.41897      -1.21997      -1.14044
     4  C(13)             -0.00013      -0.15172      -0.05414      -0.05061
     5  C(13)              0.28396     319.22450     113.90724     106.48183
     6  H(1)              -0.00055      -2.46757      -0.88049      -0.82309
     7  H(1)              -0.00028      -1.25568      -0.44806      -0.41885
     8  H(1)               0.01383      61.81111      22.05574      20.61797
     9  H(1)              -0.00024      -1.06779      -0.38102      -0.35618
    10  H(1)              -0.00002      -0.08863      -0.03163      -0.02956
    11  H(1)               0.00032       1.40914       0.50282       0.47004
    12  H(1)              -0.00003      -0.12830      -0.04578      -0.04280
    13  H(1)              -0.00233     -10.40649      -3.71329      -3.47123
    14  H(1)              -0.00248     -11.08430      -3.95515      -3.69733
 --------------------------------------------------------
       Center         ----  Spin Dipole Couplings  ----
                      3XX-RR        3YY-RR        3ZZ-RR
 --------------------------------------------------------
     1   Atom       -0.311270     -0.347894      0.659164
     2   Atom        0.041365     -0.023248     -0.018116
     3   Atom        0.009557     -0.019623      0.010066
     4   Atom        0.004817     -0.000956     -0.003862
     5   Atom       -0.348533     -0.437421      0.785954
     6   Atom        0.013647     -0.012012     -0.001634
     7   Atom        0.005894     -0.001926     -0.003968
     8   Atom        0.000534     -0.005864      0.005329
     9   Atom       -0.000235     -0.003910      0.004145
    10   Atom        0.003214     -0.001174     -0.002040
    11   Atom        0.002942     -0.001374     -0.001567
    12   Atom        0.002330     -0.000435     -0.001895
    13   Atom       -0.027018      0.039825     -0.012807
    14   Atom       -0.015356      0.022800     -0.007444
 --------------------------------------------------------
                        XY            XZ            YZ
 --------------------------------------------------------
     1   Atom       -0.118644     -0.339619      0.235079
     2   Atom        0.002306      0.003443      0.000219
     3   Atom        0.004514      0.022324      0.005163
     4   Atom       -0.004924      0.001840     -0.000819
     5   Atom       -0.102153     -0.442849      0.278350
     6   Atom        0.003916     -0.006166     -0.001796
     7   Atom        0.005197      0.002297      0.001475
     8   Atom        0.002854      0.011059      0.005874
     9   Atom       -0.006982      0.011214     -0.007790
    10   Atom       -0.002586     -0.000700      0.000582
    11   Atom       -0.000753      0.000982     -0.000014
    12   Atom       -0.003138      0.001877     -0.001313
    13   Atom       -0.055516     -0.005703     -0.005277
    14   Atom       -0.013895      0.003790     -0.021934
 --------------------------------------------------------


 ---------------------------------------------------------------------------------
              Anisotropic Spin Dipole Couplings in Principal Axis System
 ---------------------------------------------------------------------------------

       Atom             a.u.   MegaHertz   Gauss  10(-4) cm-1        Axes

              Baa    -0.4539    32.846    11.720    10.956  0.7649  0.6365  0.0990
     1 O(17)  Bbb    -0.3700    26.772     9.553     8.930 -0.5697  0.7402 -0.3571
              Bcc     0.8239   -59.618   -21.273   -19.886 -0.3005  0.2168  0.9288
 
              Baa    -0.0233    -3.131    -1.117    -1.044 -0.0346  0.9992 -0.0191
     2 C(13)  Bbb    -0.0183    -2.457    -0.877    -0.820 -0.0582  0.0170  0.9982
              Bcc     0.0416     5.588     1.994     1.864  0.9977  0.0356  0.0576
 
              Baa    -0.0205    -2.756    -0.983    -0.919 -0.0536  0.9903 -0.1280
     3 C(13)  Bbb    -0.0125    -1.676    -0.598    -0.559  0.7157 -0.0512 -0.6965
              Bcc     0.0330     4.432     1.581     1.478  0.6964  0.1289  0.7060
 
              Baa    -0.0043    -0.574    -0.205    -0.192 -0.3178 -0.2451  0.9159
     4 C(13)  Bbb    -0.0037    -0.496    -0.177    -0.165  0.4057  0.8379  0.3650
              Bcc     0.0080     1.070     0.382     0.357  0.8570 -0.4876  0.1669
 
              Baa    -0.5058   -67.869   -24.217   -22.639  0.7726  0.6212  0.1310
     5 C(13)  Bbb    -0.4937   -66.256   -23.642   -22.100 -0.5487  0.7571 -0.3546
              Bcc     0.9995   134.124    47.859    44.739 -0.3195  0.2021  0.9258
 
              Baa    -0.0127    -6.763    -2.413    -2.256 -0.1258  0.9879  0.0904
     6 H(1)   Bbb    -0.0038    -2.025    -0.723    -0.675  0.3415 -0.0425  0.9389
              Bcc     0.0165     8.788     3.136     2.931  0.9314  0.1490 -0.3320
 
              Baa    -0.0048    -2.569    -0.917    -0.857  0.1843 -0.6893  0.7006
     7 H(1)   Bbb    -0.0042    -2.261    -0.807    -0.754 -0.4497  0.5747  0.6837
              Bcc     0.0091     4.830     1.724     1.611  0.8739  0.4411  0.2041
 
              Baa    -0.0095    -5.067    -1.808    -1.690 -0.5113 -0.5973  0.6180
     8 H(1)   Bbb    -0.0066    -3.522    -1.257    -1.175 -0.6252  0.7518  0.2094
              Bcc     0.0161     8.590     3.065     2.865  0.5896  0.2793  0.7578
 
              Baa    -0.0097    -5.154    -1.839    -1.719  0.8099  0.3909 -0.4373
     9 H(1)   Bbb    -0.0086    -4.610    -1.645    -1.538 -0.0851  0.8160  0.5718
              Bcc     0.0183     9.764     3.484     3.257  0.5804 -0.4259  0.6941
 
              Baa    -0.0025    -1.345    -0.480    -0.448  0.2923  0.7929 -0.5347
    10 H(1)   Bbb    -0.0020    -1.072    -0.383    -0.358  0.3302  0.4410  0.8345
              Bcc     0.0045     2.417     0.862     0.806  0.8975 -0.4205 -0.1329
 
              Baa    -0.0018    -0.976    -0.348    -0.325 -0.2433 -0.3754  0.8944
    11 H(1)   Bbb    -0.0014    -0.766    -0.273    -0.256  0.0671  0.9134  0.4016
              Bcc     0.0033     1.742     0.621     0.581  0.9676 -0.1577  0.1971
 
              Baa    -0.0027    -1.424    -0.508    -0.475 -0.0498  0.4531  0.8901
    12 H(1)   Bbb    -0.0025    -1.310    -0.467    -0.437  0.6050  0.7227 -0.3341
              Bcc     0.0051     2.734     0.975     0.912  0.7946 -0.5219  0.3101
 
              Baa    -0.0596   -31.809   -11.350   -10.610  0.8583  0.4876  0.1595
    13 H(1)   Bbb    -0.0116    -6.202    -2.213    -2.069 -0.1494 -0.0600  0.9870
              Bcc     0.0712    38.011    13.563    12.679 -0.4909  0.8710 -0.0214
 
              Baa    -0.0220   -11.750    -4.193    -3.919  0.6910  0.4791  0.5412
    14 H(1)   Bbb    -0.0160    -8.545    -3.049    -2.850 -0.6762  0.1639  0.7183
              Bcc     0.0380    20.294     7.242     6.769 -0.2554  0.8623 -0.4372
 

 ---------------------------------------------------------------------------------

 No NMR shielding tensors so no spin-rotation constants.
 Leave Link  601 at Tue Apr  9 00:48:25 2019, MaxMem=   671088640 cpu:              11.4 elap:               0.6
 (Enter /shared/centos7/gaussian/g16/l701.exe)
 SCFChk:  SCF convergence  5.78D-09 required  1.00D-08
 ... and contract with generalized density number  0.
 Compute integral second derivatives.
 Entering OneElI...
 Calculate overlap and kinetic energy integrals
    NBasis = 276  MinDer = 2  MaxDer = 2
 Requested accuracy = 0.1000D-12
 PrmmSu-InSpLW:  IPartL=    0 NPrtUS=   20 NPrtUL=    1 DoSpLW=F IThBeg=    0 IThEnd=   19 NThAct=   20.
 PrsmSu:  NPrtUS=  20 ThrOK=T IAlg=1 NPAlg=1 LenDen=           0 ISkipM=0 DoSpLW=F IThBeg=    0 IThEnd=   19.
 Prism:   IPart=     0 DynPar=F LinDyn=F Incr=           1.
 PRISM was handed    33457870 working-precision words and  3641 shell-pairs
 PRISM was handed    33457870 working-precision words and  3641 shell-pairs
 PRISM was handed    33457870 working-precision words and  3641 shell-pairs
 PRISM was handed    33457870 working-precision words and  3641 shell-pairs
 PRISM was handed    33457870 working-precision words and  3641 shell-pairs
 PRISM was handed    33457870 working-precision words and  3641 shell-pairs
 PRISM was handed    33457870 working-precision words and  3641 shell-pairs
 PRISM was handed    33457870 working-precision words and  3641 shell-pairs
 PRISM was handed    33457870 working-precision words and  3641 shell-pairs
 PRISM was handed    33457870 working-precision words and  3641 shell-pairs
 PRISM was handed    33457870 working-precision words and  3641 shell-pairs
 PRISM was handed    33457870 working-precision words and  3641 shell-pairs
 PRISM was handed    33457870 working-precision words and  3641 shell-pairs
 PRISM was handed    33457870 working-precision words and  3641 shell-pairs
 PRISM was handed    33457870 working-precision words and  3641 shell-pairs
 PRISM was handed    33457870 working-precision words and  3641 shell-pairs
 PRISM was handed    33457870 working-precision words and  3641 shell-pairs
 PRISM was handed    33457870 working-precision words and  3641 shell-pairs
 PRISM was handed    33457870 working-precision words and  3641 shell-pairs
 PRISM was handed    33457870 working-precision words and  3641 shell-pairs
 IPart=  3 NShTot=         197 NBatch=          43 AvBLen=         4.6
 IPart=  2 NShTot=         203 NBatch=          47 AvBLen=         4.3
 IPart=  4 NShTot=         193 NBatch=          41 AvBLen=         4.7
 IPart=  6 NShTot=         188 NBatch=          38 AvBLen=         4.9
 IPart=  5 NShTot=         189 NBatch=          38 AvBLen=         5.0
 IPart=  1 NShTot=         207 NBatch=          50 AvBLen=         4.1
 IPart= 14 NShTot=         171 NBatch=          32 AvBLen=         5.3
 IPart= 13 NShTot=         173 NBatch=          32 AvBLen=         5.4
 IPart=  0 NShTot=         220 NBatch=          59 AvBLen=         3.7
 IPart= 16 NShTot=         165 NBatch=          30 AvBLen=         5.5
 IPart= 10 NShTot=         177 NBatch=          34 AvBLen=         5.2
 IPart= 17 NShTot=         165 NBatch=          30 AvBLen=         5.5
 IPart= 12 NShTot=         175 NBatch=          33 AvBLen=         5.3
 IPart= 11 NShTot=         176 NBatch=          33 AvBLen=         5.3
 IPart=  7 NShTot=         185 NBatch=          38 AvBLen=         4.9
 IPart=  9 NShTot=         181 NBatch=          35 AvBLen=         5.2
 IPart=  8 NShTot=         183 NBatch=          36 AvBLen=         5.1
 IPart= 15 NShTot=         167 NBatch=          31 AvBLen=         5.4
 IPart= 19 NShTot=         162 NBatch=          29 AvBLen=         5.6
 IPart= 18 NShTot=         164 NBatch=          30 AvBLen=         5.5
 PrSmSu:  NxtVal=             21.
 Entering OneElI...
 Calculate potential energy integrals
    NBasis = 276  MinDer = 2  MaxDer = 2
 Requested accuracy = 0.1000D-12
 PrmmSu-InSpLW:  IPartL=    0 NPrtUS=   20 NPrtUL=    1 DoSpLW=F IThBeg=    0 IThEnd=   19 NThAct=   20.
 PrsmSu:  NPrtUS=  20 ThrOK=T IAlg=1 NPAlg=1 LenDen=           0 ISkipM=0 DoSpLW=F IThBeg=    0 IThEnd=   19.
 Prism:   IPart=     0 DynPar=F LinDyn=F Incr=          24.
 PRISM was handed    33470215 working-precision words and  3461 shell-pairs
 PRISM was handed    33470215 working-precision words and  3461 shell-pairs
 PRISM was handed    33470215 working-precision words and  3461 shell-pairs
 PRISM was handed    33470215 working-precision words and  3461 shell-pairs
 PRISM was handed    33470215 working-precision words and  3461 shell-pairs
 PRISM was handed    33470215 working-precision words and  3461 shell-pairs
 PRISM was handed    33470215 working-precision words and  3461 shell-pairs
 PRISM was handed    33470215 working-precision words and  3461 shell-pairs
 PRISM was handed    33470215 working-precision words and  3461 shell-pairs
 PRISM was handed    33470215 working-precision words and  3461 shell-pairs
 PRISM was handed    33470215 working-precision words and  3461 shell-pairs
 PRISM was handed    33470215 working-precision words and  3461 shell-pairs
 PRISM was handed    33470215 working-precision words and  3461 shell-pairs
 PRISM was handed    33470215 working-precision words and  3461 shell-pairs
 PRISM was handed    33470215 working-precision words and  3461 shell-pairs
 PRISM was handed    33470215 working-precision words and  3461 shell-pairs
 PRISM was handed    33470215 working-precision words and  3461 shell-pairs
 PRISM was handed    33470215 working-precision words and  3461 shell-pairs
 PRISM was handed    33470215 working-precision words and  3461 shell-pairs
 PRISM was handed    33470215 working-precision words and  3461 shell-pairs
 IPart=  2 NShTot=        2660 NBatch=         190 AvBLen=        14.0
 IPart=  5 NShTot=        2534 NBatch=         181 AvBLen=        14.0
 IPart=  3 NShTot=        2618 NBatch=         187 AvBLen=        14.0
 IPart=  6 NShTot=        2506 NBatch=         179 AvBLen=        14.0
 IPart=  1 NShTot=        2772 NBatch=         198 AvBLen=        14.0
 IPart=  4 NShTot=        2576 NBatch=         184 AvBLen=        14.0
 IPart= 14 NShTot=        2268 NBatch=         162 AvBLen=        14.0
 IPart=  0 NShTot=        2884 NBatch=         206 AvBLen=        14.0
 IPart= 12 NShTot=        2338 NBatch=         167 AvBLen=        14.0
 IPart= 17 NShTot=        2184 NBatch=         156 AvBLen=        14.0
 IPart= 18 NShTot=        2170 NBatch=         155 AvBLen=        14.0
 IPart=  9 NShTot=        2394 NBatch=         171 AvBLen=        14.0
 IPart= 10 NShTot=        2380 NBatch=         170 AvBLen=        14.0
 IPart= 13 NShTot=        2296 NBatch=         164 AvBLen=        14.0
 IPart= 15 NShTot=        2226 NBatch=         159 AvBLen=        14.0
 IPart= 16 NShTot=        2212 NBatch=         158 AvBLen=        14.0
 IPart=  7 NShTot=        2464 NBatch=         176 AvBLen=        14.0
 IPart= 11 NShTot=        2366 NBatch=         169 AvBLen=        14.0
 IPart= 19 NShTot=        2156 NBatch=         154 AvBLen=        14.0
 IPart=  8 NShTot=        2450 NBatch=         175 AvBLen=        14.0
 PrSmSu:  NxtVal=            481.
 Polarizability after L701:
                1             2             3 
      1  0.000000D+00
      2  0.000000D+00  0.000000D+00
      3  0.000000D+00  0.000000D+00  0.000000D+00
 Dipole Derivatives after L701:
                 1             2             3             4             5 
      1  -0.335863D+00 -0.608457D+00  0.309036D+00 -0.465570D+00 -0.134188D+01
      2   0.257106D+00 -0.838082D+00  0.204448D+00 -0.391057D+00 -0.742508D+00
      3  -0.217120D-01  0.625401D-01 -0.404403D+00 -0.475081D-01  0.237613D-01
                 6             7             8             9            10 
      1   0.544929D+00  0.225472D-01  0.722994D-02 -0.730400D-01 -0.181304D+01
      2   0.183634D+00  0.585633D-01 -0.741162D+00 -0.433252D+00  0.291711D-01
      3  -0.773430D+00 -0.793164D-01 -0.295601D-01 -0.839455D+00  0.343647D-01
                11            12            13            14            15 
      1   0.114718D+01 -0.149328D+00 -0.404761D+00  0.905075D+00 -0.228838D+00
      2  -0.102521D+01 -0.202150D-01  0.341008D+00 -0.810955D+00  0.126463D+00
      3  -0.105133D+00 -0.988603D+00 -0.831758D-01  0.148782D+00 -0.586663D-01
                16            17            18            19            20 
      1   0.115329D+00  0.483161D-01 -0.419942D+00  0.499446D+00  0.615134D+00
      2  -0.463215D-01  0.175683D+00 -0.264511D+00  0.271817D+00  0.647764D+00
      3   0.773056D-01 -0.384605D-01  0.677594D+00  0.262969D-01  0.601989D-01
                21            22            23            24            25 
      1   0.219972D+00  0.177864D+00 -0.371875D-01 -0.494978D-01  0.960045D-01
      2   0.208161D+00 -0.293209D-02  0.519327D+00  0.337871D+00 -0.127718D-01
      3   0.159205D+00 -0.213183D-01  0.434578D+00  0.487056D+00  0.241881D-01
                26            27            28            29            30 
      1   0.287587D-01 -0.118277D-01  0.282456D+00 -0.455728D+00 -0.865816D+00
      2   0.332971D+00 -0.115703D+00 -0.954695D-01  0.321837D+00  0.402602D+00
      3  -0.376598D+00  0.308806D+00 -0.577386D-01  0.183481D+00  0.558692D+00
                31            32            33            34            35 
      1   0.130287D+01  0.435909D+00  0.519553D+00 -0.117353D+00 -0.494805D+00
      2  -0.855079D-01  0.120946D+00 -0.248028D-01  0.215453D+00  0.499751D+00
      3   0.144941D+00  0.664763D-01  0.156382D+00 -0.129563D+00 -0.194764D+00
                36            37            38            39            40 
      1   0.392133D+00  0.560006D+00 -0.816312D+00  0.682035D-01  0.800574D-01
      2  -0.353083D+00 -0.270485D+00  0.725302D+00 -0.405574D-01 -0.268574D+00
      3   0.272266D+00  0.887014D-01 -0.157980D+00  0.133523D+00  0.445344D-01
                41            42 
      1   0.566766D+00 -0.255536D+00
      2   0.814339D+00 -0.211055D+00
      3  -0.773219D-01  0.311033D+00
 Hessian after L701:
                1             2             3             4             5 
      1  0.644898D+01
      2 -0.255789D+01  0.453661D+01
      3 -0.255380D+00  0.180251D+01  0.114740D+02
      4  0.357868D+00  0.109887D+00 -0.189367D+00  0.105406D+02
      5  0.902491D-01 -0.169061D+00 -0.662394D-01  0.559320D+00  0.125488D+02
      6 -0.961170D-01 -0.481985D-01 -0.202507D+00  0.720619D+00  0.679739D-01
      7  0.582243D+00  0.402351D+00  0.469567D+00 -0.143995D+01  0.252352D+00
      8  0.478069D+00 -0.178650D+00  0.183830D+00  0.304337D+00 -0.439913D+01
      9  0.283301D+00  0.897441D-01 -0.280217D+00 -0.152402D+01 -0.548801D-01
     10  0.126245D+00 -0.233459D-01  0.223674D-01 -0.297155D+01 -0.188821D+01
     11  0.478357D-01 -0.935948D-01  0.566806D-02 -0.194549D+01 -0.253926D+01
     12  0.612079D-02  0.352033D-02 -0.824173D-01  0.231396D+00 -0.212542D+00
     13 -0.380817D+01  0.365409D+01 -0.715507D+00  0.106566D+00 -0.719205D-01
     14  0.370790D+01 -0.234326D+01 -0.774330D+00  0.410558D-01 -0.186613D+00
     15 -0.698860D+00 -0.762331D+00 -0.648774D+01 -0.101000D-01  0.136013D-03
     16  0.238526D-01  0.133351D-01 -0.155296D-01 -0.378590D+01 -0.547937D-01
     17  0.257879D-01 -0.155479D-01 -0.667760D-02 -0.790884D-01 -0.370023D+01
     18 -0.548091D-01 -0.111429D-01 -0.535253D-02  0.418345D+00 -0.458827D+00
     19  0.172175D-01  0.943773D-02  0.407285D-02 -0.314050D+01  0.101389D+01
     20  0.307123D-01 -0.139333D-02  0.597114D-02  0.966147D+00 -0.170053D+01
     21  0.832610D-02  0.331922D-02 -0.793027D-02  0.268859D+00  0.527325D+00
     22  0.148585D-01  0.470013D-01  0.425946D-01 -0.116475D-01 -0.836075D-02
     23  0.858795D-01  0.151411D-01  0.595670D-01 -0.211789D-01  0.119147D+00
     24  0.729544D-01  0.507681D-01  0.481352D-03  0.456839D-01  0.601877D-01
     25  0.379177D-02 -0.608040D-02 -0.535194D-03  0.246745D-01 -0.763713D-01
     26 -0.530321D-01 -0.786446D-02 -0.333756D-01 -0.501761D-01  0.107917D+00
     27  0.254680D-01 -0.110647D-01 -0.979082D-02  0.884146D-01  0.540240D-01
     28  0.250848D-01 -0.783578D-02 -0.501596D-02  0.288754D-01  0.394124D-01
     29 -0.126952D-01 -0.631877D-02  0.136965D-02 -0.175260D-02 -0.709307D-02
     30 -0.270800D-01  0.861738D-02 -0.666603D-02 -0.418118D-01  0.215397D-01
     31  0.300884D-01 -0.355179D-02  0.614034D-02  0.841374D-01  0.430567D-01
     32  0.698966D-02 -0.738282D-02  0.150172D-02  0.565849D-01 -0.520823D-02
     33  0.828509D-02 -0.110290D-02 -0.552279D-02  0.482694D-01  0.961632D-02
     34  0.145821D-01 -0.770841D-02  0.451399D-02  0.109580D+00  0.127533D+00
     35 -0.272295D-01 -0.450622D-02 -0.652482D-02  0.686229D-01 -0.756439D-01
     36  0.250341D-01 -0.965493D-02 -0.895746D-02 -0.369706D-01  0.589919D-01
     37  0.292742D-01 -0.174328D+00  0.233841D-01  0.739321D-01 -0.430682D-01
     38 -0.131133D+00  0.780939D-01  0.526041D-01 -0.502673D-01  0.153886D-01
     39  0.221540D-01  0.435674D-01  0.283629D-01  0.707953D-03 -0.413596D-03
     40 -0.386592D+01 -0.145536D+01  0.608694D+00  0.233644D-01  0.169146D-01
[...]
 ! D1    D(14,1,5,3)            26.1714         -DE/DX =    0.0                 !
 ! D2    D(14,1,5,13)          175.4066         -DE/DX =    0.0                 !
 ! D3    D(4,2,3,5)           -179.0471         -DE/DX =    0.0                 !
 ! D4    D(4,2,3,8)             59.2327         -DE/DX =    0.0                 !
 ! D5    D(4,2,3,9)            -55.9658         -DE/DX =    0.0                 !
 ! D6    D(6,2,3,5)            -57.1633         -DE/DX =    0.0                 !
 ! D7    D(6,2,3,8)           -178.8836         -DE/DX =    0.0                 !
 ! D8    D(6,2,3,9)             65.9179         -DE/DX =    0.0                 !
 ! D9    D(7,2,3,5)             58.5768         -DE/DX =    0.0                 !
 ! D10   D(7,2,3,8)            -63.1435         -DE/DX =    0.0                 !
 ! D11   D(7,2,3,9)           -178.342          -DE/DX =    0.0                 !
 ! D12   D(3,2,4,10)            59.8799         -DE/DX =    0.0                 !
 ! D13   D(3,2,4,11)          -179.8579         -DE/DX =    0.0                 !
 ! D14   D(3,2,4,12)           -59.705          -DE/DX =    0.0                 !
 ! D15   D(6,2,4,10)           -61.5122         -DE/DX =    0.0                 !
 ! D16   D(6,2,4,11)            58.75           -DE/DX =    0.0                 !
 ! D17   D(6,2,4,12)           178.9029         -DE/DX =    0.0                 !
 ! D18   D(7,2,4,10)          -178.4355         -DE/DX =    0.0                 !
 ! D19   D(7,2,4,11)           -58.1734         -DE/DX =    0.0                 !
 ! D20   D(7,2,4,12)            61.9796         -DE/DX =    0.0                 !
 ! D21   D(2,3,5,1)           -173.664          -DE/DX =    0.0                 !
 ! D22   D(2,3,5,13)            39.7926         -DE/DX =    0.0                 !
 ! D23   D(8,3,5,1)            -52.1558         -DE/DX =    0.0                 !
 ! D24   D(8,3,5,13)           161.3009         -DE/DX =    0.0                 !
 ! D25   D(9,3,5,1)             64.1308         -DE/DX =    0.0                 !
 ! D26   D(9,3,5,13)           -82.4125         -DE/DX =    0.0                 !
 --------------------------------------------------------------------------------
 GradGradGradGradGradGradGradGradGradGradGradGradGradGradGradGradGradGrad

 Leave Link  103 at Tue Apr  9 01:36:53 2019, MaxMem=   671088640 cpu:               0.5 elap:               0.1
 (Enter /shared/centos7/gaussian/g16/l9999.exe)

 ----------------------------------------------------------------------

 Electric dipole moment (input orientation):
 (Debye = 10**-18 statcoulomb cm , SI units = C m)
                  (au)            (Debye)         (10**-30 SI)
   Tot        0.671486D+00      0.170675D+01      0.569310D+01
   x          0.409609D+00      0.104112D+01      0.347281D+01
   y         -0.443423D+00     -0.112707D+01     -0.375950D+01
   z          0.294092D+00      0.747509D+00      0.249342D+01

 Dipole polarizability, Alpha (input orientation).
 (esu units = cm**3 , SI units = C**2 m**2 J**-1)
 Alpha(0;0):
               (au)            (10**-24 esu)      (10**-40 SI)
   iso        0.548379D+02      0.812613D+01      0.904154D+01
   aniso      0.154073D+02      0.228313D+01      0.254032D+01
   xx         0.554534D+02      0.821734D+01      0.914303D+01
   yx        -0.810311D+01     -0.120076D+01     -0.133602D+01
   yy         0.555222D+02      0.822754D+01      0.915437D+01
   zx        -0.337945D+01     -0.500783D+00     -0.557197D+00
   zy         0.882470D+00      0.130769D+00      0.145500D+00
   zz         0.535380D+02      0.793352D+01      0.882723D+01

 ----------------------------------------------------------------------

 Dipole orientation:
     8          4.16433185         32.28183445         -4.54589756
     6          8.56017141         28.94155493         -0.03906190
     6          6.16449100         30.34432409         -0.82015276
     6          8.64372490         28.40253848          2.78747074
     6          6.06612669         30.83097086         -3.58542338
     1          8.67132254         27.16910473         -1.09188259
     1         10.20209366         30.05779331         -0.59863102
     1          6.06406047         32.14482087          0.20548151
     1          4.50406108         29.24964651         -0.20795070
     1          7.03975628         27.24341163          3.36374435
     1         10.36575130         27.40584584          3.31359418
     1          8.57152689         30.15445659          3.87153743
     1          6.69767854         29.41511183         -4.91646272
     1          3.56169933         33.42329457         -3.26989420

 Electric dipole moment (dipole orientation):
 (Debye = 10**-18 statcoulomb cm , SI units = C m)
                  (au)            (Debye)         (10**-30 SI)
   Tot        0.671486D+00      0.170675D+01      0.569310D+01
   x          0.000000D+00      0.000000D+00      0.000000D+00
   y          0.000000D+00      0.000000D+00      0.000000D+00
   z          0.671486D+00      0.170675D+01      0.569310D+01

 Dipole polarizability, Alpha (dipole orientation).
 (esu units = cm**3 , SI units = C**2 m**2 J**-1)
 Alpha(0;0):
               (au)            (10**-24 esu)      (10**-40 SI)
   iso        0.548379D+02      0.812613D+01      0.904154D+01
   aniso      0.154073D+02      0.228313D+01      0.254032D+01
   xx         0.541354D+02      0.802204D+01      0.892573D+01
   yx        -0.532423D+01     -0.788970D+00     -0.877847D+00
   yy         0.510501D+02      0.756485D+01      0.841703D+01
   zx         0.370478D+01      0.548992D+00      0.610836D+00
   zy        -0.442206D+01     -0.655281D+00     -0.729099D+00
   zz         0.593280D+02      0.879150D+01      0.978187D+01

 ----------------------------------------------------------------------

 Test job not archived.
 1\1\GINC-C0232\Freq\UM062X\6-311+G(2df,2p)\C4H9O1(2)\UNDERKOFFLER.C\09
 -Apr-2019\0\\#P Geom=AllCheck Guess=TCheck SCRF=Check Test GenChk UM06
 2X/6-311+G(2df,2p) Freq\\Gaussian input prepared by ASE\\0,2\O,4.95145
 27588,14.1081932765,8.8829856572\C,7.6353305654,11.9533650103,7.341283
 0365\C,6.6514538185,12.3883823567,8.4237733828\C,8.5006048021,10.77929
 01629,7.7810454328\C,5.7923822797,13.5195450706,7.9846898435\H,7.07633
 1151,11.6842448421,6.4420178098\H,8.2642031301,12.8038602485,7.0716489
 654\H,7.2100401385,12.6789327548,9.323077947\H,6.0355078428,11.5247005
 651,8.7191145703\H,7.8856536887,9.9127708138,8.0273123163\H,9.19813926
 92,10.4832289927,6.9988205196\H,9.0819258077,11.0356956907,8.667803436
 9\H,5.4005578038,13.5562669614,6.9775678919\H,5.2961782468,13.99381960
 97,9.7721289752\\Version=EM64L-G16RevA.03\State=2-A\HF=-232.9738657\S2
 =0.754498\S2-1=0.\S2A=0.750016\RMSD=4.388e-09\RMSF=1.455e-06\ZeroPoint
 =0.124136\Thermal=0.1310099\Dipole=0.4096089,-0.4434229,0.2940925\Dipo
 leDeriv=-0.7193072,0.3467953,0.3733687,0.2689588,-0.5940242,-0.1931499
 ,0.4537797,-0.3245823,-0.6920631,0.1321975,-0.0135607,0.0032718,0.0023
 989,0.1116994,0.0162102,-0.0188521,0.0348912,0.1059098,0.0535478,0.095
 8021,0.0965111,0.1825242,0.0865194,-0.0613306,-0.0079338,0.0244368,0.0
 522587,0.0478504,0.0496411,0.0054753,0.0466642,0.0381897,0.006196,0.01
 89199,-0.0090793,0.0650831,0.3679146,-0.4508219,-0.2693703,-0.4676983,
 0.1803,0.2413441,-0.2725567,0.2264079,0.5000143,-0.0311079,0.0073807,-
 0.0977773,0.004468,0.025335,-0.0338984,-0.0597363,-0.0294379,-0.097333
 6,-0.0216127,-0.0491319,0.0416166,-0.0675165,-0.0890102,0.055153,0.031
 2369,0.0237806,0.0291328,-0.011503,0.0003248,-0.0842625,0.0015907,0.01
 35218,-0.063906,-0.0566146,-0.0407071,-0.1170245,-0.0385634,-0.0572566
 ,0.0617972,-0.0389918,-0.1447824,0.0697476,0.0299536,0.0566029,0.01461
 64,-0.0247244,-0.1026034,0.0286157,-0.0438061,-0.0722165,0.0388708,0.0
 065764,0.0514841,0.050283,-0.0415719,0.0769536,0.0795539,0.0626453,0.0
 186392,-0.0232688,0.1030904,-0.0472167,-0.0364551,0.0030445,0.0037554,
 -0.0736175,-0.0249992,0.0207977,-0.0582129,-0.1076876,-0.0101936,-0.07
 49063,0.028359,0.0826605,-0.0705953,0.0620018,0.0789514,-0.0488734,-0.
 0322671,-0.0167958,-0.0600678,0.2554766,0.010061,-0.0945874,0.0117601,
 0.3260795,0.0551183,-0.0879088,0.0604095,0.2605525\Polar=55.4533845,-8
 .1031137,55.5221687,-3.3794537,0.8824701,53.538018\Quadrupole=-1.85087
 71,-1.804573,3.6554501,1.8282989,-0.086033,1.0976035\PG=C01 [X(C4H9O1)
 ]\NImag=0\\0.27860591,-0.16401353,0.12480443,0.04759036,0.03570166,0.6
 7930379,-0.00095794,0.00181977,-0.00010202,0.52710754,0.00511780,-0.00
 385210,-0.00035473,0.05907787,0.54029102,-0.00508015,0.00569663,0.0016
 0062,0.03225466,-0.00351114,0.53970961,-0.01296992,0.02479959,-0.00510
 548,-0.12390014,0.01910465,0.05210013,0.50519984,0.00829108,-0.0114515
 5,-0.00065371,0.01616977,-0.08325135,-0.01884878,0.01486204,0.50074042
 ,0.02414090,-0.02874005,0.00195219,0.05431925,-0.02149076,-0.14242517,
 0.02640410,0.00463640,0.53275509,-0.00068660,0.00130564,-0.00020905,-0
 .11819278,0.05197628,-0.02025071,-0.01681105,0.02066716,-0.00533788,0.
 54800853,0.00048215,0.00024789,0.00004264,0.05373859,-0.15353519,0.028
 70023,0.00892426,-0.01005473,0.00069400,0.03794743,0.51806072,0.002398
 71,-0.00232087,-0.00006086,-0.02310383,0.03158284,-0.09147294,0.015782
 20,-0.02124449,0.00819619,-0.02147241,0.02389294,0.56956759,-0.1694685
 8,0.09965553,0.12238841,-0.01570833,0.01632834,-0.00089071,-0.11375675
 ,0.08731157,-0.03903475,-0.00133933,0.00021719,0.00127568,0.36993227,0
 .10845058,-0.08703223,-0.08367401,0.00887533,-0.00990216,-0.00378748,0
 .06722515,-0.14884098,0.04259605,-0.00000403,-0.00040557,0.00027199,-0
 .22394279,0.29657429,0.08803222,-0.05212926,-0.21439861,0.01493317,-0.
 02112123,0.00844391,-0.02352370,0.04016565,-0.10838181,0.00321746,-0.0
 0079683,-0.00515115,0.02801612,0.01281753,0.66758673,0.00013111,-0.000
 13802,-0.00024088,-0.11723581,-0.03669597,-0.10982595,0.01075588,0.006
 92855,0.01947343,-0.01096714,-0.00425944,-0.01574718,0.00075921,-0.000
 32614,0.00082836,0.12823585,0.00012706,-0.00017568,0.00052635,-0.03688
 066,-0.06571309,-0.05469243,-0.00424491,-0.00342432,-0.00769652,0.0153
 9278,0.00612201,0.02320923,-0.00072395,0.00052690,-0.00128894,0.034601
 96,0.07067729,0.00042552,-0.00008167,0.00078676,-0.10908124,-0.0536991
 2,-0.22042324,-0.01094748,-0.00800065,-0.02168479,-0.00491962,-0.00160
 263,-0.00708101,-0.00101907,0.00112087,-0.00028570,0.11857132,0.059973
 27,0.24191042,0.00043002,0.00049245,-0.00064695,-0.13683130,-0.1201634
 9,0.03471244,-0.01443276,-0.01584098,0.00588994,0.01218198,0.01755234,
 -0.00518917,0.00048576,-0.00097605,0.00053732,-0.01031758,-0.01282172,
 0.00389051,0.14988942,-0.00023993,0.00010879,0.00022121,-0.12052189,-0
 .20609925,0.04757229,0.00667614,0.00835759,-0.00277672,-0.01380365,-0.
 02095444,0.00580724,0.00030748,0.00032660,-0.00049945,-0.00479747,-0.0
 0664039,0.00138332,0.12737785,0.22549944,-0.00045645,-0.00027555,0.000
 24419,0.03368763,0.04651751,-0.06366678,0.01643016,0.01839730,-0.00745
 195,0.00523799,0.00786625,-0.00249634,-0.00068826,0.00073390,0.0003736
 1,-0.01565126,-0.02120187,0.00691966,-0.04094964,-0.05231421,0.0680001
 6,0.00065517,-0.00047397,0.00126445,0.01074238,0.00699121,0.01862986,-
 0.11309072,-0.03640890,-0.10482911,0.00145342,-0.00062433,0.00051379,-
 0.00785515,-0.00165733,-0.01740187,-0.00237401,0.00185566,0.00364820,0
 .00101064,-0.00036469,-0.00077507,0.12317460,-0.00232442,0.00122449,0.
 00101444,-0.00469958,-0.00360197,-0.00788826,-0.03356255,-0.06411871,-
 0.05573037,-0.00100737,0.00028942,-0.00051104,0.01420211,0.00447174,0.
 02473489,0.00191432,0.00016258,-0.00115057,0.00032778,0.00037638,0.000
 72724,0.03548541,0.07154082,0.00058120,0.00059863,0.00296184,-0.011553
 03,-0.00746939,-0.02122935,-0.10184830,-0.05670287,-0.20526335,-0.0010
 3092,0.00084780,0.00089359,-0.00473231,0.00116248,-0.01281919,0.003641
 64,-0.00093550,-0.00257423,-0.00032553,0.00072398,0.00067093,0.1141366
 1,0.05969685,0.23004767,-0.00030196,-0.00254673,0.00024818,-0.01420756
 ,-0.01675089,0.00605228,-0.12174552,-0.10086456,0.03160031,0.00067994,
 -0.00151455,-0.00036216,0.01262300,0.01737664,-0.00542522,0.00107786,0
 .00034457,-0.00031927,-0.00191383,0.00185096,0.00357397,-0.01046579,-0
 .01383973,0.00342915,0.13450631,0.00315591,0.00269004,-0.00390340,0.00
 608743,0.00683463,-0.00254825,-0.11192771,-0.18859806,0.04445667,0.000
 26820,0.00120565,-0.00044541,-0.00810468,-0.02623644,0.01446823,-0.000
 37679,0.00031097,0.00058654,0.00220827,-0.00002064,-0.00146636,-0.0068
 9200,-0.00802417,0.00160119,0.11564485,0.21220414,-0.00141266,-0.00044
 773,0.00148034,0.01607133,0.01840732,-0.00737725,0.03464383,0.04445906
 ,-0.06031924,-0.00102660,0.00081990,0.00067639,0.00473675,0.01229658,-
 0.00502859,-0.00081538,0.00057185,0.00063088,0.00310737,-0.00126818,-0
 .00304328,-0.01529600,-0.02078250,0.00599139,-0.03894914,-0.05274204,0
 .06662786,-0.00002352,-0.00013117,0.00014676,0.01164674,0.01704834,-0.
 00408010,0.00154330,0.00009533,-0.00067323,-0.13565214,-0.12191168,0.0
 3410592,-0.00002463,0.00012001,-0.00030133,0.00097126,-0.00089056,0.00
 029685,-0.00169287,0.00379237,-0.00098111,-0.00006781,-0.00009550,0.00
 013634,-0.00009141,-0.00039271,0.00003035,0.14551739,0.00017152,-0.000
 00569,-0.00016875,-0.01470268,-0.02178570,0.00589649,-0.00152398,0.000
 79820,0.00033750,-0.12098167,-0.21172840,0.04553436,0.00021664,0.00044
 792,-0.00000923,0.00001969,0.00113769,-0.00000096,0.00395684,-0.002710
 61,0.00155426,0.00006299,-0.00008244,-0.00001978,0.00092038,0.00014803
 ,-0.00062300,0.13063778,0.23224329,-0.00007617,0.00004965,0.00002292,0
 .00616910,0.00889884,-0.00322555,-0.00017196,-0.00084596,0.00020527,0.
 03378765,0.04546027,-0.06076422,0.00004312,-0.00021186,-0.00008587,0.0
 0051615,-0.00015884,-0.00008654,-0.00154914,0.00155372,0.00017650,-0.0
 0009149,-0.00004316,-0.00001159,-0.00003394,-0.00005177,0.00040592,-0.
 03633520,-0.05258275,0.06149104,-0.00063761,0.00064194,0.00015133,-0.0
 1170075,0.00319380,0.01337792,-0.00143425,0.00333086,-0.00265284,-0.15
 674093,0.04493715,0.12470756,0.00016630,-0.00013314,0.00122264,0.00002
 629,-0.00066908,-0.00002540,0.00080490,-0.00011928,-0.00017851,0.00013
 756,0.00008052,0.00020395,0.00038049,0.00001386,-0.00036306,-0.0119377
 1,0.00541885,0.01317896,0.16848396,0.00073127,-0.00078800,-0.00010219,
 0.01576733,-0.00670841,-0.02021210,0.00251595,-0.00413543,0.00318309,0
 .04440631,-0.06551915,-0.05127756,0.00041577,0.00052830,-0.00143121,-0
 .00049027,0.00104139,0.00022144,-0.00087274,0.00052221,-0.00048564,-0.
 00022324,0.00005820,0.00033503,0.00024540,0.00028126,-0.00003541,-0.01
 596711,0.00794279,0.01964735,-0.05188241,0.06985689,-0.00016184,0.0002
 0024,-0.00005271,-0.00844023,0.00304649,0.00893440,-0.00119991,0.00156
 625,-0.00017360,0.12560731,-0.05225032,-0.19060560,-0.00019221,0.00017
 956,0.00073504,0.00035002,-0.00065840,0.00057190,0.00043244,-0.0006640
 4,0.00030753,-0.00001304,0.00029617,0.00027298,-0.00013600,-0.00001344
 ,-0.00009392,0.00303655,-0.00144316,-0.00513126,-0.13647897,0.05564274
 ,0.20383448,-0.00002003,0.00002159,0.00019301,-0.01102984,-0.00443069,
 -0.01531057,0.00065238,-0.00125985,-0.00093178,-0.12175941,-0.03560159
 ,-0.11322277,0.00010663,0.00017499,0.00009179,-0.00118309,0.00351519,-
 0.00068968,0.00078230,-0.00003293,0.00059847,-0.00015805,0.00056208,0.
 00061156,-0.00010771,-0.00002845,0.00000516,-0.01020568,-0.00405081,-0
 .01545754,0.01249306,0.00531062,0.01718525,0.13033069,-0.00012449,0.00
 004403,-0.00012290,0.01564283,0.00647137,0.02275358,-0.00079842,0.0012
 8561,0.00104064,-0.03611371,-0.06356236,-0.05459325,-0.00005678,-0.000
 12332,0.00032691,0.00372303,-0.00389607,0.00154383,-0.00090358,0.00119
 078,-0.00013352,-0.00018306,-0.00003721,-0.00056676,-0.00000942,-0.000
 02520,-0.00018976,-0.01232764,-0.00634390,-0.02173636,-0.00471976,-0.0
 0314797,-0.00586433,0.03590410,0.06813702,-0.00015383,0.00014825,0.000
 12573,-0.00510415,-0.00192710,-0.00874563,0.00067896,-0.00016802,0.000
 82891,-0.11346342,-0.05386080,-0.22258533,0.00029572,-0.00002253,0.000
 24124,-0.00061030,0.00199646,0.00072690,0.00026370,0.00015225,-0.00002
 670,-0.00043208,0.00015542,0.00057069,-0.00005765,0.00014633,-0.000039
 98,0.00457941,0.00151127,0.00702927,-0.01293247,-0.00572784,-0.0185418
 1,0.12682162,0.05774132,0.24049764,0.00839402,-0.00076679,0.02686053,0
 .00103871,-0.00078534,-0.00150685,-0.00164849,-0.00408614,-0.01113973,
 -0.00020724,0.00003675,0.00040938,-0.08306327,0.02714714,-0.12152456,0
 .00002370,0.00052977,0.00053394,-0.00045085,-0.00012313,0.00008081,-0.
 00198733,0.00319949,-0.00187200,-0.00038106,0.00070637,-0.00047474,0.0
 0004983,-0.00012952,0.00001072,-0.00007997,0.00009563,0.00003482,0.000
 16393,-0.00008049,0.00012267,0.07931209,-0.00357689,-0.00108730,-0.018
 75281,-0.00079753,0.00116385,0.00105791,0.01065318,0.00244915,0.020624
 18,-0.00001586,-0.00011714,-0.00015405,0.01937876,-0.03177978,0.005966
 59,-0.00002965,-0.00024312,-0.00062649,-0.00005862,0.00003009,-0.00013
 796,0.00164463,-0.00283861,0.00044546,-0.00090474,0.00053629,-0.000345
 80,-0.00001094,-0.00001840,0.00006063,-0.00000578,-0.00002779,-0.00006
 011,-0.00014356,0.00003055,-0.00011459,-0.02874957,0.03175440,-0.00462
 243,-0.00262244,-0.02469320,0.00018980,0.00008980,0.00047108,-0.002638
 42,-0.00336258,-0.00326531,0.00001146,0.00012734,0.00042185,-0.0993187
 3,0.01295719,-0.29679809,-0.00037188,0.00019945,0.00046615,-0.00015820
 ,0.00015117,0.00003123,0.00005379,0.00101355,0.00042847,0.00016954,-0.
 00020242,0.00011028,0.00002256,-0.00000995,-0.00001460,-0.00006362,0.0
 0008500,-0.00001387,0.00012392,-0.00016598,-0.00003038,0.10433803,-0.0
 0566475,0.32338173,-0.10315005,0.03933370,-0.19253867,-0.00077092,-0.0
 0001193,-0.00018224,0.00163820,0.00080406,0.00277141,0.00003277,0.0000
 7573,-0.00009572,0.00714288,-0.00233035,0.03129758,0.00009646,-0.00013
 609,-0.00036459,0.00005416,-0.00000183,0.00007125,-0.00117491,-0.00024
 257,-0.00137838,-0.00005275,-0.00036255,-0.00025720,-0.00003276,-0.000
 01604,0.00000975,0.00003865,-0.00005253,-0.00002418,-0.00006518,0.0000
 4740,-0.00000818,-0.00116405,0.00261657,0.00226419,0.09740750,0.043751
 89,-0.02472713,0.07022620,0.00042340,-0.00031165,-0.00018871,-0.002703
 41,0.00024414,-0.00113412,-0.00003753,-0.00004871,0.00024808,-0.005205
 18,0.00144472,-0.02120366,-0.00007379,0.00011384,0.00033281,-0.0002783
 7,0.00001344,0.00021864,0.00078762,0.00057947,0.00028287,0.00004779,-0
 .00130650,-0.00012029,0.00003348,-0.00004278,-0.00003977,-0.00008753,0
 .00009569,0.00002237,0.00005933,-0.00002332,-0.00003043,0.00300585,0.0
 0014783,-0.00259537,-0.03972356,0.02382096,-0.15120538,0.04422252,-0.4
 4927299,-0.00024045,0.00103064,-0.00059370,-0.00060414,0.00060241,0.00
 502758,-0.00015126,0.00005921,0.00046186,-0.01087976,0.00355973,-0.034
 43152,-0.00011809,0.00015590,0.00012287,-0.00001508,-0.00004258,-0.000
 03876,0.00059195,-0.00153268,0.00006015,0.00020994,0.00011413,-0.00002
 081,0.00001623,0.00002370,-0.00001127,-0.00014749,0.00015730,-0.000043
 57,-0.00001844,-0.00003343,-0.00005054,0.00412699,-0.00229822,-0.00049
 535,0.15843498,-0.04601862,0.47928606\\-0.00000162,-0.00000159,-0.0000
 0039,0.00000107,0.00000116,0.00000057,-0.00000076,-0.00000056,-0.00000
 028,0.00000067,0.00000057,0.00000018,-0.00000007,-0.00000030,-0.000000
 15,0.00000254,0.00000233,-0.00000073,0.00000138,0.00000162,0.00000277,
 -0.00000209,-0.00000189,0.00000095,-0.00000094,-0.00000121,-0.00000256
 ,0.00000039,0.00000014,-0.00000206,0.00000190,0.00000189,0.00000081,-0
 .00000079,-0.00000058,0.00000145,0.00000137,0.00000126,-0.00000051,-0.
 00000306,-0.00000286,-0.00000003\\\@


 IF YOU GIVE A BOY AND A PIG EVERYTHING THEY WANT,
 YOU'LL GET A BAD BOY AND A GOOD PIG.
 Job cpu time:       0 days  3 hours  3 minutes 15.5 seconds.
 Elapsed time:       0 days  0 hours  9 minutes 10.5 seconds.
 File lengths (MBytes):  RWF=   1376 Int=      0 D2E=      0 Chk=     32 Scr=     32
 Normal termination of Gaussian 16 at Tue Apr  9 01:36:53 2019.
