 Entering Gaussian System, Link 0=g16
 Input=DHVSQGCGLGSLDF-UHFFFAOYSA-N_GeoFreq_a2.com
 Output=DHVSQGCGLGSLDF-UHFFFAOYSA-N_GeoFreq_a2.log
 Initial command:
 /shared/centos7/gaussian/g16/l1.exe "/scratch/underkoffler.c/gaussian_scratch/Gau-39988.inp" -scrdir="/scratch/underkoffler.c/gaussian_scratch/"
 Entering Link 1 = /shared/centos7/gaussian/g16/l1.exe PID=     39989.
  
 Copyright (c) 1988,1990,1992,1993,1995,1998,2003,2009,2016,
            Gaussian, Inc.  All Rights Reserved.
  
 This is part of the Gaussian(R) 16 program.  It is based on
 the Gaussian(R) 09 system (copyright 2009, Gaussian, Inc.),
 the Gaussian(R) 03 system (copyright 2003, Gaussian, Inc.),
 the Gaussian(R) 98 system (copyright 1998, Gaussian, Inc.),
 the Gaussian(R) 94 system (copyright 1995, Gaussian, Inc.),
 the Gaussian 92(TM) system (copyright 1992, Gaussian, Inc.),
 the Gaussian 90(TM) system (copyright 1990, Gaussian, Inc.),
 the Gaussian 88(TM) system (copyright 1988, Gaussian, Inc.),
 the Gaussian 86(TM) system (copyright 1986, Carnegie Mellon
 University), and the Gaussian 82(TM) system (copyright 1983,
 Carnegie Mellon University). Gaussian is a federally registered
 trademark of Gaussian, Inc.
  
 This software contains proprietary and confidential information,
 including trade secrets, belonging to Gaussian, Inc.
  
 This software is provided under written license and may be
 used, copied, transmitted, or stored only in accord with that
 written license.
  
 The following legend is applicable only to US Government
 contracts under FAR:
  
                    RESTRICTED RIGHTS LEGEND
  
 Use, reproduction and disclosure by the US Government is
 subject to restrictions as set forth in subparagraphs (a)
 and (c) of the Commercial Computer Software - Restricted
 Rights clause in FAR 52.227-19.
  
 Gaussian, Inc.
 340 Quinnipiac St., Bldg. 40, Wallingford CT 06492
  
  
 ---------------------------------------------------------------
 Warning -- This program may not be used in any manner that
 competes with the business of Gaussian, Inc. or will provide
 assistance to any competitor of Gaussian, Inc.  The licensee
 of this program is prohibited from giving any competitor of
 Gaussian, Inc. access to this program.  By using this program,
 the user acknowledges that Gaussian, Inc. is engaged in the
 business of creating and licensing software in the field of
 computational chemistry and represents and warrants to the
 licensee that it is not a competitor of Gaussian, Inc. and that
 it will not use this program in any manner prohibited above.
 ---------------------------------------------------------------
  

 Cite this work as:
 Gaussian 16, Revision A.03,
 M. J. Frisch, G. W. Trucks, H. B. Schlegel, G. E. Scuseria, 
 M. A. Robb, J. R. Cheeseman, G. Scalmani, V. Barone, 
 G. A. Petersson, H. Nakatsuji, X. Li, M. Caricato, A. V. Marenich, 
 J. Bloino, B. G. Janesko, R. Gomperts, B. Mennucci, H. P. Hratchian, 
 J. V. Ortiz, A. F. Izmaylov, J. L. Sonnenberg, D. Williams-Young, 
 F. Ding, F. Lipparini, F. Egidi, J. Goings, B. Peng, A. Petrone, 
 T. Henderson, D. Ranasinghe, V. G. Zakrzewski, J. Gao, N. Rega, 
 G. Zheng, W. Liang, M. Hada, M. Ehara, K. Toyota, R. Fukuda, 
 J. Hasegawa, M. Ishida, T. Nakajima, Y. Honda, O. Kitao, H. Nakai, 
 T. Vreven, K. Throssell, J. A. Montgomery, Jr., J. E. Peralta, 
 F. Ogliaro, M. J. Bearpark, J. J. Heyd, E. N. Brothers, K. N. Kudin, 
 V. N. Staroverov, T. A. Keith, R. Kobayashi, J. Normand, 
 K. Raghavachari, A. P. Rendell, J. C. Burant, S. S. Iyengar, 
 J. Tomasi, M. Cossi, J. M. Millam, M. Klene, C. Adamo, R. Cammi, 
 J. W. Ochterski, R. L. Martin, K. Morokuma, O. Farkas, 
 J. B. Foresman, and D. J. Fox, Gaussian, Inc., Wallingford CT, 2016.
 
 ******************************************
 Gaussian 16:  EM64L-G16RevA.03 25-Dec-2016
                13-Mar-2019 
 ******************************************
 %nprocshared=20
 Will use up to   20 processors via shared memory.
 %mem=5GB
 ----------------------------------------------------------------------
 #p m062x/6-311+g(2df,2p) opt=(calcfc,verytight,gdiis,maxcycles=900) fr
 eq iop(7/33=1,2/16=3)
 ----------------------------------------------------------------------

 Warning!  Use of Opt=GDIIS is deprecated since it is seldom a good choice.

 1/6=900,7=1,10=4,18=20,19=11,26=3,38=1/1,3;
 2/9=110,12=2,16=3,17=6,18=5,40=1/2;
 3/5=4,6=6,7=214,11=2,25=1,30=1,71=2,74=-55,140=1/1,2,3;
 4//1;
 5/5=2,38=5/2;
 8/6=4,10=90,11=11/1;
 11/6=1,8=1,9=11,15=111,16=1/1,2,10;
 10/6=1,13=1/2;
 6/7=2,8=2,9=2,10=2,28=1/1;
 7/10=1,18=20,25=1,33=1/1,2,3,16;
 1/6=900,7=1,10=4,18=20,19=11,26=3/3(2);
 2/9=110,16=3/2;
 99//99;
 2/9=110,16=3/2;
 3/5=4,6=6,7=214,11=2,25=1,30=1,71=1,74=-55/1,2,3;
 4/5=5,16=3,69=1/1;
 5/5=2,38=5/2;
 7/33=1/1,2,3,16;
 1/6=900,7=1,18=20,19=11,26=3/3(-5);
 2/9=110,16=3/2;
 6/7=2,8=2,9=2,10=2,19=2,28=1/1;
 99/9=1/99;
 Leave Link    1 at Wed Mar 13 04:05:26 2019, MaxMem=   671088640 cpu:              26.3 elap:               1.4
 (Enter /shared/centos7/gaussian/g16/l101.exe)
 ------------------------------
 Gaussian input prepared by ASE
 ------------------------------
 Symbolic Z-matrix:
 Charge =  0 Multiplicity = 2
 O                    -1.76214  -0.74223   0.28722 
 C                     1.07015   0.28927   0.58943 
 C                    -0.1062    1.05012  -0.03741 
 C                     1.7396   -0.67273  -0.38534 
 C                    -1.18523   0.16326  -0.55468 
 H                     1.79578   1.01615   0.95685 
 H                     0.7371   -0.25561   1.47936 
 H                    -0.50902   1.75392   0.70564 
 H                     0.26281   1.65235  -0.86978 
 H                     2.09239  -0.13738  -1.26789 
 H                     2.59388  -1.17035   0.0717 
 H                     1.03997  -1.43615  -0.72593 
 H                    -1.87512   0.50312  -1.31259 
 H                    -1.15053  -0.96774   0.99294 
 
 ITRead=  0  0  0  0  0  0  0  0  0  0  0  0  0  0
 MicOpt= -1 -1 -1 -1 -1 -1 -1 -1 -1 -1 -1 -1 -1 -1
 NAtoms=     14 NQM=       14 NQMF=       0 NMMI=      0 NMMIF=      0
                NMic=       0 NMicF=      0.
                    Isotopes and Nuclear Properties:
 (Nuclear quadrupole moments (NQMom) in fm**2, nuclear magnetic moments (NMagM)
  in nuclear magnetons)

  Atom         1           2           3           4           5           6           7           8           9          10
 IAtWgt=          16          12          12          12          12           1           1           1           1           1
 AtmWgt=  15.9949146  12.0000000  12.0000000  12.0000000  12.0000000   1.0078250   1.0078250   1.0078250   1.0078250   1.0078250
 NucSpn=           0           0           0           0           0           1           1           1           1           1
 AtZEff=  -0.0000000  -0.0000000  -0.0000000  -0.0000000  -0.0000000  -0.0000000  -0.0000000  -0.0000000  -0.0000000  -0.0000000
 NQMom=    0.0000000   0.0000000   0.0000000   0.0000000   0.0000000   0.0000000   0.0000000   0.0000000   0.0000000   0.0000000
 NMagM=    0.0000000   0.0000000   0.0000000   0.0000000   0.0000000   2.7928460   2.7928460   2.7928460   2.7928460   2.7928460
 AtZNuc=   8.0000000   6.0000000   6.0000000   6.0000000   6.0000000   1.0000000   1.0000000   1.0000000   1.0000000   1.0000000

  Atom        11          12          13          14
 IAtWgt=           1           1           1           1
 AtmWgt=   1.0078250   1.0078250   1.0078250   1.0078250
 NucSpn=           1           1           1           1
 AtZEff=  -0.0000000  -0.0000000  -0.0000000  -0.0000000
 NQMom=    0.0000000   0.0000000   0.0000000   0.0000000
 NMagM=    2.7928460   2.7928460   2.7928460   2.7928460
 AtZNuc=   1.0000000   1.0000000   1.0000000   1.0000000
 Leave Link  101 at Wed Mar 13 04:05:26 2019, MaxMem=   671088640 cpu:               6.3 elap:               0.3
 (Enter /shared/centos7/gaussian/g16/l103.exe)

 GradGradGradGradGradGradGradGradGradGradGradGradGradGradGradGradGradGrad
 Berny optimization.
 Initialization pass.
                           ----------------------------
                           !    Initial Parameters    !
                           ! (Angstroms and Degrees)  !
 --------------------------                            --------------------------
 ! Name  Definition              Value          Derivative Info.                !
 --------------------------------------------------------------------------------
 ! R1    R(1,5)                  1.3644         calculate D2E/DX2 analytically  !
 ! R2    R(1,14)                 0.9607         calculate D2E/DX2 analytically  !
 ! R3    R(2,3)                  1.5348         calculate D2E/DX2 analytically  !
 ! R4    R(2,4)                  1.5244         calculate D2E/DX2 analytically  !
 ! R5    R(2,6)                  1.0908         calculate D2E/DX2 analytically  !
 ! R6    R(2,7)                  1.0953         calculate D2E/DX2 analytically  !
 ! R7    R(3,5)                  1.4894         calculate D2E/DX2 analytically  !
 ! R8    R(3,8)                  1.0999         calculate D2E/DX2 analytically  !
 ! R9    R(3,9)                  1.0916         calculate D2E/DX2 analytically  !
 ! R10   R(4,10)                 1.0908         calculate D2E/DX2 analytically  !
 ! R11   R(4,11)                 1.0892         calculate D2E/DX2 analytically  !
 ! R12   R(4,12)                 1.0901         calculate D2E/DX2 analytically  !
 ! R13   R(5,13)                 1.0798         calculate D2E/DX2 analytically  !
 ! A1    A(5,1,14)             109.869          calculate D2E/DX2 analytically  !
 ! A2    A(3,2,4)              112.8469         calculate D2E/DX2 analytically  !
 ! A3    A(3,2,6)              108.4863         calculate D2E/DX2 analytically  !
 ! A4    A(3,2,7)              110.2044         calculate D2E/DX2 analytically  !
 ! A5    A(4,2,6)              110.1069         calculate D2E/DX2 analytically  !
 ! A6    A(4,2,7)              109.8245         calculate D2E/DX2 analytically  !
 ! A7    A(6,2,7)              105.0753         calculate D2E/DX2 analytically  !
 ! A8    A(2,3,5)              113.6984         calculate D2E/DX2 analytically  !
 ! A9    A(2,3,8)              108.7841         calculate D2E/DX2 analytically  !
 ! A10   A(2,3,9)              109.0144         calculate D2E/DX2 analytically  !
 ! A11   A(5,3,8)              110.5065         calculate D2E/DX2 analytically  !
 ! A12   A(5,3,9)              107.9733         calculate D2E/DX2 analytically  !
 ! A13   A(8,3,9)              106.6136         calculate D2E/DX2 analytically  !
 ! A14   A(2,4,10)             110.4671         calculate D2E/DX2 analytically  !
 ! A15   A(2,4,11)             111.373          calculate D2E/DX2 analytically  !
 ! A16   A(2,4,12)             111.0933         calculate D2E/DX2 analytically  !
 ! A17   A(10,4,11)            108.0626         calculate D2E/DX2 analytically  !
 ! A18   A(10,4,12)            107.3667         calculate D2E/DX2 analytically  !
 ! A19   A(11,4,12)            108.3326         calculate D2E/DX2 analytically  !
 ! A20   A(1,5,3)              119.157          calculate D2E/DX2 analytically  !
 ! A21   A(1,5,13)             111.8301         calculate D2E/DX2 analytically  !
 ! A22   A(3,5,13)             121.2811         calculate D2E/DX2 analytically  !
 ! D1    D(14,1,5,3)           -25.3624         calculate D2E/DX2 analytically  !
 ! D2    D(14,1,5,13)         -175.1301         calculate D2E/DX2 analytically  !
 ! D3    D(4,2,3,5)             58.9101         calculate D2E/DX2 analytically  !
 ! D4    D(4,2,3,8)           -177.4902         calculate D2E/DX2 analytically  !
 ! D5    D(4,2,3,9)            -61.6007         calculate D2E/DX2 analytically  !
 ! D6    D(6,2,3,5)           -178.8004         calculate D2E/DX2 analytically  !
 ! D7    D(6,2,3,8)            -55.2007         calculate D2E/DX2 analytically  !
 ! D8    D(6,2,3,9)             60.6888         calculate D2E/DX2 analytically  !
 ! D9    D(7,2,3,5)            -64.2649         calculate D2E/DX2 analytically  !
 ! D10   D(7,2,3,8)             59.3349         calculate D2E/DX2 analytically  !
 ! D11   D(7,2,3,9)            175.2244         calculate D2E/DX2 analytically  !
 ! D12   D(3,2,4,10)            57.6795         calculate D2E/DX2 analytically  !
 ! D13   D(3,2,4,11)           177.7757         calculate D2E/DX2 analytically  !
 ! D14   D(3,2,4,12)           -61.3622         calculate D2E/DX2 analytically  !
 ! D15   D(6,2,4,10)           -63.6959         calculate D2E/DX2 analytically  !
 ! D16   D(6,2,4,11)            56.4002         calculate D2E/DX2 analytically  !
 ! D17   D(6,2,4,12)           177.2624         calculate D2E/DX2 analytically  !
 ! D18   D(7,2,4,10)          -178.9348         calculate D2E/DX2 analytically  !
 ! D19   D(7,2,4,11)           -58.8386         calculate D2E/DX2 analytically  !
 ! D20   D(7,2,4,12)            62.0236         calculate D2E/DX2 analytically  !
 ! D21   D(2,3,5,1)             55.5151         calculate D2E/DX2 analytically  !
 ! D22   D(2,3,5,13)          -157.6399         calculate D2E/DX2 analytically  !
 ! D23   D(8,3,5,1)            -67.1425         calculate D2E/DX2 analytically  !
 ! D24   D(8,3,5,13)            79.7026         calculate D2E/DX2 analytically  !
 ! D25   D(9,3,5,1)            176.6099         calculate D2E/DX2 analytically  !
 ! D26   D(9,3,5,13)           -36.545          calculate D2E/DX2 analytically  !
 --------------------------------------------------------------------------------
 Trust Radius=3.00D-01 FncErr=1.00D-07 GrdErr=1.00D-06 EigMax=2.50D+02 EigMin=1.00D-04
 Number of steps in this run=    100 maximum allowed number of steps=    100.
 GradGradGradGradGradGradGradGradGradGradGradGradGradGradGradGradGradGrad

 Leave Link  103 at Wed Mar 13 04:05:26 2019, MaxMem=   671088640 cpu:               0.2 elap:               0.0
 (Enter /shared/centos7/gaussian/g16/l202.exe)
                          Input orientation:                          
 ---------------------------------------------------------------------
 Center     Atomic      Atomic             Coordinates (Angstroms)
 Number     Number       Type             X           Y           Z
 ---------------------------------------------------------------------
      1          8           0       -1.762144   -0.742234    0.287216
      2          6           0        1.070155    0.289266    0.589430
      3          6           0       -0.106204    1.050125   -0.037412
      4          6           0        1.739600   -0.672727   -0.385343
      5          6           0       -1.185233    0.163264   -0.554678
      6          1           0        1.795779    1.016147    0.956846
      7          1           0        0.737098   -0.255607    1.479357
      8          1           0       -0.509020    1.753922    0.705637
      9          1           0        0.262811    1.652351   -0.869776
     10          1           0        2.092389   -0.137380   -1.267894
     11          1           0        2.593876   -1.170350    0.071700
     12          1           0        1.039966   -1.436151   -0.725927
     13          1           0       -1.875119    0.503117   -1.312594
     14          1           0       -1.150531   -0.967742    0.992941
 ---------------------------------------------------------------------
                    Distance matrix (angstroms):
                    1          2          3          4          5
     1  O    0.000000
     2  C    3.029397   0.000000
     3  C    2.461721   1.534815   0.000000
     4  C    3.566424   1.524392   2.548778   0.000000
     5  C    1.364382   2.532121   1.489426   3.046671   0.000000
     6  H    4.024814   1.090817   2.146449   2.157990   3.449427
     7  H    2.811444   1.095346   2.171792   2.157801   2.829860
     8  H    2.824215   2.156969   1.099869   3.483555   2.139124
     9  H    3.342620   2.153854   1.091640   2.796707   2.100833
    10  H    4.200195   2.162554   2.785330   1.090850   3.367769
    11  H    4.382310   2.172613   3.497549   1.089176   4.056173
    12  H    3.059379   2.169825   2.823000   1.090092   2.745718
    13  H    2.030531   3.512558   2.248192   3.912620   1.079759
    14  H    0.960714   2.583474   2.494801   3.215518   1.917160
                    6          7          8          9         10
     6  H    0.000000
     7  H    1.735276   0.000000
     8  H    2.433006   2.487903   0.000000
     9  H    2.468055   3.063279   1.757261   0.000000
    10  H    2.523504   3.065645   3.773483   2.590172   0.000000
    11  H    2.490223   2.503173   4.310592   3.779931   1.764378
    12  H    3.068671   2.519661   3.824304   3.188026   1.757307
    13  H    4.346153   3.897991   2.739342   2.467300   4.019124
    14  H    3.552163   2.075302   2.810967   3.511714   4.039481
                   11         12         13         14
    11  H    0.000000
    12  H    1.766775   0.000000
    13  H    4.968770   3.550022   0.000000
    14  H    3.861388   2.823507   2.829125   0.000000
 Stoichiometry    C4H9O(2)
 Framework group  C1[X(C4H9O)]
 Deg. of freedom    36
 Full point group                 C1      NOp   1
 Largest Abelian subgroup         C1      NOp   1
 Largest concise Abelian subgroup C1      NOp   1
                         Standard orientation:                         
 ---------------------------------------------------------------------
 Center     Atomic      Atomic             Coordinates (Angstroms)
 Number     Number       Type             X           Y           Z
 ---------------------------------------------------------------------
      1          8           0       -1.762144   -0.742234    0.287216
      2          6           0        1.070155    0.289266    0.589430
      3          6           0       -0.106204    1.050125   -0.037412
      4          6           0        1.739600   -0.672727   -0.385343
      5          6           0       -1.185233    0.163264   -0.554678
      6          1           0        1.795779    1.016147    0.956846
      7          1           0        0.737098   -0.255607    1.479357
      8          1           0       -0.509020    1.753922    0.705637
      9          1           0        0.262811    1.652351   -0.869776
     10          1           0        2.092389   -0.137380   -1.267894
     11          1           0        2.593876   -1.170350    0.071700
     12          1           0        1.039966   -1.436151   -0.725927
     13          1           0       -1.875119    0.503117   -1.312594
     14          1           0       -1.150531   -0.967742    0.992941
 ---------------------------------------------------------------------
 Rotational constants (GHZ):           8.3445970           3.1976629           2.8376753
 Leave Link  202 at Wed Mar 13 04:05:27 2019, MaxMem=   671088640 cpu:               0.2 elap:               0.0
 (Enter /shared/centos7/gaussian/g16/l301.exe)
 Standard basis: 6-311+G(2df,2p) (5D, 7F)
 Ernie: Thresh=  0.10000D-02 Tol=  0.10000D-05 Strict=F.
 There are   276 symmetry adapted cartesian basis functions of A   symmetry.
 There are   251 symmetry adapted basis functions of A   symmetry.
   251 basis functions,   359 primitive gaussians,   276 cartesian basis functions
    21 alpha electrons       20 beta electrons
       nuclear repulsion energy       183.3450593694 Hartrees.
 IExCor= 4336 DFT=T Ex+Corr=M062X ExCW=0 ScaHFX=  0.540000
 ScaDFX=  1.000000  1.000000  1.000000  1.000000 ScalE2=  1.000000  1.000000
 IRadAn=      5 IRanWt=     -1 IRanGd=            0 ICorTp=0 IEmpDi=  4
 NAtoms=   14 NActive=   14 NUniq=   14 SFac= 1.00D+00 NAtFMM=   60 NAOKFM=F Big=F
 Integral buffers will be    131072 words long.
 Raffenetti 2 integral format.
 Two-electron integral symmetry is turned on.
 Leave Link  301 at Wed Mar 13 04:05:27 2019, MaxMem=   671088640 cpu:               1.2 elap:               0.1
 (Enter /shared/centos7/gaussian/g16/l302.exe)
 NPDir=0 NMtPBC=     1 NCelOv=     1 NCel=       1 NClECP=     1 NCelD=      1
         NCelK=      1 NCelE2=     1 NClLst=     1 CellRange=     0.0.
 One-electron integrals computed using PRISM.
 One-electron integral symmetry used in STVInt
 NBasis=   251 RedAO= T EigKep=  4.39D-05  NBF=   251
 NBsUse=   251 1.00D-06 EigRej= -1.00D+00 NBFU=   251
 Precomputing XC quadrature grid using
 IXCGrd= 4 IRadAn=           5 IRanWt=          -1 IRanGd=           0 AccXCQ= 0.00D+00.
 Generated NRdTot=       0 NPtTot=           0 NUsed=           0 NTot=          32
 NSgBfM=   276   276   276   276   276 MxSgAt=    14 MxSgA2=    14.
 Leave Link  302 at Wed Mar 13 04:05:27 2019, MaxMem=   671088640 cpu:               5.3 elap:               0.3
 (Enter /shared/centos7/gaussian/g16/l303.exe)
 DipDrv:  MaxL=1.
 Leave Link  303 at Wed Mar 13 04:05:27 2019, MaxMem=   671088640 cpu:               0.6 elap:               0.1
 (Enter /shared/centos7/gaussian/g16/l401.exe)
 ExpMin= 4.38D-02 ExpMax= 8.59D+03 ExpMxC= 1.30D+03 IAcc=3 IRadAn=         5 AccDes= 0.00D+00
 Harris functional with IExCor= 1009 and IRadAn=       5 diagonalized for initial guess.
 HarFok:  IExCor= 1009 AccDes= 0.00D+00 IRadAn=         5 IDoV= 1 UseB2=F ITyADJ=14
 ICtDFT=  3500011 ScaDFX=  1.000000  1.000000  1.000000  1.000000
 FoFCou: FMM=F IPFlag=           0 FMFlag=      100000 FMFlg1=           0
         NFxFlg=           0 DoJE=T BraDBF=F KetDBF=T FulRan=T
         wScrn=  0.000000 ICntrl=       500 IOpCl=  0 I1Cent=   200000004 NGrid=           0
         NMat0=    1 NMatS0=      1 NMatT0=    0 NMatD0=    1 NMtDS0=    0 NMtDT0=    0
 Petite list used in FoFCou.
 Harris En= -232.910436120221    
 JPrj=0 DoOrth=F DoCkMO=F.
 Initial guess <Sx>= 0.0000 <Sy>= 0.0000 <Sz>= 0.5000 <S**2>= 0.7500 S= 0.5000
 Leave Link  401 at Wed Mar 13 04:05:28 2019, MaxMem=   671088640 cpu:              17.5 elap:               0.9
 (Enter /shared/centos7/gaussian/g16/l502.exe)
 Integral symmetry usage will be decided dynamically.
 UHF open shell SCF:
 Using DIIS extrapolation, IDIIS=  1040.
 NGot=   671088640 LenX=   670928170 LenY=   670851553
 Requested convergence on RMS density matrix=1.00D-08 within 128 cycles.
 Requested convergence on MAX density matrix=1.00D-06.
 Requested convergence on             energy=1.00D-06.
 No special actions if energy rises.
 Fock matrices will be formed incrementally for  20 cycles.

 Cycle   1  Pass 1  IDiag  1:
 FoFJK:  IHMeth= 1 ICntrl=       0 DoSepK=F KAlg= 0 I1Cent=           0 FoldK=F
 IRaf= 990000000 NMat=       1 IRICut=       1 DoRegI=T DoRafI=F ISym2E= 0 IDoP0=0 IntGTp=1.
 FoFCou: FMM=F IPFlag=           0 FMFlag=      100000 FMFlg1=           0
         NFxFlg=           0 DoJE=F BraDBF=F KetDBF=F FulRan=T
         wScrn=  0.000000 ICntrl=         0 IOpCl=  1 I1Cent=           0 NGrid=           0
         NMat0=    1 NMatS0=      1 NMatT0=    0 NMatD0=    1 NMtDS0=    0 NMtDT0=    0
 Symmetry not used in FoFCou.
 E= -232.774559206810    
 DIIS: error= 2.43D-02 at cycle   1 NSaved=   1.
 NSaved= 1 IEnMin= 1 EnMin= -232.774559206810     IErMin= 1 ErrMin= 2.43D-02
 ErrMax= 2.43D-02  0.00D+00 EMaxC= 1.00D-01 BMatC= 9.32D-01 BMatP= 9.32D-01
 IDIUse=3 WtCom= 7.57D-01 WtEn= 2.43D-01
 Coeff-Com:  0.100D+01
 Coeff-En:   0.100D+01
 Coeff:      0.100D+01
 Gap=     0.195 Goal=   None    Shift=    0.000
 Gap=     0.403 Goal=   None    Shift=    0.000
 GapD=    0.195 DampG=1.000 DampE=0.500 DampFc=0.5000 IDamp=-1.
 Damping current iteration by 5.00D-01
 RMSDP=7.26D-03 MaxDP=1.03D+00              OVMax= 1.49D-01

 Cycle   2  Pass 1  IDiag  1:
 RMSU=  3.55D-03    CP:  1.08D+00
 E= -232.875407901815     Delta-E=       -0.100848695005 Rises=F Damp=T
 DIIS: error= 6.83D-03 at cycle   2 NSaved=   2.
 NSaved= 2 IEnMin= 2 EnMin= -232.875407901815     IErMin= 2 ErrMin= 6.83D-03
 ErrMax= 6.83D-03  0.00D+00 EMaxC= 1.00D-01 BMatC= 5.67D-02 BMatP= 9.32D-01
 IDIUse=3 WtCom= 9.32D-01 WtEn= 6.83D-02
 Coeff-Com: -0.985D-01 0.110D+01
 Coeff-En:   0.000D+00 0.100D+01
 Coeff:     -0.918D-01 0.109D+01
 Gap=     0.235 Goal=   None    Shift=    0.000
 Gap=     0.416 Goal=   None    Shift=    0.000
 RMSDP=2.83D-03 MaxDP=3.99D-01 DE=-1.01D-01 OVMax= 8.19D-02

 Cycle   3  Pass 1  IDiag  1:
 RMSU=  1.54D-03    CP:  1.01D+00  3.60D-01
 E= -232.972236627502     Delta-E=       -0.096828725687 Rises=F Damp=F
 DIIS: error= 2.90D-03 at cycle   3 NSaved=   3.
 NSaved= 3 IEnMin= 3 EnMin= -232.972236627502     IErMin= 3 ErrMin= 2.90D-03
 ErrMax= 2.90D-03  0.00D+00 EMaxC= 1.00D-01 BMatC= 9.07D-03 BMatP= 5.67D-02
 IDIUse=3 WtCom= 9.71D-01 WtEn= 2.90D-02
 Coeff-Com: -0.728D-01 0.269D+00 0.804D+00
 Coeff-En:   0.000D+00 0.000D+00 0.100D+01
 Coeff:     -0.707D-01 0.261D+00 0.810D+00
 Gap=     0.234 Goal=   None    Shift=    0.000
 Gap=     0.386 Goal=   None    Shift=    0.000
 RMSDP=1.97D-04 MaxDP=1.91D-02 DE=-9.68D-02 OVMax= 1.10D-02

 Cycle   4  Pass 1  IDiag  1:
 RMSU=  1.68D-04    CP:  1.01D+00  3.89D-01  1.00D+00
 E= -232.973979607156     Delta-E=       -0.001742979654 Rises=F Damp=F
 DIIS: error= 8.85D-04 at cycle   4 NSaved=   4.
 NSaved= 4 IEnMin= 4 EnMin= -232.973979607156     IErMin= 4 ErrMin= 8.85D-04
 ErrMax= 8.85D-04  0.00D+00 EMaxC= 1.00D-01 BMatC= 1.36D-03 BMatP= 9.07D-03
 IDIUse=3 WtCom= 9.91D-01 WtEn= 8.85D-03
 Coeff-Com: -0.219D-01 0.521D-01 0.316D+00 0.654D+00
 Coeff-En:   0.000D+00 0.000D+00 0.000D+00 0.100D+01
 Coeff:     -0.217D-01 0.516D-01 0.313D+00 0.657D+00
 Gap=     0.232 Goal=   None    Shift=    0.000
 Gap=     0.386 Goal=   None    Shift=    0.000
 RMSDP=1.11D-04 MaxDP=1.30D-02 DE=-1.74D-03 OVMax= 7.98D-03

 Cycle   5  Pass 1  IDiag  1:
 RMSU=  7.08D-05    CP:  1.00D+00  3.69D-01  1.02D+00  8.74D-01
 E= -232.974271653911     Delta-E=       -0.000292046755 Rises=F Damp=F
 DIIS: error= 4.12D-04 at cycle   5 NSaved=   5.
 NSaved= 5 IEnMin= 5 EnMin= -232.974271653911     IErMin= 5 ErrMin= 4.12D-04
 ErrMax= 4.12D-04  0.00D+00 EMaxC= 1.00D-01 BMatC= 2.39D-04 BMatP= 1.36D-03
 IDIUse=3 WtCom= 9.96D-01 WtEn= 4.12D-03
 Coeff-Com: -0.155D-02-0.669D-02 0.406D-01 0.295D+00 0.672D+00
 Coeff-En:   0.000D+00 0.000D+00 0.000D+00 0.000D+00 0.100D+01
 Coeff:     -0.154D-02-0.666D-02 0.404D-01 0.294D+00 0.674D+00
 Gap=     0.233 Goal=   None    Shift=    0.000
 Gap=     0.386 Goal=   None    Shift=    0.000
 RMSDP=4.78D-05 MaxDP=2.48D-03 DE=-2.92D-04 OVMax= 2.61D-03

 Cycle   6  Pass 1  IDiag  1:
 RMSU=  3.87D-05    CP:  1.00D+00  3.64D-01  1.03D+00  9.64D-01  1.01D+00
 E= -232.974335990986     Delta-E=       -0.000064337075 Rises=F Damp=F
 DIIS: error= 1.51D-04 at cycle   6 NSaved=   6.
 NSaved= 6 IEnMin= 6 EnMin= -232.974335990986     IErMin= 6 ErrMin= 1.51D-04
 ErrMax= 1.51D-04  0.00D+00 EMaxC= 1.00D-01 BMatC= 2.11D-05 BMatP= 2.39D-04
 IDIUse=3 WtCom= 9.98D-01 WtEn= 1.51D-03
 Coeff-Com:  0.452D-02-0.112D-01-0.672D-01-0.994D-01-0.414D-02 0.118D+01
 Coeff-En:   0.000D+00 0.000D+00 0.000D+00 0.000D+00 0.000D+00 0.100D+01
 Coeff:      0.451D-02-0.111D-01-0.671D-01-0.992D-01-0.413D-02 0.118D+01
 Gap=     0.234 Goal=   None    Shift=    0.000
 Gap=     0.387 Goal=   None    Shift=    0.000
 RMSDP=4.50D-05 MaxDP=5.04D-03 DE=-6.43D-05 OVMax= 3.13D-03

 Cycle   7  Pass 1  IDiag  1:
 RMSU=  1.87D-05    CP:  1.00D+00  3.54D-01  1.04D+00  1.02D+00  1.16D+00
                    CP:  1.28D+00
 E= -232.974354781695     Delta-E=       -0.000018790709 Rises=F Damp=F
 DIIS: error= 6.48D-05 at cycle   7 NSaved=   7.
 NSaved= 7 IEnMin= 7 EnMin= -232.974354781695     IErMin= 7 ErrMin= 6.48D-05
 ErrMax= 6.48D-05  0.00D+00 EMaxC= 1.00D-01 BMatC= 6.13D-06 BMatP= 2.11D-05
 IDIUse=1 WtCom= 1.00D+00 WtEn= 0.00D+00
 Coeff-Com:  0.156D-02-0.243D-02-0.298D-01-0.787D-01-0.130D+00 0.439D+00
 Coeff-Com:  0.800D+00
 Coeff:      0.156D-02-0.243D-02-0.298D-01-0.787D-01-0.130D+00 0.439D+00
 Coeff:      0.800D+00
 Gap=     0.234 Goal=   None    Shift=    0.000
 Gap=     0.387 Goal=   None    Shift=    0.000
 RMSDP=1.12D-05 MaxDP=8.04D-04 DE=-1.88D-05 OVMax= 9.85D-04

 Cycle   8  Pass 1  IDiag  1:
 RMSU=  5.25D-06    CP:  1.00D+00  3.53D-01  1.04D+00  1.03D+00  1.17D+00
                    CP:  1.46D+00  1.28D+00
 E= -232.974357622912     Delta-E=       -0.000002841216 Rises=F Damp=F
 DIIS: error= 2.22D-05 at cycle   8 NSaved=   8.
 NSaved= 8 IEnMin= 8 EnMin= -232.974357622912     IErMin= 8 ErrMin= 2.22D-05
 ErrMax= 2.22D-05  0.00D+00 EMaxC= 1.00D-01 BMatC= 5.64D-07 BMatP= 6.13D-06
 IDIUse=1 WtCom= 1.00D+00 WtEn= 0.00D+00
 Coeff-Com: -0.585D-03 0.158D-02 0.598D-02 0.398D-02-0.286D-01-0.102D+00
 Coeff-Com:  0.138D+00 0.982D+00
 Coeff:     -0.585D-03 0.158D-02 0.598D-02 0.398D-02-0.286D-01-0.102D+00
 Coeff:      0.138D+00 0.982D+00
 Gap=     0.234 Goal=   None    Shift=    0.000
 Gap=     0.387 Goal=   None    Shift=    0.000
 RMSDP=4.92D-06 MaxDP=3.46D-04 DE=-2.84D-06 OVMax= 3.69D-04

 Cycle   9  Pass 1  IDiag  1:
 RMSU=  2.23D-06    CP:  1.00D+00  3.53D-01  1.04D+00  1.03D+00  1.16D+00
                    CP:  1.50D+00  1.47D+00  1.32D+00
 E= -232.974357962976     Delta-E=       -0.000000340064 Rises=F Damp=F
 DIIS: error= 6.04D-06 at cycle   9 NSaved=   9.
 NSaved= 9 IEnMin= 9 EnMin= -232.974357962976     IErMin= 9 ErrMin= 6.04D-06
 ErrMax= 6.04D-06  0.00D+00 EMaxC= 1.00D-01 BMatC= 6.35D-08 BMatP= 5.64D-07
 IDIUse=1 WtCom= 1.00D+00 WtEn= 0.00D+00
 Coeff-Com: -0.333D-03 0.681D-03 0.532D-02 0.121D-01 0.118D-01-0.776D-01
 Coeff-Com: -0.901D-01 0.184D+00 0.954D+00
 Coeff:     -0.333D-03 0.681D-03 0.532D-02 0.121D-01 0.118D-01-0.776D-01
 Coeff:     -0.901D-01 0.184D+00 0.954D+00
 Gap=     0.234 Goal=   None    Shift=    0.000
 Gap=     0.387 Goal=   None    Shift=    0.000
 RMSDP=2.99D-06 MaxDP=4.01D-04 DE=-3.40D-07 OVMax= 1.02D-04

 Cycle  10  Pass 1  IDiag  1:
 RMSU=  1.20D-06    CP:  1.00D+00  3.53D-01  1.04D+00  1.03D+00  1.15D+00
                    CP:  1.50D+00  1.51D+00  1.48D+00  1.16D+00
 E= -232.974357998184     Delta-E=       -0.000000035209 Rises=F Damp=F
 DIIS: error= 1.73D-06 at cycle  10 NSaved=  10.
 NSaved=10 IEnMin=10 EnMin= -232.974357998184     IErMin=10 ErrMin= 1.73D-06
 ErrMax= 1.73D-06  0.00D+00 EMaxC= 1.00D-01 BMatC= 4.16D-09 BMatP= 6.35D-08
 IDIUse=1 WtCom= 1.00D+00 WtEn= 0.00D+00
 Coeff-Com:  0.697D-04-0.158D-03-0.654D-03-0.538D-03 0.130D-02 0.101D-01
 Coeff-Com: -0.842D-02-0.821D-01-0.273D-01 0.111D+01
 Coeff:      0.697D-04-0.158D-03-0.654D-03-0.538D-03 0.130D-02 0.101D-01
 Coeff:     -0.842D-02-0.821D-01-0.273D-01 0.111D+01
 Gap=     0.234 Goal=   None    Shift=    0.000
 Gap=     0.387 Goal=   None    Shift=    0.000
 RMSDP=7.78D-07 MaxDP=1.02D-04 DE=-3.52D-08 OVMax= 2.58D-05

 Cycle  11  Pass 1  IDiag  1:
 RMSU=  2.61D-07    CP:  1.00D+00  3.53D-01  1.04D+00  1.03D+00  1.15D+00
                    CP:  1.51D+00  1.52D+00  1.51D+00  1.25D+00  1.29D+00
 E= -232.974358000802     Delta-E=       -0.000000002618 Rises=F Damp=F
 DIIS: error= 6.07D-07 at cycle  11 NSaved=  11.
 NSaved=11 IEnMin=11 EnMin= -232.974358000802     IErMin=11 ErrMin= 6.07D-07
 ErrMax= 6.07D-07  0.00D+00 EMaxC= 1.00D-01 BMatC= 6.77D-10 BMatP= 4.16D-09
 IDIUse=1 WtCom= 1.00D+00 WtEn= 0.00D+00
 Coeff-Com:  0.469D-04-0.102D-03-0.637D-03-0.111D-02-0.563D-03 0.954D-02
 Coeff-Com:  0.543D-02-0.377D-01-0.934D-01 0.273D+00 0.846D+00
 Coeff:      0.469D-04-0.102D-03-0.637D-03-0.111D-02-0.563D-03 0.954D-02
 Coeff:      0.543D-02-0.377D-01-0.934D-01 0.273D+00 0.846D+00
 Gap=     0.234 Goal=   None    Shift=    0.000
 Gap=     0.387 Goal=   None    Shift=    0.000
 RMSDP=3.55D-07 MaxDP=4.92D-05 DE=-2.62D-09 OVMax= 7.85D-06

 Cycle  12  Pass 1  IDiag  1:
 RMSU=  9.57D-08    CP:  1.00D+00  3.54D-01  1.04D+00  1.03D+00  1.15D+00
                    CP:  1.51D+00  1.52D+00  1.52D+00  1.26D+00  1.40D+00
                    CP:  1.29D+00
 E= -232.974358001082     Delta-E=       -0.000000000280 Rises=F Damp=F
 DIIS: error= 2.41D-07 at cycle  12 NSaved=  12.
 NSaved=12 IEnMin=12 EnMin= -232.974358001082     IErMin=12 ErrMin= 2.41D-07
 ErrMax= 2.41D-07  0.00D+00 EMaxC= 1.00D-01 BMatC= 1.09D-10 BMatP= 6.77D-10
 IDIUse=1 WtCom= 1.00D+00 WtEn= 0.00D+00
 Coeff-Com: -0.233D-05 0.374D-05-0.337D-04-0.133D-03-0.314D-03 0.434D-03
 Coeff-Com:  0.242D-02 0.425D-02-0.189D-01-0.111D+00 0.223D+00 0.900D+00
 Coeff:     -0.233D-05 0.374D-05-0.337D-04-0.133D-03-0.314D-03 0.434D-03
 Coeff:      0.242D-02 0.425D-02-0.189D-01-0.111D+00 0.223D+00 0.900D+00
 Gap=     0.234 Goal=   None    Shift=    0.000
 Gap=     0.387 Goal=   None    Shift=    0.000
 RMSDP=6.52D-08 MaxDP=7.64D-06 DE=-2.80D-10 OVMax= 2.18D-06

 Cycle  13  Pass 1  IDiag  1:
 RMSU=  2.90D-08    CP:  1.00D+00  3.54D-01  1.04D+00  1.03D+00  1.15D+00
                    CP:  1.51D+00  1.52D+00  1.52D+00  1.26D+00  1.43D+00
                    CP:  1.43D+00  1.06D+00
 E= -232.974358001122     Delta-E=       -0.000000000040 Rises=F Damp=F
 DIIS: error= 5.91D-08 at cycle  13 NSaved=  13.
 NSaved=13 IEnMin=13 EnMin= -232.974358001122     IErMin=13 ErrMin= 5.91D-08
 ErrMax= 5.91D-08  0.00D+00 EMaxC= 1.00D-01 BMatC= 5.17D-12 BMatP= 1.09D-10
 IDIUse=1 WtCom= 1.00D+00 WtEn= 0.00D+00
 Coeff-Com: -0.379D-05 0.807D-05 0.430D-04 0.684D-04 0.110D-04-0.632D-03
 Coeff-Com: -0.150D-03 0.318D-02 0.527D-02-0.311D-01-0.461D-01 0.758D-01
 Coeff-Com:  0.994D+00
 Coeff:     -0.379D-05 0.807D-05 0.430D-04 0.684D-04 0.110D-04-0.632D-03
 Coeff:     -0.150D-03 0.318D-02 0.527D-02-0.311D-01-0.461D-01 0.758D-01
 Coeff:      0.994D+00
 Gap=     0.234 Goal=   None    Shift=    0.000
 Gap=     0.387 Goal=   None    Shift=    0.000
 RMSDP=2.25D-08 MaxDP=2.57D-06 DE=-3.95D-11 OVMax= 8.95D-07

 Cycle  14  Pass 1  IDiag  1:
 RMSU=  8.22D-09    CP:  1.00D+00  3.54D-01  1.04D+00  1.03D+00  1.15D+00
                    CP:  1.51D+00  1.52D+00  1.52D+00  1.26D+00  1.43D+00
                    CP:  1.44D+00  1.10D+00  1.31D+00
 E= -232.974358001128     Delta-E=       -0.000000000006 Rises=F Damp=F
 DIIS: error= 1.86D-08 at cycle  14 NSaved=  14.
 NSaved=14 IEnMin=14 EnMin= -232.974358001128     IErMin=14 ErrMin= 1.86D-08
 ErrMax= 1.86D-08  0.00D+00 EMaxC= 1.00D-01 BMatC= 5.66D-13 BMatP= 5.17D-12
 IDIUse=1 WtCom= 1.00D+00 WtEn= 0.00D+00
 Coeff-Com:  0.720D-07 0.129D-06 0.532D-05 0.128D-04 0.167D-04-0.709D-04
 Coeff-Com: -0.196D-03-0.140D-03 0.208D-02 0.747D-02-0.247D-01-0.805D-01
 Coeff-Com:  0.859D-01 0.101D+01
 Coeff:      0.720D-07 0.129D-06 0.532D-05 0.128D-04 0.167D-04-0.709D-04
 Coeff:     -0.196D-03-0.140D-03 0.208D-02 0.747D-02-0.247D-01-0.805D-01
 Coeff:      0.859D-01 0.101D+01
 Gap=     0.234 Goal=   None    Shift=    0.000
 Gap=     0.387 Goal=   None    Shift=    0.000
 RMSDP=5.43D-09 MaxDP=2.72D-07 DE=-5.91D-12 OVMax= 3.07D-07

 SCF Done:  E(UM062X) =  -232.974358001     A.U. after   14 cycles
            NFock= 14  Conv=0.54D-08     -V/T= 2.0039
 <Sx>= 0.0000 <Sy>= 0.0000 <Sz>= 0.5000 <S**2>= 0.7544 S= 0.5022
 <L.S>= 0.000000000000E+00
 KE= 2.320723920881D+02 PE=-9.095675724723D+02 EE= 2.611757630136D+02
 Annihilation of the first spin contaminant:
 S**2 before annihilation     0.7544,   after     0.7500
 Leave Link  502 at Wed Mar 13 04:06:20 2019, MaxMem=   671088640 cpu:            1041.4 elap:              52.1
 (Enter /shared/centos7/gaussian/g16/l801.exe)
 DoSCS=F DFT=T ScalE2(SS,OS)=  1.000000  1.000000
 Range of M.O.s used for correlation:     1   251
 NBasis=   251 NAE=    21 NBE=    20 NFC=     0 NFV=     0
 NROrb=    251 NOA=    21 NOB=    20 NVA=   230 NVB=   231

 **** Warning!!: The largest alpha MO coefficient is  0.40343142D+02


 **** Warning!!: The largest beta MO coefficient is  0.47894061D+02

 Leave Link  801 at Wed Mar 13 04:06:20 2019, MaxMem=   671088640 cpu:               0.5 elap:               0.0
 (Enter /shared/centos7/gaussian/g16/l1101.exe)
 Using compressed storage, NAtomX=    14.
 Will process     15 centers per pass.
 Leave Link 1101 at Wed Mar 13 04:06:20 2019, MaxMem=   671088640 cpu:               6.7 elap:               0.4
 (Enter /shared/centos7/gaussian/g16/l1102.exe)
 Symmetrizing basis deriv contribution to polar:
 IMax=3 JMax=2 DiffMx= 0.00D+00
 Leave Link 1102 at Wed Mar 13 04:06:21 2019, MaxMem=   671088640 cpu:               0.6 elap:               0.1
 (Enter /shared/centos7/gaussian/g16/l1110.exe)
 Forming Gx(P) for the SCF density, NAtomX=    14.
 Integral derivatives from FoFJK, PRISM(SPDF).
 Do as many integral derivatives as possible in FoFJK.
 G2DrvN: MDV=     671087496.
 G2DrvN: will do    15 centers at a time, making    1 passes.
 Calling FoFCou, ICntrl=  3107 FMM=F I1Cent=   0 AccDes= 0.00D+00.
 FoFJK:  IHMeth= 1 ICntrl=    3107 DoSepK=F KAlg= 0 I1Cent=           0 FoldK=F
 IRaf=         0 NMat=       1 IRICut=       1 DoRegI=T DoRafI=F ISym2E= 0 IDoP0=0 IntGTp=1.
 FoFCou: FMM=F IPFlag=           0 FMFlag=      100000 FMFlg1=           0
         NFxFlg=           0 DoJE=F BraDBF=F KetDBF=F FulRan=T
         wScrn=  0.000000 ICntrl=      3107 IOpCl=  1 I1Cent=           0 NGrid=           0
         NMat0=    1 NMatS0=      1 NMatT0=    0 NMatD0=    1 NMtDS0=    0 NMtDT0=    0
 Symmetry not used in FoFCou.
 End of G2Drv F.D. properties file   721 does not exist.
 End of G2Drv F.D. properties file   722 does not exist.
 End of G2Drv F.D. properties file   788 does not exist.
 Leave Link 1110 at Wed Mar 13 04:08:05 2019, MaxMem=   671088640 cpu:            2086.9 elap:             104.4
 (Enter /shared/centos7/gaussian/g16/l1002.exe)
 Minotr:  UHF open shell wavefunction.
          IDoAtm=11111111111111
          Direct CPHF calculation.
          Differentiating once with respect to nuclear coordinates.
          Requested convergence is 1.0D-08 RMS, and 1.0D-07 maximum.
          Secondary convergence is 1.0D-12 RMS, and 1.0D-12 maximum.
          NewPWx=T KeepS1=F KeepF1=F KeepIn=T MapXYZ=F SortEE=F KeepMc=T.
         4250 words used for storage of precomputed grid.
 Two-electron integrals replicated using symmetry.
          MDV=     671088640 using IRadAn=       1.
          Solving linear equations simultaneously, MaxMat=     380.
 FoF2E skips out because all densities are zero.
 CalDSu exits because no D1Ps are significant.
 FoFJK:  IHMeth= 1 ICntrl=       0 DoSepK=F KAlg= 0 I1Cent=           0 FoldK=F
 IRaf= 980000000 NMat=      42 IRICut=     105 DoRegI=T DoRafI=T ISym2E= 2 IDoP0=3 IntGTp=3.
 FoFCou: FMM=F IPFlag=           0 FMFlag=      100000 FMFlg1=           0
         NFxFlg=           0 DoJE=F BraDBF=F KetDBF=F FulRan=T
         wScrn=  0.000000 ICntrl=         0 IOpCl=  1 I1Cent=           0 NGrid=           0
         NMat0=   42 NMatS0=     42 NMatT0=    0 NMatD0=   42 NMtDS0=    0 NMtDT0=    0
 Integrals replicated using symmetry in FoFCou.
 Raff kept on since  97.05% of shell-pairs survive, threshold=   0.20 IRatSp=97.
          There are    45 degrees of freedom in the 1st order CPHF.  IDoFFX=6 NUNeed=     0.
     39 vectors produced by pass  0 Test12= 2.10D-14 2.22D-09 XBig12= 1.31D-01 5.42D-02.
 AX will form    39 AO Fock derivatives at one time.
     39 vectors produced by pass  1 Test12= 2.10D-14 2.22D-09 XBig12= 9.37D-03 1.59D-02.
     39 vectors produced by pass  2 Test12= 2.10D-14 2.22D-09 XBig12= 4.39D-04 2.54D-03.
     39 vectors produced by pass  3 Test12= 2.10D-14 2.22D-09 XBig12= 7.79D-06 3.64D-04.
     39 vectors produced by pass  4 Test12= 2.10D-14 2.22D-09 XBig12= 7.05D-08 3.28D-05.
     39 vectors produced by pass  5 Test12= 2.10D-14 2.22D-09 XBig12= 7.23D-10 2.63D-06.
     38 vectors produced by pass  6 Test12= 2.10D-14 2.22D-09 XBig12= 6.60D-12 1.88D-07.
     14 vectors produced by pass  7 Test12= 2.10D-14 2.22D-09 XBig12= 4.42D-14 2.05D-08.
 InvSVY:  IOpt=1 It=  1 EMax= 2.55D-15
 Solved reduced A of dimension   286 with    39 vectors.
 End of Minotr F.D. properties file   721 does not exist.
 End of Minotr F.D. properties file   722 does not exist.
 End of Minotr F.D. properties file   788 does not exist.
 Leave Link 1002 at Wed Mar 13 04:10:48 2019, MaxMem=   671088640 cpu:            3262.9 elap:             163.2
 (Enter /shared/centos7/gaussian/g16/l601.exe)
 Copying SCF densities to generalized density rwf, IOpCl= 1 IROHF=0.

 **********************************************************************

            Population analysis using the SCF density.

 **********************************************************************

 Orbital symmetries:
 Alpha Orbitals:
       Occupied  (A) (A) (A) (A) (A) (A) (A) (A) (A) (A) (A) (A)
                 (A) (A) (A) (A) (A) (A) (A) (A) (A)
       Virtual   (A) (A) (A) (A) (A) (A) (A) (A) (A) (A) (A) (A)
                 (A) (A) (A) (A) (A) (A) (A) (A) (A) (A) (A) (A)
                 (A) (A) (A) (A) (A) (A) (A) (A) (A) (A) (A) (A)
                 (A) (A) (A) (A) (A) (A) (A) (A) (A) (A) (A) (A)
                 (A) (A) (A) (A) (A) (A) (A) (A) (A) (A) (A) (A)
                 (A) (A) (A) (A) (A) (A) (A) (A) (A) (A) (A) (A)
                 (A) (A) (A) (A) (A) (A) (A) (A) (A) (A) (A) (A)
                 (A) (A) (A) (A) (A) (A) (A) (A) (A) (A) (A) (A)
                 (A) (A) (A) (A) (A) (A) (A) (A) (A) (A) (A) (A)
                 (A) (A) (A) (A) (A) (A) (A) (A) (A) (A) (A) (A)
                 (A) (A) (A) (A) (A) (A) (A) (A) (A) (A) (A) (A)
                 (A) (A) (A) (A) (A) (A) (A) (A) (A) (A) (A) (A)
                 (A) (A) (A) (A) (A) (A) (A) (A) (A) (A) (A) (A)
                 (A) (A) (A) (A) (A) (A) (A) (A) (A) (A) (A) (A)
                 (A) (A) (A) (A) (A) (A) (A) (A) (A) (A) (A) (A)
                 (A) (A) (A) (A) (A) (A) (A) (A) (A) (A) (A) (A)
                 (A) (A) (A) (A) (A) (A) (A) (A) (A) (A) (A) (A)
                 (A) (A) (A) (A) (A) (A) (A) (A) (A) (A) (A) (A)
                 (A) (A) (A) (A) (A) (A) (A) (A) (A) (A) (A) (A)
                 (A) (A)
 Beta  Orbitals:
       Occupied  (A) (A) (A) (A) (A) (A) (A) (A) (A) (A) (A) (A)
                 (A) (A) (A) (A) (A) (A) (A) (A)
       Virtual   (A) (A) (A) (A) (A) (A) (A) (A) (A) (A) (A) (A)
                 (A) (A) (A) (A) (A) (A) (A) (A) (A) (A) (A) (A)
                 (A) (A) (A) (A) (A) (A) (A) (A) (A) (A) (A) (A)
                 (A) (A) (A) (A) (A) (A) (A) (A) (A) (A) (A) (A)
                 (A) (A) (A) (A) (A) (A) (A) (A) (A) (A) (A) (A)
                 (A) (A) (A) (A) (A) (A) (A) (A) (A) (A) (A) (A)
                 (A) (A) (A) (A) (A) (A) (A) (A) (A) (A) (A) (A)
                 (A) (A) (A) (A) (A) (A) (A) (A) (A) (A) (A) (A)
                 (A) (A) (A) (A) (A) (A) (A) (A) (A) (A) (A) (A)
                 (A) (A) (A) (A) (A) (A) (A) (A) (A) (A) (A) (A)
                 (A) (A) (A) (A) (A) (A) (A) (A) (A) (A) (A) (A)
                 (A) (A) (A) (A) (A) (A) (A) (A) (A) (A) (A) (A)
                 (A) (A) (A) (A) (A) (A) (A) (A) (A) (A) (A) (A)
                 (A) (A) (A) (A) (A) (A) (A) (A) (A) (A) (A) (A)
                 (A) (A) (A) (A) (A) (A) (A) (A) (A) (A) (A) (A)
                 (A) (A) (A) (A) (A) (A) (A) (A) (A) (A) (A) (A)
                 (A) (A) (A) (A) (A) (A) (A) (A) (A) (A) (A) (A)
                 (A) (A) (A) (A) (A) (A) (A) (A) (A) (A) (A) (A)
                 (A) (A) (A) (A) (A) (A) (A) (A) (A) (A) (A) (A)
                 (A) (A) (A)
 The electronic state is 2-A.
 Alpha  occ. eigenvalues --  -19.64832 -10.57740 -10.54155 -10.53984 -10.52449
 Alpha  occ. eigenvalues --   -1.17953  -0.90246  -0.81393  -0.73593  -0.67044
 Alpha  occ. eigenvalues --   -0.58104  -0.54810  -0.53480  -0.50096  -0.47645
 Alpha  occ. eigenvalues --   -0.46102  -0.42694  -0.41021  -0.40219  -0.39351
 Alpha  occ. eigenvalues --   -0.22209
 Alpha virt. eigenvalues --    0.01216   0.02822   0.03454   0.03631   0.05764
 Alpha virt. eigenvalues --    0.06543   0.07313   0.07643   0.07953   0.11131
 Alpha virt. eigenvalues --    0.11273   0.11690   0.11818   0.12367   0.14661
 Alpha virt. eigenvalues --    0.16458   0.19365   0.20096   0.20309   0.21577
 Alpha virt. eigenvalues --    0.23758   0.24041   0.24736   0.25388   0.26927
 Alpha virt. eigenvalues --    0.27383   0.27706   0.28793   0.30719   0.31184
 Alpha virt. eigenvalues --    0.31895   0.33784   0.37285   0.41981   0.43040
 Alpha virt. eigenvalues --    0.44821   0.45688   0.46652   0.51164   0.52360
 Alpha virt. eigenvalues --    0.54676   0.55111   0.55914   0.57683   0.58400
 Alpha virt. eigenvalues --    0.58999   0.60296   0.60707   0.61424   0.62777
 Alpha virt. eigenvalues --    0.65397   0.66228   0.68766   0.69002   0.69846
 Alpha virt. eigenvalues --    0.72505   0.72624   0.74234   0.77289   0.79736
 Alpha virt. eigenvalues --    0.83125   0.84310   0.86824   0.92871   0.95170
 Alpha virt. eigenvalues --    0.95602   1.00056   1.01440   1.01826   1.04079
 Alpha virt. eigenvalues --    1.08939   1.10797   1.11806   1.13026   1.14029
 Alpha virt. eigenvalues --    1.16621   1.17293   1.18521   1.20353   1.21980
 Alpha virt. eigenvalues --    1.22813   1.25160   1.26971   1.29644   1.30746
 Alpha virt. eigenvalues --    1.32191   1.34292   1.35163   1.37544   1.38086
 Alpha virt. eigenvalues --    1.41378   1.42574   1.44250   1.45171   1.47481
 Alpha virt. eigenvalues --    1.48397   1.49735   1.51603   1.54229   1.55495
 Alpha virt. eigenvalues --    1.56766   1.58176   1.62311   1.64110   1.66273
 Alpha virt. eigenvalues --    1.67973   1.69701   1.76368   1.79824   1.90777
 Alpha virt. eigenvalues --    2.00591   2.21339   2.27974   2.34667   2.39214
 Alpha virt. eigenvalues --    2.44794   2.48361   2.53395   2.56364   2.60165
 Alpha virt. eigenvalues --    2.65307   2.69455   2.71612   2.76608   2.77544
 Alpha virt. eigenvalues --    2.80412   2.84364   2.87477   2.88761   2.89616
 Alpha virt. eigenvalues --    2.93460   2.98131   2.99179   3.00647   3.05379
 Alpha virt. eigenvalues --    3.06525   3.07673   3.09885   3.15748   3.17873
 Alpha virt. eigenvalues --    3.22920   3.24470   3.25817   3.30013   3.30825
 Alpha virt. eigenvalues --    3.33698   3.34681   3.37735   3.38392   3.40390
 Alpha virt. eigenvalues --    3.43490   3.45410   3.48062   3.50284   3.56119
 Alpha virt. eigenvalues --    3.57805   3.58374   3.61886   3.62713   3.66497
 Alpha virt. eigenvalues --    3.67990   3.69890   3.72732   3.75095   3.79806
 Alpha virt. eigenvalues --    3.81515   3.85156   3.86884   3.88291   3.94707
 Alpha virt. eigenvalues --    3.96561   3.98350   3.99857   4.01545   4.02671
 Alpha virt. eigenvalues --    4.04341   4.09466   4.11527   4.16701   4.19341
 Alpha virt. eigenvalues --    4.21232   4.23793   4.24152   4.24975   4.26626
 Alpha virt. eigenvalues --    4.29422   4.32384   4.40089   4.40930   4.42246
 Alpha virt. eigenvalues --    4.46474   4.47891   4.53977   4.55979   4.56642
 Alpha virt. eigenvalues --    4.57534   4.64039   4.64649   4.70610   4.74445
 Alpha virt. eigenvalues --    4.75679   5.02516   5.17119   5.21331   5.22144
 Alpha virt. eigenvalues --    5.28571   5.37968   5.41382   5.41597   5.50279
 Alpha virt. eigenvalues --    5.58437   5.59271   5.60121   5.65574   5.66771
 Alpha virt. eigenvalues --    5.71827   5.83564   6.13181   6.61232   6.94234
 Alpha virt. eigenvalues --    7.15387   7.18837   7.27773   7.53461   7.61239
 Alpha virt. eigenvalues --   24.29787  24.32849  24.43964  24.51971  50.13860
  Beta  occ. eigenvalues --  -19.64478 -10.56990 -10.54123 -10.54026 -10.52444
  Beta  occ. eigenvalues --   -1.16656  -0.89825  -0.80413  -0.72229  -0.66567
  Beta  occ. eigenvalues --   -0.57245  -0.53490  -0.52232  -0.49756  -0.46139
  Beta  occ. eigenvalues --   -0.44244  -0.41976  -0.40208  -0.40129  -0.38788
  Beta virt. eigenvalues --   -0.00100   0.01806   0.02793   0.03118   0.03583
  Beta virt. eigenvalues --    0.05961   0.06497   0.07094   0.07390   0.08123
  Beta virt. eigenvalues --    0.10486   0.11442   0.11610   0.11757   0.12333
  Beta virt. eigenvalues --    0.14543   0.15808   0.19199   0.20258   0.20558
  Beta virt. eigenvalues --    0.21927   0.23731   0.24037   0.24970   0.25600
  Beta virt. eigenvalues --    0.26991   0.27625   0.27857   0.29194   0.30551
  Beta virt. eigenvalues --    0.31380   0.32530   0.34412   0.37909   0.41997
  Beta virt. eigenvalues --    0.43421   0.45158   0.45801   0.46815   0.51690
  Beta virt. eigenvalues --    0.52428   0.55054   0.55252   0.56396   0.57790
  Beta virt. eigenvalues --    0.58703   0.59638   0.60212   0.61301   0.61531
  Beta virt. eigenvalues --    0.63253   0.65676   0.66646   0.68702   0.69217
  Beta virt. eigenvalues --    0.69869   0.72816   0.73283   0.74717   0.77337
  Beta virt. eigenvalues --    0.80057   0.83180   0.84648   0.87040   0.92799
  Beta virt. eigenvalues --    0.95012   0.95901   0.99716   1.01466   1.01860
  Beta virt. eigenvalues --    1.04388   1.09141   1.10995   1.11809   1.13049
  Beta virt. eigenvalues --    1.14021   1.16656   1.17544   1.18830   1.20444
  Beta virt. eigenvalues --    1.22156   1.22928   1.25408   1.27201   1.29804
  Beta virt. eigenvalues --    1.31219   1.32351   1.34288   1.35265   1.38148
  Beta virt. eigenvalues --    1.38320   1.41452   1.42790   1.44335   1.45362
  Beta virt. eigenvalues --    1.47731   1.48794   1.50010   1.51573   1.54277
  Beta virt. eigenvalues --    1.55538   1.56858   1.59107   1.62424   1.64006
  Beta virt. eigenvalues --    1.66690   1.67971   1.69703   1.76563   1.80044
  Beta virt. eigenvalues --    1.91286   2.01566   2.21999   2.28092   2.35662
  Beta virt. eigenvalues --    2.39366   2.44986   2.48935   2.53834   2.56900
  Beta virt. eigenvalues --    2.60948   2.65737   2.70427   2.72651   2.77347
  Beta virt. eigenvalues --    2.79061   2.81654   2.85267   2.88833   2.89899
  Beta virt. eigenvalues --    2.91973   2.96096   2.98885   2.99743   3.02881
  Beta virt. eigenvalues --    3.06384   3.07445   3.09989   3.11266   3.16617
  Beta virt. eigenvalues --    3.17984   3.24777   3.25661   3.27042   3.31176
  Beta virt. eigenvalues --    3.32540   3.34829   3.36066   3.38921   3.41118
  Beta virt. eigenvalues --    3.42523   3.46231   3.47026   3.51330   3.52656
  Beta virt. eigenvalues --    3.56969   3.58487   3.61699   3.63075   3.64237
  Beta virt. eigenvalues --    3.66773   3.68625   3.70167   3.73016   3.75942
  Beta virt. eigenvalues --    3.81294   3.82440   3.85736   3.87784   3.89317
  Beta virt. eigenvalues --    3.95878   3.96855   3.98496   4.00409   4.01871
  Beta virt. eigenvalues --    4.03508   4.05239   4.10319   4.12242   4.16990
  Beta virt. eigenvalues --    4.19591   4.21673   4.24614   4.25171   4.25470
  Beta virt. eigenvalues --    4.28145   4.30317   4.32924   4.40941   4.41228
  Beta virt. eigenvalues --    4.43756   4.47311   4.48307   4.54217   4.56857
  Beta virt. eigenvalues --    4.57090   4.57874   4.65037   4.65516   4.71307
  Beta virt. eigenvalues --    4.74722   4.78231   5.05016   5.18386   5.21972
  Beta virt. eigenvalues --    5.23218   5.29415   5.38383   5.41244   5.41926
  Beta virt. eigenvalues --    5.53605   5.59604   5.59797   5.60425   5.66165
  Beta virt. eigenvalues --    5.66637   5.72399   5.84758   6.14132   6.62384
  Beta virt. eigenvalues --    6.95119   7.16355   7.19724   7.28011   7.54089
  Beta virt. eigenvalues --    7.61121  24.29945  24.33225  24.44078  24.52821
  Beta virt. eigenvalues --   50.13602
          Condensed to atoms (all electrons):
               1          2          3          4          5          6
     1  O    7.986312   0.019123  -0.061182  -0.004433   0.124976  -0.000704
     2  C    0.019123   5.984245  -0.498649   0.116920  -0.184573   0.436394
     3  C   -0.061182  -0.498649   6.001287  -0.041936   0.173999  -0.062712
     4  C   -0.004433   0.116920  -0.041936   5.187209   0.056763  -0.018605
     5  C    0.124976  -0.184573   0.173999   0.056763   5.773444   0.025246
     6  H   -0.000704   0.436394  -0.062712  -0.018605   0.025246   0.510358
     7  H   -0.004997   0.453363   0.007589  -0.076772  -0.026400  -0.031766
     8  H   -0.005038  -0.066569   0.422694   0.014089  -0.023736  -0.002147
     9  H    0.005915   0.013413   0.442108  -0.020565  -0.081559  -0.007372
    10  H    0.000239  -0.016355  -0.004369   0.408454  -0.010740  -0.006872
    11  H   -0.000732  -0.068217   0.031516   0.424200   0.003558  -0.005190
    12  H    0.002930  -0.000139  -0.039210   0.411034   0.002495   0.005606
    13  H   -0.045870   0.020452  -0.024539   0.000065   0.396446  -0.000141
    14  H    0.260768   0.028338  -0.009336  -0.011846  -0.032411  -0.000060
               7          8          9         10         11         12
     1  O   -0.004997  -0.005038   0.005915   0.000239  -0.000732   0.002930
     2  C    0.453363  -0.066569   0.013413  -0.016355  -0.068217  -0.000139
     3  C    0.007589   0.422694   0.442108  -0.004369   0.031516  -0.039210
     4  C   -0.076772   0.014089  -0.020565   0.408454   0.424200   0.411034
     5  C   -0.026400  -0.023736  -0.081559  -0.010740   0.003558   0.002495
     6  H   -0.031766  -0.002147  -0.007372  -0.006872  -0.005190   0.005606
     7  H    0.536570  -0.008927   0.004798   0.006100  -0.003265  -0.007878
     8  H   -0.008927   0.535712  -0.027919  -0.000015  -0.000136  -0.000112
     9  H    0.004798  -0.027919   0.501152   0.000750  -0.000255   0.000040
    10  H    0.006100  -0.000015   0.000750   0.537937  -0.023939  -0.033153
    11  H   -0.003265  -0.000136  -0.000255  -0.023939   0.531234  -0.026370
    12  H   -0.007878  -0.000112   0.000040  -0.033153  -0.026370   0.535020
    13  H   -0.000204  -0.001811  -0.002790  -0.000135   0.000011   0.000250
    14  H    0.003946  -0.000606  -0.000066  -0.000053   0.000087   0.000389
              13         14
     1  O   -0.045870   0.260768
     2  C    0.020452   0.028338
     3  C   -0.024539  -0.009336
     4  C    0.000065  -0.011846
     5  C    0.396446  -0.032411
     6  H   -0.000141  -0.000060
     7  H   -0.000204   0.003946
     8  H   -0.001811  -0.000606
     9  H   -0.002790  -0.000066
    10  H   -0.000135  -0.000053
    11  H    0.000011   0.000087
    12  H    0.000250   0.000389
    13  H    0.481736   0.006977
    14  H    0.006977   0.500458
          Atomic-Atomic Spin Densities.
               1          2          3          4          5          6
     1  O    0.265277   0.025024  -0.003496   0.002775  -0.233724   0.000087
     2  C    0.025024   0.488731  -0.296677  -0.029040  -0.208923  -0.006754
     3  C   -0.003496  -0.296677   0.149861   0.015288   0.115094   0.009222
     4  C    0.002775  -0.029040   0.015288   0.030510   0.007223   0.000195
     5  C   -0.233724  -0.208923   0.115094   0.007223   1.322642  -0.002092
     6  H    0.000087  -0.006754   0.009222   0.000195  -0.002092  -0.004067
     7  H    0.000010   0.009378  -0.013397  -0.002531   0.004685   0.000635
     8  H    0.005275  -0.082129   0.078956   0.005478  -0.016276   0.000987
     9  H    0.000527   0.036448  -0.021438  -0.004183  -0.016967  -0.000421
    10  H    0.000202   0.008061  -0.006471  -0.002934  -0.001199  -0.000073
    11  H   -0.000600  -0.011134   0.007487  -0.001582   0.004392   0.000132
    12  H    0.002967   0.013092  -0.001087   0.003211  -0.020854  -0.000282
    13  H    0.004756   0.016193  -0.005994  -0.000493  -0.017725  -0.000006
    14  H    0.004594   0.004857  -0.006556   0.000713  -0.000691  -0.000053
               7          8          9         10         11         12
     1  O    0.000010   0.005275   0.000527   0.000202  -0.000600   0.002967
     2  C    0.009378  -0.082129   0.036448   0.008061  -0.011134   0.013092
     3  C   -0.013397   0.078956  -0.021438  -0.006471   0.007487  -0.001087
     4  C   -0.002531   0.005478  -0.004183  -0.002934  -0.001582   0.003211
     5  C    0.004685  -0.016276  -0.016967  -0.001199   0.004392  -0.020854
     6  H    0.000635   0.000987  -0.000421  -0.000073   0.000132  -0.000282
     7  H   -0.000999   0.000141   0.000153   0.000107   0.000140   0.000190
     8  H    0.000141   0.054567  -0.004443  -0.000032   0.000082  -0.000097
     9  H    0.000153  -0.004443   0.007638   0.000249  -0.000111   0.000179
    10  H    0.000107  -0.000032   0.000249  -0.002777   0.000507   0.000051
    11  H    0.000140   0.000082  -0.000111   0.000507   0.000785  -0.000380
    12  H    0.000190  -0.000097   0.000179   0.000051  -0.000380  -0.007869
    13  H    0.000016  -0.002562   0.001607   0.000024  -0.000021   0.000245
    14  H    0.000097   0.000205  -0.000003  -0.000018   0.000036  -0.000221
              13         14
     1  O    0.004756   0.004594
     2  C    0.016193   0.004857
     3  C   -0.005994  -0.006556
     4  C   -0.000493   0.000713
     5  C   -0.017725  -0.000691
     6  H   -0.000006  -0.000053
     7  H    0.000016   0.000097
     8  H   -0.002562   0.000205
     9  H    0.001607  -0.000003
    10  H    0.000024  -0.000018
    11  H   -0.000021   0.000036
    12  H    0.000245  -0.000221
    13  H   -0.034549  -0.000391
    14  H   -0.000391  -0.005578
 Mulliken charges and spin densities:
               1          2
     1  O   -0.277307   0.073675
     2  C   -0.237745  -0.032873
     3  C   -0.337260   0.020792
     4  C   -0.444578   0.024629
     5  C   -0.197508   0.935586
     6  H    0.157964  -0.002489
     7  H    0.147844  -0.001375
     8  H    0.164522   0.040154
     9  H    0.172351  -0.000766
    10  H    0.142151  -0.004302
    11  H    0.137498  -0.000267
    12  H    0.149099  -0.010856
    13  H    0.169553  -0.038900
    14  H    0.253415  -0.003008
 Sum of Mulliken charges =  -0.00000   1.00000
 Mulliken charges and spin densities with hydrogens summed into heavy atoms:
               1          2
     1  O   -0.023892   0.070667
     2  C    0.068063  -0.036737
     3  C   -0.000387   0.060180
     4  C   -0.015830   0.009204
     5  C   -0.027955   0.896686
 APT charges:
               1
     1  O   -0.516102
     2  C   -0.682755
     3  C   -0.929791
     4  C   -1.153444
     5  C   -0.358017
     6  H    0.485467
     7  H    0.295620
     8  H    0.407194
     9  H    0.405352
    10  H    0.368972
    11  H    0.516879
    12  H    0.232586
    13  H    0.525874
    14  H    0.402167
 Sum of APT charges =  -0.00000
 APT charges with hydrogens summed into heavy atoms:
               1
     1  O   -0.113935
     2  C    0.098332
     3  C   -0.117246
     4  C   -0.035008
     5  C    0.167857
 Electronic spatial extent (au):  <R**2>=            504.2947
 Charge=             -0.0000 electrons
 Dipole moment (field-independent basis, Debye):
    X=              1.4440    Y=              0.7179    Z=              0.7492  Tot=              1.7781
 Quadrupole moment (field-independent basis, Debye-Ang):
   XX=            -36.5703   YY=            -32.9709   ZZ=            -31.7276
   XY=             -1.4868   XZ=              0.4206   YZ=             -1.9546
 Traceless Quadrupole moment (field-independent basis, Debye-Ang):
   XX=             -2.8140   YY=              0.7854   ZZ=              2.0287
   XY=             -1.4868   XZ=              0.4206   YZ=             -1.9546
 Octapole moment (field-independent basis, Debye-Ang**2):
  XXX=              3.3138  YYY=             -2.5013  ZZZ=              4.1983  XYY=             -0.4724
  XXY=              3.9295  XXZ=             -1.9453  XZZ=             -4.4357  YZZ=             -1.3853
  YYZ=              2.2663  XYZ=              1.0685
 Hexadecapole moment (field-independent basis, Debye-Ang**3):
 XXXX=           -428.9353 YYYY=           -160.0024 ZZZZ=           -105.7185 XXXY=             -4.9006
 XXXZ=              8.5248 YYYX=              5.5261 YYYZ=             -3.9358 ZZZX=             -4.4393
 ZZZY=             -7.5058 XXYY=            -98.1641 XXZZ=            -81.7494 YYZZ=            -40.8949
 XXYZ=             -3.0756 YYXZ=             -2.2656 ZZXY=              3.5298
 N-N= 1.833450593694D+02 E-N=-9.095675730147D+02  KE= 2.320723920881D+02
  Exact polarizability:   0.000   0.000   0.000   0.000   0.000   0.000
 Approx polarizability:  61.143   1.503  60.522   1.010  -1.330  62.289
                          Isotropic Fermi Contact Couplings
        Atom                 a.u.       MegaHertz       Gauss      10(-4) cm-1
     1  O(17)              0.02871     -17.40535      -6.21066      -5.80580
     2  C(13)              0.02527      28.40798      10.13668       9.47588
     3  C(13)             -0.01750     -19.67847      -7.02177      -6.56403
     4  C(13)              0.00166       1.86687       0.66615       0.62272
     5  C(13)              0.21187     238.18017      84.98861      79.44835
     6  H(1)              -0.00068      -3.06178      -1.09252      -1.02130
     7  H(1)              -0.00034      -1.53106      -0.54632      -0.51071
     8  H(1)               0.02240     100.11912      35.72499      33.39614
     9  H(1)               0.00129       5.74917       2.05145       1.91772
    10  H(1)              -0.00012      -0.52237      -0.18639      -0.17424
    11  H(1)              -0.00005      -0.23266      -0.08302      -0.07761
    12  H(1)               0.00042       1.87518       0.66911       0.62549
    13  H(1)              -0.00978     -43.73753     -15.60664     -14.58927
    14  H(1)              -0.00200      -8.92072      -3.18313      -2.97563
 --------------------------------------------------------
       Center         ----  Spin Dipole Couplings  ----
                      3XX-RR        3YY-RR        3ZZ-RR
 --------------------------------------------------------
     1   Atom       -0.081874      0.058500      0.023374
     2   Atom        0.013389     -0.008885     -0.004504
     3   Atom        0.001484      0.000410     -0.001893
     4   Atom        0.007820     -0.002479     -0.005341
     5   Atom       -0.057609      0.126893     -0.069285
     6   Atom        0.004412     -0.002640     -0.001772
     7   Atom        0.000726     -0.004898      0.004173
     8   Atom       -0.002957      0.003925     -0.000969
     9   Atom        0.003383      0.007465     -0.010849
    10   Atom        0.007707     -0.004025     -0.003682
    11   Atom        0.003708     -0.001546     -0.002162
    12   Atom        0.010292     -0.001084     -0.009207
    13   Atom        0.006117     -0.027843      0.021726
    14   Atom       -0.010177     -0.015486      0.025663
 --------------------------------------------------------
                        XY            XZ            YZ
 --------------------------------------------------------
     1   Atom       -0.388609     -0.314867      0.433990
     2   Atom       -0.008961      0.019315     -0.005493
     3   Atom        0.014996      0.013464      0.012937
     4   Atom        0.001069      0.005399      0.004877
     5   Atom       -0.548851     -0.447738      0.539080
     6   Atom        0.002492      0.004504      0.001925
     7   Atom       -0.000975      0.007141     -0.002138
     8   Atom        0.006774      0.004974      0.010443
     9   Atom        0.014500     -0.002435     -0.000330
    10   Atom        0.000047     -0.002109     -0.000251
    11   Atom       -0.002197      0.001638     -0.000139
    12   Atom       -0.010056      0.001864     -0.000151
    13   Atom       -0.046066      0.045292     -0.005795
    14   Atom       -0.009729      0.017965     -0.013377
 --------------------------------------------------------


 ---------------------------------------------------------------------------------
              Anisotropic Spin Dipole Couplings in Principal Axis System
 ---------------------------------------------------------------------------------

       Atom             a.u.   MegaHertz   Gauss  10(-4) cm-1        Axes

              Baa    -0.4216    30.507    10.886    10.176  0.5318  0.7629 -0.3677
     1 O(17)  Bbb    -0.3465    25.069     8.945     8.362  0.6787 -0.1243  0.7238
              Bcc     0.7681   -55.576   -19.831   -18.538 -0.5064  0.6345  0.5839
 
              Baa    -0.0169    -2.261    -0.807    -0.754 -0.5456 -0.0364  0.8373
     2 C(13)  Bbb    -0.0118    -1.586    -0.566    -0.529  0.2068  0.9623  0.1765
              Bcc     0.0287     3.847     1.373     1.283  0.8122 -0.2695  0.5175
 
              Baa    -0.0141    -1.887    -0.673    -0.629  0.7228 -0.6876 -0.0688
     3 C(13)  Bbb    -0.0137    -1.833    -0.654    -0.612 -0.3263 -0.4274  0.8431
              Bcc     0.0277     3.720     1.328     1.241  0.6091  0.5870  0.5333
 
              Baa    -0.0098    -1.319    -0.471    -0.440 -0.2217 -0.5164  0.8272
     4 C(13)  Bbb    -0.0005    -0.069    -0.025    -0.023 -0.3759  0.8280  0.4162
              Bcc     0.0103     1.388     0.495     0.463  0.8998  0.2186  0.3777
 
              Baa    -0.5246   -70.390   -25.117   -23.479  0.5329  0.7588 -0.3745
     5 C(13)  Bbb    -0.5111   -68.580   -24.471   -22.876  0.6484 -0.0818  0.7569
              Bcc     1.0356   138.970    49.588    46.355 -0.5437  0.6461  0.5356
 
              Baa    -0.0045    -2.375    -0.848    -0.792 -0.2819 -0.4893  0.8253
     6 H(1)   Bbb    -0.0033    -1.741    -0.621    -0.581 -0.4613  0.8234  0.3306
              Bcc     0.0077     4.116     1.469     1.373  0.8413  0.2875  0.4578
 
              Baa    -0.0056    -3.014    -1.075    -1.005 -0.3915  0.7979  0.4583
     7 H(1)   Bbb    -0.0045    -2.397    -0.855    -0.800  0.6914  0.5837 -0.4257
              Bcc     0.0101     5.411     1.931     1.805  0.6072 -0.1503  0.7802
 
              Baa    -0.0093    -4.951    -1.767    -1.652  0.1016 -0.6487  0.7543
     8 H(1)   Bbb    -0.0067    -3.552    -1.268    -1.185  0.9081 -0.2491 -0.3366
              Bcc     0.0159     8.504     3.034     2.837  0.4062  0.7192  0.5637
 
              Baa    -0.0119    -6.363    -2.271    -2.122  0.4197 -0.2993  0.8569
     9 H(1)   Bbb    -0.0083    -4.403    -1.571    -1.469  0.6260 -0.5882 -0.5120
              Bcc     0.0202    10.766     3.841     3.591  0.6573  0.7513 -0.0596
 
              Baa    -0.0043    -2.285    -0.815    -0.762  0.1243  0.6809  0.7218
    10 H(1)   Bbb    -0.0038    -2.029    -0.724    -0.677 -0.1256  0.7323 -0.6692
              Bcc     0.0081     4.314     1.539     1.439  0.9843  0.0075 -0.1766
 
              Baa    -0.0029    -1.526    -0.544    -0.509 -0.3688 -0.5368  0.7588
    11 H(1)   Bbb    -0.0020    -1.070    -0.382    -0.357  0.1245  0.7805  0.6126
              Bcc     0.0049     2.596     0.926     0.866  0.9211 -0.3204  0.2210
 
              Baa    -0.0096    -5.105    -1.822    -1.703 -0.2024 -0.2230  0.9536
    12 H(1)   Bbb    -0.0067    -3.575    -1.276    -1.193  0.4627  0.8364  0.2939
              Bcc     0.0163     8.680     3.097     2.895  0.8631 -0.5007  0.0661
 
              Baa    -0.0662   -35.297   -12.595   -11.774  0.6345  0.7206 -0.2795
    13 H(1)   Bbb    -0.0065    -3.473    -1.239    -1.158 -0.3670  0.5991  0.7116
              Bcc     0.0727    38.769    13.834    12.932  0.6803 -0.3490  0.6446
 
              Baa    -0.0229   -12.229    -4.363    -4.079  0.6170  0.7869 -0.0115
    14 H(1)   Bbb    -0.0151    -8.036    -2.867    -2.680  0.6862 -0.5451 -0.4817
              Bcc     0.0380    20.264     7.231     6.759  0.3853 -0.2893  0.8762
 

 ---------------------------------------------------------------------------------

 No NMR shielding tensors so no spin-rotation constants.
 Leave Link  601 at Wed Mar 13 04:10:49 2019, MaxMem=   671088640 cpu:               7.5 elap:               0.4
 (Enter /shared/centos7/gaussian/g16/l701.exe)
 SCFChk:  SCF convergence  5.43D-09 required  1.00D-08
 ... and contract with generalized density number  0.
 Compute integral second derivatives.
 Entering OneElI...
 Calculate overlap and kinetic energy integrals
    NBasis = 276  MinDer = 2  MaxDer = 2
 Requested accuracy = 0.1000D-12
 PrmmSu-InSpLW:  IPartL=    0 NPrtUS=   20 NPrtUL=    1 DoSpLW=F IThBeg=    0 IThEnd=   19 NThAct=   20.
 PrsmSu:  NPrtUS=  20 ThrOK=T IAlg=1 NPAlg=1 LenDen=           0 ISkipM=0 DoSpLW=F IThBeg=    0 IThEnd=   19.
 Prism:   IPart=     0 DynPar=F LinDyn=F Incr=           1.
 PRISM was handed    33456445 working-precision words and  3655 shell-pairs
 PRISM was handed    33456445 working-precision words and  3655 shell-pairs
 PRISM was handed    33456445 working-precision words and  3655 shell-pairs
 PRISM was handed    33456445 working-precision words and  3655 shell-pairs
 PRISM was handed    33456445 working-precision words and  3655 shell-pairs
 PRISM was handed    33456445 working-precision words and  3655 shell-pairs
 PRISM was handed    33456445 working-precision words and  3655 shell-pairs
 PRISM was handed    33456445 working-precision words and  3655 shell-pairs
 PRISM was handed    33456445 working-precision words and  3655 shell-pairs
 PRISM was handed    33456445 working-precision words and  3655 shell-pairs
 PRISM was handed    33456445 working-precision words and  3655 shell-pairs
 PRISM was handed    33456445 working-precision words and  3655 shell-pairs
 PRISM was handed    33456445 working-precision words and  3655 shell-pairs
 PRISM was handed    33456445 working-precision words and  3655 shell-pairs
 PRISM was handed    33456445 working-precision words and  3655 shell-pairs
 PRISM was handed    33456445 working-precision words and  3655 shell-pairs
 PRISM was handed    33456445 working-precision words and  3655 shell-pairs
 PRISM was handed    33456445 working-precision words and  3655 shell-pairs
 PRISM was handed    33456445 working-precision words and  3655 shell-pairs
 PRISM was handed    33456445 working-precision words and  3655 shell-pairs
 IPart=  1 NShTot=         211 NBatch=          51 AvBLen=         4.1
 IPart=  5 NShTot=         192 NBatch=          38 AvBLen=         5.1
 IPart=  4 NShTot=         198 NBatch=          42 AvBLen=         4.7
 IPart=  3 NShTot=         201 NBatch=          44 AvBLen=         4.6
 IPart=  2 NShTot=         207 NBatch=          48 AvBLen=         4.3
 IPart= 10 NShTot=         177 NBatch=          33 AvBLen=         5.4
 IPart=  8 NShTot=         187 NBatch=          36 AvBLen=         5.2
 IPart=  0 NShTot=         220 NBatch=          59 AvBLen=         3.7
 IPart=  6 NShTot=         189 NBatch=          38 AvBLen=         5.0
 IPart=  9 NShTot=         182 NBatch=          34 AvBLen=         5.4
 IPart= 15 NShTot=         166 NBatch=          31 AvBLen=         5.4
 IPart= 11 NShTot=         173 NBatch=          33 AvBLen=         5.2
 IPart= 16 NShTot=         164 NBatch=          30 AvBLen=         5.5
 IPart= 14 NShTot=         169 NBatch=          32 AvBLen=         5.3
 IPart=  7 NShTot=         188 NBatch=          37 AvBLen=         5.1
 IPart= 12 NShTot=         171 NBatch=          33 AvBLen=         5.2
 IPart= 13 NShTot=         169 NBatch=          32 AvBLen=         5.3
 IPart= 18 NShTot=         164 NBatch=          30 AvBLen=         5.5
 IPart= 19 NShTot=         163 NBatch=          29 AvBLen=         5.6
 IPart= 17 NShTot=         164 NBatch=          30 AvBLen=         5.5
 PrSmSu:  NxtVal=             21.
 Entering OneElI...
 Calculate potential energy integrals
    NBasis = 276  MinDer = 2  MaxDer = 2
 Requested accuracy = 0.1000D-12
 PrmmSu-InSpLW:  IPartL=    0 NPrtUS=   20 NPrtUL=    1 DoSpLW=F IThBeg=    0 IThEnd=   19 NThAct=   20.
 PrsmSu:  NPrtUS=  20 ThrOK=T IAlg=1 NPAlg=1 LenDen=           0 ISkipM=0 DoSpLW=F IThBeg=    0 IThEnd=   19.
 Prism:   IPart=     0 DynPar=F LinDyn=F Incr=          24.
 PRISM was handed    33468950 working-precision words and  3516 shell-pairs
 PRISM was handed    33468950 working-precision words and  3516 shell-pairs
 PRISM was handed    33468950 working-precision words and  3516 shell-pairs
 PRISM was handed    33468950 working-precision words and  3516 shell-pairs
 PRISM was handed    33468950 working-precision words and  3516 shell-pairs
 PRISM was handed    33468950 working-precision words and  3516 shell-pairs
 PRISM was handed    33468950 working-precision words and  3516 shell-pairs
 PRISM was handed    33468950 working-precision words and  3516 shell-pairs
 PRISM was handed    33468950 working-precision words and  3516 shell-pairs
 PRISM was handed    33468950 working-precision words and  3516 shell-pairs
 PRISM was handed    33468950 working-precision words and  3516 shell-pairs
 PRISM was handed    33468950 working-precision words and  3516 shell-pairs
 PRISM was handed    33468950 working-precision words and  3516 shell-pairs
 PRISM was handed    33468950 working-precision words and  3516 shell-pairs
 PRISM was handed    33468950 working-precision words and  3516 shell-pairs
 PRISM was handed    33468950 working-precision words and  3516 shell-pairs
 PRISM was handed    33468950 working-precision words and  3516 shell-pairs
 PRISM was handed    33468950 working-precision words and  3516 shell-pairs
 PRISM was handed    33468950 working-precision words and  3516 shell-pairs
 PRISM was handed    33468950 working-precision words and  3516 shell-pairs
 IPart=  5 NShTot=        2534 NBatch=         181 AvBLen=        14.0
 IPart=  3 NShTot=        2660 NBatch=         190 AvBLen=        14.0
 IPart=  4 NShTot=        2646 NBatch=         189 AvBLen=        14.0
 IPart=  1 NShTot=        2842 NBatch=         203 AvBLen=        14.0
 IPart= 19 NShTot=        2184 NBatch=         156 AvBLen=        14.0
 IPart= 14 NShTot=        2310 NBatch=         165 AvBLen=        14.0
 IPart=  2 NShTot=        2786 NBatch=         199 AvBLen=        14.0
 IPart=  6 NShTot=        2534 NBatch=         181 AvBLen=        14.0
 IPart= 12 NShTot=        2352 NBatch=         168 AvBLen=        14.0
 IPart=  0 NShTot=        2954 NBatch=         211 AvBLen=        14.0
 IPart= 17 NShTot=        2212 NBatch=         158 AvBLen=        14.0
 IPart= 10 NShTot=        2394 NBatch=         171 AvBLen=        14.0
 IPart= 15 NShTot=        2254 NBatch=         161 AvBLen=        14.0
 IPart= 18 NShTot=        2212 NBatch=         158 AvBLen=        14.0
 IPart= 11 NShTot=        2394 NBatch=         171 AvBLen=        14.0
 IPart=  7 NShTot=        2492 NBatch=         178 AvBLen=        14.0
 IPart= 16 NShTot=        2226 NBatch=         159 AvBLen=        14.0
 IPart=  8 NShTot=        2464 NBatch=         176 AvBLen=        14.0
 IPart= 13 NShTot=        2338 NBatch=         167 AvBLen=        14.0
 IPart=  9 NShTot=        2436 NBatch=         174 AvBLen=        14.0
 PrSmSu:  NxtVal=            481.
 Polarizability after L701:
                1             2             3 
      1  0.000000D+00
      2  0.000000D+00  0.000000D+00
      3  0.000000D+00  0.000000D+00  0.000000D+00
 Dipole Derivatives after L701:
                 1             2             3             4             5 
      1  -0.338097D+00 -0.217801D+00  0.405060D+00 -0.448355D+00 -0.570102D+00
      2   0.197622D+00 -0.537198D+00  0.330925D+00 -0.636583D+00 -0.601319D+00
      3  -0.251176D+00  0.100917D+00 -0.673011D+00 -0.189610D+00  0.140910D+00
                 6             7             8             9            10 
      1  -0.817237D+00 -0.638666D+00  0.129619D+00  0.403588D+00 -0.155113D+01
      2   0.100239D-01  0.253493D+00 -0.129556D+01  0.528759D-01  0.819170D-01
      3  -0.998591D+00  0.470074D+00  0.100094D+00 -0.855143D+00 -0.905196D-01
                11            12            13            14            15 
      1   0.595842D+00  0.621927D+00 -0.453711D+00  0.213580D+00 -0.847161D+00
      2  -0.106883D+01 -0.114647D+00  0.144855D+00 -0.283943D-01  0.211902D+00
      3   0.258821D-01 -0.840363D+00 -0.477666D+00  0.126011D+00 -0.591947D+00
                16            17            18            19            20 
      1   0.708535D+00  0.515426D+00  0.254759D+00  0.374059D-01 -0.155405D+00
      2   0.300131D+00  0.455412D+00  0.139865D+00  0.328866D-01  0.226390D+00
      3   0.277552D+00  0.268197D+00  0.292453D+00 -0.191109D+00 -0.303140D+00
                21            22            23            24            25 
      1   0.245490D+00  0.270383D+00 -0.113805D+00 -0.130702D+00  0.198755D+00
      2  -0.747542D-01 -0.301538D+00  0.598529D+00  0.497375D+00  0.260011D+00
      3   0.623065D+00 -0.109459D+00  0.167310D+00  0.352669D+00 -0.127231D+00
                26            27            28            29            30 
      1   0.728190D-01 -0.800087D-01  0.398284D+00  0.417026D+00 -0.728705D+00
      2   0.555480D+00 -0.535558D+00 -0.440134D-02  0.135651D+00  0.261438D-01
      3  -0.206301D+00  0.461820D+00 -0.179247D+00 -0.267364D+00  0.572979D+00
                31            32            33            34            35 
      1   0.103393D+01 -0.552935D+00  0.486303D+00 -0.951034D-01 -0.262243D+00
      2  -0.414590D+00  0.361537D+00 -0.209685D+00  0.406366D+00  0.556044D+00
      3   0.445310D-01 -0.130240D-01  0.155174D+00  0.190595D+00  0.206596D+00
                36            37            38            39            40 
      1  -0.150513D+00  0.749129D+00 -0.236316D+00  0.696210D+00  0.128650D+00
      2   0.208103D+00 -0.123001D+00  0.213949D+00 -0.206489D+00 -0.197166D+00
      3   0.236817D+00  0.393412D+00 -0.201846D+00  0.614546D+00  0.239853D+00
                41            42 
      1   0.164293D+00 -0.359010D+00
      2   0.428317D+00 -0.336080D+00
      3  -0.144243D+00  0.649533D+00
 Hessian after L701:
                1             2             3             4             5 
      1  0.880113D+01
      2 -0.207856D+01  0.879252D+01
      3 -0.117612D-01  0.436564D+01  0.764092D+01
      4  0.176322D+00  0.394505D+00  0.283660D+00  0.113776D+02
      5  0.417549D+00 -0.218169D-01  0.144403D+00  0.817598D+00  0.123168D+02
      6  0.601774D-01  0.879111D-01 -0.323139D+00 -0.385826D+00 -0.234083D+00
      7  0.596053D+00  0.443060D+00 -0.250334D+00 -0.189995D+01 -0.162138D+01
      8  0.370437D+00 -0.108160D+00 -0.129934D+00 -0.153063D+01 -0.346891D+01
      9 -0.236592D+00 -0.185635D+00 -0.275363D+00  0.143399D+01 -0.868759D+00
     10  0.275967D+00 -0.259186D-01 -0.825037D-01 -0.405760D+01 -0.116214D+01
     11  0.587583D-01 -0.168203D+00 -0.374281D-03 -0.114015D+01 -0.302927D+01
     12 -0.497115D-01  0.671943D-02 -0.146150D+00 -0.111743D+01  0.166587D+01
     13 -0.609687D+01  0.192106D+01 -0.190775D+01  0.565901D+00 -0.119821D+00
     14  0.201014D+01 -0.335960D+01 -0.331096D+01 -0.224935D+00  0.698660D-01
     15 -0.192360D+01 -0.327125D+01 -0.405228D+01 -0.148084D+00 -0.918077D-01
     16  0.405372D-01  0.227137D-01  0.151645D-01 -0.258977D+01  0.111908D+01
     17  0.362499D-01  0.395941D-03  0.109946D-01  0.109605D+01 -0.268178D+01
     18  0.180353D-01  0.586561D-02 -0.803734D-02  0.635796D+00  0.619007D+00
     19  0.436890D-01 -0.127724D-01  0.335671D-01 -0.369440D+01  0.339714D+00
     20 -0.331043D-01 -0.436422D-01 -0.179449D-01  0.401602D+00 -0.327268D+01
     21  0.854899D-01 -0.376837D-02  0.104747D-01 -0.739600D+00 -0.109652D+01
     22 -0.312214D-01 -0.953493D-02  0.737581D-02  0.101186D-02  0.873838D-01
     23  0.348567D-01  0.406755D-01  0.390732D-01  0.121960D+00  0.130609D-01
     24  0.259289D-01  0.451287D-01 -0.988636D-03  0.195123D-01  0.363538D-02
     25  0.207066D-01  0.829269D-01 -0.404153D-01 -0.400354D-01  0.110786D-01
     26  0.956829D-01  0.680861D-01 -0.501165D-01 -0.308719D-01  0.469122D-01
     27 -0.656867D-01 -0.725623D-01 -0.151028D-01  0.229579D-02 -0.716816D-01
     28  0.365932D-01  0.790488D-02 -0.163900D-01  0.201594D-01 -0.264664D-02
     29  0.194998D-01 -0.121503D-01 -0.501622D-02  0.222277D-01  0.363767D-01
     30 -0.408062D-01 -0.424395D-02 -0.540064D-02 -0.162228D-01 -0.593215D-02
     31  0.426266D-01 -0.102479D-01  0.602141D-02  0.166438D-01  0.372100D-01
     32 -0.167457D-01 -0.800024D-02 -0.236443D-02  0.413460D-01  0.129278D-01
     33  0.881511D-02 -0.198714D-02 -0.900705D-02  0.475691D-01 -0.272061D-01
     34  0.431797D-01 -0.175494D-01 -0.290790D-01  0.989066D-02  0.282909D-01
     35 -0.679170D-01 -0.274097D-01  0.160887D-01 -0.481418D-01  0.551588D-01
     36 -0.634019D-01  0.164571D-01 -0.311007D-01 -0.435303D-01  0.156818D-01
     37  0.117020D+00 -0.936573D-01  0.134445D+00  0.875068D-01 -0.897829D-02
     38 -0.682220D-01 -0.178859D-01  0.822853D-01 -0.190641D-01 -0.541541D-01
     39  0.111032D+00  0.474281D-01  0.354875D-03  0.104373D+00 -0.454180D-02
     40 -0.406573D+01 -0.623923D+00  0.185800D+01  0.266726D-01  0.570578D-01
     41 -0.778619D+00 -0.513481D+01 -0.114178D+01  0.985056D-01 -0.224509D-01
[...]
 ! D4    D(4,2,3,8)           -176.9012         -DE/DX =    0.0                 !
 ! D5    D(4,2,3,9)            -61.0471         -DE/DX =    0.0                 !
 ! D6    D(6,2,3,5)           -178.0412         -DE/DX =    0.0                 !
 ! D7    D(6,2,3,8)            -54.5607         -DE/DX =    0.0                 !
 ! D8    D(6,2,3,9)             61.2934         -DE/DX =    0.0                 !
 ! D9    D(7,2,3,5)            -63.4104         -DE/DX =    0.0                 !
 ! D10   D(7,2,3,8)             60.0701         -DE/DX =    0.0                 !
 ! D11   D(7,2,3,9)            175.9242         -DE/DX =    0.0                 !
 ! D12   D(3,2,4,10)            57.8687         -DE/DX =    0.0                 !
 ! D13   D(3,2,4,11)           177.9658         -DE/DX =    0.0                 !
 ! D14   D(3,2,4,12)           -61.2035         -DE/DX =    0.0                 !
 ! D15   D(6,2,4,10)           -63.5534         -DE/DX =    0.0                 !
 ! D16   D(6,2,4,11)            56.5436         -DE/DX =    0.0                 !
 ! D17   D(6,2,4,12)           177.3744         -DE/DX =    0.0                 !
 ! D18   D(7,2,4,10)          -178.8695         -DE/DX =    0.0                 !
 ! D19   D(7,2,4,11)           -58.7725         -DE/DX =    0.0                 !
 ! D20   D(7,2,4,12)            62.0583         -DE/DX =    0.0                 !
 ! D21   D(2,3,5,1)             57.8117         -DE/DX =    0.0                 !
 ! D22   D(2,3,5,13)          -154.1041         -DE/DX =    0.0                 !
 ! D23   D(8,3,5,1)            -64.753          -DE/DX =    0.0                 !
 ! D24   D(8,3,5,13)            83.3312         -DE/DX =    0.0                 !
 ! D25   D(9,3,5,1)            179.0712         -DE/DX =    0.0                 !
 ! D26   D(9,3,5,13)           -32.8446         -DE/DX =    0.0                 !
 --------------------------------------------------------------------------------
 GradGradGradGradGradGradGradGradGradGradGradGradGradGradGradGradGradGrad

 Leave Link  103 at Wed Mar 13 04:22:32 2019, MaxMem=   671088640 cpu:               0.5 elap:               0.1
 (Enter /shared/centos7/gaussian/g16/l9999.exe)

 ----------------------------------------------------------------------

 Electric dipole moment (input orientation):
 (Debye = 10**-18 statcoulomb cm , SI units = C m)
                  (au)            (Debye)         (10**-30 SI)
   Tot        0.694282D+00      0.176469D+01      0.588637D+01
   x          0.557571D+00      0.141720D+01      0.472729D+01
   y          0.286348D+00      0.727823D+00      0.242776D+01
   z          0.298574D+00      0.758900D+00      0.253142D+01

 Dipole polarizability, Alpha (input orientation).
 (esu units = cm**3 , SI units = C**2 m**2 J**-1)
 Alpha(0;0):
               (au)            (10**-24 esu)      (10**-40 SI)
   iso        0.541675D+02      0.802679D+01      0.893101D+01
   aniso      0.582956D+01      0.863852D+00      0.961165D+00
   xx         0.578794D+02      0.857685D+01      0.954303D+01
   yx        -0.183859D+00     -0.272451D-01     -0.303143D-01
   yy         0.521201D+02      0.772340D+01      0.859344D+01
   zx         0.959243D+00      0.142145D+00      0.158158D+00
   zy        -0.588749D-01     -0.872436D-02     -0.970716D-02
   zz         0.525030D+02      0.778013D+01      0.865657D+01

 ----------------------------------------------------------------------

 Dipole orientation:
     8         -2.00474434         -0.65496293         -3.03211097
     6          0.09984270         -0.46047444          2.32583234
     6         -0.51443540          1.80612189          0.62192357
     6          2.71068300         -1.56521193          1.81728325
     6         -0.46440241          1.20260582         -2.12518989
     1         -0.04603265          0.14036791          4.29240548
     1         -1.33811400         -1.93225696          2.10147868
     1         -2.37187017          2.56572953          1.16407418
     1          0.85856864          3.30513947          0.97168844
     1          4.16482462         -0.12625439          2.07154481
     1          3.12703552         -3.12522275          3.09376757
     1          2.85697775         -2.25460163         -0.11822354
     1         -0.08257697          2.63270742         -3.52865015
     1         -2.42550812         -1.81337932         -1.69914748

 Electric dipole moment (dipole orientation):
 (Debye = 10**-18 statcoulomb cm , SI units = C m)
                  (au)            (Debye)         (10**-30 SI)
   Tot        0.694282D+00      0.176469D+01      0.588637D+01
   x          0.000000D+00      0.000000D+00      0.000000D+00
   y          0.000000D+00      0.000000D+00      0.000000D+00
   z          0.694282D+00      0.176469D+01      0.588637D+01

 Dipole polarizability, Alpha (dipole orientation).
 (esu units = cm**3 , SI units = C**2 m**2 J**-1)
 Alpha(0;0):
               (au)            (10**-24 esu)      (10**-40 SI)
   iso        0.541675D+02      0.802679D+01      0.893101D+01
   aniso      0.582956D+01      0.863852D+00      0.961165D+00
   xx         0.532819D+02      0.789556D+01      0.878499D+01
   yx        -0.707058D+00     -0.104775D+00     -0.116578D+00
   yy         0.527953D+02      0.782345D+01      0.870476D+01
   zx         0.203277D+01      0.301226D+00      0.335159D+00
   zy        -0.167730D+01     -0.248550D+00     -0.276549D+00
   zz         0.564253D+02      0.836137D+01      0.930328D+01

 ----------------------------------------------------------------------

 Test job not archived.
 1\1\GINC-C0165\Freq\UM062X\6-311+G(2df,2p)\C4H9O1(2)\UNDERKOFFLER.C\13
 -Mar-2019\0\\#P Geom=AllCheck Guess=TCheck SCRF=Check Test GenChk UM06
 2X/6-311+G(2df,2p) Freq\\Gaussian input prepared by ASE\\0,2\O,-1.7907
 140536,-0.7214144654,0.3048965902\C,1.0738709111,0.2806933217,0.587361
 4828\C,-0.1065195686,1.0408599027,-0.0340350264\C,1.7516469455,-0.6653
 646521,-0.3968060483\C,-1.1854739633,0.15378532,-0.5487433358\H,1.7935
 972444,1.0079136541,0.965755578\H,0.7411665359,-0.2782178681,1.4686240
 223\H,-0.5088370729,1.7409985185,0.7129243882\H,0.2572737556,1.6478012
 68,-0.8650982799\H,2.1057867533,-0.1172137654,-1.2709764978\H,2.606286
 9933,-1.1651261041,0.0572208428\H,1.0560979216,-1.4271396487,-0.748982
 896\H,-1.8462690231,0.467436027,-1.342520846\H,-1.2044903792,-0.919010
 5082,1.039883026\\Version=EM64L-G16RevA.03\State=2-A\HF=-232.9743723\S
 2=0.754457\S2-1=0.\S2A=0.750016\RMSD=2.693e-09\RMSF=1.325e-06\ZeroPoin
 t=0.1243389\Thermal=0.1310888\Dipole=0.5575712,0.2863476,0.2985741\Dip
 oleDeriv=-0.5504471,-0.2640245,0.1835096,-0.3085217,-0.6723526,0.23263
 07,0.2966706,0.3535729,-0.6416642,0.0851767,-0.0081168,-0.029142,-0.01
 32295,0.0906735,-0.0088079,-0.0469729,-0.0031515,0.1082492,0.0795875,-
 0.0218647,0.0085175,-0.0508514,0.0689231,0.098639,-0.0762136,0.020833,
 0.0895147,0.0280647,0.0351928,0.0147028,0.0380932,0.0195357,-0.0441997
 ,-0.0008058,-0.0317188,0.0436603,0.2876245,0.3297429,-0.0799394,0.4126
 435,0.2894483,-0.3895238,-0.1027683,-0.3987958,0.3303467,-0.0692826,-0
 .0619505,-0.057142,-0.0640495,-0.0514499,-0.074794,-0.0307512,-0.05260
 06,0.0173809,-0.0126876,-0.0118697,0.0930722,-0.007691,-0.0322643,0.09
 65583,0.0769214,0.0719396,-0.1097055,-0.0380845,0.0481187,0.0474596,0.
 0247469,-0.0737201,-0.0996371,0.0007401,-0.1444918,-0.0612943,0.016385
 2,-0.0488467,0.0389053,-0.0215973,0.0085224,0.0607361,0.0219702,0.0961
 986,-0.0485769,0.0449683,-0.0051467,0.0424787,-0.0343663,-0.0087916,0.
 0899414,0.0725927,0.0437266,-0.0719864,-0.0845932,0.1002447,-0.0384882
 ,0.0911545,0.0130811,0.0181271,-0.0699243,0.0339504,0.0237818,-0.00974
 31,-0.0954956,-0.0284336,-0.0630651,-0.0206429,-0.0433181,-0.0048078,-
 0.0438723,0.0299112,-0.0494171,-0.021303,-0.1112586,-0.0327629,0.06180
 31,0.0788002,-0.055655,0.0719865,0.0340617,0.2724484,0.0253191,-0.0842
 419,0.0294963,0.3072345,-0.0151523,-0.080996,-0.0175769,0.2563206\Pola
 r=57.8794195,-0.1838591,52.120076,0.9592435,-0.0588749,52.5029526\Quad
 rupole=-2.1753477,0.4867993,1.6885484,-1.0429211,0.2627528,-1.4338772\
 PG=C01 [X(C4H9O1)]\NImag=0\\0.35925863,0.07153269,0.21746127,0.1749352
 4,-0.23785598,0.50335277,0.00154443,0.00166852,-0.00075374,0.50716040,
 -0.00027207,-0.00058398,0.00068425,0.07036301,0.53441886,0.00068897,0.
 00185336,-0.00240914,-0.00167806,-0.00723457,0.54018471,-0.00870495,-0
 .01525158,-0.00418756,-0.13460798,0.03394658,-0.02865387,0.47444063,-0
 .01804260,-0.01937936,-0.00149473,0.04179176,-0.10583532,0.02488516,0.
 02862092,0.51307843,0.02467301,0.02434055,0.00673016,-0.03091696,0.024
 27069,-0.09465722,-0.04604554,-0.02534083,0.55486950,0.00009825,-0.000
 90533,0.00004063,-0.10225052,0.03085372,0.03342411,-0.01566186,0.01982
 719,0.01780736,0.56184048,0.00001417,0.00001336,-0.00094965,0.03025507
 ,-0.12587826,-0.04938972,0.01185379,-0.01277728,-0.01036604,0.02129941
 ,0.53999396,-0.00007666,-0.00099074,0.00056137,0.03484220,-0.05120124,
 -0.13447160,-0.00416343,0.00779310,0.01062032,0.03286667,-0.03993144,0
 .53396578,-0.13122384,-0.10590449,0.06844305,-0.02556221,-0.01193152,-
 0.01574972,-0.14656937,-0.07839751,-0.05946017,-0.00017521,0.00047544,
 0.00051736,0.45786234,-0.09327236,-0.14919433,0.14371194,0.00434002,0.
 01541684,-0.00025396,-0.06599038,-0.11872445,-0.02336159,0.00207425,-0
 .00048154,0.00169158,0.14267278,0.34965138,0.03547327,0.11445942,-0.18
 993411,-0.01696564,-0.01102076,-0.00812233,-0.04132657,-0.01815956,-0.
 10341591,0.00110785,0.00031626,0.00019285,0.16506004,-0.18819872,0.529
 42988,0.00002391,0.00019380,-0.00044815,-0.16319589,-0.11875383,-0.058
 47240,-0.01851808,-0.01629615,-0.00812056,0.01134740,0.01247687,0.0061
 4716,-0.00242628,0.00377164,-0.00257542,0.17882200,-0.00007298,0.00058
 650,-0.00041587,-0.11953435,-0.16550682,-0.05962798,0.01444007,0.01139
 013,0.00663666,-0.01268038,-0.01467058,-0.00712175,0.00196513,-0.00244
 346,0.00228504,0.12501142,0.18128507,0.00034494,-0.00072846,0.00129937
 ,-0.05745280,-0.05894260,-0.07676860,-0.01074246,-0.00883821,-0.005366
 12,-0.01426982,-0.01559306,-0.00780797,-0.00101568,0.00303468,-0.00184
 074,0.06385277,0.06575629,0.08338229,-0.00080402,-0.00031807,0.0003640
 7,-0.07251564,-0.04103890,0.06067319,0.00880102,0.01484739,-0.02150470
 ,-0.00559332,-0.00759623,0.01251731,0.00112967,-0.00031326,0.00016769,
 -0.00763813,-0.01197973,0.01838684,0.08119109,-0.00032703,0.00079870,-
 0.00163948,-0.04201130,-0.11447413,0.10352381,-0.00446052,-0.00947243,
 0.01340373,0.00770091,0.01117611,-0.01852334,-0.00127549,-0.00116764,0
 .00022604,-0.00718286,-0.01244597,0.01798665,0.04294619,0.12564377,0.0
 0037365,-0.00165807,0.00231260,0.06251328,0.10394152,-0.20687472,0.003
 07545,0.00670784,-0.01086988,0.00778245,0.01057686,-0.01803078,0.00187
 307,0.00239103,-0.00140256,-0.00248161,-0.00483824,0.00810678,-0.06889
 906,-0.11383333,0.22673729,-0.00017912,0.00218041,0.00241743,-0.010946
 01,0.01624353,0.01831326,-0.07741831,0.05118934,0.05959752,-0.00370855
 ,0.00228169,-0.00388579,0.00784756,-0.01703095,-0.02071808,0.00039631,
 -0.00075021,0.00059577,0.00124915,-0.00011034,-0.00044633,0.08825580,-
 0.00052795,0.00141769,0.00376666,0.00845195,-0.01145873,-0.01161540,0.
 05954277,-0.13999636,-0.10081467,0.00261019,-0.00047812,0.00275620,-0.
 00010727,-0.01454636,-0.01983400,-0.00014604,0.00074075,0.00014728,-0.
 00083257,0.00001648,-0.00017016,-0.06270803,0.15391784,-0.00197750,-0.
 00069540,0.00440855,-0.00655309,0.01008194,0.00925030,0.06779740,-0.09
 957770,-0.15669116,-0.00192329,0.00112423,-0.00088054,-0.00159658,-0.0
 1017939,-0.01364949,0.00083412,-0.00044682,0.00046930,0.00075676,-0.00
 035296,0.00052480,-0.06471927,0.11520344,0.17268271,-0.00387225,-0.004
 93943,-0.00219059,0.00777074,0.01595227,-0.02089237,-0.07758230,-0.050
 90312,0.06798011,0.00155278,-0.00062582,-0.00084638,-0.00628100,-0.012
 02138,0.02114887,0.00119691,-0.00070220,0.00037746,-0.00396448,0.00331
 015,-0.00222895,-0.00461451,-0.00624300,0.00893975,0.08636967,-0.00433
 739,-0.00185663,-0.00141018,-0.00456781,-0.00969657,0.01255863,-0.0503
 8872,-0.12620821,0.10924681,-0.00125738,0.00023473,0.00047836,-0.00509
 943,-0.01338854,0.01729669,-0.00008949,0.00067802,-0.00057434,0.002477
 73,-0.00079801,0.00113989,0.00695508,0.01180266,-0.01527141,0.05520374
 ,0.13791130,-0.00278597,-0.00254730,0.00101240,0.00334906,0.00791941,-
 0.01184312,0.06985964,0.11176210,-0.20015248,0.00036171,-0.00100515,0.
 00096366,-0.00311018,-0.00714207,0.00863739,-0.00000141,-0.00037436,0.
 00001219,-0.00258534,0.00087824,0.00016160,0.00743666,0.01169843,-0.01
 677776,-0.07215277,-0.12147252,0.21726490,0.00016578,0.00056475,-0.000
 58863,-0.00587664,-0.00729354,0.01191364,0.00052762,-0.00111501,0.0006
 4768,-0.07511490,-0.04422716,0.06749656,-0.00016439,-0.00059510,0.0001
 4891,0.00044515,0.00020127,-0.00064031,-0.00059330,0.00225837,0.001947
 08,0.00023708,0.00006160,-0.00022141,-0.00014863,0.00052898,-0.0002434
 9,0.07752153,0.00000621,0.00024582,-0.00003902,0.00819704,0.01113709,-
 0.01811068,-0.00049022,0.00143154,-0.00054856,-0.04453606,-0.11767558,
 0.11023181,-0.00001427,-0.00015288,0.00015852,-0.00064424,0.00100040,0
 .00061179,0.00274776,-0.00204052,-0.00342935,-0.00036062,0.00008690,0.
 00001056,-0.00028650,-0.00014898,0.00041493,0.04677586,0.12617344,-0.0
 0007646,0.00002158,0.00011796,0.00774998,0.01096208,-0.01899616,-0.001
 05988,0.00074622,0.00098569,0.06764129,0.10924606,-0.21454117,0.000369
 26,-0.00008752,-0.00004621,-0.00062832,0.00016840,0.00032790,0.0018164
 6,-0.00346046,-0.00179541,-0.00034505,-0.00018258,0.00023484,0.0005964
 3,-0.00052160,0.00056211,-0.07717628,-0.11767800,0.23467215,-0.0001865
 1,-0.00031862,0.00032335,-0.01034422,0.00466054,-0.00638379,-0.0002977
 2,0.00121766,0.00275033,-0.21293206,0.09561901,-0.09009977,0.00032749,
 0.00076890,0.00006905,0.00071118,0.00002030,0.00011406,-0.00011092,-0.
 00045579,0.00006042,-0.00058544,0.00043395,-0.00052912,0.00007449,0.00
 005161,-0.00011867,0.00970342,-0.00533823,0.00442999,0.22935306,0.0001
 9446,0.00026161,0.00002398,0.01526020,-0.00978734,0.01005138,0.0012174
 2,-0.00193040,-0.00391360,0.09510115,-0.10257377,0.05239903,-0.0009091
 0,-0.00000785,-0.00008427,-0.00051113,0.00012059,0.00060422,-0.0003205
 8,0.00079679,-0.00010767,0.00138194,-0.00050036,0.00034888,-0.00033686
 ,0.00035440,-0.00024925,0.01324083,-0.00799627,0.00638652,-0.10677673,
 0.10930465,-0.00004010,-0.00006274,0.00022817,0.01932458,-0.01069562,0
 .01056835,0.00151886,-0.00254767,-0.00318957,-0.09117914,0.05335480,-0
 .09699246,-0.00051271,0.00014956,-0.00013695,-0.00066460,0.00060541,0.
 00085957,-0.00031336,0.00089264,0.00080740,0.00101581,-0.00085172,0.00
 049411,-0.00002554,-0.00028401,0.00007878,-0.02081896,0.01022590,-0.01
 064745,0.09794165,-0.05550719,0.10302587,0.00010701,-0.00028641,0.0001
 7369,0.01140386,0.01197878,0.00492604,0.00094325,-0.00032505,-0.000362
 97,-0.15931388,-0.12209613,-0.05469628,-0.00170183,0.00117866,-0.00023
 559,-0.00091088,0.00277465,0.00218361,0.00069438,-0.00065485,-0.000681
 76,0.00007561,-0.00034483,-0.00002960,-0.00009384,0.00006620,-0.000042
 48,-0.00695211,-0.00597642,-0.00316871,-0.01570138,-0.01764113,-0.0063
 6436,0.17140254,0.00002751,-0.00007004,0.00042553,-0.01284162,-0.01487
 005,-0.00618727,-0.00116649,0.00026476,0.00005557,-0.12055543,-0.17743
 406,-0.05786056,0.00018175,0.00035780,0.00003798,0.00256648,-0.0012951
 1,-0.00274660,0.00032673,0.00097275,0.00018391,0.00020913,0.00023302,0
 .00010059,0.00003936,-0.00004223,-0.00002316,-0.01040654,-0.01185346,-
 0.00544162,0.01000499,0.01206289,0.00476091,0.13140479,0.19184124,0.00
 004508,0.00080538,-0.00046424,-0.01490604,-0.01664466,-0.00819776,-0.0
 0038374,0.00099131,0.00043694,-0.05411915,-0.05787634,-0.07349132,-0.0
 0032640,-0.00054172,0.00084030,0.00265961,-0.00279423,-0.00234158,-0.0
 0063684,0.00069373,0.00043524,-0.00001321,0.00006811,-0.00005236,0.000
 09941,0.00001390,-0.00000880,0.01757616,0.01833628,0.00923758,-0.00834
 620,-0.00990383,-0.00508455,0.05796875,0.06706322,0.07909790,0.0124504
 5,-0.00607875,0.01726344,-0.00236229,-0.00359295,-0.00135587,-0.005418
 28,0.01003024,-0.00866636,0.00021093,-0.00032438,-0.00037823,-0.164952
 79,0.03910901,-0.15995490,-0.00109522,0.00069878,-0.00065017,0.0001552
 1,0.00013183,-0.00016535,-0.00059709,-0.00033672,-0.00061347,0.0000767
 4,0.00017285,0.00034816,-0.00010200,-0.00006593,0.00008803,-0.00003507
 ,0.00010529,0.00011898,0.00008773,0.00015572,0.00002698,0.16147011,0.0
 1206169,-0.01131726,0.02171171,-0.00049286,-0.00319937,-0.00075424,-0.
 01366933,0.00820399,-0.01360931,0.00013522,0.00002049,0.00007551,0.040
 54753,-0.05643576,0.07569427,-0.00076844,0.00063609,-0.00044030,-0.000
 03483,0.00012352,-0.00028778,0.00076416,-0.00014570,0.00005989,0.00082
 905,0.00074960,0.00045585,0.00004840,0.00005405,0.00000025,-0.00001849
 ,0.00005241,0.00004610,-0.00003112,0.00005152,0.00018729,-0.03656303,0
 .06275893,-0.01134923,0.00999876,-0.01946250,0.00079969,-0.00172651,0.
 00062265,-0.00570383,0.00394718,-0.00186099,0.00006781,-0.00003726,0.0
 0008805,-0.13670248,0.06988571,-0.19300591,-0.00016794,0.00033846,-0.0
 0004640,0.00006449,-0.00000991,0.00011085,0.00067977,0.00023512,0.0003
 3894,-0.00013691,-0.00055852,0.00037940,-0.00000662,0.00002029,0.00000
 286,0.00000093,0.00002517,0.00001687,0.00001656,0.00001588,0.00000875,
 0.15092602,-0.08571430,0.21289039,-0.22867776,0.05786251,-0.25579223,-
 0.00021803,-0.00111562,0.00324687,0.00006634,-0.00244506,0.00162124,-0
 .00029953,0.00059427,-0.00024071,0.01188985,-0.00469183,0.01860052,0.0
 0084161,0.00060823,-0.00108421,-0.00200071,0.00013074,-0.00272233,-0.0
 0001247,0.00014595,-0.00016468,-0.00048432,0.00028401,-0.00031490,0.00
 035138,-0.00001440,-0.00023675,0.00002367,-0.00000576,-0.00000111,-0.0
 0004046,0.00005362,0.00035559,0.00011156,-0.00280795,0.00151174,0.2184
 4888,0.03301563,-0.03838334,0.07348083,-0.00087963,0.00031777,0.000301
 49,0.00179570,-0.00004502,0.00000059,0.00033252,0.00053055,0.00020349,
 0.01779646,-0.00888323,0.02682309,0.00037198,-0.00007561,-0.00027732,-
 0.00091164,0.00087060,-0.00061647,-0.00024511,-0.00108970,-0.00040585,
 0.00072372,0.00040848,-0.00031515,-0.00004270,-0.00026154,-0.00015933,
 0.00013090,-0.00015735,-0.00008637,-0.00004715,-0.00021903,-0.00039845
 ,-0.00344196,-0.00155251,0.00357992,-0.04859872,0.04853994,-0.22022824
 ,0.09305964,-0.30775336,0.00064754,-0.00039393,0.00171464,0.00001553,-
 0.00087421,0.00256071,0.00039153,0.00053046,-0.00017618,-0.01778886,0.
 00890046,-0.02754619,0.00006677,-0.00017104,-0.00028599,-0.00080753,0.
 00021465,-0.00022320,0.00007151,-0.00040670,-0.00035224,-0.00066853,-0
 .00064169,-0.00029028,-0.00003434,-0.00020448,-0.00011470,-0.00021221,
 -0.00007337,-0.00002814,0.00031310,-0.00038437,-0.00041612,0.00301274,
 0.00257506,-0.00008298,0.23522099,-0.10213048,0.33299402\\0.00000050,-
 0.00000178,-0.00000117,-0.00000066,0.00000105,0.00000044,-0.00000089,-
 0.00000043,-0.00000098,0.00000099,0.00000103,0.00000159,0.00000036,-0.
 00000171,-0.00000129,-0.00000162,0.00000197,0.00000056,-0.00000084,0.0
 0000132,0.00000055,-0.00000210,-0.00000032,-0.00000175,-0.00000077,-0.
 00000063,-0.00000107,0.00000118,0.00000081,0.00000153,0.00000109,0.000
 00213,0.00000260,0.00000198,0.00000019,0.00000154,0.00000070,-0.000002
 87,-0.00000196,0.00000008,-0.00000076,-0.00000058\\\@


 CHILDREN YOU ARE VERY LITTLE,
 AND YOUR BONES ARE VERY BRITTLE;
 IF YOU WOULD GROW GREAT AND STATELY
 YOU MUST TRY TO WALK SEDATELY.
 YOU MUST STILL BE BRIGHT AND QUIET,
 AND CONTENT WITH SIMPLE DIET;
 AND REMAIN, THROUGH ALL BEWILD'RING
 INNOCENT AND HONEST CHILDREN.
     -- A CHILD'S GARDEN OF VERSE,
        ROBERT LOUIS STEVENSON
 Job cpu time:       0 days  2 hours 11 minutes 19.9 seconds.
 Elapsed time:       0 days  0 hours  6 minutes 34.6 seconds.
 File lengths (MBytes):  RWF=   1376 Int=      0 D2E=      0 Chk=     32 Scr=     32
 Normal termination of Gaussian 16 at Wed Mar 13 04:22:32 2019.
