 Entering Gaussian System, Link 0=g16
 Input=DHVSQGCGLGSLDF-UHFFFAOYSA-N_GeoFreq_c6_a1.com
 Output=DHVSQGCGLGSLDF-UHFFFAOYSA-N_GeoFreq_c6_a1.log
 Initial command:
 /shared/centos7/gaussian/g16/l1.exe "/scratch/underkoffler.c/gaussian_scratch/Gau-16015.inp" -scrdir="/scratch/underkoffler.c/gaussian_scratch/"
 Entering Link 1 = /shared/centos7/gaussian/g16/l1.exe PID=     16016.
  
 Copyright (c) 1988,1990,1992,1993,1995,1998,2003,2009,2016,
            Gaussian, Inc.  All Rights Reserved.
  
 This is part of the Gaussian(R) 16 program.  It is based on
 the Gaussian(R) 09 system (copyright 2009, Gaussian, Inc.),
 the Gaussian(R) 03 system (copyright 2003, Gaussian, Inc.),
 the Gaussian(R) 98 system (copyright 1998, Gaussian, Inc.),
 the Gaussian(R) 94 system (copyright 1995, Gaussian, Inc.),
 the Gaussian 92(TM) system (copyright 1992, Gaussian, Inc.),
 the Gaussian 90(TM) system (copyright 1990, Gaussian, Inc.),
 the Gaussian 88(TM) system (copyright 1988, Gaussian, Inc.),
 the Gaussian 86(TM) system (copyright 1986, Carnegie Mellon
 University), and the Gaussian 82(TM) system (copyright 1983,
 Carnegie Mellon University). Gaussian is a federally registered
 trademark of Gaussian, Inc.
  
 This software contains proprietary and confidential information,
 including trade secrets, belonging to Gaussian, Inc.
  
 This software is provided under written license and may be
 used, copied, transmitted, or stored only in accord with that
 written license.
  
 The following legend is applicable only to US Government
 contracts under FAR:
  
                    RESTRICTED RIGHTS LEGEND
  
 Use, reproduction and disclosure by the US Government is
 subject to restrictions as set forth in subparagraphs (a)
 and (c) of the Commercial Computer Software - Restricted
 Rights clause in FAR 52.227-19.
  
 Gaussian, Inc.
 340 Quinnipiac St., Bldg. 40, Wallingford CT 06492
  
  
 ---------------------------------------------------------------
 Warning -- This program may not be used in any manner that
 competes with the business of Gaussian, Inc. or will provide
 assistance to any competitor of Gaussian, Inc.  The licensee
 of this program is prohibited from giving any competitor of
 Gaussian, Inc. access to this program.  By using this program,
 the user acknowledges that Gaussian, Inc. is engaged in the
 business of creating and licensing software in the field of
 computational chemistry and represents and warrants to the
 licensee that it is not a competitor of Gaussian, Inc. and that
 it will not use this program in any manner prohibited above.
 ---------------------------------------------------------------
  

 Cite this work as:
 Gaussian 16, Revision A.03,
 M. J. Frisch, G. W. Trucks, H. B. Schlegel, G. E. Scuseria, 
 M. A. Robb, J. R. Cheeseman, G. Scalmani, V. Barone, 
 G. A. Petersson, H. Nakatsuji, X. Li, M. Caricato, A. V. Marenich, 
 J. Bloino, B. G. Janesko, R. Gomperts, B. Mennucci, H. P. Hratchian, 
 J. V. Ortiz, A. F. Izmaylov, J. L. Sonnenberg, D. Williams-Young, 
 F. Ding, F. Lipparini, F. Egidi, J. Goings, B. Peng, A. Petrone, 
 T. Henderson, D. Ranasinghe, V. G. Zakrzewski, J. Gao, N. Rega, 
 G. Zheng, W. Liang, M. Hada, M. Ehara, K. Toyota, R. Fukuda, 
 J. Hasegawa, M. Ishida, T. Nakajima, Y. Honda, O. Kitao, H. Nakai, 
 T. Vreven, K. Throssell, J. A. Montgomery, Jr., J. E. Peralta, 
 F. Ogliaro, M. J. Bearpark, J. J. Heyd, E. N. Brothers, K. N. Kudin, 
 V. N. Staroverov, T. A. Keith, R. Kobayashi, J. Normand, 
 K. Raghavachari, A. P. Rendell, J. C. Burant, S. S. Iyengar, 
 J. Tomasi, M. Cossi, J. M. Millam, M. Klene, C. Adamo, R. Cammi, 
 J. W. Ochterski, R. L. Martin, K. Morokuma, O. Farkas, 
 J. B. Foresman, and D. J. Fox, Gaussian, Inc., Wallingford CT, 2016.
 
 ******************************************
 Gaussian 16:  EM64L-G16RevA.03 25-Dec-2016
                 9-Apr-2019 
 ******************************************
 %nprocshared=20
 Will use up to   20 processors via shared memory.
 %mem=5GB
 ----------------------------------------------------------------------
 #p m062x/6-311+g(2df,2p) opt=(calcfc,verytight,gdiis,maxcycles=900) fr
 eq iop(7/33=1,2/16=3)
 ----------------------------------------------------------------------

 Warning!  Use of Opt=GDIIS is deprecated since it is seldom a good choice.

 1/6=900,7=1,10=4,18=20,19=11,26=3,38=1/1,3;
 2/9=110,12=2,16=3,17=6,18=5,40=1/2;
 3/5=4,6=6,7=214,11=2,25=1,30=1,71=2,74=-55,140=1/1,2,3;
 4//1;
 5/5=2,38=5/2;
 8/6=4,10=90,11=11/1;
 11/6=1,8=1,9=11,15=111,16=1/1,2,10;
 10/6=1,13=1/2;
 6/7=2,8=2,9=2,10=2,28=1/1;
 7/10=1,18=20,25=1,33=1/1,2,3,16;
 1/6=900,7=1,10=4,18=20,19=11,26=3/3(2);
 2/9=110,16=3/2;
 99//99;
 2/9=110,16=3/2;
 3/5=4,6=6,7=214,11=2,25=1,30=1,71=1,74=-55/1,2,3;
 4/5=5,16=3,69=1/1;
 5/5=2,38=5/2;
 7/33=1/1,2,3,16;
 1/6=900,7=1,18=20,19=11,26=3/3(-5);
 2/9=110,16=3/2;
 6/7=2,8=2,9=2,10=2,19=2,28=1/1;
 99/9=1/99;
 Leave Link    1 at Tue Apr  9 00:29:50 2019, MaxMem=   671088640 cpu:              27.8 elap:               1.5
 (Enter /shared/centos7/gaussian/g16/l101.exe)
 ------------------------------
 Gaussian input prepared by ASE
 ------------------------------
 Symbolic Z-matrix:
 Charge =  0 Multiplicity = 2
 O                     0.57461   0.20437  -1.02482 
 C                     1.48737   1.23586   2.40392 
 C                     1.31829   0.18664   1.31193 
 C                     1.13299   0.7558    3.78332 
 C                     0.25915   0.4759    0.29352 
 H                     2.52808   1.58458   2.39639 
 H                     0.87322   2.12831   2.16451 
 H                     1.10573  -0.79286   1.7968 
 H                     2.27821   0.06852   0.78041 
 H                     0.81845  -0.31496   3.78318 
 H                     1.99313   0.84861   4.47356 
 H                     0.29389   1.35368   4.21157 
 H                    -0.75793   0.13162   0.51381 
 H                     1.56104   0.3311   -1.12585 
 
 ITRead=  0  0  0  0  0  0  0  0  0  0  0  0  0  0
 MicOpt= -1 -1 -1 -1 -1 -1 -1 -1 -1 -1 -1 -1 -1 -1
 NAtoms=     14 NQM=       14 NQMF=       0 NMMI=      0 NMMIF=      0
                NMic=       0 NMicF=      0.
                    Isotopes and Nuclear Properties:
 (Nuclear quadrupole moments (NQMom) in fm**2, nuclear magnetic moments (NMagM)
  in nuclear magnetons)

  Atom         1           2           3           4           5           6           7           8           9          10
 IAtWgt=          16          12          12          12          12           1           1           1           1           1
 AtmWgt=  15.9949146  12.0000000  12.0000000  12.0000000  12.0000000   1.0078250   1.0078250   1.0078250   1.0078250   1.0078250
 NucSpn=           0           0           0           0           0           1           1           1           1           1
 AtZEff=  -0.0000000  -0.0000000  -0.0000000  -0.0000000  -0.0000000  -0.0000000  -0.0000000  -0.0000000  -0.0000000  -0.0000000
 NQMom=    0.0000000   0.0000000   0.0000000   0.0000000   0.0000000   0.0000000   0.0000000   0.0000000   0.0000000   0.0000000
 NMagM=    0.0000000   0.0000000   0.0000000   0.0000000   0.0000000   2.7928460   2.7928460   2.7928460   2.7928460   2.7928460
 AtZNuc=   8.0000000   6.0000000   6.0000000   6.0000000   6.0000000   1.0000000   1.0000000   1.0000000   1.0000000   1.0000000

  Atom        11          12          13          14
 IAtWgt=           1           1           1           1
 AtmWgt=   1.0078250   1.0078250   1.0078250   1.0078250
 NucSpn=           1           1           1           1
 AtZEff=  -0.0000000  -0.0000000  -0.0000000  -0.0000000
 NQMom=    0.0000000   0.0000000   0.0000000   0.0000000
 NMagM=    2.7928460   2.7928460   2.7928460   2.7928460
 AtZNuc=   1.0000000   1.0000000   1.0000000   1.0000000
 Leave Link  101 at Tue Apr  9 00:29:50 2019, MaxMem=   671088640 cpu:               6.8 elap:               0.4
 (Enter /shared/centos7/gaussian/g16/l103.exe)

 GradGradGradGradGradGradGradGradGradGradGradGradGradGradGradGradGradGrad
 Berny optimization.
 Initialization pass.
                           ----------------------------
                           !    Initial Parameters    !
                           ! (Angstroms and Degrees)  !
 --------------------------                            --------------------------
 ! Name  Definition              Value          Derivative Info.                !
 --------------------------------------------------------------------------------
 ! R1    R(1,5)                  1.3825         calculate D2E/DX2 analytically  !
 ! R2    R(1,14)                 0.9997         calculate D2E/DX2 analytically  !
 ! R3    R(2,3)                  1.5238         calculate D2E/DX2 analytically  !
 ! R4    R(2,4)                  1.5029         calculate D2E/DX2 analytically  !
 ! R5    R(2,6)                  1.0976         calculate D2E/DX2 analytically  !
 ! R6    R(2,7)                  1.1095         calculate D2E/DX2 analytically  !
 ! R7    R(3,5)                  1.4975         calculate D2E/DX2 analytically  !
 ! R8    R(3,8)                  1.1134         calculate D2E/DX2 analytically  !
 ! R9    R(3,9)                  1.1036         calculate D2E/DX2 analytically  !
 ! R10   R(4,10)                 1.116          calculate D2E/DX2 analytically  !
 ! R11   R(4,11)                 1.1067         calculate D2E/DX2 analytically  !
 ! R12   R(4,12)                 1.1158         calculate D2E/DX2 analytically  !
 ! R13   R(5,13)                 1.0961         calculate D2E/DX2 analytically  !
 ! A1    A(5,1,14)             107.2562         calculate D2E/DX2 analytically  !
 ! A2    A(3,2,4)              114.3072         calculate D2E/DX2 analytically  !
 ! A3    A(3,2,6)              108.6062         calculate D2E/DX2 analytically  !
 ! A4    A(3,2,7)              109.7428         calculate D2E/DX2 analytically  !
 ! A5    A(4,2,6)              109.3508         calculate D2E/DX2 analytically  !
 ! A6    A(4,2,7)              108.9328         calculate D2E/DX2 analytically  !
 ! A7    A(6,2,7)              105.5341         calculate D2E/DX2 analytically  !
 ! A8    A(2,3,5)              115.6475         calculate D2E/DX2 analytically  !
 ! A9    A(2,3,8)              108.3517         calculate D2E/DX2 analytically  !
 ! A10   A(2,3,9)              108.8037         calculate D2E/DX2 analytically  !
 ! A11   A(5,3,8)              109.333          calculate D2E/DX2 analytically  !
 ! A12   A(5,3,9)              107.9584         calculate D2E/DX2 analytically  !
 ! A13   A(8,3,9)              106.3575         calculate D2E/DX2 analytically  !
 ! A14   A(2,4,10)             111.8891         calculate D2E/DX2 analytically  !
 ! A15   A(2,4,11)             111.2456         calculate D2E/DX2 analytically  !
 ! A16   A(2,4,12)             111.0042         calculate D2E/DX2 analytically  !
 ! A17   A(10,4,11)            107.4324         calculate D2E/DX2 analytically  !
 ! A18   A(10,4,12)            107.5909         calculate D2E/DX2 analytically  !
 ! A19   A(11,4,12)            107.4668         calculate D2E/DX2 analytically  !
 ! A20   A(1,5,3)              116.6915         calculate D2E/DX2 analytically  !
 ! A21   A(1,5,13)             109.9796         calculate D2E/DX2 analytically  !
 ! A22   A(3,5,13)             117.3169         calculate D2E/DX2 analytically  !
 ! D1    D(14,1,5,3)           -30.1316         calculate D2E/DX2 analytically  !
 ! D2    D(14,1,5,13)         -166.9617         calculate D2E/DX2 analytically  !
 ! D3    D(4,2,3,5)            114.5176         calculate D2E/DX2 analytically  !
 ! D4    D(4,2,3,8)             -8.5885         calculate D2E/DX2 analytically  !
 ! D5    D(4,2,3,9)           -123.8279         calculate D2E/DX2 analytically  !
 ! D6    D(6,2,3,5)           -123.0916         calculate D2E/DX2 analytically  !
 ! D7    D(6,2,3,8)            113.8024         calculate D2E/DX2 analytically  !
 ! D8    D(6,2,3,9)             -1.437          calculate D2E/DX2 analytically  !
 ! D9    D(7,2,3,5)             -8.1904         calculate D2E/DX2 analytically  !
 ! D10   D(7,2,3,8)           -131.2964         calculate D2E/DX2 analytically  !
 ! D11   D(7,2,3,9)            113.4642         calculate D2E/DX2 analytically  !
 ! D12   D(3,2,4,10)             1.1651         calculate D2E/DX2 analytically  !
 ! D13   D(3,2,4,11)           121.3376         calculate D2E/DX2 analytically  !
 ! D14   D(3,2,4,12)          -119.0429         calculate D2E/DX2 analytically  !
 ! D15   D(6,2,4,10)          -120.8189         calculate D2E/DX2 analytically  !
 ! D16   D(6,2,4,11)            -0.6464         calculate D2E/DX2 analytically  !
 ! D17   D(6,2,4,12)           118.973          calculate D2E/DX2 analytically  !
 ! D18   D(7,2,4,10)           124.312          calculate D2E/DX2 analytically  !
 ! D19   D(7,2,4,11)          -115.5155         calculate D2E/DX2 analytically  !
 ! D20   D(7,2,4,12)             4.1039         calculate D2E/DX2 analytically  !
 ! D21   D(2,3,5,1)            138.0364         calculate D2E/DX2 analytically  !
 ! D22   D(2,3,5,13)           -88.3237         calculate D2E/DX2 analytically  !
 ! D23   D(8,3,5,1)            -99.3762         calculate D2E/DX2 analytically  !
 ! D24   D(8,3,5,13)            34.2636         calculate D2E/DX2 analytically  !
 ! D25   D(9,3,5,1)             15.9302         calculate D2E/DX2 analytically  !
 ! D26   D(9,3,5,13)           149.5701         calculate D2E/DX2 analytically  !
 --------------------------------------------------------------------------------
 Trust Radius=3.00D-01 FncErr=1.00D-07 GrdErr=1.00D-06 EigMax=2.50D+02 EigMin=1.00D-04
 Number of steps in this run=    100 maximum allowed number of steps=    100.
 GradGradGradGradGradGradGradGradGradGradGradGradGradGradGradGradGradGrad

 Leave Link  103 at Tue Apr  9 00:29:51 2019, MaxMem=   671088640 cpu:               0.2 elap:               0.0
 (Enter /shared/centos7/gaussian/g16/l202.exe)
                          Input orientation:                          
 ---------------------------------------------------------------------
 Center     Atomic      Atomic             Coordinates (Angstroms)
 Number     Number       Type             X           Y           Z
 ---------------------------------------------------------------------
      1          8           0        0.574606    0.204373   -1.024817
      2          6           0        1.487374    1.235859    2.403922
      3          6           0        1.318289    0.186639    1.311927
      4          6           0        1.132991    0.755797    3.783319
      5          6           0        0.259151    0.475896    0.293522
      6          1           0        2.528077    1.584580    2.396393
      7          1           0        0.873219    2.128305    2.164509
      8          1           0        1.105735   -0.792861    1.796797
      9          1           0        2.278215    0.068521    0.780409
     10          1           0        0.818452   -0.314960    3.783177
     11          1           0        1.993130    0.848605    4.473562
     12          1           0        0.293894    1.353683    4.211572
     13          1           0       -0.757927    0.131623    0.513813
     14          1           0        1.561036    0.331096   -1.125851
 ---------------------------------------------------------------------
                    Distance matrix (angstroms):
                    1          2          3          4          5
     1  O    0.000000
     2  C    3.695045   0.000000
     3  C    2.452294   1.523780   0.000000
     4  C    4.871758   1.502925   2.542844   0.000000
     5  C    1.382481   2.557316   1.497528   3.608410   0.000000
     6  H    4.174410   1.097599   2.143337   2.134645   3.286225
     7  H    3.736640   1.109489   2.166806   2.138179   2.570628
     8  H    3.039421   2.151732   1.113418   2.518998   2.141562
     9  H    2.485876   2.150325   1.103594   3.286541   2.116515
    10  H    4.842104   2.180560   2.570704   1.115999   3.621597
    11  H    5.714842   2.165448   3.299932   1.106747   4.540742
    12  H    5.368378   2.169303   3.289274   1.115774   4.015325
    13  H    2.036741   3.135797   2.225013   3.828163   1.096129
    14  H    0.999656   3.644629   2.454089   4.946064   1.931449
                    6          7          8          9         10
     6  H    0.000000
     7  H    1.757259   0.000000
     8  H    2.834572   2.953386   0.000000
     9  H    2.229859   2.851746   1.774749   0.000000
    10  H    2.907617   2.931319   2.063159   3.360741   0.000000
    11  H    2.267699   2.867675   3.262967   3.785391   1.791755
    12  H    2.887864   2.264095   3.331347   4.166779   1.800848
    13  H    4.056231   3.061400   2.444168   3.048477   3.656932
    14  H    3.861683   3.811761   3.164246   2.053563   5.006734
                   11         12         13         14
    11  H    0.000000
    12  H    1.791967   0.000000
    13  H    4.874628   4.034003   0.000000
    14  H    5.639854   5.580271   2.847082   0.000000
 Stoichiometry    C4H9O(2)
 Framework group  C1[X(C4H9O)]
 Deg. of freedom    36
 Full point group                 C1      NOp   1
 Largest Abelian subgroup         C1      NOp   1
 Largest concise Abelian subgroup C1      NOp   1
                         Standard orientation:                         
 ---------------------------------------------------------------------
 Center     Atomic      Atomic             Coordinates (Angstroms)
 Number     Number       Type             X           Y           Z
 ---------------------------------------------------------------------
      1          8           0        2.488463    0.008278   -0.029976
      2          6           0       -1.161780    0.444172   -0.402907
      3          6           0        0.092082    0.236941    0.437802
      4          6           0       -2.372364   -0.290830    0.100127
      5          6           0        1.214666   -0.486312   -0.239915
      6          1           0       -1.380730    1.518840   -0.446195
      7          1           0       -0.964905    0.138584   -1.451154
      8          1           0       -0.193491   -0.311005    1.364033
      9          1           0        0.469067    1.221831    0.763063
     10          1           0       -2.154536   -0.860861    1.034508
     11          1           0       -3.201455    0.407482    0.323417
     12          1           0       -2.742980   -1.018530   -0.660167
     13          1           0        1.221788   -1.580320   -0.172125
     14          1           0        2.403908    0.993924    0.113780
 ---------------------------------------------------------------------
 Rotational constants (GHZ):          18.1780055           2.0662549           2.0266630
 Leave Link  202 at Tue Apr  9 00:29:51 2019, MaxMem=   671088640 cpu:               0.2 elap:               0.0
 (Enter /shared/centos7/gaussian/g16/l301.exe)
 Standard basis: 6-311+G(2df,2p) (5D, 7F)
 Ernie: Thresh=  0.10000D-02 Tol=  0.10000D-05 Strict=F.
 There are   276 symmetry adapted cartesian basis functions of A   symmetry.
 There are   251 symmetry adapted basis functions of A   symmetry.
   251 basis functions,   359 primitive gaussians,   276 cartesian basis functions
    21 alpha electrons       20 beta electrons
       nuclear repulsion energy       176.4846496307 Hartrees.
 IExCor= 4336 DFT=T Ex+Corr=M062X ExCW=0 ScaHFX=  0.540000
 ScaDFX=  1.000000  1.000000  1.000000  1.000000 ScalE2=  1.000000  1.000000
 IRadAn=      5 IRanWt=     -1 IRanGd=            0 ICorTp=0 IEmpDi=  4
 NAtoms=   14 NActive=   14 NUniq=   14 SFac= 1.00D+00 NAtFMM=   60 NAOKFM=F Big=F
 Integral buffers will be    131072 words long.
 Raffenetti 2 integral format.
 Two-electron integral symmetry is turned on.
 Leave Link  301 at Tue Apr  9 00:29:51 2019, MaxMem=   671088640 cpu:               1.4 elap:               0.1
 (Enter /shared/centos7/gaussian/g16/l302.exe)
 NPDir=0 NMtPBC=     1 NCelOv=     1 NCel=       1 NClECP=     1 NCelD=      1
         NCelK=      1 NCelE2=     1 NClLst=     1 CellRange=     0.0.
 One-electron integrals computed using PRISM.
 One-electron integral symmetry used in STVInt
 NBasis=   251 RedAO= T EigKep=  5.29D-05  NBF=   251
 NBsUse=   251 1.00D-06 EigRej= -1.00D+00 NBFU=   251
 Precomputing XC quadrature grid using
 IXCGrd= 4 IRadAn=           5 IRanWt=          -1 IRanGd=           0 AccXCQ= 0.00D+00.
 Generated NRdTot=       0 NPtTot=           0 NUsed=           0 NTot=          32
 NSgBfM=   276   276   276   276   276 MxSgAt=    14 MxSgA2=    14.
 Leave Link  302 at Tue Apr  9 00:29:51 2019, MaxMem=   671088640 cpu:               8.2 elap:               0.4
 (Enter /shared/centos7/gaussian/g16/l303.exe)
 DipDrv:  MaxL=1.
 Leave Link  303 at Tue Apr  9 00:29:51 2019, MaxMem=   671088640 cpu:               1.1 elap:               0.1
 (Enter /shared/centos7/gaussian/g16/l401.exe)
 ExpMin= 4.38D-02 ExpMax= 8.59D+03 ExpMxC= 1.30D+03 IAcc=3 IRadAn=         5 AccDes= 0.00D+00
 Harris functional with IExCor= 1009 and IRadAn=       5 diagonalized for initial guess.
 HarFok:  IExCor= 1009 AccDes= 0.00D+00 IRadAn=         5 IDoV= 1 UseB2=F ITyADJ=14
 ICtDFT=  3500011 ScaDFX=  1.000000  1.000000  1.000000  1.000000
 FoFCou: FMM=F IPFlag=           0 FMFlag=      100000 FMFlg1=           0
         NFxFlg=           0 DoJE=T BraDBF=F KetDBF=T FulRan=T
         wScrn=  0.000000 ICntrl=       500 IOpCl=  0 I1Cent=   200000004 NGrid=           0
         NMat0=    1 NMatS0=      1 NMatT0=    0 NMatD0=    1 NMtDS0=    0 NMtDT0=    0
 Petite list used in FoFCou.
 Harris En= -232.888773687759    
 JPrj=0 DoOrth=F DoCkMO=F.
 Initial guess <Sx>= 0.0000 <Sy>= 0.0000 <Sz>= 0.5000 <S**2>= 0.7500 S= 0.5000
 Leave Link  401 at Tue Apr  9 00:29:53 2019, MaxMem=   671088640 cpu:              26.2 elap:               1.3
 (Enter /shared/centos7/gaussian/g16/l502.exe)
 Integral symmetry usage will be decided dynamically.
 UHF open shell SCF:
 Using DIIS extrapolation, IDIIS=  1040.
 NGot=   671088640 LenX=   670928170 LenY=   670851553
 Requested convergence on RMS density matrix=1.00D-08 within 128 cycles.
 Requested convergence on MAX density matrix=1.00D-06.
 Requested convergence on             energy=1.00D-06.
 No special actions if energy rises.
 Fock matrices will be formed incrementally for  20 cycles.

 Cycle   1  Pass 1  IDiag  1:
 FoFJK:  IHMeth= 1 ICntrl=       0 DoSepK=F KAlg= 0 I1Cent=           0 FoldK=F
 IRaf= 970000000 NMat=       1 IRICut=       1 DoRegI=T DoRafI=F ISym2E= 0 IDoP0=0 IntGTp=1.
 FoFCou: FMM=F IPFlag=           0 FMFlag=      100000 FMFlg1=           0
         NFxFlg=           0 DoJE=F BraDBF=F KetDBF=F FulRan=T
         wScrn=  0.000000 ICntrl=         0 IOpCl=  1 I1Cent=           0 NGrid=           0
         NMat0=    1 NMatS0=      1 NMatT0=    0 NMatD0=    1 NMtDS0=    0 NMtDT0=    0
 Symmetry not used in FoFCou.
 E= -232.755662734830    
 DIIS: error= 2.46D-02 at cycle   1 NSaved=   1.
 NSaved= 1 IEnMin= 1 EnMin= -232.755662734830     IErMin= 1 ErrMin= 2.46D-02
 ErrMax= 2.46D-02  0.00D+00 EMaxC= 1.00D-01 BMatC= 9.15D-01 BMatP= 9.15D-01
 IDIUse=3 WtCom= 7.54D-01 WtEn= 2.46D-01
 Coeff-Com:  0.100D+01
 Coeff-En:   0.100D+01
 Coeff:      0.100D+01
 Gap=     0.218 Goal=   None    Shift=    0.000
 Gap=     0.371 Goal=   None    Shift=    0.000
 GapD=    0.218 DampG=1.000 DampE=0.500 DampFc=0.5000 IDamp=-1.
 Damping current iteration by 5.00D-01
 RMSDP=3.32D-03 MaxDP=1.32D-01              OVMax= 1.60D-01

 Cycle   2  Pass 1  IDiag  1:
 RMSU=  1.65D-03    CP:  9.80D-01
 E= -232.855291001193     Delta-E=       -0.099628266363 Rises=F Damp=T
 DIIS: error= 6.25D-03 at cycle   2 NSaved=   2.
 NSaved= 2 IEnMin= 2 EnMin= -232.855291001193     IErMin= 2 ErrMin= 6.25D-03
 ErrMax= 6.25D-03  0.00D+00 EMaxC= 1.00D-01 BMatC= 5.35D-02 BMatP= 9.15D-01
 IDIUse=3 WtCom= 9.38D-01 WtEn= 6.25D-02
 Coeff-Com: -0.886D-01 0.109D+01
 Coeff-En:   0.000D+00 0.100D+01
 Coeff:     -0.831D-01 0.108D+01
 Gap=     0.251 Goal=   None    Shift=    0.000
 Gap=     0.404 Goal=   None    Shift=    0.000
 RMSDP=1.12D-03 MaxDP=7.51D-02 DE=-9.96D-02 OVMax= 8.35D-02

 Cycle   3  Pass 1  IDiag  1:
 RMSU=  1.05D-03    CP:  9.69D-01  7.82D-01
 E= -232.952521611544     Delta-E=       -0.097230610352 Rises=F Damp=F
 DIIS: error= 2.03D-03 at cycle   3 NSaved=   3.
 NSaved= 3 IEnMin= 3 EnMin= -232.952521611544     IErMin= 3 ErrMin= 2.03D-03
 ErrMax= 2.03D-03  0.00D+00 EMaxC= 1.00D-01 BMatC= 7.54D-03 BMatP= 5.35D-02
 IDIUse=3 WtCom= 9.80D-01 WtEn= 2.03D-02
 Coeff-Com: -0.690D-01 0.234D+00 0.835D+00
 Coeff-En:   0.000D+00 0.000D+00 0.100D+01
 Coeff:     -0.676D-01 0.229D+00 0.838D+00
 Gap=     0.252 Goal=   None    Shift=    0.000
 Gap=     0.366 Goal=   None    Shift=    0.000
 RMSDP=2.00D-04 MaxDP=9.49D-03 DE=-9.72D-02 OVMax= 1.34D-02

 Cycle   4  Pass 1  IDiag  1:
 RMSU=  1.82D-04    CP:  9.68D-01  8.23D-01  1.05D+00
 E= -232.953999881305     Delta-E=       -0.001478269761 Rises=F Damp=F
 DIIS: error= 8.95D-04 at cycle   4 NSaved=   4.
 NSaved= 4 IEnMin= 4 EnMin= -232.953999881305     IErMin= 4 ErrMin= 8.95D-04
 ErrMax= 8.95D-04  0.00D+00 EMaxC= 1.00D-01 BMatC= 1.41D-03 BMatP= 7.54D-03
 IDIUse=3 WtCom= 9.91D-01 WtEn= 8.95D-03
 Coeff-Com: -0.237D-01 0.532D-01 0.349D+00 0.622D+00
 Coeff-En:   0.000D+00 0.000D+00 0.000D+00 0.100D+01
 Coeff:     -0.235D-01 0.527D-01 0.346D+00 0.625D+00
 Gap=     0.249 Goal=   None    Shift=    0.000
 Gap=     0.367 Goal=   None    Shift=    0.000
 RMSDP=7.06D-05 MaxDP=3.87D-03 DE=-1.48D-03 OVMax= 9.95D-03

 Cycle   5  Pass 1  IDiag  1:
 RMSU=  6.95D-05    CP:  9.68D-01  8.26D-01  1.05D+00  9.52D-01
 E= -232.954322396098     Delta-E=       -0.000322514793 Rises=F Damp=F
 DIIS: error= 3.90D-04 at cycle   5 NSaved=   5.
 NSaved= 5 IEnMin= 5 EnMin= -232.954322396098     IErMin= 5 ErrMin= 3.90D-04
 ErrMax= 3.90D-04  0.00D+00 EMaxC= 1.00D-01 BMatC= 2.25D-04 BMatP= 1.41D-03
 IDIUse=3 WtCom= 9.96D-01 WtEn= 3.90D-03
 Coeff-Com:  0.249D-03-0.105D-01 0.956D-02 0.258D+00 0.743D+00
 Coeff-En:   0.000D+00 0.000D+00 0.000D+00 0.000D+00 0.100D+01
 Coeff:      0.248D-03-0.105D-01 0.952D-02 0.257D+00 0.744D+00
 Gap=     0.250 Goal=   None    Shift=    0.000
 Gap=     0.367 Goal=   None    Shift=    0.000
 RMSDP=6.23D-05 MaxDP=4.49D-03 DE=-3.23D-04 OVMax= 3.11D-03

 Cycle   6  Pass 1  IDiag  1:
 RMSU=  4.04D-05    CP:  9.69D-01  8.33D-01  1.05D+00  1.15D+00  1.38D+00
 E= -232.954394816449     Delta-E=       -0.000072420352 Rises=F Damp=F
 DIIS: error= 1.44D-04 at cycle   6 NSaved=   6.
 NSaved= 6 IEnMin= 6 EnMin= -232.954394816449     IErMin= 6 ErrMin= 1.44D-04
 ErrMax= 1.44D-04  0.00D+00 EMaxC= 1.00D-01 BMatC= 2.83D-05 BMatP= 2.25D-04
 IDIUse=3 WtCom= 9.99D-01 WtEn= 1.44D-03
 Coeff-Com:  0.502D-02-0.133D-01-0.742D-01-0.560D-01 0.104D+00 0.103D+01
 Coeff-En:   0.000D+00 0.000D+00 0.000D+00 0.000D+00 0.000D+00 0.100D+01
 Coeff:      0.502D-02-0.133D-01-0.741D-01-0.559D-01 0.103D+00 0.103D+01
 Gap=     0.251 Goal=   None    Shift=    0.000
 Gap=     0.368 Goal=   None    Shift=    0.000
 RMSDP=3.65D-05 MaxDP=2.60D-03 DE=-7.24D-05 OVMax= 3.91D-03

 Cycle   7  Pass 1  IDiag  1:
 RMSU=  1.67D-05    CP:  9.69D-01  8.35D-01  1.05D+00  1.25D+00  1.68D+00
                    CP:  1.36D+00
 E= -232.954416975472     Delta-E=       -0.000022159023 Rises=F Damp=F
 DIIS: error= 7.67D-05 at cycle   7 NSaved=   7.
 NSaved= 7 IEnMin= 7 EnMin= -232.954416975472     IErMin= 7 ErrMin= 7.67D-05
 ErrMax= 7.67D-05  0.00D+00 EMaxC= 1.00D-01 BMatC= 9.84D-06 BMatP= 2.83D-05
 IDIUse=1 WtCom= 1.00D+00 WtEn= 0.00D+00
 Coeff-Com:  0.155D-02-0.209D-02-0.301D-01-0.752D-01-0.163D+00 0.434D+00
 Coeff-Com:  0.834D+00
 Coeff:      0.155D-02-0.209D-02-0.301D-01-0.752D-01-0.163D+00 0.434D+00
 Coeff:      0.834D+00
 Gap=     0.251 Goal=   None    Shift=    0.000
 Gap=     0.368 Goal=   None    Shift=    0.000
 RMSDP=2.34D-05 MaxDP=1.86D-03 DE=-2.22D-05 OVMax= 1.75D-03

 Cycle   8  Pass 1  IDiag  1:
 RMSU=  6.98D-06    CP:  9.70D-01  8.40D-01  1.04D+00  1.29D+00  1.85D+00
                    CP:  1.69D+00  1.28D+00
 E= -232.954421906806     Delta-E=       -0.000004931335 Rises=F Damp=F
 DIIS: error= 2.05D-05 at cycle   8 NSaved=   8.
 NSaved= 8 IEnMin= 8 EnMin= -232.954421906806     IErMin= 8 ErrMin= 2.05D-05
 ErrMax= 2.05D-05  0.00D+00 EMaxC= 1.00D-01 BMatC= 5.19D-07 BMatP= 9.84D-06
 IDIUse=1 WtCom= 1.00D+00 WtEn= 0.00D+00
 Coeff-Com: -0.895D-03 0.217D-02 0.112D-01 0.118D-01-0.208D-01-0.128D+00
 Coeff-Com: -0.301D-01 0.115D+01
 Coeff:     -0.895D-03 0.217D-02 0.112D-01 0.118D-01-0.208D-01-0.128D+00
 Coeff:     -0.301D-01 0.115D+01
 Gap=     0.252 Goal=   None    Shift=    0.000
 Gap=     0.368 Goal=   None    Shift=    0.000
 RMSDP=8.44D-06 MaxDP=6.34D-04 DE=-4.93D-06 OVMax= 5.97D-04

 Cycle   9  Pass 1  IDiag  1:
 RMSU=  2.33D-06    CP:  9.70D-01  8.43D-01  1.04D+00  1.30D+00  1.88D+00
                    CP:  1.79D+00  1.46D+00  1.40D+00
 E= -232.954422329063     Delta-E=       -0.000000422256 Rises=F Damp=F
 DIIS: error= 6.31D-06 at cycle   9 NSaved=   9.
 NSaved= 9 IEnMin= 9 EnMin= -232.954422329063     IErMin= 9 ErrMin= 6.31D-06
 ErrMax= 6.31D-06  0.00D+00 EMaxC= 1.00D-01 BMatC= 5.63D-08 BMatP= 5.19D-07
 IDIUse=1 WtCom= 1.00D+00 WtEn= 0.00D+00
 Coeff-Com: -0.295D-03 0.586D-03 0.495D-02 0.992D-02 0.121D-01-0.643D-01
 Coeff-Com: -0.932D-01 0.200D+00 0.931D+00
 Coeff:     -0.295D-03 0.586D-03 0.495D-02 0.992D-02 0.121D-01-0.643D-01
 Coeff:     -0.932D-01 0.200D+00 0.931D+00
 Gap=     0.252 Goal=   None    Shift=    0.000
 Gap=     0.368 Goal=   None    Shift=    0.000
 RMSDP=2.16D-06 MaxDP=1.62D-04 DE=-4.22D-07 OVMax= 1.35D-04

 Cycle  10  Pass 1  IDiag  1:
 RMSU=  7.05D-07    CP:  9.70D-01  8.43D-01  1.04D+00  1.30D+00  1.89D+00
                    CP:  1.81D+00  1.48D+00  1.54D+00  1.25D+00
 E= -232.954422361620     Delta-E=       -0.000000032557 Rises=F Damp=F
 DIIS: error= 1.67D-06 at cycle  10 NSaved=  10.
 NSaved=10 IEnMin=10 EnMin= -232.954422361620     IErMin=10 ErrMin= 1.67D-06
 ErrMax= 1.67D-06  0.00D+00 EMaxC= 1.00D-01 BMatC= 5.32D-09 BMatP= 5.63D-08
 IDIUse=1 WtCom= 1.00D+00 WtEn= 0.00D+00
 Coeff-Com:  0.827D-04-0.188D-03-0.848D-03-0.361D-03 0.222D-02 0.917D-02
 Coeff-Com: -0.106D-02-0.103D+00 0.404D-01 0.105D+01
 Coeff:      0.827D-04-0.188D-03-0.848D-03-0.361D-03 0.222D-02 0.917D-02
 Coeff:     -0.106D-02-0.103D+00 0.404D-01 0.105D+01
 Gap=     0.252 Goal=   None    Shift=    0.000
 Gap=     0.368 Goal=   None    Shift=    0.000
 RMSDP=6.64D-07 MaxDP=6.05D-05 DE=-3.26D-08 OVMax= 3.30D-05

 Cycle  11  Pass 1  IDiag  1:
 RMSU=  2.50D-07    CP:  9.70D-01  8.43D-01  1.04D+00  1.30D+00  1.89D+00
                    CP:  1.81D+00  1.47D+00  1.57D+00  1.42D+00  1.35D+00
 E= -232.954422364924     Delta-E=       -0.000000003304 Rises=F Damp=F
 DIIS: error= 6.75D-07 at cycle  11 NSaved=  11.
 NSaved=11 IEnMin=11 EnMin= -232.954422364924     IErMin=11 ErrMin= 6.75D-07
 ErrMax= 6.75D-07  0.00D+00 EMaxC= 1.00D-01 BMatC= 8.50D-10 BMatP= 5.32D-09
 IDIUse=1 WtCom= 1.00D+00 WtEn= 0.00D+00
 Coeff-Com:  0.470D-04-0.102D-03-0.698D-03-0.103D-02-0.768D-03 0.846D-02
 Coeff-Com:  0.918D-02-0.444D-01-0.884D-01 0.227D+00 0.890D+00
 Coeff:      0.470D-04-0.102D-03-0.698D-03-0.103D-02-0.768D-03 0.846D-02
 Coeff:      0.918D-02-0.444D-01-0.884D-01 0.227D+00 0.890D+00
 Gap=     0.252 Goal=   None    Shift=    0.000
 Gap=     0.368 Goal=   None    Shift=    0.000
 RMSDP=1.83D-07 MaxDP=1.79D-05 DE=-3.30D-09 OVMax= 8.54D-06

 Cycle  12  Pass 1  IDiag  1:
 RMSU=  7.41D-08    CP:  9.70D-01  8.43D-01  1.04D+00  1.30D+00  1.89D+00
                    CP:  1.81D+00  1.47D+00  1.57D+00  1.45D+00  1.46D+00
                    CP:  1.19D+00
 E= -232.954422365307     Delta-E=       -0.000000000383 Rises=F Damp=F
 DIIS: error= 2.76D-07 at cycle  12 NSaved=  12.
 NSaved=12 IEnMin=12 EnMin= -232.954422365307     IErMin=12 ErrMin= 2.76D-07
 ErrMax= 2.76D-07  0.00D+00 EMaxC= 1.00D-01 BMatC= 1.54D-10 BMatP= 8.50D-10
 IDIUse=1 WtCom= 1.00D+00 WtEn= 0.00D+00
 Coeff-Com:  0.282D-06-0.127D-05-0.827D-04-0.217D-03-0.471D-03 0.121D-02
 Coeff-Com:  0.272D-02 0.837D-03-0.317D-01-0.818D-01 0.278D+00 0.832D+00
 Coeff:      0.282D-06-0.127D-05-0.827D-04-0.217D-03-0.471D-03 0.121D-02
 Coeff:      0.272D-02 0.837D-03-0.317D-01-0.818D-01 0.278D+00 0.832D+00
 Gap=     0.252 Goal=   None    Shift=    0.000
 Gap=     0.368 Goal=   None    Shift=    0.000
 RMSDP=5.46D-08 MaxDP=3.36D-06 DE=-3.83D-10 OVMax= 3.20D-06

 Cycle  13  Pass 1  IDiag  1:
 RMSU=  2.94D-08    CP:  9.70D-01  8.43D-01  1.04D+00  1.30D+00  1.89D+00
                    CP:  1.81D+00  1.47D+00  1.58D+00  1.46D+00  1.49D+00
                    CP:  1.29D+00  1.24D+00
 E= -232.954422365375     Delta-E=       -0.000000000068 Rises=F Damp=F
 DIIS: error= 8.15D-08 at cycle  13 NSaved=  13.
 NSaved=13 IEnMin=13 EnMin= -232.954422365375     IErMin=13 ErrMin= 8.15D-08
 ErrMax= 8.15D-08  0.00D+00 EMaxC= 1.00D-01 BMatC= 1.33D-11 BMatP= 1.54D-10
 IDIUse=1 WtCom= 1.00D+00 WtEn= 0.00D+00
 Coeff-Com: -0.618D-05 0.131D-04 0.729D-04 0.881D-04 0.221D-04-0.833D-03
 Coeff-Com: -0.638D-03 0.550D-02 0.544D-02-0.428D-01-0.627D-01 0.157D+00
 Coeff-Com:  0.938D+00
 Coeff:     -0.618D-05 0.131D-04 0.729D-04 0.881D-04 0.221D-04-0.833D-03
 Coeff:     -0.638D-03 0.550D-02 0.544D-02-0.428D-01-0.627D-01 0.157D+00
 Coeff:      0.938D+00
 Gap=     0.252 Goal=   None    Shift=    0.000
 Gap=     0.368 Goal=   None    Shift=    0.000
 RMSDP=1.93D-08 MaxDP=7.80D-07 DE=-6.83D-11 OVMax= 1.26D-06

 Cycle  14  Pass 1  IDiag  1:
 RMSU=  9.41D-09    CP:  9.70D-01  8.43D-01  1.04D+00  1.30D+00  1.89D+00
                    CP:  1.81D+00  1.47D+00  1.58D+00  1.46D+00  1.49D+00
                    CP:  1.33D+00  1.38D+00  1.14D+00
 E= -232.954422365380     Delta-E=       -0.000000000005 Rises=F Damp=F
 DIIS: error= 2.19D-08 at cycle  14 NSaved=  14.
 NSaved=14 IEnMin=14 EnMin= -232.954422365380     IErMin=14 ErrMin= 2.19D-08
 ErrMax= 2.19D-08  0.00D+00 EMaxC= 1.00D-01 BMatC= 9.00D-13 BMatP= 1.33D-11
 IDIUse=1 WtCom= 1.00D+00 WtEn= 0.00D+00
 Coeff-Com:  0.412D-06-0.535D-06 0.284D-05 0.677D-05 0.182D-04-0.496D-04
 Coeff-Com: -0.133D-03-0.144D-03 0.241D-02 0.706D-02-0.263D-01-0.780D-01
 Coeff-Com:  0.782D-02 0.109D+01
 Coeff:      0.412D-06-0.535D-06 0.284D-05 0.677D-05 0.182D-04-0.496D-04
 Coeff:     -0.133D-03-0.144D-03 0.241D-02 0.706D-02-0.263D-01-0.780D-01
 Coeff:      0.782D-02 0.109D+01
 Gap=     0.252 Goal=   None    Shift=    0.000
 Gap=     0.368 Goal=   None    Shift=    0.000
 RMSDP=5.90D-09 MaxDP=2.14D-07 DE=-4.77D-12 OVMax= 3.69D-07

 SCF Done:  E(UM062X) =  -232.954422365     A.U. after   14 cycles
            NFock= 14  Conv=0.59D-08     -V/T= 2.0045
 <Sx>= 0.0000 <Sy>= 0.0000 <Sz>= 0.5000 <S**2>= 0.7546 S= 0.5023
 <L.S>= 0.000000000000E+00
 KE= 2.319140432251D+02 PE=-8.958053132178D+02 EE= 2.544521979966D+02
 Annihilation of the first spin contaminant:
 S**2 before annihilation     0.7546,   after     0.7500
 Leave Link  502 at Tue Apr  9 00:31:07 2019, MaxMem=   671088640 cpu:            1491.9 elap:              74.7
 (Enter /shared/centos7/gaussian/g16/l801.exe)
 DoSCS=F DFT=T ScalE2(SS,OS)=  1.000000  1.000000
 Range of M.O.s used for correlation:     1   251
 NBasis=   251 NAE=    21 NBE=    20 NFC=     0 NFV=     0
 NROrb=    251 NOA=    21 NOB=    20 NVA=   230 NVB=   231

 **** Warning!!: The largest alpha MO coefficient is  0.36884919D+02


 **** Warning!!: The largest beta MO coefficient is  0.47063631D+02

 Leave Link  801 at Tue Apr  9 00:31:07 2019, MaxMem=   671088640 cpu:               0.5 elap:               0.1
 (Enter /shared/centos7/gaussian/g16/l1101.exe)
 Using compressed storage, NAtomX=    14.
 Will process     15 centers per pass.
 Leave Link 1101 at Tue Apr  9 00:31:08 2019, MaxMem=   671088640 cpu:               8.7 elap:               0.5
 (Enter /shared/centos7/gaussian/g16/l1102.exe)
 Symmetrizing basis deriv contribution to polar:
 IMax=3 JMax=2 DiffMx= 0.00D+00
 Leave Link 1102 at Tue Apr  9 00:31:08 2019, MaxMem=   671088640 cpu:               0.9 elap:               0.1
 (Enter /shared/centos7/gaussian/g16/l1110.exe)
 Forming Gx(P) for the SCF density, NAtomX=    14.
 Integral derivatives from FoFJK, PRISM(SPDF).
 Do as many integral derivatives as possible in FoFJK.
 G2DrvN: MDV=     671087496.
 G2DrvN: will do    15 centers at a time, making    1 passes.
 Calling FoFCou, ICntrl=  3107 FMM=F I1Cent=   0 AccDes= 0.00D+00.
 FoFJK:  IHMeth= 1 ICntrl=    3107 DoSepK=F KAlg= 0 I1Cent=           0 FoldK=F
 IRaf=         0 NMat=       1 IRICut=       1 DoRegI=T DoRafI=F ISym2E= 0 IDoP0=0 IntGTp=1.
 FoFCou: FMM=F IPFlag=           0 FMFlag=      100000 FMFlg1=           0
         NFxFlg=           0 DoJE=F BraDBF=F KetDBF=F FulRan=T
         wScrn=  0.000000 ICntrl=      3107 IOpCl=  1 I1Cent=           0 NGrid=           0
         NMat0=    1 NMatS0=      1 NMatT0=    0 NMatD0=    1 NMtDS0=    0 NMtDT0=    0
 Symmetry not used in FoFCou.
 End of G2Drv F.D. properties file   721 does not exist.
 End of G2Drv F.D. properties file   722 does not exist.
 End of G2Drv F.D. properties file   788 does not exist.
 Leave Link 1110 at Tue Apr  9 00:33:27 2019, MaxMem=   671088640 cpu:            2782.5 elap:             139.2
 (Enter /shared/centos7/gaussian/g16/l1002.exe)
 Minotr:  UHF open shell wavefunction.
          IDoAtm=11111111111111
          Direct CPHF calculation.
          Differentiating once with respect to nuclear coordinates.
          Requested convergence is 1.0D-08 RMS, and 1.0D-07 maximum.
          Secondary convergence is 1.0D-12 RMS, and 1.0D-12 maximum.
          NewPWx=T KeepS1=F KeepF1=F KeepIn=T MapXYZ=F SortEE=F KeepMc=T.
         4264 words used for storage of precomputed grid.
 Two-electron integrals replicated using symmetry.
          MDV=     671088640 using IRadAn=       1.
          Solving linear equations simultaneously, MaxMat=     380.
 FoF2E skips out because all densities are zero.
 CalDSu exits because no D1Ps are significant.
 FoFJK:  IHMeth= 1 ICntrl=       0 DoSepK=F KAlg= 0 I1Cent=           0 FoldK=F
 IRaf= 960000000 NMat=      42 IRICut=     105 DoRegI=T DoRafI=T ISym2E= 2 IDoP0=3 IntGTp=3.
 FoFCou: FMM=F IPFlag=           0 FMFlag=      100000 FMFlg1=           0
         NFxFlg=           0 DoJE=F BraDBF=F KetDBF=F FulRan=T
         wScrn=  0.000000 ICntrl=         0 IOpCl=  1 I1Cent=           0 NGrid=           0
         NMat0=   42 NMatS0=     42 NMatT0=    0 NMatD0=   42 NMtDS0=    0 NMtDT0=    0
 Integrals replicated using symmetry in FoFCou.
 Raff kept on since  94.69% of shell-pairs survive, threshold=   0.20 IRatSp=95.
          There are    45 degrees of freedom in the 1st order CPHF.  IDoFFX=6 NUNeed=     0.
     39 vectors produced by pass  0 Test12= 2.10D-14 2.22D-09 XBig12= 1.20D-01 4.67D-02.
 AX will form    39 AO Fock derivatives at one time.
     39 vectors produced by pass  1 Test12= 2.10D-14 2.22D-09 XBig12= 1.09D-02 1.62D-02.
     39 vectors produced by pass  2 Test12= 2.10D-14 2.22D-09 XBig12= 6.13D-04 5.87D-03.
     39 vectors produced by pass  3 Test12= 2.10D-14 2.22D-09 XBig12= 1.23D-05 4.26D-04.
     39 vectors produced by pass  4 Test12= 2.10D-14 2.22D-09 XBig12= 1.68D-07 4.17D-05.
     39 vectors produced by pass  5 Test12= 2.10D-14 2.22D-09 XBig12= 2.66D-09 5.04D-06.
     36 vectors produced by pass  6 Test12= 2.10D-14 2.22D-09 XBig12= 2.84D-11 5.05D-07.
     13 vectors produced by pass  7 Test12= 2.10D-14 2.22D-09 XBig12= 1.65D-13 3.04D-08.
      1 vectors produced by pass  8 Test12= 2.10D-14 2.22D-09 XBig12= 9.61D-16 2.35D-09.
 InvSVY:  IOpt=1 It=  1 EMax= 2.00D-15
 Solved reduced A of dimension   284 with    39 vectors.
 End of Minotr F.D. properties file   721 does not exist.
 End of Minotr F.D. properties file   722 does not exist.
 End of Minotr F.D. properties file   788 does not exist.
 Leave Link 1002 at Tue Apr  9 00:37:13 2019, MaxMem=   671088640 cpu:            4514.5 elap:             225.8
 (Enter /shared/centos7/gaussian/g16/l601.exe)
 Copying SCF densities to generalized density rwf, IOpCl= 1 IROHF=0.

 **********************************************************************

            Population analysis using the SCF density.

 **********************************************************************

 Orbital symmetries:
 Alpha Orbitals:
       Occupied  (A) (A) (A) (A) (A) (A) (A) (A) (A) (A) (A) (A)
                 (A) (A) (A) (A) (A) (A) (A) (A) (A)
       Virtual   (A) (A) (A) (A) (A) (A) (A) (A) (A) (A) (A) (A)
                 (A) (A) (A) (A) (A) (A) (A) (A) (A) (A) (A) (A)
                 (A) (A) (A) (A) (A) (A) (A) (A) (A) (A) (A) (A)
                 (A) (A) (A) (A) (A) (A) (A) (A) (A) (A) (A) (A)
                 (A) (A) (A) (A) (A) (A) (A) (A) (A) (A) (A) (A)
                 (A) (A) (A) (A) (A) (A) (A) (A) (A) (A) (A) (A)
                 (A) (A) (A) (A) (A) (A) (A) (A) (A) (A) (A) (A)
                 (A) (A) (A) (A) (A) (A) (A) (A) (A) (A) (A) (A)
                 (A) (A) (A) (A) (A) (A) (A) (A) (A) (A) (A) (A)
                 (A) (A) (A) (A) (A) (A) (A) (A) (A) (A) (A) (A)
                 (A) (A) (A) (A) (A) (A) (A) (A) (A) (A) (A) (A)
                 (A) (A) (A) (A) (A) (A) (A) (A) (A) (A) (A) (A)
                 (A) (A) (A) (A) (A) (A) (A) (A) (A) (A) (A) (A)
                 (A) (A) (A) (A) (A) (A) (A) (A) (A) (A) (A) (A)
                 (A) (A) (A) (A) (A) (A) (A) (A) (A) (A) (A) (A)
                 (A) (A) (A) (A) (A) (A) (A) (A) (A) (A) (A) (A)
                 (A) (A) (A) (A) (A) (A) (A) (A) (A) (A) (A) (A)
                 (A) (A) (A) (A) (A) (A) (A) (A) (A) (A) (A) (A)
                 (A) (A) (A) (A) (A) (A) (A) (A) (A) (A) (A) (A)
                 (A) (A)
 Beta  Orbitals:
       Occupied  (A) (A) (A) (A) (A) (A) (A) (A) (A) (A) (A) (A)
                 (A) (A) (A) (A) (A) (A) (A) (A)
       Virtual   (A) (A) (A) (A) (A) (A) (A) (A) (A) (A) (A) (A)
                 (A) (A) (A) (A) (A) (A) (A) (A) (A) (A) (A) (A)
                 (A) (A) (A) (A) (A) (A) (A) (A) (A) (A) (A) (A)
                 (A) (A) (A) (A) (A) (A) (A) (A) (A) (A) (A) (A)
                 (A) (A) (A) (A) (A) (A) (A) (A) (A) (A) (A) (A)
                 (A) (A) (A) (A) (A) (A) (A) (A) (A) (A) (A) (A)
                 (A) (A) (A) (A) (A) (A) (A) (A) (A) (A) (A) (A)
                 (A) (A) (A) (A) (A) (A) (A) (A) (A) (A) (A) (A)
                 (A) (A) (A) (A) (A) (A) (A) (A) (A) (A) (A) (A)
                 (A) (A) (A) (A) (A) (A) (A) (A) (A) (A) (A) (A)
                 (A) (A) (A) (A) (A) (A) (A) (A) (A) (A) (A) (A)
                 (A) (A) (A) (A) (A) (A) (A) (A) (A) (A) (A) (A)
                 (A) (A) (A) (A) (A) (A) (A) (A) (A) (A) (A) (A)
                 (A) (A) (A) (A) (A) (A) (A) (A) (A) (A) (A) (A)
                 (A) (A) (A) (A) (A) (A) (A) (A) (A) (A) (A) (A)
                 (A) (A) (A) (A) (A) (A) (A) (A) (A) (A) (A) (A)
                 (A) (A) (A) (A) (A) (A) (A) (A) (A) (A) (A) (A)
                 (A) (A) (A) (A) (A) (A) (A) (A) (A) (A) (A) (A)
                 (A) (A) (A) (A) (A) (A) (A) (A) (A) (A) (A) (A)
                 (A) (A) (A)
 The electronic state is 2-A.
 Alpha  occ. eigenvalues --  -19.65147 -10.58372 -10.54249 -10.53335 -10.52831
 Alpha  occ. eigenvalues --   -1.16824  -0.90208  -0.81194  -0.72123  -0.66854
 Alpha  occ. eigenvalues --   -0.57366  -0.55597  -0.51181  -0.49569  -0.48209
 Alpha  occ. eigenvalues --   -0.45369  -0.43566  -0.40821  -0.39053  -0.37899
 Alpha  occ. eigenvalues --   -0.23487
 Alpha virt. eigenvalues --    0.01667   0.02547   0.03578   0.04163   0.05032
 Alpha virt. eigenvalues --    0.06232   0.06856   0.07207   0.08066   0.10222
 Alpha virt. eigenvalues --    0.10819   0.11190   0.11297   0.11588   0.15426
 Alpha virt. eigenvalues --    0.17142   0.18524   0.19487   0.20547   0.21343
 Alpha virt. eigenvalues --    0.21966   0.23834   0.24699   0.25650   0.26693
 Alpha virt. eigenvalues --    0.27551   0.29455   0.30433   0.30919   0.31623
 Alpha virt. eigenvalues --    0.33684   0.35452   0.36715   0.43433   0.44959
 Alpha virt. eigenvalues --    0.45306   0.46390   0.46785   0.47874   0.49126
 Alpha virt. eigenvalues --    0.50997   0.52096   0.54369   0.56013   0.56754
 Alpha virt. eigenvalues --    0.58250   0.58884   0.60810   0.61336   0.61761
 Alpha virt. eigenvalues --    0.63199   0.64743   0.66870   0.68768   0.69325
 Alpha virt. eigenvalues --    0.69834   0.74801   0.75130   0.79112   0.82382
 Alpha virt. eigenvalues --    0.86275   0.88041   0.90648   0.92710   0.94294
 Alpha virt. eigenvalues --    0.95763   0.97333   0.97498   1.01498   1.02327
 Alpha virt. eigenvalues --    1.03655   1.09256   1.09395   1.12649   1.14393
 Alpha virt. eigenvalues --    1.15065   1.16413   1.17611   1.20091   1.20914
 Alpha virt. eigenvalues --    1.23159   1.25101   1.26246   1.29225   1.30872
 Alpha virt. eigenvalues --    1.31586   1.32254   1.35358   1.36238   1.36955
 Alpha virt. eigenvalues --    1.40063   1.41652   1.44100   1.44336   1.45450
 Alpha virt. eigenvalues --    1.45930   1.46663   1.50724   1.52606   1.54371
 Alpha virt. eigenvalues --    1.55915   1.58035   1.58547   1.60444   1.62605
 Alpha virt. eigenvalues --    1.63703   1.67915   1.69606   1.71097   1.90288
 Alpha virt. eigenvalues --    2.01513   2.10845   2.26544   2.28318   2.34712
 Alpha virt. eigenvalues --    2.41874   2.46588   2.50202   2.57492   2.59881
 Alpha virt. eigenvalues --    2.67231   2.68342   2.72629   2.76679   2.78900
 Alpha virt. eigenvalues --    2.81245   2.82697   2.85002   2.85208   2.87852
 Alpha virt. eigenvalues --    2.93271   2.97441   3.01476   3.03314   3.08130
 Alpha virt. eigenvalues --    3.09657   3.12622   3.13866   3.18591   3.19549
 Alpha virt. eigenvalues --    3.20797   3.21335   3.24335   3.25475   3.28377
 Alpha virt. eigenvalues --    3.29216   3.30068   3.32696   3.33421   3.35635
 Alpha virt. eigenvalues --    3.36160   3.37329   3.41264   3.43451   3.49813
 Alpha virt. eigenvalues --    3.55224   3.55855   3.57795   3.63540   3.66843
 Alpha virt. eigenvalues --    3.68779   3.69608   3.72733   3.77115   3.78287
 Alpha virt. eigenvalues --    3.82522   3.85799   3.87631   3.89724   3.92573
 Alpha virt. eigenvalues --    3.95171   3.96571   3.97492   3.99814   4.04182
 Alpha virt. eigenvalues --    4.05022   4.08211   4.10623   4.11867   4.14591
 Alpha virt. eigenvalues --    4.17118   4.19354   4.21177   4.23924   4.26694
 Alpha virt. eigenvalues --    4.28011   4.29219   4.33579   4.38830   4.39079
 Alpha virt. eigenvalues --    4.40319   4.45221   4.46172   4.47708   4.54405
 Alpha virt. eigenvalues --    4.56351   4.58080   4.67688   4.71601   4.77775
 Alpha virt. eigenvalues --    4.87161   4.91094   5.08962   5.17542   5.21744
 Alpha virt. eigenvalues --    5.23253   5.35475   5.43240   5.45867   5.48815
 Alpha virt. eigenvalues --    5.49818   5.52395   5.53791   5.55244   5.60003
 Alpha virt. eigenvalues --    5.67660   5.81459   6.00836   6.54180   6.93785
 Alpha virt. eigenvalues --    6.97625   7.14668   7.20674   7.46590   7.61637
 Alpha virt. eigenvalues --   24.19169  24.27173  24.41316  24.48762  50.09056
  Beta  occ. eigenvalues --  -19.64765 -10.57570 -10.54271 -10.53284 -10.52831
  Beta  occ. eigenvalues --   -1.15461  -0.89780  -0.80267  -0.70700  -0.66318
  Beta  occ. eigenvalues --   -0.56199  -0.54856  -0.50498  -0.48209  -0.47049
  Beta  occ. eigenvalues --   -0.43182  -0.42539  -0.40360  -0.38726  -0.37459
  Beta virt. eigenvalues --   -0.00675   0.02170   0.02459   0.03560   0.04104
  Beta virt. eigenvalues --    0.05058   0.06175   0.06968   0.07039   0.08070
  Beta virt. eigenvalues --    0.10021   0.10648   0.10869   0.11336   0.11440
  Beta virt. eigenvalues --    0.15521   0.16283   0.18585   0.19907   0.20537
  Beta virt. eigenvalues --    0.21056   0.22007   0.24210   0.24786   0.25791
  Beta virt. eigenvalues --    0.26829   0.27674   0.29414   0.30628   0.30934
  Beta virt. eigenvalues --    0.31490   0.34052   0.35713   0.37641   0.43736
  Beta virt. eigenvalues --    0.45190   0.45457   0.46462   0.46985   0.47945
  Beta virt. eigenvalues --    0.49326   0.51726   0.52743   0.54985   0.56064
  Beta virt. eigenvalues --    0.57050   0.58324   0.58902   0.60822   0.61361
  Beta virt. eigenvalues --    0.61715   0.63504   0.64784   0.67229   0.68524
  Beta virt. eigenvalues --    0.69307   0.70006   0.75093   0.75531   0.79210
  Beta virt. eigenvalues --    0.82829   0.86569   0.88128   0.90519   0.92544
  Beta virt. eigenvalues --    0.94242   0.95841   0.97342   0.97424   1.01314
  Beta virt. eigenvalues --    1.02498   1.03639   1.09114   1.09566   1.12910
  Beta virt. eigenvalues --    1.14451   1.15226   1.16690   1.17804   1.20183
  Beta virt. eigenvalues --    1.21094   1.23375   1.25213   1.26380   1.29373
  Beta virt. eigenvalues --    1.30978   1.31645   1.32440   1.35802   1.36329
  Beta virt. eigenvalues --    1.37101   1.40180   1.41884   1.44168   1.44499
  Beta virt. eigenvalues --    1.45663   1.46059   1.46780   1.51478   1.52622
  Beta virt. eigenvalues --    1.54639   1.56000   1.57923   1.58451   1.60406
  Beta virt. eigenvalues --    1.62561   1.63912   1.68109   1.69579   1.71186
  Beta virt. eigenvalues --    1.90746   2.02520   2.11392   2.27305   2.28480
  Beta virt. eigenvalues --    2.35369   2.41928   2.47320   2.50879   2.58067
  Beta virt. eigenvalues --    2.60557   2.67564   2.69641   2.73211   2.77499
  Beta virt. eigenvalues --    2.79314   2.81807   2.83501   2.85754   2.87617
  Beta virt. eigenvalues --    2.91470   2.94855   2.97679   3.03494   3.04932
  Beta virt. eigenvalues --    3.08854   3.10478   3.13303   3.14802   3.19153
  Beta virt. eigenvalues --    3.20002   3.21102   3.22945   3.25461   3.26355
  Beta virt. eigenvalues --    3.29538   3.30172   3.31086   3.34388   3.35150
  Beta virt. eigenvalues --    3.36445   3.38611   3.39002   3.43258   3.45656
  Beta virt. eigenvalues --    3.52981   3.56899   3.57399   3.61592   3.65518
  Beta virt. eigenvalues --    3.67155   3.69304   3.70550   3.73466   3.78265
  Beta virt. eigenvalues --    3.79003   3.83271   3.86555   3.88551   3.90999
  Beta virt. eigenvalues --    3.93307   3.95570   3.96936   3.97995   4.00164
  Beta virt. eigenvalues --    4.04609   4.05428   4.08791   4.11184   4.12816
  Beta virt. eigenvalues --    4.15133   4.17374   4.20681   4.21340   4.24086
  Beta virt. eigenvalues --    4.27325   4.28588   4.29640   4.34039   4.39396
  Beta virt. eigenvalues --    4.39710   4.40923   4.45829   4.47381   4.48239
  Beta virt. eigenvalues --    4.54614   4.58147   4.60319   4.68113   4.72281
  Beta virt. eigenvalues --    4.78489   4.87646   4.91966   5.11260   5.19066
  Beta virt. eigenvalues --    5.22500   5.23726   5.35993   5.44715   5.47050
  Beta virt. eigenvalues --    5.48998   5.50783   5.53442   5.53923   5.55802
  Beta virt. eigenvalues --    5.59954   5.67812   5.82289   6.01572   6.55262
  Beta virt. eigenvalues --    6.94738   6.98026   7.15621   7.21397   7.47240
  Beta virt. eigenvalues --    7.61555  24.19296  24.27558  24.41942  24.49179
  Beta virt. eigenvalues --   50.08784
          Condensed to atoms (all electrons):
               1          2          3          4          5          6
     1  O    8.013904   0.006342  -0.053521  -0.004616   0.148090  -0.000259
     2  C    0.006342   5.694031  -0.181770   0.040635  -0.090902   0.446877
     3  C   -0.053521  -0.181770   5.530608  -0.075522   0.043115  -0.041658
     4  C   -0.004616   0.040635  -0.075522   5.291120   0.110299  -0.049121
     5  C    0.148090  -0.090902   0.043115   0.110299   5.811124   0.007841
     6  H   -0.000259   0.446877  -0.041658  -0.049121   0.007841   0.557426
     7  H   -0.000103   0.428587  -0.053884  -0.035321   0.008564  -0.036162
     8  H    0.005507  -0.068392   0.423841  -0.006170  -0.015651   0.004637
     9  H   -0.013434  -0.045834   0.459786   0.004073  -0.049740  -0.015785
    10  H   -0.000035  -0.078780  -0.008849   0.438894   0.004788   0.005156
    11  H    0.000011  -0.028534   0.012091   0.406070  -0.002754  -0.016924
    12  H    0.000051  -0.038442  -0.007159   0.425953   0.000846   0.005392
    13  H   -0.050928  -0.010949  -0.005834   0.000732   0.395693  -0.000401
    14  H    0.236919  -0.007707  -0.001216   0.000001  -0.013619  -0.000290
               7          8          9         10         11         12
     1  O   -0.000103   0.005507  -0.013434  -0.000035   0.000011   0.000051
     2  C    0.428587  -0.068392  -0.045834  -0.078780  -0.028534  -0.038442
     3  C   -0.053884   0.423841   0.459786  -0.008849   0.012091  -0.007159
     4  C   -0.035321  -0.006170   0.004073   0.438894   0.406070   0.425953
     5  C    0.008564  -0.015651  -0.049740   0.004788  -0.002754   0.000846
     6  H   -0.036162   0.004637  -0.015785   0.005156  -0.016924   0.005392
     7  H    0.549306   0.005030   0.004256   0.005426   0.004667  -0.016088
     8  H    0.005030   0.557923  -0.034753   0.003084  -0.000013   0.001293
     9  H    0.004256  -0.034753   0.560426   0.001046  -0.000156  -0.000446
    10  H    0.005426   0.003084   0.001046   0.573972  -0.031831  -0.031213
    11  H    0.004667  -0.000013  -0.000156  -0.031831   0.565640  -0.029195
    12  H   -0.016088   0.001293  -0.000446  -0.031213  -0.029195   0.557694
    13  H    0.000282  -0.009975   0.004726  -0.000315   0.000015   0.000016
    14  H    0.000473   0.000202   0.008792  -0.000010  -0.000000   0.000001
              13         14
     1  O   -0.050928   0.236919
     2  C   -0.010949  -0.007707
     3  C   -0.005834  -0.001216
     4  C    0.000732   0.000001
     5  C    0.395693  -0.013619
     6  H   -0.000401  -0.000290
     7  H    0.000282   0.000473
     8  H   -0.009975   0.000202
     9  H    0.004726   0.008792
    10  H   -0.000315  -0.000010
    11  H    0.000015  -0.000000
    12  H    0.000016   0.000001
    13  H    0.514027   0.008231
    14  H    0.008231   0.514655
          Atomic-Atomic Spin Densities.
               1          2          3          4          5          6
     1  O    0.266423  -0.000655   0.018186  -0.001415  -0.201110  -0.000185
     2  C   -0.000655   0.051656  -0.022469  -0.022712   0.041770  -0.001314
     3  C    0.018186  -0.022469   0.138396  -0.004674  -0.225372  -0.008938
     4  C   -0.001415  -0.022712  -0.004674   0.012412   0.018562   0.000547
     5  C   -0.201110   0.041770  -0.225372   0.018562   1.355199   0.007409
     6  H   -0.000185  -0.001314  -0.008938   0.000547   0.007409   0.002476
     7  H    0.000283   0.009282   0.008682   0.003288  -0.012930   0.001123
     8  H    0.005923   0.023529  -0.022877   0.000940  -0.020797   0.000659
     9  H   -0.000544  -0.000596   0.002347   0.002282  -0.004611  -0.000331
    10  H    0.000057   0.003624  -0.001180  -0.000170  -0.001390   0.000213
    11  H    0.000003  -0.001296   0.002494   0.000952  -0.001576  -0.000251
    12  H   -0.000009  -0.000955  -0.001525  -0.000377   0.001733   0.000079
    13  H   -0.000295  -0.010802   0.021933   0.001159  -0.021601  -0.000085
    14  H    0.002544  -0.001012   0.000989   0.000491  -0.001159   0.000049
               7          8          9         10         11         12
     1  O    0.000283   0.005923  -0.000544   0.000057   0.000003  -0.000009
     2  C    0.009282   0.023529  -0.000596   0.003624  -0.001296  -0.000955
     3  C    0.008682  -0.022877   0.002347  -0.001180   0.002494  -0.001525
     4  C    0.003288   0.000940   0.002282  -0.000170   0.000952  -0.000377
     5  C   -0.012930  -0.020797  -0.004611  -0.001390  -0.001576   0.001733
     6  H    0.001123   0.000659  -0.000331   0.000213  -0.000251   0.000079
     7  H   -0.021696  -0.000195  -0.000160  -0.000451  -0.000378   0.000415
     8  H   -0.000195   0.052173  -0.003539   0.001546  -0.000507   0.000021
     9  H   -0.000160  -0.003539   0.004596  -0.000122   0.000029  -0.000014
    10  H   -0.000451   0.001546  -0.000122  -0.002424  -0.000476   0.000310
    11  H   -0.000378  -0.000507   0.000029  -0.000476   0.001632  -0.000316
    12  H    0.000415   0.000021  -0.000014   0.000310  -0.000316   0.000902
    13  H    0.000253  -0.004884   0.000439  -0.000152   0.000026  -0.000029
    14  H   -0.000048   0.000013   0.000398  -0.000002  -0.000001   0.000000
              13         14
     1  O   -0.000295   0.002544
     2  C   -0.010802  -0.001012
     3  C    0.021933   0.000989
     4  C    0.001159   0.000491
     5  C   -0.021601  -0.001159
     6  H   -0.000085   0.000049
     7  H    0.000253  -0.000048
     8  H   -0.004884   0.000013
     9  H    0.000439   0.000398
    10  H   -0.000152  -0.000002
    11  H    0.000026  -0.000001
    12  H   -0.000029   0.000000
    13  H   -0.011723  -0.000432
    14  H   -0.000432  -0.005348
 Mulliken charges and spin densities:
               1          2
     1  O   -0.287928   0.089206
     2  C   -0.065163   0.068051
     3  C   -0.040029  -0.094009
     4  C   -0.547026   0.011284
     5  C   -0.357695   0.934126
     6  H    0.133272   0.001452
     7  H    0.134967  -0.012534
     8  H    0.133437   0.032006
     9  H    0.117042   0.000176
    10  H    0.118667  -0.000617
    11  H    0.120914   0.000335
    12  H    0.131296   0.000235
    13  H    0.154680  -0.026194
    14  H    0.253567  -0.003517
 Sum of Mulliken charges =  -0.00000   1.00000
 Mulliken charges and spin densities with hydrogens summed into heavy atoms:
               1          2
     1  O   -0.034361   0.085689
     2  C    0.203075   0.056969
     3  C    0.210450  -0.061827
     4  C   -0.176149   0.011237
     5  C   -0.203015   0.907932
 APT charges:
               1
     1  O   -0.600810
     2  C   -0.528016
     3  C   -0.497920
     4  C   -1.381945
     5  C   -0.366619
     6  H    0.395765
     7  H    0.315844
     8  H    0.314833
     9  H    0.323376
    10  H    0.248489
    11  H    0.509832
    12  H    0.409716
    13  H    0.378808
    14  H    0.478646
 Sum of APT charges =  -0.00000
 APT charges with hydrogens summed into heavy atoms:
               1
     1  O   -0.122164
     2  C    0.183594
     3  C    0.140289
     4  C   -0.213908
     5  C    0.012189
 Electronic spatial extent (au):  <R**2>=            629.1868
 Charge=             -0.0000 electrons
 Dipole moment (field-independent basis, Debye):
    X=             -1.2497    Y=              1.1748    Z=              0.6623  Tot=              1.8386
 Quadrupole moment (field-independent basis, Debye-Ang):
   XX=            -38.1213   YY=            -30.0414   ZZ=            -34.4707
   XY=              2.9545   XZ=              1.1583   YZ=              0.2304
 Traceless Quadrupole moment (field-independent basis, Debye-Ang):
   XX=             -3.9102   YY=              4.1697   ZZ=             -0.2595
   XY=              2.9545   XZ=              1.1583   YZ=              0.2304
 Octapole moment (field-independent basis, Debye-Ang**2):
  XXX=             -4.1457  YYY=              2.7039  ZZZ=              1.4741  XYY=              8.9895
  XXY=             10.5861  XXZ=              1.3821  XZZ=              1.0688  YZZ=             -0.3219
  YYZ=              0.7589  XYZ=              0.2089
 Hexadecapole moment (field-independent basis, Debye-Ang**3):
 XXXX=           -714.6738 YYYY=            -87.2381 ZZZZ=            -83.1134 XXXY=             20.0612
 XXXZ=              6.6262 YYYX=              3.0506 YYYZ=              0.9813 ZZZX=              2.8581
 ZZZY=             -1.3822 XXYY=           -110.3777 XXZZ=           -127.9153 YYZZ=            -29.8516
 XXYZ=              3.9559 YYXZ=              1.4769 ZZXY=              3.0681
 N-N= 1.764846496307D+02 E-N=-8.958053152087D+02  KE= 2.319140432251D+02
  Exact polarizability:   0.000   0.000   0.000   0.000   0.000   0.000
 Approx polarizability:  64.092   1.096  62.696   0.114   1.091  59.497
                          Isotropic Fermi Contact Couplings
        Atom                 a.u.       MegaHertz       Gauss      10(-4) cm-1
     1  O(17)              0.03380     -20.49133      -7.31182      -6.83517
     2  C(13)              0.03942      44.31250      15.81180      14.78106
     3  C(13)             -0.00499      -5.60560      -2.00022      -1.86983
     4  C(13)             -0.00053      -0.59466      -0.21219      -0.19836
     5  C(13)              0.28468     320.03343     114.19588     106.75166
     6  H(1)              -0.00001      -0.05660      -0.02020      -0.01888
     7  H(1)              -0.00051      -2.26846      -0.80944      -0.75668
     8  H(1)               0.01607      71.85226      25.63867      23.96733
     9  H(1)              -0.00026      -1.14054      -0.40697      -0.38044
    10  H(1)              -0.00009      -0.38171      -0.13621      -0.12733
    11  H(1)               0.00029       1.29324       0.46146       0.43138
    12  H(1)               0.00013       0.59891       0.21371       0.19977
    13  H(1)              -0.00316     -14.12631      -5.04062      -4.71203
    14  H(1)              -0.00229     -10.23856      -3.65337      -3.41521
 --------------------------------------------------------
       Center         ----  Spin Dipole Couplings  ----
                      3XX-RR        3YY-RR        3ZZ-RR
 --------------------------------------------------------
     1   Atom       -0.435315     -0.331426      0.766741
     2   Atom        0.031033     -0.013876     -0.017157
     3   Atom        0.010178     -0.014444      0.004266
     4   Atom        0.004828     -0.004080     -0.000748
     5   Atom       -0.482056     -0.427976      0.910032
     6   Atom        0.002675      0.001946     -0.004621
     7   Atom        0.011193     -0.010416     -0.000777
     8   Atom        0.001975     -0.006538      0.004563
     9   Atom       -0.006191      0.007040     -0.000849
    10   Atom        0.004652     -0.003070     -0.001582
    11   Atom        0.002922     -0.001345     -0.001576
    12   Atom        0.004037     -0.001899     -0.002138
    13   Atom       -0.059084      0.070302     -0.011218
    14   Atom       -0.018792      0.031343     -0.012551
 --------------------------------------------------------
                        XY            XZ            YZ
 --------------------------------------------------------
     1   Atom       -0.037393      0.127803     -0.210814
     2   Atom       -0.020228     -0.001319      0.001556
     3   Atom       -0.013160     -0.021659      0.010590
     4   Atom        0.000387     -0.002409     -0.001416
     5   Atom       -0.042775      0.189171     -0.305645
     6   Atom       -0.006357     -0.000353     -0.000268
     7   Atom       -0.006276      0.007660     -0.000508
     8   Atom       -0.003401     -0.011980      0.001558
     9   Atom       -0.007752     -0.005696      0.011113
    10   Atom        0.001375     -0.001931     -0.000618
    11   Atom       -0.001004     -0.000716     -0.000036
    12   Atom        0.001340      0.000364      0.000193
    13   Atom       -0.002452      0.005012     -0.009036
    14   Atom        0.008879      0.005565      0.015389
 --------------------------------------------------------


 ---------------------------------------------------------------------------------
              Anisotropic Spin Dipole Couplings in Principal Axis System
 ---------------------------------------------------------------------------------

       Atom             a.u.   MegaHertz   Gauss  10(-4) cm-1        Axes

              Baa    -0.4515    32.671    11.658    10.898  0.9812  0.1793 -0.0719
     1 O(17)  Bbb    -0.3683    26.649     9.509     8.889 -0.1621  0.9667  0.1978
              Bcc     0.8198   -59.321   -21.167   -19.787  0.1050 -0.1824  0.9776
 
              Baa    -0.0219    -2.932    -1.046    -0.978  0.3451  0.9155 -0.2067
     2 C(13)  Bbb    -0.0170    -2.282    -0.814    -0.761  0.1034  0.1818  0.9779
              Bcc     0.0389     5.214     1.861     1.739  0.9329 -0.3588 -0.0319
 
              Baa    -0.0203    -2.723    -0.972    -0.908  0.3160  0.9403 -0.1268
     3 C(13)  Bbb    -0.0146    -1.955    -0.697    -0.652  0.6229 -0.1048  0.7753
              Bcc     0.0349     4.678     1.669     1.560  0.7157 -0.3239 -0.6188
 
              Baa    -0.0046    -0.621    -0.222    -0.207  0.0572  0.9259  0.3735
     4 C(13)  Bbb    -0.0012    -0.158    -0.056    -0.053  0.3668 -0.3674  0.8547
              Bcc     0.0058     0.778     0.278     0.260  0.9285  0.0881 -0.3606
 
              Baa    -0.5076   -68.113   -24.305   -22.720  0.9846  0.1428 -0.1006
     5 C(13)  Bbb    -0.4943   -66.331   -23.668   -22.126 -0.1171  0.9670  0.2262
              Bcc     1.0019   134.444    47.973    44.846  0.1296 -0.2110  0.9689
 
              Baa    -0.0049    -2.593    -0.925    -0.865  0.3321  0.3448  0.8780
     6 H(1)   Bbb    -0.0038    -2.038    -0.727    -0.680  0.6008  0.6403 -0.4786
              Bcc     0.0087     4.630     1.652     1.545  0.7272 -0.6864 -0.0055
 
              Baa    -0.0123    -6.588    -2.351    -2.198  0.3023  0.9399 -0.1588
     7 H(1)   Bbb    -0.0039    -2.072    -0.739    -0.691 -0.3474  0.2638  0.8998
              Bcc     0.0162     8.660     3.090     2.889  0.8877 -0.2168  0.4063
 
              Baa    -0.0096    -5.138    -1.833    -1.714  0.6906  0.4934  0.5288
     8 H(1)   Bbb    -0.0062    -3.318    -1.184    -1.107 -0.2794  0.8564 -0.4342
              Bcc     0.0158     8.455     3.017     2.820 -0.6671  0.1521  0.7293
 
              Baa    -0.0099    -5.305    -1.893    -1.769  0.9240  0.2149  0.3161
     9 H(1)   Bbb    -0.0087    -4.628    -1.651    -1.544 -0.1243 -0.6131  0.7802
              Bcc     0.0186     9.933     3.544     3.313 -0.3615  0.7602  0.5398
 
              Baa    -0.0034    -1.797    -0.641    -0.599 -0.1156  0.9706  0.2110
    10 H(1)   Bbb    -0.0021    -1.117    -0.399    -0.373  0.3027 -0.1679  0.9382
              Bcc     0.0055     2.914     1.040     0.972  0.9460  0.1723 -0.2744
 
              Baa    -0.0018    -0.971    -0.346    -0.324  0.2391  0.5663  0.7888
    11 H(1)   Bbb    -0.0014    -0.761    -0.271    -0.254  0.0854  0.7969 -0.5980
              Bcc     0.0032     1.732     0.618     0.578  0.9672 -0.2103 -0.1421
 
              Baa    -0.0023    -1.220    -0.435    -0.407 -0.1180  0.7375 -0.6650
    12 H(1)   Bbb    -0.0021    -1.100    -0.393    -0.367 -0.1853  0.6415  0.7444
              Bcc     0.0043     2.321     0.828     0.774  0.9756  0.2110  0.0609
 
              Baa    -0.0596   -31.811   -11.351   -10.611  0.9948  0.0118 -0.1008
    13 H(1)   Bbb    -0.0117    -6.264    -2.235    -2.089  0.0989  0.1119  0.9888
              Bcc     0.0714    38.074    13.586    12.700 -0.0229  0.9937 -0.1101
 
              Baa    -0.0221   -11.766    -4.198    -3.925  0.8600  0.0041 -0.5103
    14 H(1)   Bbb    -0.0160    -8.517    -3.039    -2.841  0.4790 -0.3516  0.8043
              Bcc     0.0380    20.283     7.238     6.766  0.1761  0.9362  0.3043
 

 ---------------------------------------------------------------------------------

 No NMR shielding tensors so no spin-rotation constants.
 Leave Link  601 at Tue Apr  9 00:37:14 2019, MaxMem=   671088640 cpu:              11.9 elap:               0.6
 (Enter /shared/centos7/gaussian/g16/l701.exe)
 SCFChk:  SCF convergence  5.90D-09 required  1.00D-08
 ... and contract with generalized density number  0.
 Compute integral second derivatives.
 Entering OneElI...
 Calculate overlap and kinetic energy integrals
    NBasis = 276  MinDer = 2  MaxDer = 2
 Requested accuracy = 0.1000D-12
 PrmmSu-InSpLW:  IPartL=    0 NPrtUS=   20 NPrtUL=    1 DoSpLW=F IThBeg=    0 IThEnd=   19 NThAct=   20.
 PrsmSu:  NPrtUS=  20 ThrOK=T IAlg=1 NPAlg=1 LenDen=           0 ISkipM=0 DoSpLW=F IThBeg=    0 IThEnd=   19.
 Prism:   IPart=     0 DynPar=F LinDyn=F Incr=           1.
 PRISM was handed    33458110 working-precision words and  3623 shell-pairs
 PRISM was handed    33458110 working-precision words and  3623 shell-pairs
 PRISM was handed    33458110 working-precision words and  3623 shell-pairs
 PRISM was handed    33458110 working-precision words and  3623 shell-pairs
 PRISM was handed    33458110 working-precision words and  3623 shell-pairs
 PRISM was handed    33458110 working-precision words and  3623 shell-pairs
 PRISM was handed    33458110 working-precision words and  3623 shell-pairs
 PRISM was handed    33458110 working-precision words and  3623 shell-pairs
 PRISM was handed    33458110 working-precision words and  3623 shell-pairs
 PRISM was handed    33458110 working-precision words and  3623 shell-pairs
 PRISM was handed    33458110 working-precision words and  3623 shell-pairs
 PRISM was handed    33458110 working-precision words and  3623 shell-pairs
 PRISM was handed    33458110 working-precision words and  3623 shell-pairs
 PRISM was handed    33458110 working-precision words and  3623 shell-pairs
 PRISM was handed    33458110 working-precision words and  3623 shell-pairs
 PRISM was handed    33458110 working-precision words and  3623 shell-pairs
 PRISM was handed    33458110 working-precision words and  3623 shell-pairs
 PRISM was handed    33458110 working-precision words and  3623 shell-pairs
 PRISM was handed    33458110 working-precision words and  3623 shell-pairs
 PRISM was handed    33458110 working-precision words and  3623 shell-pairs
 IPart=  2 NShTot=         204 NBatch=          47 AvBLen=         4.3
 IPart= 19 NShTot=         161 NBatch=          28 AvBLen=         5.8
 IPart=  8 NShTot=         181 NBatch=          36 AvBLen=         5.0
 IPart=  1 NShTot=         206 NBatch=          49 AvBLen=         4.2
 IPart=  3 NShTot=         199 NBatch=          45 AvBLen=         4.4
 IPart=  5 NShTot=         188 NBatch=          39 AvBLen=         4.8
 IPart=  9 NShTot=         178 NBatch=          34 AvBLen=         5.2
 IPart=  4 NShTot=         194 NBatch=          43 AvBLen=         4.5
 IPart=  6 NShTot=         188 NBatch=          39 AvBLen=         4.8
 IPart= 17 NShTot=         163 NBatch=          30 AvBLen=         5.4
 IPart=  7 NShTot=         185 NBatch=          38 AvBLen=         4.9
 IPart= 16 NShTot=         165 NBatch=          31 AvBLen=         5.3
 IPart=  0 NShTot=         215 NBatch=          56 AvBLen=         3.8
 IPart= 11 NShTot=         175 NBatch=          33 AvBLen=         5.3
 IPart= 14 NShTot=         170 NBatch=          32 AvBLen=         5.3
 IPart= 13 NShTot=         171 NBatch=          32 AvBLen=         5.3
 IPart= 18 NShTot=         162 NBatch=          29 AvBLen=         5.6
 IPart= 15 NShTot=         168 NBatch=          31 AvBLen=         5.4
 IPart= 10 NShTot=         176 NBatch=          34 AvBLen=         5.2
 IPart= 12 NShTot=         174 NBatch=          33 AvBLen=         5.3
 PrSmSu:  NxtVal=             21.
 Entering OneElI...
 Calculate potential energy integrals
    NBasis = 276  MinDer = 2  MaxDer = 2
 Requested accuracy = 0.1000D-12
 PrmmSu-InSpLW:  IPartL=    0 NPrtUS=   20 NPrtUL=    1 DoSpLW=F IThBeg=    0 IThEnd=   19 NThAct=   20.
 PrsmSu:  NPrtUS=  20 ThrOK=T IAlg=1 NPAlg=1 LenDen=           0 ISkipM=0 DoSpLW=F IThBeg=    0 IThEnd=   19.
 Prism:   IPart=     0 DynPar=F LinDyn=F Incr=          24.
 PRISM was handed    33470783 working-precision words and  3429 shell-pairs
 PRISM was handed    33470783 working-precision words and  3429 shell-pairs
 PRISM was handed    33470783 working-precision words and  3429 shell-pairs
 PRISM was handed    33470783 working-precision words and  3429 shell-pairs
 PRISM was handed    33470783 working-precision words and  3429 shell-pairs
 PRISM was handed    33470783 working-precision words and  3429 shell-pairs
 PRISM was handed    33470783 working-precision words and  3429 shell-pairs
 PRISM was handed    33470783 working-precision words and  3429 shell-pairs
 PRISM was handed    33470783 working-precision words and  3429 shell-pairs
 PRISM was handed    33470783 working-precision words and  3429 shell-pairs
 PRISM was handed    33470783 working-precision words and  3429 shell-pairs
 PRISM was handed    33470783 working-precision words and  3429 shell-pairs
 PRISM was handed    33470783 working-precision words and  3429 shell-pairs
 PRISM was handed    33470783 working-precision words and  3429 shell-pairs
 PRISM was handed    33470783 working-precision words and  3429 shell-pairs
 PRISM was handed    33470783 working-precision words and  3429 shell-pairs
 PRISM was handed    33470783 working-precision words and  3429 shell-pairs
 PRISM was handed    33470783 working-precision words and  3429 shell-pairs
 PRISM was handed    33470783 working-precision words and  3429 shell-pairs
 PRISM was handed    33470783 working-precision words and  3429 shell-pairs
 IPart=  2 NShTot=        2646 NBatch=         189 AvBLen=        14.0
 IPart= 19 NShTot=        2156 NBatch=         154 AvBLen=        14.0
 IPart=  8 NShTot=        2422 NBatch=         173 AvBLen=        14.0
 IPart=  5 NShTot=        2492 NBatch=         178 AvBLen=        14.0
 IPart=  4 NShTot=        2548 NBatch=         182 AvBLen=        14.0
 IPart=  9 NShTot=        2394 NBatch=         171 AvBLen=        14.0
 IPart=  1 NShTot=        2772 NBatch=         198 AvBLen=        14.0
 IPart=  3 NShTot=        2590 NBatch=         185 AvBLen=        14.0
 IPart= 14 NShTot=        2212 NBatch=         158 AvBLen=        14.0
 IPart= 16 NShTot=        2212 NBatch=         158 AvBLen=        14.0
 IPart= 12 NShTot=        2296 NBatch=         164 AvBLen=        14.0
 IPart= 15 NShTot=        2212 NBatch=         158 AvBLen=        14.0
 IPart= 18 NShTot=        2156 NBatch=         154 AvBLen=        14.0
 IPart= 17 NShTot=        2170 NBatch=         155 AvBLen=        14.0
 IPart= 11 NShTot=        2324 NBatch=         166 AvBLen=        14.0
 IPart=  0 NShTot=        2884 NBatch=         206 AvBLen=        14.0
 IPart= 10 NShTot=        2352 NBatch=         168 AvBLen=        14.0
 IPart=  7 NShTot=        2450 NBatch=         175 AvBLen=        14.0
 IPart=  6 NShTot=        2464 NBatch=         176 AvBLen=        14.0
 IPart= 13 NShTot=        2254 NBatch=         161 AvBLen=        14.0
 PrSmSu:  NxtVal=            481.
 Polarizability after L701:
                1             2             3 
      1  0.000000D+00
      2  0.000000D+00  0.000000D+00
      3  0.000000D+00  0.000000D+00  0.000000D+00
 Dipole Derivatives after L701:
                 1             2             3             4             5 
      1  -0.590443D+00 -0.870415D+00 -0.259862D+00  0.499181D-01  0.971035D+00
      2   0.450320D-01 -0.810114D+00 -0.624478D-01  0.260316D+00 -0.857709D+00
      3  -0.112112D-01 -0.221935D-01 -0.401872D+00 -0.864436D-01 -0.122261D-01
                 6             7             8             9            10 
      1  -0.987778D+00  0.380038D-03 -0.238838D+00  0.107430D+00 -0.217662D+01
      2   0.152047D+00 -0.207187D+00 -0.768508D+00 -0.117225D+00  0.763829D-01
      3  -0.776256D+00  0.131597D+00  0.134328D-01 -0.725633D+00 -0.651819D-01
                11            12            13            14            15 
      1  -0.784125D+00  0.491398D+00 -0.149127D+00  0.515478D+00  0.178302D+00
      2  -0.991077D+00 -0.437732D-01 -0.144015D+00 -0.870414D+00  0.184659D-02
      3  -0.777442D-01 -0.978134D+00  0.600607D-01 -0.751923D-01 -0.803152D-01
                16            17            18            19            20 
      1   0.297564D+00 -0.578337D+00  0.353849D-01  0.111468D+00  0.113698D+00
      2  -0.134385D+00  0.759588D+00 -0.346561D-02  0.118320D-01  0.134921D+00
      3   0.384054D-01 -0.153746D+00  0.130143D+00 -0.691294D-01  0.194117D+00
                21            22            23            24            25 
      1   0.398629D+00  0.172513D+00  0.351550D-01 -0.674843D-01  0.169111D+00
      2  -0.303747D-01  0.239131D-01  0.208188D+00 -0.113218D+00  0.133261D+00
      3   0.701143D+00 -0.149099D+00 -0.318689D+00  0.563799D+00  0.871684D-01
                26            27            28            29            30 
      1   0.185101D+00  0.667543D-01 -0.201505D-01  0.449734D+00 -0.709142D+00
      2   0.601719D+00  0.142889D+00 -0.725599D-01  0.282425D+00 -0.311296D+00
      3   0.277814D+00  0.199298D+00  0.107848D+00 -0.235439D+00  0.483192D+00
                31            32            33            34            35 
      1   0.112792D+01 -0.873595D+00 -0.277122D+00  0.483482D+00  0.749396D+00
      2  -0.137363D+00  0.281144D+00  0.301534D-01  0.143195D+00  0.389209D+00
      3  -0.107859D+00  0.836120D-01  0.120435D+00  0.658585D-01  0.196755D+00
                36            37            38            39            40 
      1   0.786755D+00  0.149000D+00 -0.617761D+00  0.238176D-01  0.374992D+00
      2   0.319713D+00  0.110836D-01  0.869532D+00 -0.387917D-01 -0.950686D-02
      3   0.356457D+00 -0.847782D-02  0.899757D-01  0.117892D+00  0.646434D-02
                41            42 
      1   0.943472D+00  0.212917D+00
      2   0.771094D+00  0.739432D-01
      3   0.395232D-01  0.289852D+00
 Hessian after L701:
                1             2             3             4             5 
      1  0.377386D+01
      2 -0.243836D+01  0.678574D+01
      3 -0.778667D+00 -0.110686D+01  0.117071D+02
      4  0.327275D+00 -0.104964D+00  0.218651D+00  0.104618D+02
      5 -0.425433D-01 -0.163748D+00 -0.318859D-01 -0.192621D+00  0.129049D+02
      6  0.123359D+00 -0.342215D-02 -0.150187D+00 -0.567296D+00  0.264906D+00
      7  0.796016D+00 -0.167788D+00 -0.424971D+00 -0.161356D+01 -0.398497D+00
      8 -0.650374D-01 -0.326634D+00  0.592023D-01 -0.508242D+00 -0.440435D+01
      9 -0.224027D+00  0.571353D-01 -0.308945D+00  0.164571D+01 -0.238535D+00
     10  0.782746D-01  0.847631D-02 -0.950676D-02 -0.205464D+01  0.148536D+01
     11 -0.114630D-01 -0.620727D-01 -0.357405D-03  0.151970D+01 -0.382896D+01
     12  0.743634D-02 -0.351990D-02 -0.651925D-01 -0.995148D+00 -0.527006D+00
     13 -0.429911D+00  0.272253D+01  0.104412D+01 -0.258592D-01 -0.127667D+00
     14  0.277006D+01 -0.576122D+01  0.388062D+00 -0.666466D-01 -0.490059D-01
     15  0.100116D+01  0.382669D+00 -0.652969D+01  0.665637D-01 -0.198919D-02
     16  0.247174D-01 -0.188446D-01  0.214067D-02 -0.362595D+01 -0.521400D+00
     17 -0.383279D-01  0.853404D-02 -0.544087D-03 -0.464552D+00 -0.127968D+01
     18  0.405604D-02 -0.101969D-02 -0.137314D-01  0.434649D-01 -0.257450D+00
     19  0.311596D-01 -0.541919D-02  0.205643D-01 -0.370048D+01 -0.688446D-01
     20  0.533709D-02 -0.239924D-01  0.236745D-02 -0.885137D-01 -0.356439D+01
     21  0.552039D-01 -0.994808D-02 -0.304699D-03 -0.412335D+00  0.598742D+00
     22  0.773792D-01  0.666051D-02 -0.683076D-01  0.569776D-01  0.528505D-01
     23  0.409714D-01 -0.491692D-01 -0.226222D-01  0.318232D-01  0.969656D-01
     24 -0.104211D+00 -0.261743D-02  0.197423D-02 -0.103835D+00  0.513363D-01
     25 -0.137344D-01 -0.459511D-02 -0.233876D-03  0.152188D-01  0.343977D-01
     26 -0.581050D-01  0.259589D-01  0.270259D-01  0.465774D-01  0.143722D+00
     27 -0.199714D-01  0.183963D-01 -0.150915D-01 -0.280684D-01  0.267182D-01
     28  0.116225D-01  0.283793D-02 -0.430230D-02  0.495365D-01 -0.106216D+00
     29  0.142703D-01 -0.100691D-01 -0.424000D-02 -0.661745D-01  0.338999D-01
     30 -0.212697D-01 -0.362094D-04 -0.324423D-02  0.736609D-01  0.649461D-01
     31  0.215243D-01 -0.703180D-02 -0.338841D-02  0.452305D-01 -0.545577D-01
     32 -0.102434D-01 -0.178882D-02  0.145338D-02 -0.810451D-01  0.456587D-01
     33 -0.379479D-02  0.126177D-02 -0.550823D-02 -0.135764D-01  0.138429D-01
     34  0.178201D-01  0.279321D-02  0.205511D-02  0.201792D-01 -0.314834D-01
     35  0.140345D-01 -0.736473D-02  0.105831D-02  0.138257D-01  0.330643D-01
     36  0.136849D-01 -0.231048D-04 -0.575505D-02  0.474261D-01  0.441167D-01
     37 -0.888709D-01 -0.990397D-01 -0.344998D-01  0.347357D-01 -0.379521D-01
     38 -0.540765D-01  0.183116D+00 -0.454278D-01 -0.598802D-01  0.226499D-01
     39 -0.360470D-01 -0.452291D-01  0.416299D-01  0.116929D-01 -0.118590D-01
[...]
 ! D1    D(14,1,5,3)           -25.176          -DE/DX =    0.0                 !
 ! D2    D(14,1,5,13)         -175.435          -DE/DX =    0.0                 !
 ! D3    D(4,2,3,5)             65.6033         -DE/DX =    0.0                 !
 ! D4    D(4,2,3,8)            -57.7525         -DE/DX =    0.0                 !
 ! D5    D(4,2,3,9)           -173.0482         -DE/DX =    0.0                 !
 ! D6    D(6,2,3,5)           -172.9475         -DE/DX =    0.0                 !
 ! D7    D(6,2,3,8)             63.6966         -DE/DX =    0.0                 !
 ! D8    D(6,2,3,9)            -51.599          -DE/DX =    0.0                 !
 ! D9    D(7,2,3,5)            -56.9263         -DE/DX =    0.0                 !
 ! D10   D(7,2,3,8)            179.7179         -DE/DX =    0.0                 !
 ! D11   D(7,2,3,9)             64.4222         -DE/DX =    0.0                 !
 ! D12   D(3,2,4,10)            55.597          -DE/DX =    0.0                 !
 ! D13   D(3,2,4,11)           175.4564         -DE/DX =    0.0                 !
 ! D14   D(3,2,4,12)           -64.5312         -DE/DX =    0.0                 !
 ! D15   D(6,2,4,10)           -65.5116         -DE/DX =    0.0                 !
 ! D16   D(6,2,4,11)            54.3478         -DE/DX =    0.0                 !
 ! D17   D(6,2,4,12)           174.3602         -DE/DX =    0.0                 !
 ! D18   D(7,2,4,10)           177.6265         -DE/DX =    0.0                 !
 ! D19   D(7,2,4,11)           -62.5142         -DE/DX =    0.0                 !
 ! D20   D(7,2,4,12)            57.4983         -DE/DX =    0.0                 !
 ! D21   D(2,3,5,1)            172.0716         -DE/DX =    0.0                 !
 ! D22   D(2,3,5,13)           -40.7414         -DE/DX =    0.0                 !
 ! D23   D(8,3,5,1)            -65.4689         -DE/DX =    0.0                 !
 ! D24   D(8,3,5,13)            81.7182         -DE/DX =    0.0                 !
 ! D25   D(9,3,5,1)             50.4362         -DE/DX =    0.0                 !
 ! D26   D(9,3,5,13)          -162.3767         -DE/DX =    0.0                 !
 --------------------------------------------------------------------------------
 GradGradGradGradGradGradGradGradGradGradGradGradGradGradGradGradGradGrad

 Leave Link  103 at Tue Apr  9 01:24:10 2019, MaxMem=   671088640 cpu:               0.5 elap:               0.1
 (Enter /shared/centos7/gaussian/g16/l9999.exe)

 ----------------------------------------------------------------------

 Electric dipole moment (input orientation):
 (Debye = 10**-18 statcoulomb cm , SI units = C m)
                  (au)            (Debye)         (10**-30 SI)
   Tot        0.682622D+00      0.173505D+01      0.578751D+01
   x          0.659858D+00      0.167719D+01      0.559451D+01
   y         -0.162950D-01     -0.414178D-01     -0.138155D+00
   z          0.174055D+00      0.442403D+00      0.147570D+01

 Dipole polarizability, Alpha (input orientation).
 (esu units = cm**3 , SI units = C**2 m**2 J**-1)
 Alpha(0;0):
               (au)            (10**-24 esu)      (10**-40 SI)
   iso        0.546689D+02      0.810109D+01      0.901368D+01
   aniso      0.134289D+02      0.198996D+01      0.221413D+01
   xx         0.522360D+02      0.774058D+01      0.861256D+01
   yx        -0.579089D-01     -0.858121D-02     -0.954788D-02
   yy         0.496015D+02      0.735018D+01      0.817818D+01
   zx         0.112665D+01      0.166952D+00      0.185759D+00
   zy         0.386176D+01      0.572254D+00      0.636719D+00
   zz         0.621692D+02      0.921252D+01      0.102503D+02

 ----------------------------------------------------------------------

 Dipole orientation:
     8          1.25238421         -0.20358184         -0.15154892
     6         -3.61174188          2.45414177          4.35069973
     6         -1.37226646          0.81908254          3.53889810
     6         -6.12942051          1.53096309          3.29244157
     6         -0.87447609          0.91996487          0.77444121
     1         -3.70485719          2.46760245          6.41008800
     1         -3.27214076          4.40046273          3.75591697
     1         -1.71259523         -1.14196960          4.14835092
     1          0.32917684          1.44072152          4.54578399
     1         -6.45761983         -0.43898692          3.80584531
     1         -7.69460703          2.64657632          4.02896916
     1         -6.18803494          1.66303768          1.23883967
     1         -2.39060072          0.91021605         -0.59093129
     1          2.51707334         -0.28535068          1.14804420

 Electric dipole moment (dipole orientation):
 (Debye = 10**-18 statcoulomb cm , SI units = C m)
                  (au)            (Debye)         (10**-30 SI)
   Tot        0.682622D+00      0.173505D+01      0.578751D+01
   x          0.000000D+00      0.000000D+00      0.000000D+00
   y          0.000000D+00      0.000000D+00      0.000000D+00
   z          0.682622D+00      0.173505D+01      0.578751D+01

 Dipole polarizability, Alpha (dipole orientation).
 (esu units = cm**3 , SI units = C**2 m**2 J**-1)
 Alpha(0;0):
               (au)            (10**-24 esu)      (10**-40 SI)
   iso        0.546689D+02      0.810109D+01      0.901368D+01
   aniso      0.134289D+02      0.198996D+01      0.221413D+01
   xx         0.608226D+02      0.901299D+01      0.100283D+02
   yx        -0.403518D+01     -0.597952D+00     -0.665311D+00
   yy         0.497927D+02      0.737851D+01      0.820970D+01
   zx        -0.331997D+01     -0.491969D+00     -0.547390D+00
   zy         0.108070D+01      0.160143D+00      0.178183D+00
   zz         0.533914D+02      0.791178D+01      0.880305D+01

 ----------------------------------------------------------------------

 Test job not archived.
 1\1\GINC-C0263\Freq\UM062X\6-311+G(2df,2p)\C4H9O1(2)\UNDERKOFFLER.C\09
 -Apr-2019\0\\#P Geom=AllCheck Guess=TCheck SCRF=Check Test GenChk UM06
 2X/6-311+G(2df,2p) Freq\\Gaussian input prepared by ASE\\0,2\O,0.08978
 16217,-0.0935819666,-0.6636522607\C,1.761194649,1.2079857207,2.4655526
 351\C,1.6327337181,0.3751872022,1.1898034808\C,0.8705676653,0.70855363
 76,3.5989692261\C,0.2868985689,0.4683119843,0.5634367624\H,2.802178309
 6,1.1881851443,2.7912258452\H,1.5217866829,2.2482844131,2.2361689502\H
 ,1.879404177,-0.6730957512,1.4213527223\H,2.383818073,0.7078308339,0.4
 6317511\H,1.0696590844,-0.3431044044,3.8112416463\H,1.0466128577,1.274
 1096363,4.5130809425\H,-0.1865493014,0.8037837852,3.3535295131\H,-0.61
 65593738,0.4656512363,1.1546281681\H,0.9247145309,-0.1409438095,-1.136
 2584724\\Version=EM64L-G16RevA.03\State=2-A\HF=-232.9732449\S2=0.75447
 8\S2-1=0.\S2A=0.750016\RMSD=1.200e-09\RMSF=2.845e-07\ZeroPoint=0.12420
 89\Thermal=0.1310811\Dipole=0.6598577,-0.016295,0.1740546\DipoleDeriv=
 -0.3424851,-0.0025716,-0.1431044,-0.0678154,-0.4974404,-0.4095689,-0.2
 430314,-0.3071393,-1.1426757,0.1091706,-0.0108989,-0.0190309,0.0078519
 ,0.1105995,0.0167476,0.0049719,0.0035265,0.1580091,0.057097,-0.0745828
 ,-0.069618,0.0150619,0.1670263,-0.0604536,0.0082688,-0.1063487,-0.0048
 346,0.0401473,-0.0228977,0.0390574,-0.0208615,0.0691694,-0.0168583,0.0
 365695,-0.0000108,0.0010604,0.2228395,0.0782279,0.1628629,0.07683,-0.0
 482895,0.386947,0.1575863,0.3841676,0.8083201,-0.1489231,-0.0248221,-0
 .0470633,0.0088407,0.0577644,-0.0016826,-0.0464316,-0.0166571,-0.02357
 5,0.0478657,0.0525968,0.0227343,0.0084682,-0.1304874,0.0223346,0.01264
 82,0.0531771,-0.0041066,-0.0163547,0.036982,-0.0692012,0.0904812,-0.15
 81565,0.0236977,-0.0546962,0.0380964,0.0017598,-0.0553392,-0.0254737,0
 .0726513,-0.0430819,0.0476194,0.0342291,0.1014437,0.0138094,-0.1240832
 ,0.0386056,0.0472772,0.00514,0.0164184,-0.1255877,0.0672352,0.0202946,
 0.0105661,0.0446818,0.0572606,-0.0265875,-0.0207259,-0.020229,0.01525,
 -0.0933443,0.001155,-0.0718325,-0.1210249,-0.1248457,0.0009898,-0.0135
 158,0.0102543,0.0520351,0.0206607,-0.0569361,0.0241083,0.0452293,-0.04
 55586,-0.0080324,0.0447635,-0.0551732,0.1319088,-0.0079783,0.0375919,-
 0.0342119,-0.0087018,0.1605202,-0.020207,0.03505,-0.0270456,0.3085886,
 0.0180342,0.0205655,0.008749,0.3699412\Polar=52.2360195,-0.0579089,49.
 6014774,1.1266487,3.8617622,62.1691866\Quadrupole=-0.2543052,-0.614227
 7,0.868533,-0.6649894,-3.2191043,0.3186064\PG=C01 [X(C4H9O1)]\NImag=0\
 \0.51924528,0.00974381,0.08254806,-0.16585141,0.16289597,0.48062400,-0
 .00667499,-0.00126626,-0.00639371,0.56953253,0.00268341,0.00177006,0.0
 0289452,-0.02400205,0.55972374,-0.00047742,-0.00034567,0.00166428,0.03
 776885,-0.02528319,0.47312693,-0.00024851,0.00424952,0.00073629,-0.082
 11777,-0.00590936,-0.00692021,0.51795781,-0.02010439,0.00351690,-0.013
 12864,-0.00575394,-0.11434862,-0.05583500,0.01043748,0.50382782,-0.033
 48772,-0.00060812,-0.02740627,-0.00907917,-0.05237344,-0.15293250,-0.0
 3281820,-0.01790662,0.51327445,-0.00101474,0.00006424,0.00024902,-0.12
 378144,-0.02490326,0.05119248,0.00313632,0.00340983,0.00051863,0.54554
 984,-0.00030716,-0.00007369,-0.00040204,-0.02531929,-0.09453077,0.0327
 7262,0.01217426,0.00650179,-0.01399519,-0.01796245,0.56370063,0.000256
 06,0.00022975,0.00034527,0.05179434,0.02929633,-0.14244445,0.01827037,
 0.00805301,-0.02724512,0.04133626,0.02962235,0.52491385,-0.10518750,-0
 .02787974,-0.04788607,0.00265126,-0.00474430,-0.00715468,-0.21303615,0
 .02652623,-0.04100281,0.00260454,0.00043284,-0.00005903,0.62205289,-0.
 00634100,-0.07735107,-0.12496460,-0.01723603,-0.00045553,-0.00791885,0
 .00314652,-0.05526989,-0.00865155,-0.00017982,0.00027584,0.00023244,-0
 .00744431,0.15349898,-0.00648568,-0.13264605,-0.28800856,-0.02656407,-
 0.00058330,-0.01768130,-0.05033625,-0.00266952,-0.10106582,-0.00125619
 ,-0.00003972,0.00000982,-0.05876113,0.15237411,0.55894397,-0.00015106,
 -0.00036640,-0.00028706,-0.28743426,0.00720878,-0.07694008,-0.00134109
 ,0.00051554,-0.00008511,-0.01938846,0.00064774,-0.00409337,0.00144194,
 -0.00008799,-0.00017283,0.31221254,-0.00124188,0.00038790,-0.00102530,
 0.00870780,-0.05027014,0.00309927,-0.01957836,-0.00002837,-0.00768225,
 -0.01191937,0.00020282,-0.00299149,0.00189682,-0.00192941,-0.00213647,
 -0.00696849,0.05038599,-0.00206617,-0.00077484,-0.00205943,-0.07635651
 ,0.00224820,-0.06964216,-0.02762768,0.00094368,-0.01112557,0.02712684,
 -0.00084916,0.00634117,0.00269985,-0.00317466,-0.00350313,0.08038831,-
 0.00120560,0.08221882,-0.00007881,0.00040453,0.00050712,-0.06332343,0.
 05786362,-0.01364409,0.00053417,-0.00341874,0.00076892,0.00423707,-0.0
 2098672,0.00529954,0.00035926,-0.00104049,-0.00040924,-0.00686148,0.02
 992184,-0.00610060,0.06544733,-0.00024019,0.00060467,0.00006338,0.0562
 6230,-0.28353815,0.05259691,0.00392116,-0.01814068,0.00182266,0.001709
 76,-0.00942334,0.00286322,0.00063948,0.00046802,0.00097597,0.00081614,
 -0.00000231,0.00019134,-0.06125681,0.30947759,-0.00007998,0.00070340,0
 .00042532,-0.01336285,0.05359661,-0.05875761,0.00652502,-0.02905159,0.
 00424783,-0.00530587,0.02476893,-0.00648096,0.00085657,-0.00011718,0.0
 0073909,-0.00204048,0.00927981,-0.00266364,0.01155763,-0.05643049,0.06
 780704,0.00183062,-0.00467027,-0.00087652,0.00113933,-0.00344052,0.000
 97950,-0.05407411,0.05047818,-0.01021343,-0.00034278,0.00079084,-0.000
 07303,-0.01559182,0.03273976,-0.00794107,0.00002266,-0.00019382,0.0004
 7266,0.00053218,-0.00031824,-0.00099786,0.06217074,-0.00029294,0.00202
 661,0.00248252,0.00361057,-0.01960710,0.00294755,0.04088256,-0.2584394
 5,0.04669845,-0.00017571,0.00114317,0.00136716,0.00833305,-0.00144919,
 0.00025252,-0.00040906,0.00021811,0.00011200,-0.00052687,-0.00089344,-
 0.00330569,-0.05338095,0.28786962,0.00126621,-0.00261323,-0.00014765,0
 .00635090,-0.02802305,0.00355647,-0.00855582,0.05207229,-0.05679502,-0
 .00018496,-0.00104134,0.00221267,-0.00795393,0.01262102,-0.00219702,-0
 .00010462,0.00085234,0.00107523,-0.00019654,-0.00348859,-0.00453588,0.
 01347259,-0.05335136,0.06261673,0.00298707,0.00068269,-0.00063299,0.00
 256891,0.00172560,-0.00329337,-0.16033894,-0.05561167,0.11325702,0.000
 74603,-0.00024077,-0.00093168,-0.02829884,-0.00398674,0.02095278,0.000
 73101,0.00037788,-0.00007614,-0.00023104,0.00025220,0.00028691,0.00433
 344,0.00112304,-0.00372272,0.18132530,-0.00020337,-0.00086302,-0.00080
 767,0.01324021,0.00562693,-0.01318544,-0.05526828,-0.07074641,0.053552
 30,-0.00077728,-0.00206372,-0.00224645,0.00421259,0.00191646,-0.002826
 81,0.00005878,0.00068612,0.00089696,0.00038730,0.00039539,0.00070398,-
 0.02078607,-0.01125569,0.02139923,0.05889205,0.07510497,-0.00055217,0.
 00091436,0.00326070,0.01805370,0.00987450,-0.01900130,0.10960670,0.050
 55088,-0.15431312,-0.00186463,-0.00472995,-0.00387655,-0.00937117,-0.0
 0498848,0.00848885,-0.00036411,0.00083195,0.00062250,0.00012072,-0.000
 18332,0.00103587,0.00509022,0.00312996,-0.00528831,-0.12110426,-0.0562
 0514,0.17104293,0.00012572,-0.00013448,-0.00007040,0.00385509,-0.02071
 810,0.00459876,0.00077523,-0.00031058,-0.00101932,-0.05763479,0.050160
 80,-0.01045822,-0.00031277,0.00011387,0.00005001,0.00060113,-0.0000129
 4,-0.00090724,-0.00186801,-0.00130733,0.00348971,0.00007611,0.00051828
 ,-0.00012784,-0.00006992,-0.00002387,-0.00028933,0.05937815,0.00004971
 ,0.00014667,0.00025202,0.00167267,-0.01119719,0.00234459,0.00037295,0.
 00111833,-0.00085860,0.04966007,-0.29335195,0.04711225,-0.00003523,-0.
 00011352,0.00001038,-0.00037697,0.00015544,-0.00012336,-0.00190790,0.0
 0088284,0.00121392,0.00001549,0.00052409,0.00078507,-0.00009473,0.0003
 1474,-0.00015310,-0.05332338,0.31899103,0.00002463,-0.00000263,0.00001
 078,-0.00494086,0.02495416,-0.00668515,-0.00099022,0.00169197,0.001419
 09,-0.01047951,0.04648506,-0.05608027,-0.00009012,-0.00038463,0.000048
 59,-0.00023852,-0.00073042,0.00082790,0.00354378,0.00149731,-0.0034367
 2,0.00028280,-0.00085114,-0.00017058,0.00005953,-0.00027331,0.00040592
 ,0.00788031,-0.05406599,0.05990759,0.00059610,-0.00001291,-0.00023038,
 0.00292706,0.01221128,0.01737895,-0.00247933,-0.00215609,0.00295785,-0
 .05472150,-0.02455844,-0.03988190,-0.00099884,0.00013810,0.00015810,0.
 00067926,0.00073965,-0.00055660,0.00049999,-0.00010832,-0.00072387,-0.
 00002845,-0.00028114,-0.00020076,0.00015744,0.00041299,0.00126571,0.00
 012188,0.00344702,0.00628357,0.05737956,0.00006014,-0.00002795,0.00000
 068,0.00261984,0.00645250,0.01126562,-0.00121468,-0.00057758,0.0014850
 4,-0.02404041,-0.12243211,-0.11932839,-0.00014636,0.00013929,0.0000746
 2,0.00049856,0.00033594,-0.00061401,0.00063824,0.00034690,-0.00039455,
 -0.00022014,0.00038071,0.00019588,-0.00013884,0.00052696,0.00037418,-0
 .00629660,-0.01548312,-0.02638738,0.02783024,0.12902119,-0.00024003,-0
 .00019980,-0.00048998,-0.00480464,-0.01323321,-0.01925430,0.00353334,0
 .00327693,-0.00224757,-0.03884709,-0.11848452,-0.23467256,0.00061357,0
 .00017199,0.00058033,0.00011011,-0.00030968,0.00114586,-0.00059047,0.0
 0035335,0.00031936,0.00000251,0.00002188,0.00023521,-0.00022242,-0.000
 81548,-0.00132163,0.00165944,0.00340053,0.00628232,0.04014206,0.129322
 87,0.25554167,0.00083285,-0.00000877,-0.00038619,-0.01825504,0.0014845
 5,-0.00441221,-0.00002445,-0.00023035,-0.00061127,-0.29874648,0.024893
 07,-0.06175175,-0.00136309,0.00017336,0.00042396,-0.00064742,-0.001550
 31,0.00343878,0.00077191,-0.00020961,-0.00013353,0.00004169,-0.0000354
 1,0.00013022,0.00017121,-0.00001768,0.00013097,-0.00505055,0.00055037,
 -0.00130266,-0.00461862,0.00037481,-0.00141465,0.32571713,-0.00001303,
 -0.00020355,-0.00001005,-0.01247980,0.00035163,-0.00339813,0.00091281,
 -0.00000493,-0.00001858,0.02534485,-0.05006008,0.00587672,0.00010593,0
 .00013042,-0.00022919,-0.00169731,0.00000189,0.00227485,-0.00001295,0.
 00028150,-0.00077861,0.00004999,0.00003122,0.00002284,-0.00006925,-0.0
 0002239,-0.00006936,0.03115434,-0.00183568,0.00785695,-0.01765465,0.00
 141005,-0.00351844,-0.02545263,0.04942556,-0.00021154,0.00043342,0.000
 52010,0.02600501,-0.00272083,0.00709479,-0.00033420,-0.00036906,0.0014
 4039,-0.06292481,0.00584013,-0.06226526,-0.00027882,-0.00047913,-0.000
 81873,0.00352171,0.00177002,-0.00371610,-0.00096041,-0.00035134,0.0011
 8200,-0.00002774,-0.00004020,-0.00012768,-0.00024772,0.00011361,0.0000
 9926,-0.00487117,-0.00001984,-0.00252550,-0.02641451,0.00402625,-0.006
 35875,0.06697892,-0.00777105,0.06773447,0.00860860,-0.00061502,-0.0043
 9865,0.00003285,0.00059583,0.00106904,-0.01297244,-0.00408116,0.015152
 82,-0.00065738,0.00014818,0.00027509,-0.26809364,0.00174720,0.13470621
 ,0.00022964,-0.00010719,-0.00020201,-0.00007231,-0.00029198,-0.0002219
 3,0.00016548,0.00025267,0.00006113,-0.00375385,0.00098784,-0.00224012,
 -0.00002012,-0.00004392,-0.00002491,0.00058946,0.00003134,0.00004564,0
 .00126367,-0.00016252,-0.00034762,0.27288619,0.01453112,-0.00055283,-0
 .01037763,-0.00005021,0.00052226,0.00060404,0.00599022,0.00239370,-0.0
 0096214,-0.00030295,-0.00000064,-0.00012947,-0.02011758,-0.01706741,0.
 00005090,0.00012788,-0.00015093,0.00003224,-0.00009801,-0.00031783,-0.
 00002840,-0.00138259,0.00003953,-0.00035321,-0.00158585,0.00026981,0.0
 0048336,0.00018264,-0.00012372,0.00019188,0.00005028,-0.00008960,-0.00
 004373,0.00007938,0.00048278,-0.00043871,0.00280807,0.01333391,0.02709
 600,-0.00283531,-0.02559345,0.00105830,0.00008185,0.00095550,-0.011567
 88,-0.00006825,0.01026236,0.00009172,-0.00020557,-0.00091714,0.1291869
 5,-0.00952726,-0.12862069,0.00021739,0.00006582,0.00010680,0.00012646,
 -0.00011073,0.00000417,0.00025958,0.00030520,0.00010604,-0.00278918,0.
 00016175,-0.00088437,0.00009019,0.00012977,0.00004546,0.00001870,0.000
 00144,0.00005677,-0.00087152,-0.00023652,-0.00225938,-0.14148725,0.014
 48356,0.15128317,-0.42087062,0.01980906,0.22552094,-0.00112009,-0.0000
 5549,-0.00014552,0.00422928,0.00029967,-0.00433822,0.00001376,0.000127
 11,0.00001733,0.00377275,-0.00174244,-0.00436460,-0.00009441,-0.000071
 62,-0.00023350,0.00005318,0.00013144,0.00015052,-0.00027510,0.00038190
 ,-0.00023387,-0.00032782,-0.00111521,0.00151777,0.00002285,0.00001385,
 -0.00000781,-0.00010402,0.00000386,0.00001262,-0.00009281,-0.00002579,
 0.00011291,0.00179386,-0.00023240,-0.00142947,0.41299918,0.00167577,-0
 .01192878,-0.01787317,-0.00000582,-0.00049962,0.00033568,-0.00011681,0
 .00019739,-0.00050195,0.00007250,0.00011204,0.00004256,0.01822058,-0.0
 0279300,-0.01260745,0.00003280,0.00000696,0.00004236,0.00003295,-0.000
 14116,-0.00016014,0.00031836,-0.00058821,0.00092212,-0.00132561,0.0001
 0983,0.00017017,-0.00000263,-0.00002799,0.00001818,-0.00005802,-0.0000
 0319,0.00005731,-0.00005078,0.00001158,0.00000673,-0.00126935,0.001260
 95,-0.00224575,-0.01752393,0.01428319,0.18080922,-0.02515125,-0.143145
 10,0.00047069,-0.00072916,0.00000080,0.00047873,0.00243992,0.00248689,
 0.00034810,0.00025840,0.00015952,0.03920083,-0.00519322,-0.02691541,0.
 00008865,0.00018199,0.00037174,-0.00002281,0.00020034,0.00011414,-0.00
 043021,0.00023112,-0.00054021,-0.00153577,-0.00046752,-0.00027074,-0.0
 0002490,-0.00002763,-0.00004943,-0.00019692,-0.00002224,0.00018328,-0.
 00021906,-0.00000143,0.00000040,-0.00238745,-0.00351268,-0.00454524,-0
 .21657910,0.03179335,0.17214936\\-0.00000023,-0.00000006,0.00000011,0.
 00000022,-0.00000014,-0.00000009,-0.00000007,-0.00000031,0.00000003,0.
 00000003,0.00000036,-0.00000003,-0.00000003,0.00000010,0.00000004,0.00
 000020,-0.00000046,-0.00000008,0.00000059,-0.00000009,-0.00000026,-0.0
 0000045,-0.00000033,0.00000020,0.00000006,-0.00000067,-0.00000001,-0.0
 0000035,0.00000033,0.00000014,0.00000023,0.00000044,-0.00000010,0.0000
 0007,0.00000071,-0.00000004,-0.00000003,0.00000052,0.,-0.00000024,-0.0
 0000040,0.00000010\\\@


 TO DRY ONE'S EYES AND LAUGH AT A FALL
 AND BAFFLED, GET UP AND BEGIN AGAIN.
           R. BROWNING
 Job cpu time:       0 days  3 hours  4 minutes 43.6 seconds.
 Elapsed time:       0 days  0 hours  9 minutes 14.9 seconds.
 File lengths (MBytes):  RWF=   1376 Int=      0 D2E=      0 Chk=     32 Scr=     32
 Normal termination of Gaussian 16 at Tue Apr  9 01:24:10 2019.
