 Entering Gaussian System, Link 0=g16
 Input=DHVSQGCGLGSLDF-UHFFFAOYSA-N_36by10.0_tor13_a3_F.com
 Output=DHVSQGCGLGSLDF-UHFFFAOYSA-N_36by10.0_tor13_a3_F.log
 Initial command:
 /shared/centos7/gaussian/g16/l1.exe "/scratch/underkoffler.c/gaussian_scratch/Gau-39672.inp" -scrdir="/scratch/underkoffler.c/gaussian_scratch/"
 Entering Link 1 = /shared/centos7/gaussian/g16/l1.exe PID=     39673.
  
 Copyright (c) 1988,1990,1992,1993,1995,1998,2003,2009,2016,
            Gaussian, Inc.  All Rights Reserved.
  
 This is part of the Gaussian(R) 16 program.  It is based on
 the Gaussian(R) 09 system (copyright 2009, Gaussian, Inc.),
 the Gaussian(R) 03 system (copyright 2003, Gaussian, Inc.),
 the Gaussian(R) 98 system (copyright 1998, Gaussian, Inc.),
 the Gaussian(R) 94 system (copyright 1995, Gaussian, Inc.),
 the Gaussian 92(TM) system (copyright 1992, Gaussian, Inc.),
 the Gaussian 90(TM) system (copyright 1990, Gaussian, Inc.),
 the Gaussian 88(TM) system (copyright 1988, Gaussian, Inc.),
 the Gaussian 86(TM) system (copyright 1986, Carnegie Mellon
 University), and the Gaussian 82(TM) system (copyright 1983,
 Carnegie Mellon University). Gaussian is a federally registered
 trademark of Gaussian, Inc.
  
 This software contains proprietary and confidential information,
 including trade secrets, belonging to Gaussian, Inc.
  
 This software is provided under written license and may be
 used, copied, transmitted, or stored only in accord with that
 written license.
  
 The following legend is applicable only to US Government
 contracts under FAR:
  
                    RESTRICTED RIGHTS LEGEND
  
 Use, reproduction and disclosure by the US Government is
 subject to restrictions as set forth in subparagraphs (a)
 and (c) of the Commercial Computer Software - Restricted
 Rights clause in FAR 52.227-19.
  
 Gaussian, Inc.
 340 Quinnipiac St., Bldg. 40, Wallingford CT 06492
  
  
 ---------------------------------------------------------------
 Warning -- This program may not be used in any manner that
 competes with the business of Gaussian, Inc. or will provide
 assistance to any competitor of Gaussian, Inc.  The licensee
 of this program is prohibited from giving any competitor of
 Gaussian, Inc. access to this program.  By using this program,
 the user acknowledges that Gaussian, Inc. is engaged in the
 business of creating and licensing software in the field of
 computational chemistry and represents and warrants to the
 licensee that it is not a competitor of Gaussian, Inc. and that
 it will not use this program in any manner prohibited above.
 ---------------------------------------------------------------
  

 Cite this work as:
 Gaussian 16, Revision A.03,
 M. J. Frisch, G. W. Trucks, H. B. Schlegel, G. E. Scuseria, 
 M. A. Robb, J. R. Cheeseman, G. Scalmani, V. Barone, 
 G. A. Petersson, H. Nakatsuji, X. Li, M. Caricato, A. V. Marenich, 
 J. Bloino, B. G. Janesko, R. Gomperts, B. Mennucci, H. P. Hratchian, 
 J. V. Ortiz, A. F. Izmaylov, J. L. Sonnenberg, D. Williams-Young, 
 F. Ding, F. Lipparini, F. Egidi, J. Goings, B. Peng, A. Petrone, 
 T. Henderson, D. Ranasinghe, V. G. Zakrzewski, J. Gao, N. Rega, 
 G. Zheng, W. Liang, M. Hada, M. Ehara, K. Toyota, R. Fukuda, 
 J. Hasegawa, M. Ishida, T. Nakajima, Y. Honda, O. Kitao, H. Nakai, 
 T. Vreven, K. Throssell, J. A. Montgomery, Jr., J. E. Peralta, 
 F. Ogliaro, M. J. Bearpark, J. J. Heyd, E. N. Brothers, K. N. Kudin, 
 V. N. Staroverov, T. A. Keith, R. Kobayashi, J. Normand, 
 K. Raghavachari, A. P. Rendell, J. C. Burant, S. S. Iyengar, 
 J. Tomasi, M. Cossi, J. M. Millam, M. Klene, C. Adamo, R. Cammi, 
 J. W. Ochterski, R. L. Martin, K. Morokuma, O. Farkas, 
 J. B. Foresman, and D. J. Fox, Gaussian, Inc., Wallingford CT, 2016.
 
 ******************************************
 Gaussian 16:  EM64L-G16RevA.03 25-Dec-2016
                12-Apr-2019 
 ******************************************
 %nprocshared=20
 Will use up to   20 processors via shared memory.
 %mem=5GB
 ----------------------------------------------
 #p m062x/6-311+g(2df,2p) Opt=(CalcFC,ModRedun)
 ----------------------------------------------
 1/10=4,18=120,19=15,26=3,38=1/1,3;
 2/9=110,12=2,17=6,18=5,40=1/2;
 3/5=4,6=6,7=214,11=2,25=1,30=1,71=2,74=-55,140=1/1,2,3;
 4//1;
 5/5=2,38=5/2;
 8/6=4,10=90,11=11/1;
 11/6=1,8=1,9=11,15=111,16=1/1,2,10;
 10/6=1,13=1/2;
 6/7=2,8=2,9=2,10=2,28=1/1;
 7/10=1,18=20,25=1/1,2,3,16;
 1/10=4,18=20,19=15,26=3/3(2);
 2/9=110/2;
 99//99;
 2/9=110/2;
 3/5=4,6=6,7=214,11=2,25=1,30=1,71=1,74=-55/1,2,3;
 4/5=5,16=3,69=1/1;
 5/5=2,38=5/2;
 7//1,2,3,16;
 1/18=20,19=15,26=3/3(-5);
 2/9=110/2;
 6/7=2,8=2,9=2,10=2,19=2,28=1/1;
 99/9=1/99;
 Leave Link    1 at Fri Apr 12 17:45:01 2019, MaxMem=   671088640 cpu:              28.9 elap:               1.5
 (Enter /shared/centos7/gaussian/g16/l101.exe)
 ----------------------------------------
 Gaussian Input Prepared from Scan Object
 ----------------------------------------
 Symbolic Z-matrix:
 Charge =  0 Multiplicity = 2
 O                    -1.69272  -0.65279   0.40986 
 C                     1.07611   0.27945   0.59582 
 C                    -0.07195   1.04383  -0.07449 
 C                     1.76075  -0.69893  -0.351 
 C                    -1.15853   0.15455  -0.55595 
 H                     1.8012    1.00148   0.9749 
 H                     0.68352  -0.257     1.46069 
 H                    -0.47339   1.77604   0.63988 
 H                     0.30773   1.61122  -0.92685 
 H                     2.14709  -0.18208  -1.23135 
 H                     2.59478  -1.20334   0.13562 
 H                     1.05887  -1.45864  -0.69484 
 H                    -1.8152    0.44925  -1.36537 
 H                    -2.42003  -1.16283   0.0497 
 
 The following ModRedundant input section has been read:
 B       4      12 B                                                           
 B       2       6 B                                                           
 B       2       3 B                                                           
 B       2       7 B                                                           
 B       3       5 B                                                           
 B       3       8 B                                                           
 B       1       5 B                                                           
 B       3       9 B                                                           
 B       4      10 B                                                           
 B       5      13 B                                                           
 B       4      11 B                                                           
 B       2       4 B                                                           
 B       1      14 B                                                           
 D       7       2       4      11 S  36 10.000                                
 D      14       1       5      13 F                                           
 D       4       2       3       8 F                                           
 D       8       3       5      13 F                                           
 
 ITRead=  0  0  0  0  0  0  0  0  0  0  0  0  0  0
 MicOpt= -1 -1 -1 -1 -1 -1 -1 -1 -1 -1 -1 -1 -1 -1
 NAtoms=     14 NQM=       14 NQMF=       0 NMMI=      0 NMMIF=      0
                NMic=       0 NMicF=      0.
                    Isotopes and Nuclear Properties:
 (Nuclear quadrupole moments (NQMom) in fm**2, nuclear magnetic moments (NMagM)
  in nuclear magnetons)

  Atom         1           2           3           4           5           6           7           8           9          10
 IAtWgt=          16          12          12          12          12           1           1           1           1           1
 AtmWgt=  15.9949146  12.0000000  12.0000000  12.0000000  12.0000000   1.0078250   1.0078250   1.0078250   1.0078250   1.0078250
 NucSpn=           0           0           0           0           0           1           1           1           1           1
 AtZEff=  -0.0000000  -0.0000000  -0.0000000  -0.0000000  -0.0000000  -0.0000000  -0.0000000  -0.0000000  -0.0000000  -0.0000000
 NQMom=    0.0000000   0.0000000   0.0000000   0.0000000   0.0000000   0.0000000   0.0000000   0.0000000   0.0000000   0.0000000
 NMagM=    0.0000000   0.0000000   0.0000000   0.0000000   0.0000000   2.7928460   2.7928460   2.7928460   2.7928460   2.7928460
 AtZNuc=   8.0000000   6.0000000   6.0000000   6.0000000   6.0000000   1.0000000   1.0000000   1.0000000   1.0000000   1.0000000

  Atom        11          12          13          14
 IAtWgt=           1           1           1           1
 AtmWgt=   1.0078250   1.0078250   1.0078250   1.0078250
 NucSpn=           1           1           1           1
 AtZEff=  -0.0000000  -0.0000000  -0.0000000  -0.0000000
 NQMom=    0.0000000   0.0000000   0.0000000   0.0000000
 NMagM=    2.7928460   2.7928460   2.7928460   2.7928460
 AtZNuc=   1.0000000   1.0000000   1.0000000   1.0000000
 Leave Link  101 at Fri Apr 12 17:45:01 2019, MaxMem=   671088640 cpu:               5.3 elap:               0.3
 (Enter /shared/centos7/gaussian/g16/l103.exe)

 GradGradGradGradGradGradGradGradGradGradGradGradGradGradGradGradGradGrad
 Berny optimization.
 Initialization pass.
                           ----------------------------
                           !    Initial Parameters    !
                           ! (Angstroms and Degrees)  !
 --------------------------                            --------------------------
 ! Name  Definition              Value          Derivative Info.                !
 --------------------------------------------------------------------------------
 ! R1    R(1,5)                  1.3675         calculate D2E/DX2 analytically  !
 ! R2    R(1,14)                 0.9586         calculate D2E/DX2 analytically  !
 ! R3    R(2,3)                  1.5335         calculate D2E/DX2 analytically  !
 ! R4    R(2,4)                  1.5239         calculate D2E/DX2 analytically  !
 ! R5    R(2,6)                  1.0912         calculate D2E/DX2 analytically  !
 ! R6    R(2,7)                  1.0908         calculate D2E/DX2 analytically  !
 ! R7    R(3,5)                  1.4843         calculate D2E/DX2 analytically  !
 ! R8    R(3,8)                  1.0989         calculate D2E/DX2 analytically  !
 ! R9    R(3,9)                  1.0921         calculate D2E/DX2 analytically  !
 ! R10   R(4,10)                 1.0915         calculate D2E/DX2 analytically  !
 ! R11   R(4,11)                 1.0894         calculate D2E/DX2 analytically  !
 ! R12   R(4,12)                 1.09           calculate D2E/DX2 analytically  !
 ! R13   R(5,13)                 1.0831         calculate D2E/DX2 analytically  !
 ! A1    A(5,1,14)             110.1919         calculate D2E/DX2 analytically  !
 ! A2    A(3,2,4)              112.6293         calculate D2E/DX2 analytically  !
 ! A3    A(3,2,6)              108.6324         calculate D2E/DX2 analytically  !
 ! A4    A(3,2,7)              108.7993         calculate D2E/DX2 analytically  !
 ! A5    A(4,2,6)              110.0053         calculate D2E/DX2 analytically  !
 ! A6    A(4,2,7)              109.7894         calculate D2E/DX2 analytically  !
 ! A7    A(6,2,7)              106.8042         calculate D2E/DX2 analytically  !
 ! A8    A(2,3,5)              113.0285         calculate D2E/DX2 analytically  !
 ! A9    A(2,3,8)              108.7509         calculate D2E/DX2 analytically  !
 ! A10   A(2,3,9)              109.8681         calculate D2E/DX2 analytically  !
 ! A11   A(5,3,8)              110.0374         calculate D2E/DX2 analytically  !
 ! A12   A(5,3,9)              108.2169         calculate D2E/DX2 analytically  !
 ! A13   A(8,3,9)              106.75           calculate D2E/DX2 analytically  !
 ! A14   A(2,4,10)             110.8616         calculate D2E/DX2 analytically  !
 ! A15   A(2,4,11)             111.3253         calculate D2E/DX2 analytically  !
 ! A16   A(2,4,12)             110.7428         calculate D2E/DX2 analytically  !
 ! A17   A(10,4,11)            107.9709         calculate D2E/DX2 analytically  !
 ! A18   A(10,4,12)            107.6703         calculate D2E/DX2 analytically  !
 ! A19   A(11,4,12)            108.1306         calculate D2E/DX2 analytically  !
 ! A20   A(1,5,3)              114.2413         calculate D2E/DX2 analytically  !
 ! A21   A(1,5,13)             116.8459         calculate D2E/DX2 analytically  !
 ! A22   A(3,5,13)             121.5459         calculate D2E/DX2 analytically  !
 ! D1    D(14,1,5,3)           176.6916         calculate D2E/DX2 analytically  !
 ! D2    D(14,1,5,13)           26.1176         frozen, calculate D2E/DX2 analyt!
 ! D3    D(4,2,3,5)             61.3099         calculate D2E/DX2 analytically  !
 ! D4    D(4,2,3,8)           -176.1788         frozen, calculate D2E/DX2 analyt!
 ! D5    D(4,2,3,9)            -59.6732         calculate D2E/DX2 analytically  !
 ! D6    D(6,2,3,5)           -176.57           calculate D2E/DX2 analytically  !
 ! D7    D(6,2,3,8)            -54.0587         calculate D2E/DX2 analytically  !
 ! D8    D(6,2,3,9)             62.4468         calculate D2E/DX2 analytically  !
 ! D9    D(7,2,3,5)            -60.6535         calculate D2E/DX2 analytically  !
 ! D10   D(7,2,3,8)             61.8578         calculate D2E/DX2 analytically  !
 ! D11   D(7,2,3,9)            178.3633         calculate D2E/DX2 analytically  !
 ! D12   D(3,2,4,10)            57.7217         calculate D2E/DX2 analytically  !
 ! D13   D(3,2,4,11)           177.9353         calculate D2E/DX2 analytically  !
 ! D14   D(3,2,4,12)           -61.7293         calculate D2E/DX2 analytically  !
 ! D15   D(6,2,4,10)           -63.6199         calculate D2E/DX2 analytically  !
 ! D16   D(6,2,4,11)            56.5937         calculate D2E/DX2 analytically  !
 ! D17   D(6,2,4,12)           176.9291         calculate D2E/DX2 analytically  !
 ! D18   D(7,2,4,10)           179.1235         calculate D2E/DX2 analytically  !
 ! D19   D(7,2,4,11)           -60.6629         Scan                            !
 ! D20   D(7,2,4,12)            59.6726         calculate D2E/DX2 analytically  !
 ! D21   D(2,3,5,1)             55.8424         calculate D2E/DX2 analytically  !
 ! D22   D(2,3,5,13)          -155.1123         calculate D2E/DX2 analytically  !
 ! D23   D(8,3,5,1)            -65.9483         calculate D2E/DX2 analytically  !
 ! D24   D(8,3,5,13)            83.097          frozen, calculate D2E/DX2 analyt!
 ! D25   D(9,3,5,1)            177.7575         calculate D2E/DX2 analytically  !
 ! D26   D(9,3,5,13)           -33.1972         calculate D2E/DX2 analytically  !
 --------------------------------------------------------------------------------
 Trust Radius=3.00D-01 FncErr=1.00D-07 GrdErr=1.00D-06 EigMax=2.50D+02 EigMin=1.00D-04
 Number of optimizations in scan=  37
 Number of steps in this run=     71 maximum allowed number of steps=    100.
 GradGradGradGradGradGradGradGradGradGradGradGradGradGradGradGradGradGrad

 Leave Link  103 at Fri Apr 12 17:45:01 2019, MaxMem=   671088640 cpu:               0.2 elap:               0.0
 (Enter /shared/centos7/gaussian/g16/l202.exe)
                          Input orientation:                          
 ---------------------------------------------------------------------
 Center     Atomic      Atomic             Coordinates (Angstroms)
 Number     Number       Type             X           Y           Z
 ---------------------------------------------------------------------
      1          8           0       -1.692718   -0.652790    0.409862
      2          6           0        1.076112    0.279447    0.595817
      3          6           0       -0.071953    1.043826   -0.074494
      4          6           0        1.760748   -0.698930   -0.351002
      5          6           0       -1.158531    0.154550   -0.555952
      6          1           0        1.801202    1.001478    0.974899
      7          1           0        0.683524   -0.256997    1.460692
      8          1           0       -0.473387    1.776040    0.639876
      9          1           0        0.307727    1.611223   -0.926853
     10          1           0        2.147091   -0.182080   -1.231353
     11          1           0        2.594777   -1.203337    0.135625
     12          1           0        1.058868   -1.458636   -0.694838
     13          1           0       -1.815199    0.449247   -1.365366
     14          1           0       -2.420030   -1.162828    0.049696
 ---------------------------------------------------------------------
                    Distance matrix (angstroms):
                    1          2          3          4          5
     1  O    0.000000
     2  C    2.927468   0.000000
     3  C    2.395827   1.533508   0.000000
     4  C    3.536591   1.523946   2.544101   0.000000
     5  C    1.367461   2.517102   1.484340   3.048381   0.000000
     6  H    3.906834   1.091232   2.147494   2.156626   3.438141
     7  H    2.628198   1.090828   2.149345   2.153590   2.762135
     8  H    2.727433   2.154688   1.098914   3.478315   2.128064
     9  H    3.303686   2.163924   1.092068   2.789209   2.099852
    10  H    4.202296   2.167614   2.786633   1.091519   3.390667
    11  H    4.331389   2.171812   3.493615   1.089420   4.050859
    12  H    3.072617   2.164953   2.815298   1.089961   2.745636
    13  H    2.093065   3.497821   2.249173   3.890327   1.083148
    14  H    0.958561   3.821180   3.224626   4.225478   1.921893
                    6          7          8          9         10
     6  H    0.000000
     7  H    1.751844   0.000000
     8  H    2.426096   2.478996   0.000000
     9  H    2.493776   3.054806   1.758392   0.000000
    10  H    2.527449   3.065085   3.768639   2.586874   0.000000
    11  H    2.489046   2.510827   4.306343   3.779049   1.764091
    12  H    3.064514   2.496223   3.820000   3.168924   1.761157
    13  H    4.342828   3.837838   2.753513   2.459531   4.014507
    14  H    4.833117   3.527532   3.574168   4.011192   4.843712
                   11         12         13         14
    11  H    0.000000
    12  H    1.764614   0.000000
    13  H    4.942863   3.514240   0.000000
    14  H    5.015707   3.569953   2.228679   0.000000
 Stoichiometry    C4H9O(2)
 Framework group  C1[X(C4H9O)]
 Deg. of freedom    36
 Full point group                 C1      NOp   1
 Largest Abelian subgroup         C1      NOp   1
 Largest concise Abelian subgroup C1      NOp   1
                         Standard orientation:                         
 ---------------------------------------------------------------------
 Center     Atomic      Atomic             Coordinates (Angstroms)
 Number     Number       Type             X           Y           Z
 ---------------------------------------------------------------------
      1          8           0        1.691898   -0.654767   -0.408984
      2          6           0       -1.076217    0.279377   -0.596024
      3          6           0        0.072217    1.043190    0.074301
      4          6           0       -1.761802   -0.698152    0.350983
      5          6           0        1.158033    0.153320    0.556382
      6          1           0       -1.800691    1.001782   -0.975572
      7          1           0       -0.683783   -0.257675   -1.460593
      8          1           0        0.474363    1.774846   -0.640240
      9          1           0       -0.307282    1.611181    0.926344
     10          1           0       -2.148007   -0.180693    1.231037
     11          1           0       -2.596062   -1.202148   -0.135673
     12          1           0       -1.060555   -1.458229    0.695293
     13          1           0        1.814696    0.447855    1.365859
     14          1           0        2.418750   -1.165188   -0.048433
 ---------------------------------------------------------------------
 Rotational constants (GHZ):           8.4948289           3.1738172           2.8419906
 Leave Link  202 at Fri Apr 12 17:45:01 2019, MaxMem=   671088640 cpu:               0.2 elap:               0.0
 (Enter /shared/centos7/gaussian/g16/l301.exe)
 Standard basis: 6-311+G(2df,2p) (5D, 7F)
 Ernie: Thresh=  0.10000D-02 Tol=  0.10000D-05 Strict=F.
 There are   276 symmetry adapted cartesian basis functions of A   symmetry.
 There are   251 symmetry adapted basis functions of A   symmetry.
   251 basis functions,   359 primitive gaussians,   276 cartesian basis functions
    21 alpha electrons       20 beta electrons
       nuclear repulsion energy       183.1052843314 Hartrees.
 IExCor= 4336 DFT=T Ex+Corr=M062X ExCW=0 ScaHFX=  0.540000
 ScaDFX=  1.000000  1.000000  1.000000  1.000000 ScalE2=  1.000000  1.000000
 IRadAn=      5 IRanWt=     -1 IRanGd=            0 ICorTp=0 IEmpDi=  4
 NAtoms=   14 NActive=   14 NUniq=   14 SFac= 1.00D+00 NAtFMM=   60 NAOKFM=F Big=F
 Integral buffers will be    131072 words long.
 Raffenetti 2 integral format.
 Two-electron integral symmetry is turned on.
 Leave Link  301 at Fri Apr 12 17:45:01 2019, MaxMem=   671088640 cpu:               1.0 elap:               0.1
 (Enter /shared/centos7/gaussian/g16/l302.exe)
 NPDir=0 NMtPBC=     1 NCelOv=     1 NCel=       1 NClECP=     1 NCelD=      1
         NCelK=      1 NCelE2=     1 NClLst=     1 CellRange=     0.0.
 One-electron integrals computed using PRISM.
 One-electron integral symmetry used in STVInt
 NBasis=   251 RedAO= T EigKep=  4.26D-05  NBF=   251
 NBsUse=   251 1.00D-06 EigRej= -1.00D+00 NBFU=   251
 Precomputing XC quadrature grid using
 IXCGrd= 4 IRadAn=           5 IRanWt=          -1 IRanGd=           0 AccXCQ= 0.00D+00.
 Generated NRdTot=       0 NPtTot=           0 NUsed=           0 NTot=          32
 NSgBfM=   276   276   276   276   276 MxSgAt=    14 MxSgA2=    14.
 Leave Link  302 at Fri Apr 12 17:45:02 2019, MaxMem=   671088640 cpu:               8.2 elap:               0.4
 (Enter /shared/centos7/gaussian/g16/l303.exe)
 DipDrv:  MaxL=1.
 Leave Link  303 at Fri Apr 12 17:45:02 2019, MaxMem=   671088640 cpu:               0.5 elap:               0.0
 (Enter /shared/centos7/gaussian/g16/l401.exe)
 ExpMin= 4.38D-02 ExpMax= 8.59D+03 ExpMxC= 1.30D+03 IAcc=3 IRadAn=         5 AccDes= 0.00D+00
 Harris functional with IExCor= 1009 and IRadAn=       5 diagonalized for initial guess.
 HarFok:  IExCor= 1009 AccDes= 0.00D+00 IRadAn=         5 IDoV= 1 UseB2=F ITyADJ=14
 ICtDFT=  3500011 ScaDFX=  1.000000  1.000000  1.000000  1.000000
 FoFCou: FMM=F IPFlag=           0 FMFlag=      100000 FMFlg1=           0
         NFxFlg=           0 DoJE=T BraDBF=F KetDBF=T FulRan=T
         wScrn=  0.000000 ICntrl=       500 IOpCl=  0 I1Cent=   200000004 NGrid=           0
         NMat0=    1 NMatS0=      1 NMatT0=    0 NMatD0=    1 NMtDS0=    0 NMtDT0=    0
 Petite list used in FoFCou.
 Harris En= -232.914763535506    
 JPrj=0 DoOrth=F DoCkMO=F.
 Initial guess <Sx>= 0.0000 <Sy>= 0.0000 <Sz>= 0.5000 <S**2>= 0.7500 S= 0.5000
 Leave Link  401 at Fri Apr 12 17:45:03 2019, MaxMem=   671088640 cpu:              16.6 elap:               0.9
 (Enter /shared/centos7/gaussian/g16/l502.exe)
 Integral symmetry usage will be decided dynamically.
 UHF open shell SCF:
 Using DIIS extrapolation, IDIIS=  1040.
 NGot=   671088640 LenX=   670928170 LenY=   670851553
 Requested convergence on RMS density matrix=1.00D-08 within 128 cycles.
 Requested convergence on MAX density matrix=1.00D-06.
 Requested convergence on             energy=1.00D-06.
 No special actions if energy rises.
 Fock matrices will be formed incrementally for  20 cycles.

 Cycle   1  Pass 1  IDiag  1:
 FoFJK:  IHMeth= 1 ICntrl=       0 DoSepK=F KAlg= 0 I1Cent=           0 FoldK=F
 IRaf= 980000000 NMat=       1 IRICut=       1 DoRegI=T DoRafI=F ISym2E= 0 IDoP0=0 IntGTp=1.
 FoFCou: FMM=F IPFlag=           0 FMFlag=      100000 FMFlg1=           0
         NFxFlg=           0 DoJE=F BraDBF=F KetDBF=F FulRan=T
         wScrn=  0.000000 ICntrl=         0 IOpCl=  1 I1Cent=           0 NGrid=           0
         NMat0=    1 NMatS0=      1 NMatT0=    0 NMatD0=    1 NMtDS0=    0 NMtDT0=    0
 Symmetry not used in FoFCou.
 E= -232.766332727866    
 DIIS: error= 2.13D-02 at cycle   1 NSaved=   1.
 NSaved= 1 IEnMin= 1 EnMin= -232.766332727866     IErMin= 1 ErrMin= 2.13D-02
 ErrMax= 2.13D-02  0.00D+00 EMaxC= 1.00D-01 BMatC= 9.66D-01 BMatP= 9.66D-01
 IDIUse=3 WtCom= 7.87D-01 WtEn= 2.13D-01
 Coeff-Com:  0.100D+01
 Coeff-En:   0.100D+01
 Coeff:      0.100D+01
 Gap=     0.195 Goal=   None    Shift=    0.000
 Gap=     0.407 Goal=   None    Shift=    0.000
 GapD=    0.195 DampG=1.000 DampE=0.500 DampFc=0.5000 IDamp=-1.
 Damping current iteration by 5.00D-01
 RMSDP=4.48D-03 MaxDP=4.01D-01              OVMax= 1.58D-01

 Cycle   2  Pass 1  IDiag  1:
 RMSU=  2.24D-03    CP:  1.00D+00
 E= -232.869355760604     Delta-E=       -0.103023032738 Rises=F Damp=T
 DIIS: error= 5.91D-03 at cycle   2 NSaved=   2.
 NSaved= 2 IEnMin= 2 EnMin= -232.869355760604     IErMin= 2 ErrMin= 5.91D-03
 ErrMax= 5.91D-03  0.00D+00 EMaxC= 1.00D-01 BMatC= 5.72D-02 BMatP= 9.66D-01
 IDIUse=3 WtCom= 9.41D-01 WtEn= 5.91D-02
 Coeff-Com: -0.724D-01 0.107D+01
 Coeff-En:   0.000D+00 0.100D+01
 Coeff:     -0.681D-01 0.107D+01
 Gap=     0.234 Goal=   None    Shift=    0.000
 Gap=     0.406 Goal=   None    Shift=    0.000
 RMSDP=2.16D-03 MaxDP=2.66D-01 DE=-1.03D-01 OVMax= 8.86D-02

 Cycle   3  Pass 1  IDiag  1:
 RMSU=  1.67D-03    CP:  9.51D-01  4.25D-01
 E= -232.972312201107     Delta-E=       -0.102956440502 Rises=F Damp=F
 DIIS: error= 2.94D-03 at cycle   3 NSaved=   3.
 NSaved= 3 IEnMin= 3 EnMin= -232.972312201107     IErMin= 3 ErrMin= 2.94D-03
 ErrMax= 2.94D-03  0.00D+00 EMaxC= 1.00D-01 BMatC= 1.16D-02 BMatP= 5.72D-02
 IDIUse=3 WtCom= 9.71D-01 WtEn= 2.94D-02
 Coeff-Com: -0.736D-01 0.285D+00 0.788D+00
 Coeff-En:   0.000D+00 0.000D+00 0.100D+01
 Coeff:     -0.714D-01 0.277D+00 0.795D+00
 Gap=     0.232 Goal=   None    Shift=    0.000
 Gap=     0.380 Goal=   None    Shift=    0.000
 RMSDP=1.92D-04 MaxDP=8.08D-03 DE=-1.03D-01 OVMax= 1.20D-02

 Cycle   4  Pass 1  IDiag  1:
 RMSU=  1.82D-04    CP:  9.48D-01  4.49D-01  1.01D+00
 E= -232.974377129690     Delta-E=       -0.002064928584 Rises=F Damp=F
 DIIS: error= 1.44D-03 at cycle   4 NSaved=   4.
 NSaved= 4 IEnMin= 4 EnMin= -232.974377129690     IErMin= 4 ErrMin= 1.44D-03
 ErrMax= 1.44D-03  0.00D+00 EMaxC= 1.00D-01 BMatC= 2.09D-03 BMatP= 1.16D-02
 IDIUse=3 WtCom= 9.86D-01 WtEn= 1.44D-02
 Coeff-Com: -0.269D-01 0.674D-01 0.345D+00 0.614D+00
 Coeff-En:   0.000D+00 0.000D+00 0.000D+00 0.100D+01
 Coeff:     -0.265D-01 0.665D-01 0.340D+00 0.620D+00
 Gap=     0.231 Goal=   None    Shift=    0.000
 Gap=     0.379 Goal=   None    Shift=    0.000
 RMSDP=9.53D-05 MaxDP=8.72D-03 DE=-2.06D-03 OVMax= 7.87D-03

 Cycle   5  Pass 1  IDiag  1:
 RMSU=  7.07D-05    CP:  9.47D-01  4.32D-01  1.04D+00  8.23D-01
 E= -232.974804667094     Delta-E=       -0.000427537403 Rises=F Damp=F
 DIIS: error= 3.63D-04 at cycle   5 NSaved=   5.
 NSaved= 5 IEnMin= 5 EnMin= -232.974804667094     IErMin= 5 ErrMin= 3.63D-04
 ErrMax= 3.63D-04  0.00D+00 EMaxC= 1.00D-01 BMatC= 2.45D-04 BMatP= 2.09D-03
 IDIUse=3 WtCom= 9.96D-01 WtEn= 3.63D-03
 Coeff-Com: -0.205D-02-0.578D-02 0.338D-01 0.251D+00 0.723D+00
 Coeff-En:   0.000D+00 0.000D+00 0.000D+00 0.000D+00 0.100D+01
 Coeff:     -0.204D-02-0.576D-02 0.336D-01 0.250D+00 0.724D+00
 Gap=     0.232 Goal=   None    Shift=    0.000
 Gap=     0.379 Goal=   None    Shift=    0.000
 RMSDP=5.61D-05 MaxDP=3.63D-03 DE=-4.28D-04 OVMax= 2.83D-03

 Cycle   6  Pass 1  IDiag  1:
 RMSU=  3.68D-05    CP:  9.46D-01  4.19D-01  1.05D+00  9.22D-01  1.08D+00
 E= -232.974874592959     Delta-E=       -0.000069925865 Rises=F Damp=F
 DIIS: error= 1.71D-04 at cycle   6 NSaved=   6.
 NSaved= 6 IEnMin= 6 EnMin= -232.974874592959     IErMin= 6 ErrMin= 1.71D-04
 ErrMax= 1.71D-04  0.00D+00 EMaxC= 1.00D-01 BMatC= 2.14D-05 BMatP= 2.45D-04
 IDIUse=3 WtCom= 9.98D-01 WtEn= 1.71D-03
 Coeff-Com:  0.465D-02-0.115D-01-0.640D-01-0.875D-01-0.419D-01 0.120D+01
 Coeff-En:   0.000D+00 0.000D+00 0.000D+00 0.000D+00 0.000D+00 0.100D+01
 Coeff:      0.464D-02-0.115D-01-0.638D-01-0.874D-01-0.418D-01 0.120D+01
 Gap=     0.233 Goal=   None    Shift=    0.000
 Gap=     0.380 Goal=   None    Shift=    0.000
 RMSDP=3.83D-05 MaxDP=2.78D-03 DE=-6.99D-05 OVMax= 3.24D-03

 Cycle   7  Pass 1  IDiag  1:
 RMSU=  1.72D-05    CP:  9.46D-01  4.09D-01  1.06D+00  9.82D-01  1.24D+00
                    CP:  1.40D+00
 E= -232.974894155254     Delta-E=       -0.000019562296 Rises=F Damp=F
 DIIS: error= 6.32D-05 at cycle   7 NSaved=   7.
 NSaved= 7 IEnMin= 7 EnMin= -232.974894155254     IErMin= 7 ErrMin= 6.32D-05
 ErrMax= 6.32D-05  0.00D+00 EMaxC= 1.00D-01 BMatC= 6.35D-06 BMatP= 2.14D-05
 IDIUse=1 WtCom= 1.00D+00 WtEn= 0.00D+00
 Coeff-Com:  0.165D-02-0.252D-02-0.268D-01-0.677D-01-0.155D+00 0.448D+00
 Coeff-Com:  0.803D+00
 Coeff:      0.165D-02-0.252D-02-0.268D-01-0.677D-01-0.155D+00 0.448D+00
 Coeff:      0.803D+00
 Gap=     0.233 Goal=   None    Shift=    0.000
 Gap=     0.380 Goal=   None    Shift=    0.000
 RMSDP=1.48D-05 MaxDP=1.00D-03 DE=-1.96D-05 OVMax= 1.01D-03

 Cycle   8  Pass 1  IDiag  1:
 RMSU=  5.35D-06    CP:  9.46D-01  4.06D-01  1.06D+00  1.00D+00  1.25D+00
                    CP:  1.61D+00  1.38D+00
 E= -232.974897136279     Delta-E=       -0.000002981025 Rises=F Damp=F
 DIIS: error= 2.36D-05 at cycle   8 NSaved=   8.
 NSaved= 8 IEnMin= 8 EnMin= -232.974897136279     IErMin= 8 ErrMin= 2.36D-05
 ErrMax= 2.36D-05  0.00D+00 EMaxC= 1.00D-01 BMatC= 5.11D-07 BMatP= 6.35D-06
 IDIUse=1 WtCom= 1.00D+00 WtEn= 0.00D+00
 Coeff-Com: -0.614D-03 0.164D-02 0.674D-02 0.552D-02-0.219D-01-0.111D+00
 Coeff-Com:  0.104D+00 0.102D+01
 Coeff:     -0.614D-03 0.164D-02 0.674D-02 0.552D-02-0.219D-01-0.111D+00
 Coeff:      0.104D+00 0.102D+01
 Gap=     0.233 Goal=   None    Shift=    0.000
 Gap=     0.380 Goal=   None    Shift=    0.000
 RMSDP=6.17D-06 MaxDP=4.36D-04 DE=-2.98D-06 OVMax= 3.91D-04

 Cycle   9  Pass 1  IDiag  1:
 RMSU=  2.33D-06    CP:  9.46D-01  4.05D-01  1.06D+00  1.00D+00  1.24D+00
                    CP:  1.69D+00  1.62D+00  1.40D+00
 E= -232.974897463974     Delta-E=       -0.000000327694 Rises=F Damp=F
 DIIS: error= 7.89D-06 at cycle   9 NSaved=   9.
 NSaved= 9 IEnMin= 9 EnMin= -232.974897463974     IErMin= 9 ErrMin= 7.89D-06
 ErrMax= 7.89D-06  0.00D+00 EMaxC= 1.00D-01 BMatC= 5.78D-08 BMatP= 5.11D-07
 IDIUse=1 WtCom= 1.00D+00 WtEn= 0.00D+00
 Coeff-Com: -0.327D-03 0.664D-03 0.475D-02 0.101D-01 0.152D-01-0.761D-01
 Coeff-Com: -0.873D-01 0.192D+00 0.941D+00
 Coeff:     -0.327D-03 0.664D-03 0.475D-02 0.101D-01 0.152D-01-0.761D-01
 Coeff:     -0.873D-01 0.192D+00 0.941D+00
 Gap=     0.233 Goal=   None    Shift=    0.000
 Gap=     0.380 Goal=   None    Shift=    0.000
 RMSDP=2.01D-06 MaxDP=1.84D-04 DE=-3.28D-07 OVMax= 1.01D-04

 Cycle  10  Pass 1  IDiag  1:
 RMSU=  1.03D-06    CP:  9.46D-01  4.05D-01  1.06D+00  1.00D+00  1.23D+00
                    CP:  1.70D+00  1.67D+00  1.53D+00  1.16D+00
 E= -232.974897495503     Delta-E=       -0.000000031529 Rises=F Damp=F
 DIIS: error= 1.62D-06 at cycle  10 NSaved=  10.
 NSaved=10 IEnMin=10 EnMin= -232.974897495503     IErMin=10 ErrMin= 1.62D-06
 ErrMax= 1.62D-06  0.00D+00 EMaxC= 1.00D-01 BMatC= 4.51D-09 BMatP= 5.78D-08
 IDIUse=1 WtCom= 1.00D+00 WtEn= 0.00D+00
 Coeff-Com:  0.451D-04-0.110D-03-0.376D-03 0.110D-03 0.192D-02 0.458D-02
 Coeff-Com: -0.113D-01-0.687D-01 0.359D-01 0.104D+01
 Coeff:      0.451D-04-0.110D-03-0.376D-03 0.110D-03 0.192D-02 0.458D-02
 Coeff:     -0.113D-01-0.687D-01 0.359D-01 0.104D+01
 Gap=     0.233 Goal=   None    Shift=    0.000
 Gap=     0.380 Goal=   None    Shift=    0.000
 RMSDP=5.80D-07 MaxDP=4.62D-05 DE=-3.15D-08 OVMax= 2.75D-05

 Cycle  11  Pass 1  IDiag  1:
 RMSU=  2.26D-07    CP:  9.46D-01  4.05D-01  1.06D+00  1.00D+00  1.23D+00
                    CP:  1.71D+00  1.68D+00  1.56D+00  1.27D+00  1.26D+00
 E= -232.974897497931     Delta-E=       -0.000000002428 Rises=F Damp=F
 DIIS: error= 7.23D-07 at cycle  11 NSaved=  11.
 NSaved=11 IEnMin=11 EnMin= -232.974897497931     IErMin=11 ErrMin= 7.23D-07
 ErrMax= 7.23D-07  0.00D+00 EMaxC= 1.00D-01 BMatC= 9.70D-10 BMatP= 4.51D-09
 IDIUse=1 WtCom= 1.00D+00 WtEn= 0.00D+00
 Coeff-Com:  0.500D-04-0.109D-03-0.643D-03-0.978D-03-0.817D-03 0.994D-02
 Coeff-Com:  0.552D-02-0.439D-01-0.969D-01 0.323D+00 0.805D+00
 Coeff:      0.500D-04-0.109D-03-0.643D-03-0.978D-03-0.817D-03 0.994D-02
 Coeff:      0.552D-02-0.439D-01-0.969D-01 0.323D+00 0.805D+00
 Gap=     0.233 Goal=   None    Shift=    0.000
 Gap=     0.380 Goal=   None    Shift=    0.000
 RMSDP=2.66D-07 MaxDP=2.99D-05 DE=-2.43D-09 OVMax= 9.31D-06

 Cycle  12  Pass 1  IDiag  1:
 RMSU=  9.26D-08    CP:  9.46D-01  4.05D-01  1.06D+00  1.01D+00  1.22D+00
                    CP:  1.71D+00  1.68D+00  1.57D+00  1.30D+00  1.39D+00
                    CP:  1.28D+00
 E= -232.974897498284     Delta-E=       -0.000000000353 Rises=F Damp=F
 DIIS: error= 2.60D-07 at cycle  12 NSaved=  12.
 NSaved=12 IEnMin=12 EnMin= -232.974897498284     IErMin=12 ErrMin= 2.60D-07
 ErrMax= 2.60D-07  0.00D+00 EMaxC= 1.00D-01 BMatC= 9.70D-11 BMatP= 9.70D-10
 IDIUse=1 WtCom= 1.00D+00 WtEn= 0.00D+00
 Coeff-Com: -0.103D-05 0.137D-05-0.331D-04-0.120D-03-0.306D-03 0.677D-03
 Coeff-Com:  0.199D-02 0.282D-02-0.215D-01-0.932D-01 0.161D+00 0.949D+00
 Coeff:     -0.103D-05 0.137D-05-0.331D-04-0.120D-03-0.306D-03 0.677D-03
 Coeff:      0.199D-02 0.282D-02-0.215D-01-0.932D-01 0.161D+00 0.949D+00
 Gap=     0.233 Goal=   None    Shift=    0.000
 Gap=     0.380 Goal=   None    Shift=    0.000
 RMSDP=6.67D-08 MaxDP=6.21D-06 DE=-3.53D-10 OVMax= 2.93D-06

 Cycle  13  Pass 1  IDiag  1:
 RMSU=  2.75D-08    CP:  9.46D-01  4.05D-01  1.06D+00  1.01D+00  1.22D+00
                    CP:  1.71D+00  1.68D+00  1.57D+00  1.31D+00  1.41D+00
                    CP:  1.46D+00  1.19D+00
 E= -232.974897498325     Delta-E=       -0.000000000041 Rises=F Damp=F
 DIIS: error= 4.68D-08 at cycle  13 NSaved=  13.
 NSaved=13 IEnMin=13 EnMin= -232.974897498325     IErMin=13 ErrMin= 4.68D-08
 ErrMax= 4.68D-08  0.00D+00 EMaxC= 1.00D-01 BMatC= 3.77D-12 BMatP= 9.70D-11
 IDIUse=1 WtCom= 1.00D+00 WtEn= 0.00D+00
 Coeff-Com: -0.289D-05 0.621D-05 0.339D-04 0.476D-04 0.171D-04-0.494D-03
 Coeff-Com: -0.236D-03 0.272D-02 0.533D-02-0.227D-01-0.495D-01 0.311D-02
 Coeff-Com:  0.106D+01
 Coeff:     -0.289D-05 0.621D-05 0.339D-04 0.476D-04 0.171D-04-0.494D-03
 Coeff:     -0.236D-03 0.272D-02 0.533D-02-0.227D-01-0.495D-01 0.311D-02
 Coeff:      0.106D+01
 Gap=     0.233 Goal=   None    Shift=    0.000
 Gap=     0.380 Goal=   None    Shift=    0.000
 RMSDP=1.70D-08 MaxDP=9.40D-07 DE=-4.06D-11 OVMax= 1.03D-06

 Cycle  14  Pass 1  IDiag  1:
 RMSU=  5.91D-09    CP:  9.46D-01  4.05D-01  1.06D+00  1.01D+00  1.22D+00
                    CP:  1.71D+00  1.68D+00  1.57D+00  1.31D+00  1.41D+00
                    CP:  1.50D+00  1.27D+00  1.28D+00
 E= -232.974897498335     Delta-E=       -0.000000000010 Rises=F Damp=F
 DIIS: error= 1.51D-08 at cycle  14 NSaved=  14.
 NSaved=14 IEnMin=14 EnMin= -232.974897498335     IErMin=14 ErrMin= 1.51D-08
 ErrMax= 1.51D-08  0.00D+00 EMaxC= 1.00D-01 BMatC= 3.47D-13 BMatP= 3.77D-12
 IDIUse=1 WtCom= 1.00D+00 WtEn= 0.00D+00
 Coeff-Com:  0.165D-06-0.162D-06 0.241D-05 0.622D-05 0.119D-04-0.357D-04
 Coeff-Com: -0.124D-03-0.172D-03 0.169D-02 0.591D-02-0.128D-01-0.706D-01
 Coeff-Com:  0.368D-01 0.104D+01
 Coeff:      0.165D-06-0.162D-06 0.241D-05 0.622D-05 0.119D-04-0.357D-04
 Coeff:     -0.124D-03-0.172D-03 0.169D-02 0.591D-02-0.128D-01-0.706D-01
 Coeff:      0.368D-01 0.104D+01
 Gap=     0.233 Goal=   None    Shift=    0.000
 Gap=     0.380 Goal=   None    Shift=    0.000
 RMSDP=4.17D-09 MaxDP=1.47D-07 DE=-1.00D-11 OVMax= 3.28D-07

 SCF Done:  E(UM062X) =  -232.974897498     A.U. after   14 cycles
            NFock= 14  Conv=0.42D-08     -V/T= 2.0039
 <Sx>= 0.0000 <Sy>= 0.0000 <Sz>= 0.5000 <S**2>= 0.7545 S= 0.5022
 <L.S>= 0.000000000000E+00
 KE= 2.320747635719D+02 PE=-9.093949148068D+02 EE= 2.612399694051D+02
 Annihilation of the first spin contaminant:
 S**2 before annihilation     0.7545,   after     0.7500
 Leave Link  502 at Fri Apr 12 17:45:46 2019, MaxMem=   671088640 cpu:             866.1 elap:              43.4
 (Enter /shared/centos7/gaussian/g16/l801.exe)
 DoSCS=F DFT=T ScalE2(SS,OS)=  1.000000  1.000000
 Range of M.O.s used for correlation:     1   251
 NBasis=   251 NAE=    21 NBE=    20 NFC=     0 NFV=     0
 NROrb=    251 NOA=    21 NOB=    20 NVA=   230 NVB=   231

 **** Warning!!: The largest alpha MO coefficient is  0.49362934D+02


 **** Warning!!: The largest beta MO coefficient is  0.48737388D+02

 Leave Link  801 at Fri Apr 12 17:45:46 2019, MaxMem=   671088640 cpu:               0.5 elap:               0.0
 (Enter /shared/centos7/gaussian/g16/l1101.exe)
 Using compressed storage, NAtomX=    14.
 Will process     15 centers per pass.
 Leave Link 1101 at Fri Apr 12 17:45:46 2019, MaxMem=   671088640 cpu:               5.3 elap:               0.3
 (Enter /shared/centos7/gaussian/g16/l1102.exe)
 Symmetrizing basis deriv contribution to polar:
 IMax=3 JMax=2 DiffMx= 0.00D+00
 Leave Link 1102 at Fri Apr 12 17:45:47 2019, MaxMem=   671088640 cpu:               0.5 elap:               0.0
 (Enter /shared/centos7/gaussian/g16/l1110.exe)
 Forming Gx(P) for the SCF density, NAtomX=    14.
 Integral derivatives from FoFJK, PRISM(SPDF).
 Do as many integral derivatives as possible in FoFJK.
 G2DrvN: MDV=     671087496.
 G2DrvN: will do    15 centers at a time, making    1 passes.
 Calling FoFCou, ICntrl=  3107 FMM=F I1Cent=   0 AccDes= 0.00D+00.
 FoFJK:  IHMeth= 1 ICntrl=    3107 DoSepK=F KAlg= 0 I1Cent=           0 FoldK=F
 IRaf=         0 NMat=       1 IRICut=       1 DoRegI=T DoRafI=F ISym2E= 0 IDoP0=0 IntGTp=1.
 FoFCou: FMM=F IPFlag=           0 FMFlag=      100000 FMFlg1=           0
         NFxFlg=           0 DoJE=F BraDBF=F KetDBF=F FulRan=T
         wScrn=  0.000000 ICntrl=      3107 IOpCl=  1 I1Cent=           0 NGrid=           0
         NMat0=    1 NMatS0=      1 NMatT0=    0 NMatD0=    1 NMtDS0=    0 NMtDT0=    0
 Symmetry not used in FoFCou.
 End of G2Drv F.D. properties file   721 does not exist.
 End of G2Drv F.D. properties file   722 does not exist.
 End of G2Drv F.D. properties file   788 does not exist.
 Leave Link 1110 at Fri Apr 12 17:47:10 2019, MaxMem=   671088640 cpu:            1664.5 elap:              83.3
 (Enter /shared/centos7/gaussian/g16/l1002.exe)
 Minotr:  UHF open shell wavefunction.
          IDoAtm=11111111111111
          Direct CPHF calculation.
          Differentiating once with respect to nuclear coordinates.
          Requested convergence is 1.0D-08 RMS, and 1.0D-07 maximum.
          Secondary convergence is 1.0D-12 RMS, and 1.0D-12 maximum.
          NewPWx=T KeepS1=F KeepF1=F KeepIn=T MapXYZ=F SortEE=F KeepMc=T.
         4250 words used for storage of precomputed grid.
 Two-electron integrals replicated using symmetry.
          MDV=     671088640 using IRadAn=       1.
          Solving linear equations simultaneously, MaxMat=     380.
 FoF2E skips out because all densities are zero.
 CalDSu exits because no D1Ps are significant.
 FoFJK:  IHMeth= 1 ICntrl=       0 DoSepK=F KAlg= 0 I1Cent=           0 FoldK=F
 IRaf= 980000000 NMat=      42 IRICut=     105 DoRegI=T DoRafI=T ISym2E= 2 IDoP0=3 IntGTp=3.
 FoFCou: FMM=F IPFlag=           0 FMFlag=      100000 FMFlg1=           0
         NFxFlg=           0 DoJE=F BraDBF=F KetDBF=F FulRan=T
         wScrn=  0.000000 ICntrl=         0 IOpCl=  1 I1Cent=           0 NGrid=           0
         NMat0=   42 NMatS0=     42 NMatT0=    0 NMatD0=   42 NMtDS0=    0 NMtDT0=    0
 Integrals replicated using symmetry in FoFCou.
 Raff kept on since  96.25% of shell-pairs survive, threshold=   0.20 IRatSp=96.
          There are    45 degrees of freedom in the 1st order CPHF.  IDoFFX=6 NUNeed=     0.
     39 vectors produced by pass  0 Test12= 2.10D-14 2.22D-09 XBig12= 1.25D-01 5.12D-02.
 AX will form    39 AO Fock derivatives at one time.
     39 vectors produced by pass  1 Test12= 2.10D-14 2.22D-09 XBig12= 8.44D-03 1.54D-02.
     39 vectors produced by pass  2 Test12= 2.10D-14 2.22D-09 XBig12= 3.66D-04 2.67D-03.
     39 vectors produced by pass  3 Test12= 2.10D-14 2.22D-09 XBig12= 5.14D-06 2.33D-04.
     39 vectors produced by pass  4 Test12= 2.10D-14 2.22D-09 XBig12= 5.95D-08 2.99D-05.
     39 vectors produced by pass  5 Test12= 2.10D-14 2.22D-09 XBig12= 7.95D-10 4.35D-06.
     37 vectors produced by pass  6 Test12= 2.10D-14 2.22D-09 XBig12= 8.56D-12 2.44D-07.
     14 vectors produced by pass  7 Test12= 2.10D-14 2.22D-09 XBig12= 5.46D-14 1.90D-08.
 InvSVY:  IOpt=1 It=  1 EMax= 1.55D-15
 Solved reduced A of dimension   285 with    39 vectors.
 End of Minotr F.D. properties file   721 does not exist.
 End of Minotr F.D. properties file   722 does not exist.
 End of Minotr F.D. properties file   788 does not exist.
 Leave Link 1002 at Fri Apr 12 17:49:18 2019, MaxMem=   671088640 cpu:            2559.5 elap:             128.0
 (Enter /shared/centos7/gaussian/g16/l601.exe)
 Copying SCF densities to generalized density rwf, IOpCl= 1 IROHF=0.

 **********************************************************************

            Population analysis using the SCF density.

 **********************************************************************

 Orbital symmetries:
 Alpha Orbitals:
       Occupied  (A) (A) (A) (A) (A) (A) (A) (A) (A) (A) (A) (A)
                 (A) (A) (A) (A) (A) (A) (A) (A) (A)
       Virtual   (A) (A) (A) (A) (A) (A) (A) (A) (A) (A) (A) (A)
                 (A) (A) (A) (A) (A) (A) (A) (A) (A) (A) (A) (A)
                 (A) (A) (A) (A) (A) (A) (A) (A) (A) (A) (A) (A)
                 (A) (A) (A) (A) (A) (A) (A) (A) (A) (A) (A) (A)
                 (A) (A) (A) (A) (A) (A) (A) (A) (A) (A) (A) (A)
                 (A) (A) (A) (A) (A) (A) (A) (A) (A) (A) (A) (A)
                 (A) (A) (A) (A) (A) (A) (A) (A) (A) (A) (A) (A)
                 (A) (A) (A) (A) (A) (A) (A) (A) (A) (A) (A) (A)
                 (A) (A) (A) (A) (A) (A) (A) (A) (A) (A) (A) (A)
                 (A) (A) (A) (A) (A) (A) (A) (A) (A) (A) (A) (A)
                 (A) (A) (A) (A) (A) (A) (A) (A) (A) (A) (A) (A)
                 (A) (A) (A) (A) (A) (A) (A) (A) (A) (A) (A) (A)
                 (A) (A) (A) (A) (A) (A) (A) (A) (A) (A) (A) (A)
                 (A) (A) (A) (A) (A) (A) (A) (A) (A) (A) (A) (A)
                 (A) (A) (A) (A) (A) (A) (A) (A) (A) (A) (A) (A)
                 (A) (A) (A) (A) (A) (A) (A) (A) (A) (A) (A) (A)
                 (A) (A) (A) (A) (A) (A) (A) (A) (A) (A) (A) (A)
                 (A) (A) (A) (A) (A) (A) (A) (A) (A) (A) (A) (A)
                 (A) (A) (A) (A) (A) (A) (A) (A) (A) (A) (A) (A)
                 (A) (A)
 Beta  Orbitals:
       Occupied  (A) (A) (A) (A) (A) (A) (A) (A) (A) (A) (A) (A)
                 (A) (A) (A) (A) (A) (A) (A) (A)
       Virtual   (A) (A) (A) (A) (A) (A) (A) (A) (A) (A) (A) (A)
                 (A) (A) (A) (A) (A) (A) (A) (A) (A) (A) (A) (A)
                 (A) (A) (A) (A) (A) (A) (A) (A) (A) (A) (A) (A)
                 (A) (A) (A) (A) (A) (A) (A) (A) (A) (A) (A) (A)
                 (A) (A) (A) (A) (A) (A) (A) (A) (A) (A) (A) (A)
                 (A) (A) (A) (A) (A) (A) (A) (A) (A) (A) (A) (A)
                 (A) (A) (A) (A) (A) (A) (A) (A) (A) (A) (A) (A)
                 (A) (A) (A) (A) (A) (A) (A) (A) (A) (A) (A) (A)
                 (A) (A) (A) (A) (A) (A) (A) (A) (A) (A) (A) (A)
                 (A) (A) (A) (A) (A) (A) (A) (A) (A) (A) (A) (A)
                 (A) (A) (A) (A) (A) (A) (A) (A) (A) (A) (A) (A)
                 (A) (A) (A) (A) (A) (A) (A) (A) (A) (A) (A) (A)
                 (A) (A) (A) (A) (A) (A) (A) (A) (A) (A) (A) (A)
                 (A) (A) (A) (A) (A) (A) (A) (A) (A) (A) (A) (A)
                 (A) (A) (A) (A) (A) (A) (A) (A) (A) (A) (A) (A)
                 (A) (A) (A) (A) (A) (A) (A) (A) (A) (A) (A) (A)
                 (A) (A) (A) (A) (A) (A) (A) (A) (A) (A) (A) (A)
                 (A) (A) (A) (A) (A) (A) (A) (A) (A) (A) (A) (A)
                 (A) (A) (A) (A) (A) (A) (A) (A) (A) (A) (A) (A)
                 (A) (A) (A)
 The electronic state is 2-A.
 Alpha  occ. eigenvalues --  -19.65044 -10.57882 -10.52981 -10.52269 -10.51230
 Alpha  occ. eigenvalues --   -1.18062  -0.89323  -0.80735  -0.71841  -0.65405
 Alpha  occ. eigenvalues --   -0.61210  -0.53231  -0.51968  -0.49066  -0.46891
 Alpha  occ. eigenvalues --   -0.44539  -0.43277  -0.39664  -0.38711  -0.38437
 Alpha  occ. eigenvalues --   -0.22281
 Alpha virt. eigenvalues --    0.01006   0.02786   0.03542   0.04266   0.06218
 Alpha virt. eigenvalues --    0.06341   0.07783   0.08180   0.08549   0.10956
 Alpha virt. eigenvalues --    0.11590   0.12295   0.12553   0.13008   0.15802
 Alpha virt. eigenvalues --    0.17477   0.18811   0.20158   0.21134   0.22444
 Alpha virt. eigenvalues --    0.23874   0.24238   0.24891   0.26276   0.26868
 Alpha virt. eigenvalues --    0.27611   0.28241   0.30314   0.30837   0.31847
 Alpha virt. eigenvalues --    0.32860   0.35694   0.38419   0.43298   0.43590
 Alpha virt. eigenvalues --    0.46242   0.47214   0.48694   0.49836   0.53095
 Alpha virt. eigenvalues --    0.54024   0.55904   0.56204   0.57436   0.58955
 Alpha virt. eigenvalues --    0.59071   0.61812   0.62044   0.63782   0.64196
 Alpha virt. eigenvalues --    0.64667   0.67117   0.68759   0.69991   0.71197
 Alpha virt. eigenvalues --    0.72837   0.73971   0.76483   0.77668   0.82979
 Alpha virt. eigenvalues --    0.85051   0.86573   0.88323   0.89782   0.90293
 Alpha virt. eigenvalues --    0.95844   0.99586   1.01786   1.02980   1.05639
 Alpha virt. eigenvalues --    1.07194   1.10848   1.11500   1.13506   1.14716
 Alpha virt. eigenvalues --    1.16762   1.19204   1.19556   1.21401   1.24265
 Alpha virt. eigenvalues --    1.24597   1.27344   1.27686   1.28812   1.31435
 Alpha virt. eigenvalues --    1.33134   1.35097   1.36517   1.38288   1.38983
 Alpha virt. eigenvalues --    1.41918   1.42246   1.44032   1.45323   1.47510
 Alpha virt. eigenvalues --    1.48407   1.50134   1.52765   1.54586   1.54955
 Alpha virt. eigenvalues --    1.57515   1.58441   1.63552   1.64854   1.65665
 Alpha virt. eigenvalues --    1.68770   1.71495   1.76724   1.80298   1.91306
 Alpha virt. eigenvalues --    2.00731   2.15847   2.27257   2.33441   2.41506
 Alpha virt. eigenvalues --    2.45802   2.48930   2.53563   2.57713   2.61141
 Alpha virt. eigenvalues --    2.64146   2.69114   2.72312   2.77210   2.78205
 Alpha virt. eigenvalues --    2.82656   2.83997   2.87742   2.90391   2.92862
 Alpha virt. eigenvalues --    2.94817   2.96853   3.00279   3.01279   3.06835
 Alpha virt. eigenvalues --    3.07810   3.09842   3.10481   3.16580   3.18589
 Alpha virt. eigenvalues --    3.22890   3.26677   3.28437   3.29805   3.30981
 Alpha virt. eigenvalues --    3.34424   3.35133   3.36828   3.38865   3.40888
 Alpha virt. eigenvalues --    3.41625   3.45360   3.47726   3.49409   3.56770
 Alpha virt. eigenvalues --    3.58282   3.58977   3.62492   3.63260   3.67083
 Alpha virt. eigenvalues --    3.68329   3.70803   3.74289   3.76290   3.79725
 Alpha virt. eigenvalues --    3.81438   3.86599   3.89738   3.90106   3.95797
 Alpha virt. eigenvalues --    3.98228   4.00522   4.01273   4.02618   4.03169
 Alpha virt. eigenvalues --    4.05438   4.09015   4.11640   4.17343   4.18958
 Alpha virt. eigenvalues --    4.21060   4.22549   4.24876   4.25779   4.28782
 Alpha virt. eigenvalues --    4.30465   4.30815   4.41699   4.43008   4.45462
 Alpha virt. eigenvalues --    4.47979   4.51114   4.54543   4.56244   4.58244
 Alpha virt. eigenvalues --    4.60112   4.65230   4.66723   4.71826   4.72904
 Alpha virt. eigenvalues --    4.76864   5.02321   5.18726   5.20095   5.23746
 Alpha virt. eigenvalues --    5.29370   5.36141   5.42885   5.44321   5.49041
 Alpha virt. eigenvalues --    5.58234   5.60967   5.63268   5.67485   5.67869
 Alpha virt. eigenvalues --    5.73124   5.80563   6.09463   6.59541   6.94572
 Alpha virt. eigenvalues --    7.14809   7.18651   7.20968   7.56249   7.64304
 Alpha virt. eigenvalues --   24.30208  24.33552  24.45759  24.53543  50.13263
  Beta  occ. eigenvalues --  -19.64693 -10.57134 -10.53031 -10.52232 -10.51224
  Beta  occ. eigenvalues --   -1.16777  -0.88780  -0.79786  -0.70582  -0.64954
  Beta  occ. eigenvalues --   -0.59783  -0.52167  -0.50996  -0.48092  -0.45145
  Beta  occ. eigenvalues --   -0.43381  -0.42445  -0.38923  -0.38566  -0.38108
  Beta virt. eigenvalues --   -0.00125   0.01560   0.02853   0.03554   0.03874
  Beta virt. eigenvalues --    0.06199   0.06347   0.07636   0.08125   0.08475
  Beta virt. eigenvalues --    0.10736   0.11127   0.12364   0.12479   0.12824
  Beta virt. eigenvalues --    0.15253   0.17377   0.18830   0.20163   0.21429
  Beta virt. eigenvalues --    0.22470   0.23882   0.24716   0.24912   0.26239
  Beta virt. eigenvalues --    0.27030   0.28069   0.28552   0.30232   0.31563
  Beta virt. eigenvalues --    0.31756   0.33127   0.36160   0.38788   0.43251
  Beta virt. eigenvalues --    0.44137   0.46546   0.47399   0.48777   0.50803
  Beta virt. eigenvalues --    0.53261   0.54197   0.56194   0.56719   0.57490
  Beta virt. eigenvalues --    0.59020   0.59646   0.61808   0.62636   0.63720
  Beta virt. eigenvalues --    0.64668   0.65086   0.67393   0.69183   0.70061
  Beta virt. eigenvalues --    0.71292   0.73211   0.74407   0.77182   0.77592
  Beta virt. eigenvalues --    0.83130   0.85325   0.86687   0.88621   0.89570
  Beta virt. eigenvalues --    0.90445   0.95980   0.99618   1.01414   1.03156
  Beta virt. eigenvalues --    1.05707   1.07584   1.11004   1.11492   1.13678
  Beta virt. eigenvalues --    1.14842   1.16758   1.19339   1.19793   1.21588
  Beta virt. eigenvalues --    1.24366   1.24869   1.27653   1.27918   1.29020
  Beta virt. eigenvalues --    1.31842   1.33242   1.35162   1.36929   1.38588
  Beta virt. eigenvalues --    1.39292   1.42199   1.42665   1.44163   1.45509
  Beta virt. eigenvalues --    1.47615   1.48362   1.50389   1.52990   1.54616
  Beta virt. eigenvalues --    1.55048   1.57625   1.59132   1.63522   1.64764
  Beta virt. eigenvalues --    1.65996   1.68819   1.71460   1.76911   1.80492
  Beta virt. eigenvalues --    1.91803   2.01586   2.16347   2.27733   2.34313
  Beta virt. eigenvalues --    2.41562   2.46089   2.49390   2.54041   2.58190
  Beta virt. eigenvalues --    2.61803   2.65423   2.69596   2.73089   2.78357
  Beta virt. eigenvalues --    2.80218   2.84164   2.85876   2.88485   2.91303
  Beta virt. eigenvalues --    2.94190   2.97305   2.98249   3.00532   3.03497
  Beta virt. eigenvalues --    3.08064   3.08991   3.10778   3.12113   3.17470
  Beta virt. eigenvalues --    3.18872   3.24259   3.27645   3.30223   3.31920
  Beta virt. eigenvalues --    3.32582   3.36089   3.37281   3.38219   3.40990
  Beta virt. eigenvalues --    3.42043   3.44183   3.47817   3.49719   3.51045
  Beta virt. eigenvalues --    3.57910   3.59536   3.61233   3.63844   3.64642
  Beta virt. eigenvalues --    3.67579   3.69222   3.71027   3.74793   3.77091
  Beta virt. eigenvalues --    3.80931   3.81854   3.87361   3.90365   3.91235
  Beta virt. eigenvalues --    3.96768   3.98758   4.00555   4.01948   4.03233
  Beta virt. eigenvalues --    4.03782   4.06177   4.09958   4.12408   4.18584
  Beta virt. eigenvalues --    4.19294   4.21324   4.23149   4.25316   4.26127
  Beta virt. eigenvalues --    4.29824   4.31384   4.31483   4.42105   4.44222
  Beta virt. eigenvalues --    4.46406   4.49019   4.51551   4.54680   4.57012
  Beta virt. eigenvalues --    4.58617   4.60497   4.66232   4.67133   4.72977
  Beta virt. eigenvalues --    4.73946   4.78553   5.04827   5.20093   5.21100
  Beta virt. eigenvalues --    5.24066   5.30250   5.36339   5.42974   5.45111
  Beta virt. eigenvalues --    5.51250   5.59002   5.61104   5.63786   5.67764
  Beta virt. eigenvalues --    5.68859   5.73666   5.81563   6.10199   6.60623
  Beta virt. eigenvalues --    6.95423   7.15596   7.19806   7.21128   7.56765
  Beta virt. eigenvalues --    7.64211  24.30562  24.33787  24.45883  24.54313
  Beta virt. eigenvalues --   50.13011
          Condensed to atoms (all electrons):
               1          2          3          4          5          6
     1  O    8.035379   0.065563  -0.081298  -0.030227   0.076498  -0.000725
     2  C    0.065563   5.634486  -0.103274   0.089221  -0.213462   0.424273
     3  C   -0.081298  -0.103274   5.541409  -0.018105   0.189887  -0.061329
     4  C   -0.030227   0.089221  -0.018105   5.218008   0.033416  -0.020454
     5  C    0.076498  -0.213462   0.189887   0.033416   5.847887   0.031749
     6  H   -0.000725   0.424273  -0.061329  -0.020454   0.031749   0.527359
     7  H   -0.005990   0.476587  -0.015465  -0.061651  -0.023948  -0.029365
     8  H   -0.004444  -0.080371   0.456170   0.009107  -0.030735  -0.002548
     9  H    0.007271  -0.000152   0.451315  -0.011709  -0.082900  -0.007234
    10  H    0.000540  -0.008747  -0.010194   0.407041  -0.010033  -0.007082
    11  H   -0.000613  -0.065231   0.027828   0.424667   0.003769  -0.004752
    12  H    0.001690  -0.017214  -0.027917   0.414856   0.002340   0.005591
    13  H   -0.032491   0.021745  -0.024755  -0.000201   0.393426  -0.000211
    14  H    0.249861   0.000965  -0.023137   0.004642   0.007623   0.000054
               7          8          9         10         11         12
     1  O   -0.005990  -0.004444   0.007271   0.000540  -0.000613   0.001690
     2  C    0.476587  -0.080371  -0.000152  -0.008747  -0.065231  -0.017214
     3  C   -0.015465   0.456170   0.451315  -0.010194   0.027828  -0.027917
     4  C   -0.061651   0.009107  -0.011709   0.407041   0.424667   0.414856
     5  C   -0.023948  -0.030735  -0.082900  -0.010033   0.003769   0.002340
     6  H   -0.029365  -0.002548  -0.007234  -0.007082  -0.004752   0.005591
     7  H    0.485399  -0.006144   0.004166   0.005137  -0.003311  -0.006383
     8  H   -0.006144   0.527098  -0.027144   0.000050  -0.000121  -0.000277
     9  H    0.004166  -0.027144   0.503844   0.000883  -0.000226  -0.000014
    10  H    0.005137   0.000050   0.000883   0.551394  -0.025574  -0.036147
    11  H   -0.003311  -0.000121  -0.000226  -0.025574   0.535242  -0.025612
    12  H   -0.006383  -0.000277  -0.000014  -0.036147  -0.025612   0.543794
    13  H   -0.000261  -0.002145  -0.002614  -0.000060   0.000009   0.000187
    14  H    0.000142   0.000075  -0.000192   0.000029   0.000007  -0.000330
              13         14
     1  O   -0.032491   0.249861
     2  C    0.021745   0.000965
     3  C   -0.024755  -0.023137
     4  C   -0.000201   0.004642
     5  C    0.393426   0.007623
     6  H   -0.000211   0.000054
     7  H   -0.000261   0.000142
     8  H   -0.002145   0.000075
     9  H   -0.002614  -0.000192
    10  H   -0.000060   0.000029
    11  H    0.000009   0.000007
    12  H    0.000187  -0.000330
    13  H    0.493024  -0.007421
    14  H   -0.007421   0.502805
          Atomic-Atomic Spin Densities.
               1          2          3          4          5          6
     1  O    0.261436   0.025936   0.003767   0.005157  -0.240961  -0.000149
     2  C    0.025936   0.286253  -0.118066  -0.001993  -0.181108  -0.007622
     3  C    0.003767  -0.118066   0.043144  -0.000397  -0.000631   0.006674
     4  C    0.005157  -0.001993  -0.000397   0.024040  -0.003989   0.000531
     5  C   -0.240961  -0.181108  -0.000631  -0.003989   1.470891   0.000869
     6  H   -0.000149  -0.007622   0.006674   0.000531   0.000869  -0.003586
     7  H    0.000055   0.004680  -0.007404  -0.001944   0.003043   0.000348
     8  H    0.004199  -0.066001   0.046094   0.003801  -0.001752   0.001689
     9  H    0.000693   0.024274  -0.008174  -0.002503  -0.018299  -0.000486
    10  H    0.000125   0.005165  -0.004425  -0.001991  -0.001120  -0.000017
    11  H   -0.000584  -0.006134   0.003646  -0.003424   0.004925   0.000223
    12  H    0.003135   0.009929   0.001497   0.006095  -0.022876  -0.000375
    13  H    0.004856   0.015403   0.007915  -0.000183  -0.038114  -0.000035
    14  H    0.002827   0.002449  -0.001383   0.000516  -0.008355  -0.000006
               7          8          9         10         11         12
     1  O    0.000055   0.004199   0.000693   0.000125  -0.000584   0.003135
     2  C    0.004680  -0.066001   0.024274   0.005165  -0.006134   0.009929
     3  C   -0.007404   0.046094  -0.008174  -0.004425   0.003646   0.001497
     4  C   -0.001944   0.003801  -0.002503  -0.001991  -0.003424   0.006095
     5  C    0.003043  -0.001752  -0.018299  -0.001120   0.004925  -0.022876
     6  H    0.000348   0.001689  -0.000486  -0.000017   0.000223  -0.000375
     7  H   -0.000441  -0.000104   0.000111   0.000082   0.000196  -0.000022
     8  H   -0.000104   0.060468  -0.003889  -0.000043   0.000077  -0.000104
     9  H    0.000111  -0.003889   0.006775   0.000196  -0.000074   0.000149
    10  H    0.000082  -0.000043   0.000196  -0.002461   0.000576   0.000315
    11  H    0.000196   0.000077  -0.000074   0.000576   0.000479  -0.000327
    12  H   -0.000022  -0.000104   0.000149   0.000315  -0.000327  -0.009803
    13  H    0.000015  -0.003792   0.001630   0.000028  -0.000025   0.000360
    14  H    0.000011  -0.000363   0.000067  -0.000002  -0.000004   0.000037
              13         14
     1  O    0.004856   0.002827
     2  C    0.015403   0.002449
     3  C    0.007915  -0.001383
     4  C   -0.000183   0.000516
     5  C   -0.038114  -0.008355
     6  H   -0.000035  -0.000006
     7  H    0.000015   0.000011
     8  H   -0.003792  -0.000363
     9  H    0.001630   0.000067
    10  H    0.000028  -0.000002
    11  H   -0.000025  -0.000004
    12  H    0.000360   0.000037
    13  H   -0.028340   0.001359
    14  H    0.001359  -0.001814
 Mulliken charges and spin densities:
               1          2
     1  O   -0.281012   0.070494
     2  C   -0.224387  -0.006835
     3  C   -0.301135  -0.027743
     4  C   -0.458613   0.023716
     5  C   -0.225517   0.962523
     6  H    0.144675  -0.001943
     7  H    0.181088  -0.001372
     8  H    0.161430   0.040280
     9  H    0.164706   0.000472
    10  H    0.132765  -0.003571
    11  H    0.133919  -0.000450
    12  H    0.145436  -0.011987
    13  H    0.161767  -0.038923
    14  H    0.264877  -0.004660
 Sum of Mulliken charges =  -0.00000   1.00000
 Mulliken charges and spin densities with hydrogens summed into heavy atoms:
               1          2
     1  O   -0.016135   0.065834
     2  C    0.101377  -0.010150
     3  C    0.025001   0.013009
     4  C   -0.046493   0.007707
     5  C   -0.063750   0.923600
 APT charges:
               1
     1  O   -0.789756
     2  C   -0.697205
     3  C   -0.835534
     4  C   -1.154865
     5  C   -0.450348
     6  H    0.471128
     7  H    0.320205
     8  H    0.397520
     9  H    0.401957
    10  H    0.364020
    11  H    0.512599
    12  H    0.228478
    13  H    0.503971
    14  H    0.727832
 Sum of APT charges =  -0.00000
 APT charges with hydrogens summed into heavy atoms:
               1
     1  O   -0.061924
     2  C    0.094127
     3  C   -0.036058
     4  C   -0.049769
     5  C    0.053623
 Electronic spatial extent (au):  <R**2>=            506.1092
 Charge=             -0.0000 electrons
 Dipole moment (field-independent basis, Debye):
    X=              0.9942    Y=              0.0192    Z=              0.8315  Tot=              1.2962
 Quadrupole moment (field-independent basis, Debye-Ang):
   XX=            -28.5989   YY=            -31.9981   ZZ=            -34.0932
   XY=             -2.5937   XZ=              2.4135   YZ=              0.0197
 Traceless Quadrupole moment (field-independent basis, Debye-Ang):
   XX=              2.9645   YY=             -0.4347   ZZ=             -2.5298
   XY=             -2.5937   XZ=              2.4135   YZ=              0.0197
 Octapole moment (field-independent basis, Debye-Ang**2):
  XXX=             23.6473  YYY=             -4.7780  ZZZ=             -1.9647  XYY=              6.6522
  XXY=             -9.2259  XXZ=              3.3824  XZZ=              2.0314  YZZ=              0.8741
  YYZ=             -0.6169  XYZ=             -1.4322
 Hexadecapole moment (field-independent basis, Debye-Ang**3):
 XXXX=           -372.7839 YYYY=           -155.6756 ZZZZ=           -108.2603 XXXY=            -33.0250
 XXXZ=              9.1518 YYYX=            -14.8045 YYYZ=              0.6896 ZZZX=             -1.1770
 ZZZY=              4.5254 XXYY=            -82.9444 XXZZ=            -87.5428 YYZZ=            -43.3040
 XXYZ=              0.8952 YYXZ=             -0.0969 ZZXY=             -1.4930
 N-N= 1.831052843314D+02 E-N=-9.093949148918D+02  KE= 2.320747635719D+02
  Exact polarizability:   0.000   0.000   0.000   0.000   0.000   0.000
 Approx polarizability:  61.175  -2.248  60.538   0.688   0.341  61.285
                          Isotropic Fermi Contact Couplings
        Atom                 a.u.       MegaHertz       Gauss      10(-4) cm-1
     1  O(17)              0.02810     -17.03559      -6.07872      -5.68246
     2  C(13)              0.02578      28.98255      10.34169       9.66754
     3  C(13)             -0.02274     -25.56794      -9.12328      -8.52855
     4  C(13)              0.00186       2.09440       0.74733       0.69862
     5  C(13)              0.20851     234.40781      83.64253      78.19003
     6  H(1)              -0.00066      -2.95111      -1.05303      -0.98439
     7  H(1)              -0.00041      -1.83860      -0.65606      -0.61329
     8  H(1)               0.02219      99.20828      35.39998      33.09232
     9  H(1)               0.00107       4.79188       1.70986       1.59840
    10  H(1)              -0.00013      -0.57217      -0.20416      -0.19085
    11  H(1)              -0.00011      -0.49403      -0.17628      -0.16479
    12  H(1)               0.00044       1.97692       0.70542       0.65943
    13  H(1)              -0.00797     -35.63269     -12.71463     -11.88579
    14  H(1)              -0.00182      -8.11518      -2.89570      -2.70693
 --------------------------------------------------------
       Center         ----  Spin Dipole Couplings  ----
                      3XX-RR        3YY-RR        3ZZ-RR
 --------------------------------------------------------
     1   Atom        0.059024      0.115677     -0.174701
     2   Atom        0.012754     -0.008993     -0.003761
     3   Atom       -0.000380      0.002764     -0.002384
     4   Atom        0.008002     -0.001930     -0.006072
     5   Atom       -0.061614      0.238673     -0.177060
     6   Atom        0.004284     -0.002509     -0.001775
     7   Atom        0.000827     -0.005427      0.004600
     8   Atom       -0.003250      0.004830     -0.001580
     9   Atom        0.003820      0.006957     -0.010777
    10   Atom        0.007451     -0.003963     -0.003489
    11   Atom        0.003693     -0.001533     -0.002160
    12   Atom        0.010526     -0.001231     -0.009296
    13   Atom       -0.001302     -0.026326      0.027628
    14   Atom        0.022396     -0.003147     -0.019249
 --------------------------------------------------------
                        XY            XZ            YZ
 --------------------------------------------------------
     1   Atom        0.449845     -0.288109     -0.358954
     2   Atom        0.010472      0.021767      0.007668
     3   Atom       -0.010946      0.009064     -0.011450
     4   Atom       -0.001807      0.005628     -0.004946
     5   Atom        0.590725     -0.389887     -0.511814
     6   Atom       -0.002651      0.004730     -0.001984
     7   Atom        0.000692      0.007450      0.002223
     8   Atom       -0.006989      0.004684     -0.010082
     9   Atom       -0.013880     -0.002537      0.000912
    10   Atom       -0.000025     -0.002015      0.000200
    11   Atom        0.002215      0.001768      0.000182
    12   Atom        0.009906      0.002165      0.000051
    13   Atom        0.042586      0.047989      0.003316
    14   Atom       -0.025443      0.002574     -0.005056
 --------------------------------------------------------


 ---------------------------------------------------------------------------------
              Anisotropic Spin Dipole Couplings in Principal Axis System
 ---------------------------------------------------------------------------------

       Atom             a.u.   MegaHertz   Gauss  10(-4) cm-1        Axes

              Baa    -0.4182    30.258    10.797    10.093 -0.1138  0.6186  0.7774
     1 O(17)  Bbb    -0.3448    24.948     8.902     8.322  0.7885 -0.4198  0.4495
              Bcc     0.7629   -55.206   -19.699   -18.415  0.6045  0.6641 -0.4400
 
              Baa    -0.0188    -2.523    -0.900    -0.842 -0.5536 -0.0584  0.8307
     2 C(13)  Bbb    -0.0131    -1.756    -0.627    -0.586 -0.2830  0.9514 -0.1217
              Bcc     0.0319     4.280     1.527     1.428  0.7832  0.3025  0.5432
 
              Baa    -0.0116    -1.552    -0.554    -0.518 -0.0915  0.5780  0.8109
     3 C(13)  Bbb    -0.0097    -1.300    -0.464    -0.434  0.8308  0.4932 -0.2578
              Bcc     0.0213     2.853     1.018     0.952 -0.5489  0.6502 -0.5253
 
              Baa    -0.0102    -1.368    -0.488    -0.456 -0.2190  0.4654  0.8576
     4 C(13)  Bbb    -0.0007    -0.096    -0.034    -0.032  0.4037  0.8434 -0.3546
              Bcc     0.0109     1.464     0.522     0.488  0.8883 -0.2686  0.3726
 
              Baa    -0.5252   -70.475   -25.147   -23.508 -0.4633  0.7119  0.5278
     5 C(13)  Bbb    -0.5134   -68.888   -24.581   -22.979  0.7019 -0.0688  0.7090
              Bcc     1.0386   139.364    49.728    46.487  0.5410  0.6989 -0.4678
 
              Baa    -0.0046    -2.433    -0.868    -0.812 -0.3422  0.3863  0.8565
     6 H(1)   Bbb    -0.0033    -1.785    -0.637    -0.595  0.4382  0.8720 -0.2182
              Bcc     0.0079     4.218     1.505     1.407  0.8312 -0.3007  0.4677
 
              Baa    -0.0062    -3.330    -1.188    -1.111  0.3582  0.8351 -0.4174
     7 H(1)   Bbb    -0.0045    -2.376    -0.848    -0.792  0.7127 -0.5334 -0.4555
              Bcc     0.0107     5.706     2.036     1.903  0.6031  0.1343  0.7863
 
              Baa    -0.0090    -4.804    -1.714    -1.602  0.1410  0.6287  0.7648
     8 H(1)   Bbb    -0.0069    -3.678    -1.312    -1.227  0.9047  0.2319 -0.3575
              Bcc     0.0159     8.482     3.026     2.829 -0.4021  0.7423 -0.5360
 
              Baa    -0.0115    -6.147    -2.193    -2.050  0.3446  0.2137  0.9141
     9 H(1)   Bbb    -0.0080    -4.280    -1.527    -1.428  0.6607  0.6365 -0.3979
              Bcc     0.0195    10.427     3.721     3.478 -0.6669  0.7411  0.0781
 
              Baa    -0.0041    -2.191    -0.782    -0.731 -0.1009  0.8019 -0.5888
    10 H(1)   Bbb    -0.0037    -1.977    -0.705    -0.659  0.1438  0.5974  0.7889
              Bcc     0.0078     4.167     1.487     1.390  0.9844 -0.0051 -0.1756
 
              Baa    -0.0029    -1.549    -0.553    -0.517 -0.3779  0.5076  0.7743
    11 H(1)   Bbb    -0.0020    -1.079    -0.385    -0.360 -0.1284  0.7995 -0.5868
              Bcc     0.0049     2.628     0.938     0.877  0.9169  0.3211  0.2370
 
              Baa    -0.0098    -5.227    -1.865    -1.743 -0.2236  0.2530  0.9413
    12 H(1)   Bbb    -0.0065    -3.475    -1.240    -1.159 -0.4429  0.8339 -0.3294
              Bcc     0.0163     8.702     3.105     2.903  0.8682  0.4906  0.0744
 
              Baa    -0.0670   -35.723   -12.747   -11.916 -0.6678  0.6743  0.3152
    13 H(1)   Bbb    -0.0052    -2.766    -0.987    -0.923  0.3841  0.6749 -0.6300
              Bcc     0.0721    38.489    13.734    12.838  0.6376  0.2997  0.7097
 
              Baa    -0.0222   -11.855    -4.230    -3.954  0.2936  0.5909  0.7514
    14 H(1)   Bbb    -0.0163    -8.687    -3.100    -2.898 -0.4454 -0.6109  0.6545
              Bcc     0.0385    20.542     7.330     6.852  0.8458 -0.5269  0.0838
 

 ---------------------------------------------------------------------------------

 No NMR shielding tensors so no spin-rotation constants.
 Leave Link  601 at Fri Apr 12 17:49:18 2019, MaxMem=   671088640 cpu:               7.4 elap:               0.4
 (Enter /shared/centos7/gaussian/g16/l701.exe)
 ... and contract with generalized density number  0.
 Compute integral second derivatives.
 Leave Link  701 at Fri Apr 12 17:49:19 2019, MaxMem=   671088640 cpu:               6.3 elap:               0.3
 (Enter /shared/centos7/gaussian/g16/l702.exe)
 L702 exits ... SP integral derivatives will be done elsewhere.
 Leave Link  702 at Fri Apr 12 17:49:19 2019, MaxMem=   671088640 cpu:               0.3 elap:               0.0
 (Enter /shared/centos7/gaussian/g16/l703.exe)
 Integral derivatives from FoFJK, PRISM(SPDF).
 Compute integral second derivatives, UseDBF=F ICtDFT=           0.
 Calling FoFJK, ICntrl=    100147 FMM=F ISym2X=0 I1Cent= 0 IOpClX= 1 NMat=1 NMatS=1 NMatT=0.
 FoFJK:  IHMeth= 1 ICntrl=  100147 DoSepK=F KAlg= 0 I1Cent=           0 FoldK=F
 IRaf=         0 NMat=       1 IRICut=       1 DoRegI=T DoRafI=F ISym2E= 0 IDoP0=0 IntGTp=1.
 FoFCou: FMM=F IPFlag=           0 FMFlag=      100000 FMFlg1=         800
         NFxFlg=           0 DoJE=F BraDBF=F KetDBF=F FulRan=T
         wScrn=  0.000000 ICntrl=    100147 IOpCl=  1 I1Cent=           0 NGrid=           0
         NMat0=    1 NMatS0=      1 NMatT0=    0 NMatD0=    1 NMtDS0=    0 NMtDT0=    0
 Symmetry not used in FoFCou.
 Leave Link  703 at Fri Apr 12 17:50:40 2019, MaxMem=   671088640 cpu:            1621.5 elap:              81.1
 (Enter /shared/centos7/gaussian/g16/l716.exe)
 Dipole        = 3.91148632D-01 7.54565512D-03 3.27138980D-01
 Polarizability= 0.00000000D+00 0.00000000D+00 0.00000000D+00
                 0.00000000D+00 0.00000000D+00 0.00000000D+00
 ***** Axes restored to original set *****
 -------------------------------------------------------------------
 Center     Atomic                   Forces (Hartrees/Bohr)
 Number     Number              X              Y              Z
 -------------------------------------------------------------------
      1        8           0.000000356   -0.000000383    0.000000935
      2        6           0.000000676   -0.000001013   -0.000000469
      3        6           0.000000119    0.000000060    0.000001679
      4        6          -0.000000375    0.000000196   -0.000002462
      5        6          -0.000000453    0.000000863    0.000001504
      6        1           0.000001134   -0.000001636   -0.000000172
      7        1           0.000001430   -0.000002151   -0.000000813
      8        1           0.000000917   -0.000000867    0.000003082
      9        1          -0.000000621    0.000001168    0.000002111
     10        1          -0.000001156    0.000001338   -0.000002122
     11        1           0.000000028   -0.000000593   -0.000003955
     12        1          -0.000000812    0.000000751   -0.000002826
     13        1          -0.000001192    0.000002059    0.000002571
     14        1          -0.000000050    0.000000208    0.000000936
 -------------------------------------------------------------------
 Cartesian Forces:  Max     0.000003955 RMS     0.000001462
 FormGI is forming the generalized inverse of G from B-inverse, IUseBI=4.
 Leave Link  716 at Fri Apr 12 17:50:40 2019, MaxMem=   671088640 cpu:               0.5 elap:               0.0
 (Enter /shared/centos7/gaussian/g16/l103.exe)

 GradGradGradGradGradGradGradGradGradGradGradGradGradGradGradGradGradGrad
 Berny optimization.
 Red2BG is reusing G-inverse.
 Internal  Forces:  Max     0.000000014 RMS     0.000000004
 Search for a local minimum.
 Step number   1 out of a maximum of   71 on scan point     1 out of    37
 All quantities printed in internal units (Hartrees-Bohrs-Radians)
 RMS Force = .35486D-08 SwitMx=.10000D-02 MixMth= 2
 Mixed Optimization -- En-DIIS/RFO-DIIS
 Second derivative matrix not updated -- analytic derivatives used.
 ITU=  0
     Eigenvalues ---    0.01089   0.01326   0.01649   0.03397   0.04002
     Eigenvalues ---    0.04134   0.04548   0.06016   0.06728   0.09314
     Eigenvalues ---    0.10626   0.11623   0.12116   0.13916   0.15431
     Eigenvalues ---    0.15556   0.19959   0.21263   0.22580   0.28631
     Eigenvalues ---    0.31065   0.31391   0.33356   0.33541   0.33839
     Eigenvalues ---    0.34201   0.34452   0.34946   0.35061   0.35499
     Eigenvalues ---    0.44646   0.552701000.000001000.000001000.00000
     Eigenvalues --- 1000.000001000.000001000.000001000.000001000.00000
     Eigenvalues --- 1000.000001000.000001000.000001000.000001000.00000
     Eigenvalues --- 1000.000001000.000001000.000001000.000001000.00000
     Eigenvalues --- 1000.000001000.000001000.000001000.000001000.00000
     Eigenvalues --- 1000.000001000.000001000.000001000.000001000.00000
     Eigenvalues --- 1000.00000
 RFO step:  Lambda= 0.00000000D+00 EMin= 1.08917871D-02
 Linear search not attempted -- first point.
 Iteration  1 RMS(Cart)=  0.00000028 RMS(Int)=  0.00000000
 Iteration  1 RMS(Cart)=  0.00000000 RMS(Int)=  0.00000000
 ITry= 1 IFail=0 DXMaxC= 1.01D-06 DCOld= 1.00D+10 DXMaxT= 3.00D-01 DXLimC= 3.00D+00 Rises=F
 Variable       Old X    -DE/DX   Delta X   Delta X   Delta X     New X
                                 (Linear)    (Quad)   (Total)
    R1        2.58413   0.00000   0.00000   0.00000   0.00000   2.58413
    R2        1.81142  -0.00000   0.00000  -0.00000  -0.00000   1.81142
    R3        2.89791   0.00000   0.00000   0.00000   0.00000   2.89791
    R4        2.87984  -0.00000   0.00000  -0.00000  -0.00000   2.87984
    R5        2.06213  -0.00000   0.00000  -0.00000  -0.00000   2.06213
    R6        2.06137   0.00000   0.00000   0.00000   0.00000   2.06137
    R7        2.80500  -0.00000   0.00000   0.00000   0.00000   2.80500
    R8        2.07665  -0.00000   0.00000  -0.00000  -0.00000   2.07665
    R9        2.06371  -0.00000   0.00000  -0.00000  -0.00000   2.06371
   R10        2.06267  -0.00000   0.00000  -0.00000  -0.00000   2.06267
   R11        2.05871   0.00000   0.00000   0.00000   0.00000   2.05871
   R12        2.05973   0.00000   0.00000   0.00000   0.00000   2.05973
   R13        2.04685  -0.00000   0.00000  -0.00000  -0.00000   2.04685
    A1        1.92321   0.00000   0.00000   0.00000   0.00000   1.92321
    A2        1.96575  -0.00000   0.00000  -0.00000  -0.00000   1.96575
    A3        1.89599   0.00000   0.00000   0.00000   0.00000   1.89599
    A4        1.89891   0.00000   0.00000   0.00000   0.00000   1.89891
    A5        1.91996  -0.00000   0.00000  -0.00000  -0.00000   1.91996
    A6        1.91619   0.00000   0.00000  -0.00000  -0.00000   1.91619
    A7        1.86409  -0.00000   0.00000  -0.00000  -0.00000   1.86408
    A8        1.97272   0.00000   0.00000   0.00000   0.00000   1.97272
    A9        1.89806  -0.00000   0.00000   0.00000   0.00000   1.89806
   A10        1.91756  -0.00000   0.00000  -0.00000  -0.00000   1.91756
   A11        1.92051  -0.00000   0.00000  -0.00000  -0.00000   1.92051
   A12        1.88874   0.00000   0.00000   0.00000   0.00000   1.88874
   A13        1.86314   0.00000   0.00000   0.00000   0.00000   1.86314
   A14        1.93490  -0.00000   0.00000  -0.00000  -0.00000   1.93490
   A15        1.94299  -0.00000   0.00000   0.00000   0.00000   1.94299
   A16        1.93283   0.00000   0.00000   0.00000   0.00000   1.93283
   A17        1.88445   0.00000   0.00000  -0.00000  -0.00000   1.88445
   A18        1.87920   0.00000   0.00000  -0.00000  -0.00000   1.87920
   A19        1.88723   0.00000   0.00000   0.00000   0.00000   1.88723
   A20        1.99389  -0.00000   0.00000  -0.00000  -0.00000   1.99389
   A21        2.03935  -0.00000   0.00000  -0.00000  -0.00000   2.03935
   A22        2.12138   0.00000   0.00000  -0.00000  -0.00000   2.12138
    D1        3.08385  -0.00000   0.00000  -0.00000  -0.00000   3.08385
    D2        0.45584   0.00000   0.00000   0.00000  -0.00000   0.45584
    D3        1.07006   0.00000   0.00000   0.00000   0.00000   1.07006
    D4       -3.07490   0.00000   0.00000   0.00000   0.00000  -3.07490
    D5       -1.04149   0.00000   0.00000   0.00000   0.00000  -1.04149
    D6       -3.08173   0.00000   0.00000   0.00000   0.00000  -3.08173
    D7       -0.94350   0.00000   0.00000   0.00000   0.00000  -0.94350
    D8        1.08990  -0.00000   0.00000   0.00000   0.00000   1.08990
    D9       -1.05860   0.00000   0.00000   0.00000   0.00000  -1.05860
   D10        1.07962   0.00000   0.00000   0.00000   0.00000   1.07962
   D11        3.11303  -0.00000   0.00000   0.00000   0.00000   3.11303
   D12        1.00743  -0.00000   0.00000   0.00000   0.00000   1.00743
   D13        3.10556  -0.00000   0.00000   0.00000   0.00000   3.10556
   D14       -1.07738   0.00000   0.00000   0.00000   0.00000  -1.07738
   D15       -1.11038  -0.00000   0.00000  -0.00000  -0.00000  -1.11038
   D16        0.98775  -0.00000   0.00000  -0.00000  -0.00000   0.98775
   D17        3.08800  -0.00000   0.00000  -0.00000  -0.00000   3.08800
   D18        3.12629   0.00000   0.00000   0.00000   0.00000   3.12629
   D19       -1.05877   0.00000   0.00000   0.00000  -0.00000  -1.05877
   D20        1.04148   0.00000   0.00000   0.00000   0.00000   1.04148
   D21        0.97463   0.00000   0.00000   0.00000   0.00000   0.97463
   D22       -2.70722  -0.00000   0.00000  -0.00000  -0.00000  -2.70722
   D23       -1.15101   0.00000   0.00000   0.00000   0.00000  -1.15101
   D24        1.45032  -0.00000   0.00000   0.00000  -0.00000   1.45032
   D25        3.10245   0.00000   0.00000   0.00000   0.00000   3.10245
   D26       -0.57940  -0.00000   0.00000   0.00000   0.00000  -0.57940
         Item               Value     Threshold  Converged?
 Maximum Force            0.000000     0.000450     YES
 RMS     Force            0.000000     0.000300     YES
 Maximum Displacement     0.000001     0.001800     YES
 RMS     Displacement     0.000000     0.001200     YES
 Predicted change in Energy=-7.203249D-15
 Optimization completed.
    -- Stationary point found.
                           ----------------------------
                           !   Optimized Parameters   !
                           ! (Angstroms and Degrees)  !
 --------------------------                            --------------------------
 ! Name  Definition              Value          Derivative Info.                !
 --------------------------------------------------------------------------------
 ! R1    R(1,5)                  1.3675         -DE/DX =    0.0                 !
 ! R2    R(1,14)                 0.9586         -DE/DX =    0.0                 !
 ! R3    R(2,3)                  1.5335         -DE/DX =    0.0                 !
 ! R4    R(2,4)                  1.5239         -DE/DX =    0.0                 !
 ! R5    R(2,6)                  1.0912         -DE/DX =    0.0                 !
 ! R6    R(2,7)                  1.0908         -DE/DX =    0.0                 !
 ! R7    R(3,5)                  1.4843         -DE/DX =    0.0                 !
 ! R8    R(3,8)                  1.0989         -DE/DX =    0.0                 !
 ! R9    R(3,9)                  1.0921         -DE/DX =    0.0                 !
 ! R10   R(4,10)                 1.0915         -DE/DX =    0.0                 !
 ! R11   R(4,11)                 1.0894         -DE/DX =    0.0                 !
 ! R12   R(4,12)                 1.09           -DE/DX =    0.0                 !
 ! R13   R(5,13)                 1.0831         -DE/DX =    0.0                 !
 ! A1    A(5,1,14)             110.1919         -DE/DX =    0.0                 !
 ! A2    A(3,2,4)              112.6293         -DE/DX =    0.0                 !
 ! A3    A(3,2,6)              108.6324         -DE/DX =    0.0                 !
 ! A4    A(3,2,7)              108.7993         -DE/DX =    0.0                 !
[...]
  Beta virt. eigenvalues --    3.08062   3.08991   3.10787   3.12112   3.17467
  Beta virt. eigenvalues --    3.18871   3.24264   3.27644   3.30222   3.31922
  Beta virt. eigenvalues --    3.32582   3.36091   3.37284   3.38221   3.40996
  Beta virt. eigenvalues --    3.42052   3.44189   3.47817   3.49720   3.51040
  Beta virt. eigenvalues --    3.57910   3.59540   3.61229   3.63843   3.64647
  Beta virt. eigenvalues --    3.67576   3.69220   3.71020   3.74797   3.77087
  Beta virt. eigenvalues --    3.80930   3.81853   3.87359   3.90362   3.91227
  Beta virt. eigenvalues --    3.96777   3.98758   4.00561   4.01949   4.03242
  Beta virt. eigenvalues --    4.03779   4.06176   4.09958   4.12416   4.18586
  Beta virt. eigenvalues --    4.19295   4.21321   4.23149   4.25316   4.26126
  Beta virt. eigenvalues --    4.29826   4.31390   4.31483   4.42108   4.44230
  Beta virt. eigenvalues --    4.46410   4.49023   4.51549   4.54672   4.57014
  Beta virt. eigenvalues --    4.58625   4.60501   4.66230   4.67143   4.72973
  Beta virt. eigenvalues --    4.73951   4.78545   5.04827   5.20092   5.21101
  Beta virt. eigenvalues --    5.24066   5.30258   5.36341   5.42972   5.45108
  Beta virt. eigenvalues --    5.51249   5.59002   5.61111   5.63785   5.67766
  Beta virt. eigenvalues --    5.68861   5.73664   5.81563   6.10202   6.60625
  Beta virt. eigenvalues --    6.95423   7.15596   7.19807   7.21128   7.56766
  Beta virt. eigenvalues --    7.64211  24.30561  24.33784  24.45887  24.54313
  Beta virt. eigenvalues --   50.13012
          Condensed to atoms (all electrons):
               1          2          3          4          5          6
     1  O    8.035396   0.065554  -0.081279  -0.030225   0.076482  -0.000726
     2  C    0.065554   5.634476  -0.103277   0.089200  -0.213421   0.424301
     3  C   -0.081279  -0.103277   5.541533  -0.018142   0.189765  -0.061340
     4  C   -0.030225   0.089200  -0.018142   5.218090   0.033399  -0.020482
     5  C    0.076482  -0.213421   0.189765   0.033399   5.847999   0.031745
     6  H   -0.000726   0.424301  -0.061340  -0.020482   0.031745   0.527373
     7  H   -0.005989   0.476555  -0.015457  -0.061619  -0.023935  -0.029366
     8  H   -0.004442  -0.080395   0.456162   0.009118  -0.030715  -0.002548
     9  H    0.007271  -0.000154   0.451336  -0.011712  -0.082920  -0.007237
    10  H    0.000540  -0.008738  -0.010195   0.407028  -0.010039  -0.007086
    11  H   -0.000614  -0.065188   0.027819   0.424657   0.003776  -0.004746
    12  H    0.001692  -0.017244  -0.027920   0.414870   0.002327   0.005594
    13  H   -0.032493   0.021743  -0.024742  -0.000203   0.393420  -0.000211
    14  H    0.249862   0.000968  -0.023150   0.004643   0.007630   0.000054
               7          8          9         10         11         12
     1  O   -0.005989  -0.004442   0.007271   0.000540  -0.000614   0.001692
     2  C    0.476555  -0.080395  -0.000154  -0.008738  -0.065188  -0.017244
     3  C   -0.015457   0.456162   0.451336  -0.010195   0.027819  -0.027920
     4  C   -0.061619   0.009118  -0.011712   0.407028   0.424657   0.414870
     5  C   -0.023935  -0.030715  -0.082920  -0.010039   0.003776   0.002327
     6  H   -0.029366  -0.002548  -0.007237  -0.007086  -0.004746   0.005594
     7  H    0.485396  -0.006141   0.004165   0.005136  -0.003304  -0.006383
     8  H   -0.006141   0.527103  -0.027145   0.000051  -0.000121  -0.000277
     9  H    0.004165  -0.027145   0.503839   0.000880  -0.000226  -0.000015
    10  H    0.005136   0.000051   0.000880   0.551417  -0.025574  -0.036152
    11  H   -0.003304  -0.000121  -0.000226  -0.025574   0.535194  -0.025611
    12  H   -0.006383  -0.000277  -0.000015  -0.036152  -0.025611   0.543821
    13  H   -0.000261  -0.002145  -0.002613  -0.000060   0.000009   0.000187
    14  H    0.000142   0.000075  -0.000192   0.000029   0.000007  -0.000330
              13         14
     1  O   -0.032493   0.249862
     2  C    0.021743   0.000968
     3  C   -0.024742  -0.023150
     4  C   -0.000203   0.004643
     5  C    0.393420   0.007630
     6  H   -0.000211   0.000054
     7  H   -0.000261   0.000142
     8  H   -0.002145   0.000075
     9  H   -0.002613  -0.000192
    10  H   -0.000060   0.000029
    11  H    0.000009   0.000007
    12  H    0.000187  -0.000330
    13  H    0.493016  -0.007419
    14  H   -0.007419   0.502807
          Atomic-Atomic Spin Densities.
               1          2          3          4          5          6
     1  O    0.261429   0.025940   0.003765   0.005158  -0.240958  -0.000149
     2  C    0.025940   0.286323  -0.118074  -0.002013  -0.181163  -0.007619
     3  C    0.003765  -0.118074   0.043141  -0.000398  -0.000626   0.006671
     4  C    0.005158  -0.002013  -0.000398   0.024079  -0.003984   0.000532
     5  C   -0.240958  -0.181163  -0.000626  -0.003984   1.470951   0.000868
     6  H   -0.000149  -0.007619   0.006671   0.000532   0.000868  -0.003587
     7  H    0.000055   0.004678  -0.007402  -0.001942   0.003043   0.000348
     8  H    0.004198  -0.066017   0.046096   0.003803  -0.001743   0.001689
     9  H    0.000693   0.024281  -0.008167  -0.002505  -0.018310  -0.000486
    10  H    0.000125   0.005168  -0.004421  -0.001991  -0.001124  -0.000017
    11  H   -0.000584  -0.006136   0.003647  -0.003427   0.004929   0.000223
    12  H    0.003138   0.009936   0.001494   0.006100  -0.022888  -0.000376
    13  H    0.004857   0.015403   0.007919  -0.000185  -0.038118  -0.000035
    14  H    0.002828   0.002451  -0.001382   0.000516  -0.008361  -0.000006
               7          8          9         10         11         12
     1  O    0.000055   0.004198   0.000693   0.000125  -0.000584   0.003138
     2  C    0.004678  -0.066017   0.024281   0.005168  -0.006136   0.009936
     3  C   -0.007402   0.046096  -0.008167  -0.004421   0.003647   0.001494
     4  C   -0.001942   0.003803  -0.002505  -0.001991  -0.003427   0.006100
     5  C    0.003043  -0.001743  -0.018310  -0.001124   0.004929  -0.022888
     6  H    0.000348   0.001689  -0.000486  -0.000017   0.000223  -0.000376
     7  H   -0.000439  -0.000103   0.000111   0.000082   0.000196  -0.000022
     8  H   -0.000103   0.060479  -0.003890  -0.000043   0.000077  -0.000104
     9  H    0.000111  -0.003890   0.006771   0.000195  -0.000074   0.000150
    10  H    0.000082  -0.000043   0.000195  -0.002469   0.000578   0.000313
    11  H    0.000196   0.000077  -0.000074   0.000578   0.000476  -0.000326
    12  H   -0.000022  -0.000104   0.000150   0.000313  -0.000326  -0.009809
    13  H    0.000015  -0.003792   0.001631   0.000028  -0.000025   0.000361
    14  H    0.000011  -0.000363   0.000067  -0.000002  -0.000004   0.000037
              13         14
     1  O    0.004857   0.002828
     2  C    0.015403   0.002451
     3  C    0.007919  -0.001382
     4  C   -0.000185   0.000516
     5  C   -0.038118  -0.008361
     6  H   -0.000035  -0.000006
     7  H    0.000015   0.000011
     8  H   -0.003792  -0.000363
     9  H    0.001631   0.000067
    10  H    0.000028  -0.000002
    11  H   -0.000025  -0.000004
    12  H    0.000361   0.000037
    13  H   -0.028354   0.001360
    14  H    0.001360  -0.001812
 Mulliken charges and spin densities:
               1          2
     1  O   -0.281029   0.070496
     2  C   -0.224378  -0.006840
     3  C   -0.301112  -0.027737
     4  C   -0.458623   0.023743
     5  C   -0.225513   0.962516
     6  H    0.144676  -0.001943
     7  H    0.181062  -0.001368
     8  H    0.161420   0.040287
     9  H    0.164723   0.000467
    10  H    0.132764  -0.003579
    11  H    0.133921  -0.000451
    12  H    0.145441  -0.011997
    13  H    0.161773  -0.038934
    14  H    0.264875  -0.004660
 Sum of Mulliken charges =  -0.00000   1.00000
 Mulliken charges and spin densities with hydrogens summed into heavy atoms:
               1          2
     1  O   -0.016154   0.065836
     2  C    0.101360  -0.010151
     3  C    0.025032   0.013017
     4  C   -0.046497   0.007716
     5  C   -0.063740   0.923582
 Electronic spatial extent (au):  <R**2>=            506.0898
 Charge=              0.0000 electrons
 Dipole moment (field-independent basis, Debye):
    X=              0.9941    Y=              0.0191    Z=              0.8318  Tot=              1.2963
 Quadrupole moment (field-independent basis, Debye-Ang):
   XX=            -28.5994   YY=            -31.9982   ZZ=            -34.0931
   XY=             -2.5938   XZ=              2.4135   YZ=              0.0200
 Traceless Quadrupole moment (field-independent basis, Debye-Ang):
   XX=              2.9642   YY=             -0.4346   ZZ=             -2.5296
   XY=             -2.5938   XZ=              2.4135   YZ=              0.0200
 Octapole moment (field-independent basis, Debye-Ang**2):
  XXX=             23.6427  YYY=             -4.7773  ZZZ=             -1.9647  XYY=              6.6517
  XXY=             -9.2280  XXZ=              3.3838  XZZ=              2.0328  YZZ=              0.8747
  YYZ=             -0.6174  XYZ=             -1.4324
 Hexadecapole moment (field-independent basis, Debye-Ang**3):
 XXXX=           -372.7495 YYYY=           -155.6729 ZZZZ=           -108.2628 XXXY=            -33.0158
 XXXZ=              9.1488 YYYX=            -14.8021 YYYZ=              0.6901 ZZZX=             -1.1756
 ZZZY=              4.5269 XXYY=            -82.9355 XXZZ=            -87.5427 YYZZ=            -43.3067
 XXYZ=              0.8940 YYXZ=             -0.0976 ZZXY=             -1.4942
 N-N= 1.831071049606D+02 E-N=-9.093985103195D+02  KE= 2.320747652735D+02
                          Isotropic Fermi Contact Couplings
        Atom                 a.u.       MegaHertz       Gauss      10(-4) cm-1
     1  O(17)              0.02810     -17.03358      -6.07800      -5.68179
     2  C(13)              0.02578      28.97718      10.33978       9.66575
     3  C(13)             -0.02275     -25.57974      -9.12749      -8.53248
     4  C(13)              0.00187       2.09829       0.74872       0.69991
     5  C(13)              0.20848     234.37360      83.63033      78.17862
     6  H(1)              -0.00066      -2.95272      -1.05361      -0.98492
     7  H(1)              -0.00041      -1.83854      -0.65604      -0.61327
     8  H(1)               0.02220      99.22375      35.40550      33.09748
     9  H(1)               0.00107       4.79670       1.71158       1.60001
    10  H(1)              -0.00013      -0.57318      -0.20452      -0.19119
    11  H(1)              -0.00011      -0.49451      -0.17645      -0.16495
    12  H(1)               0.00044       1.97479       0.70465       0.65872
    13  H(1)              -0.00798     -35.64752     -12.71992     -11.89073
    14  H(1)              -0.00181      -8.11201      -2.89457      -2.70588
 --------------------------------------------------------
       Center         ----  Spin Dipole Couplings  ----
                      3XX-RR        3YY-RR        3ZZ-RR
 --------------------------------------------------------
     1   Atom        0.059074      0.115736     -0.174809
     2   Atom        0.012756     -0.008990     -0.003766
     3   Atom       -0.000378      0.002761     -0.002382
     4   Atom        0.008007     -0.001932     -0.006076
     5   Atom       -0.061605      0.238821     -0.177217
     6   Atom        0.004286     -0.002509     -0.001777
     7   Atom        0.000826     -0.005427      0.004600
     8   Atom       -0.003249      0.004831     -0.001582
     9   Atom        0.003824      0.006954     -0.010778
    10   Atom        0.007454     -0.003964     -0.003490
    11   Atom        0.003694     -0.001532     -0.002162
    12   Atom        0.010533     -0.001231     -0.009302
    13   Atom       -0.001316     -0.026325      0.027641
    14   Atom        0.022394     -0.003144     -0.019249
 --------------------------------------------------------
                        XY            XZ            YZ
 --------------------------------------------------------
     1   Atom        0.449900     -0.288051     -0.358893
     2   Atom        0.010477      0.021767      0.007669
     3   Atom       -0.010946      0.009065     -0.011447
     4   Atom       -0.001815      0.005635     -0.004951
     5   Atom        0.590801     -0.389811     -0.511758
     6   Atom       -0.002651      0.004729     -0.001984
     7   Atom        0.000691      0.007448      0.002222
     8   Atom       -0.006990      0.004684     -0.010080
     9   Atom       -0.013880     -0.002538      0.000913
    10   Atom       -0.000025     -0.002016      0.000200
    11   Atom        0.002216      0.001767      0.000182
    12   Atom        0.009912      0.002168      0.000052
    13   Atom        0.042582      0.047992      0.003314
    14   Atom       -0.025443      0.002576     -0.005056
 --------------------------------------------------------


 ---------------------------------------------------------------------------------
              Anisotropic Spin Dipole Couplings in Principal Axis System
 ---------------------------------------------------------------------------------

       Atom             a.u.   MegaHertz   Gauss  10(-4) cm-1        Axes

              Baa    -0.4182    30.258    10.797    10.093 -0.1139  0.6186  0.7774
     1 O(17)  Bbb    -0.3448    24.948     8.902     8.322  0.7884 -0.4199  0.4496
              Bcc     0.7629   -55.206   -19.699   -18.415  0.6045  0.6641 -0.4399
 
              Baa    -0.0188    -2.524    -0.901    -0.842 -0.5536 -0.0582  0.8308
     2 C(13)  Bbb    -0.0131    -1.756    -0.627    -0.586 -0.2830  0.9513 -0.1219
              Bcc     0.0319     4.280     1.527     1.428  0.7832  0.3026  0.5431
 
              Baa    -0.0116    -1.552    -0.554    -0.518 -0.0914  0.5781  0.8109
     3 C(13)  Bbb    -0.0097    -1.300    -0.464    -0.434  0.8308  0.4932 -0.2579
              Bcc     0.0213     2.852     1.018     0.951 -0.5490  0.6501 -0.5253
 
              Baa    -0.0102    -1.369    -0.488    -0.457 -0.2190  0.4654  0.8576
     4 C(13)  Bbb    -0.0007    -0.097    -0.035    -0.032  0.4041  0.8433 -0.3544
              Bcc     0.0109     1.466     0.523     0.489  0.8881 -0.2690  0.3727
 
              Baa    -0.5252   -70.477   -25.148   -23.509 -0.4634  0.7118  0.5278
     5 C(13)  Bbb    -0.5134   -68.890   -24.582   -22.979  0.7018 -0.0688  0.7090
              Bcc     1.0386   139.367    49.730    46.488  0.5410  0.6990 -0.4677
 
              Baa    -0.0046    -2.433    -0.868    -0.812 -0.3423  0.3861  0.8566
     6 H(1)   Bbb    -0.0033    -1.785    -0.637    -0.595  0.4381  0.8721 -0.2180
              Bcc     0.0079     4.218     1.505     1.407  0.8312 -0.3007  0.4676
 
              Baa    -0.0062    -3.329    -1.188    -1.111  0.3580  0.8353 -0.4172
     7 H(1)   Bbb    -0.0045    -2.375    -0.848    -0.792  0.7128 -0.5331 -0.4557
              Bcc     0.0107     5.705     2.036     1.903  0.6030  0.1343  0.7863
 
              Baa    -0.0090    -4.803    -1.714    -1.602  0.1408  0.6285  0.7649
     8 H(1)   Bbb    -0.0069    -3.678    -1.312    -1.227  0.9047  0.2322 -0.3573
              Bcc     0.0159     8.481     3.026     2.829 -0.4022  0.7423 -0.5359
 
              Baa    -0.0115    -6.147    -2.193    -2.050  0.3445  0.2136  0.9142
     9 H(1)   Bbb    -0.0080    -4.280    -1.527    -1.428  0.6607  0.6366 -0.3977
              Bcc     0.0195    10.427     3.721     3.478 -0.6669  0.7410  0.0782
 
              Baa    -0.0041    -2.192    -0.782    -0.731 -0.1009  0.8019 -0.5888
    10 H(1)   Bbb    -0.0037    -1.977    -0.706    -0.660  0.1439  0.5974  0.7889
              Bcc     0.0078     4.169     1.488     1.391  0.9844 -0.0051 -0.1757
 
              Baa    -0.0029    -1.550    -0.553    -0.517 -0.3778  0.5074  0.7745
    11 H(1)   Bbb    -0.0020    -1.079    -0.385    -0.360 -0.1286  0.7996 -0.5866
              Bcc     0.0049     2.629     0.938     0.877  0.9169  0.3213  0.2368
 
              Baa    -0.0098    -5.230    -1.866    -1.745 -0.2236  0.2527  0.9413
    12 H(1)   Bbb    -0.0065    -3.477    -1.241    -1.160 -0.4430  0.8339 -0.3291
              Bcc     0.0163     8.707     3.107     2.904  0.8682  0.4906  0.0745
 
              Baa    -0.0670   -35.724   -12.747   -11.916 -0.6679  0.6742  0.3152
    13 H(1)   Bbb    -0.0052    -2.765    -0.987    -0.922  0.3842  0.6750 -0.6299
              Bcc     0.0721    38.489    13.734    12.839  0.6375  0.2996  0.7099
 
              Baa    -0.0222   -11.855    -4.230    -3.954  0.2936  0.5908  0.7515
    14 H(1)   Bbb    -0.0163    -8.687    -3.100    -2.898 -0.4455 -0.6110  0.6544
              Bcc     0.0385    20.542     7.330     6.852  0.8458 -0.5269  0.0839
 

 ---------------------------------------------------------------------------------

 No NMR shielding tensors so no spin-rotation constants.
 Leave Link  601 at Fri Apr 12 19:05:49 2019, MaxMem=   671088640 cpu:               8.1 elap:               0.4
 (Enter /shared/centos7/gaussian/g16/l9999.exe)
 1\1\GINC-C0211\Scan\UM062X\6-311+G(2df,2p)\C4H9O1(2)\UNDERKOFFLER.C\12
 -Apr-2019\0\\#p m062x/6-311+g(2df,2p) Opt=(CalcFC,ModRedun)\\Gaussian 
 Input Prepared from Scan Object\\0,2\O,-1.2116689405,-0.7202359056,1.2
 69716734\C,1.1142290993,0.665798142,0.1564477588\C,-0.3383513785,0.877
 7361321,-0.2871601378\C,1.7912911704,-0.4819594801,-0.5828696081\C,-1.
 2014336466,-0.3026970182,-0.0324004406\H,1.6671853624,1.5923740897,-0.
 0062953702\H,1.1295477724,0.4738706277,1.2301500268\H,-0.7414524102,1.
 7581869628,0.2323879385\H,-0.3713151931,1.1004546972,-1.3557724319\H,1
 .7716633473,-0.3147178556,-1.6613357399\H,2.8316606733,-0.5909912264,-
 0.2785561758\H,1.2794542718,-1.4236377003,-0.3847728526\H,-2.098677088
 2,-0.4842188426,-0.6113713218\H,-1.8239020398,-1.4497496227,1.37844062
 03\\Version=EM64L-G16RevA.03\State=2-A\HF=-232.9748975,-232.9746338,-2
 32.973891,-232.9728253,-232.9716821,-232.970768,-232.9703873,-232.9706
 932,-232.9715773,-232.9727365,-232.9738327,-232.9746056,-232.9748972,-
 232.9746467,-232.9739006,-232.972815,-232.9716462,-232.970732,-232.970
 3862,-232.970743,-232.9716673,-232.9728336,-232.9739041,-232.9746407,-
 232.9748973,-232.9746231,-232.9738666,-232.9727861,-232.9716344,-232.9
 707339,-232.9703862,-232.9707294,-232.9716382,-232.9727998,-232.973878
 7,-232.974628,-232.9748975\S2=0.754498,0.7545,0.754501,0.754499,0.7544
 97,0.754496,0.754494,0.754489,0.754485,0.754486,0.754488,0.754494,0.75
 4498,0.7545,0.7545,0.754498,0.754497,0.754496,0.754494,0.754487,0.7544
 82,0.754483,0.754487,0.754494,0.754498,0.754499,0.754499,0.754497,0.75
 4495,0.754495,0.754494,0.754488,0.754484,0.754485,0.754488,0.754494,0.
 754498\S2-1=0.,0.,0.,0.,0.,0.,0.,0.,0.,0.,0.,0.,0.,0.,0.,0.,0.,0.,0.,0
 .,0.,0.,0.,0.,0.,0.,0.,0.,0.,0.,0.,0.,0.,0.,0.,0.,0.\S2A=0.750016,0.75
 0016,0.750016,0.750016,0.750016,0.750016,0.750016,0.750016,0.750016,0.
 750016,0.750016,0.750016,0.750016,0.750016,0.750016,0.750016,0.750016,
 0.750016,0.750016,0.750016,0.750016,0.750016,0.750016,0.750016,0.75001
 6,0.750016,0.750016,0.750016,0.750016,0.750016,0.750016,0.750016,0.750
 016,0.750016,0.750016,0.750016,0.750016\RMSD=4.170e-09,5.052e-09,4.365
 e-09,3.448e-09,3.612e-09,8.419e-09,7.186e-09,6.821e-09,5.524e-09,6.716
 e-09,5.346e-09,8.647e-09,7.591e-09,5.879e-09,2.982e-09,9.502e-09,3.961
 e-09,9.602e-09,3.638e-09,3.508e-09,6.239e-09,3.173e-09,3.413e-09,8.815
 e-09,6.040e-09,7.517e-09,6.983e-09,4.811e-09,3.673e-09,4.465e-09,6.322
 e-09,7.652e-09,5.326e-09,4.755e-09,4.241e-09,8.452e-09,8.538e-09\PG=C0
 1 [X(C4H9O1)]\\@


 HE THAT RISETH LATE MUST TROT ALL DAY.

                  -- BENJAMIN FRANKLIN
 Job cpu time:       1 days  2 hours 40 minutes 49.9 seconds.
 Elapsed time:       0 days  1 hours 20 minutes 39.0 seconds.
 File lengths (MBytes):  RWF=   1376 Int=      0 D2E=      0 Chk=     32 Scr=     32
 Normal termination of Gaussian 16 at Fri Apr 12 19:05:49 2019.
