 Entering Gaussian System, Link 0=g16
 Input=DHVSQGCGLGSLDF-UHFFFAOYSA-N_GeoFreq_c2_a1.com
 Output=DHVSQGCGLGSLDF-UHFFFAOYSA-N_GeoFreq_c2_a1.log
 Initial command:
 /shared/centos7/gaussian/g16/l1.exe "/scratch/underkoffler.c/gaussian_scratch/Gau-21048.inp" -scrdir="/scratch/underkoffler.c/gaussian_scratch/"
 Entering Link 1 = /shared/centos7/gaussian/g16/l1.exe PID=     21049.
  
 Copyright (c) 1988,1990,1992,1993,1995,1998,2003,2009,2016,
            Gaussian, Inc.  All Rights Reserved.
  
 This is part of the Gaussian(R) 16 program.  It is based on
 the Gaussian(R) 09 system (copyright 2009, Gaussian, Inc.),
 the Gaussian(R) 03 system (copyright 2003, Gaussian, Inc.),
 the Gaussian(R) 98 system (copyright 1998, Gaussian, Inc.),
 the Gaussian(R) 94 system (copyright 1995, Gaussian, Inc.),
 the Gaussian 92(TM) system (copyright 1992, Gaussian, Inc.),
 the Gaussian 90(TM) system (copyright 1990, Gaussian, Inc.),
 the Gaussian 88(TM) system (copyright 1988, Gaussian, Inc.),
 the Gaussian 86(TM) system (copyright 1986, Carnegie Mellon
 University), and the Gaussian 82(TM) system (copyright 1983,
 Carnegie Mellon University). Gaussian is a federally registered
 trademark of Gaussian, Inc.
  
 This software contains proprietary and confidential information,
 including trade secrets, belonging to Gaussian, Inc.
  
 This software is provided under written license and may be
 used, copied, transmitted, or stored only in accord with that
 written license.
  
 The following legend is applicable only to US Government
 contracts under FAR:
  
                    RESTRICTED RIGHTS LEGEND
  
 Use, reproduction and disclosure by the US Government is
 subject to restrictions as set forth in subparagraphs (a)
 and (c) of the Commercial Computer Software - Restricted
 Rights clause in FAR 52.227-19.
  
 Gaussian, Inc.
 340 Quinnipiac St., Bldg. 40, Wallingford CT 06492
  
  
 ---------------------------------------------------------------
 Warning -- This program may not be used in any manner that
 competes with the business of Gaussian, Inc. or will provide
 assistance to any competitor of Gaussian, Inc.  The licensee
 of this program is prohibited from giving any competitor of
 Gaussian, Inc. access to this program.  By using this program,
 the user acknowledges that Gaussian, Inc. is engaged in the
 business of creating and licensing software in the field of
 computational chemistry and represents and warrants to the
 licensee that it is not a competitor of Gaussian, Inc. and that
 it will not use this program in any manner prohibited above.
 ---------------------------------------------------------------
  

 Cite this work as:
 Gaussian 16, Revision A.03,
 M. J. Frisch, G. W. Trucks, H. B. Schlegel, G. E. Scuseria, 
 M. A. Robb, J. R. Cheeseman, G. Scalmani, V. Barone, 
 G. A. Petersson, H. Nakatsuji, X. Li, M. Caricato, A. V. Marenich, 
 J. Bloino, B. G. Janesko, R. Gomperts, B. Mennucci, H. P. Hratchian, 
 J. V. Ortiz, A. F. Izmaylov, J. L. Sonnenberg, D. Williams-Young, 
 F. Ding, F. Lipparini, F. Egidi, J. Goings, B. Peng, A. Petrone, 
 T. Henderson, D. Ranasinghe, V. G. Zakrzewski, J. Gao, N. Rega, 
 G. Zheng, W. Liang, M. Hada, M. Ehara, K. Toyota, R. Fukuda, 
 J. Hasegawa, M. Ishida, T. Nakajima, Y. Honda, O. Kitao, H. Nakai, 
 T. Vreven, K. Throssell, J. A. Montgomery, Jr., J. E. Peralta, 
 F. Ogliaro, M. J. Bearpark, J. J. Heyd, E. N. Brothers, K. N. Kudin, 
 V. N. Staroverov, T. A. Keith, R. Kobayashi, J. Normand, 
 K. Raghavachari, A. P. Rendell, J. C. Burant, S. S. Iyengar, 
 J. Tomasi, M. Cossi, J. M. Millam, M. Klene, C. Adamo, R. Cammi, 
 J. W. Ochterski, R. L. Martin, K. Morokuma, O. Farkas, 
 J. B. Foresman, and D. J. Fox, Gaussian, Inc., Wallingford CT, 2016.
 
 ******************************************
 Gaussian 16:  EM64L-G16RevA.03 25-Dec-2016
                 9-Apr-2019 
 ******************************************
 %nprocshared=20
 Will use up to   20 processors via shared memory.
 %mem=5GB
 ----------------------------------------------------------------------
 #p m062x/6-311+g(2df,2p) opt=(calcfc,verytight,gdiis,maxcycles=900) fr
 eq iop(7/33=1,2/16=3)
 ----------------------------------------------------------------------

 Warning!  Use of Opt=GDIIS is deprecated since it is seldom a good choice.

 1/6=900,7=1,10=4,18=20,19=11,26=3,38=1/1,3;
 2/9=110,12=2,16=3,17=6,18=5,40=1/2;
 3/5=4,6=6,7=214,11=2,25=1,30=1,71=2,74=-55,140=1/1,2,3;
 4//1;
 5/5=2,38=5/2;
 8/6=4,10=90,11=11/1;
 11/6=1,8=1,9=11,15=111,16=1/1,2,10;
 10/6=1,13=1/2;
 6/7=2,8=2,9=2,10=2,28=1/1;
 7/10=1,18=20,25=1,33=1/1,2,3,16;
 1/6=900,7=1,10=4,18=20,19=11,26=3/3(2);
 2/9=110,16=3/2;
 99//99;
 2/9=110,16=3/2;
 3/5=4,6=6,7=214,11=2,25=1,30=1,71=1,74=-55/1,2,3;
 4/5=5,16=3,69=1/1;
 5/5=2,38=5/2;
 7/33=1/1,2,3,16;
 1/6=900,7=1,18=20,19=11,26=3/3(-5);
 2/9=110,16=3/2;
 6/7=2,8=2,9=2,10=2,19=2,28=1/1;
 99/9=1/99;
 Leave Link    1 at Tue Apr  9 00:22:29 2019, MaxMem=   671088640 cpu:              36.3 elap:               1.9
 (Enter /shared/centos7/gaussian/g16/l101.exe)
 ------------------------------
 Gaussian input prepared by ASE
 ------------------------------
 Symbolic Z-matrix:
 Charge =  0 Multiplicity = 2
 O                     7.99713   7.74423   7.1068 
 C                     4.79993   8.97084   6.34221 
 C                     6.27564   9.09689   5.98402 
 C                     4.54527   8.41915   7.71682 
 C                     7.24037   8.90118   7.11255 
 H                     4.31893   9.95321   6.25098 
 H                     4.31029   8.32974   5.58049 
 H                     6.4516    10.1051   5.54554 
 H                     6.50393   8.37313   5.18279 
 H                     5.5152    8.21136   8.2282 
 H                     3.98039   9.13888   8.33956 
 H                     3.96149   7.46884   7.68412 
 H                     7.87212   9.75533   7.38241 
 H                     7.46381   7.0421    6.63575 
 
 ITRead=  0  0  0  0  0  0  0  0  0  0  0  0  0  0
 MicOpt= -1 -1 -1 -1 -1 -1 -1 -1 -1 -1 -1 -1 -1 -1
 NAtoms=     14 NQM=       14 NQMF=       0 NMMI=      0 NMMIF=      0
                NMic=       0 NMicF=      0.
                    Isotopes and Nuclear Properties:
 (Nuclear quadrupole moments (NQMom) in fm**2, nuclear magnetic moments (NMagM)
  in nuclear magnetons)

  Atom         1           2           3           4           5           6           7           8           9          10
 IAtWgt=          16          12          12          12          12           1           1           1           1           1
 AtmWgt=  15.9949146  12.0000000  12.0000000  12.0000000  12.0000000   1.0078250   1.0078250   1.0078250   1.0078250   1.0078250
 NucSpn=           0           0           0           0           0           1           1           1           1           1
 AtZEff=  -0.0000000  -0.0000000  -0.0000000  -0.0000000  -0.0000000  -0.0000000  -0.0000000  -0.0000000  -0.0000000  -0.0000000
 NQMom=    0.0000000   0.0000000   0.0000000   0.0000000   0.0000000   0.0000000   0.0000000   0.0000000   0.0000000   0.0000000
 NMagM=    0.0000000   0.0000000   0.0000000   0.0000000   0.0000000   2.7928460   2.7928460   2.7928460   2.7928460   2.7928460
 AtZNuc=   8.0000000   6.0000000   6.0000000   6.0000000   6.0000000   1.0000000   1.0000000   1.0000000   1.0000000   1.0000000

  Atom        11          12          13          14
 IAtWgt=           1           1           1           1
 AtmWgt=   1.0078250   1.0078250   1.0078250   1.0078250
 NucSpn=           1           1           1           1
 AtZEff=  -0.0000000  -0.0000000  -0.0000000  -0.0000000
 NQMom=    0.0000000   0.0000000   0.0000000   0.0000000
 NMagM=    2.7928460   2.7928460   2.7928460   2.7928460
 AtZNuc=   1.0000000   1.0000000   1.0000000   1.0000000
 Leave Link  101 at Tue Apr  9 00:22:29 2019, MaxMem=   671088640 cpu:               6.7 elap:               0.4
 (Enter /shared/centos7/gaussian/g16/l103.exe)

 GradGradGradGradGradGradGradGradGradGradGradGradGradGradGradGradGradGrad
 Berny optimization.
 Initialization pass.
                           ----------------------------
                           !    Initial Parameters    !
                           ! (Angstroms and Degrees)  !
 --------------------------                            --------------------------
 ! Name  Definition              Value          Derivative Info.                !
 --------------------------------------------------------------------------------
 ! R1    R(1,5)                  1.3825         calculate D2E/DX2 analytically  !
 ! R2    R(1,14)                 0.9997         calculate D2E/DX2 analytically  !
 ! R3    R(2,3)                  1.5238         calculate D2E/DX2 analytically  !
 ! R4    R(2,4)                  1.5029         calculate D2E/DX2 analytically  !
 ! R5    R(2,6)                  1.0976         calculate D2E/DX2 analytically  !
 ! R6    R(2,7)                  1.1095         calculate D2E/DX2 analytically  !
 ! R7    R(3,5)                  1.4975         calculate D2E/DX2 analytically  !
 ! R8    R(3,8)                  1.1134         calculate D2E/DX2 analytically  !
 ! R9    R(3,9)                  1.1036         calculate D2E/DX2 analytically  !
 ! R10   R(4,10)                 1.116          calculate D2E/DX2 analytically  !
 ! R11   R(4,11)                 1.1067         calculate D2E/DX2 analytically  !
 ! R12   R(4,12)                 1.1158         calculate D2E/DX2 analytically  !
 ! R13   R(5,13)                 1.0961         calculate D2E/DX2 analytically  !
 ! A1    A(5,1,14)             107.3208         calculate D2E/DX2 analytically  !
 ! A2    A(3,2,4)              114.1711         calculate D2E/DX2 analytically  !
 ! A3    A(3,2,6)              109.3191         calculate D2E/DX2 analytically  !
 ! A4    A(3,2,7)              108.2894         calculate D2E/DX2 analytically  !
 ! A5    A(4,2,6)              109.2871         calculate D2E/DX2 analytically  !
 ! A6    A(4,2,7)              109.9402         calculate D2E/DX2 analytically  !
 ! A7    A(6,2,7)              105.4685         calculate D2E/DX2 analytically  !
 ! A8    A(2,3,5)              115.8449         calculate D2E/DX2 analytically  !
 ! A9    A(2,3,8)              108.6949         calculate D2E/DX2 analytically  !
 ! A10   A(2,3,9)              108.466          calculate D2E/DX2 analytically  !
 ! A11   A(5,3,8)              108.2586         calculate D2E/DX2 analytically  !
 ! A12   A(5,3,9)              109.1569         calculate D2E/DX2 analytically  !
 ! A13   A(8,3,9)              105.9765         calculate D2E/DX2 analytically  !
 ! A14   A(2,4,10)             109.888          calculate D2E/DX2 analytically  !
 ! A15   A(2,4,11)             111.2479         calculate D2E/DX2 analytically  !
 ! A16   A(2,4,12)             111.9927         calculate D2E/DX2 analytically  !
 ! A17   A(10,4,11)            107.8688         calculate D2E/DX2 analytically  !
 ! A18   A(10,4,12)            108.0336         calculate D2E/DX2 analytically  !
 ! A19   A(11,4,12)            107.6576         calculate D2E/DX2 analytically  !
 ! A20   A(1,5,3)              117.3144         calculate D2E/DX2 analytically  !
 ! A21   A(1,5,13)             109.7346         calculate D2E/DX2 analytically  !
 ! A22   A(3,5,13)             117.0636         calculate D2E/DX2 analytically  !
 ! D1    D(14,1,5,3)           -28.754          calculate D2E/DX2 analytically  !
 ! D2    D(14,1,5,13)         -165.5815         calculate D2E/DX2 analytically  !
 ! D3    D(4,2,3,5)            -10.7841         calculate D2E/DX2 analytically  !
 ! D4    D(4,2,3,8)           -132.8859         calculate D2E/DX2 analytically  !
 ! D5    D(4,2,3,9)            112.3209         calculate D2E/DX2 analytically  !
 ! D6    D(6,2,3,5)            111.9667         calculate D2E/DX2 analytically  !
 ! D7    D(6,2,3,8)            -10.1352         calculate D2E/DX2 analytically  !
 ! D8    D(6,2,3,9)           -124.9284         calculate D2E/DX2 analytically  !
 ! D9    D(7,2,3,5)           -133.6067         calculate D2E/DX2 analytically  !
 ! D10   D(7,2,3,8)            104.2915         calculate D2E/DX2 analytically  !
 ! D11   D(7,2,3,9)            -10.5018         calculate D2E/DX2 analytically  !
 ! D12   D(3,2,4,10)             0.548          calculate D2E/DX2 analytically  !
 ! D13   D(3,2,4,11)           119.9389         calculate D2E/DX2 analytically  !
 ! D14   D(3,2,4,12)          -119.5282         calculate D2E/DX2 analytically  !
 ! D15   D(6,2,4,10)          -122.2202         calculate D2E/DX2 analytically  !
 ! D16   D(6,2,4,11)            -2.8294         calculate D2E/DX2 analytically  !
 ! D17   D(6,2,4,12)           117.7036         calculate D2E/DX2 analytically  !
 ! D18   D(7,2,4,10)           122.4681         calculate D2E/DX2 analytically  !
 ! D19   D(7,2,4,11)          -118.1411         calculate D2E/DX2 analytically  !
 ! D20   D(7,2,4,12)             2.3919         calculate D2E/DX2 analytically  !
 ! D21   D(2,3,5,1)            109.1134         calculate D2E/DX2 analytically  !
 ! D22   D(2,3,5,13)          -117.206          calculate D2E/DX2 analytically  !
 ! D23   D(8,3,5,1)           -128.5535         calculate D2E/DX2 analytically  !
 ! D24   D(8,3,5,13)             5.1272         calculate D2E/DX2 analytically  !
 ! D25   D(9,3,5,1)            -13.6281         calculate D2E/DX2 analytically  !
 ! D26   D(9,3,5,13)           120.0526         calculate D2E/DX2 analytically  !
 --------------------------------------------------------------------------------
 Trust Radius=3.00D-01 FncErr=1.00D-07 GrdErr=1.00D-06 EigMax=2.50D+02 EigMin=1.00D-04
 Number of steps in this run=    100 maximum allowed number of steps=    100.
 GradGradGradGradGradGradGradGradGradGradGradGradGradGradGradGradGradGrad

 Leave Link  103 at Tue Apr  9 00:22:29 2019, MaxMem=   671088640 cpu:               0.3 elap:               0.1
 (Enter /shared/centos7/gaussian/g16/l202.exe)
                          Input orientation:                          
 ---------------------------------------------------------------------
 Center     Atomic      Atomic             Coordinates (Angstroms)
 Number     Number       Type             X           Y           Z
 ---------------------------------------------------------------------
      1          8           0        7.997128    7.744229    7.106803
      2          6           0        4.799932    8.970842    6.342208
      3          6           0        6.275641    9.096893    5.984020
      4          6           0        4.545268    8.419149    7.716823
      5          6           0        7.240372    8.901182    7.112551
      6          1           0        4.318932    9.953207    6.250984
      7          1           0        4.310290    8.329741    5.580495
      8          1           0        6.451601   10.105097    5.545541
      9          1           0        6.503928    8.373130    5.182788
     10          1           0        5.515201    8.211361    8.228201
     11          1           0        3.980395    9.138875    8.339559
     12          1           0        3.961495    7.468838    7.684117
     13          1           0        7.872117    9.755333    7.382411
     14          1           0        7.463810    7.042096    6.635746
 ---------------------------------------------------------------------
                    Distance matrix (angstroms):
                    1          2          3          4          5
     1  O    0.000000
     2  C    3.508738   0.000000
     3  C    2.460459   1.523780   0.000000
     4  C    3.569730   1.502925   2.540892   0.000000
     5  C    1.382481   2.560084   1.497528   2.803763   0.000000
     6  H    4.375058   1.097599   2.152500   2.133834   3.222401
     7  H    4.033015   1.109489   2.148013   2.151070   3.355462
     8  H    3.224886   2.156206   1.113418   3.345293   2.127696
     9  H    2.515351   2.145953   1.103594   3.203092   2.131941
    10  H    2.763278   2.155317   2.529582   1.115999   2.167197
    11  H    4.427061   2.165477   3.289146   1.106747   3.491346
    12  H    4.086008   2.181677   3.300935   1.115774   3.623443
    13  H    2.033747   3.337030   2.222110   3.600714   1.096129
    14  H    0.999656   3.301889   2.461440   3.403364   1.932219
                    6          7          8          9         10
     6  H    0.000000
     7  H    1.756494   0.000000
     8  H    2.251444   2.781784   0.000000
     9  H    2.900326   2.229821   1.770321   0.000000
    10  H    2.893869   2.911387   3.414637   3.205977   0.000000
    11  H    2.267133   2.894126   3.853178   4.113367   1.796751
    12  H    2.890281   2.299574   4.209988   3.679451   1.805927
    13  H    3.734221   4.238611   2.348253   2.936114   2.941812
    14  H    4.302658   3.565988   3.405156   2.191829   2.774918
                   11         12         13         14
    11  H    0.000000
    12  H    1.794154   0.000000
    13  H    4.054831   4.540050   0.000000
    14  H    4.408361   3.680680   2.843568   0.000000
 Stoichiometry    C4H9O(2)
 Framework group  C1[X(C4H9O)]
 Deg. of freedom    36
 Full point group                 C1      NOp   1
 Largest Abelian subgroup         C1      NOp   1
 Largest concise Abelian subgroup C1      NOp   1
                         Standard orientation:                         
 ---------------------------------------------------------------------
 Center     Atomic      Atomic             Coordinates (Angstroms)
 Number     Number       Type             X           Y           Z
 ---------------------------------------------------------------------
      1          8           0        1.978698   -0.532092   -0.272143
      2          6           0       -1.371358    0.507079   -0.179973
      3          6           0        0.065232    0.999169   -0.053629
      4          6           0       -1.546035   -0.959713    0.097141
      5          6           0        1.033417    0.036317    0.561289
      6          1           0       -2.013538    1.083215    0.498553
      7          1           0       -1.732181    0.744684   -1.201891
      8          1           0        0.070450    1.933603    0.551768
      9          1           0        0.426303    1.284984   -1.056554
     10          1           0       -0.562024   -1.416410    0.359063
     11          1           0       -2.235408   -1.128136    0.946428
     12          1           0       -1.956317   -1.505688   -0.785204
     13          1           0        1.504248    0.336495    1.504534
     14          1           0        1.581347   -0.573126   -1.188517
 ---------------------------------------------------------------------
 Rotational constants (GHZ):           8.7476807           3.1233011           2.6378006
 Leave Link  202 at Tue Apr  9 00:22:29 2019, MaxMem=   671088640 cpu:               0.3 elap:               0.0
 (Enter /shared/centos7/gaussian/g16/l301.exe)
 Standard basis: 6-311+G(2df,2p) (5D, 7F)
 Ernie: Thresh=  0.10000D-02 Tol=  0.10000D-05 Strict=F.
 There are   276 symmetry adapted cartesian basis functions of A   symmetry.
 There are   251 symmetry adapted basis functions of A   symmetry.
   251 basis functions,   359 primitive gaussians,   276 cartesian basis functions
    21 alpha electrons       20 beta electrons
       nuclear repulsion energy       181.9021752511 Hartrees.
 IExCor= 4336 DFT=T Ex+Corr=M062X ExCW=0 ScaHFX=  0.540000
 ScaDFX=  1.000000  1.000000  1.000000  1.000000 ScalE2=  1.000000  1.000000
 IRadAn=      5 IRanWt=     -1 IRanGd=            0 ICorTp=0 IEmpDi=  4
 NAtoms=   14 NActive=   14 NUniq=   14 SFac= 1.00D+00 NAtFMM=   60 NAOKFM=F Big=F
 Integral buffers will be    131072 words long.
 Raffenetti 2 integral format.
 Two-electron integral symmetry is turned on.
 Leave Link  301 at Tue Apr  9 00:22:29 2019, MaxMem=   671088640 cpu:               1.6 elap:               0.1
 (Enter /shared/centos7/gaussian/g16/l302.exe)
 NPDir=0 NMtPBC=     1 NCelOv=     1 NCel=       1 NClECP=     1 NCelD=      1
         NCelK=      1 NCelE2=     1 NClLst=     1 CellRange=     0.0.
 One-electron integrals computed using PRISM.
 One-electron integral symmetry used in STVInt
 NBasis=   251 RedAO= T EigKep=  1.40D-05  NBF=   251
 NBsUse=   251 1.00D-06 EigRej= -1.00D+00 NBFU=   251
 Precomputing XC quadrature grid using
 IXCGrd= 4 IRadAn=           5 IRanWt=          -1 IRanGd=           0 AccXCQ= 0.00D+00.
 Generated NRdTot=       0 NPtTot=           0 NUsed=           0 NTot=          32
 NSgBfM=   276   276   276   276   276 MxSgAt=    14 MxSgA2=    14.
 Leave Link  302 at Tue Apr  9 00:22:30 2019, MaxMem=   671088640 cpu:               5.5 elap:               0.3
 (Enter /shared/centos7/gaussian/g16/l303.exe)
 DipDrv:  MaxL=1.
 Leave Link  303 at Tue Apr  9 00:22:30 2019, MaxMem=   671088640 cpu:               0.8 elap:               0.1
 (Enter /shared/centos7/gaussian/g16/l401.exe)
 ExpMin= 4.38D-02 ExpMax= 8.59D+03 ExpMxC= 1.30D+03 IAcc=3 IRadAn=         5 AccDes= 0.00D+00
 Harris functional with IExCor= 1009 and IRadAn=       5 diagonalized for initial guess.
 HarFok:  IExCor= 1009 AccDes= 0.00D+00 IRadAn=         5 IDoV= 1 UseB2=F ITyADJ=14
 ICtDFT=  3500011 ScaDFX=  1.000000  1.000000  1.000000  1.000000
 FoFCou: FMM=F IPFlag=           0 FMFlag=      100000 FMFlg1=           0
         NFxFlg=           0 DoJE=T BraDBF=F KetDBF=T FulRan=T
         wScrn=  0.000000 ICntrl=       500 IOpCl=  0 I1Cent=   200000004 NGrid=           0
         NMat0=    1 NMatS0=      1 NMatT0=    0 NMatD0=    1 NMtDS0=    0 NMtDT0=    0
 Petite list used in FoFCou.
 Harris En= -232.889132317772    
 JPrj=0 DoOrth=F DoCkMO=F.
 Initial guess <Sx>= 0.0000 <Sy>= 0.0000 <Sz>= 0.5000 <S**2>= 0.7500 S= 0.5000
 Leave Link  401 at Tue Apr  9 00:22:31 2019, MaxMem=   671088640 cpu:              20.6 elap:               1.1
 (Enter /shared/centos7/gaussian/g16/l502.exe)
 Integral symmetry usage will be decided dynamically.
 UHF open shell SCF:
 Using DIIS extrapolation, IDIIS=  1040.
 NGot=   671088640 LenX=   670928170 LenY=   670851553
 Requested convergence on RMS density matrix=1.00D-08 within 128 cycles.
 Requested convergence on MAX density matrix=1.00D-06.
 Requested convergence on             energy=1.00D-06.
 No special actions if energy rises.
 Fock matrices will be formed incrementally for  20 cycles.

 Cycle   1  Pass 1  IDiag  1:
 FoFJK:  IHMeth= 1 ICntrl=       0 DoSepK=F KAlg= 0 I1Cent=           0 FoldK=F
 IRaf= 990000000 NMat=       1 IRICut=       1 DoRegI=T DoRafI=F ISym2E= 0 IDoP0=0 IntGTp=1.
 FoFCou: FMM=F IPFlag=           0 FMFlag=      100000 FMFlg1=           0
         NFxFlg=           0 DoJE=F BraDBF=F KetDBF=F FulRan=T
         wScrn=  0.000000 ICntrl=         0 IOpCl=  1 I1Cent=           0 NGrid=           0
         NMat0=    1 NMatS0=      1 NMatT0=    0 NMatD0=    1 NMtDS0=    0 NMtDT0=    0
 Symmetry not used in FoFCou.
 E= -232.750820453596    
 DIIS: error= 2.31D-02 at cycle   1 NSaved=   1.
 NSaved= 1 IEnMin= 1 EnMin= -232.750820453596     IErMin= 1 ErrMin= 2.31D-02
 ErrMax= 2.31D-02  0.00D+00 EMaxC= 1.00D-01 BMatC= 9.22D-01 BMatP= 9.22D-01
 IDIUse=3 WtCom= 7.69D-01 WtEn= 2.31D-01
 Coeff-Com:  0.100D+01
 Coeff-En:   0.100D+01
 Coeff:      0.100D+01
 Gap=     0.217 Goal=   None    Shift=    0.000
 Gap=     0.367 Goal=   None    Shift=    0.000
 GapD=    0.217 DampG=1.000 DampE=0.500 DampFc=0.5000 IDamp=-1.
 Damping current iteration by 5.00D-01
 RMSDP=3.86D-03 MaxDP=2.91D-01              OVMax= 1.60D-01

 Cycle   2  Pass 1  IDiag  1:
 RMSU=  1.93D-03    CP:  9.97D-01
 E= -232.850703261258     Delta-E=       -0.099882807661 Rises=F Damp=T
 DIIS: error= 4.93D-03 at cycle   2 NSaved=   2.
 NSaved= 2 IEnMin= 2 EnMin= -232.850703261258     IErMin= 2 ErrMin= 4.93D-03
 ErrMax= 4.93D-03  0.00D+00 EMaxC= 1.00D-01 BMatC= 5.56D-02 BMatP= 9.22D-01
 IDIUse=3 WtCom= 9.51D-01 WtEn= 4.93D-02
 Coeff-Com: -0.856D-01 0.109D+01
 Coeff-En:   0.000D+00 0.100D+01
 Coeff:     -0.814D-01 0.108D+01
 Gap=     0.251 Goal=   None    Shift=    0.000
 Gap=     0.423 Goal=   None    Shift=    0.000
 RMSDP=9.71D-04 MaxDP=6.06D-02 DE=-9.99D-02 OVMax= 8.69D-02

 Cycle   3  Pass 1  IDiag  1:
 RMSU=  9.30D-04    CP:  9.97D-01  8.57D-01
 E= -232.949069343564     Delta-E=       -0.098366082307 Rises=F Damp=F
 DIIS: error= 2.41D-03 at cycle   3 NSaved=   3.
 NSaved= 3 IEnMin= 3 EnMin= -232.949069343564     IErMin= 3 ErrMin= 2.41D-03
 ErrMax= 2.41D-03  0.00D+00 EMaxC= 1.00D-01 BMatC= 8.57D-03 BMatP= 5.56D-02
 IDIUse=3 WtCom= 9.76D-01 WtEn= 2.41D-02
 Coeff-Com: -0.722D-01 0.252D+00 0.821D+00
 Coeff-En:   0.000D+00 0.000D+00 0.100D+01
 Coeff:     -0.705D-01 0.245D+00 0.825D+00
 Gap=     0.250 Goal=   None    Shift=    0.000
 Gap=     0.370 Goal=   None    Shift=    0.000
 RMSDP=2.05D-04 MaxDP=7.77D-03 DE=-9.84D-02 OVMax= 1.36D-02

 Cycle   4  Pass 1  IDiag  1:
 RMSU=  1.99D-04    CP:  9.93D-01  8.72D-01  9.89D-01
 E= -232.950988160968     Delta-E=       -0.001918817404 Rises=F Damp=F
 DIIS: error= 6.56D-04 at cycle   4 NSaved=   4.
 NSaved= 4 IEnMin= 4 EnMin= -232.950988160968     IErMin= 4 ErrMin= 6.56D-04
 ErrMax= 6.56D-04  0.00D+00 EMaxC= 1.00D-01 BMatC= 9.36D-04 BMatP= 8.57D-03
 IDIUse=3 WtCom= 9.93D-01 WtEn= 6.56D-03
 Coeff-Com: -0.194D-01 0.402D-01 0.277D+00 0.702D+00
 Coeff-En:   0.000D+00 0.000D+00 0.000D+00 0.100D+01
 Coeff:     -0.193D-01 0.399D-01 0.276D+00 0.704D+00
 Gap=     0.249 Goal=   None    Shift=    0.000
 Gap=     0.371 Goal=   None    Shift=    0.000
 RMSDP=8.66D-05 MaxDP=5.44D-03 DE=-1.92D-03 OVMax= 9.43D-03

 Cycle   5  Pass 1  IDiag  1:
 RMSU=  8.45D-05    CP:  9.95D-01  8.75D-01  1.00D+00  9.93D-01
 E= -232.951238788059     Delta-E=       -0.000250627091 Rises=F Damp=F
 DIIS: error= 3.97D-04 at cycle   5 NSaved=   5.
 NSaved= 5 IEnMin= 5 EnMin= -232.951238788059     IErMin= 5 ErrMin= 3.97D-04
 ErrMax= 3.97D-04  0.00D+00 EMaxC= 1.00D-01 BMatC= 2.47D-04 BMatP= 9.36D-04
 IDIUse=3 WtCom= 9.96D-01 WtEn= 3.97D-03
 Coeff-Com: -0.751D-03-0.974D-02 0.252D-01 0.320D+00 0.666D+00
 Coeff-En:   0.000D+00 0.000D+00 0.000D+00 0.000D+00 0.100D+01
 Coeff:     -0.749D-03-0.971D-02 0.251D-01 0.318D+00 0.667D+00
 Gap=     0.250 Goal=   None    Shift=    0.000
 Gap=     0.372 Goal=   None    Shift=    0.000
 RMSDP=5.91D-05 MaxDP=3.03D-03 DE=-2.51D-04 OVMax= 3.42D-03

 Cycle   6  Pass 1  IDiag  1:
 RMSU=  3.96D-05    CP:  9.95D-01  8.68D-01  1.02D+00  1.12D+00  1.35D+00
 E= -232.951315915568     Delta-E=       -0.000077127509 Rises=F Damp=F
 DIIS: error= 2.01D-04 at cycle   6 NSaved=   6.
 NSaved= 6 IEnMin= 6 EnMin= -232.951315915568     IErMin= 6 ErrMin= 2.01D-04
 ErrMax= 2.01D-04  0.00D+00 EMaxC= 1.00D-01 BMatC= 3.14D-05 BMatP= 2.47D-04
 IDIUse=3 WtCom= 9.98D-01 WtEn= 2.01D-03
 Coeff-Com:  0.570D-02-0.136D-01-0.800D-01-0.129D+00 0.731D-01 0.114D+01
 Coeff-En:   0.000D+00 0.000D+00 0.000D+00 0.000D+00 0.000D+00 0.100D+01
 Coeff:      0.569D-02-0.136D-01-0.798D-01-0.129D+00 0.730D-01 0.114D+01
 Gap=     0.251 Goal=   None    Shift=    0.000
 Gap=     0.373 Goal=   None    Shift=    0.000
 RMSDP=4.99D-05 MaxDP=2.20D-03 DE=-7.71D-05 OVMax= 4.97D-03

 Cycle   7  Pass 1  IDiag  1:
 RMSU=  1.84D-05    CP:  9.95D-01  8.61D-01  1.02D+00  1.25D+00  1.71D+00
                    CP:  1.47D+00
 E= -232.951346082951     Delta-E=       -0.000030167383 Rises=F Damp=F
 DIIS: error= 8.77D-05 at cycle   7 NSaved=   7.
 NSaved= 7 IEnMin= 7 EnMin= -232.951346082951     IErMin= 7 ErrMin= 8.77D-05
 ErrMax= 8.77D-05  0.00D+00 EMaxC= 1.00D-01 BMatC= 8.93D-06 BMatP= 3.14D-05
 IDIUse=1 WtCom= 1.00D+00 WtEn= 0.00D+00
 Coeff-Com:  0.176D-02-0.254D-02-0.306D-01-0.945D-01-0.116D+00 0.431D+00
 Coeff-Com:  0.810D+00
 Coeff:      0.176D-02-0.254D-02-0.306D-01-0.945D-01-0.116D+00 0.431D+00
 Coeff:      0.810D+00
 Gap=     0.251 Goal=   None    Shift=    0.000
 Gap=     0.373 Goal=   None    Shift=    0.000
 RMSDP=2.02D-05 MaxDP=1.21D-03 DE=-3.02D-05 OVMax= 1.58D-03

 Cycle   8  Pass 1  IDiag  1:
 RMSU=  8.28D-06    CP:  9.96D-01  8.61D-01  1.03D+00  1.29D+00  1.84D+00
                    CP:  1.75D+00  1.29D+00
 E= -232.951350414718     Delta-E=       -0.000004331767 Rises=F Damp=F
 DIIS: error= 2.73D-05 at cycle   8 NSaved=   8.
 NSaved= 8 IEnMin= 8 EnMin= -232.951350414718     IErMin= 8 ErrMin= 2.73D-05
 ErrMax= 2.73D-05  0.00D+00 EMaxC= 1.00D-01 BMatC= 8.33D-07 BMatP= 8.93D-06
 IDIUse=1 WtCom= 1.00D+00 WtEn= 0.00D+00
 Coeff-Com: -0.821D-03 0.217D-02 0.917D-02 0.824D-02-0.431D-01-0.105D+00
 Coeff-Com:  0.137D+00 0.993D+00
 Coeff:     -0.821D-03 0.217D-02 0.917D-02 0.824D-02-0.431D-01-0.105D+00
 Coeff:      0.137D+00 0.993D+00
 Gap=     0.251 Goal=   None    Shift=    0.000
 Gap=     0.373 Goal=   None    Shift=    0.000
 RMSDP=7.54D-06 MaxDP=4.30D-04 DE=-4.33D-06 OVMax= 6.58D-04

 Cycle   9  Pass 1  IDiag  1:
 RMSU=  2.58D-06    CP:  9.96D-01  8.62D-01  1.03D+00  1.30D+00  1.87D+00
                    CP:  1.86D+00  1.47D+00  1.34D+00
 E= -232.951350937206     Delta-E=       -0.000000522487 Rises=F Damp=F
 DIIS: error= 7.74D-06 at cycle   9 NSaved=   9.
 NSaved= 9 IEnMin= 9 EnMin= -232.951350937206     IErMin= 9 ErrMin= 7.74D-06
 ErrMax= 7.74D-06  0.00D+00 EMaxC= 1.00D-01 BMatC= 9.31D-08 BMatP= 8.33D-07
 IDIUse=1 WtCom= 1.00D+00 WtEn= 0.00D+00
 Coeff-Com: -0.372D-03 0.749D-03 0.570D-02 0.147D-01 0.672D-02-0.731D-01
 Coeff-Com: -0.931D-01 0.184D+00 0.955D+00
 Coeff:     -0.372D-03 0.749D-03 0.570D-02 0.147D-01 0.672D-02-0.731D-01
 Coeff:     -0.931D-01 0.184D+00 0.955D+00
 Gap=     0.251 Goal=   None    Shift=    0.000
 Gap=     0.373 Goal=   None    Shift=    0.000
 RMSDP=2.81D-06 MaxDP=1.63D-04 DE=-5.22D-07 OVMax= 1.80D-04

 Cycle  10  Pass 1  IDiag  1:
 RMSU=  1.05D-06    CP:  9.96D-01  8.62D-01  1.02D+00  1.30D+00  1.88D+00
                    CP:  1.89D+00  1.50D+00  1.53D+00  1.23D+00
 E= -232.951350988548     Delta-E=       -0.000000051343 Rises=F Damp=F
 DIIS: error= 2.17D-06 at cycle  10 NSaved=  10.
 NSaved=10 IEnMin=10 EnMin= -232.951350988548     IErMin=10 ErrMin= 2.17D-06
 ErrMax= 2.17D-06  0.00D+00 EMaxC= 1.00D-01 BMatC= 7.08D-09 BMatP= 9.31D-08
 IDIUse=1 WtCom= 1.00D+00 WtEn= 0.00D+00
 Coeff-Com:  0.612D-04-0.149D-03-0.480D-03 0.190D-03 0.286D-02 0.463D-02
 Coeff-Com: -0.150D-01-0.680D-01 0.440D-01 0.103D+01
 Coeff:      0.612D-04-0.149D-03-0.480D-03 0.190D-03 0.286D-02 0.463D-02
 Coeff:     -0.150D-01-0.680D-01 0.440D-01 0.103D+01
 Gap=     0.251 Goal=   None    Shift=    0.000
 Gap=     0.373 Goal=   None    Shift=    0.000
 RMSDP=6.08D-07 MaxDP=3.62D-05 DE=-5.13D-08 OVMax= 4.18D-05

 Cycle  11  Pass 1  IDiag  1:
 RMSU=  2.36D-07    CP:  9.96D-01  8.63D-01  1.02D+00  1.30D+00  1.88D+00
                    CP:  1.89D+00  1.50D+00  1.56D+00  1.32D+00  1.22D+00
 E= -232.951350992591     Delta-E=       -0.000000004043 Rises=F Damp=F
 DIIS: error= 9.53D-07 at cycle  11 NSaved=  11.
 NSaved=11 IEnMin=11 EnMin= -232.951350992591     IErMin=11 ErrMin= 9.53D-07
 ErrMax= 9.53D-07  0.00D+00 EMaxC= 1.00D-01 BMatC= 1.14D-09 BMatP= 7.08D-09
 IDIUse=1 WtCom= 1.00D+00 WtEn= 0.00D+00
 Coeff-Com:  0.579D-04-0.125D-03-0.791D-03-0.157D-02-0.495D-04 0.989D-02
 Coeff-Com:  0.734D-02-0.381D-01-0.105D+00 0.225D+00 0.904D+00
 Coeff:      0.579D-04-0.125D-03-0.791D-03-0.157D-02-0.495D-04 0.989D-02
 Coeff:      0.734D-02-0.381D-01-0.105D+00 0.225D+00 0.904D+00
 Gap=     0.251 Goal=   None    Shift=    0.000
 Gap=     0.373 Goal=   None    Shift=    0.000
 RMSDP=2.99D-07 MaxDP=2.48D-05 DE=-4.04D-09 OVMax= 1.08D-05

 Cycle  12  Pass 1  IDiag  1:
 RMSU=  1.14D-07    CP:  9.96D-01  8.63D-01  1.02D+00  1.30D+00  1.88D+00
                    CP:  1.89D+00  1.49D+00  1.57D+00  1.35D+00  1.34D+00
                    CP:  1.11D+00
 E= -232.951350993142     Delta-E=       -0.000000000551 Rises=F Damp=F
 DIIS: error= 3.11D-07 at cycle  12 NSaved=  12.
 NSaved=12 IEnMin=12 EnMin= -232.951350993142     IErMin=12 ErrMin= 3.11D-07
 ErrMax= 3.11D-07  0.00D+00 EMaxC= 1.00D-01 BMatC= 1.51D-10 BMatP= 1.14D-09
 IDIUse=1 WtCom= 1.00D+00 WtEn= 0.00D+00
 Coeff-Com: -0.384D-06 0.402D-06-0.656D-04-0.242D-03-0.307D-03 0.102D-02
 Coeff-Com:  0.282D-02 0.101D-02-0.258D-01-0.813D-01 0.188D+00 0.915D+00
 Coeff:     -0.384D-06 0.402D-06-0.656D-04-0.242D-03-0.307D-03 0.102D-02
 Coeff:      0.282D-02 0.101D-02-0.258D-01-0.813D-01 0.188D+00 0.915D+00
 Gap=     0.251 Goal=   None    Shift=    0.000
 Gap=     0.373 Goal=   None    Shift=    0.000
 RMSDP=5.80D-08 MaxDP=1.82D-06 DE=-5.51D-10 OVMax= 3.27D-06

 Cycle  13  Pass 1  IDiag  1:
 RMSU=  3.54D-08    CP:  9.96D-01  8.63D-01  1.02D+00  1.30D+00  1.88D+00
                    CP:  1.89D+00  1.49D+00  1.57D+00  1.35D+00  1.35D+00
                    CP:  1.25D+00  1.19D+00
 E= -232.951350993212     Delta-E=       -0.000000000070 Rises=F Damp=F
 DIIS: error= 1.22D-07 at cycle  13 NSaved=  13.
 NSaved=13 IEnMin=13 EnMin= -232.951350993212     IErMin=13 ErrMin= 1.22D-07
 ErrMax= 1.22D-07  0.00D+00 EMaxC= 1.00D-01 BMatC= 1.70D-11 BMatP= 1.51D-10
 IDIUse=1 WtCom= 1.00D+00 WtEn= 0.00D+00
 Coeff-Com: -0.621D-05 0.129D-04 0.659D-04 0.103D-03-0.540D-04-0.762D-03
 Coeff-Com: -0.960D-04 0.424D-02 0.518D-02-0.422D-01-0.618D-01 0.209D+00
 Coeff-Com:  0.887D+00
 Coeff:     -0.621D-05 0.129D-04 0.659D-04 0.103D-03-0.540D-04-0.762D-03
 Coeff:     -0.960D-04 0.424D-02 0.518D-02-0.422D-01-0.618D-01 0.209D+00
 Coeff:      0.887D+00
 Gap=     0.251 Goal=   None    Shift=    0.000
 Gap=     0.373 Goal=   None    Shift=    0.000
 RMSDP=2.07D-08 MaxDP=1.12D-06 DE=-7.00D-11 OVMax= 1.15D-06

 Cycle  14  Pass 1  IDiag  1:
 RMSU=  1.16D-08    CP:  9.96D-01  8.63D-01  1.02D+00  1.30D+00  1.88D+00
                    CP:  1.89D+00  1.49D+00  1.57D+00  1.35D+00  1.35D+00
                    CP:  1.28D+00  1.29D+00  1.19D+00
 E= -232.951350993221     Delta-E=       -0.000000000009 Rises=F Damp=F
 DIIS: error= 3.79D-08 at cycle  14 NSaved=  14.
 NSaved=14 IEnMin=14 EnMin= -232.951350993221     IErMin=14 ErrMin= 3.79D-08
 ErrMax= 3.79D-08  0.00D+00 EMaxC= 1.00D-01 BMatC= 1.45D-12 BMatP= 1.70D-11
 IDIUse=1 WtCom= 1.00D+00 WtEn= 0.00D+00
 Coeff-Com: -0.200D-06 0.751D-06 0.102D-04 0.227D-04 0.111D-04-0.141D-03
 Coeff-Com: -0.237D-03 0.217D-03 0.297D-02 0.479D-02-0.269D-01-0.818D-01
 Coeff-Com:  0.881D-01 0.101D+01
 Coeff:     -0.200D-06 0.751D-06 0.102D-04 0.227D-04 0.111D-04-0.141D-03
 Coeff:     -0.237D-03 0.217D-03 0.297D-02 0.479D-02-0.269D-01-0.818D-01
 Coeff:      0.881D-01 0.101D+01
 Gap=     0.251 Goal=   None    Shift=    0.000
 Gap=     0.373 Goal=   None    Shift=    0.000
 RMSDP=9.47D-09 MaxDP=4.55D-07 DE=-8.64D-12 OVMax= 4.44D-07

 SCF Done:  E(UM062X) =  -232.951350993     A.U. after   14 cycles
            NFock= 14  Conv=0.95D-08     -V/T= 2.0043
 <Sx>= 0.0000 <Sy>= 0.0000 <Sz>= 0.5000 <S**2>= 0.7545 S= 0.5023
 <L.S>= 0.000000000000E+00
 KE= 2.319424387805D+02 PE=-9.067076889601D+02 EE= 2.599117239353D+02
 Annihilation of the first spin contaminant:
 S**2 before annihilation     0.7545,   after     0.7500
 Leave Link  502 at Tue Apr  9 00:23:48 2019, MaxMem=   671088640 cpu:            1539.3 elap:              77.0
 (Enter /shared/centos7/gaussian/g16/l801.exe)
 DoSCS=F DFT=T ScalE2(SS,OS)=  1.000000  1.000000
 Range of M.O.s used for correlation:     1   251
 NBasis=   251 NAE=    21 NBE=    20 NFC=     0 NFV=     0
 NROrb=    251 NOA=    21 NOB=    20 NVA=   230 NVB=   231

 **** Warning!!: The largest alpha MO coefficient is  0.76540742D+02


 **** Warning!!: The largest beta MO coefficient is  0.75040165D+02

 Leave Link  801 at Tue Apr  9 00:23:48 2019, MaxMem=   671088640 cpu:               0.8 elap:               0.1
 (Enter /shared/centos7/gaussian/g16/l1101.exe)
 Using compressed storage, NAtomX=    14.
 Will process     15 centers per pass.
 Leave Link 1101 at Tue Apr  9 00:23:49 2019, MaxMem=   671088640 cpu:              10.4 elap:               0.6
 (Enter /shared/centos7/gaussian/g16/l1102.exe)
 Symmetrizing basis deriv contribution to polar:
 IMax=3 JMax=2 DiffMx= 0.00D+00
 Leave Link 1102 at Tue Apr  9 00:23:49 2019, MaxMem=   671088640 cpu:               1.1 elap:               0.1
 (Enter /shared/centos7/gaussian/g16/l1110.exe)
 Forming Gx(P) for the SCF density, NAtomX=    14.
 Integral derivatives from FoFJK, PRISM(SPDF).
 Do as many integral derivatives as possible in FoFJK.
 G2DrvN: MDV=     671087496.
 G2DrvN: will do    15 centers at a time, making    1 passes.
 Calling FoFCou, ICntrl=  3107 FMM=F I1Cent=   0 AccDes= 0.00D+00.
 FoFJK:  IHMeth= 1 ICntrl=    3107 DoSepK=F KAlg= 0 I1Cent=           0 FoldK=F
 IRaf=         0 NMat=       1 IRICut=       1 DoRegI=T DoRafI=F ISym2E= 0 IDoP0=0 IntGTp=1.
 FoFCou: FMM=F IPFlag=           0 FMFlag=      100000 FMFlg1=           0
         NFxFlg=           0 DoJE=F BraDBF=F KetDBF=F FulRan=T
         wScrn=  0.000000 ICntrl=      3107 IOpCl=  1 I1Cent=           0 NGrid=           0
         NMat0=    1 NMatS0=      1 NMatT0=    0 NMatD0=    1 NMtDS0=    0 NMtDT0=    0
 Symmetry not used in FoFCou.
 End of G2Drv F.D. properties file   721 does not exist.
 End of G2Drv F.D. properties file   722 does not exist.
 End of G2Drv F.D. properties file   788 does not exist.
 Leave Link 1110 at Tue Apr  9 00:27:04 2019, MaxMem=   671088640 cpu:            3887.5 elap:             194.5
 (Enter /shared/centos7/gaussian/g16/l1002.exe)
 Minotr:  UHF open shell wavefunction.
          IDoAtm=11111111111111
          Direct CPHF calculation.
          Differentiating once with respect to nuclear coordinates.
          Requested convergence is 1.0D-08 RMS, and 1.0D-07 maximum.
          Secondary convergence is 1.0D-12 RMS, and 1.0D-12 maximum.
          NewPWx=T KeepS1=F KeepF1=F KeepIn=T MapXYZ=F SortEE=F KeepMc=T.
         4250 words used for storage of precomputed grid.
 Two-electron integrals replicated using symmetry.
          MDV=     671088640 using IRadAn=       1.
          Solving linear equations simultaneously, MaxMat=     380.
 FoF2E skips out because all densities are zero.
 CalDSu exits because no D1Ps are significant.
 FoFJK:  IHMeth= 1 ICntrl=       0 DoSepK=F KAlg= 0 I1Cent=           0 FoldK=F
 IRaf= 980000000 NMat=      42 IRICut=     105 DoRegI=T DoRafI=T ISym2E= 2 IDoP0=3 IntGTp=3.
 FoFCou: FMM=F IPFlag=           0 FMFlag=      100000 FMFlg1=           0
         NFxFlg=           0 DoJE=F BraDBF=F KetDBF=F FulRan=T
         wScrn=  0.000000 ICntrl=         0 IOpCl=  1 I1Cent=           0 NGrid=           0
         NMat0=   42 NMatS0=     42 NMatT0=    0 NMatD0=   42 NMtDS0=    0 NMtDT0=    0
 Integrals replicated using symmetry in FoFCou.
 Raff kept on since  96.63% of shell-pairs survive, threshold=   0.20 IRatSp=97.
          There are    45 degrees of freedom in the 1st order CPHF.  IDoFFX=6 NUNeed=     0.
     39 vectors produced by pass  0 Test12= 2.10D-14 2.22D-09 XBig12= 1.16D-01 6.27D-02.
 AX will form    39 AO Fock derivatives at one time.
     39 vectors produced by pass  1 Test12= 2.10D-14 2.22D-09 XBig12= 7.97D-03 2.10D-02.
     39 vectors produced by pass  2 Test12= 2.10D-14 2.22D-09 XBig12= 5.87D-04 5.06D-03.
     39 vectors produced by pass  3 Test12= 2.10D-14 2.22D-09 XBig12= 1.42D-05 4.40D-04.
     39 vectors produced by pass  4 Test12= 2.10D-14 2.22D-09 XBig12= 1.83D-07 4.81D-05.
     39 vectors produced by pass  5 Test12= 2.10D-14 2.22D-09 XBig12= 1.95D-09 4.34D-06.
     38 vectors produced by pass  6 Test12= 2.10D-14 2.22D-09 XBig12= 1.78D-11 3.81D-07.
     15 vectors produced by pass  7 Test12= 2.10D-14 2.22D-09 XBig12= 1.15D-13 2.79D-08.
 InvSVY:  IOpt=1 It=  1 EMax= 2.00D-15
 Solved reduced A of dimension   287 with    39 vectors.
 End of Minotr F.D. properties file   721 does not exist.
 End of Minotr F.D. properties file   722 does not exist.
 End of Minotr F.D. properties file   788 does not exist.
 Leave Link 1002 at Tue Apr  9 00:32:53 2019, MaxMem=   671088640 cpu:            6989.4 elap:             349.5
 (Enter /shared/centos7/gaussian/g16/l601.exe)
 Copying SCF densities to generalized density rwf, IOpCl= 1 IROHF=0.

 **********************************************************************

            Population analysis using the SCF density.

 **********************************************************************

 Orbital symmetries:
 Alpha Orbitals:
       Occupied  (A) (A) (A) (A) (A) (A) (A) (A) (A) (A) (A) (A)
                 (A) (A) (A) (A) (A) (A) (A) (A) (A)
       Virtual   (A) (A) (A) (A) (A) (A) (A) (A) (A) (A) (A) (A)
                 (A) (A) (A) (A) (A) (A) (A) (A) (A) (A) (A) (A)
                 (A) (A) (A) (A) (A) (A) (A) (A) (A) (A) (A) (A)
                 (A) (A) (A) (A) (A) (A) (A) (A) (A) (A) (A) (A)
                 (A) (A) (A) (A) (A) (A) (A) (A) (A) (A) (A) (A)
                 (A) (A) (A) (A) (A) (A) (A) (A) (A) (A) (A) (A)
                 (A) (A) (A) (A) (A) (A) (A) (A) (A) (A) (A) (A)
                 (A) (A) (A) (A) (A) (A) (A) (A) (A) (A) (A) (A)
                 (A) (A) (A) (A) (A) (A) (A) (A) (A) (A) (A) (A)
                 (A) (A) (A) (A) (A) (A) (A) (A) (A) (A) (A) (A)
                 (A) (A) (A) (A) (A) (A) (A) (A) (A) (A) (A) (A)
                 (A) (A) (A) (A) (A) (A) (A) (A) (A) (A) (A) (A)
                 (A) (A) (A) (A) (A) (A) (A) (A) (A) (A) (A) (A)
                 (A) (A) (A) (A) (A) (A) (A) (A) (A) (A) (A) (A)
                 (A) (A) (A) (A) (A) (A) (A) (A) (A) (A) (A) (A)
                 (A) (A) (A) (A) (A) (A) (A) (A) (A) (A) (A) (A)
                 (A) (A) (A) (A) (A) (A) (A) (A) (A) (A) (A) (A)
                 (A) (A) (A) (A) (A) (A) (A) (A) (A) (A) (A) (A)
                 (A) (A) (A) (A) (A) (A) (A) (A) (A) (A) (A) (A)
                 (A) (A)
 Beta  Orbitals:
       Occupied  (A) (A) (A) (A) (A) (A) (A) (A) (A) (A) (A) (A)
                 (A) (A) (A) (A) (A) (A) (A) (A)
       Virtual   (A) (A) (A) (A) (A) (A) (A) (A) (A) (A) (A) (A)
                 (A) (A) (A) (A) (A) (A) (A) (A) (A) (A) (A) (A)
                 (A) (A) (A) (A) (A) (A) (A) (A) (A) (A) (A) (A)
                 (A) (A) (A) (A) (A) (A) (A) (A) (A) (A) (A) (A)
                 (A) (A) (A) (A) (A) (A) (A) (A) (A) (A) (A) (A)
                 (A) (A) (A) (A) (A) (A) (A) (A) (A) (A) (A) (A)
                 (A) (A) (A) (A) (A) (A) (A) (A) (A) (A) (A) (A)
                 (A) (A) (A) (A) (A) (A) (A) (A) (A) (A) (A) (A)
                 (A) (A) (A) (A) (A) (A) (A) (A) (A) (A) (A) (A)
                 (A) (A) (A) (A) (A) (A) (A) (A) (A) (A) (A) (A)
                 (A) (A) (A) (A) (A) (A) (A) (A) (A) (A) (A) (A)
                 (A) (A) (A) (A) (A) (A) (A) (A) (A) (A) (A) (A)
                 (A) (A) (A) (A) (A) (A) (A) (A) (A) (A) (A) (A)
                 (A) (A) (A) (A) (A) (A) (A) (A) (A) (A) (A) (A)
                 (A) (A) (A) (A) (A) (A) (A) (A) (A) (A) (A) (A)
                 (A) (A) (A) (A) (A) (A) (A) (A) (A) (A) (A) (A)
                 (A) (A) (A) (A) (A) (A) (A) (A) (A) (A) (A) (A)
                 (A) (A) (A) (A) (A) (A) (A) (A) (A) (A) (A) (A)
                 (A) (A) (A) (A) (A) (A) (A) (A) (A) (A) (A) (A)
                 (A) (A) (A)
 The electronic state is 2-A.
 Alpha  occ. eigenvalues --  -19.65302 -10.58332 -10.54091 -10.53190 -10.52155
 Alpha  occ. eigenvalues --   -1.16958  -0.90212  -0.80621  -0.72981  -0.66037
 Alpha  occ. eigenvalues --   -0.56162  -0.55822  -0.52460  -0.50931  -0.47277
 Alpha  occ. eigenvalues --   -0.44453  -0.43211  -0.40501  -0.38947  -0.37544
 Alpha  occ. eigenvalues --   -0.23575
 Alpha virt. eigenvalues --    0.01526   0.02966   0.03512   0.03807   0.05681
 Alpha virt. eigenvalues --    0.06110   0.07010   0.07466   0.07676   0.10787
 Alpha virt. eigenvalues --    0.11377   0.11491   0.12529   0.13060   0.14011
 Alpha virt. eigenvalues --    0.15569   0.17806   0.19380   0.20357   0.21612
 Alpha virt. eigenvalues --    0.23497   0.24351   0.24877   0.26144   0.26449
 Alpha virt. eigenvalues --    0.28052   0.28136   0.29762   0.31579   0.32092
 Alpha virt. eigenvalues --    0.34523   0.37895   0.38476   0.42276   0.44500
 Alpha virt. eigenvalues --    0.46271   0.47039   0.47931   0.48506   0.49708
 Alpha virt. eigenvalues --    0.51415   0.52724   0.54027   0.55045   0.57237
 Alpha virt. eigenvalues --    0.58061   0.59597   0.60609   0.61085   0.63324
 Alpha virt. eigenvalues --    0.64153   0.64393   0.68256   0.68396   0.69587
 Alpha virt. eigenvalues --    0.71293   0.73190   0.76073   0.77715   0.82654
 Alpha virt. eigenvalues --    0.86790   0.88780   0.89651   0.91208   0.94293
 Alpha virt. eigenvalues --    0.98720   1.02173   1.03084   1.05047   1.06630
 Alpha virt. eigenvalues --    1.07488   1.10520   1.12169   1.13311   1.14524
 Alpha virt. eigenvalues --    1.15741   1.16564   1.18777   1.19986   1.22084
 Alpha virt. eigenvalues --    1.23790   1.24928   1.26627   1.28754   1.29097
 Alpha virt. eigenvalues --    1.31308   1.35548   1.36301   1.37399   1.37868
 Alpha virt. eigenvalues --    1.39937   1.44000   1.44442   1.45259   1.47244
 Alpha virt. eigenvalues --    1.48816   1.49825   1.52106   1.53989   1.54819
 Alpha virt. eigenvalues --    1.57118   1.58331   1.59068   1.59940   1.62684
 Alpha virt. eigenvalues --    1.66827   1.69836   1.71876   1.75865   1.89425
 Alpha virt. eigenvalues --    2.01583   2.14462   2.25958   2.27183   2.34851
 Alpha virt. eigenvalues --    2.41247   2.46743   2.56021   2.56654   2.62089
 Alpha virt. eigenvalues --    2.63442   2.70587   2.74702   2.76370   2.79461
 Alpha virt. eigenvalues --    2.80421   2.81681   2.82915   2.88272   2.91591
 Alpha virt. eigenvalues --    2.95324   2.96211   3.00245   3.04139   3.06893
 Alpha virt. eigenvalues --    3.09495   3.10081   3.15214   3.16673   3.18522
 Alpha virt. eigenvalues --    3.20857   3.25067   3.26200   3.27115   3.28513
 Alpha virt. eigenvalues --    3.31123   3.32919   3.33222   3.34728   3.36694
 Alpha virt. eigenvalues --    3.37715   3.40564   3.43756   3.47224   3.49521
 Alpha virt. eigenvalues --    3.52731   3.57606   3.62017   3.65879   3.67645
 Alpha virt. eigenvalues --    3.69216   3.72291   3.75364   3.78944   3.82758
 Alpha virt. eigenvalues --    3.85577   3.86707   3.87816   3.92160   3.94358
 Alpha virt. eigenvalues --    3.97750   3.98085   4.00910   4.03911   4.04764
 Alpha virt. eigenvalues --    4.06267   4.08085   4.09527   4.12004   4.18042
 Alpha virt. eigenvalues --    4.18203   4.20849   4.23182   4.25139   4.27790
 Alpha virt. eigenvalues --    4.29017   4.29708   4.34564   4.37084   4.38070
 Alpha virt. eigenvalues --    4.41661   4.42953   4.47926   4.50138   4.52015
 Alpha virt. eigenvalues --    4.57141   4.62945   4.66606   4.72980   4.75519
 Alpha virt. eigenvalues --    4.86469   4.94573   5.10969   5.17493   5.20313
 Alpha virt. eigenvalues --    5.22372   5.35143   5.45537   5.46552   5.49233
 Alpha virt. eigenvalues --    5.51650   5.52504   5.54839   5.56739   5.59448
 Alpha virt. eigenvalues --    5.68845   5.82750   6.00710   6.56648   6.93513
 Alpha virt. eigenvalues --    6.97409   7.16160   7.21773   7.49088   7.62852
 Alpha virt. eigenvalues --   24.18362  24.30222  24.40557  24.49213  50.11195
  Beta  occ. eigenvalues --  -19.64943 -10.57527 -10.54122 -10.53140 -10.52116
  Beta  occ. eigenvalues --   -1.15647  -0.89699  -0.79723  -0.71397  -0.65519
  Beta  occ. eigenvalues --   -0.55139  -0.54721  -0.51256  -0.50299  -0.45170
  Beta  occ. eigenvalues --   -0.43852  -0.41375  -0.40021  -0.38475  -0.37425
  Beta virt. eigenvalues --   -0.00118   0.02127   0.02998   0.03367   0.03984
  Beta virt. eigenvalues --    0.05807   0.06215   0.07088   0.07162   0.07704
  Beta virt. eigenvalues --    0.10898   0.11178   0.11811   0.12627   0.13240
  Beta virt. eigenvalues --    0.13713   0.15682   0.17833   0.19573   0.20608
  Beta virt. eigenvalues --    0.21948   0.23651   0.24936   0.25122   0.26269
  Beta virt. eigenvalues --    0.26931   0.28174   0.28681   0.29928   0.31708
  Beta virt. eigenvalues --    0.32536   0.34851   0.38353   0.39131   0.42332
  Beta virt. eigenvalues --    0.44630   0.46366   0.47152   0.48072   0.48513
  Beta virt. eigenvalues --    0.50148   0.51906   0.53246   0.54504   0.55154
  Beta virt. eigenvalues --    0.57307   0.59080   0.59740   0.61010   0.61492
  Beta virt. eigenvalues --    0.63658   0.64507   0.65193   0.68376   0.68860
  Beta virt. eigenvalues --    0.70108   0.71405   0.73482   0.76361   0.78337
  Beta virt. eigenvalues --    0.83016   0.86902   0.88924   0.89639   0.91286
  Beta virt. eigenvalues --    0.94463   0.98756   1.02120   1.03023   1.05816
  Beta virt. eigenvalues --    1.06902   1.07636   1.10660   1.12023   1.13684
  Beta virt. eigenvalues --    1.14464   1.16248   1.16741   1.18888   1.20240
  Beta virt. eigenvalues --    1.22171   1.23920   1.25169   1.26713   1.28946
  Beta virt. eigenvalues --    1.29189   1.31556   1.35644   1.36452   1.37663
  Beta virt. eigenvalues --    1.38227   1.40031   1.44352   1.44712   1.45704
  Beta virt. eigenvalues --    1.47265   1.48899   1.50015   1.52098   1.54282
  Beta virt. eigenvalues --    1.55373   1.57270   1.58973   1.59097   1.60350
  Beta virt. eigenvalues --    1.62876   1.67075   1.69994   1.72221   1.76178
  Beta virt. eigenvalues --    1.89933   2.02321   2.14983   2.26714   2.27587
  Beta virt. eigenvalues --    2.35313   2.41891   2.47280   2.56241   2.57551
  Beta virt. eigenvalues --    2.62381   2.65913   2.71095   2.75343   2.76702
  Beta virt. eigenvalues --    2.80780   2.81176   2.82392   2.83830   2.90608
  Beta virt. eigenvalues --    2.93535   2.96846   2.98166   3.00693   3.05613
  Beta virt. eigenvalues --    3.08605   3.10375   3.12085   3.16195   3.18323
  Beta virt. eigenvalues --    3.20728   3.21409   3.26106   3.26939   3.28314
  Beta virt. eigenvalues --    3.29749   3.32056   3.33766   3.34972   3.35322
  Beta virt. eigenvalues --    3.38548   3.39737   3.43062   3.46130   3.49364
  Beta virt. eigenvalues --    3.51925   3.54985   3.59634   3.63465   3.67414
  Beta virt. eigenvalues --    3.69319   3.70790   3.73215   3.76166   3.79886
  Beta virt. eigenvalues --    3.84242   3.86218   3.88005   3.88963   3.93088
  Beta virt. eigenvalues --    3.95038   3.98380   3.98899   4.01422   4.04594
  Beta virt. eigenvalues --    4.05226   4.07609   4.08601   4.10575   4.12304
  Beta virt. eigenvalues --    4.18657   4.18899   4.21506   4.24479   4.25667
  Beta virt. eigenvalues --    4.28204   4.29577   4.30644   4.35486   4.37936
  Beta virt. eigenvalues --    4.38729   4.42503   4.43596   4.48511   4.50771
  Beta virt. eigenvalues --    4.53038   4.58645   4.64835   4.66926   4.73559
  Beta virt. eigenvalues --    4.77672   4.87468   4.95011   5.13586   5.18650
  Beta virt. eigenvalues --    5.21457   5.22782   5.35565   5.45863   5.47979
  Beta virt. eigenvalues --    5.49897   5.52054   5.53517   5.56660   5.57714
  Beta virt. eigenvalues --    5.59895   5.69137   5.83491   6.01488   6.57788
  Beta virt. eigenvalues --    6.94412   6.97820   7.17101   7.22386   7.49749
  Beta virt. eigenvalues --    7.62776  24.18568  24.30577  24.41192  24.49691
  Beta virt. eigenvalues --   50.10943
          Condensed to atoms (all electrons):
               1          2          3          4          5          6
     1  O    8.022132  -0.003450  -0.075784   0.004327   0.155686  -0.000271
     2  C   -0.003450   5.604388  -0.120571  -0.062486   0.238748   0.470278
     3  C   -0.075784  -0.120571   5.588391   0.145543  -0.137485  -0.059123
     4  C    0.004327  -0.062486   0.145543   5.381642  -0.255560  -0.047614
     5  C    0.155686   0.238748  -0.137485  -0.255560   5.933838  -0.004352
     6  H   -0.000271   0.470278  -0.059123  -0.047614  -0.004352   0.545959
     7  H   -0.000227   0.480483  -0.076492  -0.066176   0.019304  -0.037830
     8  H    0.005309  -0.045813   0.442979   0.006226  -0.043547  -0.013212
     9  H   -0.005365  -0.053449   0.464930  -0.014564  -0.045717   0.005135
    10  H    0.002044  -0.049090  -0.011602   0.416857   0.003408   0.004582
    11  H    0.000510  -0.056104   0.013912   0.431309  -0.003898  -0.016225
    12  H   -0.001488  -0.013122  -0.012733   0.396333   0.013820   0.004813
    13  H   -0.050882  -0.024399   0.018896   0.016972   0.367649   0.000384
    14  H    0.241866  -0.017459   0.011126   0.011315  -0.029756   0.000041
               7          8          9         10         11         12
     1  O   -0.000227   0.005309  -0.005365   0.002044   0.000510  -0.001488
     2  C    0.480483  -0.045813  -0.053449  -0.049090  -0.056104  -0.013122
     3  C   -0.076492   0.442979   0.464930  -0.011602   0.013912  -0.012733
     4  C   -0.066176   0.006226  -0.014564   0.416857   0.431309   0.396333
     5  C    0.019304  -0.043547  -0.045717   0.003408  -0.003898   0.013820
     6  H   -0.037830  -0.013212   0.005135   0.004582  -0.016225   0.004813
     7  H    0.555692   0.003757  -0.014570   0.004433   0.005756  -0.016777
     8  H    0.003757   0.528888  -0.024525   0.000982  -0.000061  -0.000381
     9  H   -0.014570  -0.024525   0.530202   0.000758  -0.000513   0.000715
    10  H    0.004433   0.000982   0.000758   0.544224  -0.028446  -0.033115
    11  H    0.005756  -0.000061  -0.000513  -0.028446   0.550626  -0.028558
    12  H   -0.016777  -0.000381   0.000715  -0.033115  -0.028558   0.566516
    13  H   -0.000316  -0.009300   0.002286  -0.000229   0.000040  -0.000090
    14  H   -0.000510   0.000505   0.000953  -0.000960  -0.000019  -0.000203
              13         14
     1  O   -0.050882   0.241866
     2  C   -0.024399  -0.017459
     3  C    0.018896   0.011126
     4  C    0.016972   0.011315
     5  C    0.367649  -0.029756
     6  H    0.000384   0.000041
     7  H   -0.000316  -0.000510
     8  H   -0.009300   0.000505
     9  H    0.002286   0.000953
    10  H   -0.000229  -0.000960
    11  H    0.000040  -0.000019
    12  H   -0.000090  -0.000203
    13  H    0.515626   0.007973
    14  H    0.007973   0.514840
          Atomic-Atomic Spin Densities.
               1          2          3          4          5          6
     1  O    0.258648  -0.014567   0.020742   0.022983  -0.216578   0.000124
     2  C   -0.014567   0.160249  -0.104269  -0.118379   0.142790  -0.009718
     3  C    0.020742  -0.104269   0.115647   0.103083  -0.213054   0.006289
     4  C    0.022983  -0.118379   0.103083   0.183642  -0.185098   0.008425
     5  C   -0.216578   0.142790  -0.213054  -0.185098   1.460880  -0.006138
     6  H    0.000124  -0.009718   0.006289   0.008425  -0.006138   0.000343
     7  H    0.000142  -0.004173   0.005081   0.001720  -0.002881   0.000170
     8  H    0.001070   0.009870  -0.008742  -0.008877   0.004379  -0.001029
     9  H    0.003926   0.012958  -0.014143  -0.011261   0.003233  -0.000725
    10  H    0.002322  -0.018573   0.022129   0.023131  -0.025406   0.000042
    11  H    0.000139  -0.003406   0.002874   0.003684  -0.004489   0.000283
    12  H   -0.001016   0.019435  -0.011794  -0.021920   0.012263  -0.000534
    13  H    0.002707  -0.013117   0.029002   0.010314  -0.039740   0.000254
    14  H    0.003780  -0.000965   0.001463   0.001352  -0.003046   0.000009
               7          8          9         10         11         12
     1  O    0.000142   0.001070   0.003926   0.002322   0.000139  -0.001016
     2  C   -0.004173   0.009870   0.012958  -0.018573  -0.003406   0.019435
     3  C    0.005081  -0.008742  -0.014143   0.022129   0.002874  -0.011794
     4  C    0.001720  -0.008877  -0.011261   0.023131   0.003684  -0.021920
     5  C   -0.002881   0.004379   0.003233  -0.025406  -0.004489   0.012263
     6  H    0.000170  -0.001029  -0.000725   0.000042   0.000283  -0.000534
     7  H   -0.001329  -0.000152  -0.000070   0.000014  -0.000024  -0.000431
     8  H   -0.000152   0.012467   0.004005  -0.000163  -0.000041   0.000110
     9  H   -0.000070   0.004005   0.013783  -0.000111  -0.000039   0.000318
    10  H    0.000014  -0.000163  -0.000111  -0.022137   0.000652  -0.000803
    11  H   -0.000024  -0.000041  -0.000039   0.000652  -0.000380  -0.000572
    12  H   -0.000431   0.000110   0.000318  -0.000803  -0.000572   0.006759
    13  H    0.000046  -0.002813  -0.001915   0.000664   0.000061  -0.000086
    14  H   -0.000034  -0.000085   0.000174  -0.000204  -0.000007   0.000039
              13         14
     1  O    0.002707   0.003780
     2  C   -0.013117  -0.000965
     3  C    0.029002   0.001463
     4  C    0.010314   0.001352
     5  C   -0.039740  -0.003046
     6  H    0.000254   0.000009
     7  H    0.000046  -0.000034
     8  H   -0.002813  -0.000085
     9  H   -0.001915   0.000174
    10  H    0.000664  -0.000204
    11  H    0.000061  -0.000007
    12  H   -0.000086   0.000039
    13  H   -0.015906  -0.000408
    14  H   -0.000408  -0.005980
 Mulliken charges and spin densities:
               1          2
     1  O   -0.294407   0.084420
     2  C   -0.347954   0.058136
     3  C   -0.191988  -0.045692
     4  C   -0.364122   0.012799
     5  C   -0.212139   0.927115
     6  H    0.147437  -0.002205
     7  H    0.143474  -0.001921
     8  H    0.148193   0.009999
     9  H    0.153725   0.010134
    10  H    0.146156  -0.018440
    11  H    0.131672  -0.001265
    12  H    0.124269   0.001769
    13  H    0.155391  -0.030936
    14  H    0.260291  -0.003912
 Sum of Mulliken charges =  -0.00000   1.00000
 Mulliken charges and spin densities with hydrogens summed into heavy atoms:
               1          2
     1  O   -0.034116   0.080509
     2  C   -0.057042   0.054009
     3  C    0.109930  -0.025559
     4  C    0.037976  -0.005137
     5  C   -0.056747   0.896179
 APT charges:
               1
     1  O   -0.556487
     2  C   -0.944622
     3  C   -0.730539
     4  C   -1.008202
     5  C   -0.318772
     6  H    0.451317
     7  H    0.407853
     8  H    0.426012
     9  H    0.341693
    10  H    0.163535
    11  H    0.459131
    12  H    0.412331
    13  H    0.461514
    14  H    0.435237
 Sum of APT charges =  -0.00000
 APT charges with hydrogens summed into heavy atoms:
               1
     1  O   -0.121250
     2  C   -0.085452
     3  C    0.037165
     4  C    0.026795
     5  C    0.142741
 Electronic spatial extent (au):  <R**2>=            519.0486
 Charge=             -0.0000 electrons
 Dipole moment (field-independent basis, Debye):
    X=             -1.1426    Y=              0.9464    Z=             -0.9017  Tot=              1.7362
 Quadrupole moment (field-independent basis, Debye-Ang):
   XX=            -37.8006   YY=            -34.1506   ZZ=            -29.8926
   XY=              1.0299   XZ=             -0.9819   YZ=              1.5771
 Traceless Quadrupole moment (field-independent basis, Debye-Ang):
   XX=             -3.8527   YY=             -0.2027   ZZ=              4.0554
   XY=              1.0299   XZ=             -0.9819   YZ=              1.5771
 Octapole moment (field-independent basis, Debye-Ang**2):
  XXX=             -4.2626  YYY=              0.7242  ZZZ=             -5.6170  XYY=              1.6785
  XXY=              2.6495  XXZ=              0.1114  XZZ=              6.6388  YZZ=             -0.7604
  YYZ=             -0.7309  XYZ=              1.1854
 Hexadecapole moment (field-independent basis, Debye-Ang**3):
 XXXX=           -468.7835 YYYY=           -179.8901 ZZZZ=            -78.9994 XXXY=              2.3713
 XXXZ=             -4.4857 YYYX=             -4.7939 YYYZ=              4.8508 ZZZX=             -6.1886
 ZZZY=              4.8363 XXYY=           -106.2186 XXZZ=            -74.4975 YYZZ=            -41.6730
 XXYZ=              3.5163 YYXZ=             -2.0692 ZZXY=             -2.6285
 N-N= 1.819021752511D+02 E-N=-9.067076903560D+02  KE= 2.319424387805D+02
  Exact polarizability:   0.000   0.000   0.000   0.000   0.000   0.000
 Approx polarizability:  62.807  -1.802  59.251   0.039   1.230  63.517
                          Isotropic Fermi Contact Couplings
        Atom                 a.u.       MegaHertz       Gauss      10(-4) cm-1
     1  O(17)              0.03101     -18.79727      -6.70733      -6.27010
     2  C(13)              0.03842      43.19294      15.41232      14.40761
     3  C(13)             -0.01435     -16.12913      -5.75527      -5.38010
     4  C(13)              0.01923      21.61847       7.71401       7.21114
     5  C(13)              0.27481     308.93380     110.23526     103.04922
     6  H(1)              -0.00046      -2.07739      -0.74127      -0.69294
     7  H(1)              -0.00053      -2.38599      -0.85138      -0.79588
     8  H(1)               0.00544      24.33434       8.68310       8.11706
     9  H(1)               0.00438      19.57564       6.98508       6.52973
    10  H(1)              -0.00249     -11.13454      -3.97308      -3.71408
    11  H(1)              -0.00052      -2.33053      -0.83159      -0.77738
    12  H(1)               0.00015       0.67890       0.24225       0.22646
    13  H(1)              -0.00385     -17.20616      -6.13959      -5.73936
    14  H(1)              -0.00236     -10.56471      -3.76975      -3.52401
 --------------------------------------------------------
       Center         ----  Spin Dipole Couplings  ----
                      3XX-RR        3YY-RR        3ZZ-RR
 --------------------------------------------------------
     1   Atom       -0.068834      0.377331     -0.308496
     2   Atom        0.034921     -0.016323     -0.018599
     3   Atom        0.003945      0.011208     -0.015153
     4   Atom        0.033976     -0.013214     -0.020761
     5   Atom       -0.045894      0.470610     -0.424716
     6   Atom        0.006835     -0.002091     -0.004744
     7   Atom        0.002595     -0.003432      0.000837
     8   Atom       -0.003545      0.011680     -0.008134
     9   Atom       -0.006402      0.001213      0.005189
    10   Atom        0.024406     -0.002484     -0.021923
    11   Atom        0.007630     -0.004648     -0.002983
    12   Atom        0.002491     -0.001688     -0.000803
    13   Atom       -0.024996     -0.020339      0.045335
    14   Atom       -0.017086     -0.018685      0.035771
 --------------------------------------------------------
                        XY            XZ            YZ
 --------------------------------------------------------
     1   Atom        0.529036     -0.104024     -0.213480
     2   Atom        0.005346      0.011270     -0.000617
     3   Atom       -0.024299      0.013142     -0.012813
     4   Atom       -0.018528      0.019910     -0.007690
     5   Atom        0.679276     -0.189412     -0.281928
     6   Atom       -0.005301     -0.001319      0.000911
     7   Atom       -0.001806      0.005853     -0.002673
     8   Atom       -0.011097      0.001160     -0.001418
     9   Atom       -0.005867      0.005343     -0.010735
    10   Atom        0.023183      0.013629      0.005958
    11   Atom        0.002455     -0.003226     -0.001060
    12   Atom        0.002649      0.004851      0.003414
    13   Atom        0.033821      0.040845      0.013583
    14   Atom        0.002733      0.004929      0.001471
 --------------------------------------------------------


 ---------------------------------------------------------------------------------
              Anisotropic Spin Dipole Couplings in Principal Axis System
 ---------------------------------------------------------------------------------

       Atom             a.u.   MegaHertz   Gauss  10(-4) cm-1        Axes

              Baa    -0.4328    31.314    11.173    10.445  0.7264 -0.5740 -0.3781
     1 O(17)  Bbb    -0.3466    25.081     8.950     8.366  0.4305 -0.0488  0.9013
              Bcc     0.7794   -56.395   -20.123   -18.811  0.5358  0.8174 -0.2116
 
              Baa    -0.0215    -2.880    -1.028    -0.961 -0.2151  0.3338  0.9178
     2 C(13)  Bbb    -0.0162    -2.176    -0.777    -0.726 -0.0218  0.9379 -0.3462
              Bcc     0.0377     5.057     1.804     1.687  0.9764  0.0944  0.1945
 
              Baa    -0.0219    -2.934    -1.047    -0.979 -0.4240  0.0390  0.9048
     3 C(13)  Bbb    -0.0165    -2.218    -0.792    -0.740  0.6557  0.7024  0.2770
              Bcc     0.0384     5.152     1.838     1.719 -0.6247  0.7108 -0.3234
 
              Baa    -0.0275    -3.695    -1.318    -1.232 -0.2521  0.1840  0.9501
     4 C(13)  Bbb    -0.0196    -2.624    -0.936    -0.875  0.3544  0.9311 -0.0863
              Bcc     0.0471     6.319     2.255     2.108  0.9005 -0.3149  0.2999
 
              Baa    -0.5158   -69.215   -24.698   -23.088  0.7310 -0.5976 -0.3294
     5 C(13)  Bbb    -0.5032   -67.520   -24.093   -22.522  0.4009 -0.0145  0.9160
              Bcc     1.0190   136.735    48.791    45.610  0.5521  0.8017 -0.2290
 
              Baa    -0.0051    -2.701    -0.964    -0.901 -0.1101 -0.4655  0.8782
     6 H(1)   Bbb    -0.0044    -2.356    -0.841    -0.786  0.4213  0.7784  0.4654
              Bcc     0.0095     5.057     1.804     1.687  0.9002 -0.4212 -0.1105
 
              Baa    -0.0050    -2.693    -0.961    -0.898 -0.3260  0.6955  0.6403
     7 H(1)   Bbb    -0.0034    -1.818    -0.649    -0.606  0.6107  0.6720 -0.4189
              Bcc     0.0085     4.511     1.610     1.505  0.7216 -0.2544  0.6438
 
              Baa    -0.0095    -5.067    -1.808    -1.690  0.8575  0.4305 -0.2818
     8 H(1)   Bbb    -0.0082    -4.350    -1.552    -1.451  0.2187  0.1908  0.9570
              Bcc     0.0176     9.417     3.360     3.141 -0.4657  0.8822 -0.0695
 
              Baa    -0.0096    -5.138    -1.833    -1.714  0.8342  0.5435  0.0929
     9 H(1)   Bbb    -0.0072    -3.820    -1.363    -1.274 -0.4479  0.5697  0.6891
              Bcc     0.0168     8.958     3.196     2.988  0.3216 -0.6165  0.7187
 
              Baa    -0.0256   -13.682    -4.882    -4.564 -0.2745  0.0274  0.9612
    10 H(1)   Bbb    -0.0156    -8.313    -2.966    -2.773 -0.4554  0.8767 -0.1551
              Bcc     0.0412    21.996     7.849     7.337  0.8469  0.4803  0.2281
 
              Baa    -0.0053    -2.802    -1.000    -0.935 -0.1087  0.9510  0.2896
    11 H(1)   Bbb    -0.0038    -2.025    -0.723    -0.676  0.3117 -0.2440  0.9183
              Bcc     0.0090     4.827     1.722     1.610  0.9439  0.1901 -0.2699
 
              Baa    -0.0051    -2.719    -0.970    -0.907 -0.3107 -0.5412  0.7814
    12 H(1)   Bbb    -0.0027    -1.442    -0.515    -0.481 -0.6221  0.7373  0.2634
              Bcc     0.0078     4.161     1.485     1.388  0.7187  0.4042  0.5657
 
              Baa    -0.0614   -32.779   -11.696   -10.934  0.7874 -0.5725 -0.2284
    13 H(1)   Bbb    -0.0107    -5.693    -2.031    -1.899  0.4157  0.7668 -0.4891
              Bcc     0.0721    38.471    13.728    12.833  0.4552  0.2902  0.8418
 
              Baa    -0.0208   -11.094    -3.959    -3.701 -0.6218  0.7825  0.0338
    14 H(1)   Bbb    -0.0155    -8.263    -2.948    -2.756  0.7776  0.6219 -0.0926
              Bcc     0.0363    19.357     6.907     6.457  0.0935  0.0313  0.9951
 

 ---------------------------------------------------------------------------------

 No NMR shielding tensors so no spin-rotation constants.
 Leave Link  601 at Tue Apr  9 00:32:54 2019, MaxMem=   671088640 cpu:               8.7 elap:               0.5
 (Enter /shared/centos7/gaussian/g16/l701.exe)
 SCFChk:  SCF convergence  9.47D-09 required  1.00D-08
 ... and contract with generalized density number  0.
 Compute integral second derivatives.
 Entering OneElI...
 Calculate overlap and kinetic energy integrals
    NBasis = 276  MinDer = 2  MaxDer = 2
 Requested accuracy = 0.1000D-12
 PrmmSu-InSpLW:  IPartL=    0 NPrtUS=   20 NPrtUL=    1 DoSpLW=F IThBeg=    0 IThEnd=   19 NThAct=   20.
 PrsmSu:  NPrtUS=  20 ThrOK=T IAlg=1 NPAlg=1 LenDen=           0 ISkipM=0 DoSpLW=F IThBeg=    0 IThEnd=   19.
 Prism:   IPart=     0 DynPar=F LinDyn=F Incr=           1.
 PRISM was handed    33456617 working-precision words and  3654 shell-pairs
 PRISM was handed    33456617 working-precision words and  3654 shell-pairs
 PRISM was handed    33456617 working-precision words and  3654 shell-pairs
 PRISM was handed    33456617 working-precision words and  3654 shell-pairs
 PRISM was handed    33456617 working-precision words and  3654 shell-pairs
 PRISM was handed    33456617 working-precision words and  3654 shell-pairs
 PRISM was handed    33456617 working-precision words and  3654 shell-pairs
 PRISM was handed    33456617 working-precision words and  3654 shell-pairs
 PRISM was handed    33456617 working-precision words and  3654 shell-pairs
 PRISM was handed    33456617 working-precision words and  3654 shell-pairs
 PRISM was handed    33456617 working-precision words and  3654 shell-pairs
 PRISM was handed    33456617 working-precision words and  3654 shell-pairs
 PRISM was handed    33456617 working-precision words and  3654 shell-pairs
 PRISM was handed    33456617 working-precision words and  3654 shell-pairs
 PRISM was handed    33456617 working-precision words and  3654 shell-pairs
 PRISM was handed    33456617 working-precision words and  3654 shell-pairs
 PRISM was handed    33456617 working-precision words and  3654 shell-pairs
 PRISM was handed    33456617 working-precision words and  3654 shell-pairs
 PRISM was handed    33456617 working-precision words and  3654 shell-pairs
 PRISM was handed    33456617 working-precision words and  3654 shell-pairs
 IPart= 10 NShTot=         178 NBatch=          35 AvBLen=         5.1
 IPart= 11 NShTot=         173 NBatch=          34 AvBLen=         5.1
 IPart= 12 NShTot=         171 NBatch=          34 AvBLen=         5.0
 IPart=  1 NShTot=         208 NBatch=          48 AvBLen=         4.3
 IPart=  3 NShTot=         202 NBatch=          45 AvBLen=         4.5
 IPart=  2 NShTot=         204 NBatch=          46 AvBLen=         4.4
 IPart= 13 NShTot=         170 NBatch=          33 AvBLen=         5.2
 IPart= 14 NShTot=         169 NBatch=          32 AvBLen=         5.3
 IPart=  4 NShTot=         200 NBatch=          43 AvBLen=         4.7
 IPart=  5 NShTot=         192 NBatch=          39 AvBLen=         4.9
 IPart= 15 NShTot=         166 NBatch=          31 AvBLen=         5.4
 IPart= 16 NShTot=         166 NBatch=          31 AvBLen=         5.4
 IPart=  6 NShTot=         189 NBatch=          39 AvBLen=         4.8
 IPart=  7 NShTot=         189 NBatch=          39 AvBLen=         4.8
 IPart= 17 NShTot=         165 NBatch=          31 AvBLen=         5.3
 IPart= 19 NShTot=         164 NBatch=          30 AvBLen=         5.5
 IPart=  8 NShTot=         185 NBatch=          37 AvBLen=         5.0
 IPart= 18 NShTot=         165 NBatch=          31 AvBLen=         5.3
 IPart=  9 NShTot=         182 NBatch=          35 AvBLen=         5.2
 IPart=  0 NShTot=         216 NBatch=          55 AvBLen=         3.9
 PrSmSu:  NxtVal=             21.
 Entering OneElI...
 Calculate potential energy integrals
    NBasis = 276  MinDer = 2  MaxDer = 2
 Requested accuracy = 0.1000D-12
 PrmmSu-InSpLW:  IPartL=    0 NPrtUS=   20 NPrtUL=    1 DoSpLW=F IThBeg=    0 IThEnd=   19 NThAct=   20.
 PrsmSu:  NPrtUS=  20 ThrOK=T IAlg=1 NPAlg=1 LenDen=           0 ISkipM=0 DoSpLW=F IThBeg=    0 IThEnd=   19.
 Prism:   IPart=     0 DynPar=F LinDyn=F Incr=          24.
 PRISM was handed    33468989 working-precision words and  3508 shell-pairs
 PRISM was handed    33468989 working-precision words and  3508 shell-pairs
 PRISM was handed    33468989 working-precision words and  3508 shell-pairs
 PRISM was handed    33468989 working-precision words and  3508 shell-pairs
 PRISM was handed    33468989 working-precision words and  3508 shell-pairs
 PRISM was handed    33468989 working-precision words and  3508 shell-pairs
 PRISM was handed    33468989 working-precision words and  3508 shell-pairs
 PRISM was handed    33468989 working-precision words and  3508 shell-pairs
 PRISM was handed    33468989 working-precision words and  3508 shell-pairs
 PRISM was handed    33468989 working-precision words and  3508 shell-pairs
 PRISM was handed    33468989 working-precision words and  3508 shell-pairs
 PRISM was handed    33468989 working-precision words and  3508 shell-pairs
 PRISM was handed    33468989 working-precision words and  3508 shell-pairs
 PRISM was handed    33468989 working-precision words and  3508 shell-pairs
 PRISM was handed    33468989 working-precision words and  3508 shell-pairs
 PRISM was handed    33468989 working-precision words and  3508 shell-pairs
 PRISM was handed    33468989 working-precision words and  3508 shell-pairs
 PRISM was handed    33468989 working-precision words and  3508 shell-pairs
 PRISM was handed    33468989 working-precision words and  3508 shell-pairs
 PRISM was handed    33468989 working-precision words and  3508 shell-pairs
 IPart= 11 NShTot=        2366 NBatch=         169 AvBLen=        14.0
 IPart=  0 NShTot=        2870 NBatch=         205 AvBLen=        14.0
 IPart= 14 NShTot=        2310 NBatch=         165 AvBLen=        14.0
 IPart= 10 NShTot=        2422 NBatch=         173 AvBLen=        14.0
 IPart= 16 NShTot=        2226 NBatch=         159 AvBLen=        14.0
 IPart=  2 NShTot=        2730 NBatch=         195 AvBLen=        14.0
 IPart=  3 NShTot=        2660 NBatch=         190 AvBLen=        14.0
 IPart= 12 NShTot=        2352 NBatch=         168 AvBLen=        14.0
 IPart=  1 NShTot=        2786 NBatch=         199 AvBLen=        14.0
 IPart= 13 NShTot=        2310 NBatch=         165 AvBLen=        14.0
 IPart= 15 NShTot=        2268 NBatch=         162 AvBLen=        14.0
 IPart= 17 NShTot=        2212 NBatch=         158 AvBLen=        14.0
 IPart= 18 NShTot=        2198 NBatch=         157 AvBLen=        14.0
 IPart= 19 NShTot=        2198 NBatch=         157 AvBLen=        14.0
 IPart=  9 NShTot=        2478 NBatch=         177 AvBLen=        14.0
 IPart=  7 NShTot=        2506 NBatch=         179 AvBLen=        14.0
 IPart=  5 NShTot=        2562 NBatch=         183 AvBLen=        14.0
 IPart=  6 NShTot=        2520 NBatch=         180 AvBLen=        14.0
 IPart=  4 NShTot=        2632 NBatch=         188 AvBLen=        14.0
 IPart=  8 NShTot=        2506 NBatch=         179 AvBLen=        14.0
 PrSmSu:  NxtVal=            481.
 Polarizability after L701:
                1             2             3 
      1  0.000000D+00
      2  0.000000D+00  0.000000D+00
      3  0.000000D+00  0.000000D+00  0.000000D+00
 Dipole Derivatives after L701:
                 1             2             3             4             5 
      1  -0.407684D+00  0.592557D-01  0.599843D+00 -0.156410D+01  0.117613D+01
      2  -0.706927D-01 -0.405659D+00 -0.226910D+00  0.845386D+00 -0.302347D+00
      3  -0.199061D+00 -0.718729D-02 -0.856117D+00 -0.224878D+00 -0.122832D-01
                 6             7             8             9            10 
      1  -0.374883D+00  0.471383D-01 -0.225000D+00  0.249985D+00 -0.957337D+00
      2  -0.341132D-01 -0.511396D+00 -0.144227D+01  0.159715D+00 -0.152541D+00
      3  -0.967423D+00  0.279463D+00 -0.504669D-01 -0.796486D+00  0.649779D-01
                11            12            13            14            15 
      1  -0.129944D+01  0.292800D+00 -0.265008D+00 -0.433532D-01 -0.664209D+00
      2  -0.113862D+01 -0.334384D-01  0.421086D-01  0.830565D-01 -0.229967D+00
      3  -0.964304D-01 -0.928652D+00 -0.295739D+00 -0.248715D+00 -0.774365D+00
                16            17            18            19            20 
      1   0.663698D+00 -0.410157D+00 -0.526412D+00  0.385383D+00 -0.120613D+00
      2  -0.249382D+00  0.393138D+00  0.278507D+00 -0.815638D-01  0.216812D+00
      3  -0.136025D+00  0.107198D+00  0.297114D+00  0.150904D+00 -0.829531D-01
                21            22            23            24            25 
      1   0.653856D+00  0.172011D+00  0.239704D-01  0.201531D-01  0.202275D+00
      2  -0.273648D+00 -0.376913D-01  0.834090D+00  0.485755D+00  0.123807D+00
      3   0.621365D+00 -0.756317D-02  0.216973D+00  0.271934D+00 -0.947395D-01
                26            27            28            29            30 
      1   0.551552D-01 -0.164311D+00 -0.292287D-01  0.106213D+00 -0.365813D-01
      2   0.264774D+00 -0.497286D+00 -0.501837D+00  0.367035D+00 -0.134084D+00
      3  -0.116663D+00  0.558030D+00  0.144327D+00 -0.582781D-01  0.152799D+00
                31            32            33            34            35 
      1   0.729012D+00  0.113724D+00 -0.768212D+00  0.386994D+00  0.412156D+00
      2   0.292050D+00  0.206108D+00 -0.356807D+00  0.221875D+00  0.431105D+00
      3  -0.283185D+00 -0.347055D-01  0.442273D+00  0.139501D+00  0.147667D+00
                36            37            38            39            40 
      1   0.679223D+00  0.457459D+00  0.180353D+00  0.620626D+00  0.179384D+00
      2   0.489125D+00  0.237242D-01  0.179750D+00  0.138451D+00  0.561523D-01
      3   0.418894D+00  0.275281D+00  0.214081D+00  0.747333D+00  0.186738D+00
                41            42 
      1  -0.283986D-01 -0.581877D+00
      2   0.313025D+00  0.234699D+00
      3   0.217635D-01  0.813302D+00
 Hessian after L701:
                1             2             3             4             5 
      1  0.664901D+01
      2  0.267689D+01  0.105041D+02
      3  0.185240D+01 -0.227650D+01  0.564386D+01
      4  0.421764D+00 -0.107960D+00 -0.257973D-02  0.113664D+02
      5 -0.135479D+00 -0.144394D+00  0.228855D-02 -0.286001D+00  0.124999D+02
      6 -0.296699D-01  0.348785D-02 -0.205632D+00 -0.318974D+00  0.157215D+00
      7  0.398972D+00 -0.598541D+00 -0.146434D-01 -0.128468D+01  0.117031D+01
      8 -0.429109D+00  0.102821D+00 -0.293815D-01  0.102615D+01 -0.436323D+01
      9 -0.131025D+00  0.575946D-01 -0.288028D+00  0.324957D+00  0.199079D+00
     10  0.225056D+00  0.550722D-01 -0.128324D-01 -0.467748D+01  0.628164D+00
     11 -0.331064D-01 -0.185848D+00 -0.109949D-01  0.673553D+00 -0.110747D+01
     12 -0.448681D-01 -0.870002D-02 -0.183700D+00 -0.146290D+00 -0.630930D+00
     13 -0.350482D+01 -0.204396D+01 -0.318502D+01  0.391555D-01 -0.519567D-01
     14 -0.209388D+01 -0.544160D+01  0.199290D+01 -0.963291D-01 -0.351757D+00
     15 -0.321173D+01  0.199542D+01 -0.388862D+01  0.152165D+00 -0.374602D-01
     16  0.286009D-01 -0.164361D-01 -0.178897D-02 -0.271298D+01 -0.890719D+00
     17 -0.255227D-01 -0.473081D-03  0.730289D-03 -0.879192D+00 -0.299095D+01
     18 -0.194088D-01  0.837426D-02 -0.120078D-01 -0.920451D+00  0.775804D+00
     19  0.347167D-01 -0.162233D-01  0.184273D-01 -0.333595D+01 -0.263143D+00
     20 -0.220935D-01 -0.786296D-02 -0.844516D-02 -0.251038D+00 -0.353560D+01
     21  0.372680D-01 -0.123425D-01  0.151378D-02  0.871298D+00 -0.587865D+00
     22  0.369609D-02 -0.689734D-01 -0.242312D-01 -0.223929D-01 -0.770198D-01
     23 -0.104188D+00  0.847042D-01  0.408968D-01 -0.827423D-01  0.552621D-01
     24 -0.446951D-01  0.588350D-01 -0.314172D-01 -0.152740D-01  0.309875D-01
     25  0.174795D-02 -0.131777D-01  0.595780D-02 -0.595401D-01 -0.543797D-01
     26 -0.466994D-01 -0.210102D-01 -0.194911D-01 -0.907032D-01  0.944075D-01
     27  0.548031D-01 -0.482383D-01  0.122897D-03  0.525343D-01 -0.164464D-02
     28  0.325717D-01  0.252097D-01 -0.233783D-01  0.127316D+00 -0.104809D-01
     29  0.695440D-01 -0.320533D-01 -0.114930D-01  0.794936D-01 -0.111477D+00
     30 -0.477986D-01 -0.160375D-01 -0.523226D-01 -0.931059D-02  0.402602D-01
     31  0.450685D-01  0.639294D-02 -0.122746D-01  0.878269D-01 -0.179954D-01
     32  0.917353D-02 -0.119933D-01 -0.932222D-03 -0.958682D-02 -0.182737D-01
     33 -0.317823D-01 -0.406430D-02 -0.962693D-02 -0.546073D-01  0.108103D-01
     34  0.253646D-01  0.136678D-01  0.125609D-01  0.294800D-01 -0.675268D-02
     35  0.231321D-01 -0.558447D-02  0.722396D-02  0.222754D-01 -0.337161D-01
     36  0.242006D-01  0.733383D-02 -0.255764D-02  0.479076D-01  0.395363D-01
     37  0.229101D-01  0.828772D-01  0.192329D+00  0.354819D-01 -0.711249D-02
     38  0.677020D-01  0.705740D-01 -0.146628D-01 -0.570755D-02  0.111668D-02
     39  0.166626D+00  0.108894D-01  0.233952D-01  0.218572D-01 -0.585285D-04
     40 -0.438466D+01  0.516034D-02  0.119507D+01 -0.144111D-01  0.256411D-02
[...]
 ! D5    D(4,2,3,9)             64.704          -DE/DX =    0.0                 !
 ! D6    D(6,2,3,5)             63.7698         -DE/DX =    0.0                 !
 ! D7    D(6,2,3,8)            -58.103          -DE/DX =    0.0                 !
 ! D8    D(6,2,3,9)           -173.6092         -DE/DX =    0.0                 !
 ! D9    D(7,2,3,5)            179.9266         -DE/DX =    0.0                 !
 ! D10   D(7,2,3,8)             58.0538         -DE/DX =    0.0                 !
 ! D11   D(7,2,3,9)            -57.4524         -DE/DX =    0.0                 !
 ! D12   D(3,2,4,10)            64.2447         -DE/DX =    0.0                 !
 ! D13   D(3,2,4,11)          -176.1114         -DE/DX =    0.0                 !
 ! D14   D(3,2,4,12)           -56.5998         -DE/DX =    0.0                 !
 ! D15   D(6,2,4,10)           -57.0817         -DE/DX =    0.0                 !
 ! D16   D(6,2,4,11)            62.5622         -DE/DX =    0.0                 !
 ! D17   D(6,2,4,12)          -177.9262         -DE/DX =    0.0                 !
 ! D18   D(7,2,4,10)          -174.2202         -DE/DX =    0.0                 !
 ! D19   D(7,2,4,11)           -54.5763         -DE/DX =    0.0                 !
 ! D20   D(7,2,4,12)            64.9353         -DE/DX =    0.0                 !
 ! D21   D(2,3,5,1)             84.2847         -DE/DX =    0.0                 !
 ! D22   D(2,3,5,13)          -122.958          -DE/DX =    0.0                 !
 ! D23   D(8,3,5,1)           -153.6831         -DE/DX =    0.0                 !
 ! D24   D(8,3,5,13)            -0.9257         -DE/DX =    0.0                 !
 ! D25   D(9,3,5,1)            -37.8334         -DE/DX =    0.0                 !
 ! D26   D(9,3,5,13)           114.9239         -DE/DX =    0.0                 !
 --------------------------------------------------------------------------------
 GradGradGradGradGradGradGradGradGradGradGradGradGradGradGradGradGradGrad

 Leave Link  103 at Tue Apr  9 01:59:15 2019, MaxMem=   671088640 cpu:               1.0 elap:               0.1
 (Enter /shared/centos7/gaussian/g16/l9999.exe)

 ----------------------------------------------------------------------

 Electric dipole moment (input orientation):
 (Debye = 10**-18 statcoulomb cm , SI units = C m)
                  (au)            (Debye)         (10**-30 SI)
   Tot        0.692848D+00      0.176104D+01      0.587421D+01
   x         -0.589332D+00     -0.149793D+01     -0.499656D+01
   y         -0.104736D+00     -0.266212D+00     -0.887989D+00
   z         -0.348936D+00     -0.886906D+00     -0.295840D+01

 Dipole polarizability, Alpha (input orientation).
 (esu units = cm**3 , SI units = C**2 m**2 J**-1)
 Alpha(0;0):
               (au)            (10**-24 esu)      (10**-40 SI)
   iso        0.546737D+02      0.810180D+01      0.901447D+01
   aniso      0.810118D+01      0.120047D+01      0.133570D+01
   xx         0.588564D+02      0.872162D+01      0.970411D+01
   yx         0.793058D+00      0.117519D+00      0.130758D+00
   yy         0.531995D+02      0.788335D+01      0.877141D+01
   zx         0.292924D+00      0.434068D-01      0.482966D-01
   zy        -0.276756D+01     -0.410110D+00     -0.456309D+00
   zz         0.519652D+02      0.770045D+01      0.856790D+01

 ----------------------------------------------------------------------

 Dipole orientation:
     8         -5.71148745        -11.49741392        -21.93018984
     6         -7.17079866        -14.45569577        -16.62979441
     6         -4.74894787        -14.14433735        -18.20723431
     6         -8.99993857        -12.24766788        -16.91211589
     6         -5.18456304        -13.82888258        -20.96728125
     1         -8.11208502        -16.19965842        -17.20071380
     1         -6.64269188        -14.67428753        -14.64698475
     1         -3.54426164        -15.79083709        -17.91462153
     1         -3.69419725        -12.50669962        -17.48144128
     1         -9.70219472        -12.11411623        -18.84599286
     1        -10.63203847        -12.46236563        -15.67704652
     1         -8.08667252        -10.46046138        -16.41842317
     1         -4.36420734        -15.07039722        -22.35990804
     1         -6.24549077        -10.38581275        -20.59810933

 Electric dipole moment (dipole orientation):
 (Debye = 10**-18 statcoulomb cm , SI units = C m)
                  (au)            (Debye)         (10**-30 SI)
   Tot        0.692848D+00      0.176104D+01      0.587421D+01
   x          0.000000D+00      0.000000D+00      0.000000D+00
   y          0.000000D+00      0.000000D+00      0.000000D+00
   z          0.692848D+00      0.176104D+01      0.587421D+01

 Dipole polarizability, Alpha (dipole orientation).
 (esu units = cm**3 , SI units = C**2 m**2 J**-1)
 Alpha(0;0):
               (au)            (10**-24 esu)      (10**-40 SI)
   iso        0.546737D+02      0.810180D+01      0.901447D+01
   aniso      0.810118D+01      0.120047D+01      0.133570D+01
   xx         0.530976D+02      0.786826D+01      0.875462D+01
   yx        -0.228216D+01     -0.338182D+00     -0.376278D+00
   yy         0.539106D+02      0.798873D+01      0.888866D+01
   zx        -0.336936D+01     -0.499288D+00     -0.555533D+00
   zy        -0.102311D+01     -0.151609D+00     -0.168688D+00
   zz         0.570128D+02      0.844842D+01      0.940014D+01

 ----------------------------------------------------------------------

 Test job not archived.
 1\1\GINC-C0209\Freq\UM062X\6-311+G(2df,2p)\C4H9O1(2)\UNDERKOFFLER.C\09
 -Apr-2019\0\\#P Geom=AllCheck Guess=TCheck SCRF=Check Test GenChk UM06
 2X/6-311+G(2df,2p) Freq\\Gaussian input prepared by ASE\\0,2\O,7.78273
 25986,8.0044546764,7.4956488366\C,4.8624234885,9.1881543376,6.50326741
 06\C,6.2514599818,9.0424862492,5.8584623251\C,4.587229971,8.1428309897
 ,7.5784609174\C,7.3884752922,9.1185926048,6.8153459712\H,4.7820546324,
 10.1852600672,6.9396012662\H,4.1050310158,9.1195584207,5.7196396869\H,
 6.3759883695,9.8226124557,5.1065210693\H,6.2884579922,8.0832666041,5.3
 212761958\H,5.2709362388,8.2597106257,8.4206322133\H,3.5734992912,8.22
 97753902,7.9667639053\H,4.6966236268,7.130635068,7.178780144\H,8.18436
 38745,9.8398684866,6.717922482\H,7.0868357608,7.3427664582,7.469924537
 4\\Version=EM64L-G16RevA.03\State=2-A\HF=-232.9736188\S2=0.754624\S2-1
 =0.\S2A=0.750017\RMSD=1.909e-09\RMSF=1.676e-06\ZeroPoint=0.124317\Ther
 mal=0.1310387\Dipole=-0.5893319,-0.104736,-0.3489357\DipoleDeriv=-0.47
 1119,0.1503375,-0.1375213,0.2993857,-0.873642,0.3708163,-0.1709041,0.2
 779108,-0.5195818,0.1072666,0.0153626,0.0072246,0.0157099,0.1026525,-0
 .0176795,-0.0078099,-0.0061282,0.1102056,0.0728895,0.0291053,-0.031235
 7,-0.0470528,0.1004569,0.0597134,-0.0056091,0.1162732,0.0737796,-0.012
 6664,-0.0151159,0.0334,-0.0095593,0.0627742,0.0515272,0.0262123,0.0553
 778,0.0008457,0.2045029,-0.0601687,0.2748125,-0.1310425,0.5617767,-0.4
 261069,0.2840903,-0.4248807,0.0882071,0.0334769,-0.0152872,0.0180978,0
 .025521,-0.1236607,-0.0350409,0.0421084,-0.0541771,0.0046565,-0.099675
 6,0.0039234,-0.0866228,-0.0305382,0.0495016,0.0057589,-0.0990485,0.025
 4175,-0.0818577,0.0124216,-0.0242561,0.0266455,-0.016212,-0.0253941,0.
 1159265,0.0155338,0.0831994,-0.0349183,-0.0104022,0.0158889,-0.0280495
 ,-0.003789,-0.1270919,-0.132173,-0.0225676,-0.0664279,-0.0127979,0.009
 1305,0.0024022,-0.1059901,-0.0202781,0.0260365,-0.0091451,-0.0787155,0
 .0158704,-0.0357947,-0.1124975,-0.0110583,0.0923841,0.0183065,0.058100
 7,0.0110088,0.0717193,0.0204493,0.0303453,0.0585192,0.0531348,0.015163
 5,0.0229048,-0.1302254,-0.0288862,0.0157838,-0.0782321,0.0068269,-0.05
 45309,-0.0795456,-0.0457402,-0.0394011,0.0282094,0.0645569,-0.03599,0.
 0658534,0.0913349,0.2626846,-0.0647227,-0.0325684,-0.0839551,0.2905055
 ,-0.0302765,-0.0348033,-0.0305058,0.2787487\Polar=58.8564071,0.7930581
 ,53.1994568,0.2929236,-2.7675576,51.9651811\Quadrupole=-1.7407715,1.87
 57871,-0.1350156,1.0880562,-1.2925235,-0.5962814\PG=C01 [X(C4H9O1)]\NI
 mag=0\\0.40317505,0.19298290,0.54493839,0.10345414,-0.15284439,0.13391
 304,0.00080830,0.00004686,0.00148028,0.49409531,-0.00043495,0.00065112
 ,0.00052184,-0.00187599,0.55511521,-0.00044531,0.00266183,-0.00235253,
 0.05926766,0.04400655,0.53547624,-0.00011257,-0.00136640,-0.00897799,-
 0.14991201,0.01176502,0.03298268,0.43742034,0.02823741,-0.00634191,0.0
 2657170,0.01546606,-0.07810165,-0.00400345,0.01170085,0.58099049,-0.01
 252147,-0.00041949,-0.01507247,0.04599855,-0.00357547,-0.09609642,0.02
 128507,-0.04219317,0.51485009,-0.00150961,-0.00005458,0.00017032,-0.08
 265616,-0.01189199,0.01216396,-0.00737463,-0.02384893,0.02507308,0.578
 48061,0.00053792,-0.00106050,-0.00062697,-0.01352162,-0.13881664,0.059
 72183,-0.00247610,0.00207684,-0.00149411,-0.01050486,0.52041826,0.0023
 4359,0.00013368,-0.00183365,0.01143593,0.05878252,-0.13996842,0.006909
 32,0.01068342,-0.01187469,0.00802878,0.04479450,0.52626508,-0.10442048
 ,0.06169765,-0.07427495,-0.03202696,-0.00278075,-0.01622482,-0.1606355
 8,-0.03127835,-0.09846148,0.00076194,-0.00067332,-0.00074249,0.5105556
 7,0.02663061,-0.26587279,0.11092287,-0.00231848,-0.00030439,-0.0014399
 7,-0.01360465,-0.08270011,0.00993529,-0.00041427,0.00077573,-0.0020827
 3,0.15043856,0.55177921,-0.06409167,0.14320459,-0.09610055,-0.00415384
 ,0.00089159,0.01344081,-0.07419649,-0.00155131,-0.12138506,0.00047376,
 -0.00009450,0.00164621,0.16793515,-0.16745285,0.25783390,-0.00004091,-
 0.00073859,-0.00022166,-0.04863353,0.01490726,0.00429633,-0.00550655,0
 .02794479,0.01396170,0.00032052,-0.00564414,-0.00240551,0.00236514,0.0
 0098252,0.00022820,0.05329526,0.00006805,0.00025887,-0.00014570,0.0161
 9535,-0.26639160,-0.09743574,0.00047431,-0.00212006,-0.00137015,0.0011
 0697,-0.02190351,-0.00777170,-0.00032246,0.00034275,0.00058419,-0.0166
 3233,0.28999035,-0.00006852,-0.00003299,0.00021574,0.00504747,-0.09852
 592,-0.09106647,0.00232966,-0.01265650,-0.00677941,-0.00163588,0.02477
 026,0.00913327,-0.00079038,0.00094867,-0.00014310,-0.01056443,0.103689
 59,0.09980966,-0.00046656,0.00153445,-0.00084078,-0.17170240,-0.012033
 43,-0.13026612,-0.02240519,-0.00219524,-0.02054834,0.00534220,0.000352
 11,0.00631142,-0.00354843,-0.00155254,0.00349874,0.00179221,-0.0004977
 1,0.00214489,0.18877259,-0.00043415,0.00067138,-0.00033155,-0.01343167
 ,-0.05179765,-0.01568004,0.00379678,-0.00033907,0.00267214,0.01659088,
 0.00105562,0.01903671,0.00046471,0.00069833,-0.00029938,-0.02104787,-0
 .00141576,-0.02086383,0.01503984,0.05243530,0.00002770,-0.00001448,0.0
 0057538,-0.13044548,-0.01510887,-0.18222801,0.01294973,0.00067659,0.01
 016010,-0.01537137,-0.00119535,-0.01834544,0.00156544,-0.00010089,-0.0
 0121248,-0.00866116,-0.00083399,-0.00957885,0.13928423,0.01284549,0.20
 005615,-0.00420186,0.00080182,-0.00593569,-0.00442341,-0.02254654,0.02
 167163,-0.04675345,-0.02294139,0.01826124,-0.00600866,0.00196779,0.001
 80808,0.00208362,0.02059061,-0.01526270,0.00134583,0.00040110,-0.00033
 010,0.00094145,-0.00039248,-0.00088141,0.05841601,0.00004642,0.0013109
 6,0.00101656,0.00119023,0.00301469,-0.00393875,-0.02206998,-0.18720772
 ,0.13139814,0.00028934,0.00065795,-0.00037290,0.00040882,0.00028349,-0
 .00180629,-0.00046135,0.00064172,0.00000219,-0.00059193,-0.00002696,0.
 00014144,0.02299724,0.19873270,-0.00269005,-0.00008198,-0.00296049,0.0
 0286147,0.01034887,-0.01029959,0.01773298,0.12974204,-0.17335548,0.003
 14131,-0.00126730,0.00010225,0.00303684,0.01706239,-0.01241555,-0.0005
 9691,-0.00010160,0.00003121,-0.00008182,-0.00017001,0.00063184,-0.0210
 7648,-0.14421715,0.18525367,0.00072123,0.00178255,0.00316623,-0.004763
 34,0.02788390,0.01667155,-0.04163446,0.00520991,0.00134169,0.00153149,
 0.00106993,-0.00127791,-0.00493550,-0.02571038,-0.01473604,-0.00545772
 ,0.00025559,0.00308689,0.00131966,-0.00006657,-0.00085145,-0.00068568,
 -0.00264403,-0.00172504,0.05443911,-0.00045448,0.00531468,0.00085889,0
 .00066534,-0.00495258,-0.00190236,0.00936385,-0.23198783,-0.09698436,-
 0.00045697,0.00122903,0.00048584,-0.00351187,-0.00565524,-0.00278277,0
 .00087370,0.00121939,-0.00000737,0.00052054,0.00008682,0.00008212,0.00
 054420,-0.01893394,-0.01105526,-0.00778609,0.25325664,0.00061762,0.002
 50443,0.00227485,0.00362692,-0.01369719,-0.00748906,0.00436840,-0.1016
 0696,-0.10391376,-0.00105228,-0.00122973,0.00039835,-0.00563330,-0.021
 00944,-0.01131786,0.00256387,-0.00017293,-0.00035193,-0.00020616,0.000
 44935,0.00058222,-0.00057213,0.01895914,0.01202870,-0.00322829,0.11429
 038,0.11077273,-0.00180652,0.00048638,0.00063974,0.00437440,0.00157662
 ,0.00516184,0.00062288,0.00055918,0.00012100,-0.15359266,-0.01889285,-
 0.12935966,-0.00024903,-0.00012149,0.00020736,0.00016269,0.00046011,-0
 .00047249,0.00058124,-0.00089027,0.00146395,0.00007673,0.00001419,-0.0
 0016408,-0.00000264,0.00001334,-0.00004108,0.16660187,-0.00031181,-0.0
 0083583,0.00069239,0.01679760,0.00244102,0.01952780,0.00019326,0.00063
 371,-0.00085693,-0.01923545,-0.05166902,-0.02596953,-0.00053721,0.0007
 7699,-0.00060812,0.00059710,0.00091244,-0.00073882,-0.00145932,-0.0029
 8990,0.00401303,0.00015174,-0.00006442,-0.00019209,-0.00007320,-0.0000
 8450,0.00003835,0.02057258,0.05411367,-0.00069496,-0.00090196,0.001459
 40,-0.01490324,-0.00238817,-0.01874206,-0.00092304,-0.00062535,0.00044
 084,-0.12819223,-0.02493024,-0.20351858,0.00004187,0.00118657,-0.00089
 985,0.00019750,-0.00017131,0.00115228,0.00153939,0.00374144,-0.0021121
 1,0.00007142,0.00007234,0.00027936,0.00011729,0.00007634,-0.00001595,0
 .14065363,0.02435747,0.22193065,-0.00043735,-0.00013063,0.00047330,-0.
 00311128,0.00069578,0.00025176,0.00115241,-0.00129572,0.00056667,-0.28
 390818,0.02271354,0.08865220,0.00034424,0.00060588,-0.00026929,-0.0000
 4863,-0.00040427,0.00001362,0.00068335,-0.00009485,0.00027604,-0.00037
 951,0.00017897,0.00011203,0.00009945,0.00005301,-0.00011392,-0.0185791
 3,0.00229971,0.00725469,0.30594539,0.00011470,0.00064215,-0.00020923,-
 0.02326666,0.00257913,0.00756538,0.00009913,-0.00350688,0.00296892,0.0
 2357955,-0.04881098,-0.00921599,0.00076643,-0.00065255,0.00039321,-0.0
 0004451,0.00047384,-0.00095204,0.00050102,0.00099614,-0.00062986,-0.00
 118551,0.00030479,0.00084365,-0.00009946,0.00027457,0.00024473,-0.0041
 7883,-0.00057474,0.00173591,-0.02446251,0.05093725,-0.00050378,-0.0006
 8508,0.00102367,0.02241500,-0.00350668,-0.00893783,-0.00055668,0.00454
 388,-0.00308338,0.08779482,-0.00883854,-0.07867147,-0.00067432,0.00086
 785,-0.00053821,-0.00042012,-0.00007994,0.00083260,-0.00023037,-0.0009
 8250,0.00041784,0.00154491,0.00010045,-0.00050198,-0.00036457,0.000007
 08,0.00030012,-0.02372790,0.00308188,0.00991918,-0.09727752,0.00706922
 ,0.08486140,0.00023269,0.00033324,-0.00030094,-0.00049482,-0.00525970,
 -0.00190582,0.00064134,-0.00100887,-0.00112211,-0.05113819,0.02359291,
 0.00848302,-0.00008748,-0.00033544,0.00037354,0.00061640,-0.00099615,0
 .00087123,-0.00010671,0.00048812,0.00009078,0.00006786,0.00014257,-0.0
 0004981,0.00013537,0.00029709,0.00008960,0.00274702,-0.02006781,-0.006
 52184,-0.00212551,0.02895613,0.01158577,0.05057429,0.00013980,0.001042
 92,-0.00020422,0.00206297,-0.02272462,-0.00873137,0.00062910,0.0011376
 3,-0.00125652,0.02483516,-0.26498391,-0.09056188,0.00011329,-0.0008943
 1,0.00066950,-0.00066763,-0.00186149,0.00431508,0.00032414,0.00061663,
 0.00011546,0.00021188,0.00044683,0.00018089,-0.00094490,0.00042404,0.0
 0066713,0.00007867,-0.00241133,-0.00084431,0.00050949,-0.00262194,-0.0
 0102059,-0.02599887,0.29212750,0.00013509,0.00057048,-0.00025619,-0.00
 207261,0.02356929,0.00971602,-0.00066699,0.00011997,0.00172739,0.00906
 678,-0.09095286,-0.08468934,0.00009689,-0.00059542,0.00021610,0.001221
 54,0.00384887,-0.00314361,-0.00046676,-0.00076778,0.00087472,-0.000378
 90,-0.00014216,0.00005438,-0.00005910,-0.00062756,-0.00019266,0.004990
 41,-0.02224405,-0.00892425,0.00032057,-0.00966024,-0.00505505,-0.01149
 121,0.09715264,0.08942788,0.01167249,0.01088975,0.00015378,-0.00197411
 ,-0.00072577,-0.00265937,-0.00623739,-0.00957128,0.00636275,0.00014850
 ,0.00024398,-0.00027107,-0.21868286,-0.16731174,0.00038599,-0.00016963
 ,0.00018372,0.00016001,-0.00107148,0.00023405,0.00037456,0.00012876,0.
 00055834,-0.00019738,-0.00140880,0.00035976,-0.00031959,0.00009299,-0.
 00002794,0.00009621,0.00000152,-0.00007046,0.00010606,-0.00001631,-0.0
 0003477,-0.00004615,0.21625947,-0.02010130,-0.02585487,0.00530899,0.00
 103930,0.00011237,-0.00043069,0.00033566,0.00399813,0.00104988,-0.0000
 1091,-0.00008608,0.00018647,-0.14580496,-0.16556868,0.02879029,0.00001
 934,-0.00008995,-0.00005906,0.00022745,-0.00005506,0.00016674,0.000291
 93,0.00043277,-0.00026038,0.00051533,-0.00001473,0.00012050,-0.0000192
 8,-0.00008362,-0.00011637,-0.00005718,0.00009259,-0.00008356,0.0000657
 7,0.00008903,0.00008503,0.16198642,0.18939224,0.01281036,0.01727462,-0
 .00491359,0.00049635,-0.00096508,-0.00204745,-0.01484534,-0.01112307,0
 .00267739,-0.00002922,0.00006798,-0.00000762,0.00686457,0.03240466,-0.
 02712018,0.00011957,0.00003269,0.00010527,-0.00033515,0.00020704,0.000
 49927,0.00079239,-0.00040665,0.00132701,-0.00159248,-0.00118706,-0.001
 53951,-0.00009205,0.00001145,0.00010775,0.00001709,-0.00004545,0.00010
 120,0.00001619,-0.00004558,-0.00000533,-0.00223803,-0.03899880,0.03111
 124,-0.30361388,-0.26826539,-0.01898578,0.00042000,0.00072054,-0.00096
 595,0.00073486,0.00302158,-0.00031834,-0.00039718,0.00123472,0.0000843
 1,0.00847571,0.01212081,-0.00039271,-0.00004107,-0.00029226,0.00020804
 ,-0.00013193,-0.00025653,0.00017843,-0.00060770,-0.00005883,-0.0003030
 5,0.00064183,-0.00048140,-0.00009967,-0.00102984,0.00110077,0.00126332
 ,0.00036324,-0.00070902,0.00030870,-0.00104596,-0.00125834,-0.00064954
 ,0.00125685,0.00151243,-0.00198424,0.29497507,-0.22702113,-0.25486458,
 0.00846882,0.00095073,-0.00082442,0.00007900,0.00115917,0.00346842,0.0
 0012582,0.00001605,0.00111722,0.00187160,-0.02898051,-0.03300844,0.000
 06185,-0.00008828,-0.00005699,0.00011074,-0.00016938,0.00006420,-0.000
 15742,-0.00089239,0.00040715,-0.00083205,0.00060742,-0.00017635,0.0004
 4224,0.00034167,-0.00016446,-0.00119235,-0.00061123,-0.00013337,-0.000
 47347,-0.00020898,-0.00038698,-0.00035623,0.00328594,-0.00236412,0.002
 77326,0.25161092,0.28692272,-0.03837274,-0.01136927,-0.01597261,-0.001
 05446,-0.00035327,0.00059477,0.00160870,0.00142222,0.00170487,0.000368
 17,0.00127504,0.00136406,0.01726099,0.01935301,-0.00200418,0.00028107,
 -0.00007229,-0.00021666,0.00019684,0.00014294,-0.00032062,0.00028776,-
 0.00080636,-0.00017532,-0.00054876,-0.00125390,-0.00153622,0.00061933,
 -0.00111284,-0.00107666,-0.00027724,-0.00010820,-0.00066808,-0.0001184
 0,-0.00043623,0.00024993,-0.00190776,0.00424096,-0.00029544,0.02165650
 ,-0.01092181,0.01835215\\0.00000119,0.00000232,-0.00000106,-0.00000081
 ,-0.00000114,0.00000066,-0.00000075,0.00000148,0.00000019,0.00000101,-
 0.00000250,-0.00000017,-0.00000068,0.00000243,-0.00000004,-0.00000222,
 -0.00000166,0.00000156,-0.00000093,-0.00000161,0.00000080,-0.00000213,
 0.00000230,0.00000088,0.00000053,0.00000201,-0.00000063,0.00000103,-0.
 00000221,-0.00000023,0.00000094,-0.00000435,0.00000017,0.00000241,-0.0
 0000199,-0.00000107,-0.00000176,0.00000361,0.00000044,0.00000217,0.000
 00130,-0.00000148\\\@


      HUMANKIND PERIODICALLY GOES THROUGH A SPEEDUP OF ITS AFFAIRS, 
      THEREBY EXPERIENCING THE RACE BETWEEN THE RENEWABLE VITALITY
      OF THE LIVING, AND THE BECKONING VITIATION OF DECADENCE.
      IN THIS PERIODIC RACE, ANY PAUSE BECOMES A LUXURY.
      ONLY THEN CAN ONE REFLECT THAT ALL IS PERMITTED;
      ALL IS POSSIBLE.

                              -- THE APOCRYPHA OF MUAD'DIB
                                 CHILDREN OF DUNE, BY FRANK HERBERT
 Job cpu time:       0 days  4 hours 38 minutes 24.5 seconds.
 Elapsed time:       0 days  0 hours 13 minutes 56.1 seconds.
 File lengths (MBytes):  RWF=   1376 Int=      0 D2E=      0 Chk=     32 Scr=     32
 Normal termination of Gaussian 16 at Tue Apr  9 01:59:15 2019.
