 Entering Gaussian System, Link 0=g16
 Input=QOOQLKSEGVNYLA-UHFFFAOYSA-N_GeoFreq_a1.com
 Output=QOOQLKSEGVNYLA-UHFFFAOYSA-N_GeoFreq_a1.log
 Initial command:
 /shared/centos7/gaussian/g16/l1.exe "/scratch/underkoffler.c/gaussian_scratch/Gau-21883.inp" -scrdir="/scratch/underkoffler.c/gaussian_scratch/"
 Entering Link 1 = /shared/centos7/gaussian/g16/l1.exe PID=     21884.
  
 Copyright (c) 1988,1990,1992,1993,1995,1998,2003,2009,2016,
            Gaussian, Inc.  All Rights Reserved.
  
 This is part of the Gaussian(R) 16 program.  It is based on
 the Gaussian(R) 09 system (copyright 2009, Gaussian, Inc.),
 the Gaussian(R) 03 system (copyright 2003, Gaussian, Inc.),
 the Gaussian(R) 98 system (copyright 1998, Gaussian, Inc.),
 the Gaussian(R) 94 system (copyright 1995, Gaussian, Inc.),
 the Gaussian 92(TM) system (copyright 1992, Gaussian, Inc.),
 the Gaussian 90(TM) system (copyright 1990, Gaussian, Inc.),
 the Gaussian 88(TM) system (copyright 1988, Gaussian, Inc.),
 the Gaussian 86(TM) system (copyright 1986, Carnegie Mellon
 University), and the Gaussian 82(TM) system (copyright 1983,
 Carnegie Mellon University). Gaussian is a federally registered
 trademark of Gaussian, Inc.
  
 This software contains proprietary and confidential information,
 including trade secrets, belonging to Gaussian, Inc.
  
 This software is provided under written license and may be
 used, copied, transmitted, or stored only in accord with that
 written license.
  
 The following legend is applicable only to US Government
 contracts under FAR:
  
                    RESTRICTED RIGHTS LEGEND
  
 Use, reproduction and disclosure by the US Government is
 subject to restrictions as set forth in subparagraphs (a)
 and (c) of the Commercial Computer Software - Restricted
 Rights clause in FAR 52.227-19.
  
 Gaussian, Inc.
 340 Quinnipiac St., Bldg. 40, Wallingford CT 06492
  
  
 ---------------------------------------------------------------
 Warning -- This program may not be used in any manner that
 competes with the business of Gaussian, Inc. or will provide
 assistance to any competitor of Gaussian, Inc.  The licensee
 of this program is prohibited from giving any competitor of
 Gaussian, Inc. access to this program.  By using this program,
 the user acknowledges that Gaussian, Inc. is engaged in the
 business of creating and licensing software in the field of
 computational chemistry and represents and warrants to the
 licensee that it is not a competitor of Gaussian, Inc. and that
 it will not use this program in any manner prohibited above.
 ---------------------------------------------------------------
  

 Cite this work as:
 Gaussian 16, Revision A.03,
 M. J. Frisch, G. W. Trucks, H. B. Schlegel, G. E. Scuseria, 
 M. A. Robb, J. R. Cheeseman, G. Scalmani, V. Barone, 
 G. A. Petersson, H. Nakatsuji, X. Li, M. Caricato, A. V. Marenich, 
 J. Bloino, B. G. Janesko, R. Gomperts, B. Mennucci, H. P. Hratchian, 
 J. V. Ortiz, A. F. Izmaylov, J. L. Sonnenberg, D. Williams-Young, 
 F. Ding, F. Lipparini, F. Egidi, J. Goings, B. Peng, A. Petrone, 
 T. Henderson, D. Ranasinghe, V. G. Zakrzewski, J. Gao, N. Rega, 
 G. Zheng, W. Liang, M. Hada, M. Ehara, K. Toyota, R. Fukuda, 
 J. Hasegawa, M. Ishida, T. Nakajima, Y. Honda, O. Kitao, H. Nakai, 
 T. Vreven, K. Throssell, J. A. Montgomery, Jr., J. E. Peralta, 
 F. Ogliaro, M. J. Bearpark, J. J. Heyd, E. N. Brothers, K. N. Kudin, 
 V. N. Staroverov, T. A. Keith, R. Kobayashi, J. Normand, 
 K. Raghavachari, A. P. Rendell, J. C. Burant, S. S. Iyengar, 
 J. Tomasi, M. Cossi, J. M. Millam, M. Klene, C. Adamo, R. Cammi, 
 J. W. Ochterski, R. L. Martin, K. Morokuma, O. Farkas, 
 J. B. Foresman, and D. J. Fox, Gaussian, Inc., Wallingford CT, 2016.
 
 ******************************************
 Gaussian 16:  EM64L-G16RevA.03 25-Dec-2016
                10-Mar-2019 
 ******************************************
 %nprocshared=20
 Will use up to   20 processors via shared memory.
 %mem=5GB
 ----------------------------------------------------------------------
 #p m062x/6-311+g(2df,2p) opt=(calcfc,verytight,gdiis,maxcycles=900) fr
 eq iop(7/33=1,2/16=3)
 ----------------------------------------------------------------------

 Warning!  Use of Opt=GDIIS is deprecated since it is seldom a good choice.

 1/6=900,7=1,10=4,18=20,19=11,26=3,38=1/1,3;
 2/9=110,12=2,16=3,17=6,18=5,40=1/2;
 3/5=4,6=6,7=214,11=2,25=1,30=1,71=2,74=-55,140=1/1,2,3;
 4//1;
 5/5=2,38=5/2;
 8/6=4,10=90,11=11/1;
 11/6=1,8=1,9=11,15=111,16=1/1,2,10;
 10/6=1,13=1/2;
 6/7=2,8=2,9=2,10=2,28=1/1;
 7/10=1,18=20,25=1,33=1/1,2,3,16;
 1/6=900,7=1,10=4,18=20,19=11,26=3/3(2);
 2/9=110,16=3/2;
 99//99;
 2/9=110,16=3/2;
 3/5=4,6=6,7=214,11=2,25=1,30=1,71=1,74=-55/1,2,3;
 4/5=5,16=3,69=1/1;
 5/5=2,38=5/2;
 7/33=1/1,2,3,16;
 1/6=900,7=1,18=20,19=11,26=3/3(-5);
 2/9=110,16=3/2;
 6/7=2,8=2,9=2,10=2,19=2,28=1/1;
 99/9=1/99;
 Leave Link    1 at Sun Mar 10 18:10:51 2019, MaxMem=   671088640 cpu:              18.9 elap:               1.2
 (Enter /shared/centos7/gaussian/g16/l101.exe)
 ------------------------------
 Gaussian input prepared by ASE
 ------------------------------
 Symbolic Z-matrix:
 Charge =  0 Multiplicity = 2
 O                    -0.96431   1.58992   0.09752 
 C                     0.79496  -0.84094  -0.21946 
 C                    -0.72253  -0.86184  -0.1221 
 C                     1.45458   0.20068   0.58192 
 C                    -1.38497   0.39441  -0.63062 
 H                     1.16172  -1.86396   0.11454 
 H                     1.09959  -0.74523  -1.29583 
 H                    -1.02467  -1.04096   0.94279 
 H                    -1.10665  -1.73515  -0.71167 
 H                     2.42212   0.61192   0.21415 
 H                     1.344     0.16297   1.68951 
 H                    -0.00447   1.42901   0.28072 
 H                    -1.1665    0.54192  -1.72861 
 H                    -2.49869   0.32649  -0.5162 
 
 ITRead=  0  0  0  0  0  0  0  0  0  0  0  0  0  0
 MicOpt= -1 -1 -1 -1 -1 -1 -1 -1 -1 -1 -1 -1 -1 -1
 NAtoms=     14 NQM=       14 NQMF=       0 NMMI=      0 NMMIF=      0
                NMic=       0 NMicF=      0.
                    Isotopes and Nuclear Properties:
 (Nuclear quadrupole moments (NQMom) in fm**2, nuclear magnetic moments (NMagM)
  in nuclear magnetons)

  Atom         1           2           3           4           5           6           7           8           9          10
 IAtWgt=          16          12          12          12          12           1           1           1           1           1
 AtmWgt=  15.9949146  12.0000000  12.0000000  12.0000000  12.0000000   1.0078250   1.0078250   1.0078250   1.0078250   1.0078250
 NucSpn=           0           0           0           0           0           1           1           1           1           1
 AtZEff=  -0.0000000  -0.0000000  -0.0000000  -0.0000000  -0.0000000  -0.0000000  -0.0000000  -0.0000000  -0.0000000  -0.0000000
 NQMom=    0.0000000   0.0000000   0.0000000   0.0000000   0.0000000   0.0000000   0.0000000   0.0000000   0.0000000   0.0000000
 NMagM=    0.0000000   0.0000000   0.0000000   0.0000000   0.0000000   2.7928460   2.7928460   2.7928460   2.7928460   2.7928460
 AtZNuc=   8.0000000   6.0000000   6.0000000   6.0000000   6.0000000   1.0000000   1.0000000   1.0000000   1.0000000   1.0000000

  Atom        11          12          13          14
 IAtWgt=           1           1           1           1
 AtmWgt=   1.0078250   1.0078250   1.0078250   1.0078250
 NucSpn=           1           1           1           1
 AtZEff=  -0.0000000  -0.0000000  -0.0000000  -0.0000000
 NQMom=    0.0000000   0.0000000   0.0000000   0.0000000
 NMagM=    2.7928460   2.7928460   2.7928460   2.7928460
 AtZNuc=   1.0000000   1.0000000   1.0000000   1.0000000
 Leave Link  101 at Sun Mar 10 18:10:52 2019, MaxMem=   671088640 cpu:               6.5 elap:               0.4
 (Enter /shared/centos7/gaussian/g16/l103.exe)

 GradGradGradGradGradGradGradGradGradGradGradGradGradGradGradGradGradGrad
 Berny optimization.
 Initialization pass.
                           ----------------------------
                           !    Initial Parameters    !
                           ! (Angstroms and Degrees)  !
 --------------------------                            --------------------------
 ! Name  Definition              Value          Derivative Info.                !
 --------------------------------------------------------------------------------
 ! R1    R(1,5)                  1.4616         calculate D2E/DX2 analytically  !
 ! R2    R(1,12)                 0.9903         calculate D2E/DX2 analytically  !
 ! R3    R(2,3)                  1.5208         calculate D2E/DX2 analytically  !
 ! R4    R(2,4)                  1.4705         calculate D2E/DX2 analytically  !
 ! R5    R(2,6)                  1.1369         calculate D2E/DX2 analytically  !
 ! R6    R(2,7)                  1.1227         calculate D2E/DX2 analytically  !
 ! R7    R(3,5)                  1.5085         calculate D2E/DX2 analytically  !
 ! R8    R(3,8)                  1.1213         calculate D2E/DX2 analytically  !
 ! R9    R(3,9)                  1.1215         calculate D2E/DX2 analytically  !
 ! R10   R(4,10)                 1.1138         calculate D2E/DX2 analytically  !
 ! R11   R(4,11)                 1.1137         calculate D2E/DX2 analytically  !
 ! R12   R(5,13)                 1.1292         calculate D2E/DX2 analytically  !
 ! R13   R(5,14)                 1.1216         calculate D2E/DX2 analytically  !
 ! A1    A(5,1,12)             103.7808         calculate D2E/DX2 analytically  !
 ! A2    A(3,2,4)              114.9902         calculate D2E/DX2 analytically  !
 ! A3    A(3,2,6)              106.9012         calculate D2E/DX2 analytically  !
 ! A4    A(3,2,7)              109.4688         calculate D2E/DX2 analytically  !
 ! A5    A(4,2,6)              109.4255         calculate D2E/DX2 analytically  !
 ! A6    A(4,2,7)              109.8997         calculate D2E/DX2 analytically  !
 ! A7    A(6,2,7)              105.7126         calculate D2E/DX2 analytically  !
 ! A8    A(2,3,5)              113.9015         calculate D2E/DX2 analytically  !
 ! A9    A(2,3,8)              109.3818         calculate D2E/DX2 analytically  !
 ! A10   A(2,3,9)              108.5911         calculate D2E/DX2 analytically  !
 ! A11   A(5,3,8)              109.5628         calculate D2E/DX2 analytically  !
 ! A12   A(5,3,9)              108.7145         calculate D2E/DX2 analytically  !
 ! A13   A(8,3,9)              106.4135         calculate D2E/DX2 analytically  !
 ! A14   A(2,4,10)             118.1171         calculate D2E/DX2 analytically  !
 ! A15   A(2,4,11)             118.258          calculate D2E/DX2 analytically  !
 ! A16   A(10,4,11)            115.2858         calculate D2E/DX2 analytically  !
 ! A17   A(1,5,3)              112.7573         calculate D2E/DX2 analytically  !
 ! A18   A(1,5,13)             108.7762         calculate D2E/DX2 analytically  !
 ! A19   A(1,5,14)             106.5281         calculate D2E/DX2 analytically  !
 ! A20   A(3,5,13)             110.5861         calculate D2E/DX2 analytically  !
 ! A21   A(3,5,14)             110.5614         calculate D2E/DX2 analytically  !
 ! A22   A(13,5,14)            107.4108         calculate D2E/DX2 analytically  !
 ! D1    D(12,1,5,3)            36.982          calculate D2E/DX2 analytically  !
 ! D2    D(12,1,5,13)          -86.0659         calculate D2E/DX2 analytically  !
 ! D3    D(12,1,5,14)          158.432          calculate D2E/DX2 analytically  !
 ! D4    D(4,2,3,5)             62.6757         calculate D2E/DX2 analytically  !
 ! D5    D(4,2,3,8)            -60.2914         calculate D2E/DX2 analytically  !
 ! D6    D(4,2,3,9)           -176.0365         calculate D2E/DX2 analytically  !
 ! D7    D(6,2,3,5)           -175.6479         calculate D2E/DX2 analytically  !
 ! D8    D(6,2,3,8)             61.3849         calculate D2E/DX2 analytically  !
 ! D9    D(6,2,3,9)            -54.3602         calculate D2E/DX2 analytically  !
 ! D10   D(7,2,3,5)            -61.593          calculate D2E/DX2 analytically  !
 ! D11   D(7,2,3,8)            175.4398         calculate D2E/DX2 analytically  !
 ! D12   D(7,2,3,9)             59.6948         calculate D2E/DX2 analytically  !
 ! D13   D(3,2,4,10)          -150.2363         calculate D2E/DX2 analytically  !
 ! D14   D(3,2,4,11)            62.9376         calculate D2E/DX2 analytically  !
 ! D15   D(6,2,4,10)            89.4665         calculate D2E/DX2 analytically  !
 ! D16   D(6,2,4,11)           -57.3595         calculate D2E/DX2 analytically  !
 ! D17   D(7,2,4,10)           -26.1948         calculate D2E/DX2 analytically  !
 ! D18   D(7,2,4,11)          -173.0208         calculate D2E/DX2 analytically  !
 ! D19   D(2,3,5,1)            -59.8642         calculate D2E/DX2 analytically  !
 ! D20   D(2,3,5,13)            62.169          calculate D2E/DX2 analytically  !
 ! D21   D(2,3,5,14)          -178.9974         calculate D2E/DX2 analytically  !
 ! D22   D(8,3,5,1)             63.0041         calculate D2E/DX2 analytically  !
 ! D23   D(8,3,5,13)          -174.9627         calculate D2E/DX2 analytically  !
 ! D24   D(8,3,5,14)           -56.1291         calculate D2E/DX2 analytically  !
 ! D25   D(9,3,5,1)            178.9167         calculate D2E/DX2 analytically  !
 ! D26   D(9,3,5,13)           -59.0501         calculate D2E/DX2 analytically  !
 ! D27   D(9,3,5,14)            59.7834         calculate D2E/DX2 analytically  !
 --------------------------------------------------------------------------------
 Trust Radius=3.00D-01 FncErr=1.00D-07 GrdErr=1.00D-06 EigMax=2.50D+02 EigMin=1.00D-04
 Number of steps in this run=    100 maximum allowed number of steps=    100.
 GradGradGradGradGradGradGradGradGradGradGradGradGradGradGradGradGradGrad

 Leave Link  103 at Sun Mar 10 18:10:52 2019, MaxMem=   671088640 cpu:               0.7 elap:               0.1
 (Enter /shared/centos7/gaussian/g16/l202.exe)
                          Input orientation:                          
 ---------------------------------------------------------------------
 Center     Atomic      Atomic             Coordinates (Angstroms)
 Number     Number       Type             X           Y           Z
 ---------------------------------------------------------------------
      1          8           0       -0.964311    1.589916    0.097516
      2          6           0        0.794957   -0.840939   -0.219457
      3          6           0       -0.722532   -0.861842   -0.122096
      4          6           0        1.454581    0.200684    0.581917
      5          6           0       -1.384974    0.394414   -0.630623
      6          1           0        1.161724   -1.863963    0.114537
      7          1           0        1.099586   -0.745228   -1.295830
      8          1           0       -1.024666   -1.040956    0.942795
      9          1           0       -1.106651   -1.735148   -0.711667
     10          1           0        2.422125    0.611917    0.214149
     11          1           0        1.343999    0.162967    1.689507
     12          1           0       -0.004470    1.429010    0.280720
     13          1           0       -1.166501    0.541923   -1.728610
     14          1           0       -2.498693    0.326486   -0.516198
 ---------------------------------------------------------------------
                    Distance matrix (angstroms):
                    1          2          3          4          5
     1  O    0.000000
     2  C    3.017375   0.000000
     3  C    2.473419   1.520753   0.000000
     4  C    2.831192   1.470470   2.522780   0.000000
     5  C    1.461632   2.539145   1.508513   3.093681   0.000000
     6  H    4.055810   1.136947   2.147245   2.137049   3.484423
     7  H    3.413793   1.122737   2.170568   2.132300   2.813241
     8  H    2.763987   2.168379   1.121321   2.796171   2.160035
     9  H    3.425068   2.158239   1.121519   3.461317   2.149202
    10  H    3.526759   2.224068   3.489110   1.113780   3.905759
    11  H    3.146254   2.225628   2.933034   1.113736   3.589410
    12  H    0.990327   2.458034   2.434312   1.930890   1.951083
    13  H    2.115161   2.834990   2.179117   3.510705   1.129188
    14  H    2.080199   3.507003   2.173060   4.104882   1.121640
                    6          7          8          9         10
     6  H    0.000000
     7  H    1.801268   0.000000
     8  H    2.478640   3.100217   0.000000
     9  H    2.417588   2.487704   1.796070   0.000000
    10  H    2.780021   2.423012   3.891437   4.337984   0.000000
    11  H    2.573364   3.129984   2.759997   3.920990   1.881647
    12  H    3.497327   2.903750   2.753157   3.494500   2.561335
    13  H    3.821794   2.641819   3.108380   2.494556   4.081353
    14  H    4.312140   3.834581   2.484213   2.495261   4.982903
                   11         12         13         14
    11  H    0.000000
    12  H    2.325062   0.000000
    13  H    4.257904   2.484884   0.000000
    14  H    4.433752   2.841088   1.814137   0.000000
 Stoichiometry    C4H9O(2)
 Framework group  C1[X(C4H9O)]
 Deg. of freedom    36
 Full point group                 C1      NOp   1
 Largest Abelian subgroup         C1      NOp   1
 Largest concise Abelian subgroup C1      NOp   1
                         Standard orientation:                         
 ---------------------------------------------------------------------
 Center     Atomic      Atomic             Coordinates (Angstroms)
 Number     Number       Type             X           Y           Z
 ---------------------------------------------------------------------
      1          8           0       -1.312114   -1.089897   -0.068673
      2          6           0        1.210017    0.537870    0.237566
      3          6           0       -0.104096    1.052731   -0.328751
      4          6           0        1.510400   -0.868400   -0.069769
      5          6           0       -1.321628    0.344613    0.211429
      6          1           0        2.033004    1.200727   -0.181911
      7          1           0        1.227089    0.698291    1.348652
      8          1           0       -0.085933    0.968499   -1.446756
      9          1           0       -0.190345    2.146157   -0.094688
     10          1           0        2.119741   -1.446890    0.661368
     11          1           0        1.646554   -1.157512   -1.136673
     12          1           0       -0.359055   -1.342218    0.024933
     13          1           0       -1.406925    0.496529    1.327095
     14          1           0       -2.255376    0.754712   -0.255486
 ---------------------------------------------------------------------
 Rotational constants (GHZ):           7.2481250           4.0685797           2.9125619
 Leave Link  202 at Sun Mar 10 18:10:52 2019, MaxMem=   671088640 cpu:               1.6 elap:               0.1
 (Enter /shared/centos7/gaussian/g16/l301.exe)
 Standard basis: 6-311+G(2df,2p) (5D, 7F)
 Ernie: Thresh=  0.10000D-02 Tol=  0.10000D-05 Strict=F.
 There are   276 symmetry adapted cartesian basis functions of A   symmetry.
 There are   251 symmetry adapted basis functions of A   symmetry.
   251 basis functions,   359 primitive gaussians,   276 cartesian basis functions
    21 alpha electrons       20 beta electrons
       nuclear repulsion energy       184.5629612826 Hartrees.
 IExCor= 4336 DFT=T Ex+Corr=M062X ExCW=0 ScaHFX=  0.540000
 ScaDFX=  1.000000  1.000000  1.000000  1.000000 ScalE2=  1.000000  1.000000
 IRadAn=      5 IRanWt=     -1 IRanGd=            0 ICorTp=0 IEmpDi=  4
 NAtoms=   14 NActive=   14 NUniq=   14 SFac= 1.00D+00 NAtFMM=   60 NAOKFM=F Big=F
 Integral buffers will be    131072 words long.
 Raffenetti 2 integral format.
 Two-electron integral symmetry is turned on.
 Leave Link  301 at Sun Mar 10 18:10:52 2019, MaxMem=   671088640 cpu:               1.4 elap:               0.1
 (Enter /shared/centos7/gaussian/g16/l302.exe)
 NPDir=0 NMtPBC=     1 NCelOv=     1 NCel=       1 NClECP=     1 NCelD=      1
         NCelK=      1 NCelE2=     1 NClLst=     1 CellRange=     0.0.
 One-electron integrals computed using PRISM.
 One-electron integral symmetry used in STVInt
 NBasis=   251 RedAO= T EigKep=  5.29D-05  NBF=   251
 NBsUse=   251 1.00D-06 EigRej= -1.00D+00 NBFU=   251
 Precomputing XC quadrature grid using
 IXCGrd= 4 IRadAn=           5 IRanWt=          -1 IRanGd=           0 AccXCQ= 0.00D+00.
 Generated NRdTot=       0 NPtTot=           0 NUsed=           0 NTot=          32
 NSgBfM=   276   276   276   276   276 MxSgAt=    14 MxSgA2=    14.
 Leave Link  302 at Sun Mar 10 18:10:56 2019, MaxMem=   671088640 cpu:              69.2 elap:               4.4
 (Enter /shared/centos7/gaussian/g16/l303.exe)
 DipDrv:  MaxL=1.
 Leave Link  303 at Sun Mar 10 18:10:57 2019, MaxMem=   671088640 cpu:               4.9 elap:               0.3
 (Enter /shared/centos7/gaussian/g16/l401.exe)
 ExpMin= 4.38D-02 ExpMax= 8.59D+03 ExpMxC= 1.30D+03 IAcc=3 IRadAn=         5 AccDes= 0.00D+00
 Harris functional with IExCor= 1009 and IRadAn=       5 diagonalized for initial guess.
 HarFok:  IExCor= 1009 AccDes= 0.00D+00 IRadAn=         5 IDoV= 1 UseB2=F ITyADJ=14
 ICtDFT=  3500011 ScaDFX=  1.000000  1.000000  1.000000  1.000000
 FoFCou: FMM=F IPFlag=           0 FMFlag=      100000 FMFlg1=           0
         NFxFlg=           0 DoJE=T BraDBF=F KetDBF=T FulRan=T
         wScrn=  0.000000 ICntrl=       500 IOpCl=  0 I1Cent=   200000004 NGrid=           0
         NMat0=    1 NMatS0=      1 NMatT0=    0 NMatD0=    1 NMtDS0=    0 NMtDT0=    0
 Petite list used in FoFCou.
 Harris En= -232.867163761280    
 JPrj=0 DoOrth=F DoCkMO=F.
 Initial guess <Sx>= 0.0000 <Sy>= 0.0000 <Sz>= 0.5000 <S**2>= 0.7500 S= 0.5000
 Leave Link  401 at Sun Mar 10 18:11:00 2019, MaxMem=   671088640 cpu:              50.9 elap:               3.2
 (Enter /shared/centos7/gaussian/g16/l502.exe)
 Integral symmetry usage will be decided dynamically.
 UHF open shell SCF:
 Using DIIS extrapolation, IDIIS=  1040.
 NGot=   671088640 LenX=   670928170 LenY=   670851553
 Requested convergence on RMS density matrix=1.00D-08 within 128 cycles.
 Requested convergence on MAX density matrix=1.00D-06.
 Requested convergence on             energy=1.00D-06.
 No special actions if energy rises.
 Fock matrices will be formed incrementally for  20 cycles.

 Cycle   1  Pass 1  IDiag  1:
 FoFJK:  IHMeth= 1 ICntrl=       0 DoSepK=F KAlg= 0 I1Cent=           0 FoldK=F
 IRaf= 990000000 NMat=       1 IRICut=       1 DoRegI=T DoRafI=F ISym2E= 0 IDoP0=0 IntGTp=1.
 FoFCou: FMM=F IPFlag=           0 FMFlag=      100000 FMFlg1=           0
         NFxFlg=           0 DoJE=F BraDBF=F KetDBF=F FulRan=T
         wScrn=  0.000000 ICntrl=         0 IOpCl=  1 I1Cent=           0 NGrid=           0
         NMat0=    1 NMatS0=      1 NMatT0=    0 NMatD0=    1 NMtDS0=    0 NMtDT0=    0
 Symmetry not used in FoFCou.
 E= -232.783946347946    
 DIIS: error= 1.91D-02 at cycle   1 NSaved=   1.
 NSaved= 1 IEnMin= 1 EnMin= -232.783946347946     IErMin= 1 ErrMin= 1.91D-02
 ErrMax= 1.91D-02  0.00D+00 EMaxC= 1.00D-01 BMatC= 8.23D-01 BMatP= 8.23D-01
 IDIUse=3 WtCom= 8.09D-01 WtEn= 1.91D-01
 Coeff-Com:  0.100D+01
 Coeff-En:   0.100D+01
 Coeff:      0.100D+01
 Gap=     0.256 Goal=   None    Shift=    0.000
 Gap=     0.272 Goal=   None    Shift=    0.000
 GapD=    0.256 DampG=1.000 DampE=0.500 DampFc=0.5000 IDamp=-1.
 Damping current iteration by 5.00D-01
 RMSDP=4.30D-03 MaxDP=3.68D-01              OVMax= 1.42D-01

 Cycle   2  Pass 1  IDiag  1:
 RMSU=  2.15D-03    CP:  1.00D+00
 E= -232.866940845482     Delta-E=       -0.082994497535 Rises=F Damp=T
 DIIS: error= 7.05D-03 at cycle   2 NSaved=   2.
 NSaved= 2 IEnMin= 2 EnMin= -232.866940845482     IErMin= 2 ErrMin= 7.05D-03
 ErrMax= 7.05D-03  0.00D+00 EMaxC= 1.00D-01 BMatC= 5.77D-02 BMatP= 8.23D-01
 IDIUse=3 WtCom= 9.29D-01 WtEn= 7.05D-02
 Coeff-Com: -0.645D-01 0.106D+01
 Coeff-En:   0.000D+00 0.100D+01
 Coeff:     -0.600D-01 0.106D+01
 Gap=     0.297 Goal=   None    Shift=    0.000
 Gap=     0.327 Goal=   None    Shift=    0.000
 RMSDP=1.57D-03 MaxDP=1.41D-01 DE=-8.30D-02 OVMax= 8.34D-02

 Cycle   3  Pass 1  IDiag  1:
 RMSU=  1.27D-03    CP:  9.81D-01  5.74D-01
 E= -232.950799535178     Delta-E=       -0.083858689697 Rises=F Damp=F
 DIIS: error= 2.79D-03 at cycle   3 NSaved=   3.
 NSaved= 3 IEnMin= 3 EnMin= -232.950799535178     IErMin= 3 ErrMin= 2.79D-03
 ErrMax= 2.79D-03  0.00D+00 EMaxC= 1.00D-01 BMatC= 1.51D-02 BMatP= 5.77D-02
 IDIUse=3 WtCom= 9.72D-01 WtEn= 2.79D-02
 Coeff-Com: -0.822D-01 0.329D+00 0.753D+00
 Coeff-En:   0.000D+00 0.000D+00 0.100D+01
 Coeff:     -0.800D-01 0.320D+00 0.760D+00
 Gap=     0.294 Goal=   None    Shift=    0.000
 Gap=     0.289 Goal=   None    Shift=    0.000
 RMSDP=2.75D-04 MaxDP=2.24D-02 DE=-8.39D-02 OVMax= 1.75D-02

 Cycle   4  Pass 1  IDiag  1:
 RMSU=  2.04D-04    CP:  9.82D-01  6.60D-01  9.95D-01
 E= -232.953211666013     Delta-E=       -0.002412130834 Rises=F Damp=F
 DIIS: error= 1.34D-03 at cycle   4 NSaved=   4.
 NSaved= 4 IEnMin= 4 EnMin= -232.953211666013     IErMin= 4 ErrMin= 1.34D-03
 ErrMax= 1.34D-03  0.00D+00 EMaxC= 1.00D-01 BMatC= 2.96D-03 BMatP= 1.51D-02
 IDIUse=3 WtCom= 9.87D-01 WtEn= 1.34D-02
 Coeff-Com: -0.316D-01 0.765D-01 0.355D+00 0.600D+00
 Coeff-En:   0.000D+00 0.000D+00 0.829D-02 0.992D+00
 Coeff:     -0.312D-01 0.754D-01 0.350D+00 0.605D+00
 Gap=     0.292 Goal=   None    Shift=    0.000
 Gap=     0.297 Goal=   None    Shift=    0.000
 RMSDP=1.39D-04 MaxDP=1.22D-02 DE=-2.41D-03 OVMax= 7.21D-03

 Cycle   5  Pass 1  IDiag  1:
 RMSU=  7.62D-05    CP:  9.79D-01  6.18D-01  1.02D+00  6.98D-01
 E= -232.953815506185     Delta-E=       -0.000603840172 Rises=F Damp=F
 DIIS: error= 3.85D-04 at cycle   5 NSaved=   5.
 NSaved= 5 IEnMin= 5 EnMin= -232.953815506185     IErMin= 5 ErrMin= 3.85D-04
 ErrMax= 3.85D-04  0.00D+00 EMaxC= 1.00D-01 BMatC= 2.27D-04 BMatP= 2.96D-03
 IDIUse=3 WtCom= 9.96D-01 WtEn= 3.85D-03
 Coeff-Com: -0.352D-02-0.478D-02 0.483D-01 0.225D+00 0.735D+00
 Coeff-En:   0.000D+00 0.000D+00 0.000D+00 0.000D+00 0.100D+01
 Coeff:     -0.350D-02-0.476D-02 0.481D-01 0.224D+00 0.736D+00
 Gap=     0.293 Goal=   None    Shift=    0.000
 Gap=     0.298 Goal=   None    Shift=    0.000
 RMSDP=5.01D-05 MaxDP=3.16D-03 DE=-6.04D-04 OVMax= 2.85D-03

 Cycle   6  Pass 1  IDiag  1:
 RMSU=  3.84D-05    CP:  9.80D-01  6.17D-01  1.04D+00  8.12D-01  9.03D-01
 E= -232.953884972881     Delta-E=       -0.000069466696 Rises=F Damp=F
 DIIS: error= 1.98D-04 at cycle   6 NSaved=   6.
 NSaved= 6 IEnMin= 6 EnMin= -232.953884972881     IErMin= 6 ErrMin= 1.98D-04
 ErrMax= 1.98D-04  0.00D+00 EMaxC= 1.00D-01 BMatC= 1.86D-05 BMatP= 2.27D-04
 IDIUse=3 WtCom= 9.98D-01 WtEn= 1.98D-03
 Coeff-Com:  0.533D-02-0.125D-01-0.618D-01-0.108D+00-0.241D-01 0.120D+01
 Coeff-En:   0.000D+00 0.000D+00 0.000D+00 0.000D+00 0.000D+00 0.100D+01
 Coeff:      0.531D-02-0.125D-01-0.617D-01-0.107D+00-0.241D-01 0.120D+01
 Gap=     0.294 Goal=   None    Shift=    0.000
 Gap=     0.299 Goal=   None    Shift=    0.000
 RMSDP=2.37D-05 MaxDP=1.28D-03 DE=-6.95D-05 OVMax= 2.38D-03

 Cycle   7  Pass 1  IDiag  1:
 RMSU=  1.24D-05    CP:  9.79D-01  6.12D-01  1.04D+00  8.44D-01  1.07D+00
                    CP:  1.22D+00
 E= -232.953899730896     Delta-E=       -0.000014758015 Rises=F Damp=F
 DIIS: error= 3.98D-05 at cycle   7 NSaved=   7.
 NSaved= 7 IEnMin= 7 EnMin= -232.953899730896     IErMin= 7 ErrMin= 3.98D-05
 ErrMax= 3.98D-05  0.00D+00 EMaxC= 1.00D-01 BMatC= 2.43D-06 BMatP= 1.86D-05
 IDIUse=1 WtCom= 1.00D+00 WtEn= 0.00D+00
 Coeff-Com:  0.160D-02-0.268D-02-0.201D-01-0.512D-01-0.779D-01 0.333D+00
 Coeff-Com:  0.817D+00
 Coeff:      0.160D-02-0.268D-02-0.201D-01-0.512D-01-0.779D-01 0.333D+00
 Coeff:      0.817D+00
 Gap=     0.294 Goal=   None    Shift=    0.000
 Gap=     0.299 Goal=   None    Shift=    0.000
 RMSDP=5.14D-06 MaxDP=4.34D-04 DE=-1.48D-05 OVMax= 5.06D-04

 Cycle   8  Pass 1  IDiag  1:
 RMSU=  3.64D-06    CP:  9.79D-01  6.12D-01  1.04D+00  8.45D-01  1.08D+00
                    CP:  1.28D+00  1.18D+00
 E= -232.953900762885     Delta-E=       -0.000001031989 Rises=F Damp=F
 DIIS: error= 1.58D-05 at cycle   8 NSaved=   8.
 NSaved= 8 IEnMin= 8 EnMin= -232.953900762885     IErMin= 8 ErrMin= 1.58D-05
 ErrMax= 1.58D-05  0.00D+00 EMaxC= 1.00D-01 BMatC= 3.03D-07 BMatP= 2.43D-06
 IDIUse=1 WtCom= 1.00D+00 WtEn= 0.00D+00
 Coeff-Com: -0.302D-03 0.898D-03 0.267D-02-0.719D-03-0.181D-01-0.633D-01
 Coeff-Com:  0.205D+00 0.873D+00
 Coeff:     -0.302D-03 0.898D-03 0.267D-02-0.719D-03-0.181D-01-0.633D-01
 Coeff:      0.205D+00 0.873D+00
 Gap=     0.294 Goal=   None    Shift=    0.000
 Gap=     0.299 Goal=   None    Shift=    0.000
 RMSDP=2.34D-06 MaxDP=1.04D-04 DE=-1.03D-06 OVMax= 1.85D-04

 Cycle   9  Pass 1  IDiag  1:
 RMSU=  1.60D-06    CP:  9.79D-01  6.12D-01  1.04D+00  8.45D-01  1.08D+00
                    CP:  1.29D+00  1.30D+00  1.17D+00
 E= -232.953900882574     Delta-E=       -0.000000119688 Rises=F Damp=F
 DIIS: error= 5.13D-06 at cycle   9 NSaved=   9.
 NSaved= 9 IEnMin= 9 EnMin= -232.953900882574     IErMin= 9 ErrMin= 5.13D-06
 ErrMax= 5.13D-06  0.00D+00 EMaxC= 1.00D-01 BMatC= 2.79D-08 BMatP= 3.03D-07
 IDIUse=1 WtCom= 1.00D+00 WtEn= 0.00D+00
 Coeff-Com: -0.263D-03 0.533D-03 0.306D-02 0.631D-02 0.714D-02-0.511D-01
 Coeff-Com: -0.724D-01 0.184D+00 0.923D+00
 Coeff:     -0.263D-03 0.533D-03 0.306D-02 0.631D-02 0.714D-02-0.511D-01
 Coeff:     -0.724D-01 0.184D+00 0.923D+00
 Gap=     0.294 Goal=   None    Shift=    0.000
 Gap=     0.299 Goal=   None    Shift=    0.000
 RMSDP=8.45D-07 MaxDP=5.20D-05 DE=-1.20D-07 OVMax= 3.97D-05

 Cycle  10  Pass 1  IDiag  1:
 RMSU=  3.29D-07    CP:  9.79D-01  6.13D-01  1.04D+00  8.44D-01  1.08D+00
                    CP:  1.29D+00  1.33D+00  1.29D+00  1.05D+00
 E= -232.953900893901     Delta-E=       -0.000000011327 Rises=F Damp=F
 DIIS: error= 9.20D-07 at cycle  10 NSaved=  10.
 NSaved=10 IEnMin=10 EnMin= -232.953900893901     IErMin=10 ErrMin= 9.20D-07
 ErrMax= 9.20D-07  0.00D+00 EMaxC= 1.00D-01 BMatC= 1.30D-09 BMatP= 2.79D-08
 IDIUse=1 WtCom= 1.00D+00 WtEn= 0.00D+00
 Coeff-Com:  0.136D-05-0.117D-04 0.129D-03 0.598D-03 0.157D-02-0.136D-02
 Coeff-Com: -0.184D-01-0.292D-01 0.790D-01 0.968D+00
 Coeff:      0.136D-05-0.117D-04 0.129D-03 0.598D-03 0.157D-02-0.136D-02
 Coeff:     -0.184D-01-0.292D-01 0.790D-01 0.968D+00
 Gap=     0.294 Goal=   None    Shift=    0.000
 Gap=     0.299 Goal=   None    Shift=    0.000
 RMSDP=1.49D-07 MaxDP=6.90D-06 DE=-1.13D-08 OVMax= 7.86D-06

 Cycle  11  Pass 1  IDiag  1:
 RMSU=  1.03D-07    CP:  9.79D-01  6.13D-01  1.04D+00  8.44D-01  1.08D+00
                    CP:  1.29D+00  1.33D+00  1.30D+00  1.08D+00  1.20D+00
 E= -232.953900894446     Delta-E=       -0.000000000546 Rises=F Damp=F
 DIIS: error= 4.42D-07 at cycle  11 NSaved=  11.
 NSaved=11 IEnMin=11 EnMin= -232.953900894446     IErMin=11 ErrMin= 4.42D-07
 ErrMax= 4.42D-07  0.00D+00 EMaxC= 1.00D-01 BMatC= 3.30D-10 BMatP= 1.30D-09
 IDIUse=1 WtCom= 1.00D+00 WtEn= 0.00D+00
 Coeff-Com:  0.300D-04-0.644D-04-0.286D-03-0.462D-03-0.214D-03 0.496D-02
 Coeff-Com:  0.148D-02-0.298D-01-0.741D-01 0.345D+00 0.754D+00
 Coeff:      0.300D-04-0.644D-04-0.286D-03-0.462D-03-0.214D-03 0.496D-02
 Coeff:      0.148D-02-0.298D-01-0.741D-01 0.345D+00 0.754D+00
 Gap=     0.294 Goal=   None    Shift=    0.000
 Gap=     0.299 Goal=   None    Shift=    0.000
 RMSDP=6.06D-08 MaxDP=3.06D-06 DE=-5.46D-10 OVMax= 2.96D-06

 Cycle  12  Pass 1  IDiag  1:
 RMSU=  3.73D-08    CP:  9.79D-01  6.13D-01  1.04D+00  8.45D-01  1.08D+00
                    CP:  1.29D+00  1.33D+00  1.30D+00  1.08D+00  1.28D+00
                    CP:  1.12D+00
 E= -232.953900894547     Delta-E=       -0.000000000101 Rises=F Damp=F
 DIIS: error= 1.18D-07 at cycle  12 NSaved=  12.
 NSaved=12 IEnMin=12 EnMin= -232.953900894547     IErMin=12 ErrMin= 1.18D-07
 ErrMax= 1.18D-07  0.00D+00 EMaxC= 1.00D-01 BMatC= 1.91D-11 BMatP= 3.30D-10
 IDIUse=1 WtCom= 1.00D+00 WtEn= 0.00D+00
 Coeff-Com:  0.320D-05-0.687D-05-0.505D-04-0.114D-03-0.181D-03 0.803D-03
 Coeff-Com:  0.230D-02-0.661D-03-0.204D-01-0.617D-01 0.113D+00 0.967D+00
 Coeff:      0.320D-05-0.687D-05-0.505D-04-0.114D-03-0.181D-03 0.803D-03
 Coeff:      0.230D-02-0.661D-03-0.204D-01-0.617D-01 0.113D+00 0.967D+00
 Gap=     0.294 Goal=   None    Shift=    0.000
 Gap=     0.299 Goal=   None    Shift=    0.000
 RMSDP=2.35D-08 MaxDP=1.50D-06 DE=-1.01D-10 OVMax= 1.15D-06

 Cycle  13  Pass 1  IDiag  1:
 RMSU=  1.09D-08    CP:  9.79D-01  6.13D-01  1.04D+00  8.45D-01  1.08D+00
                    CP:  1.29D+00  1.33D+00  1.30D+00  1.08D+00  1.29D+00
                    CP:  1.25D+00  1.24D+00
 E= -232.953900894556     Delta-E=       -0.000000000009 Rises=F Damp=F
 DIIS: error= 2.48D-08 at cycle  13 NSaved=  13.
 NSaved=13 IEnMin=13 EnMin= -232.953900894556     IErMin=13 ErrMin= 2.48D-08
 ErrMax= 2.48D-08  0.00D+00 EMaxC= 1.00D-01 BMatC= 1.20D-12 BMatP= 1.91D-11
 IDIUse=1 WtCom= 1.00D+00 WtEn= 0.00D+00
 Coeff-Com: -0.175D-05 0.361D-05 0.114D-04 0.171D-04-0.104D-04-0.209D-03
 Coeff-Com:  0.201D-03 0.175D-02 0.172D-02-0.304D-01-0.380D-01 0.127D+00
 Coeff-Com:  0.938D+00
 Coeff:     -0.175D-05 0.361D-05 0.114D-04 0.171D-04-0.104D-04-0.209D-03
 Coeff:      0.201D-03 0.175D-02 0.172D-02-0.304D-01-0.380D-01 0.127D+00
 Coeff:      0.938D+00
 Gap=     0.294 Goal=   None    Shift=    0.000
 Gap=     0.299 Goal=   None    Shift=    0.000
 RMSDP=6.36D-09 MaxDP=3.18D-07 DE=-9.27D-12 OVMax= 3.92D-07

 SCF Done:  E(UM062X) =  -232.953900895     A.U. after   13 cycles
            NFock= 13  Conv=0.64D-08     -V/T= 2.0053
 <Sx>= 0.0000 <Sy>= 0.0000 <Sz>= 0.5000 <S**2>= 0.7556 S= 0.5028
 <L.S>= 0.000000000000E+00
 KE= 2.317241464329D+02 PE=-9.118358345083D+02 EE= 2.625948258982D+02
 Annihilation of the first spin contaminant:
 S**2 before annihilation     0.7556,   after     0.7500
 Leave Link  502 at Sun Mar 10 18:13:09 2019, MaxMem=   671088640 cpu:            2058.2 elap:             128.7
 (Enter /shared/centos7/gaussian/g16/l801.exe)
 DoSCS=F DFT=T ScalE2(SS,OS)=  1.000000  1.000000
 Range of M.O.s used for correlation:     1   251
 NBasis=   251 NAE=    21 NBE=    20 NFC=     0 NFV=     0
 NROrb=    251 NOA=    21 NOB=    20 NVA=   230 NVB=   231

 **** Warning!!: The largest alpha MO coefficient is  0.42152485D+02


 **** Warning!!: The largest beta MO coefficient is  0.37047195D+02

 Leave Link  801 at Sun Mar 10 18:13:09 2019, MaxMem=   671088640 cpu:               0.8 elap:               0.1
 (Enter /shared/centos7/gaussian/g16/l1101.exe)
 Using compressed storage, NAtomX=    14.
 Will process     15 centers per pass.
 Leave Link 1101 at Sun Mar 10 18:13:11 2019, MaxMem=   671088640 cpu:              36.8 elap:               2.3
 (Enter /shared/centos7/gaussian/g16/l1102.exe)
 Symmetrizing basis deriv contribution to polar:
 IMax=3 JMax=2 DiffMx= 0.00D+00
 Leave Link 1102 at Sun Mar 10 18:13:11 2019, MaxMem=   671088640 cpu:               2.8 elap:               0.2
 (Enter /shared/centos7/gaussian/g16/l1110.exe)
 Forming Gx(P) for the SCF density, NAtomX=    14.
 Integral derivatives from FoFJK, PRISM(SPDF).
 Do as many integral derivatives as possible in FoFJK.
 G2DrvN: MDV=     671087496.
 G2DrvN: will do    15 centers at a time, making    1 passes.
 Calling FoFCou, ICntrl=  3107 FMM=F I1Cent=   0 AccDes= 0.00D+00.
 FoFJK:  IHMeth= 1 ICntrl=    3107 DoSepK=F KAlg= 0 I1Cent=           0 FoldK=F
 IRaf=         0 NMat=       1 IRICut=       1 DoRegI=T DoRafI=F ISym2E= 0 IDoP0=0 IntGTp=1.
 FoFCou: FMM=F IPFlag=           0 FMFlag=      100000 FMFlg1=           0
         NFxFlg=           0 DoJE=F BraDBF=F KetDBF=F FulRan=T
         wScrn=  0.000000 ICntrl=      3107 IOpCl=  1 I1Cent=           0 NGrid=           0
         NMat0=    1 NMatS0=      1 NMatT0=    0 NMatD0=    1 NMtDS0=    0 NMtDT0=    0
 Symmetry not used in FoFCou.
 End of G2Drv F.D. properties file   721 does not exist.
 End of G2Drv F.D. properties file   722 does not exist.
 End of G2Drv F.D. properties file   788 does not exist.
 Leave Link 1110 at Sun Mar 10 18:17:11 2019, MaxMem=   671088640 cpu:            3842.2 elap:             240.2
 (Enter /shared/centos7/gaussian/g16/l1002.exe)
 Minotr:  UHF open shell wavefunction.
          IDoAtm=11111111111111
          Direct CPHF calculation.
          Differentiating once with respect to nuclear coordinates.
          Requested convergence is 1.0D-08 RMS, and 1.0D-07 maximum.
          Secondary convergence is 1.0D-12 RMS, and 1.0D-12 maximum.
          NewPWx=T KeepS1=F KeepF1=F KeepIn=T MapXYZ=F SortEE=F KeepMc=T.
         4243 words used for storage of precomputed grid.
 Two-electron integrals replicated using symmetry.
          MDV=     671088640 using IRadAn=       1.
          Solving linear equations simultaneously, MaxMat=     380.
 FoF2E skips out because all densities are zero.
 CalDSu exits because no D1Ps are significant.
 FoFJK:  IHMeth= 1 ICntrl=       0 DoSepK=F KAlg= 0 I1Cent=           0 FoldK=F
 IRaf= 980000000 NMat=      42 IRICut=     105 DoRegI=T DoRafI=T ISym2E= 2 IDoP0=3 IntGTp=3.
 FoFCou: FMM=F IPFlag=           0 FMFlag=      100000 FMFlg1=           0
         NFxFlg=           0 DoJE=F BraDBF=F KetDBF=F FulRan=T
         wScrn=  0.000000 ICntrl=         0 IOpCl=  1 I1Cent=           0 NGrid=           0
         NMat0=   42 NMatS0=     42 NMatT0=    0 NMatD0=   42 NMtDS0=    0 NMtDT0=    0
 Integrals replicated using symmetry in FoFCou.
 Raff kept on since  97.10% of shell-pairs survive, threshold=   0.20 IRatSp=97.
          There are    45 degrees of freedom in the 1st order CPHF.  IDoFFX=6 NUNeed=     0.
     39 vectors produced by pass  0 Test12= 2.10D-14 2.22D-09 XBig12= 1.44D-01 9.21D-02.
 AX will form    39 AO Fock derivatives at one time.
     39 vectors produced by pass  1 Test12= 2.10D-14 2.22D-09 XBig12= 2.02D-02 1.92D-02.
     39 vectors produced by pass  2 Test12= 2.10D-14 2.22D-09 XBig12= 1.13D-03 6.73D-03.
     39 vectors produced by pass  3 Test12= 2.10D-14 2.22D-09 XBig12= 1.78D-05 4.86D-04.
     39 vectors produced by pass  4 Test12= 2.10D-14 2.22D-09 XBig12= 1.69D-07 5.27D-05.
     39 vectors produced by pass  5 Test12= 2.10D-14 2.22D-09 XBig12= 1.40D-09 3.53D-06.
     39 vectors produced by pass  6 Test12= 2.10D-14 2.22D-09 XBig12= 1.08D-11 2.95D-07.
     12 vectors produced by pass  7 Test12= 2.10D-14 2.22D-09 XBig12= 5.82D-14 2.27D-08.
 InvSVY:  IOpt=1 It=  1 EMax= 2.33D-15
 Solved reduced A of dimension   285 with    39 vectors.
 End of Minotr F.D. properties file   721 does not exist.
 End of Minotr F.D. properties file   722 does not exist.
 End of Minotr F.D. properties file   788 does not exist.
 Leave Link 1002 at Sun Mar 10 18:23:38 2019, MaxMem=   671088640 cpu:            6180.3 elap:             386.3
 (Enter /shared/centos7/gaussian/g16/l601.exe)
 Copying SCF densities to generalized density rwf, IOpCl= 1 IROHF=0.

 **********************************************************************

            Population analysis using the SCF density.

 **********************************************************************

 Orbital symmetries:
 Alpha Orbitals:
       Occupied  (A) (A) (A) (A) (A) (A) (A) (A) (A) (A) (A) (A)
                 (A) (A) (A) (A) (A) (A) (A) (A) (A)
       Virtual   (A) (A) (A) (A) (A) (A) (A) (A) (A) (A) (A) (A)
                 (A) (A) (A) (A) (A) (A) (A) (A) (A) (A) (A) (A)
                 (A) (A) (A) (A) (A) (A) (A) (A) (A) (A) (A) (A)
                 (A) (A) (A) (A) (A) (A) (A) (A) (A) (A) (A) (A)
                 (A) (A) (A) (A) (A) (A) (A) (A) (A) (A) (A) (A)
                 (A) (A) (A) (A) (A) (A) (A) (A) (A) (A) (A) (A)
                 (A) (A) (A) (A) (A) (A) (A) (A) (A) (A) (A) (A)
                 (A) (A) (A) (A) (A) (A) (A) (A) (A) (A) (A) (A)
                 (A) (A) (A) (A) (A) (A) (A) (A) (A) (A) (A) (A)
                 (A) (A) (A) (A) (A) (A) (A) (A) (A) (A) (A) (A)
                 (A) (A) (A) (A) (A) (A) (A) (A) (A) (A) (A) (A)
                 (A) (A) (A) (A) (A) (A) (A) (A) (A) (A) (A) (A)
                 (A) (A) (A) (A) (A) (A) (A) (A) (A) (A) (A) (A)
                 (A) (A) (A) (A) (A) (A) (A) (A) (A) (A) (A) (A)
                 (A) (A) (A) (A) (A) (A) (A) (A) (A) (A) (A) (A)
                 (A) (A) (A) (A) (A) (A) (A) (A) (A) (A) (A) (A)
                 (A) (A) (A) (A) (A) (A) (A) (A) (A) (A) (A) (A)
                 (A) (A) (A) (A) (A) (A) (A) (A) (A) (A) (A) (A)
                 (A) (A) (A) (A) (A) (A) (A) (A) (A) (A) (A) (A)
                 (A) (A)
 Beta  Orbitals:
       Occupied  (A) (A) (A) (A) (A) (A) (A) (A) (A) (A) (A) (A)
                 (A) (A) (A) (A) (A) (A) (A) (A)
       Virtual   (A) (A) (A) (A) (A) (A) (A) (A) (A) (A) (A) (A)
                 (A) (A) (A) (A) (A) (A) (A) (A) (A) (A) (A) (A)
                 (A) (A) (A) (A) (A) (A) (A) (A) (A) (A) (A) (A)
                 (A) (A) (A) (A) (A) (A) (A) (A) (A) (A) (A) (A)
                 (A) (A) (A) (A) (A) (A) (A) (A) (A) (A) (A) (A)
                 (A) (A) (A) (A) (A) (A) (A) (A) (A) (A) (A) (A)
                 (A) (A) (A) (A) (A) (A) (A) (A) (A) (A) (A) (A)
                 (A) (A) (A) (A) (A) (A) (A) (A) (A) (A) (A) (A)
                 (A) (A) (A) (A) (A) (A) (A) (A) (A) (A) (A) (A)
                 (A) (A) (A) (A) (A) (A) (A) (A) (A) (A) (A) (A)
                 (A) (A) (A) (A) (A) (A) (A) (A) (A) (A) (A) (A)
                 (A) (A) (A) (A) (A) (A) (A) (A) (A) (A) (A) (A)
                 (A) (A) (A) (A) (A) (A) (A) (A) (A) (A) (A) (A)
                 (A) (A) (A) (A) (A) (A) (A) (A) (A) (A) (A) (A)
                 (A) (A) (A) (A) (A) (A) (A) (A) (A) (A) (A) (A)
                 (A) (A) (A) (A) (A) (A) (A) (A) (A) (A) (A) (A)
                 (A) (A) (A) (A) (A) (A) (A) (A) (A) (A) (A) (A)
                 (A) (A) (A) (A) (A) (A) (A) (A) (A) (A) (A) (A)
                 (A) (A) (A) (A) (A) (A) (A) (A) (A) (A) (A) (A)
                 (A) (A) (A)
 The electronic state is 2-A.
 Alpha  occ. eigenvalues --  -19.61005 -10.58510 -10.56321 -10.55563 -10.54690
 Alpha  occ. eigenvalues --   -1.11963  -0.91108  -0.82277  -0.71816  -0.66016
 Alpha  occ. eigenvalues --   -0.57642  -0.54470  -0.52185  -0.50210  -0.46446
 Alpha  occ. eigenvalues --   -0.46276  -0.42369  -0.40728  -0.39959  -0.34221
 Alpha  occ. eigenvalues --   -0.28105
 Alpha virt. eigenvalues --    0.01297   0.02904   0.03149   0.03813   0.06396
 Alpha virt. eigenvalues --    0.06581   0.06772   0.07226   0.07381   0.10592
 Alpha virt. eigenvalues --    0.11054   0.11285   0.11381   0.11567   0.14919
 Alpha virt. eigenvalues --    0.15771   0.18541   0.18801   0.20071   0.23035
 Alpha virt. eigenvalues --    0.23573   0.23793   0.25007   0.25094   0.26799
 Alpha virt. eigenvalues --    0.27661   0.28543   0.28797   0.29823   0.31198
 Alpha virt. eigenvalues --    0.31712   0.32555   0.36828   0.41215   0.43491
 Alpha virt. eigenvalues --    0.44092   0.46619   0.48845   0.50270   0.51784
 Alpha virt. eigenvalues --    0.52855   0.54549   0.54667   0.56372   0.57819
 Alpha virt. eigenvalues --    0.58504   0.59401   0.60561   0.61144   0.62919
 Alpha virt. eigenvalues --    0.63217   0.64407   0.66391   0.67011   0.68075
 Alpha virt. eigenvalues --    0.68756   0.74042   0.77012   0.79081   0.81358
 Alpha virt. eigenvalues --    0.83646   0.86808   0.89631   0.92081   0.97203
 Alpha virt. eigenvalues --    0.98455   1.00029   1.00660   1.03467   1.05749
 Alpha virt. eigenvalues --    1.06089   1.08188   1.10161   1.12936   1.13736
 Alpha virt. eigenvalues --    1.15544   1.15889   1.19789   1.20613   1.22131
 Alpha virt. eigenvalues --    1.24499   1.24928   1.25697   1.29377   1.30932
 Alpha virt. eigenvalues --    1.33833   1.34679   1.35082   1.37387   1.38277
 Alpha virt. eigenvalues --    1.39454   1.41982   1.43061   1.43628   1.45508
 Alpha virt. eigenvalues --    1.48228   1.49360   1.51369   1.52118   1.52228
 Alpha virt. eigenvalues --    1.55321   1.58395   1.59044   1.63228   1.64211
 Alpha virt. eigenvalues --    1.68162   1.69117   1.77628   1.81181   2.00045
 Alpha virt. eigenvalues --    2.08883   2.17269   2.25996   2.35777   2.45749
 Alpha virt. eigenvalues --    2.48210   2.52345   2.52754   2.56992   2.64826
 Alpha virt. eigenvalues --    2.67064   2.68623   2.74105   2.76916   2.78706
 Alpha virt. eigenvalues --    2.80463   2.83703   2.87160   2.88102   2.90868
 Alpha virt. eigenvalues --    2.95947   2.97116   2.98773   3.00722   3.02434
 Alpha virt. eigenvalues --    3.07452   3.08832   3.12922   3.13589   3.14938
 Alpha virt. eigenvalues --    3.18273   3.22454   3.25584   3.26273   3.29833
 Alpha virt. eigenvalues --    3.29986   3.31980   3.34321   3.34961   3.39534
 Alpha virt. eigenvalues --    3.42132   3.43144   3.48390   3.51320   3.56868
 Alpha virt. eigenvalues --    3.58642   3.59478   3.63045   3.65408   3.67054
 Alpha virt. eigenvalues --    3.68020   3.70809   3.71143   3.73401   3.76981
 Alpha virt. eigenvalues --    3.78996   3.83018   3.85076   3.87623   3.89121
 Alpha virt. eigenvalues --    3.91208   3.93017   3.96320   3.96860   4.03362
 Alpha virt. eigenvalues --    4.06651   4.07800   4.12988   4.14063   4.15768
 Alpha virt. eigenvalues --    4.17529   4.18999   4.20570   4.22322   4.27572
 Alpha virt. eigenvalues --    4.29236   4.29823   4.33664   4.35259   4.40587
 Alpha virt. eigenvalues --    4.42529   4.46836   4.48799   4.50266   4.52830
 Alpha virt. eigenvalues --    4.55522   4.59198   4.64120   4.70802   4.73904
 Alpha virt. eigenvalues --    4.83118   5.00913   5.15742   5.21636   5.25932
 Alpha virt. eigenvalues --    5.29845   5.34872   5.37462   5.37987   5.41396
 Alpha virt. eigenvalues --    5.43246   5.45677   5.51214   5.53570   5.57200
 Alpha virt. eigenvalues --    5.60290   5.76958   5.84738   6.38364   7.01664
 Alpha virt. eigenvalues --    7.10321   7.21142   7.29018   7.45217   7.66306
 Alpha virt. eigenvalues --   24.12847  24.22604  24.37072  24.44997  50.13531
  Beta  occ. eigenvalues --  -19.60852 -10.58514 -10.55653 -10.55599 -10.54653
  Beta  occ. eigenvalues --   -1.11438  -0.90175  -0.80873  -0.70317  -0.64855
  Beta  occ. eigenvalues --   -0.56832  -0.53834  -0.51483  -0.49648  -0.45770
  Beta  occ. eigenvalues --   -0.45193  -0.41467  -0.40276  -0.39105  -0.34012
  Beta virt. eigenvalues --   -0.04124   0.01091   0.02723   0.03129   0.03777
  Beta virt. eigenvalues --    0.06402   0.06537   0.06775   0.07201   0.07769
  Beta virt. eigenvalues --    0.10448   0.10960   0.11159   0.11399   0.11612
  Beta virt. eigenvalues --    0.14850   0.15851   0.18938   0.19218   0.20520
  Beta virt. eigenvalues --    0.23076   0.23740   0.24173   0.25016   0.25294
  Beta virt. eigenvalues --    0.27218   0.28023   0.28524   0.28940   0.29844
  Beta virt. eigenvalues --    0.31744   0.32353   0.32788   0.36900   0.41362
  Beta virt. eigenvalues --    0.43696   0.44185   0.47175   0.49315   0.51230
  Beta virt. eigenvalues --    0.52307   0.52885   0.54895   0.55359   0.56424
  Beta virt. eigenvalues --    0.57605   0.58944   0.59497   0.60965   0.61655
  Beta virt. eigenvalues --    0.62952   0.63593   0.64944   0.66482   0.67440
  Beta virt. eigenvalues --    0.68135   0.69034   0.74500   0.77096   0.79165
  Beta virt. eigenvalues --    0.81410   0.83738   0.87073   0.89822   0.92516
  Beta virt. eigenvalues --    0.97355   0.98513   0.99686   1.01242   1.03352
  Beta virt. eigenvalues --    1.05649   1.05821   1.08476   1.10594   1.12886
  Beta virt. eigenvalues --    1.13919   1.15664   1.16479   1.20243   1.20694
  Beta virt. eigenvalues --    1.22139   1.24567   1.25221   1.26047   1.29499
  Beta virt. eigenvalues --    1.31095   1.34010   1.35221   1.35438   1.37754
  Beta virt. eigenvalues --    1.38386   1.39919   1.42233   1.43054   1.43950
  Beta virt. eigenvalues --    1.45809   1.48952   1.49472   1.51570   1.52450
  Beta virt. eigenvalues --    1.53219   1.55638   1.58515   1.59263   1.63974
  Beta virt. eigenvalues --    1.64249   1.68174   1.69184   1.77973   1.81334
  Beta virt. eigenvalues --    2.00479   2.08973   2.17624   2.26136   2.36089
  Beta virt. eigenvalues --    2.46365   2.49336   2.52836   2.53055   2.57343
  Beta virt. eigenvalues --    2.65811   2.67403   2.69933   2.74626   2.78601
  Beta virt. eigenvalues --    2.80797   2.81769   2.85240   2.87541   2.89214
  Beta virt. eigenvalues --    2.92478   2.96719   2.99906   3.00754   3.03183
  Beta virt. eigenvalues --    3.03522   3.09636   3.11804   3.13653   3.15384
  Beta virt. eigenvalues --    3.17864   3.18811   3.24026   3.26821   3.27781
  Beta virt. eigenvalues --    3.30908   3.31616   3.33550   3.35050   3.36574
  Beta virt. eigenvalues --    3.41306   3.45385   3.48683   3.50839   3.51914
  Beta virt. eigenvalues --    3.57696   3.59097   3.61869   3.64767   3.66023
  Beta virt. eigenvalues --    3.67680   3.68883   3.71671   3.72341   3.73865
  Beta virt. eigenvalues --    3.77797   3.79641   3.83957   3.85813   3.89287
  Beta virt. eigenvalues --    3.89703   3.92486   3.94248   3.96960   3.97391
  Beta virt. eigenvalues --    4.04612   4.07541   4.08902   4.13947   4.14950
  Beta virt. eigenvalues --    4.16502   4.17803   4.20438   4.22163   4.23211
  Beta virt. eigenvalues --    4.27973   4.30125   4.31589   4.34427   4.35591
  Beta virt. eigenvalues --    4.41296   4.43632   4.47824   4.49430   4.51263
  Beta virt. eigenvalues --    4.53350   4.56182   4.59844   4.64690   4.71246
  Beta virt. eigenvalues --    4.76510   4.85515   5.03674   5.16732   5.21834
  Beta virt. eigenvalues --    5.26355   5.30062   5.35029   5.37935   5.39704
  Beta virt. eigenvalues --    5.43812   5.44449   5.48342   5.51448   5.53997
  Beta virt. eigenvalues --    5.57492   5.60665   5.77000   5.84966   6.38394
  Beta virt. eigenvalues --    7.02341   7.10311   7.21326   7.29579   7.45636
  Beta virt. eigenvalues --    7.67008  24.13697  24.22659  24.37350  24.45397
  Beta virt. eigenvalues --   50.13336
          Condensed to atoms (all electrons):
               1          2          3          4          5          6
     1  O    8.093853  -0.033860   0.009844  -0.026769   0.156132  -0.001717
     2  C   -0.033860   5.725330  -0.190524   0.005858  -0.094098   0.403635
     3  C    0.009844  -0.190524   5.616394  -0.111326   0.209796  -0.052840
     4  C   -0.026769   0.005858  -0.111326   5.764626   0.117386  -0.027082
     5  C    0.156132  -0.094098   0.209796   0.117386   5.078344   0.019368
     6  H   -0.001717   0.403635  -0.052840  -0.027082   0.019368   0.555626
     7  H   -0.000887   0.469972  -0.010502  -0.075680  -0.018884  -0.026997
     8  H   -0.009782   0.002154   0.452486  -0.030764  -0.057073  -0.007721
     9  H    0.007311  -0.041053   0.421090   0.018501  -0.036769  -0.004274
    10  H    0.000796  -0.050803   0.030461   0.398061  -0.004666  -0.000200
    11  H   -0.001446  -0.003743  -0.015168   0.387070  -0.000258  -0.005810
    12  H    0.273241  -0.008802  -0.034920   0.073062  -0.008068   0.001451
    13  H   -0.051818  -0.043444   0.030678  -0.009890   0.417544  -0.000033
    14  H   -0.049472   0.040526  -0.075091  -0.004032   0.443630  -0.000375
               7          8          9         10         11         12
     1  O   -0.000887  -0.009782   0.007311   0.000796  -0.001446   0.273241
     2  C    0.469972   0.002154  -0.041053  -0.050803  -0.003743  -0.008802
     3  C   -0.010502   0.452486   0.421090   0.030461  -0.015168  -0.034920
     4  C   -0.075680  -0.030764   0.018501   0.398061   0.387070   0.073062
     5  C   -0.018884  -0.057073  -0.036769  -0.004666  -0.000258  -0.008068
     6  H   -0.026997  -0.007721  -0.004274  -0.000200  -0.005810   0.001451
     7  H    0.501694   0.004163  -0.007572  -0.006083   0.004164  -0.001157
     8  H    0.004163   0.493910  -0.024982  -0.000123   0.001223   0.000913
     9  H   -0.007572  -0.024982   0.528641  -0.000283  -0.000184  -0.000293
    10  H   -0.006083  -0.000123  -0.000283   0.488958  -0.019586  -0.003279
    11  H    0.004164   0.001223  -0.000184  -0.019586   0.476994  -0.006757
    12  H   -0.001157   0.000913  -0.000293  -0.003279  -0.006757   0.439799
    13  H    0.001483   0.004421  -0.005025   0.000283  -0.000123   0.000105
    14  H   -0.000249  -0.005820  -0.002985   0.000013   0.000002   0.005794
              13         14
     1  O   -0.051818  -0.049472
     2  C   -0.043444   0.040526
     3  C    0.030678  -0.075091
     4  C   -0.009890  -0.004032
     5  C    0.417544   0.443630
     6  H   -0.000033  -0.000375
     7  H    0.001483  -0.000249
     8  H    0.004421  -0.005820
     9  H   -0.005025  -0.002985
    10  H    0.000283   0.000013
    11  H   -0.000123   0.000002
    12  H    0.000105   0.005794
    13  H    0.560786  -0.037975
    14  H   -0.037975   0.548047
          Atomic-Atomic Spin Densities.
               1          2          3          4          5          6
     1  O    0.076101   0.010191   0.004154  -0.050484  -0.009805  -0.001445
     2  C    0.010191  -0.028878   0.036859  -0.095767  -0.015223   0.031402
     3  C    0.004154   0.036859   0.054023  -0.046867  -0.019829  -0.031617
     4  C   -0.050484  -0.095767  -0.046867   1.193305   0.032635  -0.029760
     5  C   -0.009805  -0.015223  -0.019829   0.032635   0.023871   0.009025
     6  H   -0.001445   0.031402  -0.031617  -0.029760   0.009025   0.088748
     7  H    0.000727  -0.002213   0.010170  -0.004540  -0.003833  -0.005328
     8  H    0.000377  -0.000337   0.002926   0.000697  -0.003664  -0.000743
     9  H   -0.000405  -0.000258  -0.003222   0.002046   0.002089   0.001059
    10  H    0.001008   0.011680   0.003471  -0.019938  -0.001879  -0.002322
    11  H    0.001307   0.002588   0.005830  -0.011046  -0.001651  -0.002301
    12  H    0.016511  -0.003392   0.004092   0.028288   0.003110   0.000654
    13  H   -0.000525   0.000353  -0.001970   0.001049   0.000276  -0.000063
    14  H    0.000927   0.001428   0.004725  -0.003301  -0.005946  -0.000195
               7          8          9         10         11         12
     1  O    0.000727   0.000377  -0.000405   0.001008   0.001307   0.016511
     2  C   -0.002213  -0.000337  -0.000258   0.011680   0.002588  -0.003392
     3  C    0.010170   0.002926  -0.003222   0.003471   0.005830   0.004092
     4  C   -0.004540   0.000697   0.002046  -0.019938  -0.011046   0.028288
     5  C   -0.003833  -0.003664   0.002089  -0.001879  -0.001651   0.003110
     6  H   -0.005328  -0.000743   0.001059  -0.002322  -0.002301   0.000654
     7  H    0.009490   0.000042  -0.000006   0.000922   0.000016  -0.000339
     8  H    0.000042  -0.002622   0.000838  -0.000018  -0.000085  -0.000018
     9  H   -0.000006   0.000838  -0.003822  -0.000006  -0.000047   0.000148
    10  H    0.000922  -0.000018  -0.000006  -0.041318   0.006282  -0.000330
    11  H    0.000016  -0.000085  -0.000047   0.006282  -0.041524   0.000327
    12  H   -0.000339  -0.000018   0.000148  -0.000330   0.000327  -0.051939
    13  H    0.000028   0.000034   0.000160  -0.000016   0.000003   0.000505
    14  H    0.000099   0.000282  -0.000479   0.000014   0.000041  -0.001832
              13         14
     1  O   -0.000525   0.000927
     2  C    0.000353   0.001428
     3  C   -0.001970   0.004725
     4  C    0.001049  -0.003301
     5  C    0.000276  -0.005946
     6  H   -0.000063  -0.000195
     7  H    0.000028   0.000099
     8  H    0.000034   0.000282
     9  H    0.000160  -0.000479
    10  H   -0.000016   0.000014
    11  H    0.000003   0.000041
    12  H    0.000505  -0.001832
    13  H   -0.000662   0.000315
    14  H    0.000315   0.007888
 Mulliken charges and spin densities:
               1          2
     1  O   -0.365426   0.048641
     2  C   -0.181149  -0.051565
     3  C   -0.280377   0.022744
     4  C   -0.479020   0.996316
     5  C   -0.222385   0.009175
     6  H    0.146970   0.057116
     7  H    0.166535   0.005236
     8  H    0.176995  -0.002289
     9  H    0.147877  -0.001905
    10  H    0.166449  -0.042449
    11  H    0.183622  -0.040262
    12  H    0.268911  -0.004213
    13  H    0.133009  -0.000512
    14  H    0.137988   0.003966
 Sum of Mulliken charges =  -0.00000   1.00000
 Mulliken charges and spin densities with hydrogens summed into heavy atoms:
               1          2
     1  O   -0.096514   0.044428
     2  C    0.132355   0.010787
     3  C    0.044496   0.018551
     4  C   -0.128949   0.913605
     5  C    0.048612   0.012629
 APT charges:
               1
     1  O   -0.474321
     2  C   -0.814358
     3  C   -0.813804
     4  C   -0.925349
     5  C   -0.725739
     6  H    0.464671
     7  H    0.376174
     8  H    0.366374
     9  H    0.452984
    10  H    0.512042
    11  H    0.402136
    12  H    0.324823
    13  H    0.359605
    14  H    0.494765
 Sum of APT charges =  -0.00000
 APT charges with hydrogens summed into heavy atoms:
               1
     1  O   -0.149498
     2  C    0.026487
     3  C    0.005553
     4  C   -0.011172
     5  C    0.128630
 Electronic spatial extent (au):  <R**2>=            476.5743
 Charge=             -0.0000 electrons
 Dipole moment (field-independent basis, Debye):
    X=              2.0973    Y=              1.7568    Z=              0.2633  Tot=              2.7485
 Quadrupole moment (field-independent basis, Debye-Ang):
   XX=            -34.5850   YY=            -34.1661   ZZ=            -32.5902
   XY=             -4.2154   XZ=             -0.3005   YZ=             -0.2919
 Traceless Quadrupole moment (field-independent basis, Debye-Ang):
   XX=             -0.8046   YY=             -0.3857   ZZ=              1.1902
   XY=             -4.2154   XZ=             -0.3005   YZ=             -0.2919
 Octapole moment (field-independent basis, Debye-Ang**2):
  XXX=             -2.7963  YYY=             -0.5762  ZZZ=             -0.0757  XYY=              3.8280
  XXY=              4.7947  XXZ=              0.2772  XZZ=             -0.0024  YZZ=             -0.9622
  YYZ=              0.1997  XYZ=              0.0576
 Hexadecapole moment (field-independent basis, Debye-Ang**3):
 XXXX=           -362.1688 YYYY=           -208.7998 ZZZZ=            -73.0609 XXXY=             -6.4682
 XXXZ=              3.2435 YYYX=             -1.3799 YYYZ=              0.2914 ZZZX=             -0.8264
 ZZZY=              1.0456 XXYY=            -99.4131 XXZZ=            -71.1922 YYZZ=            -48.6965
 XXYZ=             -3.1464 YYXZ=              0.4611 ZZXY=             -1.3052
 N-N= 1.845629612826D+02 E-N=-9.118358334398D+02  KE= 2.317241464329D+02
  Exact polarizability:   0.000   0.000   0.000   0.000   0.000   0.000
 Approx polarizability:  64.560  -1.190  65.610   0.245   0.918  61.589
                          Isotropic Fermi Contact Couplings
        Atom                 a.u.       MegaHertz       Gauss      10(-4) cm-1
     1  O(17)              0.02119     -12.84273      -4.58261      -4.28387
     2  C(13)             -0.02673     -30.04683     -10.72146     -10.02255
     3  C(13)              0.01952      21.94768       7.83148       7.32096
     4  C(13)              0.21044     236.57161      84.41463      78.91179
     5  C(13)             -0.00329      -3.70395      -1.32166      -1.23551
     6  H(1)               0.03212     143.59002      51.23649      47.89648
     7  H(1)               0.00167       7.47184       2.66614       2.49234
     8  H(1)              -0.00047      -2.12029      -0.75657      -0.70725
     9  H(1)              -0.00061      -2.73715      -0.97668      -0.91301
    10  H(1)              -0.01208     -53.98161     -19.26198     -18.00633
    11  H(1)              -0.01151     -51.43353     -18.35276     -17.15638
    12  H(1)              -0.01058     -47.27446     -16.86870     -15.76906
    13  H(1)              -0.00003      -0.12899      -0.04603      -0.04303
    14  H(1)               0.00231      10.31864       3.68195       3.44193
 --------------------------------------------------------
       Center         ----  Spin Dipole Couplings  ----
                      3XX-RR        3YY-RR        3ZZ-RR
 --------------------------------------------------------
     1   Atom        0.320660     -0.160822     -0.159838
     2   Atom       -0.001254      0.018916     -0.017662
     3   Atom        0.030399     -0.007799     -0.022600
     4   Atom        0.714274     -0.253971     -0.460303
     5   Atom        0.007639     -0.000257     -0.007382
     6   Atom       -0.005529      0.013823     -0.008294
     7   Atom       -0.007889      0.006456      0.001433
     8   Atom       -0.001710      0.000627      0.001083
     9   Atom       -0.000975      0.006151     -0.005177
    10   Atom        0.017776     -0.016336     -0.001440
    11   Atom       -0.017010     -0.044083      0.061093
    12   Atom        0.094284     -0.044095     -0.050189
    13   Atom        0.002365     -0.000828     -0.001537
    14   Atom        0.002702      0.000037     -0.002739
 --------------------------------------------------------
                        XY            XZ            YZ
 --------------------------------------------------------
     1   Atom       -0.046542      0.028716     -0.003432
     2   Atom        0.009234     -0.000968      0.002290
     3   Atom       -0.021521      0.014895     -0.005847
     4   Atom        0.567732     -0.232827     -0.111381
     5   Atom       -0.006980     -0.002146      0.000976
     6   Atom        0.005147     -0.002811     -0.000869
     7   Atom       -0.000643     -0.001816      0.012825
     8   Atom       -0.004696      0.005116     -0.005905
     9   Atom       -0.004168      0.000170      0.000403
    10   Atom       -0.015860      0.037196     -0.051647
    11   Atom        0.016933     -0.018621      0.030428
    12   Atom       -0.001304      0.004816     -0.001774
    13   Atom       -0.003481     -0.003298      0.002847
    14   Atom       -0.003252      0.000658     -0.000416
 --------------------------------------------------------


 ---------------------------------------------------------------------------------
              Anisotropic Spin Dipole Couplings in Principal Axis System
 ---------------------------------------------------------------------------------

       Atom             a.u.   MegaHertz   Gauss  10(-4) cm-1        Axes

              Baa    -0.1654    11.968     4.271     3.992  0.0837  0.9813  0.1733
     1 O(17)  Bbb    -0.1614    11.681     4.168     3.897 -0.0747 -0.1672  0.9831
              Bcc     0.3268   -23.650    -8.439    -7.889  0.9937 -0.0953  0.0593
 
              Baa    -0.0180    -2.411    -0.860    -0.804  0.1060 -0.0880  0.9905
     2 C(13)  Bbb    -0.0046    -0.619    -0.221    -0.207  0.9272 -0.3512 -0.1305
              Bcc     0.0226     3.031     1.081     1.011  0.3593  0.9322  0.0444
 
              Baa    -0.0265    -3.557    -1.269    -1.186 -0.2462  0.0196  0.9690
     3 C(13)  Bbb    -0.0174    -2.336    -0.834    -0.779  0.3883  0.9181  0.0801
              Bcc     0.0439     5.893     2.103     1.966  0.8880 -0.3960  0.2337
 
              Baa    -0.5170   -69.379   -24.756   -23.142 -0.3571  0.8903  0.2825
     4 C(13)  Bbb    -0.5042   -67.659   -24.143   -22.569  0.2695 -0.1914  0.9438
              Bcc     1.0212   137.039    48.899    45.711  0.8943  0.4132 -0.1716
 
              Baa    -0.0077    -1.031    -0.368    -0.344  0.1390  0.0005  0.9903
     5 C(13)  Bbb    -0.0043    -0.579    -0.206    -0.193  0.4938  0.8668 -0.0697
              Bcc     0.0120     1.610     0.574     0.537  0.8584 -0.4987 -0.1202
 
              Baa    -0.0102    -5.462    -1.949    -1.822  0.5858 -0.0963  0.8047
     6 H(1)   Bbb    -0.0050    -2.652    -0.946    -0.885  0.7713 -0.2385 -0.5901
              Bcc     0.0152     8.114     2.895     2.706  0.2487  0.9664 -0.0655
 
              Baa    -0.0097    -5.176    -1.847    -1.727  0.5020 -0.5254  0.6870
     7 H(1)   Bbb    -0.0074    -3.960    -1.413    -1.321  0.8623  0.3646 -0.3513
              Bcc     0.0171     9.136     3.260     3.047 -0.0659  0.7688  0.6361
 
              Baa    -0.0056    -3.009    -1.074    -1.004  0.8480  0.1588 -0.5057
     8 H(1)   Bbb    -0.0050    -2.679    -0.956    -0.894  0.2035  0.7834  0.5873
              Bcc     0.0107     5.688     2.030     1.897  0.4894 -0.6009  0.6319
 
              Baa    -0.0052    -2.789    -0.995    -0.930 -0.1153 -0.0773  0.9903
     9 H(1)   Bbb    -0.0029    -1.521    -0.543    -0.507  0.9012  0.4112  0.1370
              Bcc     0.0081     4.310     1.538     1.438 -0.4178  0.9083  0.0222
 
              Baa    -0.0633   -33.797   -12.060   -11.273 -0.1805  0.6992  0.6918
    10 H(1)   Bbb    -0.0081    -4.348    -1.551    -1.450  0.7870  0.5246 -0.3248
              Bcc     0.0715    38.145    13.611    12.724  0.5900 -0.4858  0.6449
 
              Baa    -0.0624   -33.316   -11.888   -11.113 -0.4331  0.8579 -0.2766
    11 H(1)   Bbb    -0.0090    -4.801    -1.713    -1.601  0.8874  0.4597  0.0362
              Bcc     0.0714    38.117    13.601    12.714 -0.1582  0.2298  0.9603
 
              Baa    -0.0508   -27.102    -9.671    -9.040 -0.0299  0.2504  0.9677
    12 H(1)   Bbb    -0.0437   -23.296    -8.312    -7.771  0.0179  0.9681 -0.2499
              Bcc     0.0945    50.398    17.983    16.811  0.9994 -0.0098  0.0334
 
              Baa    -0.0041    -2.168    -0.774    -0.723  0.0685 -0.6165  0.7843
    13 H(1)   Bbb    -0.0028    -1.477    -0.527    -0.493  0.6782  0.6054  0.4167
              Bcc     0.0068     3.645     1.301     1.216  0.7317 -0.5034 -0.4596
 
              Baa    -0.0028    -1.504    -0.537    -0.502 -0.1007  0.0302  0.9945
    14 H(1)   Bbb    -0.0021    -1.144    -0.408    -0.382  0.5541  0.8319  0.0309
              Bcc     0.0050     2.648     0.945     0.883  0.8264 -0.5541  0.1005
 

 ---------------------------------------------------------------------------------

 No NMR shielding tensors so no spin-rotation constants.
 Leave Link  601 at Sun Mar 10 18:23:42 2019, MaxMem=   671088640 cpu:              59.5 elap:               3.8
 (Enter /shared/centos7/gaussian/g16/l701.exe)
 SCFChk:  SCF convergence  6.36D-09 required  1.00D-08
 ... and contract with generalized density number  0.
 Compute integral second derivatives.
 Entering OneElI...
 Calculate overlap and kinetic energy integrals
    NBasis = 276  MinDer = 2  MaxDer = 2
 Requested accuracy = 0.1000D-12
 PrmmSu-InSpLW:  IPartL=    0 NPrtUS=   20 NPrtUL=    1 DoSpLW=F IThBeg=    0 IThEnd=   19 NThAct=   20.
 PrsmSu:  NPrtUS=  20 ThrOK=T IAlg=1 NPAlg=1 LenDen=           0 ISkipM=0 DoSpLW=F IThBeg=    0 IThEnd=   19.
 Prism:   IPart=     0 DynPar=F LinDyn=F Incr=           1.
 PRISM was handed    33456233 working-precision words and  3655 shell-pairs
 PRISM was handed    33456233 working-precision words and  3655 shell-pairs
 PRISM was handed    33456233 working-precision words and  3655 shell-pairs
 PRISM was handed    33456233 working-precision words and  3655 shell-pairs
 PRISM was handed    33456233 working-precision words and  3655 shell-pairs
 PRISM was handed    33456233 working-precision words and  3655 shell-pairs
 PRISM was handed    33456233 working-precision words and  3655 shell-pairs
 PRISM was handed    33456233 working-precision words and  3655 shell-pairs
 PRISM was handed    33456233 working-precision words and  3655 shell-pairs
 PRISM was handed    33456233 working-precision words and  3655 shell-pairs
 PRISM was handed    33456233 working-precision words and  3655 shell-pairs
 PRISM was handed    33456233 working-precision words and  3655 shell-pairs
 PRISM was handed    33456233 working-precision words and  3655 shell-pairs
 PRISM was handed    33456233 working-precision words and  3655 shell-pairs
 PRISM was handed    33456233 working-precision words and  3655 shell-pairs
 PRISM was handed    33456233 working-precision words and  3655 shell-pairs
 PRISM was handed    33456233 working-precision words and  3655 shell-pairs
 PRISM was handed    33456233 working-precision words and  3655 shell-pairs
 PRISM was handed    33456233 working-precision words and  3655 shell-pairs
 PRISM was handed    33456233 working-precision words and  3655 shell-pairs
 IPart= 18 NShTot=         163 NBatch=          29 AvBLen=         5.6
 IPart= 17 NShTot=         163 NBatch=          29 AvBLen=         5.6
 IPart= 15 NShTot=         163 NBatch=          29 AvBLen=         5.6
 IPart=  8 NShTot=         188 NBatch=          37 AvBLen=         5.1
 IPart=  6 NShTot=         191 NBatch=          38 AvBLen=         5.0
 IPart= 13 NShTot=         172 NBatch=          33 AvBLen=         5.2
 IPart= 11 NShTot=         174 NBatch=          34 AvBLen=         5.1
 IPart=  3 NShTot=         201 NBatch=          44 AvBLen=         4.6
 IPart= 14 NShTot=         168 NBatch=          30 AvBLen=         5.6
 IPart=  2 NShTot=         206 NBatch=          47 AvBLen=         4.4
 IPart=  5 NShTot=         193 NBatch=          40 AvBLen=         4.8
 IPart= 16 NShTot=         163 NBatch=          29 AvBLen=         5.6
 IPart= 10 NShTot=         175 NBatch=          34 AvBLen=         5.1
 IPart=  0 NShTot=         215 NBatch=          55 AvBLen=         3.9
 IPart= 19 NShTot=         163 NBatch=          29 AvBLen=         5.6
 IPart= 12 NShTot=         172 NBatch=          33 AvBLen=         5.2
 IPart=  1 NShTot=         210 NBatch=          51 AvBLen=         4.1
 IPart=  7 NShTot=         190 NBatch=          37 AvBLen=         5.1
 IPart=  4 NShTot=         199 NBatch=          42 AvBLen=         4.7
 IPart=  9 NShTot=         186 NBatch=          36 AvBLen=         5.2
 PrSmSu:  NxtVal=             21.
 Entering OneElI...
 Calculate potential energy integrals
    NBasis = 276  MinDer = 2  MaxDer = 2
 Requested accuracy = 0.1000D-12
 PrmmSu-InSpLW:  IPartL=    0 NPrtUS=   20 NPrtUL=    1 DoSpLW=F IThBeg=    0 IThEnd=   19 NThAct=   20.
 PrsmSu:  NPrtUS=  20 ThrOK=T IAlg=1 NPAlg=1 LenDen=           0 ISkipM=0 DoSpLW=F IThBeg=    0 IThEnd=   19.
 Prism:   IPart=     0 DynPar=F LinDyn=F Incr=          24.
 PRISM was handed    33468435 working-precision words and  3533 shell-pairs
 PRISM was handed    33468435 working-precision words and  3533 shell-pairs
 PRISM was handed    33468435 working-precision words and  3533 shell-pairs
 PRISM was handed    33468435 working-precision words and  3533 shell-pairs
 PRISM was handed    33468435 working-precision words and  3533 shell-pairs
 PRISM was handed    33468435 working-precision words and  3533 shell-pairs
 PRISM was handed    33468435 working-precision words and  3533 shell-pairs
 PRISM was handed    33468435 working-precision words and  3533 shell-pairs
 PRISM was handed    33468435 working-precision words and  3533 shell-pairs
 PRISM was handed    33468435 working-precision words and  3533 shell-pairs
 PRISM was handed    33468435 working-precision words and  3533 shell-pairs
 PRISM was handed    33468435 working-precision words and  3533 shell-pairs
 PRISM was handed    33468435 working-precision words and  3533 shell-pairs
 PRISM was handed    33468435 working-precision words and  3533 shell-pairs
 PRISM was handed    33468435 working-precision words and  3533 shell-pairs
 PRISM was handed    33468435 working-precision words and  3533 shell-pairs
 PRISM was handed    33468435 working-precision words and  3533 shell-pairs
 PRISM was handed    33468435 working-precision words and  3533 shell-pairs
 PRISM was handed    33468435 working-precision words and  3533 shell-pairs
 PRISM was handed    33468435 working-precision words and  3533 shell-pairs
 IPart= 18 NShTot=        2212 NBatch=         158 AvBLen=        14.0
 IPart=  3 NShTot=        2660 NBatch=         190 AvBLen=        14.0
 IPart= 11 NShTot=        2408 NBatch=         172 AvBLen=        14.0
 IPart= 17 NShTot=        2226 NBatch=         159 AvBLen=        14.0
 IPart=  8 NShTot=        2506 NBatch=         179 AvBLen=        14.0
 IPart=  6 NShTot=        2534 NBatch=         181 AvBLen=        14.0
 IPart=  9 NShTot=        2450 NBatch=         175 AvBLen=        14.0
 IPart=  2 NShTot=        2786 NBatch=         199 AvBLen=        14.0
 IPart= 12 NShTot=        2380 NBatch=         170 AvBLen=        14.0
 IPart=  7 NShTot=        2520 NBatch=         180 AvBLen=        14.0
 IPart=  0 NShTot=        2926 NBatch=         209 AvBLen=        14.0
 IPart= 15 NShTot=        2282 NBatch=         163 AvBLen=        14.0
 IPart= 13 NShTot=        2352 NBatch=         168 AvBLen=        14.0
 IPart=  5 NShTot=        2562 NBatch=         183 AvBLen=        14.0
 IPart= 14 NShTot=        2324 NBatch=         166 AvBLen=        14.0
 IPart=  1 NShTot=        2870 NBatch=         205 AvBLen=        14.0
 IPart=  4 NShTot=        2618 NBatch=         187 AvBLen=        14.0
 IPart= 10 NShTot=        2422 NBatch=         173 AvBLen=        14.0
 IPart= 19 NShTot=        2198 NBatch=         157 AvBLen=        14.0
 IPart= 16 NShTot=        2226 NBatch=         159 AvBLen=        14.0
 PrSmSu:  NxtVal=            481.
 Polarizability after L701:
                1             2             3 
      1  0.000000D+00
      2  0.000000D+00  0.000000D+00
      3  0.000000D+00  0.000000D+00  0.000000D+00
 Dipole Derivatives after L701:
                 1             2             3             4             5 
      1  -0.381491D+00 -0.281243D+00 -0.115051D+00 -0.105406D+01 -0.906338D+00
      2   0.446135D+00 -0.641763D+00 -0.244799D-02 -0.587418D+00 -0.479475D+00
      3  -0.334471D-01  0.445424D-01 -0.399711D+00  0.995251D-01 -0.109931D-01
                 6             7             8             9            10 
      1  -0.317306D+00 -0.102452D+00  0.199721D-01 -0.119933D+00 -0.889911D+00
      2  -0.114960D+00  0.147396D+00 -0.126133D+01  0.319221D+00  0.448612D+00
      3  -0.909543D+00 -0.130082D+00 -0.504430D-01 -0.107764D+01 -0.958942D-01
                11            12            13            14            15 
      1   0.110176D+01  0.140969D+00 -0.115805D+01  0.758625D+00  0.383227D+00
      2  -0.935662D+00 -0.565981D-01  0.451389D+00 -0.324308D+00 -0.124386D+00
      3   0.415843D-01 -0.950474D+00  0.184269D-01 -0.104871D+00 -0.694864D+00
                16            17            18            19            20 
      1   0.772064D+00  0.466060D+00 -0.346100D+00  0.166099D+00  0.824960D-01
      2   0.338347D+00  0.437433D+00 -0.202730D+00 -0.214175D-02  0.228831D+00
      3  -0.514378D-01 -0.392861D-01  0.184516D+00  0.164995D-01  0.786395D-01
                21            22            23            24            25 
      1   0.546040D+00  0.190589D+00  0.187234D-01  0.383654D-01  0.165039D+00
      2   0.287128D+00  0.160525D-01  0.131180D+00 -0.425509D+00 -0.708250D-01
      3   0.733593D+00  0.417904D-03  0.501812D-01  0.777351D+00  0.568084D-02
                26            27            28            29            30 
      1  -0.773655D-01 -0.177754D-01  0.668778D+00 -0.548178D+00  0.725097D+00
      2   0.105670D+01  0.216692D+00 -0.380380D+00  0.507356D+00 -0.474489D+00
      3  -0.409333D-01  0.137211D+00  0.168180D+00 -0.146168D+00  0.359991D+00
                31            32            33            34            35 
      1   0.231167D+00 -0.208509D+00 -0.761593D+00  0.205378D+00  0.527342D-01
      2  -0.634403D-01  0.304953D+00  0.529573D+00 -0.468386D+00  0.484019D+00
      3  -0.608015D-01  0.135741D+00  0.670287D+00  0.192117D-01  0.100697D-02
                36            37            38            39            40 
      1   0.142648D-01  0.196564D+00 -0.102668D+00 -0.601968D+00  0.990277D+00
      2  -0.106893D-01 -0.152132D-01  0.203168D+00  0.169150D+00 -0.260128D+00
      3   0.285072D+00 -0.531641D-01  0.547691D-01  0.679081D+00  0.968843D-01
                41            42 
      1  -0.376071D+00  0.431763D+00
      2   0.288890D+00 -0.109955D+00
      3  -0.137703D-01  0.205128D+00
 Hessian after L701:
                1             2             3             4             5 
      1  0.625755D+01
      2  0.438207D+00  0.440077D+01
      3 -0.292394D+00 -0.888866D+00  0.119842D+02
      4  0.207461D+00  0.224816D+00 -0.155651D+00  0.116350D+02
      5  0.264063D+00 -0.484364D-01 -0.130732D+00  0.661881D+00  0.116799D+02
      6 -0.144811D+00 -0.128306D+00 -0.218821D+00 -0.482661D+00 -0.254426D-01
      7  0.819916D-01  0.678388D+00  0.146461D+00 -0.154510D+01 -0.130704D+01
      8  0.648686D+00  0.419198D+00  0.107566D+00 -0.120790D+01 -0.416718D+01
      9  0.151801D+00  0.150123D+00 -0.431985D+00  0.126423D+01 -0.534375D+00
     10  0.599089D+00  0.429954D-01  0.695414D-02 -0.513744D+01 -0.969113D+00
     11  0.199668D+00 -0.272202D+00  0.264741D-02 -0.978216D+00 -0.122026D+01
     12  0.272104D-01  0.299241D-02 -0.308004D+00 -0.161505D+00  0.777337D+00
     13 -0.604466D+01 -0.279715D+00 -0.897710D-01  0.340874D+00  0.870080D-01
     14 -0.205494D+00  0.497654D+00  0.105392D+01  0.137521D+00 -0.946885D-01
     15 -0.992568D-01  0.101304D+01 -0.602434D+01  0.560657D-01 -0.389340D-02
     16  0.388428D-01  0.207978D-01 -0.719989D-05 -0.200950D+01  0.113651D+01
     17  0.352436D-01  0.181947D-02 -0.103844D-04  0.110246D+01 -0.251052D+01
     18 -0.117158D-01 -0.336681D-02 -0.114858D-01 -0.634925D+00 -0.505812D+00
     19  0.152199D-01  0.236761D-01  0.212672D-01 -0.371711D+01  0.486366D-01
     20  0.370620D-01 -0.382659D-03  0.189186D-01  0.162706D-01 -0.358968D+01
     21  0.674945D-01  0.345952D-01  0.854432D-02  0.547097D-01  0.496863D+00
     22 -0.503983D-02  0.793036D-02 -0.146959D-01 -0.319449D-01 -0.348740D-01
     23  0.168880D-01 -0.621379D-02 -0.166900D-01 -0.173277D-01  0.119448D-01
     24 -0.552435D-01 -0.538489D-01  0.330428D-01 -0.693613D-02 -0.712827D-01
     25 -0.364015D-01  0.441717D-01  0.209241D-02 -0.899302D-02  0.531662D-01
     26  0.833922D-01  0.165144D+00  0.237887D-02  0.497478D-01  0.495084D-01
     27  0.519936D-02  0.101391D-01 -0.462632D-01 -0.512514D-02  0.271178D-01
     28  0.842327D-01 -0.154786D-01  0.317554D-01  0.525858D-01  0.883006D-01
     29 -0.360417D-01 -0.192201D-01 -0.764777D-02  0.689326D-01 -0.713211D-01
     30  0.647538D-01 -0.991768D-02 -0.108575D-01  0.202373D-01  0.810086D-02
     31  0.508563D-01 -0.877288D-02 -0.367678D-01  0.401730D-01  0.155751D-01
     32 -0.194450D-01 -0.269211D-01  0.723480D-02 -0.141744D-01 -0.551469D-01
     33 -0.100812D+00  0.108362D-01  0.782544D-02 -0.309514D-01 -0.510595D-01
     34 -0.146604D+01 -0.112580D+01  0.281471D+00 -0.323980D-01  0.335214D-02
     35 -0.144113D+01 -0.486832D+01 -0.494918D-01  0.191295D-01  0.534728D-01
     36  0.286726D+00 -0.411222D-01 -0.545978D+01 -0.271516D-02 -0.538541D-02
     37  0.587685D-01  0.153568D-01 -0.161427D-01 -0.349071D-02 -0.266686D-01
     38  0.196288D-03 -0.156778D+00  0.317962D-01 -0.200230D-01  0.372920D-01
     39  0.884275D-03  0.566433D-01  0.382773D+00  0.352381D-01  0.212399D-01
     40  0.158123D+00 -0.665727D-01  0.115428D+00  0.209938D+00 -0.207971D-01
     41 -0.212963D-01 -0.861181D-01 -0.131028D+00 -0.431146D-01 -0.748481D-01
     42  0.100163D+00 -0.152939D+00  0.951413D-01  0.499858D-01 -0.267571D-02
                6             7             8             9            10 
      6  0.136284D+02
      7  0.126536D+01  0.114048D+02
      8 -0.517714D+00 -0.700176D+00  0.127177D+02
      9 -0.424472D+01 -0.157889D+00  0.560880D+00  0.142303D+02
     10 -0.148131D+00  0.138627D+00 -0.165017D+00 -0.538453D-01  0.984158D+01
     11  0.743195D+00 -0.141094D+00  0.815377D-01  0.697167D-01  0.198478D+01
     12 -0.501705D+01  0.180515D-01  0.523153D-02 -0.133859D+00 -0.360623D+00
     13 -0.639912D-01 -0.275753D+01  0.185842D+01 -0.113584D+01  0.209631D+00
     14 -0.115066D-01  0.187421D+01 -0.440614D+01 -0.797707D+00 -0.243738D+00
     15 -0.149690D+00 -0.118204D+01 -0.799391D+00 -0.514720D+01  0.210907D-01
     16 -0.662453D+00 -0.347695D-01  0.859439D-02 -0.489269D-02  0.940668D-01
     17 -0.510220D+00  0.165384D-01  0.803509D-01 -0.174904D-01  0.769411D-01
[...]
 ! D1    D(12,1,5,3)            58.1789         -DE/DX =    0.0                 !
 ! D2    D(12,1,5,13)          -65.5359         -DE/DX =    0.0                 !
 ! D3    D(12,1,5,14)          178.5702         -DE/DX =    0.0                 !
 ! D4    D(4,2,3,5)             67.6478         -DE/DX =    0.0                 !
 ! D5    D(4,2,3,8)            -54.3953         -DE/DX =    0.0                 !
 ! D6    D(4,2,3,9)           -171.6098         -DE/DX =    0.0                 !
 ! D7    D(6,2,3,5)           -170.6903         -DE/DX =    0.0                 !
 ! D8    D(6,2,3,8)             67.2667         -DE/DX =    0.0                 !
 ! D9    D(6,2,3,9)            -49.9479         -DE/DX =    0.0                 !
 ! D10   D(7,2,3,5)            -56.2061         -DE/DX =    0.0                 !
 ! D11   D(7,2,3,8)           -178.2492         -DE/DX =    0.0                 !
 ! D12   D(7,2,3,9)             64.5363         -DE/DX =    0.0                 !
 ! D13   D(3,2,4,10)          -154.4719         -DE/DX =    0.0                 !
 ! D14   D(3,2,4,11)            42.8823         -DE/DX =    0.0                 !
 ! D15   D(6,2,4,10)            84.3225         -DE/DX =    0.0                 !
 ! D16   D(6,2,4,11)           -78.3234         -DE/DX =    0.0                 !
 ! D17   D(7,2,4,10)           -30.9158         -DE/DX =    0.0                 !
 ! D18   D(7,2,4,11)           166.4383         -DE/DX =    0.0                 !
 ! D19   D(2,3,5,1)            -70.8935         -DE/DX =    0.0                 !
 ! D20   D(2,3,5,13)            53.4187         -DE/DX =    0.0                 !
 ! D21   D(2,3,5,14)           171.0749         -DE/DX =    0.0                 !
 ! D22   D(8,3,5,1)             51.7816         -DE/DX =    0.0                 !
 ! D23   D(8,3,5,13)           176.0938         -DE/DX =    0.0                 !
 ! D24   D(8,3,5,14)           -66.2501         -DE/DX =    0.0                 !
 ! D25   D(9,3,5,1)            168.0041         -DE/DX =    0.0                 !
 ! D26   D(9,3,5,13)           -67.6837         -DE/DX =    0.0                 !
 ! D27   D(9,3,5,14)            49.9724         -DE/DX =    0.0                 !
 --------------------------------------------------------------------------------
 GradGradGradGradGradGradGradGradGradGradGradGradGradGradGradGradGradGrad

 Leave Link  103 at Sun Mar 10 19:05:51 2019, MaxMem=   671088640 cpu:              45.0 elap:               2.8
 (Enter /shared/centos7/gaussian/g16/l9999.exe)

 ----------------------------------------------------------------------

 Electric dipole moment (input orientation):
 (Debye = 10**-18 statcoulomb cm , SI units = C m)
                  (au)            (Debye)         (10**-30 SI)
   Tot        0.853853D+00      0.217028D+01      0.723927D+01
   x          0.498515D+00      0.126710D+01      0.422659D+01
   y         -0.637242D+00     -0.161971D+01     -0.540276D+01
   z         -0.272893D+00     -0.693626D+00     -0.231369D+01

 Dipole polarizability, Alpha (input orientation).
 (esu units = cm**3 , SI units = C**2 m**2 J**-1)
 Alpha(0;0):
               (au)            (10**-24 esu)      (10**-40 SI)
   iso        0.541047D+02      0.801749D+01      0.892066D+01
   aniso      0.963805D+01      0.142821D+01      0.158910D+01
   xx         0.581924D+02      0.862322D+01      0.959462D+01
   yx        -0.276840D+00     -0.410235D-01     -0.456448D-01
   yy         0.542160D+02      0.803398D+01      0.893901D+01
   zx         0.325042D+01      0.481663D+00      0.535922D+00
   zy         0.177367D+01      0.262831D+00      0.292439D+00
   zz         0.499058D+02      0.739527D+01      0.822835D+01

 ----------------------------------------------------------------------

 Dipole orientation:
     8         -0.38244526         -0.73147774         -3.49680236
     6          0.29957219          0.09265054          2.31038703
     6         -1.63264661          1.27166546          0.50473064
     6          2.85875385         -0.25298807          1.19680034
     6         -2.33669989         -0.43662022         -1.70155106
     1          0.44858884          1.30968401          3.98711272
     1         -0.42022322         -1.71597747          3.00364575
     1         -0.90089203          3.05261982         -0.24203637
     1         -3.35226113          1.71037705          1.55817417
     1          4.12114686         -1.68966836          1.90870155
     1          3.67191413          1.23634983          0.05731121
     1          1.08068472         -1.41069668         -2.65890357
     1         -2.95072950         -2.28130974         -0.98089344
     1         -3.92020134          0.37841171         -2.73491357

 Electric dipole moment (dipole orientation):
 (Debye = 10**-18 statcoulomb cm , SI units = C m)
                  (au)            (Debye)         (10**-30 SI)
   Tot        0.853853D+00      0.217028D+01      0.723927D+01
   x          0.000000D+00      0.000000D+00      0.000000D+00
   y          0.000000D+00      0.000000D+00      0.000000D+00
   z          0.853853D+00      0.217028D+01      0.723927D+01

 Dipole polarizability, Alpha (dipole orientation).
 (esu units = cm**3 , SI units = C**2 m**2 J**-1)
 Alpha(0;0):
               (au)            (10**-24 esu)      (10**-40 SI)
   iso        0.541047D+02      0.801749D+01      0.892066D+01
   aniso      0.963805D+01      0.142821D+01      0.158910D+01
   xx         0.582975D+02      0.863879D+01      0.961195D+01
   yx        -0.169186D+01     -0.250708D+00     -0.278950D+00
   yy         0.490112D+02      0.726270D+01      0.808085D+01
   zx         0.200348D+01      0.296885D+00      0.330329D+00
   zy         0.138574D+01      0.205345D+00      0.228477D+00
   zz         0.550055D+02      0.815097D+01      0.906918D+01

 ----------------------------------------------------------------------

 Test job not archived.
 1\1\GINC-C2003\Freq\UM062X\6-311+G(2df,2p)\C4H9O1(2)\UNDERKOFFLER.C\10
 -Mar-2019\0\\#P Geom=AllCheck Guess=TCheck SCRF=Check Test GenChk UM06
 2X/6-311+G(2df,2p) Freq\\Gaussian input prepared by ASE\\0,2\O,-1.1026
 472337,1.5378736813,0.1843583878\C,0.8151952141,-0.8884349858,-0.26160
 18325\C,-0.7070492706,-0.8735115063,-0.0875572317\C,1.5359776268,0.104
 2318922,0.5809047468\C,-1.3665284404,0.3972260684,-0.60659501\H,1.1790
 601075,-1.8967823818,-0.0184951526\H,1.0628999838,-0.7348825913,-1.315
 519918\H,-0.9617564543,-0.9953789631,0.9681761505\H,-1.1331597816,-1.7
 241896398,-0.6237455285\H,2.5024271834,0.4830259779,0.283136075\H,1.24
 28420683,0.2408692838,1.6130398283\H,-0.1508373234,1.6703359421,0.2264
 447332\H,-1.0625461543,0.5694668281,-1.6467118704\H,-2.4497027755,0.27
 93915423,-0.5991758686\\Version=EM64L-G16RevA.03\State=2-A\HF=-232.964
 5975\S2=0.755339\S2-1=0.\S2A=0.750023\RMSD=2.913e-09\RMSF=9.426e-07\Ze
 roPoint=0.1236796\Thermal=0.1302985\Dipole=0.4985151,-0.6372421,-0.272
 8934\DipoleDeriv=-0.4539791,-0.0414985,-0.1262234,0.0122131,-0.8847924
 ,-0.1360905,-0.0918136,-0.1579164,-0.5855762,0.0362368,-0.00619,0.0280
 937,-0.0671647,0.0264836,-0.0598492,0.0224963,0.0091744,0.094656,0.103
 924,0.0520759,0.006298,0.0277825,-0.0281373,0.009144,-0.0396387,0.0325
 799,0.0680345,-0.0596253,0.1534489,-0.0893305,0.2097409,-0.1841704,0.1
 213465,-0.0832234,0.0965817,0.0206863,0.2727338,0.0677532,0.0698975,0.
 019981,0.6500469,0.1782064,0.0728219,0.1826626,0.4818062,0.008614,0.03
 56357,-0.0317793,0.0508877,-0.121743,-0.0000457,-0.0413251,0.0170792,0
 .0523143,0.0060039,-0.026433,0.0064615,-0.0316631,0.0569693,0.0297899,
 0.0440783,-0.0059724,-0.1291736,0.004705,0.0186836,0.0210727,0.0194577
 ,0.0468165,0.0132298,0.0465675,0.0527251,-0.1165483,-0.0251438,-0.0483
 35,-0.0437727,-0.0567245,-0.0796129,-0.0660776,-0.0586268,-0.0902963,0
 .0157961,-0.0462104,-0.0838355,0.014471,-0.0889881,0.0934411,-0.036794
 8,0.033958,-0.0228499,0.0406865,0.0437274,-0.0391482,0.0512112,-0.0512
 179,0.0794834,-0.0187975,0.0200425,-0.0449859,-0.0484184,0.2300298,-0.
 0554789,0.0371889,-0.0464621,0.3512056,-0.0411497,0.0494898,-0.051483,
 0.2474581,0.0308087,-0.0106305,0.0879604,-0.008362,-0.0264111,0.015889
 9,0.0178141,-0.0087367,-0.1938546,-0.1518248,-0.0160477,-0.031549,0.01
 05193,0.0204208,-0.0088015,0.0073592,-0.0085624,0.0521332\Polar=58.192
 3517,-0.2768403,54.2160107,3.2504225,1.7736702,49.9057552\Quadrupole=0
 .5801724,-1.3568773,0.7767049,2.6050512,0.7355404,-0.3414441\PG=C01 [X
 (C4H9O1)]\NImag=0\\0.61007496,0.09565735,0.27701134,0.04112190,0.15381
 260,0.15944423,0.00073959,-0.00192983,-0.00031036,0.45867747,-0.000840
 91,0.00310591,0.00065595,-0.00103577,0.49448240,0.00032175,0.00028837,
 0.00002596,-0.01373385,-0.01513208,0.56573547,0.00708002,-0.01125710,0
 .00139014,-0.18147559,0.00315737,0.01702613,0.47818633,0.00833991,-0.0
 4073452,-0.00000105,-0.00154283,-0.07254916,-0.00176863,0.03578994,0.5
 2950980,0.00842233,-0.02749494,0.00626454,0.01294039,0.00038898,-0.085
 75741,0.00203209,0.03344420,0.59587614,-0.00594759,0.00185239,-0.00097
 901,-0.10821311,-0.06426140,-0.03177222,-0.01985403,-0.02703936,-0.018
 09493,0.47602245,0.00439241,0.00042502,0.00010470,-0.06265483,-0.12643
 178,-0.06846501,-0.00796044,-0.00369504,0.00002163,0.19710322,0.249195
 29,-0.00259144,-0.00024269,-0.00068151,-0.03150493,-0.06917548,-0.1333
 0343,-0.00141069,0.00385481,0.00518917,-0.12257636,0.11588876,0.531475
 23,-0.10108149,-0.00575157,-0.00285923,-0.02084782,0.03154410,-0.01349
 253,-0.10818267,0.03778831,-0.02123799,0.00218501,0.00117566,0.0013673
 3,0.62484839,-0.04094832,-0.18057354,-0.08777486,0.00619392,-0.0005027
 3,-0.00139002,0.04426484,-0.14835161,0.04383139,0.00131649,-0.00027361
 ,0.00227333,0.02518244,0.46594858,-0.02651455,-0.08657462,-0.12825669,
 0.00010548,-0.00268693,0.00086655,-0.02225507,0.03825698,-0.10237132,0
 .00049648,-0.00020212,0.00049830,-0.02444153,-0.00892706,0.55509206,0.
 00089831,0.00020733,0.00042815,-0.06511616,0.06885197,-0.01738240,-0.0
 1534177,0.03165126,-0.00907580,0.00409556,-0.01491448,0.00216507,-0.00
 687993,-0.00274813,0.00154799,0.07929081,-0.00011459,0.00021852,0.0000
 3281,0.07998824,-0.24571727,0.05835517,-0.00036014,-0.00024374,0.00055
 495,-0.00186046,-0.02554858,-0.00394729,0.00049150,0.00119753,-0.00011
 888,-0.07909386,0.27467933,0.00024697,0.00034871,0.00021349,-0.0165764
 4,0.04786221,-0.05692490,0.00280340,-0.00369697,0.00092584,0.00362347,
 -0.01884606,0.00305375,-0.00004674,-0.00009904,-0.00000130,0.02179071,
 -0.05582111,0.06075941,0.00022614,0.00042949,-0.00037178,-0.06153075,-
 0.00892990,0.05352388,-0.00947573,-0.00462292,0.03267318,0.00451007,0.
 00202460,-0.01526768,0.00194402,-0.00143566,0.00187727,0.00223745,0.00
 196949,-0.01001084,0.06789750,-0.00002995,-0.00018717,0.00032800,-0.00
 939570,-0.05021841,0.03834991,0.00013291,-0.00079974,-0.00028561,0.005
 87388,0.00028852,-0.02565826,0.00039421,0.00041089,-0.00150545,-0.0064
 6623,-0.00532962,0.02926288,0.01175597,0.05686622,0.00023432,-0.000261
 69,0.00022165,0.05406250,0.03710671,-0.28606491,0.00183668,0.00071502,
 -0.00344881,0.00421839,0.00012924,-0.01812826,-0.00088232,0.00017807,0
 .00044590,0.00167005,0.00251011,-0.00835259,-0.05964556,-0.03843185,0.
 31291434,-0.00000475,-0.00152539,0.00102674,-0.01037662,-0.00424556,0.
 03343188,-0.06086601,-0.00687444,0.05690716,0.00198593,0.00109632,0.00
 113935,0.00321090,0.00170524,-0.01590856,0.00112296,0.00024841,-0.0003
 8180,-0.00663680,0.00013975,0.00039186,0.06922259,-0.00072155,0.003744
 76,-0.00162490,-0.00001297,-0.00045631,-0.00065460,-0.00710011,-0.0500
 0967,0.02495499,-0.00013238,0.00008380,0.00098663,-0.00552046,-0.00565
 165,0.03046768,-0.00014182,-0.00004192,-0.00034596,0.00011588,0.000638
 69,0.00039880,0.00531436,0.05232382,0.00056587,-0.00071291,0.00292458,
 0.00115521,0.00012374,-0.00306974,0.05732095,0.02713129,-0.29156765,-0
 .00064450,-0.00026529,0.00096880,0.00209404,0.00088290,-0.01435799,0.0
 0054760,-0.00024763,0.00013903,0.00024231,-0.00049296,0.00134626,-0.06
 275981,-0.03091733,0.31692194,-0.00010736,0.00502862,-0.00075653,-0.01
 532680,-0.02469601,-0.01805647,-0.08418090,-0.07845567,-0.04998336,-0.
 00609795,0.00013501,0.00303020,0.00481501,0.00922378,0.00847754,0.0015
 7506,0.00016954,-0.00047292,0.00102056,-0.00020505,0.00051142,0.002416
 63,0.00628368,0.00302629,0.09651345,0.00267822,-0.00721551,0.00216875,
 0.00161291,0.00090308,0.00128942,-0.07899049,-0.20772239,-0.10002776,0
 .00027604,0.00078553,-0.00003775,-0.01241064,-0.01855058,-0.01692524,-
 0.00013534,0.00075289,0.00025945,-0.00030961,-0.00017705,0.00008113,0.
 00228411,0.00345237,0.00182411,0.08387949,0.22541830,-0.00085718,0.002
 35824,0.00102578,0.00297501,0.00397571,0.00188337,-0.05018190,-0.10056
 134,-0.11380986,0.00023601,-0.00019294,0.00065240,0.00509382,0.0086971
 4,0.00534807,-0.00063018,0.00008674,0.00000895,-0.00047163,0.00025946,
 0.00030308,-0.01213454,-0.02459180,-0.01416774,0.05509114,0.11092977,0
 .11813852,0.00004694,0.00067970,-0.00013238,-0.00525012,-0.00029496,0.
 00455586,-0.00040685,-0.00245073,-0.00153785,-0.28287705,-0.11104491,0
 .08440865,0.00021300,-0.00051689,0.00011347,-0.00089420,-0.00041770,-0
 .00013990,0.00027260,0.00035937,-0.00009263,0.00024777,0.00008116,-0.0
 0003770,-0.00082510,0.00012892,0.00000067,0.29230061,0.00027078,-0.000
 04994,0.00034016,-0.01864103,-0.00068696,0.00775428,0.00107592,-0.0026
 4408,-0.00271168,-0.10265416,-0.06130576,0.01482492,-0.00027655,-0.000
 46284,-0.00006833,0.00098661,-0.00026659,0.00006493,0.00097175,0.00068
 295,-0.00033363,0.00005409,-0.00000682,0.00009987,-0.00116567,0.000298
 38,0.00010324,0.11592110,0.05978031,0.00033948,0.00020858,0.00042486,-
 0.01518992,-0.00474966,0.00713063,-0.00124320,-0.00290896,-0.00178274,
 0.08090118,0.01701833,-0.07434336,0.00004307,-0.00048549,-0.00004914,-
 0.00045792,-0.00082913,-0.00007572,0.00006824,0.00110686,0.00113975,-0
 .00029666,-0.00013061,0.00022223,-0.00113078,-0.00013145,0.00023220,-0
 .08645132,-0.01840670,0.06991671,0.00033036,0.00039016,0.00036496,0.00
 539789,-0.00110959,-0.01239155,0.00215434,0.00120299,-0.00121637,-0.06
 640537,-0.00776060,0.08043925,-0.00044827,-0.00042737,-0.00033661,0.00
 013229,-0.00066679,-0.00053495,-0.00059785,-0.00251472,-0.00255844,-0.
 00003628,-0.00020322,0.00055427,0.00009386,0.00003740,0.00030432,-0.00
 208626,0.00295909,0.02365203,0.06202484,-0.00055055,-0.00046334,-0.000
 20651,0.00681299,0.00217265,-0.02109603,0.00052677,0.00056000,0.000321
 48,-0.01078072,-0.03287878,-0.03759224,0.00016011,0.00042392,0.0001766
 9,0.00028915,0.00034305,0.00105336,-0.00247192,-0.00223163,-0.00151756
 ,-0.00048416,0.00003625,0.00048008,0.00021735,-0.00012523,0.00021314,-
 0.00223085,0.00426163,0.00900224,0.00768753,0.02818520,0.00077308,0.00
 018758,0.00106059,0.00489107,0.00137088,-0.01105142,0.00095991,0.00058
 799,0.00063915,0.08507604,-0.04566223,-0.31556577,-0.00042970,-0.00091
 028,-0.00057136,0.00003804,-0.00043335,-0.00039787,-0.00123421,-0.0028
 0202,-0.00062144,-0.00092199,-0.00008564,0.00013293,-0.00004169,0.0000
 3195,0.00030983,-0.00091002,-0.00138446,-0.00254212,-0.08783823,0.0482
 7750,0.32959014,-0.51188097,-0.07630194,-0.02458397,0.00106351,-0.0009
 1760,0.00068302,0.00195881,0.00140003,0.00065531,0.00025093,-0.0015070
 4,0.00060008,-0.00866506,-0.00147512,0.00022144,-0.00028053,-0.0002589
 5,-0.00036726,-0.00026981,-0.00000014,-0.00003844,-0.00005425,-0.00026
 345,-0.00000348,-0.00054425,0.00071334,-0.00015252,-0.00069810,0.00050
 701,-0.00024028,-0.00050780,0.00085735,-0.00044595,0.51643208,-0.03798
 259,-0.03702635,-0.02226502,0.00075500,-0.00099422,-0.00056471,-0.0015
 0741,-0.00037695,0.00056832,0.00063653,-0.00059915,-0.00054521,-0.0386
 7092,-0.00834131,-0.00312039,0.00008802,0.00012374,0.00019826,0.000069
 75,-0.00003761,0.00014568,0.00000508,-0.00040001,0.00017230,0.00037866
 ,0.00057948,0.00012453,-0.00033890,0.00021317,0.00018880,0.00033404,-0
 .00010554,0.00064952,0.07626320,0.05067729,0.00390063,-0.01906298,-0.0
 1783852,0.00043998,-0.00043951,0.00042025,0.00085343,-0.00013107,0.001
 02848,-0.00032768,0.00043164,0.00040552,-0.02706714,-0.00691640,-0.003
 61729,-0.00009657,-0.00008010,-0.00020074,0.00006944,-0.00037586,-0.00
 048251,0.00017437,0.00035078,-0.00023828,-0.00013449,0.00010231,-0.000
 25756,0.00030038,-0.00024250,-0.00027231,-0.00052325,0.00081105,-0.001
 18966,0.02385328,0.02836980,0.02422413,0.00664147,-0.00051005,-0.01000
 275,0.00157456,-0.00022467,-0.00150143,0.00339057,0.00532938,-0.014158
 46,-0.00002693,-0.00025842,0.00007801,-0.07799645,-0.01445481,0.069540
 52,0.00020174,-0.00010301,0.00014245,0.00008247,0.00004153,0.00040074,
 -0.00055595,0.00251990,-0.00166727,0.00022616,-0.00028007,0.00042135,-
 0.00002940,0.00000242,0.00000606,-0.00001943,0.00001563,0.00008980,0.0
 0063944,0.00071262,-0.00098281,0.07430611,0.00587288,-0.00595664,-0.03
 849748,-0.00166508,0.00101945,0.00004681,-0.00656778,-0.00513835,0.028
 10462,0.00010537,0.00024390,-0.00010562,-0.01608028,-0.05751264,0.0479
 5885,-0.00025208,0.00008097,-0.00027185,0.00069073,0.00013886,-0.00068
 238,0.00301899,-0.00457871,0.00183125,-0.00058735,0.00066799,-0.000819
 47,0.00004759,0.00005096,0.00002121,-0.00002665,-0.00015337,0.00000389
 ,0.00144237,0.00092198,0.00039750,0.01411529,0.06966034,0.00003518,-0.
 01359279,-0.02303027,0.00078061,-0.00116188,0.00047376,0.00479202,0.00
 504030,-0.01164424,-0.00030289,0.00001101,-0.00008007,0.06673263,0.046
 24028,-0.26088619,0.00006743,-0.00012059,0.00046134,-0.00112591,0.0001
 6652,0.00036118,-0.00065358,0.00200171,0.00052863,-0.00026065,0.000987
 92,-0.00021918,-0.00006720,-0.00002336,-0.00000412,0.00013074,0.000046
 84,0.00015182,0.00105202,-0.00018340,0.00001358,-0.07262290,-0.0407961
 4,0.29379734,-0.00701565,-0.00696915,-0.00433588,0.00068396,0.00300292
 ,-0.00121206,-0.01298652,-0.00051587,0.00167431,0.00037209,0.00017349,
 0.00012317,-0.31311464,-0.02588041,0.00707613,-0.00104160,0.00000832,-
 0.00007615,0.00032013,-0.00008582,-0.00010858,0.00032386,-0.00021900,-
 0.00039377,0.00042161,0.00051573,0.00030563,-0.00001384,-0.00001135,0.
 ,-0.00003232,-0.00004870,-0.00000616,0.00255599,-0.00074307,-0.0004595
 7,-0.00843437,-0.00011400,0.00144250,0.33796130,-0.03602309,-0.0122985
 4,-0.00707316,0.00151499,-0.00412664,0.00298711,0.02879573,0.00219545,
 -0.00167057,-0.00043546,-0.00028934,-0.00052391,-0.01802592,-0.0477604
 1,0.00326881,0.00167760,-0.00024831,0.00003120,-0.00025764,-0.00004490
 ,-0.00003765,-0.00073680,0.00086540,0.00009057,-0.00020639,0.00093273,
 -0.00058242,0.00007712,0.00013559,0.00009598,0.00009772,-0.00002481,0.
 00016867,-0.00045906,-0.00463453,-0.00321466,-0.00690574,0.00055526,0.
 00138360,0.03088691,0.06474306,-0.02599835,-0.00926144,-0.00179870,-0.
 00003474,0.00186135,-0.00036418,-0.01392388,0.00003743,0.00045870,0.00
 014602,0.00002833,-0.00014075,0.01512628,0.00440005,-0.05213959,-0.000
 61216,0.00005830,0.00039131,-0.00032673,0.00007838,0.00036637,-0.00001
 442,-0.00080977,0.00021701,0.00070031,-0.00055262,0.00055215,-0.000010
 05,-0.00001674,0.00000316,-0.00004616,0.00002996,0.00005519,-0.0012332
 4,-0.00373848,-0.00199508,0.03025669,0.00280881,0.00007642,-0.00402957
 ,0.00507644,0.05431799\\0.,0.00000017,-0.00000064,-0.00000006,-0.00000
 014,0.00000002,0.00000006,0.,0.00000117,0.00000044,0.00000076,-0.00000
 145,-0.00000038,-0.00000058,0.00000054,0.00000016,0.00000016,0.0000006
 0,-0.00000090,-0.00000099,-0.00000030,0.00000087,0.00000087,0.00000146
 ,-0.00000029,-0.00000053,0.00000221,0.00000027,0.00000047,-0.00000247,
 0.00000128,0.00000154,-0.00000130,0.00000015,0.00000025,-0.00000148,-0
 .00000123,-0.00000142,0.00000014,-0.00000037,-0.00000055,0.00000151\\\
 @


 MOM AND DAD WENT TO ALPHA CENTAURI AND ALL
 I GOT WAS THIS DUMB T-SHIRT.
 Job cpu time:       0 days  4 hours 25 minutes 35.9 seconds.
 Elapsed time:       0 days  0 hours 16 minutes 36.7 seconds.
 File lengths (MBytes):  RWF=   1376 Int=      0 D2E=      0 Chk=     32 Scr=     32
 Normal termination of Gaussian 16 at Sun Mar 10 19:05:51 2019.
