 Entering Gaussian System, Link 0=g16
 Input=FBRHVBFWGRGMCF-UHFFFAOYSA-N_36by10.0_tor03_a1.com
 Output=FBRHVBFWGRGMCF-UHFFFAOYSA-N_36by10.0_tor03_a1.log
 Initial command:
 /shared/centos7/gaussian/g16/l1.exe "/scratch/underkoffler.c/gaussian_scratch/Gau-30021.inp" -scrdir="/scratch/underkoffler.c/gaussian_scratch/"
 Entering Link 1 = /shared/centos7/gaussian/g16/l1.exe PID=     30022.
  
 Copyright (c) 1988,1990,1992,1993,1995,1998,2003,2009,2016,
            Gaussian, Inc.  All Rights Reserved.
  
 This is part of the Gaussian(R) 16 program.  It is based on
 the Gaussian(R) 09 system (copyright 2009, Gaussian, Inc.),
 the Gaussian(R) 03 system (copyright 2003, Gaussian, Inc.),
 the Gaussian(R) 98 system (copyright 1998, Gaussian, Inc.),
 the Gaussian(R) 94 system (copyright 1995, Gaussian, Inc.),
 the Gaussian 92(TM) system (copyright 1992, Gaussian, Inc.),
 the Gaussian 90(TM) system (copyright 1990, Gaussian, Inc.),
 the Gaussian 88(TM) system (copyright 1988, Gaussian, Inc.),
 the Gaussian 86(TM) system (copyright 1986, Carnegie Mellon
 University), and the Gaussian 82(TM) system (copyright 1983,
 Carnegie Mellon University). Gaussian is a federally registered
 trademark of Gaussian, Inc.
  
 This software contains proprietary and confidential information,
 including trade secrets, belonging to Gaussian, Inc.
  
 This software is provided under written license and may be
 used, copied, transmitted, or stored only in accord with that
 written license.
  
 The following legend is applicable only to US Government
 contracts under FAR:
  
                    RESTRICTED RIGHTS LEGEND
  
 Use, reproduction and disclosure by the US Government is
 subject to restrictions as set forth in subparagraphs (a)
 and (c) of the Commercial Computer Software - Restricted
 Rights clause in FAR 52.227-19.
  
 Gaussian, Inc.
 340 Quinnipiac St., Bldg. 40, Wallingford CT 06492
  
  
 ---------------------------------------------------------------
 Warning -- This program may not be used in any manner that
 competes with the business of Gaussian, Inc. or will provide
 assistance to any competitor of Gaussian, Inc.  The licensee
 of this program is prohibited from giving any competitor of
 Gaussian, Inc. access to this program.  By using this program,
 the user acknowledges that Gaussian, Inc. is engaged in the
 business of creating and licensing software in the field of
 computational chemistry and represents and warrants to the
 licensee that it is not a competitor of Gaussian, Inc. and that
 it will not use this program in any manner prohibited above.
 ---------------------------------------------------------------
  

 Cite this work as:
 Gaussian 16, Revision A.03,
 M. J. Frisch, G. W. Trucks, H. B. Schlegel, G. E. Scuseria, 
 M. A. Robb, J. R. Cheeseman, G. Scalmani, V. Barone, 
 G. A. Petersson, H. Nakatsuji, X. Li, M. Caricato, A. V. Marenich, 
 J. Bloino, B. G. Janesko, R. Gomperts, B. Mennucci, H. P. Hratchian, 
 J. V. Ortiz, A. F. Izmaylov, J. L. Sonnenberg, D. Williams-Young, 
 F. Ding, F. Lipparini, F. Egidi, J. Goings, B. Peng, A. Petrone, 
 T. Henderson, D. Ranasinghe, V. G. Zakrzewski, J. Gao, N. Rega, 
 G. Zheng, W. Liang, M. Hada, M. Ehara, K. Toyota, R. Fukuda, 
 J. Hasegawa, M. Ishida, T. Nakajima, Y. Honda, O. Kitao, H. Nakai, 
 T. Vreven, K. Throssell, J. A. Montgomery, Jr., J. E. Peralta, 
 F. Ogliaro, M. J. Bearpark, J. J. Heyd, E. N. Brothers, K. N. Kudin, 
 V. N. Staroverov, T. A. Keith, R. Kobayashi, J. Normand, 
 K. Raghavachari, A. P. Rendell, J. C. Burant, S. S. Iyengar, 
 J. Tomasi, M. Cossi, J. M. Millam, M. Klene, C. Adamo, R. Cammi, 
 J. W. Ochterski, R. L. Martin, K. Morokuma, O. Farkas, 
 J. B. Foresman, and D. J. Fox, Gaussian, Inc., Wallingford CT, 2016.
 
 ******************************************
 Gaussian 16:  EM64L-G16RevA.03 25-Dec-2016
                11-Mar-2019 
 ******************************************
 %nprocshared=20
 Will use up to   20 processors via shared memory.
 %mem=5GB
 ----------------------------------------------
 #p m062x/6-311+g(2df,2p) Opt=(CalcFC,ModRedun)
 ----------------------------------------------
 1/10=4,18=120,19=15,26=3,38=1/1,3;
 2/9=110,12=2,17=6,18=5,40=1/2;
 3/5=4,6=6,7=214,11=2,25=1,30=1,71=2,74=-55,140=1/1,2,3;
 4//1;
 5/5=2,38=5/2;
 8/6=4,10=90,11=11/1;
 11/6=1,8=1,9=11,15=111,16=1/1,2,10;
 10/6=1,13=1/2;
 6/7=2,8=2,9=2,10=2,28=1/1;
 7/10=1,18=20,25=1/1,2,3,16;
 1/10=4,18=20,19=15,26=3/3(2);
 2/9=110/2;
 99//99;
 2/9=110/2;
 3/5=4,6=6,7=214,11=2,25=1,30=1,71=1,74=-55/1,2,3;
 4/5=5,16=3,69=1/1;
 5/5=2,38=5/2;
 7//1,2,3,16;
 1/18=20,19=15,26=3/3(-5);
 2/9=110/2;
 6/7=2,8=2,9=2,10=2,19=2,28=1/1;
 99/9=1/99;
 Leave Link    1 at Mon Mar 11 00:05:16 2019, MaxMem=   671088640 cpu:              30.8 elap:               1.6
 (Enter /shared/centos7/gaussian/g16/l101.exe)
 ----------------------------------------
 Gaussian Input Prepared from Scan Object
 ----------------------------------------
 Symbolic Z-matrix:
 Charge =  0 Multiplicity = 2
 O                     0.69164  -0.00305  -0.67406 
 C                    -0.39812   0.13658   0.21853 
 C                    -1.6591   -0.1129   -0.60245 
 C                     1.94273  -0.01776  -0.03352 
 C                    -0.41455   1.48145   0.86033 
 H                    -0.32198  -0.63621   0.99676 
 H                    -2.54455  -0.04754   0.02787 
 H                    -1.7334    0.63545  -1.39079 
 H                    -1.61551  -1.10091  -1.05889 
 H                     2.00091  -0.83442   0.69481 
 H                     2.69744  -0.17153  -0.80081 
 H                     2.14398   0.92453   0.48468 
 H                    -0.17899   2.34779   0.25814 
 H                    -0.84713   1.62735   1.83821 
 
 The following ModRedundant input section has been read:
 B       2       5 B                                                           
 B       1       4 B                                                           
 B       5      13 B                                                           
 B       4      12 B                                                           
 B       3       7 B                                                           
 B       4      11 B                                                           
 B       2       6 B                                                           
 B       3       9 B                                                           
 B       3       8 B                                                           
 B       1       2 B                                                           
 B       5      14 B                                                           
 B       2       3 B                                                           
 B       4      10 B                                                           
 D       2       1       4      10 S  36 10.000                                
 
 ITRead=  0  0  0  0  0  0  0  0  0  0  0  0  0  0
 MicOpt= -1 -1 -1 -1 -1 -1 -1 -1 -1 -1 -1 -1 -1 -1
 NAtoms=     14 NQM=       14 NQMF=       0 NMMI=      0 NMMIF=      0
                NMic=       0 NMicF=      0.
                    Isotopes and Nuclear Properties:
 (Nuclear quadrupole moments (NQMom) in fm**2, nuclear magnetic moments (NMagM)
  in nuclear magnetons)

  Atom         1           2           3           4           5           6           7           8           9          10
 IAtWgt=          16          12          12          12          12           1           1           1           1           1
 AtmWgt=  15.9949146  12.0000000  12.0000000  12.0000000  12.0000000   1.0078250   1.0078250   1.0078250   1.0078250   1.0078250
 NucSpn=           0           0           0           0           0           1           1           1           1           1
 AtZEff=  -0.0000000  -0.0000000  -0.0000000  -0.0000000  -0.0000000  -0.0000000  -0.0000000  -0.0000000  -0.0000000  -0.0000000
 NQMom=    0.0000000   0.0000000   0.0000000   0.0000000   0.0000000   0.0000000   0.0000000   0.0000000   0.0000000   0.0000000
 NMagM=    0.0000000   0.0000000   0.0000000   0.0000000   0.0000000   2.7928460   2.7928460   2.7928460   2.7928460   2.7928460
 AtZNuc=   8.0000000   6.0000000   6.0000000   6.0000000   6.0000000   1.0000000   1.0000000   1.0000000   1.0000000   1.0000000

  Atom        11          12          13          14
 IAtWgt=           1           1           1           1
 AtmWgt=   1.0078250   1.0078250   1.0078250   1.0078250
 NucSpn=           1           1           1           1
 AtZEff=  -0.0000000  -0.0000000  -0.0000000  -0.0000000
 NQMom=    0.0000000   0.0000000   0.0000000   0.0000000
 NMagM=    2.7928460   2.7928460   2.7928460   2.7928460
 AtZNuc=   1.0000000   1.0000000   1.0000000   1.0000000
 Leave Link  101 at Mon Mar 11 00:05:16 2019, MaxMem=   671088640 cpu:               7.1 elap:               0.4
 (Enter /shared/centos7/gaussian/g16/l103.exe)

 GradGradGradGradGradGradGradGradGradGradGradGradGradGradGradGradGradGrad
 Berny optimization.
 Initialization pass.
                           ----------------------------
                           !    Initial Parameters    !
                           ! (Angstroms and Degrees)  !
 --------------------------                            --------------------------
 ! Name  Definition              Value          Derivative Info.                !
 --------------------------------------------------------------------------------
 ! R1    R(1,2)                  1.4156         calculate D2E/DX2 analytically  !
 ! R2    R(1,4)                  1.4056         calculate D2E/DX2 analytically  !
 ! R3    R(2,3)                  1.5252         calculate D2E/DX2 analytically  !
 ! R4    R(2,5)                  1.4903         calculate D2E/DX2 analytically  !
 ! R5    R(2,6)                  1.0994         calculate D2E/DX2 analytically  !
 ! R6    R(3,7)                  1.0888         calculate D2E/DX2 analytically  !
 ! R7    R(3,8)                  1.0895         calculate D2E/DX2 analytically  !
 ! R8    R(3,9)                  1.0892         calculate D2E/DX2 analytically  !
 ! R9    R(4,10)                 1.0958         calculate D2E/DX2 analytically  !
 ! R10   R(4,11)                 1.0872         calculate D2E/DX2 analytically  !
 ! R11   R(4,12)                 1.0941         calculate D2E/DX2 analytically  !
 ! R12   R(5,13)                 1.0811         calculate D2E/DX2 analytically  !
 ! R13   R(5,14)                 1.0792         calculate D2E/DX2 analytically  !
 ! A1    A(2,1,4)              113.5099         calculate D2E/DX2 analytically  !
 ! A2    A(1,2,3)              106.316          calculate D2E/DX2 analytically  !
 ! A3    A(1,2,5)              111.6577         calculate D2E/DX2 analytically  !
 ! A4    A(1,2,6)              108.8873         calculate D2E/DX2 analytically  !
 ! A5    A(3,2,5)              111.7346         calculate D2E/DX2 analytically  !
 ! A6    A(3,2,6)              108.8635         calculate D2E/DX2 analytically  !
 ! A7    A(5,2,6)              109.284          calculate D2E/DX2 analytically  !
 ! A8    A(2,3,7)              110.5422         calculate D2E/DX2 analytically  !
 ! A9    A(2,3,8)              109.4815         calculate D2E/DX2 analytically  !
 ! A10   A(2,3,9)              109.9279         calculate D2E/DX2 analytically  !
 ! A11   A(7,3,8)              108.7953         calculate D2E/DX2 analytically  !
 ! A12   A(7,3,9)              109.2432         calculate D2E/DX2 analytically  !
 ! A13   A(8,3,9)              108.8178         calculate D2E/DX2 analytically  !
 ! A14   A(1,4,10)             110.9738         calculate D2E/DX2 analytically  !
 ! A15   A(1,4,11)             107.3225         calculate D2E/DX2 analytically  !
 ! A16   A(1,4,12)             111.7503         calculate D2E/DX2 analytically  !
 ! A17   A(10,4,11)            109.076          calculate D2E/DX2 analytically  !
 ! A18   A(10,4,12)            108.4993         calculate D2E/DX2 analytically  !
 ! A19   A(11,4,12)            109.172          calculate D2E/DX2 analytically  !
 ! A20   A(2,5,13)             118.7449         calculate D2E/DX2 analytically  !
 ! A21   A(2,5,14)             121.1084         calculate D2E/DX2 analytically  !
 ! A22   A(13,5,14)            118.9301         calculate D2E/DX2 analytically  !
 ! D1    D(4,1,2,3)           -170.2606         calculate D2E/DX2 analytically  !
 ! D2    D(4,1,2,5)             67.6398         calculate D2E/DX2 analytically  !
 ! D3    D(4,1,2,6)            -53.1182         calculate D2E/DX2 analytically  !
 ! D4    D(2,1,4,10)            58.4904         Scan                            !
 ! D5    D(2,1,4,11)           177.5817         calculate D2E/DX2 analytically  !
 ! D6    D(2,1,4,12)           -62.7609         calculate D2E/DX2 analytically  !
 ! D7    D(1,2,3,7)            178.5178         calculate D2E/DX2 analytically  !
 ! D8    D(1,2,3,8)            -61.6461         calculate D2E/DX2 analytically  !
 ! D9    D(1,2,3,9)             57.8387         calculate D2E/DX2 analytically  !
 ! D10   D(5,2,3,7)            -59.4314         calculate D2E/DX2 analytically  !
 ! D11   D(5,2,3,8)             60.4048         calculate D2E/DX2 analytically  !
 ! D12   D(5,2,3,9)            179.8896         calculate D2E/DX2 analytically  !
 ! D13   D(6,2,3,7)             61.3596         calculate D2E/DX2 analytically  !
 ! D14   D(6,2,3,8)           -178.8043         calculate D2E/DX2 analytically  !
 ! D15   D(6,2,3,9)            -59.3195         calculate D2E/DX2 analytically  !
 ! D16   D(1,2,5,13)            40.7379         calculate D2E/DX2 analytically  !
 ! D17   D(1,2,5,14)          -151.9995         calculate D2E/DX2 analytically  !
 ! D18   D(3,2,5,13)           -78.1899         calculate D2E/DX2 analytically  !
 ! D19   D(3,2,5,14)            89.0727         calculate D2E/DX2 analytically  !
 ! D20   D(6,2,5,13)           161.2643         calculate D2E/DX2 analytically  !
 ! D21   D(6,2,5,14)           -31.4731         calculate D2E/DX2 analytically  !
 --------------------------------------------------------------------------------
 Trust Radius=3.00D-01 FncErr=1.00D-07 GrdErr=1.00D-06 EigMax=2.50D+02 EigMin=1.00D-04
 Number of optimizations in scan=  37
 Number of steps in this run=     66 maximum allowed number of steps=    100.
 GradGradGradGradGradGradGradGradGradGradGradGradGradGradGradGradGradGrad

 Leave Link  103 at Mon Mar 11 00:05:16 2019, MaxMem=   671088640 cpu:               0.3 elap:               0.0
 (Enter /shared/centos7/gaussian/g16/l202.exe)
                          Input orientation:                          
 ---------------------------------------------------------------------
 Center     Atomic      Atomic             Coordinates (Angstroms)
 Number     Number       Type             X           Y           Z
 ---------------------------------------------------------------------
      1          8           0        0.691640   -0.003052   -0.674060
      2          6           0       -0.398121    0.136576    0.218525
      3          6           0       -1.659103   -0.112897   -0.602448
      4          6           0        1.942726   -0.017761   -0.033524
      5          6           0       -0.414547    1.481446    0.860327
      6          1           0       -0.321979   -0.636208    0.996765
      7          1           0       -2.544549   -0.047543    0.027875
      8          1           0       -1.733400    0.635455   -1.390785
      9          1           0       -1.615506   -1.100910   -1.058893
     10          1           0        2.000907   -0.834422    0.694812
     11          1           0        2.697443   -0.171527   -0.800809
     12          1           0        2.143977    0.924533    0.484684
     13          1           0       -0.178986    2.347790    0.258140
     14          1           0       -0.847133    1.627349    1.838213
 ---------------------------------------------------------------------
                    Distance matrix (angstroms):
                    1          2          3          4          5
     1  O    0.000000
     2  C    1.415550   0.000000
     3  C    2.354397   1.525225   0.000000
     4  C    1.405603   2.359431   3.647725   0.000000
     5  C    2.404522   1.490253   2.496109   2.933143   0.000000
     6  H    2.054255   1.099386   2.149241   2.563760   2.124063
     7  H    3.311738   2.162730   1.088849   4.487794   2.750944
     8  H    2.608103   2.149820   1.089507   3.972751   2.742732
     9  H    2.583856   2.155272   1.089225   3.858188   3.434278
    10  H    2.068614   2.631543   3.949577   1.095807   3.350382
    11  H    2.016853   3.273604   4.361454   1.087183   3.895661
    12  H    2.076628   2.674692   4.089198   1.094056   2.645242
    13  H    2.674592   2.222398   2.997722   3.191013   1.081050
    14  H    3.367126   2.246642   3.105572   3.740735   1.079203
                    6          7          8          9         10
     6  H    0.000000
     7  H    2.495013   0.000000
     8  H    3.051168   1.771171   0.000000
     9  H    2.472830   1.775884   1.771726   0.000000
    10  H    2.350801   4.661024   4.522753   4.028020   0.000000
    11  H    3.544589   5.308537   4.542208   4.419490   1.778053
    12  H    2.962951   4.809977   4.316828   4.540789   1.777229
    13  H    3.077378   3.374393   2.840290   3.961274   3.881892
    14  H    2.471338   2.993962   3.492242   4.053025   3.934337
                   11         12         13         14
    11  H    0.000000
    12  H    1.777685   0.000000
    13  H    3.967641   2.733705   0.000000
    14  H    4.771206   3.357489   1.860668   0.000000
 Stoichiometry    C4H9O(2)
 Framework group  C1[X(C4H9O)]
 Deg. of freedom    36
 Full point group                 C1      NOp   1
 Largest Abelian subgroup         C1      NOp   1
 Largest concise Abelian subgroup C1      NOp   1
                         Standard orientation:                         
 ---------------------------------------------------------------------
 Center     Atomic      Atomic             Coordinates (Angstroms)
 Number     Number       Type             X           Y           Z
 ---------------------------------------------------------------------
      1          8           0        0.658214   -0.603708   -0.316013
      2          6           0       -0.428566    0.042837    0.320125
      3          6           0       -1.673606   -0.764260   -0.033123
      4          6           0        1.913692   -0.113270    0.082694
      5          6           0       -0.551617    1.464119   -0.110767
      6          1           0       -0.277487    0.005168    1.408429
      7          1           0       -2.553687   -0.338440    0.446175
      8          1           0       -1.820890   -0.751271   -1.112550
      9          1           0       -1.551611   -1.796511    0.292433
     10          1           0        2.050006   -0.217897    1.164944
     11          1           0        2.669392   -0.703779   -0.429344
     12          1           0        2.040279    0.940492   -0.182863
     13          1           0       -0.397975    1.706558   -1.153018
     14          1           0       -0.983155    2.208788    0.540326
 ---------------------------------------------------------------------
 Rotational constants (GHZ):           8.1893530           3.9072905           2.9473903
 Leave Link  202 at Mon Mar 11 00:05:16 2019, MaxMem=   671088640 cpu:               0.2 elap:               0.0
 (Enter /shared/centos7/gaussian/g16/l301.exe)
 Standard basis: 6-311+G(2df,2p) (5D, 7F)
 Ernie: Thresh=  0.10000D-02 Tol=  0.10000D-05 Strict=F.
 There are   276 symmetry adapted cartesian basis functions of A   symmetry.
 There are   251 symmetry adapted basis functions of A   symmetry.
   251 basis functions,   359 primitive gaussians,   276 cartesian basis functions
    21 alpha electrons       20 beta electrons
       nuclear repulsion energy       187.9783400191 Hartrees.
 IExCor= 4336 DFT=T Ex+Corr=M062X ExCW=0 ScaHFX=  0.540000
 ScaDFX=  1.000000  1.000000  1.000000  1.000000 ScalE2=  1.000000  1.000000
 IRadAn=      5 IRanWt=     -1 IRanGd=            0 ICorTp=0 IEmpDi=  4
 NAtoms=   14 NActive=   14 NUniq=   14 SFac= 1.00D+00 NAtFMM=   60 NAOKFM=F Big=F
 Integral buffers will be    131072 words long.
 Raffenetti 2 integral format.
 Two-electron integral symmetry is turned on.
 Leave Link  301 at Mon Mar 11 00:05:16 2019, MaxMem=   671088640 cpu:               1.2 elap:               0.1
 (Enter /shared/centos7/gaussian/g16/l302.exe)
 NPDir=0 NMtPBC=     1 NCelOv=     1 NCel=       1 NClECP=     1 NCelD=      1
         NCelK=      1 NCelE2=     1 NClLst=     1 CellRange=     0.0.
 One-electron integrals computed using PRISM.
 One-electron integral symmetry used in STVInt
 NBasis=   251 RedAO= T EigKep=  4.74D-05  NBF=   251
 NBsUse=   251 1.00D-06 EigRej= -1.00D+00 NBFU=   251
 Precomputing XC quadrature grid using
 IXCGrd= 4 IRadAn=           5 IRanWt=          -1 IRanGd=           0 AccXCQ= 0.00D+00.
 Generated NRdTot=       0 NPtTot=           0 NUsed=           0 NTot=          32
 NSgBfM=   276   276   276   276   276 MxSgAt=    14 MxSgA2=    14.
 Leave Link  302 at Mon Mar 11 00:05:17 2019, MaxMem=   671088640 cpu:               6.6 elap:               0.4
 (Enter /shared/centos7/gaussian/g16/l303.exe)
 DipDrv:  MaxL=1.
 Leave Link  303 at Mon Mar 11 00:05:17 2019, MaxMem=   671088640 cpu:               1.5 elap:               0.1
 (Enter /shared/centos7/gaussian/g16/l401.exe)
 ExpMin= 4.38D-02 ExpMax= 8.59D+03 ExpMxC= 1.30D+03 IAcc=3 IRadAn=         5 AccDes= 0.00D+00
 Harris functional with IExCor= 1009 and IRadAn=       5 diagonalized for initial guess.
 HarFok:  IExCor= 1009 AccDes= 0.00D+00 IRadAn=         5 IDoV= 1 UseB2=F ITyADJ=14
 ICtDFT=  3500011 ScaDFX=  1.000000  1.000000  1.000000  1.000000
 FoFCou: FMM=F IPFlag=           0 FMFlag=      100000 FMFlg1=           0
         NFxFlg=           0 DoJE=T BraDBF=F KetDBF=T FulRan=T
         wScrn=  0.000000 ICntrl=       500 IOpCl=  0 I1Cent=   200000004 NGrid=           0
         NMat0=    1 NMatS0=      1 NMatT0=    0 NMatD0=    1 NMtDS0=    0 NMtDT0=    0
 Petite list used in FoFCou.
 Harris En= -232.868439862088    
 JPrj=0 DoOrth=F DoCkMO=F.
 Initial guess <Sx>= 0.0000 <Sy>= 0.0000 <Sz>= 0.5000 <S**2>= 0.7500 S= 0.5000
 Leave Link  401 at Mon Mar 11 00:05:18 2019, MaxMem=   671088640 cpu:              30.8 elap:               1.6
 (Enter /shared/centos7/gaussian/g16/l502.exe)
 Integral symmetry usage will be decided dynamically.
 UHF open shell SCF:
 Using DIIS extrapolation, IDIIS=  1040.
 NGot=   671088640 LenX=   670928170 LenY=   670851553
 Requested convergence on RMS density matrix=1.00D-08 within 128 cycles.
 Requested convergence on MAX density matrix=1.00D-06.
 Requested convergence on             energy=1.00D-06.
 No special actions if energy rises.
 Fock matrices will be formed incrementally for  20 cycles.

 Cycle   1  Pass 1  IDiag  1:
 FoFJK:  IHMeth= 1 ICntrl=       0 DoSepK=F KAlg= 0 I1Cent=           0 FoldK=F
 IRaf= 980000000 NMat=       1 IRICut=       1 DoRegI=T DoRafI=F ISym2E= 0 IDoP0=0 IntGTp=1.
 FoFCou: FMM=F IPFlag=           0 FMFlag=      100000 FMFlg1=           0
         NFxFlg=           0 DoJE=F BraDBF=F KetDBF=F FulRan=T
         wScrn=  0.000000 ICntrl=         0 IOpCl=  1 I1Cent=           0 NGrid=           0
         NMat0=    1 NMatS0=      1 NMatT0=    0 NMatD0=    1 NMtDS0=    0 NMtDT0=    0
 Symmetry not used in FoFCou.
 E= -232.785422882125    
 DIIS: error= 2.29D-02 at cycle   1 NSaved=   1.
 NSaved= 1 IEnMin= 1 EnMin= -232.785422882125     IErMin= 1 ErrMin= 2.29D-02
 ErrMax= 2.29D-02  0.00D+00 EMaxC= 1.00D-01 BMatC= 7.95D-01 BMatP= 7.95D-01
 IDIUse=3 WtCom= 7.71D-01 WtEn= 2.29D-01
 Coeff-Com:  0.100D+01
 Coeff-En:   0.100D+01
 Coeff:      0.100D+01
 Gap=     0.275 Goal=   None    Shift=    0.000
 Gap=     0.322 Goal=   None    Shift=    0.000
 GapD=    0.275 DampG=1.000 DampE=0.500 DampFc=0.5000 IDamp=-1.
 Damping current iteration by 5.00D-01
 RMSDP=2.50D-03 MaxDP=1.12D-01              OVMax= 1.47D-01

 Cycle   2  Pass 1  IDiag  1:
 RMSU=  1.24D-03    CP:  9.81D-01
 E= -232.873288482643     Delta-E=       -0.087865600518 Rises=F Damp=T
 DIIS: error= 5.52D-03 at cycle   2 NSaved=   2.
 NSaved= 2 IEnMin= 2 EnMin= -232.873288482643     IErMin= 2 ErrMin= 5.52D-03
 ErrMax= 5.52D-03  0.00D+00 EMaxC= 1.00D-01 BMatC= 5.83D-02 BMatP= 7.95D-01
 IDIUse=3 WtCom= 9.45D-01 WtEn= 5.52D-02
 Coeff-Com: -0.155D+00 0.115D+01
 Coeff-En:   0.000D+00 0.100D+01
 Coeff:     -0.146D+00 0.115D+01
 Gap=     0.294 Goal=   None    Shift=    0.000
 Gap=     0.328 Goal=   None    Shift=    0.000
 RMSDP=1.02D-03 MaxDP=5.97D-02 DE=-8.79D-02 OVMax= 7.27D-02

 Cycle   3  Pass 1  IDiag  1:
 RMSU=  9.99D-04    CP:  9.65D-01  9.10D-01
 E= -232.952326934652     Delta-E=       -0.079038452009 Rises=F Damp=F
 DIIS: error= 3.33D-03 at cycle   3 NSaved=   3.
 NSaved= 3 IEnMin= 3 EnMin= -232.952326934652     IErMin= 3 ErrMin= 3.33D-03
 ErrMax= 3.33D-03  0.00D+00 EMaxC= 1.00D-01 BMatC= 1.10D-02 BMatP= 5.83D-02
 IDIUse=3 WtCom= 9.67D-01 WtEn= 3.33D-02
 Coeff-Com: -0.906D-01 0.329D+00 0.762D+00
 Coeff-En:   0.000D+00 0.000D+00 0.100D+01
 Coeff:     -0.876D-01 0.318D+00 0.770D+00
 Gap=     0.293 Goal=   None    Shift=    0.000
 Gap=     0.292 Goal=   None    Shift=    0.000
 RMSDP=2.08D-04 MaxDP=1.02D-02 DE=-7.90D-02 OVMax= 1.56D-02

 Cycle   4  Pass 1  IDiag  1:
 RMSU=  1.88D-04    CP:  9.62D-01  9.78D-01  9.99D-01
 E= -232.953941383556     Delta-E=       -0.001614448904 Rises=F Damp=F
 DIIS: error= 1.50D-03 at cycle   4 NSaved=   4.
 NSaved= 4 IEnMin= 4 EnMin= -232.953941383556     IErMin= 4 ErrMin= 1.50D-03
 ErrMax= 1.50D-03  0.00D+00 EMaxC= 1.00D-01 BMatC= 3.70D-03 BMatP= 1.10D-02
 IDIUse=3 WtCom= 9.85D-01 WtEn= 1.50D-02
 Coeff-Com: -0.315D-01 0.733D-01 0.399D+00 0.559D+00
 Coeff-En:   0.000D+00 0.000D+00 0.159D+00 0.841D+00
 Coeff:     -0.310D-01 0.722D-01 0.395D+00 0.564D+00
 Gap=     0.291 Goal=   None    Shift=    0.000
 Gap=     0.301 Goal=   None    Shift=    0.000
 RMSDP=7.89D-05 MaxDP=4.46D-03 DE=-1.61D-03 OVMax= 6.93D-03

 Cycle   5  Pass 1  IDiag  1:
 RMSU=  5.88D-05    CP:  9.61D-01  9.64D-01  1.02D+00  7.57D-01
 E= -232.954617042942     Delta-E=       -0.000675659386 Rises=F Damp=F
 DIIS: error= 3.08D-04 at cycle   5 NSaved=   5.
 NSaved= 5 IEnMin= 5 EnMin= -232.954617042942     IErMin= 5 ErrMin= 3.08D-04
 ErrMax= 3.08D-04  0.00D+00 EMaxC= 1.00D-01 BMatC= 9.28D-05 BMatP= 3.70D-03
 IDIUse=3 WtCom= 9.97D-01 WtEn= 3.08D-03
 Coeff-Com:  0.501D-03-0.891D-02 0.271D-01 0.125D+00 0.856D+00
 Coeff-En:   0.000D+00 0.000D+00 0.000D+00 0.000D+00 0.100D+01
 Coeff:      0.500D-03-0.888D-02 0.270D-01 0.125D+00 0.856D+00
 Gap=     0.292 Goal=   None    Shift=    0.000
 Gap=     0.301 Goal=   None    Shift=    0.000
 RMSDP=2.99D-05 MaxDP=1.76D-03 DE=-6.76D-04 OVMax= 2.03D-03

 Cycle   6  Pass 1  IDiag  1:
 RMSU=  2.47D-05    CP:  9.61D-01  9.60D-01  1.02D+00  8.23D-01  1.17D+00
 E= -232.954649258279     Delta-E=       -0.000032215337 Rises=F Damp=F
 DIIS: error= 1.39D-04 at cycle   6 NSaved=   6.
 NSaved= 6 IEnMin= 6 EnMin= -232.954649258279     IErMin= 6 ErrMin= 1.39D-04
 ErrMax= 1.39D-04  0.00D+00 EMaxC= 1.00D-01 BMatC= 1.57D-05 BMatP= 9.28D-05
 IDIUse=3 WtCom= 9.99D-01 WtEn= 1.39D-03
 Coeff-Com:  0.459D-02-0.123D-01-0.528D-01-0.521D-01 0.180D+00 0.932D+00
 Coeff-En:   0.000D+00 0.000D+00 0.000D+00 0.000D+00 0.000D+00 0.100D+01
 Coeff:      0.458D-02-0.123D-01-0.527D-01-0.521D-01 0.180D+00 0.932D+00
 Gap=     0.292 Goal=   None    Shift=    0.000
 Gap=     0.302 Goal=   None    Shift=    0.000
 RMSDP=1.67D-05 MaxDP=1.22D-03 DE=-3.22D-05 OVMax= 1.28D-03

 Cycle   7  Pass 1  IDiag  1:
 RMSU=  9.06D-06    CP:  9.61D-01  9.59D-01  1.02D+00  8.60D-01  1.34D+00
                    CP:  1.26D+00
 E= -232.954656508219     Delta-E=       -0.000007249940 Rises=F Damp=F
 DIIS: error= 5.58D-05 at cycle   7 NSaved=   7.
 NSaved= 7 IEnMin= 7 EnMin= -232.954656508219     IErMin= 7 ErrMin= 5.58D-05
 ErrMax= 5.58D-05  0.00D+00 EMaxC= 1.00D-01 BMatC= 3.45D-06 BMatP= 1.57D-05
 IDIUse=1 WtCom= 1.00D+00 WtEn= 0.00D+00
 Coeff-Com:  0.132D-02-0.231D-02-0.243D-01-0.430D-01-0.964D-01 0.356D+00
 Coeff-Com:  0.809D+00
 Coeff:      0.132D-02-0.231D-02-0.243D-01-0.430D-01-0.964D-01 0.356D+00
 Coeff:      0.809D+00
 Gap=     0.292 Goal=   None    Shift=    0.000
 Gap=     0.302 Goal=   None    Shift=    0.000
 RMSDP=5.86D-06 MaxDP=3.61D-04 DE=-7.25D-06 OVMax= 4.99D-04

 Cycle   8  Pass 1  IDiag  1:
 RMSU=  3.40D-06    CP:  9.61D-01  9.58D-01  1.02D+00  8.67D-01  1.38D+00
                    CP:  1.41D+00  1.10D+00
 E= -232.954657767240     Delta-E=       -0.000001259022 Rises=F Damp=F
 DIIS: error= 1.09D-05 at cycle   8 NSaved=   8.
 NSaved= 8 IEnMin= 8 EnMin= -232.954657767240     IErMin= 8 ErrMin= 1.09D-05
 ErrMax= 1.09D-05  0.00D+00 EMaxC= 1.00D-01 BMatC= 1.10D-07 BMatP= 3.45D-06
 IDIUse=1 WtCom= 1.00D+00 WtEn= 0.00D+00
 Coeff-Com: -0.364D-03 0.923D-03 0.277D-02 0.719D-03-0.177D-01-0.494D-01
 Coeff-Com:  0.414D-01 0.102D+01
 Coeff:     -0.364D-03 0.923D-03 0.277D-02 0.719D-03-0.177D-01-0.494D-01
 Coeff:      0.414D-01 0.102D+01
 Gap=     0.292 Goal=   None    Shift=    0.000
 Gap=     0.302 Goal=   None    Shift=    0.000
 RMSDP=1.98D-06 MaxDP=1.30D-04 DE=-1.26D-06 OVMax= 1.13D-04

 Cycle   9  Pass 1  IDiag  1:
 RMSU=  1.03D-06    CP:  9.61D-01  9.58D-01  1.02D+00  8.67D-01  1.38D+00
                    CP:  1.44D+00  1.23D+00  1.23D+00
 E= -232.954657821097     Delta-E=       -0.000000053856 Rises=F Damp=F
 DIIS: error= 3.20D-06 at cycle   9 NSaved=   9.
 NSaved= 9 IEnMin= 9 EnMin= -232.954657821097     IErMin= 9 ErrMin= 3.20D-06
 ErrMax= 3.20D-06  0.00D+00 EMaxC= 1.00D-01 BMatC= 1.45D-08 BMatP= 1.10D-07
 IDIUse=1 WtCom= 1.00D+00 WtEn= 0.00D+00
 Coeff-Com: -0.205D-03 0.441D-03 0.286D-02 0.387D-02 0.451D-02-0.429D-01
 Coeff-Com: -0.640D-01 0.253D+00 0.842D+00
 Coeff:     -0.205D-03 0.441D-03 0.286D-02 0.387D-02 0.451D-02-0.429D-01
 Coeff:     -0.640D-01 0.253D+00 0.842D+00
 Gap=     0.292 Goal=   None    Shift=    0.000
 Gap=     0.302 Goal=   None    Shift=    0.000
 RMSDP=4.59D-07 MaxDP=2.26D-05 DE=-5.39D-08 OVMax= 3.79D-05

 Cycle  10  Pass 1  IDiag  1:
 RMSU=  2.70D-07    CP:  9.61D-01  9.59D-01  1.02D+00  8.67D-01  1.39D+00
                    CP:  1.45D+00  1.25D+00  1.30D+00  1.06D+00
 E= -232.954657826500     Delta-E=       -0.000000005403 Rises=F Damp=F
 DIIS: error= 1.19D-06 at cycle  10 NSaved=  10.
 NSaved=10 IEnMin=10 EnMin= -232.954657826500     IErMin=10 ErrMin= 1.19D-06
 ErrMax= 1.19D-06  0.00D+00 EMaxC= 1.00D-01 BMatC= 1.46D-09 BMatP= 1.45D-08
 IDIUse=1 WtCom= 1.00D+00 WtEn= 0.00D+00
 Coeff-Com: -0.121D-04 0.213D-04 0.470D-03 0.874D-03 0.244D-02-0.615D-02
 Coeff-Com: -0.192D-01-0.261D-01 0.207D+00 0.841D+00
 Coeff:     -0.121D-04 0.213D-04 0.470D-03 0.874D-03 0.244D-02-0.615D-02
 Coeff:     -0.192D-01-0.261D-01 0.207D+00 0.841D+00
 Gap=     0.292 Goal=   None    Shift=    0.000
 Gap=     0.302 Goal=   None    Shift=    0.000
 RMSDP=1.55D-07 MaxDP=6.36D-06 DE=-5.40D-09 OVMax= 1.11D-05

 Cycle  11  Pass 1  IDiag  1:
 RMSU=  1.10D-07    CP:  9.61D-01  9.58D-01  1.02D+00  8.67D-01  1.39D+00
                    CP:  1.44D+00  1.25D+00  1.32D+00  1.12D+00  1.15D+00
 E= -232.954657827057     Delta-E=       -0.000000000557 Rises=F Damp=F
 DIIS: error= 6.17D-07 at cycle  11 NSaved=  11.
 NSaved=11 IEnMin=11 EnMin= -232.954657827057     IErMin=11 ErrMin= 6.17D-07
 ErrMax= 6.17D-07  0.00D+00 EMaxC= 1.00D-01 BMatC= 1.46D-10 BMatP= 1.46D-09
 IDIUse=1 WtCom= 1.00D+00 WtEn= 0.00D+00
 Coeff-Com:  0.215D-04-0.465D-04-0.209D-03-0.213D-03-0.329D-04 0.346D-02
 Coeff-Com:  0.271D-02-0.341D-01-0.487D-01 0.197D+00 0.880D+00
 Coeff:      0.215D-04-0.465D-04-0.209D-03-0.213D-03-0.329D-04 0.346D-02
 Coeff:      0.271D-02-0.341D-01-0.487D-01 0.197D+00 0.880D+00
 Gap=     0.292 Goal=   None    Shift=    0.000
 Gap=     0.302 Goal=   None    Shift=    0.000
 RMSDP=5.00D-08 MaxDP=2.60D-06 DE=-5.57D-10 OVMax= 5.36D-06

 Cycle  12  Pass 1  IDiag  1:
 RMSU=  3.17D-08    CP:  9.61D-01  9.58D-01  1.02D+00  8.67D-01  1.39D+00
                    CP:  1.44D+00  1.25D+00  1.32D+00  1.15D+00  1.24D+00
                    CP:  1.09D+00
 E= -232.954657827129     Delta-E=       -0.000000000072 Rises=F Damp=F
 DIIS: error= 1.94D-07 at cycle  12 NSaved=  12.
 NSaved=12 IEnMin=12 EnMin= -232.954657827129     IErMin=12 ErrMin= 1.94D-07
 ErrMax= 1.94D-07  0.00D+00 EMaxC= 1.00D-01 BMatC= 8.96D-12 BMatP= 1.46D-10
 IDIUse=1 WtCom= 1.00D+00 WtEn= 0.00D+00
 Coeff-Com:  0.110D-05-0.277D-05-0.391D-04-0.612D-04-0.175D-03 0.579D-03
 Coeff-Com:  0.140D-02 0.148D-02-0.188D-01-0.644D-01 0.217D-01 0.106D+01
 Coeff:      0.110D-05-0.277D-05-0.391D-04-0.612D-04-0.175D-03 0.579D-03
 Coeff:      0.140D-02 0.148D-02-0.188D-01-0.644D-01 0.217D-01 0.106D+01
 Gap=     0.292 Goal=   None    Shift=    0.000
 Gap=     0.302 Goal=   None    Shift=    0.000
 RMSDP=1.99D-08 MaxDP=1.03D-06 DE=-7.22D-11 OVMax= 1.88D-06

 Cycle  13  Pass 1  IDiag  1:
 RMSU=  8.78D-09    CP:  9.61D-01  9.58D-01  1.02D+00  8.67D-01  1.39D+00
                    CP:  1.44D+00  1.25D+00  1.32D+00  1.15D+00  1.25D+00
                    CP:  1.18D+00  1.29D+00
 E= -232.954657827142     Delta-E=       -0.000000000013 Rises=F Damp=F
 DIIS: error= 5.33D-08 at cycle  13 NSaved=  13.
 NSaved=13 IEnMin=13 EnMin= -232.954657827142     IErMin=13 ErrMin= 5.33D-08
 ErrMax= 5.33D-08  0.00D+00 EMaxC= 1.00D-01 BMatC= 8.49D-13 BMatP= 8.96D-12
 IDIUse=1 WtCom= 1.00D+00 WtEn= 0.00D+00
 Coeff-Com: -0.185D-05 0.390D-05 0.160D-04 0.156D-04 0.153D-05-0.277D-03
 Coeff-Com: -0.174D-03 0.311D-02 0.288D-02-0.211D-01-0.760D-01 0.740D-01
 Coeff-Com:  0.102D+01
 Coeff:     -0.185D-05 0.390D-05 0.160D-04 0.156D-04 0.153D-05-0.277D-03
 Coeff:     -0.174D-03 0.311D-02 0.288D-02-0.211D-01-0.760D-01 0.740D-01
 Coeff:      0.102D+01
 Gap=     0.292 Goal=   None    Shift=    0.000
 Gap=     0.302 Goal=   None    Shift=    0.000
 RMSDP=6.60D-09 MaxDP=4.76D-07 DE=-1.26D-11 OVMax= 5.69D-07

 SCF Done:  E(UM062X) =  -232.954657827     A.U. after   13 cycles
            NFock= 13  Conv=0.66D-08     -V/T= 2.0039
 <Sx>= 0.0000 <Sy>= 0.0000 <Sz>= 0.5000 <S**2>= 0.7552 S= 0.5026
 <L.S>= 0.000000000000E+00
 KE= 2.320530371761D+02 PE=-9.188883476420D+02 EE= 2.659023126198D+02
 Annihilation of the first spin contaminant:
 S**2 before annihilation     0.7552,   after     0.7500
 Leave Link  502 at Mon Mar 11 00:06:33 2019, MaxMem=   671088640 cpu:            1481.7 elap:              74.1
 (Enter /shared/centos7/gaussian/g16/l801.exe)
 DoSCS=F DFT=T ScalE2(SS,OS)=  1.000000  1.000000
 Range of M.O.s used for correlation:     1   251
 NBasis=   251 NAE=    21 NBE=    20 NFC=     0 NFV=     0
 NROrb=    251 NOA=    21 NOB=    20 NVA=   230 NVB=   231

 **** Warning!!: The largest alpha MO coefficient is  0.40483218D+02


 **** Warning!!: The largest beta MO coefficient is  0.40225892D+02

 Leave Link  801 at Mon Mar 11 00:06:33 2019, MaxMem=   671088640 cpu:               0.5 elap:               0.1
 (Enter /shared/centos7/gaussian/g16/l1101.exe)
 Using compressed storage, NAtomX=    14.
 Will process     15 centers per pass.
 Leave Link 1101 at Mon Mar 11 00:06:33 2019, MaxMem=   671088640 cpu:               9.5 elap:               0.5
 (Enter /shared/centos7/gaussian/g16/l1102.exe)
 Symmetrizing basis deriv contribution to polar:
 IMax=3 JMax=2 DiffMx= 0.00D+00
 Leave Link 1102 at Mon Mar 11 00:06:33 2019, MaxMem=   671088640 cpu:               0.8 elap:               0.1
 (Enter /shared/centos7/gaussian/g16/l1110.exe)
 Forming Gx(P) for the SCF density, NAtomX=    14.
 Integral derivatives from FoFJK, PRISM(SPDF).
 Do as many integral derivatives as possible in FoFJK.
 G2DrvN: MDV=     671087496.
 G2DrvN: will do    15 centers at a time, making    1 passes.
 Calling FoFCou, ICntrl=  3107 FMM=F I1Cent=   0 AccDes= 0.00D+00.
 FoFJK:  IHMeth= 1 ICntrl=    3107 DoSepK=F KAlg= 0 I1Cent=           0 FoldK=F
 IRaf=         0 NMat=       1 IRICut=       1 DoRegI=T DoRafI=F ISym2E= 0 IDoP0=0 IntGTp=1.
 FoFCou: FMM=F IPFlag=           0 FMFlag=      100000 FMFlg1=           0
         NFxFlg=           0 DoJE=F BraDBF=F KetDBF=F FulRan=T
         wScrn=  0.000000 ICntrl=      3107 IOpCl=  1 I1Cent=           0 NGrid=           0
         NMat0=    1 NMatS0=      1 NMatT0=    0 NMatD0=    1 NMtDS0=    0 NMtDT0=    0
 Symmetry not used in FoFCou.
 End of G2Drv F.D. properties file   721 does not exist.
 End of G2Drv F.D. properties file   722 does not exist.
 End of G2Drv F.D. properties file   788 does not exist.
 Leave Link 1110 at Mon Mar 11 00:09:01 2019, MaxMem=   671088640 cpu:            2947.3 elap:             147.4
 (Enter /shared/centos7/gaussian/g16/l1002.exe)
 Minotr:  UHF open shell wavefunction.
          IDoAtm=11111111111111
          Direct CPHF calculation.
          Differentiating once with respect to nuclear coordinates.
          Requested convergence is 1.0D-08 RMS, and 1.0D-07 maximum.
          Secondary convergence is 1.0D-12 RMS, and 1.0D-12 maximum.
          NewPWx=T KeepS1=F KeepF1=F KeepIn=T MapXYZ=F SortEE=F KeepMc=T.
         4257 words used for storage of precomputed grid.
 Two-electron integrals replicated using symmetry.
          MDV=     671088640 using IRadAn=       1.
          Solving linear equations simultaneously, MaxMat=     380.
 FoF2E skips out because all densities are zero.
 CalDSu exits because no D1Ps are significant.
 FoFJK:  IHMeth= 1 ICntrl=       0 DoSepK=F KAlg= 0 I1Cent=           0 FoldK=F
 IRaf= 980000000 NMat=      42 IRICut=     105 DoRegI=T DoRafI=T ISym2E= 2 IDoP0=3 IntGTp=3.
 FoFCou: FMM=F IPFlag=           0 FMFlag=      100000 FMFlg1=           0
         NFxFlg=           0 DoJE=F BraDBF=F KetDBF=F FulRan=T
         wScrn=  0.000000 ICntrl=         0 IOpCl=  1 I1Cent=           0 NGrid=           0
         NMat0=   42 NMatS0=     42 NMatT0=    0 NMatD0=   42 NMtDS0=    0 NMtDT0=    0
 Integrals replicated using symmetry in FoFCou.
 Raff kept on since  96.31% of shell-pairs survive, threshold=   0.20 IRatSp=96.
          There are    45 degrees of freedom in the 1st order CPHF.  IDoFFX=6 NUNeed=     0.
     39 vectors produced by pass  0 Test12= 2.10D-14 2.22D-09 XBig12= 1.36D-01 7.89D-02.
 AX will form    39 AO Fock derivatives at one time.
     39 vectors produced by pass  1 Test12= 2.10D-14 2.22D-09 XBig12= 6.69D-03 1.80D-02.
     39 vectors produced by pass  2 Test12= 2.10D-14 2.22D-09 XBig12= 1.79D-04 1.99D-03.
     39 vectors produced by pass  3 Test12= 2.10D-14 2.22D-09 XBig12= 2.44D-06 2.09D-04.
     39 vectors produced by pass  4 Test12= 2.10D-14 2.22D-09 XBig12= 2.80D-08 2.03D-05.
     39 vectors produced by pass  5 Test12= 2.10D-14 2.22D-09 XBig12= 3.08D-10 2.00D-06.
     38 vectors produced by pass  6 Test12= 2.10D-14 2.22D-09 XBig12= 2.58D-12 1.43D-07.
     14 vectors produced by pass  7 Test12= 2.10D-14 2.22D-09 XBig12= 1.67D-14 1.17D-08.
 InvSVY:  IOpt=1 It=  1 EMax= 2.00D-15
 Solved reduced A of dimension   286 with    39 vectors.
 End of Minotr F.D. properties file   721 does not exist.
 End of Minotr F.D. properties file   722 does not exist.
 End of Minotr F.D. properties file   788 does not exist.
 Leave Link 1002 at Mon Mar 11 00:13:01 2019, MaxMem=   671088640 cpu:            4809.2 elap:             240.5
 (Enter /shared/centos7/gaussian/g16/l601.exe)
 Copying SCF densities to generalized density rwf, IOpCl= 1 IROHF=0.

 **********************************************************************

            Population analysis using the SCF density.

 **********************************************************************

 Orbital symmetries:
 Alpha Orbitals:
       Occupied  (A) (A) (A) (A) (A) (A) (A) (A) (A) (A) (A) (A)
                 (A) (A) (A) (A) (A) (A) (A) (A) (A)
       Virtual   (A) (A) (A) (A) (A) (A) (A) (A) (A) (A) (A) (A)
                 (A) (A) (A) (A) (A) (A) (A) (A) (A) (A) (A) (A)
                 (A) (A) (A) (A) (A) (A) (A) (A) (A) (A) (A) (A)
                 (A) (A) (A) (A) (A) (A) (A) (A) (A) (A) (A) (A)
                 (A) (A) (A) (A) (A) (A) (A) (A) (A) (A) (A) (A)
                 (A) (A) (A) (A) (A) (A) (A) (A) (A) (A) (A) (A)
                 (A) (A) (A) (A) (A) (A) (A) (A) (A) (A) (A) (A)
                 (A) (A) (A) (A) (A) (A) (A) (A) (A) (A) (A) (A)
                 (A) (A) (A) (A) (A) (A) (A) (A) (A) (A) (A) (A)
                 (A) (A) (A) (A) (A) (A) (A) (A) (A) (A) (A) (A)
                 (A) (A) (A) (A) (A) (A) (A) (A) (A) (A) (A) (A)
                 (A) (A) (A) (A) (A) (A) (A) (A) (A) (A) (A) (A)
                 (A) (A) (A) (A) (A) (A) (A) (A) (A) (A) (A) (A)
                 (A) (A) (A) (A) (A) (A) (A) (A) (A) (A) (A) (A)
                 (A) (A) (A) (A) (A) (A) (A) (A) (A) (A) (A) (A)
                 (A) (A) (A) (A) (A) (A) (A) (A) (A) (A) (A) (A)
                 (A) (A) (A) (A) (A) (A) (A) (A) (A) (A) (A) (A)
                 (A) (A) (A) (A) (A) (A) (A) (A) (A) (A) (A) (A)
                 (A) (A) (A) (A) (A) (A) (A) (A) (A) (A) (A) (A)
                 (A) (A)
 Beta  Orbitals:
       Occupied  (A) (A) (A) (A) (A) (A) (A) (A) (A) (A) (A) (A)
                 (A) (A) (A) (A) (A) (A) (A) (A)
       Virtual   (A) (A) (A) (A) (A) (A) (A) (A) (A) (A) (A) (A)
                 (A) (A) (A) (A) (A) (A) (A) (A) (A) (A) (A) (A)
                 (A) (A) (A) (A) (A) (A) (A) (A) (A) (A) (A) (A)
                 (A) (A) (A) (A) (A) (A) (A) (A) (A) (A) (A) (A)
                 (A) (A) (A) (A) (A) (A) (A) (A) (A) (A) (A) (A)
                 (A) (A) (A) (A) (A) (A) (A) (A) (A) (A) (A) (A)
                 (A) (A) (A) (A) (A) (A) (A) (A) (A) (A) (A) (A)
                 (A) (A) (A) (A) (A) (A) (A) (A) (A) (A) (A) (A)
                 (A) (A) (A) (A) (A) (A) (A) (A) (A) (A) (A) (A)
                 (A) (A) (A) (A) (A) (A) (A) (A) (A) (A) (A) (A)
                 (A) (A) (A) (A) (A) (A) (A) (A) (A) (A) (A) (A)
                 (A) (A) (A) (A) (A) (A) (A) (A) (A) (A) (A) (A)
                 (A) (A) (A) (A) (A) (A) (A) (A) (A) (A) (A) (A)
                 (A) (A) (A) (A) (A) (A) (A) (A) (A) (A) (A) (A)
                 (A) (A) (A) (A) (A) (A) (A) (A) (A) (A) (A) (A)
                 (A) (A) (A) (A) (A) (A) (A) (A) (A) (A) (A) (A)
                 (A) (A) (A) (A) (A) (A) (A) (A) (A) (A) (A) (A)
                 (A) (A) (A) (A) (A) (A) (A) (A) (A) (A) (A) (A)
                 (A) (A) (A) (A) (A) (A) (A) (A) (A) (A) (A) (A)
                 (A) (A) (A)
 The electronic state is 2-A.
 Alpha  occ. eigenvalues --  -19.62176 -10.59114 -10.57153 -10.54415 -10.52443
 Alpha  occ. eigenvalues --   -1.16013  -0.88640  -0.78320  -0.76536  -0.66330
 Alpha  occ. eigenvalues --   -0.57858  -0.54384  -0.53342  -0.49522  -0.47818
 Alpha  occ. eigenvalues --   -0.45384  -0.43469  -0.41970  -0.38757  -0.33523
 Alpha  occ. eigenvalues --   -0.27142
 Alpha virt. eigenvalues --    0.02099   0.03269   0.03742   0.04112   0.05571
 Alpha virt. eigenvalues --    0.06798   0.06983   0.07682   0.07958   0.10004
 Alpha virt. eigenvalues --    0.10649   0.11844   0.12537   0.13499   0.14720
 Alpha virt. eigenvalues --    0.15628   0.19810   0.20612   0.21197   0.21856
 Alpha virt. eigenvalues --    0.23599   0.23969   0.24394   0.25779   0.26893
 Alpha virt. eigenvalues --    0.27753   0.28610   0.30649   0.31066   0.31762
 Alpha virt. eigenvalues --    0.34707   0.35549   0.38577   0.42268   0.43981
 Alpha virt. eigenvalues --    0.44332   0.45596   0.49262   0.50574   0.52205
 Alpha virt. eigenvalues --    0.53843   0.54709   0.55985   0.56564   0.57406
 Alpha virt. eigenvalues --    0.57960   0.58841   0.60861   0.62564   0.63173
 Alpha virt. eigenvalues --    0.64488   0.65095   0.65354   0.67159   0.67691
 Alpha virt. eigenvalues --    0.70871   0.71645   0.79117   0.80557   0.82537
 Alpha virt. eigenvalues --    0.83913   0.87883   0.89669   0.94291   0.95295
 Alpha virt. eigenvalues --    0.96622   0.98374   0.99929   1.01241   1.02493
 Alpha virt. eigenvalues --    1.06051   1.09193   1.09935   1.10495   1.13201
 Alpha virt. eigenvalues --    1.16296   1.18051   1.19268   1.19515   1.21561
 Alpha virt. eigenvalues --    1.23442   1.25181   1.27737   1.28220   1.29675
 Alpha virt. eigenvalues --    1.30562   1.32041   1.32681   1.36887   1.39063
 Alpha virt. eigenvalues --    1.40057   1.41144   1.42816   1.44404   1.46867
 Alpha virt. eigenvalues --    1.47320   1.48105   1.50082   1.50526   1.53186
 Alpha virt. eigenvalues --    1.55184   1.55542   1.59103   1.60929   1.64277
 Alpha virt. eigenvalues --    1.67373   1.69134   1.74086   1.84640   2.03868
 Alpha virt. eigenvalues --    2.11318   2.12958   2.27257   2.36148   2.41587
 Alpha virt. eigenvalues --    2.45898   2.49864   2.51173   2.56103   2.59538
 Alpha virt. eigenvalues --    2.63819   2.65513   2.68074   2.71415   2.80879
 Alpha virt. eigenvalues --    2.81640   2.88163   2.92179   2.94874   2.97747
 Alpha virt. eigenvalues --    2.98629   2.99544   3.00412   3.02984   3.06856
 Alpha virt. eigenvalues --    3.08314   3.09737   3.11895   3.13732   3.15476
 Alpha virt. eigenvalues --    3.17896   3.18702   3.20511   3.23473   3.24537
 Alpha virt. eigenvalues --    3.26253   3.29215   3.30796   3.33790   3.35943
 Alpha virt. eigenvalues --    3.37935   3.40984   3.44351   3.46513   3.50576
 Alpha virt. eigenvalues --    3.51577   3.54586   3.55982   3.58852   3.63873
 Alpha virt. eigenvalues --    3.65845   3.70467   3.71957   3.76612   3.76748
 Alpha virt. eigenvalues --    3.80484   3.83064   3.86322   3.88447   3.89712
 Alpha virt. eigenvalues --    3.90736   3.92953   3.98398   4.01607   4.03979
 Alpha virt. eigenvalues --    4.05509   4.10481   4.13023   4.16803   4.18447
 Alpha virt. eigenvalues --    4.19562   4.20761   4.22579   4.23339   4.25165
 Alpha virt. eigenvalues --    4.27264   4.28461   4.29898   4.34376   4.36245
 Alpha virt. eigenvalues --    4.39555   4.42795   4.44781   4.47550   4.49842
 Alpha virt. eigenvalues --    4.52394   4.54701   4.58606   4.68001   4.89572
 Alpha virt. eigenvalues --    4.94101   4.96136   5.20054   5.26811   5.29033
 Alpha virt. eigenvalues --    5.34936   5.41803   5.47273   5.51483   5.56424
 Alpha virt. eigenvalues --    5.57765   5.59540   5.60966   5.65568   5.69457
 Alpha virt. eigenvalues --    5.83190   5.89554   6.22928   6.49699   6.72595
 Alpha virt. eigenvalues --    7.21022   7.22080   7.36540   7.73677   7.77999
 Alpha virt. eigenvalues --   24.23959  24.40386  24.44424  24.52080  50.19479
  Beta  occ. eigenvalues --  -19.62150 -10.59179 -10.57141 -10.53733 -10.52359
  Beta  occ. eigenvalues --   -1.15892  -0.87656  -0.76579  -0.75433  -0.65267
  Beta  occ. eigenvalues --   -0.57438  -0.53879  -0.52888  -0.49075  -0.46956
  Beta  occ. eigenvalues --   -0.45013  -0.42785  -0.41640  -0.38389  -0.33247
  Beta virt. eigenvalues --   -0.03072   0.01434   0.03324   0.03472   0.04109
  Beta virt. eigenvalues --    0.05637   0.06683   0.06911   0.07449   0.07820
  Beta virt. eigenvalues --    0.09999   0.10469   0.11579   0.12284   0.13203
  Beta virt. eigenvalues --    0.13747   0.15890   0.19765   0.20701   0.21396
  Beta virt. eigenvalues --    0.22156   0.23888   0.24087   0.25075   0.25690
  Beta virt. eigenvalues --    0.27027   0.27935   0.28808   0.30804   0.31171
  Beta virt. eigenvalues --    0.31851   0.35002   0.35844   0.38771   0.42853
  Beta virt. eigenvalues --    0.44110   0.44789   0.46054   0.49419   0.50780
  Beta virt. eigenvalues --    0.52431   0.54519   0.55448   0.56352   0.56929
  Beta virt. eigenvalues --    0.57618   0.58553   0.58878   0.61629   0.63024
  Beta virt. eigenvalues --    0.63739   0.64825   0.65649   0.65941   0.67116
  Beta virt. eigenvalues --    0.67945   0.70860   0.71945   0.79398   0.80769
  Beta virt. eigenvalues --    0.82456   0.84035   0.87911   0.89798   0.94412
  Beta virt. eigenvalues --    0.95373   0.96668   0.98786   1.00013   1.01185
  Beta virt. eigenvalues --    1.02610   1.06277   1.08934   1.09670   1.10619
  Beta virt. eigenvalues --    1.12922   1.16266   1.18210   1.19332   1.19701
  Beta virt. eigenvalues --    1.21731   1.23832   1.25192   1.28191   1.28439
  Beta virt. eigenvalues --    1.29730   1.30943   1.32441   1.33081   1.37202
  Beta virt. eigenvalues --    1.39236   1.40203   1.41264   1.43274   1.44580
  Beta virt. eigenvalues --    1.47144   1.48069   1.48377   1.50308   1.51086
  Beta virt. eigenvalues --    1.53769   1.55490   1.56061   1.59677   1.61306
  Beta virt. eigenvalues --    1.64465   1.67633   1.69616   1.74140   1.84836
  Beta virt. eigenvalues --    2.04489   2.11561   2.13093   2.27379   2.36375
  Beta virt. eigenvalues --    2.41674   2.46441   2.50173   2.51668   2.56531
  Beta virt. eigenvalues --    2.60694   2.64175   2.66434   2.68889   2.74470
  Beta virt. eigenvalues --    2.82390   2.85258   2.89418   2.94797   2.97305
  Beta virt. eigenvalues --    2.98624   2.99302   3.02514   3.04117   3.04967
  Beta virt. eigenvalues --    3.08415   3.09675   3.11194   3.14157   3.15121
  Beta virt. eigenvalues --    3.16755   3.18908   3.20111   3.22956   3.24477
  Beta virt. eigenvalues --    3.27358   3.30037   3.31084   3.33383   3.36195
  Beta virt. eigenvalues --    3.39021   3.39632   3.42010   3.45270   3.47676
  Beta virt. eigenvalues --    3.51723   3.52653   3.55118   3.56905   3.60255
  Beta virt. eigenvalues --    3.65494   3.67601   3.71068   3.73728   3.77019
  Beta virt. eigenvalues --    3.79013   3.82155   3.83801   3.86977   3.88754
  Beta virt. eigenvalues --    3.90007   3.91635   3.94620   3.99831   4.02195
  Beta virt. eigenvalues --    4.05089   4.06385   4.11295   4.14848   4.18104
  Beta virt. eigenvalues --    4.19965   4.20607   4.22581   4.23523   4.25062
  Beta virt. eigenvalues --    4.26377   4.28930   4.29347   4.30664   4.35505
  Beta virt. eigenvalues --    4.37218   4.41210   4.43476   4.45912   4.48974
  Beta virt. eigenvalues --    4.50212   4.52834   4.56136   4.59032   4.68476
  Beta virt. eigenvalues --    4.92102   4.95408   5.00316   5.22797   5.27116
  Beta virt. eigenvalues --    5.29269   5.35797   5.42717   5.50910   5.53722
  Beta virt. eigenvalues --    5.57014   5.59620   5.60544   5.61832   5.66319
  Beta virt. eigenvalues --    5.69958   5.83404   5.89806   6.22994   6.49731
  Beta virt. eigenvalues --    6.72639   7.21134   7.22180   7.36655   7.73755
  Beta virt. eigenvalues --    7.78124  24.24944  24.40750  24.44443  24.52409
  Beta virt. eigenvalues --   50.19456
          Condensed to atoms (all electrons):
               1          2          3          4          5          6
     1  O    8.240845   0.263385  -0.133324   0.114698  -0.166924  -0.037856
     2  C    0.263385   5.257175   0.352732  -0.121506   0.084842   0.478082
     3  C   -0.133324   0.352732   5.201345  -0.023156  -0.152563  -0.033922
     4  C    0.114698  -0.121506  -0.023156   4.976834   0.016930   0.000211
     5  C   -0.166924   0.084842  -0.152563   0.016930   5.877718  -0.087266
     6  H   -0.037856   0.478082  -0.033922   0.000211  -0.087266   0.514560
     7  H    0.012885  -0.046579   0.423994   0.001442  -0.004836  -0.006499
     8  H   -0.011233  -0.006654   0.407673  -0.001203  -0.022644   0.005500
     9  H   -0.004210  -0.022142   0.383323  -0.000249   0.020941  -0.004765
    10  H   -0.046293  -0.007734   0.006197   0.436052  -0.006622   0.006500
    11  H   -0.060543   0.013640   0.001225   0.428966   0.000618  -0.000239
    12  H   -0.047055  -0.012836  -0.011087   0.432688   0.023905  -0.002896
    13  H    0.002747  -0.030075  -0.000285  -0.001134   0.398886   0.004004
    14  H    0.007140  -0.026011   0.001556  -0.000903   0.392070  -0.000853
               7          8          9         10         11         12
     1  O    0.012885  -0.011233  -0.004210  -0.046293  -0.060543  -0.047055
     2  C   -0.046579  -0.006654  -0.022142  -0.007734   0.013640  -0.012836
     3  C    0.423994   0.407673   0.383323   0.006197   0.001225  -0.011087
     4  C    0.001442  -0.001203  -0.000249   0.436052   0.428966   0.432688
     5  C   -0.004836  -0.022644   0.020941  -0.006622   0.000618   0.023905
     6  H   -0.006499   0.005500  -0.004765   0.006500  -0.000239  -0.002896
     7  H    0.532376  -0.031320  -0.023773  -0.000009   0.000022   0.000039
     8  H   -0.031320   0.521282  -0.024981  -0.000014   0.000025  -0.000048
     9  H   -0.023773  -0.024981   0.528655   0.000012  -0.000028  -0.000011
    10  H   -0.000009  -0.000014   0.000012   0.573898  -0.025531  -0.050992
    11  H    0.000022   0.000025  -0.000028  -0.025531   0.535497  -0.026037
    12  H    0.000039  -0.000048  -0.000011  -0.050992  -0.026037   0.573087
    13  H    0.000288   0.000025  -0.000192   0.000320  -0.000103  -0.002487
    14  H   -0.000815   0.000493  -0.000232   0.000369   0.000039  -0.001591
              13         14
     1  O    0.002747   0.007140
     2  C   -0.030075  -0.026011
     3  C   -0.000285   0.001556
     4  C   -0.001134  -0.000903
     5  C    0.398886   0.392070
     6  H    0.004004  -0.000853
     7  H    0.000288  -0.000815
     8  H    0.000025   0.000493
     9  H   -0.000192  -0.000232
    10  H    0.000320   0.000369
    11  H   -0.000103   0.000039
    12  H   -0.002487  -0.001591
    13  H    0.446966  -0.018341
    14  H   -0.018341   0.468027
          Atomic-Atomic Spin Densities.
               1          2          3          4          5          6
     1  O    0.028339   0.005177  -0.012792  -0.001148  -0.028072   0.004869
     2  C    0.005177  -0.062574  -0.004264   0.010219   0.003339   0.018684
     3  C   -0.012792  -0.004264   0.131150  -0.007829  -0.055664  -0.023039
     4  C   -0.001148   0.010219  -0.007829   0.042999  -0.020394   0.004236
     5  C   -0.028072   0.003339  -0.055664  -0.020394   1.225341  -0.018042
     6  H    0.004869   0.018684  -0.023039   0.004236  -0.018042   0.014888
     7  H   -0.000428   0.000373   0.012138  -0.000400  -0.012832  -0.000801
     8  H    0.000210   0.011486  -0.006729   0.000888  -0.006536  -0.000167
     9  H    0.000557   0.001377  -0.016275   0.000069   0.010802   0.002243
    10  H   -0.001282  -0.001065  -0.001431  -0.001130   0.002649  -0.000338
    11  H   -0.000029   0.000306   0.001034  -0.005732   0.002090  -0.000087
    12  H    0.003138   0.003275   0.000396   0.007494  -0.010969  -0.000161
    13  H    0.001876   0.002701  -0.000707   0.001249  -0.013132   0.000289
    14  H   -0.000026   0.009273  -0.001379   0.000313  -0.010973   0.000678
               7          8          9         10         11         12
     1  O   -0.000428   0.000210   0.000557  -0.001282  -0.000029   0.003138
     2  C    0.000373   0.011486   0.001377  -0.001065   0.000306   0.003275
     3  C    0.012138  -0.006729  -0.016275  -0.001431   0.001034   0.000396
     4  C   -0.000400   0.000888   0.000069  -0.001130  -0.005732   0.007494
     5  C   -0.012832  -0.006536   0.010802   0.002649   0.002090  -0.010969
     6  H   -0.000801  -0.000167   0.002243  -0.000338  -0.000087  -0.000161
     7  H   -0.004900   0.001329  -0.001526   0.000000   0.000001  -0.000001
     8  H    0.001329  -0.005019   0.000100  -0.000007   0.000004  -0.000003
     9  H   -0.001526   0.000100   0.014308   0.000033  -0.000021  -0.000010
    10  H    0.000000  -0.000007   0.000033  -0.001101   0.000713   0.000471
    11  H    0.000001   0.000004  -0.000021   0.000713   0.000845   0.000633
    12  H   -0.000001  -0.000003  -0.000010   0.000471   0.000633  -0.019239
    13  H    0.000041   0.000067   0.000002  -0.000066  -0.000071   0.000758
    14  H    0.000125   0.000114  -0.000021  -0.000020  -0.000014   0.000390
              13         14
     1  O    0.001876  -0.000026
     2  C    0.002701   0.009273
     3  C   -0.000707  -0.001379
     4  C    0.001249   0.000313
     5  C   -0.013132  -0.010973
     6  H    0.000289   0.000678
     7  H    0.000041   0.000125
     8  H    0.000067   0.000114
     9  H    0.000002  -0.000021
    10  H   -0.000066  -0.000020
    11  H   -0.000071  -0.000014
    12  H    0.000758   0.000390
    13  H   -0.055775   0.006797
    14  H    0.006797  -0.048053
 Mulliken charges and spin densities:
               1          2
     1  O   -0.134262   0.000389
     2  C   -0.176318  -0.001692
     3  C   -0.423708   0.014610
     4  C   -0.259670   0.030835
     5  C   -0.375057   1.067610
     6  H    0.165438   0.003252
     7  H    0.142783  -0.006880
     8  H    0.163098  -0.004261
     9  H    0.147651   0.011637
    10  H    0.113847  -0.002573
    11  H    0.132449  -0.000328
    12  H    0.125320  -0.013829
    13  H    0.199380  -0.055972
    14  H    0.179050  -0.042798
 Sum of Mulliken charges =  -0.00000   1.00000
 Mulliken charges and spin densities with hydrogens summed into heavy atoms:
               1          2
     1  O   -0.134262   0.000389
     2  C   -0.010879   0.001560
     3  C    0.029824   0.015106
     4  C    0.111945   0.014105
     5  C    0.003373   0.968840
 APT charges:
               1
     1  O   -0.077292
     2  C   -0.319301
     3  C   -1.152599
     4  C   -1.194817
     5  C   -0.865432
     6  H    0.359566
     7  H    0.458724
     8  H    0.343743
     9  H    0.368790
    10  H    0.340670
    11  H    0.519282
    12  H    0.319034
    13  H    0.390069
    14  H    0.509561
 Sum of APT charges =  -0.00000
 APT charges with hydrogens summed into heavy atoms:
               1
     1  O   -0.077292
     2  C    0.040265
     3  C    0.018659
     4  C   -0.015831
     5  C    0.034199
 Electronic spatial extent (au):  <R**2>=            482.3958
 Charge=             -0.0000 electrons
 Dipole moment (field-independent basis, Debye):
    X=             -0.0662    Y=              0.8130    Z=              0.8379  Tot=              1.1694
 Quadrupole moment (field-independent basis, Debye-Ang):
   XX=            -30.7160   YY=            -33.8575   ZZ=            -32.6543
   XY=              0.0137   XZ=             -0.1209   YZ=             -0.7253
 Traceless Quadrupole moment (field-independent basis, Debye-Ang):
   XX=              1.6933   YY=             -1.4482   ZZ=             -0.2451
   XY=              0.0137   XZ=             -0.1209   YZ=             -0.7253
 Octapole moment (field-independent basis, Debye-Ang**2):
  XXX=             10.1469  YYY=             -2.7507  ZZZ=             -1.0534  XYY=             -0.7056
  XXY=             -2.9857  XXZ=             -0.0547  XZZ=              0.5360  YZZ=             -0.1087
  YYZ=              0.2047  XYZ=             -1.0895
 Hexadecapole moment (field-independent basis, Debye-Ang**3):
 XXXX=           -388.8369 YYYY=           -195.6133 ZZZZ=            -70.6670 XXXY=             -6.1625
 XXXZ=             -7.3868 YYYX=             -3.6179 YYYZ=              0.5219 ZZZX=              1.1163
 ZZZY=             -1.0068 XXYY=            -99.9222 XXZZ=            -77.9795 YYZZ=            -43.5715
 XXYZ=              3.1966 YYXZ=             -3.6068 ZZXY=             -1.4236
 N-N= 1.879783400191D+02 E-N=-9.188883484236D+02  KE= 2.320530371761D+02
  Exact polarizability:   0.000   0.000   0.000   0.000   0.000   0.000
 Approx polarizability:  61.517  -0.173  60.613  -0.403   0.475  59.436
                          Isotropic Fermi Contact Couplings
        Atom                 a.u.       MegaHertz       Gauss      10(-4) cm-1
     1  O(17)              0.01793     -10.86847      -3.87814      -3.62533
     2  C(13)             -0.03416     -38.40748     -13.70474     -12.81136
     3  C(13)              0.06433      72.32029      25.80568      24.12345
     4  C(13)              0.00411       4.61837       1.64795       1.54052
     5  C(13)              0.17192     193.27097      68.96389      64.46826
     6  H(1)               0.00554      24.75600       8.83356       8.25771
     7  H(1)               0.00041       1.83864       0.65607       0.61330
     8  H(1)              -0.00061      -2.71294      -0.96805      -0.90494
     9  H(1)               0.00486      21.74043       7.75753       7.25183
    10  H(1)              -0.00020      -0.89610      -0.31975      -0.29891
    11  H(1)              -0.00009      -0.42020      -0.14994      -0.14016
    12  H(1)               0.00029       1.28069       0.45698       0.42719
    13  H(1)              -0.01550     -69.26861     -24.71676     -23.10552
    14  H(1)              -0.01610     -71.94614     -25.67217     -23.99865
 --------------------------------------------------------
       Center         ----  Spin Dipole Couplings  ----
                      3XX-RR        3YY-RR        3ZZ-RR
 --------------------------------------------------------
     1   Atom       -0.000754      0.029344     -0.028590
     2   Atom       -0.008258      0.012995     -0.004738
     3   Atom        0.004362      0.026678     -0.031040
     4   Atom       -0.001406      0.014730     -0.013324
     5   Atom        0.884466     -0.451002     -0.433464
     6   Atom       -0.007743      0.005533      0.002211
     7   Atom        0.008396     -0.000377     -0.008018
     8   Atom       -0.005123      0.004711      0.000412
     9   Atom       -0.003585      0.008091     -0.004506
    10   Atom        0.001782     -0.000342     -0.001440
    11   Atom        0.002578      0.000459     -0.003036
    12   Atom        0.014266     -0.002788     -0.011477
    13   Atom       -0.008250     -0.061047      0.069297
    14   Atom        0.012735      0.001135     -0.013870
 --------------------------------------------------------
                        XY            XZ            YZ
 --------------------------------------------------------
     1   Atom       -0.037681     -0.014129      0.023660
     2   Atom        0.001870      0.003307      0.007043
     3   Atom        0.044293      0.007638      0.010209
     4   Atom       -0.002648     -0.000391     -0.004277
     5   Atom        0.366900      0.393005      0.102691
     6   Atom       -0.001556      0.002465     -0.015724
     7   Atom        0.007174     -0.006068     -0.002921
     8   Atom        0.006804      0.005666      0.006566
     9   Atom        0.001872      0.000696     -0.002898
    10   Atom       -0.004743      0.003449     -0.002769
    11   Atom       -0.003695     -0.001352      0.000814
    12   Atom       -0.008669     -0.001870     -0.000618
    13   Atom        0.020141     -0.006536     -0.027290
    14   Atom       -0.025371     -0.020415      0.065960
 --------------------------------------------------------


 ---------------------------------------------------------------------------------
              Anisotropic Spin Dipole Couplings in Principal Axis System
 ---------------------------------------------------------------------------------

       Atom             a.u.   MegaHertz   Gauss  10(-4) cm-1        Axes

              Baa    -0.0371     2.681     0.957     0.894  0.0446 -0.3128  0.9488
     1 O(17)  Bbb    -0.0261     1.887     0.673     0.629  0.8449  0.5185  0.1312
              Bcc     0.0631    -4.568    -1.630    -1.524 -0.5330  0.7958  0.2874
 
              Baa    -0.0105    -1.407    -0.502    -0.469  0.7922  0.1166 -0.5990
     2 C(13)  Bbb    -0.0053    -0.713    -0.254    -0.238  0.5985 -0.3402  0.7253
              Bcc     0.0158     2.120     0.756     0.707  0.1192  0.9331  0.3393
 
              Baa    -0.0328    -4.400    -1.570    -1.468 -0.0081 -0.1633  0.9865
     3 C(13)  Bbb    -0.0301    -4.044    -1.443    -1.349  0.7933 -0.6017 -0.0930
              Bcc     0.0629     8.444     3.013     2.817  0.6088  0.7818  0.1344
 
              Baa    -0.0140    -1.880    -0.671    -0.627  0.0627  0.1526  0.9863
     4 C(13)  Bbb    -0.0017    -0.233    -0.083    -0.078  0.9870  0.1369 -0.0839
              Bcc     0.0158     2.114     0.754     0.705 -0.1478  0.9788 -0.1420
 
              Baa    -0.5459   -73.256   -26.139   -24.435 -0.1285  0.9137 -0.3854
     5 C(13)  Bbb    -0.5412   -72.627   -25.915   -24.226 -0.3285  0.3275  0.8859
              Bcc     1.0871   145.883    52.055    48.661  0.9357  0.2404  0.2581
 
              Baa    -0.0121    -6.452    -2.302    -2.152 -0.1893  0.6443  0.7410
     6 H(1)   Bbb    -0.0079    -4.202    -1.499    -1.402  0.9767  0.2011  0.0748
              Bcc     0.0200    10.654     3.802     3.554 -0.1008  0.7379 -0.6674
 
              Baa    -0.0101    -5.367    -1.915    -1.790  0.2839  0.0780  0.9557
     7 H(1)   Bbb    -0.0044    -2.332    -0.832    -0.778 -0.4648  0.8830  0.0660
              Bcc     0.0144     7.700     2.747     2.568  0.8387  0.4629 -0.2869
 
              Baa    -0.0093    -4.984    -1.779    -1.663  0.9000 -0.2794 -0.3347
     8 H(1)   Bbb    -0.0043    -2.291    -0.817    -0.764  0.0909 -0.6307  0.7707
              Bcc     0.0136     7.275     2.596     2.427  0.4264  0.7240  0.5422
 
              Baa    -0.0057    -3.061    -1.092    -1.021 -0.4826  0.2418  0.8418
     9 H(1)   Bbb    -0.0032    -1.715    -0.612    -0.572  0.8656 -0.0150  0.5006
              Bcc     0.0090     4.777     1.704     1.593  0.1337  0.9702 -0.2020
 
              Baa    -0.0041    -2.209    -0.788    -0.737  0.6222  0.7828  0.0081
    10 H(1)   Bbb    -0.0036    -1.908    -0.681    -0.637 -0.3451  0.2649  0.9004
              Bcc     0.0077     4.118     1.469     1.374  0.7027 -0.5630  0.4350
 
              Baa    -0.0033    -1.785    -0.637    -0.595  0.2339  0.0192  0.9721
    11 H(1)   Bbb    -0.0023    -1.228    -0.438    -0.409  0.5694  0.8077 -0.1529
              Bcc     0.0056     3.013     1.075     1.005  0.7881 -0.5893 -0.1780
 
              Baa    -0.0119    -6.327    -2.258    -2.111  0.1341  0.1944  0.9717
    12 H(1)   Bbb    -0.0061    -3.263    -1.164    -1.088  0.3629  0.9028 -0.2307
              Bcc     0.0180     9.590     3.422     3.199  0.9221 -0.3835 -0.0505
 
              Baa    -0.0719   -38.385   -13.697   -12.804 -0.2813  0.9445  0.1695
    13 H(1)   Bbb    -0.0042    -2.215    -0.790    -0.739  0.9514  0.2514  0.1781
              Bcc     0.0761    40.600    14.487    13.543 -0.1256 -0.2113  0.9693
 
              Baa    -0.0728   -38.836   -13.858   -12.954 -0.0215 -0.6697  0.7423
    14 H(1)   Bbb    -0.0038    -2.027    -0.723    -0.676  0.8908  0.3243  0.3184
              Bcc     0.0766    40.863    14.581    13.630 -0.4540  0.6681  0.5896
 

 ---------------------------------------------------------------------------------

 No NMR shielding tensors so no spin-rotation constants.
 Leave Link  601 at Mon Mar 11 00:13:02 2019, MaxMem=   671088640 cpu:              12.1 elap:               0.7
 (Enter /shared/centos7/gaussian/g16/l701.exe)
 ... and contract with generalized density number  0.
 Compute integral second derivatives.
 Leave Link  701 at Mon Mar 11 00:13:02 2019, MaxMem=   671088640 cpu:               8.8 elap:               0.5
 (Enter /shared/centos7/gaussian/g16/l702.exe)
 L702 exits ... SP integral derivatives will be done elsewhere.
 Leave Link  702 at Mon Mar 11 00:13:02 2019, MaxMem=   671088640 cpu:               0.4 elap:               0.0
 (Enter /shared/centos7/gaussian/g16/l703.exe)
 Integral derivatives from FoFJK, PRISM(SPDF).
 Compute integral second derivatives, UseDBF=F ICtDFT=           0.
 Calling FoFJK, ICntrl=    100147 FMM=F ISym2X=0 I1Cent= 0 IOpClX= 1 NMat=1 NMatS=1 NMatT=0.
 FoFJK:  IHMeth= 1 ICntrl=  100147 DoSepK=F KAlg= 0 I1Cent=           0 FoldK=F
 IRaf=         0 NMat=       1 IRICut=       1 DoRegI=T DoRafI=F ISym2E= 0 IDoP0=0 IntGTp=1.
 FoFCou: FMM=F IPFlag=           0 FMFlag=      100000 FMFlg1=         800
         NFxFlg=           0 DoJE=F BraDBF=F KetDBF=F FulRan=T
         wScrn=  0.000000 ICntrl=    100147 IOpCl=  1 I1Cent=           0 NGrid=           0
         NMat0=    1 NMatS0=      1 NMatT0=    0 NMatD0=    1 NMtDS0=    0 NMtDT0=    0
 Symmetry not used in FoFCou.
 Leave Link  703 at Mon Mar 11 00:15:34 2019, MaxMem=   671088640 cpu:            3024.8 elap:             151.3
 (Enter /shared/centos7/gaussian/g16/l716.exe)
 Dipole        =-2.60426121D-02 3.19854233D-01 3.29671923D-01
 Polarizability= 0.00000000D+00 0.00000000D+00 0.00000000D+00
                 0.00000000D+00 0.00000000D+00 0.00000000D+00
 ***** Axes restored to original set *****
 -------------------------------------------------------------------
 Center     Atomic                   Forces (Hartrees/Bohr)
 Number     Number              X              Y              Z
 -------------------------------------------------------------------
      1        8          -0.000000152   -0.000000656    0.000000133
      2        6          -0.000000040    0.000000197    0.000000128
      3        6          -0.000000188   -0.000000140    0.000000477
      4        6          -0.000000105   -0.000000479   -0.000000006
      5        6           0.000000362    0.000000626   -0.000000764
      6        1          -0.000000085    0.000000741    0.000000713
      7        1          -0.000000071    0.000000510    0.000000554
      8        1          -0.000000104   -0.000000674   -0.000000021
      9        1          -0.000000433   -0.000000449    0.000001192
     10        1          -0.000000154    0.000000026    0.000000562
     11        1          -0.000000196   -0.000001179   -0.000000000
     12        1           0.000000190   -0.000000149   -0.000000697
     13        1           0.000000506    0.000000186   -0.000001427
     14        1           0.000000472    0.000001439   -0.000000844
 -------------------------------------------------------------------
 Cartesian Forces:  Max     0.000001439 RMS     0.000000571
 FormGI is forming the generalized inverse of G from B-inverse, IUseBI=4.
 Leave Link  716 at Mon Mar 11 00:15:34 2019, MaxMem=   671088640 cpu:               0.7 elap:               0.1
 (Enter /shared/centos7/gaussian/g16/l103.exe)

 GradGradGradGradGradGradGradGradGradGradGradGradGradGradGradGradGradGrad
 Berny optimization.
 Red2BG is reusing G-inverse.
 Internal  Forces:  Max     0.000000066 RMS     0.000000017
 Search for a local minimum.
 Step number   1 out of a maximum of   66 on scan point     1 out of    37
 All quantities printed in internal units (Hartrees-Bohrs-Radians)
 RMS Force = .17148D-07 SwitMx=.10000D-02 MixMth= 2
 Mixed Optimization -- En-DIIS/RFO-DIIS
 Second derivative matrix not updated -- analytic derivatives used.
 ITU=  0
     Eigenvalues ---    0.00054   0.00275   0.00687   0.00989   0.04265
     Eigenvalues ---    0.04462   0.04635   0.05229   0.06088   0.06987
     Eigenvalues ---    0.08733   0.09769   0.10366   0.12252   0.13188
     Eigenvalues ---    0.13369   0.14164   0.16946   0.18136   0.18748
     Eigenvalues ---    0.20273   0.24872   0.29136   0.30749   0.31699
     Eigenvalues ---    0.32675   0.33465   0.34395   0.34546   0.34860
     Eigenvalues ---    0.35132   0.36552   0.36886   0.39275   0.44359
     Eigenvalues --- 1000.000001000.000001000.000001000.000001000.00000
     Eigenvalues --- 1000.000001000.000001000.000001000.000001000.00000
     Eigenvalues --- 1000.000001000.000001000.000001000.000001000.00000
     Eigenvalues --- 1000.000001000.000001000.000001000.000001000.00000
     Eigenvalues --- 1000.00000
 RFO step:  Lambda= 0.00000000D+00 EMin= 5.38274754D-04
 Linear search not attempted -- first point.
 Iteration  1 RMS(Cart)=  0.00001180 RMS(Int)=  0.00000000
 Iteration  2 RMS(Cart)=  0.00000000 RMS(Int)=  0.00000000
 Iteration  1 RMS(Cart)=  0.00000000 RMS(Int)=  0.00000000
 ITry= 1 IFail=0 DXMaxC= 5.82D-05 DCOld= 1.00D+10 DXMaxT= 3.00D-01 DXLimC= 3.00D+00 Rises=F
 Variable       Old X    -DE/DX   Delta X   Delta X   Delta X     New X
                                 (Linear)    (Quad)   (Total)
    R1        2.67500  -0.00000   0.00000  -0.00000  -0.00000   2.67500
    R2        2.65620  -0.00000   0.00000  -0.00000  -0.00000   2.65620
    R3        2.88226   0.00000   0.00000   0.00000   0.00000   2.88226
    R4        2.81617  -0.00000   0.00000  -0.00000  -0.00000   2.81617
    R5        2.07754   0.00000   0.00000   0.00000   0.00000   2.07754
    R6        2.05763  -0.00000   0.00000  -0.00000  -0.00000   2.05763
    R7        2.05887  -0.00000   0.00000  -0.00000  -0.00000   2.05887
    R8        2.05834  -0.00000   0.00000  -0.00000  -0.00000   2.05834
    R9        2.07078  -0.00000   0.00000  -0.00000  -0.00000   2.07078
   R10        2.05448   0.00000   0.00000   0.00000   0.00000   2.05448
   R11        2.06747   0.00000   0.00000   0.00000   0.00000   2.06747
   R12        2.04289   0.00000   0.00000  -0.00000  -0.00000   2.04289
   R13        2.03940   0.00000   0.00000   0.00000   0.00000   2.03940
    A1        1.98112   0.00000   0.00000   0.00000   0.00000   1.98112
    A2        1.85556   0.00000   0.00000   0.00000   0.00000   1.85556
    A3        1.94879  -0.00000   0.00000  -0.00000  -0.00000   1.94879
    A4        1.90044   0.00000   0.00000   0.00000   0.00000   1.90044
    A5        1.95014   0.00000   0.00000   0.00000   0.00000   1.95014
    A6        1.90003  -0.00000   0.00000  -0.00000  -0.00000   1.90003
    A7        1.90737  -0.00000   0.00000  -0.00000  -0.00000   1.90736
    A8        1.92933  -0.00000   0.00000  -0.00000  -0.00000   1.92932
    A9        1.91081   0.00000   0.00000   0.00000   0.00000   1.91081
   A10        1.91860  -0.00000   0.00000  -0.00000  -0.00000   1.91860
   A11        1.89884   0.00000   0.00000   0.00000   0.00000   1.89884
   A12        1.90665   0.00000   0.00000  -0.00000  -0.00000   1.90665
   A13        1.89923  -0.00000   0.00000   0.00000   0.00000   1.89923
   A14        1.93686   0.00000   0.00000   0.00000   0.00000   1.93686
   A15        1.87313  -0.00000   0.00000  -0.00000  -0.00000   1.87313
   A16        1.95041   0.00000   0.00000   0.00000   0.00000   1.95041
   A17        1.90373  -0.00000   0.00000   0.00000   0.00000   1.90373
   A18        1.89367  -0.00000   0.00000  -0.00000  -0.00000   1.89367
   A19        1.90541  -0.00000   0.00000  -0.00000  -0.00000   1.90541
   A20        2.07249   0.00000   0.00000   0.00000   0.00000   2.07249
   A21        2.11374  -0.00000   0.00000  -0.00000  -0.00000   2.11374
   A22        2.07572   0.00000   0.00000   0.00000   0.00000   2.07572
    D1       -2.97161   0.00000   0.00000   0.00000   0.00000  -2.97161
    D2        1.18054  -0.00000   0.00000   0.00000   0.00000   1.18054
    D3       -0.92709  -0.00000   0.00000   0.00000   0.00000  -0.92709
    D4        1.02085   0.00000   0.00000   0.00000  -0.00000   1.02085
    D5        3.09939   0.00000   0.00000   0.00000   0.00000   3.09939
    D6       -1.09538  -0.00000   0.00000   0.00000   0.00000  -1.09538
    D7        3.11572   0.00000   0.00000   0.00000   0.00000   3.11572
    D8       -1.07593   0.00000   0.00000   0.00000   0.00000  -1.07593
    D9        1.00948   0.00000   0.00000   0.00000   0.00000   1.00948
   D10       -1.03727  -0.00000   0.00000   0.00000   0.00000  -1.03727
   D11        1.05426  -0.00000   0.00000   0.00000   0.00000   1.05426
   D12        3.13967  -0.00000   0.00000   0.00000   0.00000   3.13967
   D13        1.07093  -0.00000   0.00000   0.00000   0.00000   1.07093
   D14       -3.12072  -0.00000   0.00000   0.00000   0.00000  -3.12072
   D15       -1.03532  -0.00000   0.00000   0.00000   0.00000  -1.03532
   D16        0.71101  -0.00000   0.00000  -0.00003  -0.00003   0.71098
   D17       -2.65289  -0.00000   0.00000  -0.00004  -0.00004  -2.65293
   D18       -1.36467  -0.00000   0.00000  -0.00003  -0.00003  -1.36470
   D19        1.55461  -0.00000   0.00000  -0.00004  -0.00004   1.55457
   D20        2.81459  -0.00000   0.00000  -0.00003  -0.00003   2.81456
   D21       -0.54931  -0.00000   0.00000  -0.00004  -0.00004  -0.54935
         Item               Value     Threshold  Converged?
 Maximum Force            0.000000     0.000450     YES
 RMS     Force            0.000000     0.000300     YES
 Maximum Displacement     0.000058     0.001800     YES
 RMS     Displacement     0.000012     0.001200     YES
 Predicted change in Energy=-2.230194D-12
 Optimization completed.
    -- Stationary point found.
                           ----------------------------
                           !   Optimized Parameters   !
                           ! (Angstroms and Degrees)  !
 --------------------------                            --------------------------
 ! Name  Definition              Value          Derivative Info.                !
 --------------------------------------------------------------------------------
 ! R1    R(1,2)                  1.4156         -DE/DX =    0.0                 !
 ! R2    R(1,4)                  1.4056         -DE/DX =    0.0                 !
 ! R3    R(2,3)                  1.5252         -DE/DX =    0.0                 !
 ! R4    R(2,5)                  1.4903         -DE/DX =    0.0                 !
 ! R5    R(2,6)                  1.0994         -DE/DX =    0.0                 !
 ! R6    R(3,7)                  1.0888         -DE/DX =    0.0                 !
 ! R7    R(3,8)                  1.0895         -DE/DX =    0.0                 !
 ! R8    R(3,9)                  1.0892         -DE/DX =    0.0                 !
 ! R9    R(4,10)                 1.0958         -DE/DX =    0.0                 !
 ! R10   R(4,11)                 1.0872         -DE/DX =    0.0                 !
 ! R11   R(4,12)                 1.0941         -DE/DX =    0.0                 !
 ! R12   R(5,13)                 1.0811         -DE/DX =    0.0                 !
 ! R13   R(5,14)                 1.0792         -DE/DX =    0.0                 !
 ! A1    A(2,1,4)              113.5099         -DE/DX =    0.0                 !
 ! A2    A(1,2,3)              106.316          -DE/DX =    0.0                 !
 ! A3    A(1,2,5)              111.6577         -DE/DX =    0.0                 !
 ! A4    A(1,2,6)              108.8873         -DE/DX =    0.0                 !
 ! A5    A(3,2,5)              111.7346         -DE/DX =    0.0                 !
 ! A6    A(3,2,6)              108.8635         -DE/DX =    0.0                 !
 ! A7    A(5,2,6)              109.284          -DE/DX =    0.0                 !
 ! A8    A(2,3,7)              110.5422         -DE/DX =    0.0                 !
 ! A9    A(2,3,8)              109.4815         -DE/DX =    0.0                 !
 ! A10   A(2,3,9)              109.9279         -DE/DX =    0.0                 !
 ! A11   A(7,3,8)              108.7953         -DE/DX =    0.0                 !
 ! A12   A(7,3,9)              109.2432         -DE/DX =    0.0                 !
 ! A13   A(8,3,9)              108.8178         -DE/DX =    0.0                 !
 ! A14   A(1,4,10)             110.9738         -DE/DX =    0.0                 !
 ! A15   A(1,4,11)             107.3225         -DE/DX =    0.0                 !
 ! A16   A(1,4,12)             111.7503         -DE/DX =    0.0                 !
 ! A17   A(10,4,11)            109.076          -DE/DX =    0.0                 !
 ! A18   A(10,4,12)            108.4993         -DE/DX =    0.0                 !
 ! A19   A(11,4,12)            109.172          -DE/DX =    0.0                 !
 ! A20   A(2,5,13)             118.7449         -DE/DX =    0.0                 !
 ! A21   A(2,5,14)             121.1084         -DE/DX =    0.0                 !
 ! A22   A(13,5,14)            118.9301         -DE/DX =    0.0                 !
 ! D1    D(4,1,2,3)           -170.2606         -DE/DX =    0.0                 !
 ! D2    D(4,1,2,5)             67.6398         -DE/DX =    0.0                 !
 ! D3    D(4,1,2,6)            -53.1182         -DE/DX =    0.0                 !
 ! D4    D(2,1,4,10)            58.4904         -DE/DX =    0.0                 !
 ! D5    D(2,1,4,11)           177.5817         -DE/DX =    0.0                 !
 ! D6    D(2,1,4,12)           -62.7609         -DE/DX =    0.0                 !
 ! D7    D(1,2,3,7)            178.5178         -DE/DX =    0.0                 !
[...]
  Beta virt. eigenvalues --    2.98622   2.99300   3.02514   3.04115   3.04969
  Beta virt. eigenvalues --    3.08414   3.09673   3.11193   3.14160   3.15124
  Beta virt. eigenvalues --    3.16756   3.18910   3.20110   3.22954   3.24479
  Beta virt. eigenvalues --    3.27358   3.30037   3.31082   3.33384   3.36188
  Beta virt. eigenvalues --    3.39021   3.39633   3.42012   3.45265   3.47678
  Beta virt. eigenvalues --    3.51723   3.52651   3.55116   3.56902   3.60256
  Beta virt. eigenvalues --    3.65495   3.67599   3.71070   3.73732   3.77022
  Beta virt. eigenvalues --    3.79006   3.82155   3.83802   3.86976   3.88755
  Beta virt. eigenvalues --    3.90007   3.91637   3.94621   3.99829   4.02191
  Beta virt. eigenvalues --    4.05093   4.06387   4.11295   4.14849   4.18104
  Beta virt. eigenvalues --    4.19966   4.20606   4.22583   4.23520   4.25065
  Beta virt. eigenvalues --    4.26371   4.28933   4.29352   4.30664   4.35502
  Beta virt. eigenvalues --    4.37219   4.41214   4.43472   4.45911   4.48974
  Beta virt. eigenvalues --    4.50207   4.52830   4.56138   4.59032   4.68476
  Beta virt. eigenvalues --    4.92097   4.95406   5.00313   5.22793   5.27114
  Beta virt. eigenvalues --    5.29268   5.35794   5.42714   5.50914   5.53721
  Beta virt. eigenvalues --    5.57013   5.59619   5.60545   5.61834   5.66318
  Beta virt. eigenvalues --    5.69949   5.83406   5.89819   6.23003   6.49733
  Beta virt. eigenvalues --    6.72650   7.21129   7.22172   7.36660   7.73770
  Beta virt. eigenvalues --    7.78122  24.24943  24.40749  24.44451  24.52408
  Beta virt. eigenvalues --   50.19456
          Condensed to atoms (all electrons):
               1          2          3          4          5          6
     1  O    8.240905   0.263358  -0.133363   0.114651  -0.166864  -0.037858
     2  C    0.263358   5.257074   0.352741  -0.121426   0.084852   0.478100
     3  C   -0.133363   0.352741   5.201361  -0.023157  -0.152526  -0.033964
     4  C    0.114651  -0.121426  -0.023157   4.976790   0.016944   0.000215
     5  C   -0.166864   0.084852  -0.152526   0.016944   5.877582  -0.087246
     6  H   -0.037858   0.478100  -0.033964   0.000215  -0.087246   0.514562
     7  H    0.012889  -0.046594   0.424012   0.001443  -0.004842  -0.006499
     8  H   -0.011234  -0.006643   0.407659  -0.001203  -0.022636   0.005499
     9  H   -0.004213  -0.022142   0.383329  -0.000251   0.020943  -0.004765
    10  H   -0.046302  -0.007710   0.006184   0.436050  -0.006623   0.006500
    11  H   -0.060556   0.013641   0.001229   0.428976   0.000609  -0.000240
    12  H   -0.047058  -0.012854  -0.011079   0.432700   0.023910  -0.002893
    13  H    0.002754  -0.030080  -0.000284  -0.001137   0.398883   0.004004
    14  H    0.007137  -0.025991   0.001550  -0.000902   0.392062  -0.000855
               7          8          9         10         11         12
     1  O    0.012889  -0.011234  -0.004213  -0.046302  -0.060556  -0.047058
     2  C   -0.046594  -0.006643  -0.022142  -0.007710   0.013641  -0.012854
     3  C    0.424012   0.407659   0.383329   0.006184   0.001229  -0.011079
     4  C    0.001443  -0.001203  -0.000251   0.436050   0.428976   0.432700
     5  C   -0.004842  -0.022636   0.020943  -0.006623   0.000609   0.023910
     6  H   -0.006499   0.005499  -0.004765   0.006500  -0.000240  -0.002893
     7  H    0.532372  -0.031320  -0.023772  -0.000009   0.000022   0.000040
     8  H   -0.031320   0.521278  -0.024981  -0.000013   0.000025  -0.000048
     9  H   -0.023772  -0.024981   0.528648   0.000012  -0.000028  -0.000012
    10  H   -0.000009  -0.000013   0.000012   0.573906  -0.025534  -0.050996
    11  H    0.000022   0.000025  -0.000028  -0.025534   0.535510  -0.026034
    12  H    0.000040  -0.000048  -0.000012  -0.050996  -0.026034   0.573085
    13  H    0.000288   0.000024  -0.000192   0.000320  -0.000103  -0.002489
    14  H   -0.000814   0.000493  -0.000232   0.000369   0.000039  -0.001588
              13         14
     1  O    0.002754   0.007137
     2  C   -0.030080  -0.025991
     3  C   -0.000284   0.001550
     4  C   -0.001137  -0.000902
     5  C    0.398883   0.392062
     6  H    0.004004  -0.000855
     7  H    0.000288  -0.000814
     8  H    0.000024   0.000493
     9  H   -0.000192  -0.000232
    10  H    0.000320   0.000369
    11  H   -0.000103   0.000039
    12  H   -0.002489  -0.001588
    13  H    0.446983  -0.018341
    14  H   -0.018341   0.468024
          Atomic-Atomic Spin Densities.
               1          2          3          4          5          6
     1  O    0.028313   0.005188  -0.012795  -0.001156  -0.028054   0.004870
     2  C    0.005188  -0.062587  -0.004258   0.010220   0.003325   0.018690
     3  C   -0.012795  -0.004258   0.131167  -0.007825  -0.055669  -0.023044
     4  C   -0.001156   0.010220  -0.007825   0.042968  -0.020369   0.004236
     5  C   -0.028054   0.003325  -0.055669  -0.020369   1.225287  -0.018051
     6  H    0.004870   0.018690  -0.023044   0.004236  -0.018051   0.014904
     7  H   -0.000428   0.000385   0.012123  -0.000400  -0.012828  -0.000801
     8  H    0.000211   0.011479  -0.006722   0.000889  -0.006538  -0.000167
     9  H    0.000556   0.001371  -0.016267   0.000068   0.010802   0.002244
    10  H   -0.001282  -0.001065  -0.001432  -0.001122   0.002645  -0.000338
    11  H   -0.000029   0.000306   0.001035  -0.005731   0.002089  -0.000087
    12  H    0.003136   0.003275   0.000396   0.007485  -0.010961  -0.000161
    13  H    0.001876   0.002703  -0.000708   0.001248  -0.013133   0.000289
    14  H   -0.000026   0.009272  -0.001381   0.000314  -0.010966   0.000679
               7          8          9         10         11         12
     1  O   -0.000428   0.000211   0.000556  -0.001282  -0.000029   0.003136
     2  C    0.000385   0.011479   0.001371  -0.001065   0.000306   0.003275
     3  C    0.012123  -0.006722  -0.016267  -0.001432   0.001035   0.000396
     4  C   -0.000400   0.000889   0.000068  -0.001122  -0.005731   0.007485
     5  C   -0.012828  -0.006538   0.010802   0.002645   0.002089  -0.010961
     6  H   -0.000801  -0.000167   0.002244  -0.000338  -0.000087  -0.000161
     7  H   -0.004897   0.001329  -0.001526   0.000000   0.000001  -0.000001
     8  H    0.001329  -0.005021   0.000101  -0.000007   0.000004  -0.000003
     9  H   -0.001526   0.000101   0.014307   0.000033  -0.000021  -0.000010
    10  H    0.000000  -0.000007   0.000033  -0.001102   0.000713   0.000471
    11  H    0.000001   0.000004  -0.000021   0.000713   0.000847   0.000632
    12  H   -0.000001  -0.000003  -0.000010   0.000471   0.000632  -0.019226
    13  H    0.000041   0.000068   0.000002  -0.000066  -0.000071   0.000759
    14  H    0.000124   0.000114  -0.000021  -0.000020  -0.000014   0.000389
              13         14
     1  O    0.001876  -0.000026
     2  C    0.002703   0.009272
     3  C   -0.000708  -0.001381
     4  C    0.001248   0.000314
     5  C   -0.013133  -0.010966
     6  H    0.000289   0.000679
     7  H    0.000041   0.000124
     8  H    0.000068   0.000114
     9  H    0.000002  -0.000021
    10  H   -0.000066  -0.000020
    11  H   -0.000071  -0.000014
    12  H    0.000759   0.000389
    13  H   -0.055767   0.006797
    14  H    0.006797  -0.048049
 Mulliken charges and spin densities:
               1          2
     1  O   -0.134247   0.000381
     2  C   -0.176325  -0.001695
     3  C   -0.423691   0.014618
     4  C   -0.259692   0.030827
     5  C   -0.375049   1.067579
     6  H    0.165440   0.003262
     7  H    0.142783  -0.006878
     8  H    0.163101  -0.004263
     9  H    0.147654   0.011638
    10  H    0.113845  -0.002573
    11  H    0.132445  -0.000326
    12  H    0.125318  -0.013820
    13  H    0.199369  -0.055963
    14  H    0.179049  -0.042788
 Sum of Mulliken charges =  -0.00000   1.00000
 Mulliken charges and spin densities with hydrogens summed into heavy atoms:
               1          2
     1  O   -0.134247   0.000381
     2  C   -0.010885   0.001567
     3  C    0.029847   0.015116
     4  C    0.111916   0.014108
     5  C    0.003369   0.968829
 Electronic spatial extent (au):  <R**2>=            482.4112
 Charge=             -0.0000 electrons
 Dipole moment (field-independent basis, Debye):
    X=             -0.0664    Y=              0.8129    Z=              0.8375  Tot=              1.1690
 Quadrupole moment (field-independent basis, Debye-Ang):
   XX=            -30.7152   YY=            -33.8578   ZZ=            -32.6543
   XY=              0.0131   XZ=             -0.1218   YZ=             -0.7252
 Traceless Quadrupole moment (field-independent basis, Debye-Ang):
   XX=              1.6939   YY=             -1.4487   ZZ=             -0.2452
   XY=              0.0131   XZ=             -0.1218   YZ=             -0.7252
 Octapole moment (field-independent basis, Debye-Ang**2):
  XXX=             10.1464  YYY=             -2.7526  ZZZ=             -1.0530  XYY=             -0.7069
  XXY=             -2.9838  XXZ=             -0.0536  XZZ=              0.5368  YZZ=             -0.1096
  YYZ=              0.2031  XYZ=             -1.0899
 Hexadecapole moment (field-independent basis, Debye-Ang**3):
 XXXX=           -388.8578 YYYY=           -195.6212 ZZZZ=            -70.6626 XXXY=             -6.1669
 XXXZ=             -7.3877 YYYX=             -3.6231 YYYZ=              0.5175 ZZZX=              1.1154
 ZZZY=             -1.0069 XXYY=            -99.9216 XXZZ=            -77.9840 YYZZ=            -43.5729
 XXYZ=              3.1983 YYXZ=             -3.6090 ZZXY=             -1.4225
 N-N= 1.879769621961D+02 E-N=-9.188855811886D+02  KE= 2.320530355228D+02
                          Isotropic Fermi Contact Couplings
        Atom                 a.u.       MegaHertz       Gauss      10(-4) cm-1
     1  O(17)              0.01791     -10.85887      -3.87471      -3.62213
     2  C(13)             -0.03417     -38.40846     -13.70509     -12.81168
     3  C(13)              0.06435      72.34044      25.81287      24.13018
     4  C(13)              0.00410       4.61142       1.64547       1.53820
     5  C(13)              0.17194     193.28913      68.97037      64.47432
     6  H(1)               0.00554      24.78386       8.84350       8.26700
     7  H(1)               0.00041       1.83696       0.65547       0.61274
     8  H(1)              -0.00061      -2.71335      -0.96819      -0.90508
     9  H(1)               0.00486      21.74301       7.75845       7.25269
    10  H(1)              -0.00020      -0.89556      -0.31956      -0.29873
    11  H(1)              -0.00009      -0.41885      -0.14946      -0.13971
    12  H(1)               0.00029       1.28265       0.45768       0.42785
    13  H(1)              -0.01550     -69.26276     -24.71467     -23.10357
    14  H(1)              -0.01609     -71.94164     -25.67057     -23.99715
 --------------------------------------------------------
       Center         ----  Spin Dipole Couplings  ----
                      3XX-RR        3YY-RR        3ZZ-RR
 --------------------------------------------------------
     1   Atom       -0.000742      0.029303     -0.028561
     2   Atom       -0.008263      0.013002     -0.004738
     3   Atom        0.004360      0.026686     -0.031045
     4   Atom       -0.001400      0.014716     -0.013316
     5   Atom        0.883876     -0.450760     -0.433116
     6   Atom       -0.007746      0.005533      0.002213
     7   Atom        0.008397     -0.000377     -0.008020
     8   Atom       -0.005126      0.004712      0.000415
     9   Atom       -0.003586      0.008092     -0.004506
    10   Atom        0.001785     -0.000344     -0.001442
    11   Atom        0.002577      0.000458     -0.003035
    12   Atom        0.014260     -0.002790     -0.011470
    13   Atom       -0.008258     -0.061034      0.069292
    14   Atom        0.012773      0.001117     -0.013890
 --------------------------------------------------------
                        XY            XZ            YZ
 --------------------------------------------------------
     1   Atom       -0.037641     -0.014119      0.023637
     2   Atom        0.001865      0.003310      0.007050
     3   Atom        0.044303      0.007643      0.010214
     4   Atom       -0.002648     -0.000393     -0.004275
     5   Atom        0.367276      0.393535      0.102974
     6   Atom       -0.001555      0.002465     -0.015724
     7   Atom        0.007174     -0.006066     -0.002921
     8   Atom        0.006803      0.005665      0.006568
     9   Atom        0.001872      0.000697     -0.002899
    10   Atom       -0.004743      0.003449     -0.002768
    11   Atom       -0.003694     -0.001352      0.000814
    12   Atom       -0.008665     -0.001875     -0.000617
    13   Atom        0.020167     -0.006554     -0.027283
    14   Atom       -0.025400     -0.020426      0.065938
 --------------------------------------------------------


 ---------------------------------------------------------------------------------
              Anisotropic Spin Dipole Couplings in Principal Axis System
 ---------------------------------------------------------------------------------

       Atom             a.u.   MegaHertz   Gauss  10(-4) cm-1        Axes

              Baa    -0.0370     2.679     0.956     0.894  0.0448 -0.3127  0.9488
     1 O(17)  Bbb    -0.0260     1.884     0.672     0.629  0.8449  0.5186  0.1311
              Bcc     0.0631    -4.563    -1.628    -1.522 -0.5331  0.7957  0.2874
 
              Baa    -0.0105    -1.408    -0.502    -0.470  0.7922  0.1169 -0.5990
     2 C(13)  Bbb    -0.0053    -0.713    -0.254    -0.238  0.5986 -0.3401  0.7253
              Bcc     0.0158     2.121     0.757     0.707  0.1190  0.9331  0.3394
 
              Baa    -0.0328    -4.401    -1.571    -1.468 -0.0084 -0.1631  0.9866
     3 C(13)  Bbb    -0.0301    -4.045    -1.443    -1.349  0.7933 -0.6018 -0.0927
              Bcc     0.0629     8.446     3.014     2.817  0.6088  0.7818  0.1345
 
              Baa    -0.0140    -1.879    -0.670    -0.627  0.0628  0.1526  0.9863
     4 C(13)  Bbb    -0.0017    -0.233    -0.083    -0.078  0.9870  0.1370 -0.0841
              Bcc     0.0157     2.112     0.753     0.704 -0.1480  0.9787 -0.1420
 
              Baa    -0.5459   -73.254   -26.139   -24.435 -0.1286  0.9137 -0.3855
     5 C(13)  Bbb    -0.5412   -72.626   -25.915   -24.225 -0.3290  0.3274  0.8858
              Bcc     1.0871   145.881    52.054    48.661  0.9355  0.2407  0.2585
 
              Baa    -0.0121    -6.452    -2.302    -2.152 -0.1898  0.6443  0.7409
     6 H(1)   Bbb    -0.0079    -4.203    -1.500    -1.402  0.9766  0.2013  0.0751
              Bcc     0.0200    10.654     3.802     3.554 -0.1008  0.7378 -0.6674
 
              Baa    -0.0101    -5.367    -1.915    -1.790  0.2837  0.0780  0.9557
     7 H(1)   Bbb    -0.0044    -2.333    -0.832    -0.778 -0.4648  0.8830  0.0659
              Bcc     0.0144     7.700     2.748     2.568  0.8387  0.4629 -0.2868
 
              Baa    -0.0093    -4.985    -1.779    -1.663  0.9000 -0.2793 -0.3346
     8 H(1)   Bbb    -0.0043    -2.290    -0.817    -0.764  0.0908 -0.6307  0.7707
              Bcc     0.0136     7.276     2.596     2.427  0.4263  0.7240  0.5423
 
              Baa    -0.0057    -3.062    -1.093    -1.021 -0.4828  0.2417  0.8417
     9 H(1)   Bbb    -0.0032    -1.715    -0.612    -0.572  0.8655 -0.0149  0.5007
              Bcc     0.0090     4.777     1.705     1.594  0.1336  0.9702 -0.2020
 
              Baa    -0.0041    -2.209    -0.788    -0.737  0.6219  0.7831  0.0085
    10 H(1)   Bbb    -0.0036    -1.908    -0.681    -0.637 -0.3452  0.2645  0.9005
              Bcc     0.0077     4.117     1.469     1.373  0.7029 -0.5629  0.4348
 
              Baa    -0.0033    -1.784    -0.637    -0.595  0.2339  0.0192  0.9721
    11 H(1)   Bbb    -0.0023    -1.227    -0.438    -0.409  0.5694  0.8077 -0.1530
              Bcc     0.0056     3.012     1.075     1.005  0.7881 -0.5893 -0.1780
 
              Baa    -0.0119    -6.324    -2.257    -2.110  0.1343  0.1945  0.9717
    12 H(1)   Bbb    -0.0061    -3.262    -1.164    -1.088  0.3627  0.9028 -0.2309
              Bcc     0.0180     9.586     3.421     3.198  0.9222 -0.3835 -0.0507
 
              Baa    -0.0719   -38.384   -13.696   -12.804 -0.2817  0.9444  0.1694
    13 H(1)   Bbb    -0.0042    -2.215    -0.790    -0.739  0.9512  0.2517  0.1784
              Bcc     0.0761    40.599    14.487    13.542 -0.1259 -0.2114  0.9693
 
              Baa    -0.0728   -38.835   -13.857   -12.954 -0.0216 -0.6697  0.7423
    14 H(1)   Bbb    -0.0038    -2.028    -0.723    -0.676  0.8905  0.3246  0.3188
              Bcc     0.0766    40.863    14.581    13.630 -0.4545  0.6679  0.5894
 

 ---------------------------------------------------------------------------------

 No NMR shielding tensors so no spin-rotation constants.
 Leave Link  601 at Mon Mar 11 02:29:30 2019, MaxMem=   671088640 cpu:               9.0 elap:               0.5
 (Enter /shared/centos7/gaussian/g16/l9999.exe)
 1\1\GINC-C0158\Scan\UM062X\6-311+G(2df,2p)\C4H9O1(2)\UNDERKOFFLER.C\11
 -Mar-2019\0\\#p m062x/6-311+g(2df,2p) Opt=(CalcFC,ModRedun)\\Gaussian 
 Input Prepared from Scan Object\\0,2\O,0.5599634812,-0.5590221347,-0.1
 809916277\C,-0.4066151892,0.3758547721,0.2611801761\C,-1.7572984734,-0
 .1444960987,-0.2196776412\C,1.8381823775,-0.3440461291,0.3626725828\C,
 -0.125988904,1.7443674868,-0.2577279245\H,-0.404682847,0.3968878208,1.
 3603652035\H,-2.5594488915,0.5148115944,0.1081328921\H,-1.7627104311,-
 0.1895644763,-1.3082384373\H,-1.9313317911,-1.1449631886,0.1742638093\
 H,1.8107509375,-0.3847982014,1.4573712564\H,2.4843708935,-1.1366778024
 ,-0.0062960685\H,2.2492408993,0.624107644,0.061584987\H,0.2095491914,1
 .8542715729,-1.2794932552\H,-0.4406110575,2.6220963468,0.2856747263\\V
 ersion=EM64L-G16RevA.03\State=2-A\HF=-232.9546578,-232.954461,-232.953
 9107,-232.9531199,-232.9522915,-232.9516679,-232.9514492,-232.9517169,
 -232.952384,-232.9532295,-232.9539979,-232.954505,-232.9546561,-232.95
 44273,-232.9538566,-232.9530589,-232.9522404,-232.951641,-232.9514515,
 -232.9517415,-232.9524165,-232.953258,-232.9540171,-232.9545147,-232.9
 546546,-232.9544077,-232.9538142,-232.953003,-232.9521969,-232.9516264
 ,-232.9514515,-232.9517215,-232.9523579,-232.9531748,-232.9539412,-232
 .9544725,-232.9546578\S2=0.755169,0.755177,0.755177,0.755173,0.755165,
 0.755157,0.755147,0.755135,0.755126,0.755125,0.755135,0.755153,0.75517
 ,0.755178,0.755179,0.755174,0.755166,0.755157,0.755146,0.755135,0.7551
 26,0.755125,0.755136,0.755154,0.75517,0.755178,0.755179,0.755174,0.755
 165,0.755157,0.755146,0.755135,0.755125,0.755125,0.755134,0.755152,0.7
 55169\S2-1=0.,0.,0.,0.,0.,0.,0.,0.,0.,0.,0.,0.,0.,0.,0.,0.,0.,0.,0.,0.
 ,0.,0.,0.,0.,0.,0.,0.,0.,0.,0.,0.,0.,0.,0.,0.,0.,0.\S2A=0.75002,0.7500
 2,0.75002,0.75002,0.75002,0.75002,0.75002,0.75002,0.75002,0.75002,0.75
 002,0.75002,0.75002,0.75002,0.75002,0.75002,0.75002,0.75002,0.75002,0.
 75002,0.75002,0.75002,0.75002,0.75002,0.75002,0.75002,0.75002,0.75002,
 0.75002,0.75002,0.75002,0.75002,0.75002,0.75002,0.75002,0.75002,0.7500
 2\RMSD=6.600e-09,7.799e-09,4.025e-09,3.626e-09,7.558e-09,5.647e-09,7.1
 72e-09,2.704e-09,3.763e-09,5.601e-09,3.504e-09,5.586e-09,4.725e-09,3.6
 58e-09,3.749e-09,4.402e-09,9.828e-09,5.264e-09,4.688e-09,6.449e-09,4.8
 90e-09,4.505e-09,4.929e-09,8.229e-09,4.824e-09,5.310e-09,3.855e-09,3.7
 70e-09,3.908e-09,8.580e-09,9.986e-09,4.579e-09,4.591e-09,4.812e-09,6.3
 83e-09,8.890e-09,7.054e-09\PG=C01 [X(C4H9O1)]\\@


 ART, GLORY, FREEDOM FAIL, BUT NATURE STILL IS FAIR.

                                           -- BYRON
 Job cpu time:       1 days 23 hours 43 minutes 54.8 seconds.
 Elapsed time:       0 days  2 hours 24 minutes  1.2 seconds.
 File lengths (MBytes):  RWF=   1376 Int=      0 D2E=      0 Chk=     32 Scr=     32
 Normal termination of Gaussian 16 at Mon Mar 11 02:29:30 2019.
