 Entering Gaussian System, Link 0=g16
 Input=TVFRQKHUZDMLDB-UHFFFAOYSA-N_72by10.0_tor03_a1.com
 Output=TVFRQKHUZDMLDB-UHFFFAOYSA-N_72by10.0_tor03_a1.log
 Initial command:
 /shared/centos7/gaussian/g16/l1.exe "/scratch/underkoffler.c/gaussian_scratch/Gau-23355.inp" -scrdir="/scratch/underkoffler.c/gaussian_scratch/"
 Entering Link 1 = /shared/centos7/gaussian/g16/l1.exe PID=     23356.
  
 Copyright (c) 1988,1990,1992,1993,1995,1998,2003,2009,2016,
            Gaussian, Inc.  All Rights Reserved.
  
 This is part of the Gaussian(R) 16 program.  It is based on
 the Gaussian(R) 09 system (copyright 2009, Gaussian, Inc.),
 the Gaussian(R) 03 system (copyright 2003, Gaussian, Inc.),
 the Gaussian(R) 98 system (copyright 1998, Gaussian, Inc.),
 the Gaussian(R) 94 system (copyright 1995, Gaussian, Inc.),
 the Gaussian 92(TM) system (copyright 1992, Gaussian, Inc.),
 the Gaussian 90(TM) system (copyright 1990, Gaussian, Inc.),
 the Gaussian 88(TM) system (copyright 1988, Gaussian, Inc.),
 the Gaussian 86(TM) system (copyright 1986, Carnegie Mellon
 University), and the Gaussian 82(TM) system (copyright 1983,
 Carnegie Mellon University). Gaussian is a federally registered
 trademark of Gaussian, Inc.
  
 This software contains proprietary and confidential information,
 including trade secrets, belonging to Gaussian, Inc.
  
 This software is provided under written license and may be
 used, copied, transmitted, or stored only in accord with that
 written license.
  
 The following legend is applicable only to US Government
 contracts under FAR:
  
                    RESTRICTED RIGHTS LEGEND
  
 Use, reproduction and disclosure by the US Government is
 subject to restrictions as set forth in subparagraphs (a)
 and (c) of the Commercial Computer Software - Restricted
 Rights clause in FAR 52.227-19.
  
 Gaussian, Inc.
 340 Quinnipiac St., Bldg. 40, Wallingford CT 06492
  
  
 ---------------------------------------------------------------
 Warning -- This program may not be used in any manner that
 competes with the business of Gaussian, Inc. or will provide
 assistance to any competitor of Gaussian, Inc.  The licensee
 of this program is prohibited from giving any competitor of
 Gaussian, Inc. access to this program.  By using this program,
 the user acknowledges that Gaussian, Inc. is engaged in the
 business of creating and licensing software in the field of
 computational chemistry and represents and warrants to the
 licensee that it is not a competitor of Gaussian, Inc. and that
 it will not use this program in any manner prohibited above.
 ---------------------------------------------------------------
  

 Cite this work as:
 Gaussian 16, Revision A.03,
 M. J. Frisch, G. W. Trucks, H. B. Schlegel, G. E. Scuseria, 
 M. A. Robb, J. R. Cheeseman, G. Scalmani, V. Barone, 
 G. A. Petersson, H. Nakatsuji, X. Li, M. Caricato, A. V. Marenich, 
 J. Bloino, B. G. Janesko, R. Gomperts, B. Mennucci, H. P. Hratchian, 
 J. V. Ortiz, A. F. Izmaylov, J. L. Sonnenberg, D. Williams-Young, 
 F. Ding, F. Lipparini, F. Egidi, J. Goings, B. Peng, A. Petrone, 
 T. Henderson, D. Ranasinghe, V. G. Zakrzewski, J. Gao, N. Rega, 
 G. Zheng, W. Liang, M. Hada, M. Ehara, K. Toyota, R. Fukuda, 
 J. Hasegawa, M. Ishida, T. Nakajima, Y. Honda, O. Kitao, H. Nakai, 
 T. Vreven, K. Throssell, J. A. Montgomery, Jr., J. E. Peralta, 
 F. Ogliaro, M. J. Bearpark, J. J. Heyd, E. N. Brothers, K. N. Kudin, 
 V. N. Staroverov, T. A. Keith, R. Kobayashi, J. Normand, 
 K. Raghavachari, A. P. Rendell, J. C. Burant, S. S. Iyengar, 
 J. Tomasi, M. Cossi, J. M. Millam, M. Klene, C. Adamo, R. Cammi, 
 J. W. Ochterski, R. L. Martin, K. Morokuma, O. Farkas, 
 J. B. Foresman, and D. J. Fox, Gaussian, Inc., Wallingford CT, 2016.
 
 ******************************************
 Gaussian 16:  EM64L-G16RevA.03 25-Dec-2016
                 9-Mar-2019 
 ******************************************
 %nprocshared=20
 Will use up to   20 processors via shared memory.
 %mem=5GB
 ----------------------------------------------
 #p m062x/6-311+g(2df,2p) Opt=(CalcFC,ModRedun)
 ----------------------------------------------
 1/10=4,18=120,19=15,26=3,38=1/1,3;
 2/9=110,12=2,17=6,18=5,40=1/2;
 3/5=4,6=6,7=214,11=2,25=1,30=1,71=2,74=-55,140=1/1,2,3;
 4//1;
 5/5=2,38=5/2;
 8/6=4,10=90,11=11/1;
 11/6=1,8=1,9=11,15=111,16=1/1,2,10;
 10/6=1,13=1/2;
 6/7=2,8=2,9=2,10=2,28=1/1;
 7/10=1,18=20,25=1/1,2,3,16;
 1/10=4,18=20,19=15,26=3/3(2);
 2/9=110/2;
 99//99;
 2/9=110/2;
 3/5=4,6=6,7=214,11=2,25=1,30=1,71=1,74=-55/1,2,3;
 4/5=5,16=3,69=1/1;
 5/5=2,38=5/2;
 7//1,2,3,16;
 1/18=20,19=15,26=3/3(-5);
 2/9=110/2;
 6/7=2,8=2,9=2,10=2,19=2,28=1/1;
 99/9=1/99;
 Leave Link    1 at Sat Mar  9 13:21:35 2019, MaxMem=   671088640 cpu:              36.4 elap:               1.9
 (Enter /shared/centos7/gaussian/g16/l101.exe)
 ----------------------------------------
 Gaussian Input Prepared from Scan Object
 ----------------------------------------
 Symbolic Z-matrix:
 Charge =  0 Multiplicity = 2
 O                     0.37833  -0.40335   0.84034 
 C                     0.02705   0.64939  -0.04542 
 C                    -0.17924   0.14258  -1.46 
 C                     1.66995  -0.78353   0.8069 
 H                    -0.89349   1.07309   0.3514 
 H                     0.80167   1.42061  -0.00883 
 H                     0.73632  -0.29539  -1.85587 
 H                    -0.47597   0.96261  -2.11325 
 H                    -0.95937  -0.61683  -1.47727 
 H                     2.29221  -0.45369  -0.01345 
 H                     1.88991  -1.67868   1.36359 
 
 The following ModRedundant input section has been read:
 B       2       3 B                                                           
 B       2       6 B                                                           
 B       4      11 B                                                           
 B       4      10 B                                                           
 B       3       8 B                                                           
 B       3       7 B                                                           
 B       3       9 B                                                           
 B       1       2 B                                                           
 B       2       5 B                                                           
 B       1       4 B                                                           
 D      11       1       4      10 S  72 10.000                                
 
 Add atom      4 valence  3 ND=      2 dihedral       1      4     10     11
 ITRead=  0  0  0  0  0  0  0  0  0  0  0
 MicOpt= -1 -1 -1 -1 -1 -1 -1 -1 -1 -1 -1
 NAtoms=     11 NQM=       11 NQMF=       0 NMMI=      0 NMMIF=      0
                NMic=       0 NMicF=      0.
                    Isotopes and Nuclear Properties:
 (Nuclear quadrupole moments (NQMom) in fm**2, nuclear magnetic moments (NMagM)
  in nuclear magnetons)

  Atom         1           2           3           4           5           6           7           8           9          10
 IAtWgt=          16          12          12          12           1           1           1           1           1           1
 AtmWgt=  15.9949146  12.0000000  12.0000000  12.0000000   1.0078250   1.0078250   1.0078250   1.0078250   1.0078250   1.0078250
 NucSpn=           0           0           0           0           1           1           1           1           1           1
 AtZEff=  -0.0000000  -0.0000000  -0.0000000  -0.0000000  -0.0000000  -0.0000000  -0.0000000  -0.0000000  -0.0000000  -0.0000000
 NQMom=    0.0000000   0.0000000   0.0000000   0.0000000   0.0000000   0.0000000   0.0000000   0.0000000   0.0000000   0.0000000
 NMagM=    0.0000000   0.0000000   0.0000000   0.0000000   2.7928460   2.7928460   2.7928460   2.7928460   2.7928460   2.7928460
 AtZNuc=   8.0000000   6.0000000   6.0000000   6.0000000   1.0000000   1.0000000   1.0000000   1.0000000   1.0000000   1.0000000

  Atom        11
 IAtWgt=           1
 AtmWgt=   1.0078250
 NucSpn=           1
 AtZEff=  -0.0000000
 NQMom=    0.0000000
 NMagM=    2.7928460
 AtZNuc=   1.0000000
 Leave Link  101 at Sat Mar  9 13:21:35 2019, MaxMem=   671088640 cpu:               5.5 elap:               0.3
 (Enter /shared/centos7/gaussian/g16/l103.exe)

 GradGradGradGradGradGradGradGradGradGradGradGradGradGradGradGradGradGrad
 Berny optimization.
 Initialization pass.
                           ----------------------------
                           !    Initial Parameters    !
                           ! (Angstroms and Degrees)  !
 --------------------------                            --------------------------
 ! Name  Definition              Value          Derivative Info.                !
 --------------------------------------------------------------------------------
 ! R1    R(1,2)                  1.4199         calculate D2E/DX2 analytically  !
 ! R2    R(1,4)                  1.3468         calculate D2E/DX2 analytically  !
 ! R3    R(2,3)                  1.5167         calculate D2E/DX2 analytically  !
 ! R4    R(2,5)                  1.0883         calculate D2E/DX2 analytically  !
 ! R5    R(2,6)                  1.0937         calculate D2E/DX2 analytically  !
 ! R6    R(3,7)                  1.0894         calculate D2E/DX2 analytically  !
 ! R7    R(3,8)                  1.0896         calculate D2E/DX2 analytically  !
 ! R8    R(3,9)                  1.0889         calculate D2E/DX2 analytically  !
 ! R9    R(4,10)                 1.0812         calculate D2E/DX2 analytically  !
 ! R10   R(4,11)                 1.0768         calculate D2E/DX2 analytically  !
 ! A1    A(2,1,4)              115.534          calculate D2E/DX2 analytically  !
 ! A2    A(1,2,3)              111.5739         calculate D2E/DX2 analytically  !
 ! A3    A(1,2,5)              105.6908         calculate D2E/DX2 analytically  !
 ! A4    A(1,2,6)              109.0692         calculate D2E/DX2 analytically  !
 ! A5    A(3,2,5)              110.8008         calculate D2E/DX2 analytically  !
 ! A6    A(3,2,6)              111.2941         calculate D2E/DX2 analytically  !
 ! A7    A(5,2,6)              108.2017         calculate D2E/DX2 analytically  !
 ! A8    A(2,3,7)              111.0357         calculate D2E/DX2 analytically  !
 ! A9    A(2,3,8)              110.1642         calculate D2E/DX2 analytically  !
 ! A10   A(2,3,9)              110.1994         calculate D2E/DX2 analytically  !
 ! A11   A(7,3,8)              108.2752         calculate D2E/DX2 analytically  !
 ! A12   A(7,3,9)              108.4203         calculate D2E/DX2 analytically  !
 ! A13   A(8,3,9)              108.6788         calculate D2E/DX2 analytically  !
 ! A14   A(1,4,10)             118.9905         calculate D2E/DX2 analytically  !
 ! A15   A(1,4,11)             114.6903         calculate D2E/DX2 analytically  !
 ! A16   A(10,4,11)            121.8894         calculate D2E/DX2 analytically  !
 ! D1    D(4,1,2,3)             80.0113         calculate D2E/DX2 analytically  !
 ! D2    D(4,1,2,5)           -159.476          calculate D2E/DX2 analytically  !
 ! D3    D(4,1,2,6)            -43.3467         calculate D2E/DX2 analytically  !
 ! D4    D(2,1,4,10)           -13.9423         calculate D2E/DX2 analytically  !
 ! D5    D(2,1,4,11)          -170.7907         calculate D2E/DX2 analytically  !
 ! D6    D(11,1,4,10)          156.8484         Scan                            !
 ! D7    D(1,2,3,7)            -61.7156         calculate D2E/DX2 analytically  !
 ! D8    D(1,2,3,8)            178.3418         calculate D2E/DX2 analytically  !
 ! D9    D(1,2,3,9)             58.4319         calculate D2E/DX2 analytically  !
 ! D10   D(5,2,3,7)           -179.1868         calculate D2E/DX2 analytically  !
 ! D11   D(5,2,3,8)             60.8706         calculate D2E/DX2 analytically  !
 ! D12   D(5,2,3,9)            -59.0393         calculate D2E/DX2 analytically  !
 ! D13   D(6,2,3,7)             60.3696         calculate D2E/DX2 analytically  !
 ! D14   D(6,2,3,8)            -59.5731         calculate D2E/DX2 analytically  !
 ! D15   D(6,2,3,9)           -179.483          calculate D2E/DX2 analytically  !
 ! D16   D(1,4,10,11)         -155.1198         calculate D2E/DX2 analytically  !
 --------------------------------------------------------------------------------
 Trust Radius=3.00D-01 FncErr=1.00D-07 GrdErr=1.00D-06 EigMax=2.50D+02 EigMin=1.00D-04
 Number of optimizations in scan=  73
 Number of steps in this run=     52 maximum allowed number of steps=    100.
 GradGradGradGradGradGradGradGradGradGradGradGradGradGradGradGradGradGrad

 Leave Link  103 at Sat Mar  9 13:21:35 2019, MaxMem=   671088640 cpu:               0.2 elap:               0.0
 (Enter /shared/centos7/gaussian/g16/l202.exe)
                          Input orientation:                          
 ---------------------------------------------------------------------
 Center     Atomic      Atomic             Coordinates (Angstroms)
 Number     Number       Type             X           Y           Z
 ---------------------------------------------------------------------
      1          8           0        0.378335   -0.403347    0.840343
      2          6           0        0.027049    0.649392   -0.045417
      3          6           0       -0.179236    0.142579   -1.460000
      4          6           0        1.669950   -0.783531    0.806900
      5          1           0       -0.893491    1.073086    0.351404
      6          1           0        0.801670    1.420611   -0.008831
      7          1           0        0.736322   -0.295391   -1.855873
      8          1           0       -0.475968    0.962608   -2.113245
      9          1           0       -0.959367   -0.616830   -1.477274
     10          1           0        2.292213   -0.453690   -0.013452
     11          1           0        1.889914   -1.678682    1.363588
 ---------------------------------------------------------------------
                    Distance matrix (angstroms):
                    1          2          3          4          5
     1  O    0.000000
     2  C    1.419941   0.000000
     3  C    2.429094   1.516727   0.000000
     4  C    1.346822   2.340692   3.068551   0.000000
     5  H    2.009094   1.088292   2.158053   3.197771   0.000000
     6  H    2.055999   1.093688   2.168279   2.505508   1.767516
     7  H    2.722019   2.161812   1.089394   2.863616   3.066121
     8  H    3.364424   2.151056   1.089599   4.022588   2.502205
     9  H    2.684468   2.150942   1.088855   3.486911   2.490827
    10  H    2.096289   2.519678   2.925081   1.081195   3.551461
    11  H    2.045760   3.297801   3.946014   1.076838   4.042782
                    6          7          8          9         10
     6  H    0.000000
     7  H    2.522002   0.000000
     8  H    2.504134   1.765913   0.000000
     9  H    3.067367   1.766925   1.769960   0.000000
    10  H    2.394732   2.416685   3.752046   3.569616   0.000000
    11  H    3.559975   3.689064   4.966103   4.161302   1.886449
                   11
    11  H    0.000000
 Stoichiometry    C3H7O(2)
 Framework group  C1[X(C3H7O)]
 Deg. of freedom    27
 Full point group                 C1      NOp   1
 Largest Abelian subgroup         C1      NOp   1
 Largest concise Abelian subgroup C1      NOp   1
                         Standard orientation:                         
 ---------------------------------------------------------------------
 Center     Atomic      Atomic             Coordinates (Angstroms)
 Number     Number       Type             X           Y           Z
 ---------------------------------------------------------------------
      1          8           0        0.716468   -0.483321   -0.365340
      2          6           0       -0.537418   -0.600792    0.290561
      3          6           0       -1.494627    0.495846   -0.135578
      4          6           0        1.559593    0.429997    0.153234
      5          1           0       -0.923664   -1.579924    0.013987
      6          1           0       -0.377181   -0.589870    1.372391
      7          1           0       -1.104934    1.478756    0.126735
      8          1           0       -2.457269    0.367000    0.358330
      9          1           0       -1.648333    0.462992   -1.213028
     10          1           0        1.176718    1.157418    0.855551
     11          1           0        2.437628    0.619895   -0.440545
 ---------------------------------------------------------------------
 Rotational constants (GHZ):          17.7918715           5.3719894           4.7534763
 Leave Link  202 at Sat Mar  9 13:21:35 2019, MaxMem=   671088640 cpu:               0.1 elap:               0.0
 (Enter /shared/centos7/gaussian/g16/l301.exe)
 Standard basis: 6-311+G(2df,2p) (5D, 7F)
 Ernie: Thresh=  0.10000D-02 Tol=  0.10000D-05 Strict=F.
 There are   219 symmetry adapted cartesian basis functions of A   symmetry.
 There are   199 symmetry adapted basis functions of A   symmetry.
   199 basis functions,   285 primitive gaussians,   219 cartesian basis functions
    17 alpha electrons       16 beta electrons
       nuclear repulsion energy       127.9491168873 Hartrees.
 IExCor= 4336 DFT=T Ex+Corr=M062X ExCW=0 ScaHFX=  0.540000
 ScaDFX=  1.000000  1.000000  1.000000  1.000000 ScalE2=  1.000000  1.000000
 IRadAn=      5 IRanWt=     -1 IRanGd=            0 ICorTp=0 IEmpDi=  4
 NAtoms=   11 NActive=   11 NUniq=   11 SFac= 1.00D+00 NAtFMM=   60 NAOKFM=F Big=F
 Integral buffers will be    131072 words long.
 Raffenetti 2 integral format.
 Two-electron integral symmetry is turned on.
 Leave Link  301 at Sat Mar  9 13:21:35 2019, MaxMem=   671088640 cpu:               1.2 elap:               0.1
 (Enter /shared/centos7/gaussian/g16/l302.exe)
 NPDir=0 NMtPBC=     1 NCelOv=     1 NCel=       1 NClECP=     1 NCelD=      1
         NCelK=      1 NCelE2=     1 NClLst=     1 CellRange=     0.0.
 One-electron integrals computed using PRISM.
 One-electron integral symmetry used in STVInt
 NBasis=   199 RedAO= T EigKep=  8.75D-05  NBF=   199
 NBsUse=   199 1.00D-06 EigRej= -1.00D+00 NBFU=   199
 Precomputing XC quadrature grid using
 IXCGrd= 4 IRadAn=           5 IRanWt=          -1 IRanGd=           0 AccXCQ= 0.00D+00.
 Generated NRdTot=       0 NPtTot=           0 NUsed=           0 NTot=          32
 NSgBfM=   219   219   219   219   219 MxSgAt=    11 MxSgA2=    11.
 Leave Link  302 at Sat Mar  9 13:21:36 2019, MaxMem=   671088640 cpu:               4.4 elap:               0.2
 (Enter /shared/centos7/gaussian/g16/l303.exe)
 DipDrv:  MaxL=1.
 Leave Link  303 at Sat Mar  9 13:21:36 2019, MaxMem=   671088640 cpu:               0.4 elap:               0.0
 (Enter /shared/centos7/gaussian/g16/l401.exe)
 ExpMin= 4.38D-02 ExpMax= 8.59D+03 ExpMxC= 1.30D+03 IAcc=3 IRadAn=         5 AccDes= 0.00D+00
 Harris functional with IExCor= 1009 and IRadAn=       5 diagonalized for initial guess.
 HarFok:  IExCor= 1009 AccDes= 0.00D+00 IRadAn=         5 IDoV= 1 UseB2=F ITyADJ=14
 ICtDFT=  3500011 ScaDFX=  1.000000  1.000000  1.000000  1.000000
 FoFCou: FMM=F IPFlag=           0 FMFlag=      100000 FMFlg1=           0
         NFxFlg=           0 DoJE=T BraDBF=F KetDBF=T FulRan=T
         wScrn=  0.000000 ICntrl=       500 IOpCl=  0 I1Cent=   200000004 NGrid=           0
         NMat0=    1 NMatS0=      1 NMatT0=    0 NMatD0=    1 NMtDS0=    0 NMtDT0=    0
 Petite list used in FoFCou.
 Harris En= -193.576541563781    
 JPrj=0 DoOrth=F DoCkMO=F.
 Initial guess <Sx>= 0.0000 <Sy>= 0.0000 <Sz>= 0.5000 <S**2>= 0.7500 S= 0.5000
 Leave Link  401 at Sat Mar  9 13:21:36 2019, MaxMem=   671088640 cpu:              13.7 elap:               0.7
 (Enter /shared/centos7/gaussian/g16/l502.exe)
 Keep R1 and R2 ints in memory in canonical form, NReq=416958841.
 FoFCou: FMM=F IPFlag=           0 FMFlag=           0 FMFlg1=           0
         NFxFlg=           0 DoJE=F BraDBF=F KetDBF=F FulRan=T
         wScrn=  0.000000 ICntrl=       600 IOpCl=  0 I1Cent=           0 NGrid=           0
         NMat0=    1 NMatS0=  19900 NMatT0=    0 NMatD0=    1 NMtDS0=    0 NMtDT0=    0
 Symmetry not used in FoFCou.
 Two-electron integral symmetry not used.
 UHF open shell SCF:
 Using DIIS extrapolation, IDIIS=  1040.
 NGot=   671088640 LenX=   274956345 LenY=   274907943
 Requested convergence on RMS density matrix=1.00D-08 within 128 cycles.
 Requested convergence on MAX density matrix=1.00D-06.
 Requested convergence on             energy=1.00D-06.
 No special actions if energy rises.

 Cycle   1  Pass 1  IDiag  1:
 E= -193.525914126167    
 DIIS: error= 2.07D-02 at cycle   1 NSaved=   1.
 NSaved= 1 IEnMin= 1 EnMin= -193.525914126167     IErMin= 1 ErrMin= 2.07D-02
 ErrMax= 2.07D-02  0.00D+00 EMaxC= 1.00D-01 BMatC= 6.05D-01 BMatP= 6.05D-01
 IDIUse=3 WtCom= 7.93D-01 WtEn= 2.07D-01
 Coeff-Com:  0.100D+01
 Coeff-En:   0.100D+01
 Coeff:      0.100D+01
 Gap=     0.221 Goal=   None    Shift=    0.000
 Gap=     0.425 Goal=   None    Shift=    0.000
 GapD=    0.221 DampG=1.000 DampE=0.500 DampFc=0.5000 IDamp=-1.
 Damping current iteration by 5.00D-01
 RMSDP=2.43D-03 MaxDP=1.13D-01              OVMax= 1.35D-01

 Cycle   2  Pass 1  IDiag  1:
 E= -193.592535237991     Delta-E=       -0.066621111824 Rises=F Damp=T
 DIIS: error= 4.87D-03 at cycle   2 NSaved=   2.
 NSaved= 2 IEnMin= 2 EnMin= -193.592535237991     IErMin= 2 ErrMin= 4.87D-03
 ErrMax= 4.87D-03  0.00D+00 EMaxC= 1.00D-01 BMatC= 4.86D-02 BMatP= 6.05D-01
 IDIUse=3 WtCom= 9.51D-01 WtEn= 4.87D-02
 Coeff-Com: -0.188D+00 0.119D+01
 Coeff-En:   0.000D+00 0.100D+01
 Coeff:     -0.178D+00 0.118D+01
 Gap=     0.242 Goal=   None    Shift=    0.000
 Gap=     0.403 Goal=   None    Shift=    0.000
 RMSDP=7.53D-04 MaxDP=3.68D-02 DE=-6.66D-02 OVMax= 6.88D-02

 Cycle   3  Pass 1  IDiag  1:
 E= -193.651586015863     Delta-E=       -0.059050777871 Rises=F Damp=F
 DIIS: error= 2.19D-03 at cycle   3 NSaved=   3.
 NSaved= 3 IEnMin= 3 EnMin= -193.651586015863     IErMin= 3 ErrMin= 2.19D-03
 ErrMax= 2.19D-03  0.00D+00 EMaxC= 1.00D-01 BMatC= 4.53D-03 BMatP= 4.86D-02
 IDIUse=3 WtCom= 9.78D-01 WtEn= 2.19D-02
 Coeff-Com: -0.845D-01 0.250D+00 0.835D+00
 Coeff-En:   0.000D+00 0.000D+00 0.100D+01
 Coeff:     -0.826D-01 0.244D+00 0.838D+00
 Gap=     0.243 Goal=   None    Shift=    0.000
 Gap=     0.370 Goal=   None    Shift=    0.000
 RMSDP=1.50D-04 MaxDP=5.33D-03 DE=-5.91D-02 OVMax= 8.66D-03

 Cycle   4  Pass 1  IDiag  1:
 E= -193.652651610999     Delta-E=       -0.001065595136 Rises=F Damp=F
 DIIS: error= 7.03D-04 at cycle   4 NSaved=   4.
 NSaved= 4 IEnMin= 4 EnMin= -193.652651610999     IErMin= 4 ErrMin= 7.03D-04
 ErrMax= 7.03D-04  0.00D+00 EMaxC= 1.00D-01 BMatC= 4.95D-04 BMatP= 4.53D-03
 IDIUse=3 WtCom= 9.93D-01 WtEn= 7.03D-03
 Coeff-Com: -0.181D-01 0.405D-01 0.268D+00 0.709D+00
 Coeff-En:   0.000D+00 0.000D+00 0.000D+00 0.100D+01
 Coeff:     -0.180D-01 0.403D-01 0.266D+00 0.711D+00
 Gap=     0.242 Goal=   None    Shift=    0.000
 Gap=     0.374 Goal=   None    Shift=    0.000
 RMSDP=4.83D-05 MaxDP=3.03D-03 DE=-1.07D-03 OVMax= 9.71D-03

 Cycle   5  Pass 1  IDiag  1:
 E= -193.652793410500     Delta-E=       -0.000141799502 Rises=F Damp=F
 DIIS: error= 3.94D-04 at cycle   5 NSaved=   5.
 NSaved= 5 IEnMin= 5 EnMin= -193.652793410500     IErMin= 5 ErrMin= 3.94D-04
 ErrMax= 3.94D-04  0.00D+00 EMaxC= 1.00D-01 BMatC= 1.69D-04 BMatP= 4.95D-04
 IDIUse=3 WtCom= 9.96D-01 WtEn= 3.94D-03
 Coeff-Com:  0.235D-02-0.141D-01 0.225D-01 0.355D+00 0.634D+00
 Coeff-En:   0.000D+00 0.000D+00 0.000D+00 0.000D+00 0.100D+01
 Coeff:      0.234D-02-0.140D-01 0.224D-01 0.354D+00 0.636D+00
 Gap=     0.243 Goal=   None    Shift=    0.000
 Gap=     0.373 Goal=   None    Shift=    0.000
 RMSDP=2.95D-05 MaxDP=1.27D-03 DE=-1.42D-04 OVMax= 2.66D-03

 Cycle   6  Pass 1  IDiag  1:
 E= -193.652842067243     Delta-E=       -0.000048656743 Rises=F Damp=F
 DIIS: error= 2.05D-04 at cycle   6 NSaved=   6.
 NSaved= 6 IEnMin= 6 EnMin= -193.652842067243     IErMin= 6 ErrMin= 2.05D-04
 ErrMax= 2.05D-04  0.00D+00 EMaxC= 1.00D-01 BMatC= 1.92D-05 BMatP= 1.69D-04
 IDIUse=3 WtCom= 9.98D-01 WtEn= 2.05D-03
 Coeff-Com:  0.620D-02-0.142D-01-0.825D-01-0.118D+00 0.565D-03 0.121D+01
 Coeff-En:   0.000D+00 0.000D+00 0.000D+00 0.000D+00 0.000D+00 0.100D+01
 Coeff:      0.618D-02-0.142D-01-0.823D-01-0.118D+00 0.564D-03 0.121D+01
 Gap=     0.244 Goal=   None    Shift=    0.000
 Gap=     0.374 Goal=   None    Shift=    0.000
 RMSDP=3.47D-05 MaxDP=1.53D-03 DE=-4.87D-05 OVMax= 4.98D-03

 Cycle   7  Pass 1  IDiag  1:
 E= -193.652862566294     Delta-E=       -0.000020499051 Rises=F Damp=F
 DIIS: error= 7.98D-05 at cycle   7 NSaved=   7.
 NSaved= 7 IEnMin= 7 EnMin= -193.652862566294     IErMin= 7 ErrMin= 7.98D-05
 ErrMax= 7.98D-05  0.00D+00 EMaxC= 1.00D-01 BMatC= 7.07D-06 BMatP= 1.92D-05
 IDIUse=1 WtCom= 1.00D+00 WtEn= 0.00D+00
 Coeff-Com:  0.156D-02-0.229D-02-0.348D-01-0.105D+00-0.164D+00 0.505D+00
 Coeff-Com:  0.800D+00
 Coeff:      0.156D-02-0.229D-02-0.348D-01-0.105D+00-0.164D+00 0.505D+00
 Coeff:      0.800D+00
 Gap=     0.244 Goal=   None    Shift=    0.000
 Gap=     0.374 Goal=   None    Shift=    0.000
 RMSDP=1.06D-05 MaxDP=4.31D-04 DE=-2.05D-05 OVMax= 1.84D-03

 Cycle   8  Pass 1  IDiag  1:
 E= -193.652866044218     Delta-E=       -0.000003477924 Rises=F Damp=F
 DIIS: error= 2.30D-05 at cycle   8 NSaved=   8.
 NSaved= 8 IEnMin= 8 EnMin= -193.652866044218     IErMin= 8 ErrMin= 2.30D-05
 ErrMax= 2.30D-05  0.00D+00 EMaxC= 1.00D-01 BMatC= 5.63D-07 BMatP= 7.07D-06
 IDIUse=1 WtCom= 1.00D+00 WtEn= 0.00D+00
 Coeff-Com: -0.113D-02 0.270D-02 0.109D-01 0.108D-01-0.319D-01-0.136D+00
 Coeff-Com:  0.106D+00 0.104D+01
 Coeff:     -0.113D-02 0.270D-02 0.109D-01 0.108D-01-0.319D-01-0.136D+00
 Coeff:      0.106D+00 0.104D+01
 Gap=     0.244 Goal=   None    Shift=    0.000
 Gap=     0.374 Goal=   None    Shift=    0.000
 RMSDP=4.03D-06 MaxDP=1.09D-04 DE=-3.48D-06 OVMax= 6.16D-04

 Cycle   9  Pass 1  IDiag  1:
 E= -193.652866421306     Delta-E=       -0.000000377088 Rises=F Damp=F
 DIIS: error= 7.22D-06 at cycle   9 NSaved=   9.
 NSaved= 9 IEnMin= 9 EnMin= -193.652866421306     IErMin= 9 ErrMin= 7.22D-06
 ErrMax= 7.22D-06  0.00D+00 EMaxC= 1.00D-01 BMatC= 5.59D-08 BMatP= 5.63D-07
 IDIUse=1 WtCom= 1.00D+00 WtEn= 0.00D+00
 Coeff-Com: -0.382D-03 0.772D-03 0.641D-02 0.157D-01 0.138D-01-0.875D-01
 Coeff-Com: -0.792D-01 0.185D+00 0.945D+00
 Coeff:     -0.382D-03 0.772D-03 0.641D-02 0.157D-01 0.138D-01-0.875D-01
 Coeff:     -0.792D-01 0.185D+00 0.945D+00
 Gap=     0.244 Goal=   None    Shift=    0.000
 Gap=     0.374 Goal=   None    Shift=    0.000
 RMSDP=1.09D-06 MaxDP=3.41D-05 DE=-3.77D-07 OVMax= 1.61D-04

 Cycle  10  Pass 1  IDiag  1:
 E= -193.652866452197     Delta-E=       -0.000000030891 Rises=F Damp=F
 DIIS: error= 2.56D-06 at cycle  10 NSaved=  10.
 NSaved=10 IEnMin=10 EnMin= -193.652866452197     IErMin=10 ErrMin= 2.56D-06
 ErrMax= 2.56D-06  0.00D+00 EMaxC= 1.00D-01 BMatC= 6.68D-09 BMatP= 5.59D-08
 IDIUse=1 WtCom= 1.00D+00 WtEn= 0.00D+00
 Coeff-Com:  0.690D-04-0.164D-03 0.112D-05 0.177D-02 0.377D-02 0.258D-03
 Coeff-Com: -0.219D-01-0.692D-01 0.156D+00 0.930D+00
 Coeff:      0.690D-04-0.164D-03 0.112D-05 0.177D-02 0.377D-02 0.258D-03
 Coeff:     -0.219D-01-0.692D-01 0.156D+00 0.930D+00
 Gap=     0.244 Goal=   None    Shift=    0.000
 Gap=     0.374 Goal=   None    Shift=    0.000
 RMSDP=4.01D-07 MaxDP=1.90D-05 DE=-3.09D-08 OVMax= 3.29D-05

 Cycle  11  Pass 1  IDiag  1:
 E= -193.652866454906     Delta-E=       -0.000000002709 Rises=F Damp=F
 DIIS: error= 1.22D-06 at cycle  11 NSaved=  11.
 NSaved=11 IEnMin=11 EnMin= -193.652866454906     IErMin=11 ErrMin= 1.22D-06
 ErrMax= 1.22D-06  0.00D+00 EMaxC= 1.00D-01 BMatC= 1.34D-09 BMatP= 6.68D-09
 IDIUse=1 WtCom= 1.00D+00 WtEn= 0.00D+00
 Coeff-Com:  0.771D-04-0.166D-03-0.899D-03-0.155D-02-0.124D-02 0.130D-01
 Coeff-Com:  0.421D-02-0.504D-01-0.885D-01 0.316D+00 0.809D+00
 Coeff:      0.771D-04-0.166D-03-0.899D-03-0.155D-02-0.124D-02 0.130D-01
 Coeff:      0.421D-02-0.504D-01-0.885D-01 0.316D+00 0.809D+00
 Gap=     0.244 Goal=   None    Shift=    0.000
 Gap=     0.374 Goal=   None    Shift=    0.000
 RMSDP=1.22D-07 MaxDP=4.39D-06 DE=-2.71D-09 OVMax= 1.00D-05

 Cycle  12  Pass 1  IDiag  1:
 E= -193.652866455364     Delta-E=       -0.000000000458 Rises=F Damp=F
 DIIS: error= 2.02D-07 at cycle  12 NSaved=  12.
 NSaved=12 IEnMin=12 EnMin= -193.652866455364     IErMin=12 ErrMin= 2.02D-07
 ErrMax= 2.02D-07  0.00D+00 EMaxC= 1.00D-01 BMatC= 4.84D-11 BMatP= 1.34D-09
 IDIUse=1 WtCom= 1.00D+00 WtEn= 0.00D+00
 Coeff-Com: -0.529D-05 0.105D-04-0.211D-04-0.969D-04-0.357D-03 0.305D-03
 Coeff-Com:  0.169D-02 0.418D-02-0.166D-01-0.714D-01 0.936D-02 0.107D+01
 Coeff:     -0.529D-05 0.105D-04-0.211D-04-0.969D-04-0.357D-03 0.305D-03
 Coeff:      0.169D-02 0.418D-02-0.166D-01-0.714D-01 0.936D-02 0.107D+01
 Gap=     0.244 Goal=   None    Shift=    0.000
 Gap=     0.374 Goal=   None    Shift=    0.000
 RMSDP=3.82D-08 MaxDP=9.74D-07 DE=-4.58D-10 OVMax= 2.53D-06

 Cycle  13  Pass 1  IDiag  1:
 E= -193.652866455391     Delta-E=       -0.000000000028 Rises=F Damp=F
 DIIS: error= 4.80D-08 at cycle  13 NSaved=  13.
 NSaved=13 IEnMin=13 EnMin= -193.652866455391     IErMin=13 ErrMin= 4.80D-08
 ErrMax= 4.80D-08  0.00D+00 EMaxC= 1.00D-01 BMatC= 2.33D-12 BMatP= 4.84D-11
 IDIUse=1 WtCom= 1.00D+00 WtEn= 0.00D+00
 Coeff-Com: -0.322D-05 0.702D-05 0.388D-04 0.731D-04 0.633D-04-0.609D-03
 Coeff-Com: -0.147D-03 0.216D-02 0.499D-02-0.148D-01-0.416D-01-0.452D-01
 Coeff-Com:  0.109D+01
 Coeff:     -0.322D-05 0.702D-05 0.388D-04 0.731D-04 0.633D-04-0.609D-03
 Coeff:     -0.147D-03 0.216D-02 0.499D-02-0.148D-01-0.416D-01-0.452D-01
 Coeff:      0.109D+01
 Gap=     0.244 Goal=   None    Shift=    0.000
 Gap=     0.374 Goal=   None    Shift=    0.000
 RMSDP=1.02D-08 MaxDP=2.97D-07 DE=-2.75D-11 OVMax= 7.08D-07

 Cycle  14  Pass 1  IDiag  1:
 E= -193.652866455393     Delta-E=       -0.000000000001 Rises=F Damp=F
 DIIS: error= 1.02D-08 at cycle  14 NSaved=  14.
 NSaved=14 IEnMin=14 EnMin= -193.652866455393     IErMin=14 ErrMin= 1.02D-08
 ErrMax= 1.02D-08  0.00D+00 EMaxC= 1.00D-01 BMatC= 1.68D-13 BMatP= 2.33D-12
 IDIUse=1 WtCom= 1.00D+00 WtEn= 0.00D+00
 Coeff-Com:  0.723D-06-0.138D-05-0.333D-05-0.530D-05-0.528D-06 0.652D-04
 Coeff-Com: -0.623D-04-0.422D-03 0.245D-03 0.529D-02 0.425D-02-0.576D-01
 Coeff-Com: -0.107D+00 0.116D+01
 Coeff:      0.723D-06-0.138D-05-0.333D-05-0.530D-05-0.528D-06 0.652D-04
 Coeff:     -0.623D-04-0.422D-03 0.245D-03 0.529D-02 0.425D-02-0.576D-01
 Coeff:     -0.107D+00 0.116D+01
 Gap=     0.244 Goal=   None    Shift=    0.000
 Gap=     0.374 Goal=   None    Shift=    0.000
 RMSDP=2.95D-09 MaxDP=7.56D-08 DE=-1.36D-12 OVMax= 2.00D-07

 SCF Done:  E(UM062X) =  -193.652866455     A.U. after   14 cycles
            NFock= 14  Conv=0.30D-08     -V/T= 2.0038
 <Sx>= 0.0000 <Sy>= 0.0000 <Sz>= 0.5000 <S**2>= 0.7547 S= 0.5023
 <L.S>= 0.000000000000E+00
 KE= 1.929275923694D+02 PE=-7.076402712542D+02 EE= 1.931106955421D+02
 Annihilation of the first spin contaminant:
 S**2 before annihilation     0.7547,   after     0.7500
 Leave Link  502 at Sat Mar  9 13:22:04 2019, MaxMem=   671088640 cpu:             404.1 elap:              28.1
 (Enter /shared/centos7/gaussian/g16/l801.exe)
 DoSCS=F DFT=T ScalE2(SS,OS)=  1.000000  1.000000
 Range of M.O.s used for correlation:     1   199
 NBasis=   199 NAE=    17 NBE=    16 NFC=     0 NFV=     0
 NROrb=    199 NOA=    17 NOB=    16 NVA=   182 NVB=   183

 **** Warning!!: The largest alpha MO coefficient is  0.33599796D+02


 **** Warning!!: The largest beta MO coefficient is  0.35269046D+02

 Leave Link  801 at Sat Mar  9 13:22:04 2019, MaxMem=   671088640 cpu:               0.4 elap:               0.0
 (Enter /shared/centos7/gaussian/g16/l1101.exe)
 Using compressed storage, NAtomX=    11.
 Will process     12 centers per pass.
 Leave Link 1101 at Sat Mar  9 13:22:05 2019, MaxMem=   671088640 cpu:               4.5 elap:               0.2
 (Enter /shared/centos7/gaussian/g16/l1102.exe)
 Symmetrizing basis deriv contribution to polar:
 IMax=3 JMax=2 DiffMx= 0.00D+00
 Leave Link 1102 at Sat Mar  9 13:22:05 2019, MaxMem=   671088640 cpu:               0.4 elap:               0.0
 (Enter /shared/centos7/gaussian/g16/l1110.exe)
 Forming Gx(P) for the SCF density, NAtomX=    11.
 Integral derivatives from FoFJK, PRISM(SPDF).
 Do as many integral derivatives as possible in FoFJK.
 G2DrvN: MDV=     671087712.
 G2DrvN: will do    12 centers at a time, making    1 passes.
 Calling FoFCou, ICntrl=  3107 FMM=F I1Cent=   0 AccDes= 0.00D+00.
 FoFJK:  IHMeth= 1 ICntrl=    3107 DoSepK=F KAlg= 0 I1Cent=           0 FoldK=F
 IRaf=         0 NMat=       1 IRICut=       1 DoRegI=T DoRafI=F ISym2E= 0 IDoP0=0 IntGTp=1.
 FoFCou: FMM=F IPFlag=           0 FMFlag=      100000 FMFlg1=           0
         NFxFlg=           0 DoJE=F BraDBF=F KetDBF=F FulRan=T
         wScrn=  0.000000 ICntrl=      3107 IOpCl=  1 I1Cent=           0 NGrid=           0
         NMat0=    1 NMatS0=      1 NMatT0=    0 NMatD0=    1 NMtDS0=    0 NMtDT0=    0
 Symmetry not used in FoFCou.
 End of G2Drv F.D. properties file   721 does not exist.
 End of G2Drv F.D. properties file   722 does not exist.
 End of G2Drv F.D. properties file   788 does not exist.
 Leave Link 1110 at Sat Mar  9 13:22:42 2019, MaxMem=   671088640 cpu:             744.2 elap:              37.2
 (Enter /shared/centos7/gaussian/g16/l1002.exe)
 Minotr:  UHF open shell wavefunction.
          IDoAtm=11111111111
          Direct CPHF calculation.
          Differentiating once with respect to nuclear coordinates.
          Requested convergence is 1.0D-08 RMS, and 1.0D-07 maximum.
          Secondary convergence is 1.0D-12 RMS, and 1.0D-12 maximum.
          NewPWx=T KeepS1=F KeepF1=F KeepIn=T MapXYZ=F SortEE=F KeepMc=T.
         3335 words used for storage of precomputed grid.
 Keep R1 and R2 ints in memory in canonical form, NReq=416899964.
 FoFCou: FMM=F IPFlag=           0 FMFlag=           0 FMFlg1=           0
         NFxFlg=           0 DoJE=F BraDBF=F KetDBF=F FulRan=T
         wScrn=  0.000000 ICntrl=       600 IOpCl=  0 I1Cent=           0 NGrid=           0
         NMat0=    1 NMatS0=  19900 NMatT0=    0 NMatD0=    1 NMtDS0=    0 NMtDT0=    0
 Symmetry not used in FoFCou.
 Two-electron integral symmetry not used.
          MDV=     671088640 using IRadAn=       1.
          Solving linear equations simultaneously, MaxMat=       0.
          There are    36 degrees of freedom in the 1st order CPHF.  IDoFFX=6 NUNeed=     0.
     30 vectors produced by pass  0 Test12= 1.67D-14 2.78D-09 XBig12= 1.35D-01 5.67D-02.
 AX will form    30 AO Fock derivatives at one time.
     30 vectors produced by pass  1 Test12= 1.67D-14 2.78D-09 XBig12= 7.22D-03 2.28D-02.
     30 vectors produced by pass  2 Test12= 1.67D-14 2.78D-09 XBig12= 3.37D-04 3.97D-03.
     30 vectors produced by pass  3 Test12= 1.67D-14 2.78D-09 XBig12= 5.44D-06 4.01D-04.
     30 vectors produced by pass  4 Test12= 1.67D-14 2.78D-09 XBig12= 8.65D-08 4.39D-05.
     30 vectors produced by pass  5 Test12= 1.67D-14 2.78D-09 XBig12= 1.15D-09 2.94D-06.
     28 vectors produced by pass  6 Test12= 1.67D-14 2.78D-09 XBig12= 9.55D-12 4.16D-07.
     10 vectors produced by pass  7 Test12= 1.67D-14 2.78D-09 XBig12= 6.86D-14 2.91D-08.
 InvSVY:  IOpt=1 It=  1 EMax= 1.78D-15
 Solved reduced A of dimension   218 with    30 vectors.
 End of Minotr F.D. properties file   721 does not exist.
 End of Minotr F.D. properties file   722 does not exist.
 End of Minotr F.D. properties file   788 does not exist.
 Leave Link 1002 at Sat Mar  9 13:23:32 2019, MaxMem=   671088640 cpu:            1007.6 elap:              50.4
 (Enter /shared/centos7/gaussian/g16/l601.exe)
 Copying SCF densities to generalized density rwf, IOpCl= 1 IROHF=0.

 **********************************************************************

            Population analysis using the SCF density.

 **********************************************************************

 Orbital symmetries:
 Alpha Orbitals:
       Occupied  (A) (A) (A) (A) (A) (A) (A) (A) (A) (A) (A) (A)
                 (A) (A) (A) (A) (A)
       Virtual   (A) (A) (A) (A) (A) (A) (A) (A) (A) (A) (A) (A)
                 (A) (A) (A) (A) (A) (A) (A) (A) (A) (A) (A) (A)
                 (A) (A) (A) (A) (A) (A) (A) (A) (A) (A) (A) (A)
                 (A) (A) (A) (A) (A) (A) (A) (A) (A) (A) (A) (A)
                 (A) (A) (A) (A) (A) (A) (A) (A) (A) (A) (A) (A)
                 (A) (A) (A) (A) (A) (A) (A) (A) (A) (A) (A) (A)
                 (A) (A) (A) (A) (A) (A) (A) (A) (A) (A) (A) (A)
                 (A) (A) (A) (A) (A) (A) (A) (A) (A) (A) (A) (A)
                 (A) (A) (A) (A) (A) (A) (A) (A) (A) (A) (A) (A)
                 (A) (A) (A) (A) (A) (A) (A) (A) (A) (A) (A) (A)
                 (A) (A) (A) (A) (A) (A) (A) (A) (A) (A) (A) (A)
                 (A) (A) (A) (A) (A) (A) (A) (A) (A) (A) (A) (A)
                 (A) (A) (A) (A) (A) (A) (A) (A) (A) (A) (A) (A)
                 (A) (A) (A) (A) (A) (A) (A) (A) (A) (A) (A) (A)
                 (A) (A) (A) (A) (A) (A) (A) (A) (A) (A) (A) (A)
                 (A) (A)
 Beta  Orbitals:
       Occupied  (A) (A) (A) (A) (A) (A) (A) (A) (A) (A) (A) (A)
                 (A) (A) (A) (A)
       Virtual   (A) (A) (A) (A) (A) (A) (A) (A) (A) (A) (A) (A)
                 (A) (A) (A) (A) (A) (A) (A) (A) (A) (A) (A) (A)
                 (A) (A) (A) (A) (A) (A) (A) (A) (A) (A) (A) (A)
                 (A) (A) (A) (A) (A) (A) (A) (A) (A) (A) (A) (A)
                 (A) (A) (A) (A) (A) (A) (A) (A) (A) (A) (A) (A)
                 (A) (A) (A) (A) (A) (A) (A) (A) (A) (A) (A) (A)
                 (A) (A) (A) (A) (A) (A) (A) (A) (A) (A) (A) (A)
                 (A) (A) (A) (A) (A) (A) (A) (A) (A) (A) (A) (A)
                 (A) (A) (A) (A) (A) (A) (A) (A) (A) (A) (A) (A)
                 (A) (A) (A) (A) (A) (A) (A) (A) (A) (A) (A) (A)
                 (A) (A) (A) (A) (A) (A) (A) (A) (A) (A) (A) (A)
                 (A) (A) (A) (A) (A) (A) (A) (A) (A) (A) (A) (A)
                 (A) (A) (A) (A) (A) (A) (A) (A) (A) (A) (A) (A)
                 (A) (A) (A) (A) (A) (A) (A) (A) (A) (A) (A) (A)
                 (A) (A) (A) (A) (A) (A) (A) (A) (A) (A) (A) (A)
                 (A) (A) (A)
 The electronic state is 2-A.
 Alpha  occ. eigenvalues --  -19.65463 -10.59212 -10.57418 -10.53251  -1.19432
 Alpha  occ. eigenvalues --   -0.87072  -0.77414  -0.68973  -0.58495  -0.57651
 Alpha  occ. eigenvalues --   -0.52683  -0.49295  -0.46423  -0.43566  -0.41026
 Alpha  occ. eigenvalues --   -0.39819  -0.22610
 Alpha virt. eigenvalues --    0.01820   0.03628   0.04090   0.04266   0.06802
 Alpha virt. eigenvalues --    0.07264   0.07826   0.08615   0.08893   0.11665
 Alpha virt. eigenvalues --    0.12258   0.14079   0.16806   0.19426   0.19580
 Alpha virt. eigenvalues --    0.22118   0.23108   0.24552   0.25425   0.25746
 Alpha virt. eigenvalues --    0.26495   0.28854   0.31668   0.32217   0.33773
 Alpha virt. eigenvalues --    0.35457   0.41404   0.44570   0.45945   0.47068
 Alpha virt. eigenvalues --    0.49221   0.52310   0.52915   0.54433   0.55130
 Alpha virt. eigenvalues --    0.57586   0.59026   0.60120   0.61504   0.62424
 Alpha virt. eigenvalues --    0.64758   0.65896   0.68515   0.71256   0.73185
 Alpha virt. eigenvalues --    0.76478   0.80565   0.81482   0.84529   0.86011
 Alpha virt. eigenvalues --    0.91790   0.92781   0.95152   1.00167   1.02584
 Alpha virt. eigenvalues --    1.05327   1.08135   1.09933   1.10910   1.14436
 Alpha virt. eigenvalues --    1.15144   1.16454   1.18120   1.21892   1.22884
 Alpha virt. eigenvalues --    1.25590   1.26991   1.28757   1.30434   1.33347
 Alpha virt. eigenvalues --    1.34287   1.38485   1.39882   1.43096   1.44280
 Alpha virt. eigenvalues --    1.47385   1.47679   1.50894   1.51702   1.57889
 Alpha virt. eigenvalues --    1.59181   1.62628   1.64889   1.69365   1.72069
 Alpha virt. eigenvalues --    1.91122   2.00881   2.14436   2.28910   2.30897
 Alpha virt. eigenvalues --    2.42916   2.43832   2.48126   2.54666   2.56652
 Alpha virt. eigenvalues --    2.59602   2.64007   2.81504   2.83387   2.84993
 Alpha virt. eigenvalues --    2.86580   2.93775   2.96352   2.98745   3.02477
 Alpha virt. eigenvalues --    3.04639   3.06259   3.07072   3.11858   3.13540
 Alpha virt. eigenvalues --    3.14768   3.15173   3.19408   3.22771   3.25731
 Alpha virt. eigenvalues --    3.27654   3.32670   3.33640   3.36513   3.42433
 Alpha virt. eigenvalues --    3.45811   3.46935   3.50434   3.55667   3.56082
 Alpha virt. eigenvalues --    3.59417   3.63101   3.65643   3.72545   3.75729
 Alpha virt. eigenvalues --    3.82429   3.85422   3.88448   3.92012   3.95745
 Alpha virt. eigenvalues --    3.97370   3.97774   3.98999   4.00284   4.08231
 Alpha virt. eigenvalues --    4.09319   4.13701   4.18222   4.22208   4.22318
 Alpha virt. eigenvalues --    4.24303   4.27575   4.31320   4.35588   4.44992
 Alpha virt. eigenvalues --    4.48845   4.49535   4.54959   4.55979   4.60260
 Alpha virt. eigenvalues --    4.65299   5.09223   5.14862   5.21247   5.28271
 Alpha virt. eigenvalues --    5.29952   5.41833   5.46441   5.52461   5.56105
 Alpha virt. eigenvalues --    5.58034   5.61711   5.71138   5.81936   5.89320
 Alpha virt. eigenvalues --    6.27674   6.44842   6.80301   7.11508   7.20705
 Alpha virt. eigenvalues --    7.29543   7.66651   7.71203  24.32869  24.46142
 Alpha virt. eigenvalues --   24.47891  50.16959
  Beta  occ. eigenvalues --  -19.65006 -10.59222 -10.56731 -10.53242  -1.17995
  Beta  occ. eigenvalues --   -0.86684  -0.75782  -0.67444  -0.57824  -0.56510
  Beta  occ. eigenvalues --   -0.50669  -0.48747  -0.45906  -0.43143  -0.39414
  Beta  occ. eigenvalues --   -0.38063
  Beta virt. eigenvalues --   -0.00674   0.01634   0.03557   0.03973   0.04321
  Beta virt. eigenvalues --    0.06813   0.07225   0.07941   0.08576   0.09071
  Beta virt. eigenvalues --    0.10929   0.12460   0.14002   0.16873   0.19419
  Beta virt. eigenvalues --    0.19704   0.21723   0.23453   0.25107   0.25645
  Beta virt. eigenvalues --    0.26150   0.26848   0.29044   0.31407   0.32255
  Beta virt. eigenvalues --    0.34274   0.35412   0.41398   0.44768   0.45923
  Beta virt. eigenvalues --    0.47784   0.50057   0.52303   0.53031   0.54456
  Beta virt. eigenvalues --    0.55339   0.57769   0.59336   0.61572   0.61691
  Beta virt. eigenvalues --    0.62797   0.64954   0.65602   0.68616   0.71596
  Beta virt. eigenvalues --    0.73442   0.76713   0.80443   0.81664   0.84959
  Beta virt. eigenvalues --    0.85780   0.91895   0.92966   0.95124   0.99841
  Beta virt. eigenvalues --    1.02610   1.05576   1.08030   1.09853   1.10930
  Beta virt. eigenvalues --    1.14461   1.15105   1.16537   1.18042   1.22116
  Beta virt. eigenvalues --    1.23063   1.25762   1.27138   1.28956   1.30901
  Beta virt. eigenvalues --    1.33450   1.34304   1.38732   1.39957   1.43798
  Beta virt. eigenvalues --    1.44448   1.47511   1.47885   1.50988   1.52624
  Beta virt. eigenvalues --    1.58234   1.59349   1.62660   1.65110   1.69631
  Beta virt. eigenvalues --    1.72336   1.92310   2.01374   2.14833   2.29356
  Beta virt. eigenvalues --    2.31821   2.43136   2.44320   2.48459   2.55100
  Beta virt. eigenvalues --    2.57266   2.60261   2.64715   2.83659   2.84586
  Beta virt. eigenvalues --    2.86803   2.87859   2.96080   2.98988   3.03048
  Beta virt. eigenvalues --    3.04608   3.06186   3.07922   3.08110   3.13258
  Beta virt. eigenvalues --    3.15508   3.15720   3.16292   3.23889   3.25787
  Beta virt. eigenvalues --    3.28986   3.29272   3.33776   3.34404   3.40568
  Beta virt. eigenvalues --    3.46086   3.46641   3.48972   3.52111   3.55963
  Beta virt. eigenvalues --    3.56968   3.60904   3.65741   3.67512   3.73461
  Beta virt. eigenvalues --    3.76997   3.82786   3.86321   3.88928   3.93373
  Beta virt. eigenvalues --    3.96041   3.98542   3.99466   4.00104   4.01435
  Beta virt. eigenvalues --    4.09474   4.10170   4.16711   4.21107   4.22419
  Beta virt. eigenvalues --    4.22593   4.24852   4.28553   4.33973   4.35763
  Beta virt. eigenvalues --    4.45196   4.48925   4.49972   4.55231   4.56232
  Beta virt. eigenvalues --    4.60470   4.67596   5.09456   5.18534   5.23374
  Beta virt. eigenvalues --    5.30080   5.31157   5.42542   5.47334   5.55923
  Beta virt. eigenvalues --    5.57198   5.59294   5.62609   5.71699   5.82419
  Beta virt. eigenvalues --    5.90279   6.28062   6.45107   6.80995   7.12576
  Beta virt. eigenvalues --    7.21936   7.30699   7.67103   7.71090  24.32869
  Beta virt. eigenvalues --   24.46777  24.48531  50.16644
          Condensed to atoms (all electrons):
               1          2          3          4          5          6
     1  O    8.113072   0.185309  -0.102176   0.063107  -0.058247  -0.029053
     2  C    0.185309   5.243360   0.155760  -0.117076   0.439792   0.449598
     3  C   -0.102176   0.155760   5.104965   0.021012  -0.032259  -0.065636
     4  C    0.063107  -0.117076   0.021012   5.492779   0.007980   0.002112
     5  H   -0.058247   0.439792  -0.032259   0.007980   0.526322  -0.024859
     6  H   -0.029053   0.449598  -0.065636   0.002112  -0.024859   0.524156
     7  H   -0.008856  -0.036203   0.413509   0.004131   0.005987  -0.007622
     8  H    0.009417  -0.038757   0.419284   0.000604  -0.003745  -0.001844
     9  H   -0.003171  -0.032942   0.419181   0.000055  -0.007324   0.005597
    10  H   -0.038914   0.001746   0.001976   0.411915  -0.000450  -0.002797
    11  H   -0.050592   0.004492  -0.001786   0.447940  -0.000132  -0.000277
               7          8          9         10         11
     1  O   -0.008856   0.009417  -0.003171  -0.038914  -0.050592
     2  C   -0.036203  -0.038757  -0.032942   0.001746   0.004492
     3  C    0.413509   0.419284   0.419181   0.001976  -0.001786
     4  C    0.004131   0.000604   0.000055   0.411915   0.447940
     5  H    0.005987  -0.003745  -0.007324  -0.000450  -0.000132
     6  H   -0.007622  -0.001844   0.005597  -0.002797  -0.000277
     7  H    0.559207  -0.028753  -0.031222   0.000126   0.000231
     8  H   -0.028753   0.543211  -0.026793  -0.000189   0.000030
     9  H   -0.031222  -0.026793   0.530621   0.000404  -0.000051
    10  H    0.000126  -0.000189   0.000404   0.514224  -0.031823
    11  H    0.000231   0.000030  -0.000051  -0.031823   0.472590
          Atomic-Atomic Spin Densities.
               1          2          3          4          5          6
     1  O    0.316620   0.024329  -0.009335  -0.253924  -0.001765  -0.007281
     2  C    0.024329   0.024154  -0.031752  -0.007239   0.007889   0.002751
     3  C   -0.009335  -0.031752   0.058533  -0.003416  -0.008737  -0.002594
     4  C   -0.253924  -0.007239  -0.003416   1.245861   0.001989   0.010048
     5  H   -0.001765   0.007889  -0.008737   0.001989  -0.000658   0.002158
     6  H   -0.007281   0.002751  -0.002594   0.010048   0.002158  -0.000822
     7  H   -0.001235   0.005152  -0.002778   0.001374  -0.000199  -0.000365
     8  H    0.000265   0.004237  -0.005265   0.000168  -0.000098   0.000011
     9  H   -0.001466  -0.005767   0.005876   0.001225   0.000236  -0.000354
    10  H    0.000635  -0.002982   0.003855  -0.009878  -0.000152  -0.001621
    11  H    0.000799   0.000044  -0.000578  -0.000068  -0.000015  -0.000103
               7          8          9         10         11
     1  O   -0.001235   0.000265  -0.001466   0.000635   0.000799
     2  C    0.005152   0.004237  -0.005767  -0.002982   0.000044
     3  C   -0.002778  -0.005265   0.005876   0.003855  -0.000578
     4  C    0.001374   0.000168   0.001225  -0.009878  -0.000068
     5  H   -0.000199  -0.000098   0.000236  -0.000152  -0.000015
     6  H   -0.000365   0.000011  -0.000354  -0.001621  -0.000103
     7  H   -0.007124   0.000538   0.000459   0.001051   0.000092
     8  H    0.000538  -0.000822   0.000006  -0.000040  -0.000005
     9  H    0.000459   0.000006  -0.000742   0.000132   0.000038
    10  H    0.001051  -0.000040   0.000132  -0.036226   0.004456
    11  H    0.000092  -0.000005   0.000038   0.004456  -0.040382
 Mulliken charges and spin densities:
               1          2
     1  O   -0.079897   0.067642
     2  C   -0.255079   0.020817
     3  C   -0.333829   0.003809
     4  C   -0.334559   0.986140
     5  H    0.146934   0.000648
     6  H    0.150624   0.001829
     7  H    0.129466  -0.003035
     8  H    0.127535  -0.001004
     9  H    0.145644  -0.000357
    10  H    0.143782  -0.040769
    11  H    0.159378  -0.035720
 Sum of Mulliken charges =  -0.00000   1.00000
 Mulliken charges and spin densities with hydrogens summed into heavy atoms:
               1          2
     1  O   -0.079897   0.067642
     2  C    0.042479   0.023294
     3  C    0.068816  -0.000587
     4  C   -0.031399   0.909651
 APT charges:
               1
     1  O   -0.061848
     2  C   -0.683164
     3  C   -1.049803
     4  C   -0.905220
     5  H    0.422228
     6  H    0.340549
     7  H    0.277550
     8  H    0.463417
     9  H    0.348089
    10  H    0.286894
    11  H    0.561307
 Sum of APT charges =  -0.00000
 APT charges with hydrogens summed into heavy atoms:
               1
     1  O   -0.061848
     2  C    0.079614
     3  C    0.039254
     4  C   -0.057019
 Electronic spatial extent (au):  <R**2>=            316.2459
 Charge=             -0.0000 electrons
 Dipole moment (field-independent basis, Debye):
    X=             -1.3731    Y=              0.5452    Z=              0.6217  Tot=              1.6029
 Quadrupole moment (field-independent basis, Debye-Ang):
   XX=            -25.9167   YY=            -26.2336   ZZ=            -26.8567
   XY=              1.9355   XZ=             -0.6498   YZ=              0.0399
 Traceless Quadrupole moment (field-independent basis, Debye-Ang):
   XX=              0.4189   YY=              0.1021   ZZ=             -0.5210
   XY=              1.9355   XZ=             -0.6498   YZ=              0.0399
 Octapole moment (field-independent basis, Debye-Ang**2):
  XXX=              0.4764  YYY=             -3.4281  ZZZ=             -2.0084  XYY=             -0.9681
  XXY=              1.0525  XXZ=             -3.7567  XZZ=             -1.5322  YZZ=             -0.3532
  YYZ=              0.6051  XYZ=              0.0393
 Hexadecapole moment (field-independent basis, Debye-Ang**3):
 XXXX=           -279.9198 YYYY=            -90.8995 ZZZZ=            -56.9149 XXXY=              5.2321
 XXXZ=            -14.8835 YYYX=              0.7392 YYYZ=              3.3522 ZZZX=             -2.1945
 ZZZY=              0.5214 XXYY=            -64.8528 XXZZ=            -59.0364 YYZZ=            -25.4221
 XXYZ=              0.1602 YYXZ=              0.6783 ZZXY=              0.3090
 N-N= 1.279491168873D+02 E-N=-7.076402712689D+02  KE= 1.929275923694D+02
  Exact polarizability:   0.000   0.000   0.000   0.000   0.000   0.000
 Approx polarizability:  49.503   2.284  45.944  -0.123   0.338  45.809
                          Isotropic Fermi Contact Couplings
        Atom                 a.u.       MegaHertz       Gauss      10(-4) cm-1
     1  O(17)              0.04230     -25.63997      -9.14898      -8.55257
     2  C(13)             -0.00414      -4.65497      -1.66101      -1.55273
     3  C(13)              0.00271       3.05106       1.08870       1.01773
     4  C(13)              0.17654     198.46487      70.81720      66.20075
     5  H(1)               0.00022       0.99545       0.35520       0.33205
     6  H(1)               0.00097       4.35639       1.55447       1.45314
     7  H(1)               0.00010       0.45640       0.16286       0.15224
     8  H(1)              -0.00032      -1.41664      -0.50549      -0.47254
     9  H(1)               0.00003       0.12713       0.04536       0.04241
    10  H(1)              -0.01078     -48.18968     -17.19527     -16.07435
    11  H(1)              -0.01128     -50.43476     -17.99638     -16.82323
 --------------------------------------------------------
       Center         ----  Spin Dipole Couplings  ----
                      3XX-RR        3YY-RR        3ZZ-RR
 --------------------------------------------------------
     1   Atom       -0.216620      0.096671      0.119949
     2   Atom        0.015393     -0.008229     -0.007164
     3   Atom        0.003496      0.007668     -0.011164
     4   Atom       -0.236750      0.078146      0.158604
     5   Atom        0.005982     -0.000458     -0.005523
     6   Atom        0.007904     -0.006433     -0.001471
     7   Atom        0.008819     -0.002334     -0.006485
     8   Atom        0.004839     -0.002200     -0.002639
     9   Atom        0.004898     -0.003601     -0.001298
    10   Atom       -0.039900      0.015155      0.024745
    11   Atom        0.036670     -0.036947      0.000277
 --------------------------------------------------------
                        XY            XZ            YZ
 --------------------------------------------------------
     1   Atom       -0.383422      0.349546     -0.605171
     2   Atom        0.006553     -0.005808      0.001960
     3   Atom       -0.007024      0.000368      0.000414
     4   Atom       -0.388737      0.404448     -0.613258
     5   Atom        0.008126     -0.000669     -0.001436
     6   Atom        0.005940     -0.009288     -0.003149
     7   Atom       -0.004315     -0.000207      0.000853
     8   Atom       -0.000245     -0.001274     -0.000010
     9   Atom       -0.001180      0.003861     -0.000693
    10   Atom       -0.046403     -0.015463      0.030524
    11   Atom       -0.001197     -0.044104     -0.036378
 --------------------------------------------------------


 ---------------------------------------------------------------------------------
              Anisotropic Spin Dipole Couplings in Principal Axis System
 ---------------------------------------------------------------------------------

       Atom             a.u.   MegaHertz   Gauss  10(-4) cm-1        Axes

              Baa    -0.5085    36.798    13.130    12.274  0.3669  0.7637  0.5313
     1 O(17)  Bbb    -0.4362    31.565    11.263    10.529  0.8363 -0.0205 -0.5479
              Bcc     0.9448   -68.363   -24.394   -22.803  0.4075 -0.6453  0.6462
 
              Baa    -0.0125    -1.673    -0.597    -0.558 -0.2996  0.7406 -0.6014
     2 C(13)  Bbb    -0.0057    -0.762    -0.272    -0.254  0.0159  0.6341  0.7730
              Bcc     0.0181     2.435     0.869     0.812  0.9539  0.2220 -0.2017
 
              Baa    -0.0112    -1.502    -0.536    -0.501 -0.0431 -0.0379  0.9983
     3 C(13)  Bbb    -0.0017    -0.230    -0.082    -0.077  0.8004  0.5967  0.0573
              Bcc     0.0129     1.732     0.618     0.578 -0.5979  0.8016  0.0046
 
              Baa    -0.5015   -67.300   -24.014   -22.449  0.5712  0.7458  0.3428
     4 C(13)  Bbb    -0.4880   -65.486   -23.367   -21.844  0.7076 -0.2357 -0.6661
              Bcc     0.9895   132.787    47.382    44.293  0.4160 -0.6231  0.6623
 
              Baa    -0.0066    -3.539    -1.263    -1.181 -0.3982  0.6698  0.6267
     5 H(1)   Bbb    -0.0050    -2.656    -0.948    -0.886  0.4061 -0.4838  0.7752
              Bcc     0.0116     6.195     2.210     2.066  0.8225  0.5632 -0.0793
 
              Baa    -0.0086    -4.584    -1.636    -1.529 -0.3841  0.9184 -0.0949
     6 H(1)   Bbb    -0.0071    -3.771    -1.345    -1.258  0.4287  0.2684  0.8627
              Bcc     0.0157     8.355     2.981     2.787  0.8177  0.2907 -0.4968
 
              Baa    -0.0067    -3.569    -1.273    -1.190 -0.0550 -0.2442  0.9682
     7 H(1)   Bbb    -0.0036    -1.931    -0.689    -0.644  0.3212  0.9138  0.2487
              Bcc     0.0103     5.499     1.962     1.834  0.9454 -0.3246 -0.0281
 
              Baa    -0.0029    -1.523    -0.543    -0.508  0.1653  0.0765  0.9833
     8 H(1)   Bbb    -0.0022    -1.176    -0.420    -0.392  0.0200  0.9965 -0.0809
              Bcc     0.0051     2.699     0.963     0.900  0.9860 -0.0331 -0.1631
 
              Baa    -0.0038    -2.026    -0.723    -0.676  0.0396  0.9770  0.2096
     9 H(1)   Bbb    -0.0031    -1.670    -0.596    -0.557 -0.4473 -0.1702  0.8781
              Bcc     0.0069     3.696     1.319     1.233  0.8935 -0.1285  0.4302
 
              Baa    -0.0664   -35.407   -12.634   -11.811  0.8655  0.5005 -0.0208
    10 H(1)   Bbb    -0.0020    -1.071    -0.382    -0.357  0.3230 -0.5260  0.7868
              Bcc     0.0684    36.479    13.016    12.168 -0.3828  0.6877  0.6169
 
              Baa    -0.0658   -35.127   -12.534   -11.717  0.2646  0.7594  0.5944
    11 H(1)   Bbb    -0.0042    -2.214    -0.790    -0.739 -0.5667  0.6211 -0.5413
              Bcc     0.0700    37.341    13.324    12.456  0.7803  0.1936 -0.5947
 

 ---------------------------------------------------------------------------------

 No NMR shielding tensors so no spin-rotation constants.
 Leave Link  601 at Sat Mar  9 13:23:33 2019, MaxMem=   671088640 cpu:               7.5 elap:               0.4
 (Enter /shared/centos7/gaussian/g16/l701.exe)
 ... and contract with generalized density number  0.
 Compute integral second derivatives.
 Leave Link  701 at Sat Mar  9 13:23:33 2019, MaxMem=   671088640 cpu:               6.0 elap:               0.3
 (Enter /shared/centos7/gaussian/g16/l702.exe)
 L702 exits ... SP integral derivatives will be done elsewhere.
 Leave Link  702 at Sat Mar  9 13:23:33 2019, MaxMem=   671088640 cpu:               0.3 elap:               0.0
 (Enter /shared/centos7/gaussian/g16/l703.exe)
 Integral derivatives from FoFJK, PRISM(SPDF).
 Compute integral second derivatives, UseDBF=F ICtDFT=           0.
 Calling FoFJK, ICntrl=    100147 FMM=F ISym2X=0 I1Cent= 0 IOpClX= 1 NMat=1 NMatS=1 NMatT=0.
 FoFJK:  IHMeth= 1 ICntrl=  100147 DoSepK=F KAlg= 0 I1Cent=           0 FoldK=F
 IRaf=         0 NMat=       1 IRICut=       1 DoRegI=T DoRafI=F ISym2E= 0 IDoP0=0 IntGTp=1.
 FoFCou: FMM=F IPFlag=           0 FMFlag=      100000 FMFlg1=         800
         NFxFlg=           0 DoJE=F BraDBF=F KetDBF=F FulRan=T
         wScrn=  0.000000 ICntrl=    100147 IOpCl=  1 I1Cent=           0 NGrid=           0
         NMat0=    1 NMatS0=      1 NMatT0=    0 NMatD0=    1 NMtDS0=    0 NMtDT0=    0
 Symmetry not used in FoFCou.
 Leave Link  703 at Sat Mar  9 13:24:17 2019, MaxMem=   671088640 cpu:             872.7 elap:              43.7
 (Enter /shared/centos7/gaussian/g16/l716.exe)
 Dipole        =-5.40234695D-01 2.14495559D-01 2.44589795D-01
 Polarizability= 0.00000000D+00 0.00000000D+00 0.00000000D+00
                 0.00000000D+00 0.00000000D+00 0.00000000D+00
 ***** Axes restored to original set *****
 -------------------------------------------------------------------
 Center     Atomic                   Forces (Hartrees/Bohr)
 Number     Number              X              Y              Z
 -------------------------------------------------------------------
      1        8           0.000000698   -0.000000182   -0.000000008
      2        6          -0.000000106   -0.000000293    0.000000337
      3        6          -0.000000529   -0.000000099    0.000000285
      4        6           0.000000719    0.000000331   -0.000000602
      5        1          -0.000000146   -0.000000610    0.000000717
      6        1          -0.000000411    0.000000104    0.000000032
      7        1          -0.000000522    0.000000297   -0.000000144
      8        1          -0.000001136   -0.000000132    0.000000514
      9        1          -0.000000254   -0.000000422    0.000000533
     10        1           0.000000310    0.000000657   -0.000000839
     11        1           0.000001378    0.000000348   -0.000000825
 -------------------------------------------------------------------
 Cartesian Forces:  Max     0.000001378 RMS     0.000000539
 Force constants in Cartesian coordinates: 
                1             2             3             4             5 
      1  0.494236D+00
      2 -0.154024D+00  0.279285D+00
      3  0.519289D-02 -0.165604D+00  0.212563D+00
      4 -0.911005D-01  0.924518D-02  0.297403D-02  0.640741D+00
      5  0.344220D-01 -0.157691D+00  0.754074D-01  0.597574D-02  0.535747D+00
      6 -0.224005D-01  0.832566D-01 -0.128509D+00 -0.422345D-01  0.323419D-01
      7 -0.188624D-02  0.115296D-02 -0.149320D-01 -0.866378D-01 -0.706859D-02
      8  0.124654D-01  0.259540D-02  0.381737D-01 -0.839675D-02 -0.101504D+00
      9 -0.869890D-02  0.814930D-02 -0.325826D-01 -0.121944D-01 -0.490039D-01
     10 -0.361127D+00  0.991533D-01  0.672083D-02 -0.235403D-01  0.168231D-01
     11  0.740902D-01 -0.735259D-01  0.498791D-01  0.376044D-01 -0.213016D-01
     12  0.432858D-01  0.402374D-01 -0.538711D-01 -0.276955D-01  0.622436D-02
     13 -0.849917D-02  0.649839D-02 -0.205595D-02 -0.246654D+00  0.837598D-01
     14  0.311337D-01 -0.176389D-01 -0.909870D-03  0.745030D-01 -0.852834D-01
     15 -0.260268D-01  0.154478D-01  0.462054D-02  0.933946D-01 -0.420345D-01
     16  0.649195D-02  0.922273D-02 -0.441407D-03 -0.189800D+00 -0.128363D+00
     17 -0.105891D-01 -0.322368D-01  0.123266D-01 -0.120778D+00 -0.166752D+00
     18  0.111531D-01  0.277794D-01 -0.587107D-02 -0.100939D-01 -0.121344D-01
     19  0.752865D-03 -0.114235D-03  0.132382D-02  0.547434D-02 -0.248842D-02
     20 -0.147379D-02  0.775374D-03  0.448773D-03  0.114775D-01 -0.654482D-02
     21 -0.855093D-03  0.890539D-03  0.324595D-02  0.293649D-01 -0.143704D-01
     22  0.587005D-03  0.644072D-04 -0.129728D-02 -0.312360D-02  0.354240D-02
     23 -0.810830D-03  0.121060D-02 -0.370624D-02 -0.348260D-02  0.879264D-02
     24 -0.371179D-02 -0.734162D-03 -0.859278D-02 -0.733727D-02  0.257158D-01
     25  0.447644D-03  0.703948D-03  0.345736D-03 -0.294805D-02 -0.275191D-02
     26  0.378564D-03  0.197992D-02  0.165192D-03 -0.838284D-02 -0.101556D-01
     27  0.174284D-02  0.433411D-03  0.328867D-02 -0.255597D-01 -0.253309D-01
     28 -0.271142D-01 -0.427884D-02  0.244230D-01  0.141372D-02 -0.410291D-02
     29  0.101592D-01  0.245488D-02 -0.720053D-02  0.154406D-02  0.208297D-02
     30 -0.138518D-03 -0.473246D-02  0.463827D-02 -0.130466D-02  0.167296D-02
     31 -0.127882D-01  0.323761D-01 -0.222537D-01 -0.382472D-02  0.251423D-03
     32  0.424865D-02 -0.720829D-02  0.101946D-02  0.690657D-03  0.260911D-02
     33  0.457010D-03 -0.512419D-02  0.106951D-02  0.686402D-03  0.151170D-02
                6             7             8             9            10 
      6  0.471343D+00
      7 -0.991479D-02  0.579717D+00
      8 -0.580956D-01 -0.486139D-02  0.577970D+00
      9 -0.178489D+00 -0.136290D-01 -0.310339D-01  0.497340D+00
     10 -0.915831D-02  0.264694D-02 -0.460084D-02  0.345568D-03  0.569853D+00
     11  0.332077D-02 -0.146566D-03  0.155128D-02 -0.165244D-02 -0.121364D+00
     12 -0.150890D-02 -0.130144D-02  0.321625D-02 -0.191621D-02 -0.125276D+00
     13  0.856821D-01  0.646027D-02 -0.336100D-02 -0.229036D-02  0.136884D-02
     14 -0.369593D-01  0.964533D-02 -0.324375D-02 -0.643918D-02 -0.224070D-02
     15 -0.867241D-01  0.274003D-01 -0.123495D-01 -0.130241D-01 -0.221333D-03
     16 -0.537035D-02 -0.173148D-02 -0.179021D-02  0.885939D-04  0.388073D-02
     17 -0.110536D-01 -0.877914D-02 -0.589994D-02 -0.225319D-02 -0.575837D-02
     18 -0.500863D-01 -0.242854D-01 -0.229244D-01 -0.127533D-02  0.393828D-02
     19 -0.198264D-02 -0.242072D+00  0.905198D-01  0.816355D-01 -0.776323D-03
     20 -0.343796D-02  0.898208D-01 -0.902754D-01 -0.389206D-01  0.714574D-03
     21 -0.126962D-01  0.807515D-01 -0.374670D-01 -0.803468D-01  0.683742D-03
     22 -0.979765D-03 -0.664520D-01  0.554638D-01 -0.445262D-01  0.319434D-03
     23 -0.592295D-02  0.559365D-01 -0.202499D+00  0.122207D+00  0.264610D-03
     24 -0.127064D-01 -0.442583D-01  0.120752D+00 -0.143620D+00  0.252503D-02
     25 -0.721250D-03 -0.189637D+00 -0.135837D+00 -0.444017D-03 -0.684247D-03
     26  0.500952D-03 -0.135560D+00 -0.178504D+00 -0.164133D-02  0.457261D-03
     27 -0.210849D-02  0.356076D-03  0.591470D-03 -0.465568D-01 -0.295689D-03
     28  0.314503D-02 -0.252571D-03  0.798303D-04 -0.215665D-03 -0.135350D+00
     29 -0.260491D-02 -0.518534D-04  0.637302D-04  0.461866D-03 -0.404016D-01
     30 -0.325282D-03 -0.197050D-03 -0.488298D-03 -0.236530D-04  0.140111D+00
     31  0.393498D-02 -0.155185D-03  0.318388D-03 -0.712228D-04 -0.565910D-01
     32 -0.134595D-02 -0.879762D-04 -0.254899D-03  0.126085D-03  0.569523D-01
     33  0.181067D-02  0.101500D-04 -0.374662D-03  0.494307D-03 -0.193732D-01
               11            12            13            14            15 
     11  0.405770D+00
     12 -0.305627D+00  0.383411D+00
     13  0.195566D-02 -0.109299D-02  0.263496D+00
     14 -0.305329D-02  0.190881D-02 -0.962988D-01  0.982149D-01
     15  0.362597D-02 -0.182022D-02 -0.888848D-01  0.358428D-01  0.987353D-01
     16  0.216271D-02 -0.482075D-03 -0.181515D-01 -0.185844D-01 -0.183758D-02
     17  0.198871D-02  0.603556D-03  0.775513D-02  0.106218D-01  0.313854D-03
     18 -0.209930D-02  0.384279D-03  0.902904D-02  0.821093D-02  0.144076D-02
     19 -0.317797D-03 -0.464558D-03  0.113311D-02 -0.191714D-03 -0.192170D-02
     20 -0.340016D-04 -0.216968D-04 -0.981167D-03  0.341528D-03 -0.217248D-02
     21  0.343850D-03 -0.407851D-03 -0.180814D-02 -0.207692D-02 -0.559671D-02
     22 -0.366802D-03 -0.173745D-03  0.944846D-04 -0.110648D-03 -0.146608D-03
     23  0.249443D-03 -0.329097D-03  0.333435D-03  0.354624D-03  0.760271D-03
     24 -0.557163D-03 -0.437395D-03  0.971328D-03 -0.434394D-04  0.823573D-03
     25  0.219936D-03  0.118977D-03  0.703187D-03  0.500806D-03 -0.465866D-03
     26 -0.251694D-03 -0.199228D-03  0.196306D-03  0.279958D-04  0.185630D-03
     27  0.396577D-03  0.830938D-04  0.407197D-03  0.649387D-03  0.155242D-02
     28 -0.359779D-01  0.122093D+00  0.372803D-03  0.267386D-03 -0.200187D-03
     29 -0.620371D-01  0.917444D-01 -0.188834D-03 -0.300781D-03  0.585402D-04
     30  0.102994D+00 -0.210665D+00  0.173297D-05 -0.228094D-03  0.770172D-04
     31  0.421398D-01 -0.901216D-02 -0.323513D-03  0.137615D-02 -0.109001D-02
     32 -0.249356D+00  0.162242D+00  0.331077D-03 -0.406615D-04  0.321618D-03
     33  0.149376D+00 -0.113252D+00  0.407635D-04  0.448552D-04 -0.843895D-04
               16            17            18            19            20 
     16  0.197017D+00
     17  0.137130D+00  0.191594D+00
     18  0.986683D-02  0.244935D-02  0.588778D-01
     19  0.725003D-03  0.109716D-03  0.844391D-03  0.260524D+00
     20  0.205516D-03 -0.309409D-04  0.362444D-03 -0.999301D-01  0.943886D-01
     21 -0.419775D-03  0.778324D-03  0.141331D-02 -0.883173D-01  0.446161D-01
     22 -0.845819D-04 -0.186432D-03  0.230957D-03 -0.690637D-02  0.199179D-01
     23 -0.116328D-03  0.261005D-03  0.948005D-03  0.212507D-02 -0.938600D-02
     24 -0.500930D-03 -0.418533D-03  0.109227D-02  0.245184D-02 -0.982627D-02
     25  0.143351D-02 -0.244427D-03 -0.455264D-03 -0.185436D-01 -0.195171D-01
     26  0.405858D-03  0.534307D-03 -0.224998D-02  0.101178D-01  0.104887D-01
     27 -0.643263D-03 -0.175872D-02 -0.616823D-02  0.732163D-02  0.860436D-02
     28  0.140162D-03  0.751414D-03 -0.131084D-03 -0.332711D-03 -0.646650D-04
     29 -0.199079D-03 -0.400466D-03 -0.235955D-03  0.174219D-03  0.265180D-03
     30 -0.183843D-03 -0.835843D-03  0.379332D-03 -0.100828D-02  0.217334D-03
     31  0.791902D-04  0.589161D-03 -0.968227D-04  0.220367D-04 -0.169444D-03
     32 -0.743950D-04  0.320150D-03 -0.106076D-03 -0.432179D-05  0.118489D-04
     33 -0.762109D-04 -0.151769D-03 -0.186827D-03  0.117266D-03  0.129976D-03
               21            22            23            24            25 
     21  0.877299D-01
     22 -0.176807D-01  0.677320D-01
     23  0.695543D-02 -0.614366D-01  0.216802D+00
     24  0.781324D-02  0.491066D-01 -0.133531D+00  0.155099D+00
     25 -0.475741D-03  0.755189D-02  0.742710D-02  0.108027D-02  0.201474D+00
     26  0.569391D-03 -0.171242D-01 -0.156506D-01 -0.130373D-02  0.149613D+00
     27 -0.819220D-03  0.153856D-01  0.125480D-01  0.184738D-03  0.125483D-02
     28 -0.973686D-03  0.236156D-03 -0.107168D-03 -0.161815D-03  0.161096D-03
     29 -0.258578D-03  0.216953D-03 -0.150601D-03 -0.142235D-03 -0.866829D-04
     30 -0.509601D-03  0.921372D-04  0.327916D-04  0.250937D-03 -0.709604D-04
     31 -0.269722D-03  0.456084D-04 -0.133162D-03 -0.165005D-03  0.412827D-04
     32  0.192946D-04  0.192235D-04  0.162300D-04  0.890565D-04 -0.274474D-04
     33  0.173981D-03 -0.110018D-04  0.377882D-04  0.932564D-04 -0.166716D-03
               26            27            28            29            30 
     26  0.191495D+00
     27  0.395090D-02  0.506113D-01
     28 -0.490213D-04  0.627144D-04  0.153957D+00
     29  0.690521D-05 -0.802495D-04  0.419134D-01  0.596757D-01
     30 -0.763053D-05 -0.290228D-04 -0.142936D+00 -0.961883D-01  0.211685D+00
     31 -0.524305D-04 -0.322453D-04  0.676822D-02 -0.130798D-01  0.563452D-02
     32  0.287080D-04 -0.415021D-05  0.156849D-02 -0.166042D-02 -0.243616D-02
     33  0.298386D-04 -0.383794D-04 -0.510585D-02  0.144460D-01 -0.547813D-02
               31            32            33 
     31  0.667263D-01
     32 -0.636162D-01  0.255534D+00
     33  0.234213D-01 -0.159925D+00  0.115398D+00
 FormGI is forming the generalized inverse of G from B-inverse, IUseBI=4.
 Leave Link  716 at Sat Mar  9 13:24:17 2019, MaxMem=   671088640 cpu:               0.4 elap:               0.0
 (Enter /shared/centos7/gaussian/g16/l103.exe)

 GradGradGradGradGradGradGradGradGradGradGradGradGradGradGradGradGradGrad
 Berny optimization.
 Red2BG is reusing G-inverse.
 Internal  Forces:  Max     0.000000070 RMS     0.000000018
 Search for a local minimum.
 Step number   1 out of a maximum of   52 on scan point     1 out of    73
 All quantities printed in internal units (Hartrees-Bohrs-Radians)
 RMS Force = .18487D-07 SwitMx=.10000D-02 MixMth= 2
 Mixed Optimization -- En-DIIS/RFO-DIIS
 Second derivative matrix not updated -- analytic derivatives used.
 ITU=  0
     Eigenvalues ---    0.00228   0.00623   0.00664   0.04301   0.04429
     Eigenvalues ---    0.04837   0.06173   0.09764   0.10093   0.12240
     Eigenvalues ---    0.12369   0.13174   0.16316   0.16581   0.24068
     Eigenvalues ---    0.24527   0.30347   0.33174   0.34307   0.34412
     Eigenvalues ---    0.34527   0.35183   0.36257   0.37381   0.40002
     Eigenvalues ---    0.496361000.000001000.000001000.000001000.00000
     Eigenvalues --- 1000.000001000.000001000.000001000.000001000.00000
     Eigenvalues --- 1000.000001000.000001000.000001000.000001000.00000
     Eigenvalues --- 1000.000001000.00000
 RFO step:  Lambda= 0.00000000D+00 EMin= 2.28095950D-03
 Linear search not attempted -- first point.
 Iteration  1 RMS(Cart)=  0.00000176 RMS(Int)=  0.00000000
 Iteration  2 RMS(Cart)=  0.00000000 RMS(Int)=  0.00000000
 Iteration  1 RMS(Cart)=  0.00000000 RMS(Int)=  0.00000000
 ITry= 1 IFail=0 DXMaxC= 5.97D-06 DCOld= 1.00D+10 DXMaxT= 3.00D-01 DXLimC= 3.00D+00 Rises=F
 Variable       Old X    -DE/DX   Delta X   Delta X   Delta X     New X
                                 (Linear)    (Quad)   (Total)
    R1        2.68330  -0.00000   0.00000  -0.00000  -0.00000   2.68330
    R2        2.54512  -0.00000   0.00000  -0.00000  -0.00000   2.54512
    R3        2.86620   0.00000   0.00000   0.00000   0.00000   2.86620
    R4        2.05657   0.00000   0.00000   0.00000   0.00000   2.05657
    R5        2.06677   0.00000   0.00000   0.00000   0.00000   2.06677
    R6        2.05866   0.00000   0.00000   0.00000   0.00000   2.05866
    R7        2.05904   0.00000   0.00000   0.00000   0.00000   2.05904
    R8        2.05764   0.00000   0.00000   0.00000   0.00000   2.05764
    R9        2.04316   0.00000   0.00000  -0.00000  -0.00000   2.04316
   R10        2.03493  -0.00000   0.00000  -0.00000  -0.00000   2.03493
    A1        2.01645  -0.00000   0.00000  -0.00000  -0.00000   2.01645
    A2        1.94733   0.00000   0.00000   0.00000   0.00000   1.94733
    A3        1.84465   0.00000   0.00000   0.00000   0.00000   1.84465
    A4        1.90362   0.00000   0.00000   0.00000   0.00000   1.90362
    A5        1.93384  -0.00000   0.00000  -0.00000  -0.00000   1.93384
    A6        1.94245  -0.00000   0.00000  -0.00000  -0.00000   1.94245
    A7        1.88848   0.00000   0.00000  -0.00000  -0.00000   1.88848
    A8        1.93794  -0.00000   0.00000   0.00000   0.00000   1.93794
    A9        1.92273   0.00000   0.00000  -0.00000  -0.00000   1.92273
   A10        1.92334  -0.00000   0.00000   0.00000   0.00000   1.92334
   A11        1.88976   0.00000   0.00000  -0.00000  -0.00000   1.88976
   A12        1.89229   0.00000   0.00000   0.00000   0.00000   1.89229
   A13        1.89680  -0.00000   0.00000   0.00000   0.00000   1.89680
   A14        2.07678  -0.00000   0.00000   0.00000   0.00000   2.07678
   A15        2.00172   0.00000   0.00000   0.00000   0.00000   2.00172
   A16        2.12737  -0.00000   0.00000  -0.00000  -0.00000   2.12737
    D1        1.39646  -0.00000   0.00000  -0.00000  -0.00000   1.39646
    D2       -2.78338  -0.00000   0.00000  -0.00000  -0.00000  -2.78338
    D3       -0.75654  -0.00000   0.00000  -0.00000  -0.00000  -0.75655
    D4       -0.24334  -0.00000   0.00000  -0.00000  -0.00000  -0.24334
    D5       -2.98086  -0.00000   0.00000  -0.00000  -0.00000  -2.98086
    D6        2.73752  -0.00000   0.00000   0.00000   0.00000   2.73752
    D7       -1.07714   0.00000   0.00000  -0.00000  -0.00000  -1.07714
    D8        3.11265   0.00000   0.00000  -0.00000  -0.00000   3.11265
    D9        1.01983   0.00000   0.00000  -0.00000  -0.00000   1.01983
   D10       -3.12740  -0.00000   0.00000  -0.00000  -0.00000  -3.12740
   D11        1.06239  -0.00000   0.00000  -0.00000  -0.00000   1.06239
   D12       -1.03043  -0.00000   0.00000  -0.00000  -0.00000  -1.03043
   D13        1.05365   0.00000   0.00000  -0.00000  -0.00000   1.05365
   D14       -1.03975   0.00000   0.00000  -0.00000  -0.00000  -1.03975
   D15       -3.13257   0.00000   0.00000  -0.00000  -0.00000  -3.13257
   D16       -2.70735   0.00000   0.00000  -0.00000  -0.00000  -2.70735
         Item               Value     Threshold  Converged?
 Maximum Force            0.000000     0.000450     YES
 RMS     Force            0.000000     0.000300     YES
 Maximum Displacement     0.000006     0.001800     YES
 RMS     Displacement     0.000002     0.001200     YES
 Predicted change in Energy=-1.165443D-13
 Optimization completed.
    -- Stationary point found.
                           ----------------------------
                           !   Optimized Parameters   !
                           ! (Angstroms and Degrees)  !
 --------------------------                            --------------------------
 ! Name  Definition              Value          Derivative Info.                !
 --------------------------------------------------------------------------------
 ! R1    R(1,2)                  1.4199         -DE/DX =    0.0                 !
 ! R2    R(1,4)                  1.3468         -DE/DX =    0.0                 !
 ! R3    R(2,3)                  1.5167         -DE/DX =    0.0                 !
 ! R4    R(2,5)                  1.0883         -DE/DX =    0.0                 !
 ! R5    R(2,6)                  1.0937         -DE/DX =    0.0                 !
 ! R6    R(3,7)                  1.0894         -DE/DX =    0.0                 !
 ! R7    R(3,8)                  1.0896         -DE/DX =    0.0                 !
 ! R8    R(3,9)                  1.0889         -DE/DX =    0.0                 !
 ! R9    R(4,10)                 1.0812         -DE/DX =    0.0                 !
 ! R10   R(4,11)                 1.0768         -DE/DX =    0.0                 !
 ! A1    A(2,1,4)              115.534          -DE/DX =    0.0                 !
 ! A2    A(1,2,3)              111.5739         -DE/DX =    0.0                 !
 ! A3    A(1,2,5)              105.6908         -DE/DX =    0.0                 !
 ! A4    A(1,2,6)              109.0692         -DE/DX =    0.0                 !
 ! A5    A(3,2,5)              110.8008         -DE/DX =    0.0                 !
 ! A6    A(3,2,6)              111.2941         -DE/DX =    0.0                 !
 ! A7    A(5,2,6)              108.2017         -DE/DX =    0.0                 !
 ! A8    A(2,3,7)              111.0357         -DE/DX =    0.0                 !
 ! A9    A(2,3,8)              110.1642         -DE/DX =    0.0                 !
 ! A10   A(2,3,9)              110.1994         -DE/DX =    0.0                 !
 ! A11   A(7,3,8)              108.2752         -DE/DX =    0.0                 !
 ! A12   A(7,3,9)              108.4203         -DE/DX =    0.0                 !
 ! A13   A(8,3,9)              108.6788         -DE/DX =    0.0                 !
 ! A14   A(1,4,10)             118.9905         -DE/DX =    0.0                 !
 ! A15   A(1,4,11)             114.6903         -DE/DX =    0.0                 !
 ! A16   A(10,4,11)            121.8894         -DE/DX =    0.0                 !
 ! D1    D(4,1,2,3)             80.0113         -DE/DX =    0.0                 !
 ! D2    D(4,1,2,5)           -159.476          -DE/DX =    0.0                 !
 ! D3    D(4,1,2,6)            -43.3467         -DE/DX =    0.0                 !
 ! D4    D(2,1,4,10)           -13.9423         -DE/DX =    0.0                 !
 ! D5    D(2,1,4,11)          -170.7907         -DE/DX =    0.0                 !
 ! D6    D(11,1,4,10)          156.8484         -DE/DX =    0.0                 !
 ! D7    D(1,2,3,7)            -61.7156         -DE/DX =    0.0                 !
 ! D8    D(1,2,3,8)            178.3418         -DE/DX =    0.0                 !
 ! D9    D(1,2,3,9)             58.4319         -DE/DX =    0.0                 !
 ! D10   D(5,2,3,7)           -179.1868         -DE/DX =    0.0                 !
 ! D11   D(5,2,3,8)             60.8706         -DE/DX =    0.0                 !
 ! D12   D(5,2,3,9)            -59.0393         -DE/DX =    0.0                 !
 ! D13   D(6,2,3,7)             60.3696         -DE/DX =    0.0                 !
 ! D14   D(6,2,3,8)            -59.5731         -DE/DX =    0.0                 !
 ! D15   D(6,2,3,9)           -179.483          -DE/DX =    0.0                 !
 ! D16   D(1,4,10,11)         -155.1198         -DE/DX =    0.0                 !
 --------------------------------------------------------------------------------
 Lowest energy point so far.  Saving SCF results.
 Iteration  1 RMS(Cart)=  0.01012785 RMS(Int)=  0.02112935
 Iteration  2 RMS(Cart)=  0.00055963 RMS(Int)=  0.02112458
 Iteration  3 RMS(Cart)=  0.00001651 RMS(Int)=  0.02112457
 Iteration  4 RMS(Cart)=  0.00000067 RMS(Int)=  0.02112457
 Iteration  1 RMS(Cart)=  0.00603545 RMS(Int)=  0.01310781
 Iteration  2 RMS(Cart)=  0.00366730 RMS(Int)=  0.01458970
 Iteration  3 RMS(Cart)=  0.00226389 RMS(Int)=  0.01670362
 Iteration  4 RMS(Cart)=  0.00141035 RMS(Int)=  0.01833802
 Iteration  5 RMS(Cart)=  0.00088336 RMS(Int)=  0.01945527
 Iteration  6 RMS(Cart)=  0.00055509 RMS(Int)=  0.02018816
 Iteration  7 RMS(Cart)=  0.00034950 RMS(Int)=  0.02066054
 Iteration  8 RMS(Cart)=  0.00022033 RMS(Int)=  0.02096238
 Iteration  9 RMS(Cart)=  0.00013901 RMS(Int)=  0.02115435
 Iteration 10 RMS(Cart)=  0.00008774 RMS(Int)=  0.02127613
 Iteration 11 RMS(Cart)=  0.00005540 RMS(Int)=  0.02135325
 Iteration 12 RMS(Cart)=  0.00003498 RMS(Int)=  0.02140204
 Iteration 13 RMS(Cart)=  0.00002210 RMS(Int)=  0.02143290
 Iteration 14 RMS(Cart)=  0.00001396 RMS(Int)=  0.02145240
 Iteration 15 RMS(Cart)=  0.00000882 RMS(Int)=  0.02146473
 Iteration 16 RMS(Cart)=  0.00000557 RMS(Int)=  0.02147251
 Iteration 17 RMS(Cart)=  0.00000352 RMS(Int)=  0.02147743
 Iteration 18 RMS(Cart)=  0.00000222 RMS(Int)=  0.02148054
 Iteration 19 RMS(Cart)=  0.00000140 RMS(Int)=  0.02148251
 Iteration 20 RMS(Cart)=  0.00000089 RMS(Int)=  0.02148375
 GradGradGradGradGradGradGradGradGradGradGradGradGradGradGradGradGradGrad

[...]
 NSgBfM=   219   219   219   219   219 MxSgAt=    11 MxSgA2=    11.
 Leave Link  302 at Sat Mar  9 14:08:32 2019, MaxMem=   671088640 cpu:               4.8 elap:               0.3
 (Enter /shared/centos7/gaussian/g16/l303.exe)
 DipDrv:  MaxL=1.
 Leave Link  303 at Sat Mar  9 14:08:32 2019, MaxMem=   671088640 cpu:               0.4 elap:               0.0
 (Enter /shared/centos7/gaussian/g16/l401.exe)
 Initial guess from the checkpoint file:  "/scratch/underkoffler.c/gaussian_scratch/Gau-23356.chk"
 B after Tr=    -0.000000    0.000000    0.000000
         Rot=    1.000000   -0.000013    0.000187    0.000397 Ang=  -0.05 deg.
 Guess basis will be translated and rotated to current coordinates.
 JPrj=2 DoOrth=T DoCkMO=T.
 Initial guess <Sx>= 0.0000 <Sy>= 0.0000 <Sz>= 0.5000 <S**2>= 0.7611 S= 0.5055
 Generating alternative initial guess.
 ExpMin= 4.38D-02 ExpMax= 8.59D+03 ExpMxC= 1.30D+03 IAcc=2 IRadAn=         4 AccDes= 0.00D+00
 Harris functional with IExCor= 1009 and IRadAn=       4 diagonalized for initial guess.
 HarFok:  IExCor= 1009 AccDes= 0.00D+00 IRadAn=         4 IDoV= 1 UseB2=F ITyADJ=14
 ICtDFT=  3500011 ScaDFX=  1.000000  1.000000  1.000000  1.000000
 FoFCou: FMM=F IPFlag=           0 FMFlag=      100000 FMFlg1=           0
         NFxFlg=           0 DoJE=T BraDBF=F KetDBF=T FulRan=T
         wScrn=  0.000000 ICntrl=       500 IOpCl=  0 I1Cent=   200000004 NGrid=           0
         NMat0=    1 NMatS0=      1 NMatT0=    0 NMatD0=    1 NMtDS0=    0 NMtDT0=    0
 Petite list used in FoFCou.
 Harris En= -193.467216249356    
 Leave Link  401 at Sat Mar  9 14:08:32 2019, MaxMem=   671088640 cpu:               8.7 elap:               0.5
 (Enter /shared/centos7/gaussian/g16/l502.exe)
 Keep R1 and R2 ints in memory in canonical form, NReq=416958841.
 FoFCou: FMM=F IPFlag=           0 FMFlag=           0 FMFlg1=           0
         NFxFlg=           0 DoJE=F BraDBF=F KetDBF=F FulRan=T
         wScrn=  0.000000 ICntrl=       600 IOpCl=  0 I1Cent=           0 NGrid=           0
         NMat0=    1 NMatS0=  19900 NMatT0=    0 NMatD0=    1 NMtDS0=    0 NMtDT0=    0
 Symmetry not used in FoFCou.
 Two-electron integral symmetry not used.
 UHF open shell SCF:
 Using DIIS extrapolation, IDIIS=  1040.
 NGot=   671088640 LenX=   274956345 LenY=   274907943
 Requested convergence on RMS density matrix=1.00D-08 within 128 cycles.
 Requested convergence on MAX density matrix=1.00D-06.
 Requested convergence on             energy=1.00D-06.
 No special actions if energy rises.

 Cycle   1  Pass 1  IDiag  1:
 E= -193.546316889219    
 DIIS: error= 4.74D-04 at cycle   1 NSaved=   1.
 NSaved= 1 IEnMin= 1 EnMin= -193.546316889219     IErMin= 1 ErrMin= 4.74D-04
 ErrMax= 4.74D-04  0.00D+00 EMaxC= 1.00D-01 BMatC= 1.49D-04 BMatP= 1.49D-04
 IDIUse=3 WtCom= 9.95D-01 WtEn= 4.74D-03
 Coeff-Com:  0.100D+01
 Coeff-En:   0.100D+01
 Coeff:      0.100D+01
 Gap=     0.543 Goal=   None    Shift=    0.000
 Gap=     0.562 Goal=   None    Shift=    0.000
 RMSDP=3.16D-05 MaxDP=1.30D-03              OVMax= 4.57D-03

 Cycle   2  Pass 1  IDiag  1:
 E= -193.546362026883     Delta-E=       -0.000045137664 Rises=F Damp=F
 DIIS: error= 1.27D-04 at cycle   2 NSaved=   2.
 NSaved= 2 IEnMin= 2 EnMin= -193.546362026883     IErMin= 2 ErrMin= 1.27D-04
 ErrMax= 1.27D-04  0.00D+00 EMaxC= 1.00D-01 BMatC= 1.62D-05 BMatP= 1.49D-04
 IDIUse=3 WtCom= 9.99D-01 WtEn= 1.27D-03
 Coeff-Com:  0.112D+00 0.888D+00
 Coeff-En:   0.000D+00 0.100D+01
 Coeff:      0.112D+00 0.888D+00
 Gap=     0.269 Goal=   None    Shift=    0.000
 Gap=     0.283 Goal=   None    Shift=    0.000
 RMSDP=1.40D-05 MaxDP=9.16D-04 DE=-4.51D-05 OVMax= 1.33D-03

 Cycle   3  Pass 1  IDiag  1:
 E= -193.546365495610     Delta-E=       -0.000003468727 Rises=F Damp=F
 DIIS: error= 7.53D-05 at cycle   3 NSaved=   3.
 NSaved= 3 IEnMin= 3 EnMin= -193.546365495610     IErMin= 3 ErrMin= 7.53D-05
 ErrMax= 7.53D-05  0.00D+00 EMaxC= 1.00D-01 BMatC= 7.42D-06 BMatP= 1.62D-05
 IDIUse=1 WtCom= 1.00D+00 WtEn= 0.00D+00
 Coeff-Com: -0.250D-01 0.387D+00 0.638D+00
 Coeff:     -0.250D-01 0.387D+00 0.638D+00
 Gap=     0.269 Goal=   None    Shift=    0.000
 Gap=     0.283 Goal=   None    Shift=    0.000
 RMSDP=6.08D-06 MaxDP=2.76D-04 DE=-3.47D-06 OVMax= 8.21D-04

 Cycle   4  Pass 1  IDiag  1:
 E= -193.546367410759     Delta-E=       -0.000001915149 Rises=F Damp=F
 DIIS: error= 2.00D-05 at cycle   4 NSaved=   4.
 NSaved= 4 IEnMin= 4 EnMin= -193.546367410759     IErMin= 4 ErrMin= 2.00D-05
 ErrMax= 2.00D-05  0.00D+00 EMaxC= 1.00D-01 BMatC= 6.48D-07 BMatP= 7.42D-06
 IDIUse=1 WtCom= 1.00D+00 WtEn= 0.00D+00
 Coeff-Com: -0.170D-01 0.105D-01 0.210D+00 0.797D+00
 Coeff:     -0.170D-01 0.105D-01 0.210D+00 0.797D+00
 Gap=     0.269 Goal=   None    Shift=    0.000
 Gap=     0.283 Goal=   None    Shift=    0.000
 RMSDP=3.08D-06 MaxDP=1.31D-04 DE=-1.92D-06 OVMax= 3.74D-04

 Cycle   5  Pass 1  IDiag  1:
 E= -193.546367664457     Delta-E=       -0.000000253698 Rises=F Damp=F
 DIIS: error= 9.63D-06 at cycle   5 NSaved=   5.
 NSaved= 5 IEnMin= 5 EnMin= -193.546367664457     IErMin= 5 ErrMin= 9.63D-06
 ErrMax= 9.63D-06  0.00D+00 EMaxC= 1.00D-01 BMatC= 1.39D-07 BMatP= 6.48D-07
 IDIUse=1 WtCom= 1.00D+00 WtEn= 0.00D+00
 Coeff-Com: -0.373D-02-0.541D-01 0.261D-02 0.332D+00 0.723D+00
 Coeff:     -0.373D-02-0.541D-01 0.261D-02 0.332D+00 0.723D+00
 Gap=     0.269 Goal=   None    Shift=    0.000
 Gap=     0.283 Goal=   None    Shift=    0.000
 RMSDP=1.74D-06 MaxDP=7.51D-05 DE=-2.54D-07 OVMax= 2.48D-04

 Cycle   6  Pass 1  IDiag  1:
 E= -193.546367742752     Delta-E=       -0.000000078295 Rises=F Damp=F
 DIIS: error= 6.62D-06 at cycle   6 NSaved=   6.
 NSaved= 6 IEnMin= 6 EnMin= -193.546367742752     IErMin= 6 ErrMin= 6.62D-06
 ErrMax= 6.62D-06  0.00D+00 EMaxC= 1.00D-01 BMatC= 2.72D-08 BMatP= 1.39D-07
 IDIUse=1 WtCom= 1.00D+00 WtEn= 0.00D+00
 Coeff-Com:  0.334D-02-0.167D-01-0.476D-01-0.119D+00 0.199D+00 0.981D+00
 Coeff:      0.334D-02-0.167D-01-0.476D-01-0.119D+00 0.199D+00 0.981D+00
 Gap=     0.269 Goal=   None    Shift=    0.000
 Gap=     0.283 Goal=   None    Shift=    0.000
 RMSDP=1.18D-06 MaxDP=3.69D-05 DE=-7.83D-08 OVMax= 2.31D-04

 Cycle   7  Pass 1  IDiag  1:
 E= -193.546367776049     Delta-E=       -0.000000033298 Rises=F Damp=F
 DIIS: error= 2.25D-06 at cycle   7 NSaved=   7.
 NSaved= 7 IEnMin= 7 EnMin= -193.546367776049     IErMin= 7 ErrMin= 2.25D-06
 ErrMax= 2.25D-06  0.00D+00 EMaxC= 1.00D-01 BMatC= 4.80D-09 BMatP= 2.72D-08
 IDIUse=1 WtCom= 1.00D+00 WtEn= 0.00D+00
 Coeff-Com:  0.479D-03 0.175D-01 0.597D-02-0.999D-01-0.191D+00-0.777D-01
 Coeff-Com:  0.135D+01
 Coeff:      0.479D-03 0.175D-01 0.597D-02-0.999D-01-0.191D+00-0.777D-01
 Coeff:      0.135D+01
 Gap=     0.269 Goal=   None    Shift=    0.000
 Gap=     0.283 Goal=   None    Shift=    0.000
 RMSDP=8.21D-07 MaxDP=1.90D-05 DE=-3.33D-08 OVMax= 1.77D-04

 Cycle   8  Pass 1  IDiag  1:
 E= -193.546367786324     Delta-E=       -0.000000010275 Rises=F Damp=F
 DIIS: error= 7.35D-07 at cycle   8 NSaved=   8.
 NSaved= 8 IEnMin= 8 EnMin= -193.546367786324     IErMin= 8 ErrMin= 7.35D-07
 ErrMax= 7.35D-07  0.00D+00 EMaxC= 1.00D-01 BMatC= 6.58D-10 BMatP= 4.80D-09
 IDIUse=1 WtCom= 1.00D+00 WtEn= 0.00D+00
 Coeff-Com: -0.427D-03 0.639D-02 0.960D-02-0.524D-02-0.624D-01-0.162D+00
 Coeff-Com:  0.270D+00 0.945D+00
 Coeff:     -0.427D-03 0.639D-02 0.960D-02-0.524D-02-0.624D-01-0.162D+00
 Coeff:      0.270D+00 0.945D+00
 Gap=     0.269 Goal=   None    Shift=    0.000
 Gap=     0.283 Goal=   None    Shift=    0.000
 RMSDP=2.37D-07 MaxDP=7.03D-06 DE=-1.03D-08 OVMax= 4.54D-05

 Cycle   9  Pass 1  IDiag  1:
 E= -193.546367787095     Delta-E=       -0.000000000771 Rises=F Damp=F
 DIIS: error= 2.90D-07 at cycle   9 NSaved=   9.
 NSaved= 9 IEnMin= 9 EnMin= -193.546367787095     IErMin= 9 ErrMin= 2.90D-07
 ErrMax= 2.90D-07  0.00D+00 EMaxC= 1.00D-01 BMatC= 1.21D-10 BMatP= 6.58D-10
 IDIUse=1 WtCom= 1.00D+00 WtEn= 0.00D+00
 Coeff-Com: -0.185D-03-0.939D-03 0.244D-02 0.132D-01 0.128D-01-0.356D-01
 Coeff-Com: -0.125D+00 0.244D+00 0.889D+00
 Coeff:     -0.185D-03-0.939D-03 0.244D-02 0.132D-01 0.128D-01-0.356D-01
 Coeff:     -0.125D+00 0.244D+00 0.889D+00
 Gap=     0.269 Goal=   None    Shift=    0.000
 Gap=     0.283 Goal=   None    Shift=    0.000
 RMSDP=1.07D-07 MaxDP=5.00D-06 DE=-7.71D-10 OVMax= 1.20D-05

 Cycle  10  Pass 1  IDiag  1:
 E= -193.546367787188     Delta-E=       -0.000000000093 Rises=F Damp=F
 DIIS: error= 1.38D-07 at cycle  10 NSaved=  10.
 NSaved=10 IEnMin=10 EnMin= -193.546367787188     IErMin=10 ErrMin= 1.38D-07
 ErrMax= 1.38D-07  0.00D+00 EMaxC= 1.00D-01 BMatC= 1.83D-11 BMatP= 1.21D-10
 IDIUse=1 WtCom= 1.00D+00 WtEn= 0.00D+00
 Coeff-Com:  0.448D-04-0.156D-02-0.111D-02 0.353D-02 0.150D-01 0.244D-01
 Coeff-Com: -0.740D-01-0.145D+00 0.152D+00 0.103D+01
 Coeff:      0.448D-04-0.156D-02-0.111D-02 0.353D-02 0.150D-01 0.244D-01
 Coeff:     -0.740D-01-0.145D+00 0.152D+00 0.103D+01
 Gap=     0.269 Goal=   None    Shift=    0.000
 Gap=     0.283 Goal=   None    Shift=    0.000
 RMSDP=5.67D-08 MaxDP=3.13D-06 DE=-9.30D-11 OVMax= 3.62D-06

 Cycle  11  Pass 1  IDiag  1:
 E= -193.546367787204     Delta-E=       -0.000000000016 Rises=F Damp=F
 DIIS: error= 3.87D-08 at cycle  11 NSaved=  11.
 NSaved=11 IEnMin=11 EnMin= -193.546367787204     IErMin=11 ErrMin= 3.87D-08
 ErrMax= 3.87D-08  0.00D+00 EMaxC= 1.00D-01 BMatC= 1.25D-12 BMatP= 1.83D-11
 IDIUse=1 WtCom= 1.00D+00 WtEn= 0.00D+00
 Coeff-Com:  0.232D-04 0.955D-04-0.259D-03-0.176D-02-0.126D-02 0.420D-02
 Coeff-Com:  0.146D-01-0.237D-01-0.101D+00-0.392D-01 0.115D+01
 Coeff:      0.232D-04 0.955D-04-0.259D-03-0.176D-02-0.126D-02 0.420D-02
 Coeff:      0.146D-01-0.237D-01-0.101D+00-0.392D-01 0.115D+01
 Gap=     0.269 Goal=   None    Shift=    0.000
 Gap=     0.283 Goal=   None    Shift=    0.000
 RMSDP=1.37D-08 MaxDP=6.36D-07 DE=-1.57D-11 OVMax= 1.00D-06

 Cycle  12  Pass 1  IDiag  1:
 E= -193.546367787208     Delta-E=       -0.000000000004 Rises=F Damp=F
 DIIS: error= 1.14D-08 at cycle  12 NSaved=  12.
 NSaved=12 IEnMin=12 EnMin= -193.546367787208     IErMin=12 ErrMin= 1.14D-08
 ErrMax= 1.14D-08  0.00D+00 EMaxC= 1.00D-01 BMatC= 1.39D-13 BMatP= 1.25D-12
 IDIUse=1 WtCom= 1.00D+00 WtEn= 0.00D+00
 Coeff-Com:  0.429D-06 0.140D-03 0.220D-04-0.582D-03-0.139D-02-0.104D-02
 Coeff-Com:  0.802D-02 0.820D-02-0.305D-01-0.933D-01 0.224D+00 0.886D+00
 Coeff:      0.429D-06 0.140D-03 0.220D-04-0.582D-03-0.139D-02-0.104D-02
 Coeff:      0.802D-02 0.820D-02-0.305D-01-0.933D-01 0.224D+00 0.886D+00
 Gap=     0.269 Goal=   None    Shift=    0.000
 Gap=     0.283 Goal=   None    Shift=    0.000
 RMSDP=2.43D-09 MaxDP=9.08D-08 DE=-3.98D-12 OVMax= 1.97D-07

 SCF Done:  E(UM062X) =  -193.546367787     A.U. after   12 cycles
            NFock= 12  Conv=0.24D-08     -V/T= 2.0046
 <Sx>= 0.0000 <Sy>= 0.0000 <Sz>= 0.5000 <S**2>= 0.7608 S= 0.5054
 <L.S>= 0.000000000000E+00
 KE= 1.926563109857D+02 PE=-7.039691867462D+02 EE= 1.914809027744D+02
 Annihilation of the first spin contaminant:
 S**2 before annihilation     0.7608,   after     0.7501
 Leave Link  502 at Sat Mar  9 14:08:57 2019, MaxMem=   671088640 cpu:             337.2 elap:              25.0
 (Enter /shared/centos7/gaussian/g16/l701.exe)
 ... and contract with generalized density number  0.
 Compute integral first derivatives.
 Leave Link  701 at Sat Mar  9 14:08:57 2019, MaxMem=   671088640 cpu:               3.9 elap:               0.2
 (Enter /shared/centos7/gaussian/g16/l702.exe)
 L702 exits ... SP integral derivatives will be done elsewhere.
 Leave Link  702 at Sat Mar  9 14:08:57 2019, MaxMem=   671088640 cpu:               0.3 elap:               0.0
 (Enter /shared/centos7/gaussian/g16/l703.exe)
 Integral derivatives from FoFJK, PRISM(SPDF).
 Compute integral first derivatives, UseDBF=F ICtDFT=           0.
 Calling FoFJK, ICntrl=      2127 FMM=F ISym2X=0 I1Cent= 0 IOpClX= 1 NMat=1 NMatS=1 NMatT=0.
 FoFJK:  IHMeth= 1 ICntrl=    2127 DoSepK=F KAlg= 0 I1Cent=           0 FoldK=F
 IRaf=         0 NMat=       1 IRICut=       1 DoRegI=T DoRafI=F ISym2E= 0 IDoP0=0 IntGTp=1.
 FoFCou: FMM=F IPFlag=           0 FMFlag=      100000 FMFlg1=         800
         NFxFlg=           0 DoJE=F BraDBF=F KetDBF=F FulRan=T
         wScrn=  0.000000 ICntrl=      2127 IOpCl=  1 I1Cent=           0 NGrid=           0
         NMat0=    1 NMatS0=      1 NMatT0=    0 NMatD0=    1 NMtDS0=    0 NMtDT0=    0
 Symmetry not used in FoFCou.
 Leave Link  703 at Sat Mar  9 14:09:01 2019, MaxMem=   671088640 cpu:              72.7 elap:               3.7
 (Enter /shared/centos7/gaussian/g16/l716.exe)
 Dipole        =-5.41322166D-01 2.72709648D-01 2.76514668D-01
 ***** Axes restored to original set *****
 -------------------------------------------------------------------
 Center     Atomic                   Forces (Hartrees/Bohr)
 Number     Number              X              Y              Z
 -------------------------------------------------------------------
      1        8          -0.010487151   -0.021997772   -0.041579924
      2        6           0.002699372    0.003444113    0.001138897
      3        6          -0.002966926   -0.000159488   -0.001841676
      4        6           0.080047917    0.056988140    0.121439372
      5        1          -0.001011628   -0.002804633    0.000339579
      6        1           0.001012734   -0.001080682   -0.001319506
      7        1           0.001013892   -0.000074179    0.002582294
      8        1          -0.001159449   -0.001173174   -0.000649467
      9        1          -0.000235945    0.000377224   -0.000239777
     10        1          -0.036711597   -0.016013402   -0.047422305
     11        1          -0.032201219   -0.017506147   -0.032447487
 -------------------------------------------------------------------
 Cartesian Forces:  Max     0.121439372 RMS     0.031637906
 Leave Link  716 at Sat Mar  9 14:09:01 2019, MaxMem=   671088640 cpu:               0.3 elap:               0.0
 (Enter /shared/centos7/gaussian/g16/l103.exe)

 GradGradGradGradGradGradGradGradGradGradGradGradGradGradGradGradGradGrad
 Berny optimization.
 Using GEDIIS/GDIIS optimizer.
 FormGI is forming the generalized inverse of G from B-inverse, IUseBI=4.
 Internal  Forces:  Max     0.058801236 RMS     0.012844660
 Search for a local minimum.
 Step number  33 out of a maximum of   52 on scan point    16 out of    73
 All quantities printed in internal units (Hartrees-Bohrs-Radians)
 RMS Force = .12944D-01 SwitMx=.10000D-02 MixMth= 1
 Mixed Optimization -- RFO/linear search
 Update second derivatives using D2CorX and points   33    7
 ITU=  0  0  0  0  0  0  0  0  0  0  0  0  0  0  0  0  0  0  0  0
 ITU=  0  0  0  0  0 -1 -1  1  1  1  1  1  0
 Use linear search instead of GDIIS.
 Skip linear search -- no minimum in search direction.
 Steepest descent instead of Quadratic search.
 Steepest descent step scaled to max of 0.05000.
 Iteration  1 RMS(Cart)=  0.00107602 RMS(Int)=  0.01026586
 SLEqS3 Cycle:    30 Max:0.513377E-01 RMS: 1383.51     Conv:0.626784E-02
 Iteration  2 RMS(Cart)=  0.00566357 RMS(Int)=  0.00871507
 Iteration  3 RMS(Cart)=  0.00031382 RMS(Int)=  0.00871115
 SLEqS3 Cycle:    15 Max:0.475831E-01 RMS: 624.341     Conv:0.282840E-02
 Iteration  4 RMS(Cart)=  0.00001821 RMS(Int)=  0.00871135
 SLEqS3 Cycle:   331 Max:0.863605E-02 RMS:0.233018E-02 Conv:0.181640E-03
 SLEqS3 Cycle:    30 Max:0.472258E-01 RMS: 40.0955     Conv:0.181640E-03
 Iteration  5 RMS(Cart)=  0.00037243 RMS(Int)=  0.00870888
 SLEqS3 Cycle:    15 Max:0.443461E-01 RMS: 1113.97     Conv:0.504645E-02
 Iteration  6 RMS(Cart)=  0.00004938 RMS(Int)=  0.00870868
 SLEqS3 Cycle:    15 Max:0.471625E-01 RMS: 42.0007     Conv:0.190275E-03
 Iteration  7 RMS(Cart)=  0.00010653 RMS(Int)=  0.00870851
 SLEqS3 Cycle:    15 Max:0.420806E-01 RMS: 55.9068     Conv:0.253277E-03
 Iteration  8 RMS(Cart)=  0.00001581 RMS(Int)=  0.00870849
 SLEqS3 Cycle:    15 Max:0.385968E-01 RMS: 15.8230     Conv:0.716827E-04
 Iteration  9 RMS(Cart)=  0.00001325 RMS(Int)=  0.00870848
 SLEqS3 Cycle:   331 Max:0.109769E-01 RMS:0.301432E-02 Conv:0.105858E-03
 SLEqS3 Cycle:    30 Max:0.420894E-01 RMS: 23.3665     Conv:0.105858E-03
 Iteration 10 RMS(Cart)=  0.00002426 RMS(Int)=  0.00870846
 SLEqS3 Cycle:   331 Max:0.894153E-02 RMS:0.251165E-02 Conv:0.387592E-04
 SLEqS3 Cycle:    30 Max:0.420916E-01 RMS: 8.55572     Conv:0.387592E-04
 Iteration 11 RMS(Cart)=  0.00002064 RMS(Int)=  0.00870844
 SLEqS3 Cycle:    15 Max:0.443760E-01 RMS:0.181445     Conv:0.822291E-06
 Iteration 12 RMS(Cart)=  0.00000380 RMS(Int)=  0.00870844
 SLEqS3 Cycle:   331 Max:0.794607E-02 RMS:0.225025E-02 Conv:0.182873E-06
 SLEqS3 Cycle:   331 Max:0.472057E-01 RMS:0.118490E-01 Conv:0.182873E-06
 Iteration 13 RMS(Cart)=  0.00001726 RMS(Int)=  0.00870843
 SLEqS3 Cycle:   331 Max:0.725844E-02 RMS:0.211159E-02 Conv:0.134253E-05
 SLEqS3 Cycle:    44 Max:0.472061E-01 RMS:0.118488E-01 Conv:0.134253E-05
 Iteration 14 RMS(Cart)=  0.00001583 RMS(Int)=  0.00870842
 SLEqS3 Cycle:    15 Max:0.472073E-01 RMS:0.156206     Conv:0.703784E-06
 Iteration 15 RMS(Cart)=  0.00001308 RMS(Int)=  0.00870841
 SLEqS3 Cycle:    15 Max:0.443770E-01 RMS:0.399270E-01 Conv:0.175519E-06
 Iteration 16 RMS(Cart)=  0.00000441 RMS(Int)=  0.00870841
 SLEqS3 Cycle:   331 Max:0.592317E-02 RMS:0.179052E-02 Conv:0.128656E-06
 SLEqS3 Cycle:   331 Max:0.557828E-01 RMS:0.140054E-01 Conv:0.128656E-06
 Iteration 17 RMS(Cart)=  0.00001602 RMS(Int)=  0.00870840
 SLEqS3 Cycle:   331 Max:0.680716E-02 RMS:0.200705E-02 Conv:0.460369E-05
 SLEqS3 Cycle:    30 Max:0.420959E-01 RMS: 1.01660     Conv:0.460369E-05
 Iteration 18 RMS(Cart)=  0.00000854 RMS(Int)=  0.00870840
 SLEqS3 Cycle:   331 Max:0.839693E-02 RMS:0.232582E-02 Conv:0.297047E-05
 SLEqS3 Cycle:    30 Max:0.472086E-01 RMS:0.655351     Conv:0.297047E-05
 Iteration 19 RMS(Cart)=  0.00000775 RMS(Int)=  0.00870840
 SLEqS3 Cycle:   331 Max:0.128692E-01 RMS:0.366382E-02 Conv:0.199990E-06
 SLEqS3 Cycle:    30 Max:0.443786E-01 RMS:0.459151E-01 Conv:0.199990E-06
 Iteration 20 RMS(Cart)=  0.00000521 RMS(Int)=  0.00870840
 SLEqS3 Cycle:   331 Max:0.776467E-02 RMS:0.219512E-02 Conv:0.983909E-07
 SLEqS3 Cycle:   331 Max:0.472096E-01 RMS:0.118484E-01 Conv:0.983909E-07
 Iteration 21 RMS(Cart)=  0.00000304 RMS(Int)=  0.00870840
 SLEqS3 Cycle:   331 Max:0.726702E-02 RMS:0.212048E-02 Conv:0.377137E-06
 SLEqS3 Cycle:    30 Max:0.472072E-01 RMS:0.836742E-01 Conv:0.377137E-06
 Iteration 22 RMS(Cart)=  0.00000672 RMS(Int)=  0.00870839
 SLEqS3 Cycle:   331 Max:0.535808E-02 RMS:0.175971E-02 Conv:0.138164E-05
 SLEqS3 Cycle:    30 Max:0.557830E-01 RMS:0.305730     Conv:0.138164E-05
 Iteration 23 RMS(Cart)=  0.00000457 RMS(Int)=  0.00870839
 SLEqS3 Cycle:    15 Max:0.443778E-01 RMS:0.326912     Conv:0.147842E-05
 Iteration 24 RMS(Cart)=  0.00000169 RMS(Int)=  0.00870839
 SLEqS3 Cycle:   331 Max:0.764441E-02 RMS:0.190534E-02 Conv:0.227166E-06
 SLEqS3 Cycle:    30 Max:0.472074E-01 RMS:0.519225E-01 Conv:0.227166E-06
 Iteration 25 RMS(Cart)=  0.00000316 RMS(Int)=  0.00870839
 SLEqS3 Cycle:   331 Max:0.732586E-02 RMS:0.204121E-02 Conv:0.585102E-06
 SLEqS3 Cycle:    30 Max:0.472075E-01 RMS:0.130098     Conv:0.585102E-06
 Iteration 26 RMS(Cart)=  0.00000329 RMS(Int)=  0.00870839
 SLEqS3 Cycle:   331 Max:0.929901E-02 RMS:0.228850E-02 Conv:0.399584E-06
 SLEqS3 Cycle:    30 Max:0.420927E-01 RMS:0.892216E-01 Conv:0.399584E-06
 Iteration 27 RMS(Cart)=  0.00000017 RMS(Int)=  0.00870839
 Iteration  1 RMS(Cart)=  0.00002977 RMS(Int)=  0.00027346
 Iteration  2 RMS(Cart)=  0.00002852 RMS(Int)=  0.00029490
 Iteration  3 RMS(Cart)=  0.00001450 RMS(Int)=  0.00031706
 Iteration  4 RMS(Cart)=  0.00004647 RMS(Int)=  0.00034521
 New curvilinear step failed:  FormB failed.
 Error imposing constraints
 Error termination via Lnk1e in /shared/centos7/gaussian/g16/l103.exe at Sat Mar  9 14:09:03 2019.
 Job cpu time:       0 days 11 hours 45 minutes 22.9 seconds.
 Elapsed time:       0 days  0 hours 47 minutes 22.3 seconds.
 File lengths (MBytes):  RWF=   1328 Int=      0 D2E=      0 Chk=     32 Scr=     32
