 Entering Gaussian System, Link 0=g16
 Input=TVFRQKHUZDMLDB-UHFFFAOYSA-N-u2_GeoFreq_a1.com
 Output=TVFRQKHUZDMLDB-UHFFFAOYSA-N-u2_GeoFreq_a1.log
 Initial command:
 /shared/centos7/gaussian/g16/l1.exe "/scratch/underkoffler.c/gaussian_scratch/Gau-1510.inp" -scrdir="/scratch/underkoffler.c/gaussian_scratch/"
 Entering Link 1 = /shared/centos7/gaussian/g16/l1.exe PID=      1511.
  
 Copyright (c) 1988,1990,1992,1993,1995,1998,2003,2009,2016,
            Gaussian, Inc.  All Rights Reserved.
  
 This is part of the Gaussian(R) 16 program.  It is based on
 the Gaussian(R) 09 system (copyright 2009, Gaussian, Inc.),
 the Gaussian(R) 03 system (copyright 2003, Gaussian, Inc.),
 the Gaussian(R) 98 system (copyright 1998, Gaussian, Inc.),
 the Gaussian(R) 94 system (copyright 1995, Gaussian, Inc.),
 the Gaussian 92(TM) system (copyright 1992, Gaussian, Inc.),
 the Gaussian 90(TM) system (copyright 1990, Gaussian, Inc.),
 the Gaussian 88(TM) system (copyright 1988, Gaussian, Inc.),
 the Gaussian 86(TM) system (copyright 1986, Carnegie Mellon
 University), and the Gaussian 82(TM) system (copyright 1983,
 Carnegie Mellon University). Gaussian is a federally registered
 trademark of Gaussian, Inc.
  
 This software contains proprietary and confidential information,
 including trade secrets, belonging to Gaussian, Inc.
  
 This software is provided under written license and may be
 used, copied, transmitted, or stored only in accord with that
 written license.
  
 The following legend is applicable only to US Government
 contracts under FAR:
  
                    RESTRICTED RIGHTS LEGEND
  
 Use, reproduction and disclosure by the US Government is
 subject to restrictions as set forth in subparagraphs (a)
 and (c) of the Commercial Computer Software - Restricted
 Rights clause in FAR 52.227-19.
  
 Gaussian, Inc.
 340 Quinnipiac St., Bldg. 40, Wallingford CT 06492
  
  
 ---------------------------------------------------------------
 Warning -- This program may not be used in any manner that
 competes with the business of Gaussian, Inc. or will provide
 assistance to any competitor of Gaussian, Inc.  The licensee
 of this program is prohibited from giving any competitor of
 Gaussian, Inc. access to this program.  By using this program,
 the user acknowledges that Gaussian, Inc. is engaged in the
 business of creating and licensing software in the field of
 computational chemistry and represents and warrants to the
 licensee that it is not a competitor of Gaussian, Inc. and that
 it will not use this program in any manner prohibited above.
 ---------------------------------------------------------------
  

 Cite this work as:
 Gaussian 16, Revision A.03,
 M. J. Frisch, G. W. Trucks, H. B. Schlegel, G. E. Scuseria, 
 M. A. Robb, J. R. Cheeseman, G. Scalmani, V. Barone, 
 G. A. Petersson, H. Nakatsuji, X. Li, M. Caricato, A. V. Marenich, 
 J. Bloino, B. G. Janesko, R. Gomperts, B. Mennucci, H. P. Hratchian, 
 J. V. Ortiz, A. F. Izmaylov, J. L. Sonnenberg, D. Williams-Young, 
 F. Ding, F. Lipparini, F. Egidi, J. Goings, B. Peng, A. Petrone, 
 T. Henderson, D. Ranasinghe, V. G. Zakrzewski, J. Gao, N. Rega, 
 G. Zheng, W. Liang, M. Hada, M. Ehara, K. Toyota, R. Fukuda, 
 J. Hasegawa, M. Ishida, T. Nakajima, Y. Honda, O. Kitao, H. Nakai, 
 T. Vreven, K. Throssell, J. A. Montgomery, Jr., J. E. Peralta, 
 F. Ogliaro, M. J. Bearpark, J. J. Heyd, E. N. Brothers, K. N. Kudin, 
 V. N. Staroverov, T. A. Keith, R. Kobayashi, J. Normand, 
 K. Raghavachari, A. P. Rendell, J. C. Burant, S. S. Iyengar, 
 J. Tomasi, M. Cossi, J. M. Millam, M. Klene, C. Adamo, R. Cammi, 
 J. W. Ochterski, R. L. Martin, K. Morokuma, O. Farkas, 
 J. B. Foresman, and D. J. Fox, Gaussian, Inc., Wallingford CT, 2016.
 
 ******************************************
 Gaussian 16:  EM64L-G16RevA.03 25-Dec-2016
                 6-Mar-2019 
 ******************************************
 ----------------------------------------------------------------------
 #p m062x/6-311+g(2df,2p) opt=(calcfc,verytight,gdiis,maxcycles=900) fr
 eq iop(7/33=1,2/16=3)
 ----------------------------------------------------------------------

 Warning!  Use of Opt=GDIIS is deprecated since it is seldom a good choice.

 1/6=900,7=1,10=4,18=20,19=11,26=3,38=1/1,3;
 2/9=110,12=2,16=3,17=6,18=5,40=1/2;
 3/5=4,6=6,7=214,11=2,25=1,30=1,71=2,74=-55,140=1/1,2,3;
 4//1;
 5/5=2,38=5/2;
 8/6=4,10=90,11=11/1;
 11/6=1,8=1,9=11,15=111,16=1/1,2,10;
 10/6=1,13=1/2;
 6/7=2,8=2,9=2,10=2,28=1/1;
 7/10=1,18=20,25=1,33=1/1,2,3,16;
 1/6=900,7=1,10=4,18=20,19=11,26=3/3(2);
 2/9=110,16=3/2;
 99//99;
 2/9=110,16=3/2;
 3/5=4,6=6,7=214,11=2,25=1,30=1,71=1,74=-55/1,2,3;
 4/5=5,16=3,69=1/1;
 5/5=2,38=5/2;
 7/33=1/1,2,3,16;
 1/6=900,7=1,18=20,19=11,26=3/3(-5);
 2/9=110,16=3/2;
 6/7=2,8=2,9=2,10=2,19=2,28=1/1;
 99/9=1/99;
 Leave Link    1 at Wed Mar  6 23:46:18 2019, MaxMem=           0 cpu:               0.2 elap:               1.8
 (Enter /shared/centos7/gaussian/g16/l101.exe)
 ------------------------------
 Gaussian input prepared by ASE
 ------------------------------
 Symbolic Z-matrix:
 Charge =  0 Multiplicity = 2
 O                    -0.5382   -0.477     0.9758 
 C                     0.3013   -0.6058   -0.1374 
 C                     1.59356  -1.24272   0.30723 
 C                    -1.7645    0.0793    0.6659 
 H                    -0.26132  -1.27258  -0.83993 
 H                     0.44354   0.3467   -0.67643 
 H                     1.62078  -2.28154  -0.10765 
 H                     1.63076  -1.29279   1.42512 
 H                     2.49748  -0.71222  -0.0642 
 H                    -2.11611  -0.13263  -0.35482 
 H                    -2.47601  -0.26698   1.44156 
 
 Add atom      4 valence  3 ND=      2 dihedral       1      4     10     11
 ITRead=  0  0  0  0  0  0  0  0  0  0  0
 MicOpt= -1 -1 -1 -1 -1 -1 -1 -1 -1 -1 -1
 NAtoms=     11 NQM=       11 NQMF=       0 NMMI=      0 NMMIF=      0
                NMic=       0 NMicF=      0.
                    Isotopes and Nuclear Properties:
 (Nuclear quadrupole moments (NQMom) in fm**2, nuclear magnetic moments (NMagM)
  in nuclear magnetons)

  Atom         1           2           3           4           5           6           7           8           9          10
 IAtWgt=          16          12          12          12           1           1           1           1           1           1
 AtmWgt=  15.9949146  12.0000000  12.0000000  12.0000000   1.0078250   1.0078250   1.0078250   1.0078250   1.0078250   1.0078250
 NucSpn=           0           0           0           0           1           1           1           1           1           1
 AtZEff=  -0.0000000  -0.0000000  -0.0000000  -0.0000000  -0.0000000  -0.0000000  -0.0000000  -0.0000000  -0.0000000  -0.0000000
 NQMom=    0.0000000   0.0000000   0.0000000   0.0000000   0.0000000   0.0000000   0.0000000   0.0000000   0.0000000   0.0000000
 NMagM=    0.0000000   0.0000000   0.0000000   0.0000000   2.7928460   2.7928460   2.7928460   2.7928460   2.7928460   2.7928460
 AtZNuc=   8.0000000   6.0000000   6.0000000   6.0000000   1.0000000   1.0000000   1.0000000   1.0000000   1.0000000   1.0000000

  Atom        11
 IAtWgt=           1
 AtmWgt=   1.0078250
 NucSpn=           1
 AtZEff=  -0.0000000
 NQMom=    0.0000000
 NMagM=    2.7928460
 AtZNuc=   1.0000000
 Leave Link  101 at Wed Mar  6 23:46:18 2019, MaxMem=   104857600 cpu:               0.2 elap:               0.3
 (Enter /shared/centos7/gaussian/g16/l103.exe)

 GradGradGradGradGradGradGradGradGradGradGradGradGradGradGradGradGradGrad
 Berny optimization.
 Initialization pass.
                           ----------------------------
                           !    Initial Parameters    !
                           ! (Angstroms and Degrees)  !
 --------------------------                            --------------------------
 ! Name  Definition              Value          Derivative Info.                !
 --------------------------------------------------------------------------------
 ! R1    R(1,2)                  1.4002         calculate D2E/DX2 analytically  !
 ! R2    R(1,4)                  1.3818         calculate D2E/DX2 analytically  !
 ! R3    R(2,3)                  1.5077         calculate D2E/DX2 analytically  !
 ! R4    R(2,5)                  1.1201         calculate D2E/DX2 analytically  !
 ! R5    R(2,6)                  1.1037         calculate D2E/DX2 analytically  !
 ! R6    R(3,7)                  1.1189         calculate D2E/DX2 analytically  !
 ! R7    R(3,8)                  1.1196         calculate D2E/DX2 analytically  !
 ! R8    R(3,9)                  1.112          calculate D2E/DX2 analytically  !
 ! R9    R(4,10)                 1.1002         calculate D2E/DX2 analytically  !
 ! R10   R(4,11)                 1.1081         calculate D2E/DX2 analytically  !
 ! A1    A(2,1,4)              113.0056         calculate D2E/DX2 analytically  !
 ! A2    A(1,2,3)              108.5587         calculate D2E/DX2 analytically  !
 ! A3    A(1,2,5)              104.6102         calculate D2E/DX2 analytically  !
 ! A4    A(1,2,6)              112.7173         calculate D2E/DX2 analytically  !
 ! A5    A(3,2,5)              111.3452         calculate D2E/DX2 analytically  !
 ! A6    A(3,2,6)              113.4622         calculate D2E/DX2 analytically  !
 ! A7    A(5,2,6)              105.7929         calculate D2E/DX2 analytically  !
 ! A8    A(2,3,7)              107.6796         calculate D2E/DX2 analytically  !
 ! A9    A(2,3,8)              109.9869         calculate D2E/DX2 analytically  !
 ! A10   A(2,3,9)              113.3714         calculate D2E/DX2 analytically  !
 ! A11   A(7,3,8)              109.1398         calculate D2E/DX2 analytically  !
 ! A12   A(7,3,9)              107.4157         calculate D2E/DX2 analytically  !
 ! A13   A(8,3,9)              109.1374         calculate D2E/DX2 analytically  !
 ! A14   A(1,4,10)             114.4658         calculate D2E/DX2 analytically  !
 ! A15   A(1,4,11)             106.6816         calculate D2E/DX2 analytically  !
 ! A16   A(10,4,11)            112.5843         calculate D2E/DX2 analytically  !
 ! D1    D(4,1,2,3)           -178.9666         calculate D2E/DX2 analytically  !
 ! D2    D(4,1,2,5)            -60.0            calculate D2E/DX2 analytically  !
 ! D3    D(4,1,2,6)             54.4591         calculate D2E/DX2 analytically  !
 ! D4    D(2,1,4,10)            30.0            calculate D2E/DX2 analytically  !
 ! D5    D(2,1,4,11)           155.2268         calculate D2E/DX2 analytically  !
 ! D6    D(1,2,3,7)            109.2716         calculate D2E/DX2 analytically  !
 ! D7    D(1,2,3,8)             -9.552          calculate D2E/DX2 analytically  !
 ! D8    D(1,2,3,9)           -132.0454         calculate D2E/DX2 analytically  !
 ! D9    D(5,2,3,7)             -5.3661         calculate D2E/DX2 analytically  !
 ! D10   D(5,2,3,8)           -124.1896         calculate D2E/DX2 analytically  !
 ! D11   D(5,2,3,9)            113.317          calculate D2E/DX2 analytically  !
 ! D12   D(6,2,3,7)           -124.5855         calculate D2E/DX2 analytically  !
 ! D13   D(6,2,3,8)            116.5909         calculate D2E/DX2 analytically  !
 ! D14   D(6,2,3,9)             -5.9025         calculate D2E/DX2 analytically  !
 ! D15   D(1,4,10,11)          122.0607         calculate D2E/DX2 analytically  !
 --------------------------------------------------------------------------------
 Trust Radius=3.00D-01 FncErr=1.00D-07 GrdErr=1.00D-06 EigMax=2.50D+02 EigMin=1.00D-04
 Number of steps in this run=    100 maximum allowed number of steps=    100.
 GradGradGradGradGradGradGradGradGradGradGradGradGradGradGradGradGradGrad

 Leave Link  103 at Wed Mar  6 23:46:18 2019, MaxMem=   104857600 cpu:               0.0 elap:               0.1
 (Enter /shared/centos7/gaussian/g16/l202.exe)
                          Input orientation:                          
 ---------------------------------------------------------------------
 Center     Atomic      Atomic             Coordinates (Angstroms)
 Number     Number       Type             X           Y           Z
 ---------------------------------------------------------------------
      1          8           0       -0.538200   -0.477000    0.975800
      2          6           0        0.301300   -0.605800   -0.137400
      3          6           0        1.593561   -1.242721    0.307228
      4          6           0       -1.764500    0.079300    0.665900
      5          1           0       -0.261317   -1.272583   -0.839927
      6          1           0        0.443543    0.346702   -0.676435
      7          1           0        1.620778   -2.281539   -0.107648
      8          1           0        1.630759   -1.292794    1.425117
      9          1           0        2.497485   -0.712222   -0.064196
     10          1           0       -2.116106   -0.132631   -0.354819
     11          1           0       -2.476006   -0.266979    1.441562
 ---------------------------------------------------------------------
                    Distance matrix (angstroms):
                    1          2          3          4          5
     1  O    0.000000
     2  C    1.400201   0.000000
     3  C    2.361720   1.507747   0.000000
     4  C    1.381781   2.319953   3.626701   0.000000
     5  H    2.001620   1.120126   2.181153   2.520845   0.000000
     6  H    2.090977   1.103654   2.194629   2.597849   1.773595
     7  H    3.015196   2.133075   1.118930   4.199053   2.257545
     8  H    2.360463   2.163534   1.119628   3.739898   2.951403
     9  H    3.217499   2.199980   1.111963   4.395914   2.920060
    10  H    2.092588   2.472855   3.928388   1.100186   2.230485
    11  H    2.004030   3.212686   4.335915   1.108062   3.334858
                    6          7          8          9         10
     6  H    0.000000
     7  H    2.935481   0.000000
     8  H    2.917867   1.824029   0.000000
     9  H    2.390572   1.798126   1.818331   0.000000
    10  H    2.623929   4.317778   4.307336   4.658928   0.000000
    11  H    3.658727   4.821011   4.232976   5.215473   1.836998
                   11
    11  H    0.000000
 Stoichiometry    C3H7O(2)
 Framework group  C1[X(C3H7O)]
 Deg. of freedom    27
 Full point group                 C1      NOp   1
 Largest Abelian subgroup         C1      NOp   1
 Largest concise Abelian subgroup C1      NOp   1
                         Standard orientation:                         
 ---------------------------------------------------------------------
 Center     Atomic      Atomic             Coordinates (Angstroms)
 Number     Number       Type             X           Y           Z
 ---------------------------------------------------------------------
      1          8           0        0.569318   -0.479745   -0.041593
      2          6           0       -0.427386    0.503678   -0.046434
      3          6           0       -1.771452   -0.174893    0.033111
      4          6           0        1.846481    0.045537   -0.089070
      5          1           0       -0.224835    1.115761    0.869540
      6          1           0       -0.335942    1.199006   -0.898613
      7          1           0       -2.195587    0.029155    1.048236
      8          1           0       -1.650569   -1.280125   -0.098856
      9          1           0       -2.501762    0.203845   -0.714999
     10          1           0        1.949714    1.035497    0.379684
     11          1           0        2.518581   -0.711112    0.362111
 ---------------------------------------------------------------------
 Rotational constants (GHZ):          30.3207104           4.4412815           4.1011166
 Leave Link  202 at Wed Mar  6 23:46:18 2019, MaxMem=   104857600 cpu:               0.0 elap:               0.0
 (Enter /shared/centos7/gaussian/g16/l301.exe)
 Standard basis: 6-311+G(2df,2p) (5D, 7F)
 Ernie: Thresh=  0.10000D-02 Tol=  0.10000D-05 Strict=F.
 There are   219 symmetry adapted cartesian basis functions of A   symmetry.
 There are   199 symmetry adapted basis functions of A   symmetry.
   199 basis functions,   285 primitive gaussians,   219 cartesian basis functions
    17 alpha electrons       16 beta electrons
       nuclear repulsion energy       126.1581731323 Hartrees.
 IExCor= 4336 DFT=T Ex+Corr=M062X ExCW=0 ScaHFX=  0.540000
 ScaDFX=  1.000000  1.000000  1.000000  1.000000 ScalE2=  1.000000  1.000000
 IRadAn=      5 IRanWt=     -1 IRanGd=            0 ICorTp=0 IEmpDi=  4
 NAtoms=   11 NActive=   11 NUniq=   11 SFac= 1.00D+00 NAtFMM=   60 NAOKFM=F Big=F
 Integral buffers will be    131072 words long.
 Raffenetti 2 integral format.
 Two-electron integral symmetry is turned on.
 Leave Link  301 at Wed Mar  6 23:46:18 2019, MaxMem=   104857600 cpu:               0.1 elap:               0.1
 (Enter /shared/centos7/gaussian/g16/l302.exe)
 NPDir=0 NMtPBC=     1 NCelOv=     1 NCel=       1 NClECP=     1 NCelD=      1
         NCelK=      1 NCelE2=     1 NClLst=     1 CellRange=     0.0.
 One-electron integrals computed using PRISM.
 One-electron integral symmetry used in STVInt
 NBasis=   199 RedAO= T EigKep=  7.17D-05  NBF=   199
 NBsUse=   199 1.00D-06 EigRej= -1.00D+00 NBFU=   199
 Precomputing XC quadrature grid using
 IXCGrd= 4 IRadAn=           5 IRanWt=          -1 IRanGd=           0 AccXCQ= 0.00D+00.
 Generated NRdTot=       0 NPtTot=           0 NUsed=           0 NTot=          32
 NSgBfM=   219   219   219   219   219 MxSgAt=    11 MxSgA2=    11.
 Leave Link  302 at Wed Mar  6 23:46:19 2019, MaxMem=   104857600 cpu:               0.4 elap:               0.4
 (Enter /shared/centos7/gaussian/g16/l303.exe)
 DipDrv:  MaxL=1.
 Leave Link  303 at Wed Mar  6 23:46:19 2019, MaxMem=   104857600 cpu:               0.1 elap:               0.1
 (Enter /shared/centos7/gaussian/g16/l401.exe)
 ExpMin= 4.38D-02 ExpMax= 8.59D+03 ExpMxC= 1.30D+03 IAcc=3 IRadAn=         5 AccDes= 0.00D+00
 Harris functional with IExCor= 1009 and IRadAn=       5 diagonalized for initial guess.
 HarFok:  IExCor= 1009 AccDes= 0.00D+00 IRadAn=         5 IDoV= 1 UseB2=F ITyADJ=14
 ICtDFT=  3500011 ScaDFX=  1.000000  1.000000  1.000000  1.000000
 FoFCou: FMM=F IPFlag=           0 FMFlag=      100000 FMFlg1=           0
         NFxFlg=           0 DoJE=T BraDBF=F KetDBF=T FulRan=T
         wScrn=  0.000000 ICntrl=       500 IOpCl=  0 I1Cent=   200000004 NGrid=           0
         NMat0=    1 NMatS0=      1 NMatT0=    0 NMatD0=    1 NMtDS0=    0 NMtDT0=    0
 Petite list used in FoFCou.
 Harris En= -193.551769141188    
 JPrj=0 DoOrth=F DoCkMO=F.
 Initial guess <Sx>= 0.0000 <Sy>= 0.0000 <Sz>= 0.5000 <S**2>= 0.7500 S= 0.5000
 Leave Link  401 at Wed Mar  6 23:46:23 2019, MaxMem=   104857600 cpu:               4.5 elap:               4.5
 (Enter /shared/centos7/gaussian/g16/l502.exe)
 Integral symmetry usage will be decided dynamically.
 UHF open shell SCF:
 Using DIIS extrapolation, IDIIS=  1040.
 NGot=   104857600 LenX=   104758271 LenY=   104709869
 Requested convergence on RMS density matrix=1.00D-08 within 128 cycles.
 Requested convergence on MAX density matrix=1.00D-06.
 Requested convergence on             energy=1.00D-06.
 No special actions if energy rises.
 Fock matrices will be formed incrementally for  20 cycles.

 Cycle   1  Pass 1  IDiag  1:
 FoFJK:  IHMeth= 1 ICntrl=       0 DoSepK=F KAlg= 0 I1Cent=           0 FoldK=F
 IRaf= 980000000 NMat=       1 IRICut=       1 DoRegI=T DoRafI=F ISym2E= 0 IDoP0=0 IntGTp=1.
 FoFCou: FMM=F IPFlag=           0 FMFlag=      100000 FMFlg1=           0
         NFxFlg=           0 DoJE=F BraDBF=F KetDBF=F FulRan=T
         wScrn=  0.000000 ICntrl=         0 IOpCl=  1 I1Cent=           0 NGrid=           0
         NMat0=    1 NMatS0=      1 NMatT0=    0 NMatD0=    1 NMtDS0=    0 NMtDT0=    0
 Symmetry not used in FoFCou.
 E= -193.520911477732    
 DIIS: error= 1.99D-02 at cycle   1 NSaved=   1.
 NSaved= 1 IEnMin= 1 EnMin= -193.520911477732     IErMin= 1 ErrMin= 1.99D-02
 ErrMax= 1.99D-02  0.00D+00 EMaxC= 1.00D-01 BMatC= 5.58D-01 BMatP= 5.58D-01
 IDIUse=3 WtCom= 8.01D-01 WtEn= 1.99D-01
 Coeff-Com:  0.100D+01
 Coeff-En:   0.100D+01
 Coeff:      0.100D+01
 Gap=     0.282 Goal=   None    Shift=    0.000
 Gap=     0.350 Goal=   None    Shift=    0.000
 GapD=    0.282 DampG=1.000 DampE=0.500 DampFc=0.5000 IDamp=-1.
 Damping current iteration by 5.00D-01
 RMSDP=2.10D-03 MaxDP=1.07D-01              OVMax= 1.35D-01

 Cycle   2  Pass 1  IDiag  1:
 RMSU=  1.03D-03    CP:  9.80D-01
 E= -193.582038718932     Delta-E=       -0.061127241200 Rises=F Damp=T
 DIIS: error= 4.61D-03 at cycle   2 NSaved=   2.
 NSaved= 2 IEnMin= 2 EnMin= -193.582038718932     IErMin= 2 ErrMin= 4.61D-03
 ErrMax= 4.61D-03  0.00D+00 EMaxC= 1.00D-01 BMatC= 4.63D-02 BMatP= 5.58D-01
 IDIUse=3 WtCom= 9.54D-01 WtEn= 4.61D-02
 Coeff-Com: -0.182D+00 0.118D+01
 Coeff-En:   0.000D+00 0.100D+01
 Coeff:     -0.173D+00 0.117D+01
 Gap=     0.278 Goal=   None    Shift=    0.000
 Gap=     0.343 Goal=   None    Shift=    0.000
 RMSDP=6.32D-04 MaxDP=1.51D-02 DE=-6.11D-02 OVMax= 7.00D-02

 Cycle   3  Pass 1  IDiag  1:
 RMSU=  6.24D-04    CP:  9.83D-01  1.09D+00
 E= -193.636986885564     Delta-E=       -0.054948166632 Rises=F Damp=F
 DIIS: error= 2.62D-03 at cycle   3 NSaved=   3.
 NSaved= 3 IEnMin= 3 EnMin= -193.636986885564     IErMin= 3 ErrMin= 2.62D-03
 ErrMax= 2.62D-03  0.00D+00 EMaxC= 1.00D-01 BMatC= 5.53D-03 BMatP= 4.63D-02
 IDIUse=3 WtCom= 9.74D-01 WtEn= 2.62D-02
 Coeff-Com: -0.918D-01 0.265D+00 0.827D+00
 Coeff-En:   0.000D+00 0.000D+00 0.100D+01
 Coeff:     -0.894D-01 0.258D+00 0.832D+00
 Gap=     0.282 Goal=   None    Shift=    0.000
 Gap=     0.330 Goal=   None    Shift=    0.000
 RMSDP=1.72D-04 MaxDP=6.85D-03 DE=-5.49D-02 OVMax= 1.05D-02

 Cycle   4  Pass 1  IDiag  1:
 RMSU=  1.50D-04    CP:  9.80D-01  1.16D+00  9.64D-01
 E= -193.638234501381     Delta-E=       -0.001247615818 Rises=F Damp=F
 DIIS: error= 1.29D-03 at cycle   4 NSaved=   4.
 NSaved= 4 IEnMin= 4 EnMin= -193.638234501381     IErMin= 4 ErrMin= 1.29D-03
 ErrMax= 1.29D-03  0.00D+00 EMaxC= 1.00D-01 BMatC= 1.30D-03 BMatP= 5.53D-03
 IDIUse=3 WtCom= 9.87D-01 WtEn= 1.29D-02
 Coeff-Com: -0.297D-01 0.682D-01 0.364D+00 0.597D+00
 Coeff-En:   0.000D+00 0.000D+00 0.000D+00 0.100D+01
 Coeff:     -0.293D-01 0.673D-01 0.360D+00 0.602D+00
 Gap=     0.280 Goal=   None    Shift=    0.000
 Gap=     0.335 Goal=   None    Shift=    0.000
 RMSDP=7.08D-05 MaxDP=4.13D-03 DE=-1.25D-03 OVMax= 1.36D-02

 Cycle   5  Pass 1  IDiag  1:
 RMSU=  6.08D-05    CP:  9.80D-01  1.16D+00  1.00D+00  8.25D-01
 E= -193.638582565690     Delta-E=       -0.000348064308 Rises=F Damp=F
 DIIS: error= 4.79D-04 at cycle   5 NSaved=   5.
 NSaved= 5 IEnMin= 5 EnMin= -193.638582565690     IErMin= 5 ErrMin= 4.79D-04
 ErrMax= 4.79D-04  0.00D+00 EMaxC= 1.00D-01 BMatC= 2.83D-04 BMatP= 1.30D-03
 IDIUse=3 WtCom= 9.95D-01 WtEn= 4.79D-03
 Coeff-Com:  0.524D-02-0.220D-01-0.490D-02 0.281D+00 0.741D+00
 Coeff-En:   0.000D+00 0.000D+00 0.000D+00 0.000D+00 0.100D+01
 Coeff:      0.521D-02-0.219D-01-0.487D-02 0.279D+00 0.742D+00
 Gap=     0.281 Goal=   None    Shift=    0.000
 Gap=     0.335 Goal=   None    Shift=    0.000
 RMSDP=4.34D-05 MaxDP=1.38D-03 DE=-3.48D-04 OVMax= 6.48D-03

 Cycle   6  Pass 1  IDiag  1:
 RMSU=  2.92D-05    CP:  9.80D-01  1.16D+00  1.03D+00  9.80D-01  1.27D+00
 E= -193.638690763475     Delta-E=       -0.000108197785 Rises=F Damp=F
 DIIS: error= 2.42D-04 at cycle   6 NSaved=   6.
 NSaved= 6 IEnMin= 6 EnMin= -193.638690763475     IErMin= 6 ErrMin= 2.42D-04
 ErrMax= 2.42D-04  0.00D+00 EMaxC= 1.00D-01 BMatC= 4.54D-05 BMatP= 2.83D-04
 IDIUse=3 WtCom= 9.98D-01 WtEn= 2.42D-03
 Coeff-Com:  0.102D-01-0.242D-01-0.115D+00-0.574D-01 0.372D-01 0.115D+01
 Coeff-En:   0.000D+00 0.000D+00 0.000D+00 0.000D+00 0.000D+00 0.100D+01
 Coeff:      0.101D-01-0.241D-01-0.114D+00-0.573D-01 0.371D-01 0.115D+01
 Gap=     0.283 Goal=   None    Shift=    0.000
 Gap=     0.335 Goal=   None    Shift=    0.000
 RMSDP=4.17D-05 MaxDP=1.63D-03 DE=-1.08D-04 OVMax= 7.70D-03

 Cycle   7  Pass 1  IDiag  1:
 RMSU=  1.59D-05    CP:  9.80D-01  1.16D+00  1.05D+00  1.13D+00  1.67D+00
                    CP:  1.57D+00
 E= -193.638738930541     Delta-E=       -0.000048167066 Rises=F Damp=F
 DIIS: error= 1.42D-04 at cycle   7 NSaved=   7.
 NSaved= 7 IEnMin= 7 EnMin= -193.638738930541     IErMin= 7 ErrMin= 1.42D-04
 ErrMax= 1.42D-04  0.00D+00 EMaxC= 1.00D-01 BMatC= 1.46D-05 BMatP= 4.54D-05
 IDIUse=3 WtCom= 9.99D-01 WtEn= 1.42D-03
 Coeff-Com:  0.135D-02-0.972D-03-0.354D-01-0.801D-01-0.252D+00 0.444D+00
 Coeff-Com:  0.923D+00
 Coeff-En:   0.000D+00 0.000D+00 0.000D+00 0.000D+00 0.000D+00 0.000D+00
 Coeff-En:   0.100D+01
 Coeff:      0.135D-02-0.971D-03-0.354D-01-0.800D-01-0.251D+00 0.443D+00
 Coeff:      0.923D+00
 Gap=     0.283 Goal=   None    Shift=    0.000
 Gap=     0.336 Goal=   None    Shift=    0.000
 RMSDP=2.04D-05 MaxDP=7.67D-04 DE=-4.82D-05 OVMax= 3.94D-03

 Cycle   8  Pass 1  IDiag  1:
 RMSU=  6.70D-06    CP:  9.80D-01  1.17D+00  1.05D+00  1.18D+00  1.85D+00
                    CP:  1.98D+00  1.17D+00
 E= -193.638748849402     Delta-E=       -0.000009918862 Rises=F Damp=F
 DIIS: error= 4.46D-05 at cycle   8 NSaved=   8.
 NSaved= 8 IEnMin= 8 EnMin= -193.638748849402     IErMin= 8 ErrMin= 4.46D-05
 ErrMax= 4.46D-05  0.00D+00 EMaxC= 1.00D-01 BMatC= 7.06D-07 BMatP= 1.46D-05
 IDIUse=1 WtCom= 1.00D+00 WtEn= 0.00D+00
 Coeff-Com: -0.169D-02 0.373D-02 0.189D-01 0.183D-01 0.136D-01-0.185D+00
 Coeff-Com: -0.570D-01 0.119D+01
 Coeff:     -0.169D-02 0.373D-02 0.189D-01 0.183D-01 0.136D-01-0.185D+00
 Coeff:     -0.570D-01 0.119D+01
 Gap=     0.283 Goal=   None    Shift=    0.000
 Gap=     0.336 Goal=   None    Shift=    0.000
 RMSDP=5.32D-06 MaxDP=2.76D-04 DE=-9.92D-06 OVMax= 8.46D-04

 Cycle   9  Pass 1  IDiag  1:
 RMSU=  1.89D-06    CP:  9.80D-01  1.17D+00  1.05D+00  1.19D+00  1.88D+00
                    CP:  2.08D+00  1.33D+00  1.35D+00
 E= -193.638749415743     Delta-E=       -0.000000566341 Rises=F Damp=F
 DIIS: error= 8.27D-06 at cycle   9 NSaved=   9.
 NSaved= 9 IEnMin= 9 EnMin= -193.638749415743     IErMin= 9 ErrMin= 8.27D-06
 ErrMax= 8.27D-06  0.00D+00 EMaxC= 1.00D-01 BMatC= 9.36D-08 BMatP= 7.06D-07
 IDIUse=1 WtCom= 1.00D+00 WtEn= 0.00D+00
 Coeff-Com: -0.527D-03 0.104D-02 0.802D-02 0.121D-01 0.220D-01-0.849D-01
 Coeff-Com: -0.886D-01 0.307D+00 0.824D+00
 Coeff:     -0.527D-03 0.104D-02 0.802D-02 0.121D-01 0.220D-01-0.849D-01
 Coeff:     -0.886D-01 0.307D+00 0.824D+00
 Gap=     0.283 Goal=   None    Shift=    0.000
 Gap=     0.336 Goal=   None    Shift=    0.000
 RMSDP=1.00D-06 MaxDP=5.14D-05 DE=-5.66D-07 OVMax= 1.38D-04

 Cycle  10  Pass 1  IDiag  1:
 RMSU=  7.04D-07    CP:  9.80D-01  1.17D+00  1.05D+00  1.19D+00  1.88D+00
                    CP:  2.08D+00  1.35D+00  1.43D+00  1.12D+00
 E= -193.638749454015     Delta-E=       -0.000000038272 Rises=F Damp=F
 DIIS: error= 3.04D-06 at cycle  10 NSaved=  10.
 NSaved=10 IEnMin=10 EnMin= -193.638749454015     IErMin=10 ErrMin= 3.04D-06
 ErrMax= 3.04D-06  0.00D+00 EMaxC= 1.00D-01 BMatC= 1.38D-08 BMatP= 9.36D-08
 IDIUse=1 WtCom= 1.00D+00 WtEn= 0.00D+00
 Coeff-Com:  0.140D-03-0.310D-03-0.790D-03 0.615D-03 0.147D-02 0.673D-02
 Coeff-Com: -0.102D-01-0.931D-01 0.176D+00 0.920D+00
 Coeff:      0.140D-03-0.310D-03-0.790D-03 0.615D-03 0.147D-02 0.673D-02
 Coeff:     -0.102D-01-0.931D-01 0.176D+00 0.920D+00
 Gap=     0.283 Goal=   None    Shift=    0.000
 Gap=     0.336 Goal=   None    Shift=    0.000
 RMSDP=4.46D-07 MaxDP=1.36D-05 DE=-3.83D-08 OVMax= 4.11D-05

 Cycle  11  Pass 1  IDiag  1:
 RMSU=  2.61D-07    CP:  9.80D-01  1.17D+00  1.05D+00  1.19D+00  1.88D+00
                    CP:  2.08D+00  1.34D+00  1.45D+00  1.28D+00  1.18D+00
 E= -193.638749459841     Delta-E=       -0.000000005826 Rises=F Damp=F
 DIIS: error= 1.13D-06 at cycle  11 NSaved=  11.
 NSaved=11 IEnMin=11 EnMin= -193.638749459841     IErMin=11 ErrMin= 1.13D-06
 ErrMax= 1.13D-06  0.00D+00 EMaxC= 1.00D-01 BMatC= 1.47D-09 BMatP= 1.38D-08
 IDIUse=1 WtCom= 1.00D+00 WtEn= 0.00D+00
 Coeff-Com:  0.894D-04-0.187D-03-0.111D-02-0.124D-02-0.260D-02 0.118D-01
 Coeff-Com:  0.904D-02-0.579D-01-0.813D-01 0.196D+00 0.928D+00
 Coeff:      0.894D-04-0.187D-03-0.111D-02-0.124D-02-0.260D-02 0.118D-01
 Coeff:      0.904D-02-0.579D-01-0.813D-01 0.196D+00 0.928D+00
 Gap=     0.283 Goal=   None    Shift=    0.000
 Gap=     0.336 Goal=   None    Shift=    0.000
 RMSDP=1.54D-07 MaxDP=4.55D-06 DE=-5.83D-09 OVMax= 1.15D-05

 Cycle  12  Pass 1  IDiag  1:
 RMSU=  8.89D-08    CP:  9.80D-01  1.17D+00  1.05D+00  1.19D+00  1.88D+00
                    CP:  2.08D+00  1.34D+00  1.46D+00  1.31D+00  1.30D+00
                    CP:  1.07D+00
 E= -193.638749460513     Delta-E=       -0.000000000673 Rises=F Damp=F
 DIIS: error= 3.02D-07 at cycle  12 NSaved=  12.
 NSaved=12 IEnMin=12 EnMin= -193.638749460513     IErMin=12 ErrMin= 3.02D-07
 ErrMax= 3.02D-07  0.00D+00 EMaxC= 1.00D-01 BMatC= 7.18D-11 BMatP= 1.47D-09
 IDIUse=1 WtCom= 1.00D+00 WtEn= 0.00D+00
 Coeff-Com: -0.937D-05 0.181D-04 0.278D-04-0.198D-04 0.278D-04-0.125D-03
 Coeff-Com:  0.424D-03 0.354D-02-0.163D-01-0.502D-01 0.532D-01 0.101D+01
 Coeff:     -0.937D-05 0.181D-04 0.278D-04-0.198D-04 0.278D-04-0.125D-03
 Coeff:      0.424D-03 0.354D-02-0.163D-01-0.502D-01 0.532D-01 0.101D+01
 Gap=     0.283 Goal=   None    Shift=    0.000
 Gap=     0.336 Goal=   None    Shift=    0.000
 RMSDP=4.45D-08 MaxDP=1.75D-06 DE=-6.73D-10 OVMax= 3.53D-06

 Cycle  13  Pass 1  IDiag  1:
 RMSU=  2.69D-08    CP:  9.80D-01  1.17D+00  1.05D+00  1.19D+00  1.88D+00
                    CP:  2.08D+00  1.34D+00  1.46D+00  1.31D+00  1.31D+00
                    CP:  1.14D+00  1.22D+00
 E= -193.638749460558     Delta-E=       -0.000000000045 Rises=F Damp=F
 DIIS: error= 7.66D-08 at cycle  13 NSaved=  13.
 NSaved=13 IEnMin=13 EnMin= -193.638749460558     IErMin=13 ErrMin= 7.66D-08
 ErrMax= 7.66D-08  0.00D+00 EMaxC= 1.00D-01 BMatC= 5.69D-12 BMatP= 7.18D-11
 IDIUse=1 WtCom= 1.00D+00 WtEn= 0.00D+00
 Coeff-Com: -0.430D-05 0.920D-05 0.514D-04 0.555D-04 0.106D-03-0.579D-03
 Coeff-Com: -0.452D-03 0.311D-02 0.538D-02-0.134D-01-0.642D-01-0.123D-01
 Coeff-Com:  0.108D+01
 Coeff:     -0.430D-05 0.920D-05 0.514D-04 0.555D-04 0.106D-03-0.579D-03
 Coeff:     -0.452D-03 0.311D-02 0.538D-02-0.134D-01-0.642D-01-0.123D-01
 Coeff:      0.108D+01
 Gap=     0.283 Goal=   None    Shift=    0.000
 Gap=     0.336 Goal=   None    Shift=    0.000
 RMSDP=1.34D-08 MaxDP=2.93D-07 DE=-4.47D-11 OVMax= 1.34D-06

 Cycle  14  Pass 1  IDiag  1:
 RMSU=  7.81D-09    CP:  9.80D-01  1.17D+00  1.05D+00  1.19D+00  1.88D+00
                    CP:  2.08D+00  1.34D+00  1.46D+00  1.31D+00  1.31D+00
                    CP:  1.15D+00  1.31D+00  1.12D+00
 E= -193.638749460560     Delta-E=       -0.000000000002 Rises=F Damp=F
 DIIS: error= 2.24D-08 at cycle  14 NSaved=  14.
 NSaved=14 IEnMin=14 EnMin= -193.638749460560     IErMin=14 ErrMin= 2.24D-08
 ErrMax= 2.24D-08  0.00D+00 EMaxC= 1.00D-01 BMatC= 5.15D-13 BMatP= 5.69D-12
 IDIUse=1 WtCom= 1.00D+00 WtEn= 0.00D+00
 Coeff-Com:  0.535D-06-0.901D-06-0.686D-06-0.105D-05-0.158D-04 0.605D-05
 Coeff-Com: -0.788D-05-0.492D-04 0.127D-02 0.191D-02-0.832D-02-0.701D-01
 Coeff-Com:  0.904D-01 0.985D+00
 Coeff:      0.535D-06-0.901D-06-0.686D-06-0.105D-05-0.158D-04 0.605D-05
 Coeff:     -0.788D-05-0.492D-04 0.127D-02 0.191D-02-0.832D-02-0.701D-01
 Coeff:      0.904D-01 0.985D+00
 Gap=     0.283 Goal=   None    Shift=    0.000
 Gap=     0.336 Goal=   None    Shift=    0.000
 RMSDP=3.49D-09 MaxDP=8.39D-08 DE=-1.71D-12 OVMax= 3.88D-07

 SCF Done:  E(UM062X) =  -193.638749461     A.U. after   14 cycles
            NFock= 14  Conv=0.35D-08     -V/T= 2.0046
 <Sx>= 0.0000 <Sy>= 0.0000 <Sz>= 0.5000 <S**2>= 0.7545 S= 0.5023
 <L.S>= 0.000000000000E+00
 KE= 1.927559000710D+02 PE=-7.039614607712D+02 EE= 1.914086381074D+02
 Annihilation of the first spin contaminant:
 S**2 before annihilation     0.7545,   after     0.7500
 Leave Link  502 at Wed Mar  6 23:51:42 2019, MaxMem=   104857600 cpu:             319.1 elap:             319.1
 (Enter /shared/centos7/gaussian/g16/l801.exe)
 DoSCS=F DFT=T ScalE2(SS,OS)=  1.000000  1.000000
 Range of M.O.s used for correlation:     1   199
 NBasis=   199 NAE=    17 NBE=    16 NFC=     0 NFV=     0
 NROrb=    199 NOA=    17 NOB=    16 NVA=   182 NVB=   183

 **** Warning!!: The largest alpha MO coefficient is  0.36699236D+02


 **** Warning!!: The largest beta MO coefficient is  0.42282279D+02

 Leave Link  801 at Wed Mar  6 23:51:43 2019, MaxMem=   104857600 cpu:               0.1 elap:               0.1
 (Enter /shared/centos7/gaussian/g16/l1101.exe)
 Using compressed storage, NAtomX=    11.
 Will process     12 centers per pass.
 Leave Link 1101 at Wed Mar  6 23:51:43 2019, MaxMem=   104857600 cpu:               0.3 elap:               0.3
 (Enter /shared/centos7/gaussian/g16/l1102.exe)
 Symmetrizing basis deriv contribution to polar:
 IMax=3 JMax=2 DiffMx= 0.00D+00
 Leave Link 1102 at Wed Mar  6 23:51:43 2019, MaxMem=   104857600 cpu:               0.1 elap:               0.1
 (Enter /shared/centos7/gaussian/g16/l1110.exe)
 Forming Gx(P) for the SCF density, NAtomX=    11.
 Integral derivatives from FoFJK, PRISM(SPDF).
 Do as many integral derivatives as possible in FoFJK.
 G2DrvN: MDV=     104856672.
 G2DrvN: will do    12 centers at a time, making    1 passes.
 Calling FoFCou, ICntrl=  3107 FMM=F I1Cent=   0 AccDes= 0.00D+00.
 FoFJK:  IHMeth= 1 ICntrl=    3107 DoSepK=F KAlg= 0 I1Cent=           0 FoldK=F
 IRaf=         0 NMat=       1 IRICut=       1 DoRegI=T DoRafI=F ISym2E= 0 IDoP0=0 IntGTp=1.
 FoFCou: FMM=F IPFlag=           0 FMFlag=      100000 FMFlg1=           0
         NFxFlg=           0 DoJE=F BraDBF=F KetDBF=F FulRan=T
         wScrn=  0.000000 ICntrl=      3107 IOpCl=  1 I1Cent=           0 NGrid=           0
         NMat0=    1 NMatS0=      1 NMatT0=    0 NMatD0=    1 NMtDS0=    0 NMtDT0=    0
 Symmetry not used in FoFCou.
 End of G2Drv F.D. properties file   721 does not exist.
 End of G2Drv F.D. properties file   722 does not exist.
 End of G2Drv F.D. properties file   788 does not exist.
 Leave Link 1110 at Thu Mar  7 00:01:19 2019, MaxMem=   104857600 cpu:             576.1 elap:             576.1
 (Enter /shared/centos7/gaussian/g16/l1002.exe)
 Minotr:  UHF open shell wavefunction.
          IDoAtm=11111111111
          Direct CPHF calculation.
          Differentiating once with respect to nuclear coordinates.
          Requested convergence is 1.0D-08 RMS, and 1.0D-07 maximum.
          Secondary convergence is 1.0D-12 RMS, and 1.0D-12 maximum.
          NewPWx=T KeepS1=F KeepF1=F KeepIn=T MapXYZ=F SortEE=F KeepMc=T.
         3349 words used for storage of precomputed grid.
 Two-electron integrals replicated using symmetry.
          MDV=     104857600 using IRadAn=       1.
          Solving linear equations simultaneously, MaxMat=     384.
 FoF2E skips out because all densities are zero.
 CalDSu exits because no D1Ps are significant.
 FoFJK:  IHMeth= 1 ICntrl=       0 DoSepK=F KAlg= 0 I1Cent=           0 FoldK=F
 IRaf= 980000000 NMat=      33 IRICut=      82 DoRegI=T DoRafI=T ISym2E= 2 IDoP0=3 IntGTp=3.
 FoFCou: FMM=F IPFlag=           0 FMFlag=      100000 FMFlg1=           0
         NFxFlg=           0 DoJE=F BraDBF=F KetDBF=F FulRan=T
         wScrn=  0.000000 ICntrl=         0 IOpCl=  1 I1Cent=           0 NGrid=           0
         NMat0=   33 NMatS0=     33 NMatT0=    0 NMatD0=   33 NMtDS0=    0 NMtDT0=    0
 Integrals replicated using symmetry in FoFCou.
 Raff kept on since  96.88% of shell-pairs survive, threshold=   0.20 IRatSp=97.
          There are    36 degrees of freedom in the 1st order CPHF.  IDoFFX=6 NUNeed=     0.
     30 vectors produced by pass  0 Test12= 1.67D-14 2.78D-09 XBig12= 1.50D-01 6.03D-02.
 AX will form    30 AO Fock derivatives at one time.
     30 vectors produced by pass  1 Test12= 1.67D-14 2.78D-09 XBig12= 9.28D-03 2.92D-02.
     30 vectors produced by pass  2 Test12= 1.67D-14 2.78D-09 XBig12= 6.19D-04 5.48D-03.
     30 vectors produced by pass  3 Test12= 1.67D-14 2.78D-09 XBig12= 9.87D-06 4.87D-04.
     30 vectors produced by pass  4 Test12= 1.67D-14 2.78D-09 XBig12= 1.13D-07 3.75D-05.
     30 vectors produced by pass  5 Test12= 1.67D-14 2.78D-09 XBig12= 1.31D-09 3.59D-06.
     27 vectors produced by pass  6 Test12= 1.67D-14 2.78D-09 XBig12= 1.12D-11 3.39D-07.
     10 vectors produced by pass  7 Test12= 1.67D-14 2.78D-09 XBig12= 9.27D-14 3.26D-08.
 InvSVY:  IOpt=1 It=  1 EMax= 1.67D-15
 Solved reduced A of dimension   217 with    30 vectors.
 End of Minotr F.D. properties file   721 does not exist.
 End of Minotr F.D. properties file   722 does not exist.
 End of Minotr F.D. properties file   788 does not exist.
 Leave Link 1002 at Thu Mar  7 00:15:02 2019, MaxMem=   104857600 cpu:             823.0 elap:             823.3
 (Enter /shared/centos7/gaussian/g16/l601.exe)
 Copying SCF densities to generalized density rwf, IOpCl= 1 IROHF=0.

 **********************************************************************

            Population analysis using the SCF density.

 **********************************************************************

 Orbital symmetries:
 Alpha Orbitals:
       Occupied  (A) (A) (A) (A) (A) (A) (A) (A) (A) (A) (A) (A)
                 (A) (A) (A) (A) (A)
       Virtual   (A) (A) (A) (A) (A) (A) (A) (A) (A) (A) (A) (A)
                 (A) (A) (A) (A) (A) (A) (A) (A) (A) (A) (A) (A)
                 (A) (A) (A) (A) (A) (A) (A) (A) (A) (A) (A) (A)
                 (A) (A) (A) (A) (A) (A) (A) (A) (A) (A) (A) (A)
                 (A) (A) (A) (A) (A) (A) (A) (A) (A) (A) (A) (A)
                 (A) (A) (A) (A) (A) (A) (A) (A) (A) (A) (A) (A)
                 (A) (A) (A) (A) (A) (A) (A) (A) (A) (A) (A) (A)
                 (A) (A) (A) (A) (A) (A) (A) (A) (A) (A) (A) (A)
                 (A) (A) (A) (A) (A) (A) (A) (A) (A) (A) (A) (A)
                 (A) (A) (A) (A) (A) (A) (A) (A) (A) (A) (A) (A)
                 (A) (A) (A) (A) (A) (A) (A) (A) (A) (A) (A) (A)
                 (A) (A) (A) (A) (A) (A) (A) (A) (A) (A) (A) (A)
                 (A) (A) (A) (A) (A) (A) (A) (A) (A) (A) (A) (A)
                 (A) (A) (A) (A) (A) (A) (A) (A) (A) (A) (A) (A)
                 (A) (A) (A) (A) (A) (A) (A) (A) (A) (A) (A) (A)
                 (A) (A)
 Beta  Orbitals:
       Occupied  (A) (A) (A) (A) (A) (A) (A) (A) (A) (A) (A) (A)
                 (A) (A) (A) (A)
       Virtual   (A) (A) (A) (A) (A) (A) (A) (A) (A) (A) (A) (A)
                 (A) (A) (A) (A) (A) (A) (A) (A) (A) (A) (A) (A)
                 (A) (A) (A) (A) (A) (A) (A) (A) (A) (A) (A) (A)
                 (A) (A) (A) (A) (A) (A) (A) (A) (A) (A) (A) (A)
                 (A) (A) (A) (A) (A) (A) (A) (A) (A) (A) (A) (A)
                 (A) (A) (A) (A) (A) (A) (A) (A) (A) (A) (A) (A)
                 (A) (A) (A) (A) (A) (A) (A) (A) (A) (A) (A) (A)
                 (A) (A) (A) (A) (A) (A) (A) (A) (A) (A) (A) (A)
                 (A) (A) (A) (A) (A) (A) (A) (A) (A) (A) (A) (A)
                 (A) (A) (A) (A) (A) (A) (A) (A) (A) (A) (A) (A)
                 (A) (A) (A) (A) (A) (A) (A) (A) (A) (A) (A) (A)
                 (A) (A) (A) (A) (A) (A) (A) (A) (A) (A) (A) (A)
                 (A) (A) (A) (A) (A) (A) (A) (A) (A) (A) (A) (A)
                 (A) (A) (A) (A) (A) (A) (A) (A) (A) (A) (A) (A)
                 (A) (A) (A) (A) (A) (A) (A) (A) (A) (A) (A) (A)
                 (A) (A) (A)
 The electronic state is 2-A.
 Alpha  occ. eigenvalues --  -19.65613 -10.59109 -10.58947 -10.53591  -1.19317
 Alpha  occ. eigenvalues --   -0.86793  -0.75615  -0.69842  -0.57938  -0.55790
 Alpha  occ. eigenvalues --   -0.54204  -0.46743  -0.44743  -0.43252  -0.41140
 Alpha  occ. eigenvalues --   -0.38585  -0.26220
 Alpha virt. eigenvalues --    0.02055   0.03415   0.04195   0.04919   0.05827
 Alpha virt. eigenvalues --    0.07125   0.08249   0.09005   0.09964   0.10062
 Alpha virt. eigenvalues --    0.13129   0.14505   0.15894   0.19005   0.20785
 Alpha virt. eigenvalues --    0.21418   0.22951   0.23678   0.24929   0.25930
 Alpha virt. eigenvalues --    0.27503   0.28192   0.29063   0.30800   0.35231
 Alpha virt. eigenvalues --    0.36993   0.42723   0.44754   0.45183   0.46905
 Alpha virt. eigenvalues --    0.47635   0.51119   0.51398   0.54855   0.56091
 Alpha virt. eigenvalues --    0.56697   0.58392   0.59275   0.59902   0.61314
 Alpha virt. eigenvalues --    0.63109   0.63688   0.68052   0.68497   0.73474
 Alpha virt. eigenvalues --    0.77598   0.81540   0.85587   0.86713   0.89048
 Alpha virt. eigenvalues --    0.91896   0.94126   0.95413   0.99960   1.02126
 Alpha virt. eigenvalues --    1.04035   1.06241   1.08296   1.10627   1.12478
 Alpha virt. eigenvalues --    1.14308   1.15268   1.19053   1.22807   1.23909
 Alpha virt. eigenvalues --    1.26611   1.27144   1.30178   1.32812   1.33610
 Alpha virt. eigenvalues --    1.35605   1.36513   1.36973   1.40936   1.43183
 Alpha virt. eigenvalues --    1.44116   1.45401   1.48368   1.49359   1.51848
 Alpha virt. eigenvalues --    1.53839   1.58904   1.60803   1.69658   1.72308
 Alpha virt. eigenvalues --    1.93812   1.98404   2.09468   2.21094   2.31050
 Alpha virt. eigenvalues --    2.38814   2.42510   2.45899   2.49166   2.59825
 Alpha virt. eigenvalues --    2.65406   2.73942   2.75535   2.79100   2.86718
 Alpha virt. eigenvalues --    2.90331   2.95100   2.96520   2.97562   3.00504
 Alpha virt. eigenvalues --    3.02896   3.07474   3.09543   3.11821   3.13143
 Alpha virt. eigenvalues --    3.16572   3.17830   3.20636   3.22845   3.24582
 Alpha virt. eigenvalues --    3.26781   3.28649   3.31699   3.33082   3.39276
 Alpha virt. eigenvalues --    3.41070   3.43665   3.48496   3.52138   3.56898
 Alpha virt. eigenvalues --    3.61893   3.66003   3.70789   3.71775   3.74581
 Alpha virt. eigenvalues --    3.76276   3.81951   3.84428   3.86536   3.91731
 Alpha virt. eigenvalues --    3.92959   3.96070   3.98885   4.02514   4.06860
 Alpha virt. eigenvalues --    4.09210   4.12209   4.16009   4.17323   4.22007
 Alpha virt. eigenvalues --    4.25436   4.26180   4.28132   4.33737   4.36866
 Alpha virt. eigenvalues --    4.39339   4.41026   4.48552   4.56182   4.65503
 Alpha virt. eigenvalues --    4.66373   4.93657   5.04253   5.19952   5.24242
 Alpha virt. eigenvalues --    5.28130   5.39556   5.45091   5.45389   5.46542
 Alpha virt. eigenvalues --    5.51569   5.59068   5.62760   5.80781   5.87578
 Alpha virt. eigenvalues --    6.20342   6.46837   6.72667   7.12520   7.18116
 Alpha virt. eigenvalues --    7.27866   7.63927   7.72130  24.22738  24.29655
 Alpha virt. eigenvalues --   24.45786  50.15090
  Beta  occ. eigenvalues --  -19.65204 -10.59121 -10.58131 -10.53592  -1.18013
  Beta  occ. eigenvalues --   -0.86346  -0.73745  -0.68904  -0.56677  -0.54500
  Beta  occ. eigenvalues --   -0.53365  -0.45040  -0.44352  -0.42676  -0.40504
  Beta  occ. eigenvalues --   -0.36250
  Beta virt. eigenvalues --   -0.02687   0.01762   0.03151   0.04074   0.05274
  Beta virt. eigenvalues --    0.05844   0.06958   0.08103   0.09196   0.09891
  Beta virt. eigenvalues --    0.10236   0.12817   0.13764   0.16560   0.18936
  Beta virt. eigenvalues --    0.21116   0.21402   0.23032   0.24041   0.25069
  Beta virt. eigenvalues --    0.26203   0.27344   0.28355   0.29012   0.31582
  Beta virt. eigenvalues --    0.35288   0.36972   0.42736   0.44852   0.45291
  Beta virt. eigenvalues --    0.46896   0.47417   0.51201   0.52485   0.55013
  Beta virt. eigenvalues --    0.56110   0.56928   0.58572   0.59031   0.59421
  Beta virt. eigenvalues --    0.61395   0.63498   0.63763   0.67969   0.68458
  Beta virt. eigenvalues --    0.73435   0.78276   0.81772   0.85614   0.86319
  Beta virt. eigenvalues --    0.89009   0.91979   0.94082   0.95358   1.00451
  Beta virt. eigenvalues --    1.01878   1.03861   1.06238   1.07988   1.10760
  Beta virt. eigenvalues --    1.12583   1.14311   1.15272   1.19104   1.23139
  Beta virt. eigenvalues --    1.23975   1.26746   1.27220   1.30400   1.32861
  Beta virt. eigenvalues --    1.33659   1.35530   1.36547   1.37491   1.40912
  Beta virt. eigenvalues --    1.43307   1.43898   1.45233   1.48405   1.49408
  Beta virt. eigenvalues --    1.51890   1.54490   1.59001   1.60850   1.69762
  Beta virt. eigenvalues --    1.72424   1.94640   1.98791   2.09833   2.21530
  Beta virt. eigenvalues --    2.31743   2.39289   2.43063   2.46530   2.49993
  Beta virt. eigenvalues --    2.59890   2.65738   2.74520   2.75959   2.79202
  Beta virt. eigenvalues --    2.87835   2.93241   2.95947   2.97692   3.00179
  Beta virt. eigenvalues --    3.03631   3.04823   3.09465   3.10630   3.12999
  Beta virt. eigenvalues --    3.15845   3.17373   3.18889   3.21482   3.24044
  Beta virt. eigenvalues --    3.27073   3.28346   3.30141   3.34586   3.35059
  Beta virt. eigenvalues --    3.40765   3.42725   3.45109   3.50217   3.53302
  Beta virt. eigenvalues --    3.60153   3.64090   3.66212   3.71298   3.72934
  Beta virt. eigenvalues --    3.75771   3.77083   3.83093   3.84686   3.88688
  Beta virt. eigenvalues --    3.92663   3.94248   3.96482   3.99664   4.03187
  Beta virt. eigenvalues --    4.08430   4.10136   4.13075   4.16735   4.17983
  Beta virt. eigenvalues --    4.23046   4.25598   4.27956   4.29075   4.33981
  Beta virt. eigenvalues --    4.37579   4.39657   4.41122   4.49447   4.56361
  Beta virt. eigenvalues --    4.65598   4.66391   4.93833   5.07888   5.21617
  Beta virt. eigenvalues --    5.25445   5.28720   5.41147   5.45398   5.46341
  Beta virt. eigenvalues --    5.47018   5.52393   5.59293   5.63840   5.81033
  Beta virt. eigenvalues --    5.88295   6.20405   6.47310   6.73108   7.13455
  Beta virt. eigenvalues --    7.19145   7.28864   7.64279   7.72069  24.22729
  Beta virt. eigenvalues --   24.31058  24.45761  50.14798
          Condensed to atoms (all electrons):
               1          2          3          4          5          6
     1  O    8.190398   0.077779  -0.071873   0.087537  -0.061730  -0.037491
     2  C    0.077779   5.148415   0.236370  -0.083728   0.459199   0.442290
     3  C   -0.071873   0.236370   5.100832  -0.005519  -0.053882  -0.046527
     4  C    0.087537  -0.083728  -0.005519   5.425122  -0.008083   0.008110
     5  H   -0.061730   0.459199  -0.053882  -0.008083   0.602006  -0.059012
     6  H   -0.037491   0.442290  -0.046527   0.008110  -0.059012   0.555317
     7  H    0.004346  -0.048129   0.414205  -0.000052  -0.015443   0.005924
     8  H   -0.011184  -0.026351   0.411794   0.004173   0.004275   0.001826
     9  H    0.007058  -0.033069   0.410069   0.000175   0.004140  -0.009049
    10  H   -0.034502  -0.001510  -0.000018   0.389947   0.006614  -0.003982
    11  H   -0.063486   0.006292  -0.000249   0.423542   0.001217  -0.000461
               7          8          9         10         11
     1  O    0.004346  -0.011184   0.007058  -0.034502  -0.063486
     2  C   -0.048129  -0.026351  -0.033069  -0.001510   0.006292
     3  C    0.414205   0.411794   0.410069  -0.000018  -0.000249
     4  C   -0.000052   0.004173   0.000175   0.389947   0.423542
     5  H   -0.015443   0.004275   0.004140   0.006614   0.001217
     6  H    0.005924   0.001826  -0.009049  -0.003982  -0.000461
     7  H    0.575299  -0.026285  -0.033303  -0.000044   0.000063
     8  H   -0.026285   0.529851  -0.025643  -0.000031  -0.000060
     9  H   -0.033303  -0.025643   0.558936   0.000001   0.000010
    10  H   -0.000044  -0.000031   0.000001   0.560062  -0.037715
    11  H    0.000063  -0.000060   0.000010  -0.037715   0.536679
          Atomic-Atomic Spin Densities.
               1          2          3          4          5          6
     1  O    0.272170   0.011724   0.004500  -0.210952  -0.006626  -0.006614
     2  C    0.011724   0.010126  -0.009946   0.002432   0.000739   0.003854
     3  C    0.004500  -0.009946   0.005883  -0.000238  -0.000629  -0.001892
     4  C   -0.210952   0.002432  -0.000238   1.178485   0.002260   0.012679
     5  H   -0.006626   0.000739  -0.000629   0.002260   0.007479  -0.003388
     6  H   -0.006614   0.003854  -0.001892   0.012679  -0.003388   0.000936
     7  H   -0.000926   0.001676  -0.001688   0.000051   0.000895  -0.000467
     8  H   -0.000470   0.002055  -0.001815  -0.000024   0.000146  -0.000269
     9  H   -0.000230  -0.001122   0.000832   0.000039  -0.000510   0.000984
    10  H   -0.000355  -0.000397  -0.000909  -0.028927   0.004451  -0.002428
    11  H    0.002767  -0.001525  -0.000128  -0.016851   0.000592  -0.000328
               7          8          9         10         11
     1  O   -0.000926  -0.000470  -0.000230  -0.000355   0.002767
     2  C    0.001676   0.002055  -0.001122  -0.000397  -0.001525
     3  C   -0.001688  -0.001815   0.000832  -0.000909  -0.000128
     4  C    0.000051  -0.000024   0.000039  -0.028927  -0.016851
     5  H    0.000895   0.000146  -0.000510   0.004451   0.000592
     6  H   -0.000467  -0.000269   0.000984  -0.002428  -0.000328
     7  H    0.000719   0.000286  -0.000410   0.000047   0.000009
     8  H    0.000286  -0.000266  -0.000182   0.000032   0.000030
     9  H   -0.000410  -0.000182   0.001251  -0.000027  -0.000004
    10  H    0.000047   0.000032  -0.000027   0.007578   0.009233
    11  H    0.000009   0.000030  -0.000004   0.009233  -0.008430
 Mulliken charges and spin densities:
               1          2
     1  O   -0.086851   0.064987
     2  C   -0.177556   0.019617
     3  C   -0.395201  -0.006030
     4  C   -0.241223   0.938955
     5  H    0.120700   0.005408
     6  H    0.143056   0.003067
     7  H    0.123421   0.000190
     8  H    0.137636  -0.000477
     9  H    0.120674   0.000620
    10  H    0.121177  -0.011702
    11  H    0.134168  -0.014635
 Sum of Mulliken charges =  -0.00000   1.00000
 Mulliken charges and spin densities with hydrogens summed into heavy atoms:
               1          2
     1  O   -0.086851   0.064987
     2  C    0.086200   0.028091
     3  C   -0.013471  -0.005696
     4  C    0.014122   0.912618
 APT charges:
               1
     1  O   -0.034817
     2  C   -0.537439
     3  C   -1.170943
     4  C   -0.846076
     5  H    0.313212
     6  H    0.366080
     7  H    0.364722
     8  H    0.304075
     9  H    0.450994
    10  H    0.336676
    11  H    0.453517
 Sum of APT charges =  -0.00000
 APT charges with hydrogens summed into heavy atoms:
               1
     1  O   -0.034817
     2  C    0.141852
     3  C   -0.051152
     4  C   -0.055883
 Electronic spatial extent (au):  <R**2>=            344.8330
 Charge=             -0.0000 electrons
 Dipole moment (field-independent basis, Debye):
    X=             -0.6711    Y=              1.0901    Z=              0.6207  Tot=              1.4227
 Quadrupole moment (field-independent basis, Debye-Ang):
   XX=            -25.4900   YY=            -26.4204   ZZ=            -27.0375
   XY=             -0.0010   XZ=              1.8048   YZ=              0.0072
 Traceless Quadrupole moment (field-independent basis, Debye-Ang):
   XX=              0.8260   YY=             -0.1045   ZZ=             -0.7215
   XY=             -0.0010   XZ=              1.8048   YZ=              0.0072
 Octapole moment (field-independent basis, Debye-Ang**2):
  XXX=              1.4137  YYY=             -2.0983  ZZZ=              1.3572  XYY=              0.5606
  XXY=             -1.6721  XXZ=              3.5513  XZZ=             -2.5052  YZZ=              0.3486
  YYZ=              0.3352  XYZ=              0.1983
 Hexadecapole moment (field-independent basis, Debye-Ang**3):
 XXXX=           -368.8773 YYYY=            -70.8626 ZZZZ=            -46.0479 XXXY=             -7.8546
 XXXZ=             13.5817 YYYX=             -0.0323 YYYZ=              0.1807 ZZZX=              1.9152
 ZZZY=              0.1225 XXYY=            -70.9503 XXZZ=            -71.1166 YYZZ=            -19.5020
 XXYZ=             -0.3598 YYXZ=              2.5914 ZZXY=             -1.9337
 N-N= 1.261581731323D+02 E-N=-7.039614613046D+02  KE= 1.927559000710D+02
  Exact polarizability:   0.000   0.000   0.000   0.000   0.000   0.000
 Approx polarizability:  51.246  -0.123  47.785   0.307   0.219  44.974
                          Isotropic Fermi Contact Couplings
        Atom                 a.u.       MegaHertz       Gauss      10(-4) cm-1
     1  O(17)              0.03887     -23.56424      -8.40831      -7.86018
     2  C(13)             -0.00492      -5.52763      -1.97239      -1.84382
     3  C(13)             -0.00130      -1.46114      -0.52137      -0.48738
     4  C(13)              0.35172     395.39843     141.08799     131.89072
     5  H(1)               0.00214       9.55931       3.41100       3.18864
     6  H(1)               0.00184       8.20327       2.92713       2.73632
     7  H(1)              -0.00002      -0.10056      -0.03588      -0.03354
     8  H(1)              -0.00016      -0.73098      -0.26083      -0.24383
     9  H(1)               0.00006       0.28558       0.10190       0.09526
    10  H(1)               0.00111       4.96310       1.77096       1.65551
    11  H(1)              -0.00078      -3.46975      -1.23809      -1.15738
 --------------------------------------------------------
       Center         ----  Spin Dipole Couplings  ----
                      3XX-RR        3YY-RR        3ZZ-RR
 --------------------------------------------------------
     1   Atom       -0.418293     -0.414562      0.832856
     2   Atom        0.014956     -0.002431     -0.012525
     3   Atom        0.006569     -0.003704     -0.002865
     4   Atom       -0.413093     -0.446386      0.859479
     5   Atom        0.005446     -0.001089     -0.004357
     6   Atom        0.008789     -0.001662     -0.007127
     7   Atom        0.003807     -0.002146     -0.001661
     8   Atom        0.006043     -0.002695     -0.003348
     9   Atom        0.003737     -0.001860     -0.001877
    10   Atom       -0.053634      0.047090      0.006544
    11   Atom       -0.007629      0.006031      0.001597
 --------------------------------------------------------
                        XY            XZ            YZ
 --------------------------------------------------------
     1   Atom       -0.022815     -0.182653     -0.093035
     2   Atom       -0.009495     -0.001990     -0.000296
     3   Atom       -0.000295     -0.000446     -0.000074
     4   Atom        0.016865     -0.266072     -0.124609
     5   Atom       -0.007619     -0.006660      0.004322
     6   Atom       -0.009318      0.003806     -0.002570
     7   Atom       -0.000316     -0.001955      0.000131
     8   Atom        0.003756     -0.000109     -0.000106
     9   Atom       -0.000452      0.000613     -0.000094
    10   Atom        0.010628     -0.002767      0.033517
    11   Atom       -0.051777      0.017075     -0.028039
 --------------------------------------------------------


 ---------------------------------------------------------------------------------
              Anisotropic Spin Dipole Couplings in Principal Axis System
 ---------------------------------------------------------------------------------

       Atom             a.u.   MegaHertz   Gauss  10(-4) cm-1        Axes

              Baa    -0.4702    34.020    12.139    11.348  0.7972  0.5839  0.1534
     1 O(17)  Bbb    -0.3950    28.581    10.199     9.534 -0.5874  0.8089 -0.0261
              Bcc     0.8652   -62.602   -22.338   -20.882 -0.1393 -0.0693  0.9878
 
              Baa    -0.0128    -1.718    -0.613    -0.573  0.1167  0.1349  0.9840
     2 C(13)  Bbb    -0.0064    -0.862    -0.308    -0.288  0.3867  0.9064 -0.1701
              Bcc     0.0192     2.580     0.921     0.861  0.9148 -0.4003 -0.0536
 
              Baa    -0.0037    -0.499    -0.178    -0.167  0.0330  0.9941  0.1031
     3 C(13)  Bbb    -0.0029    -0.386    -0.138    -0.129  0.0437 -0.1045  0.9936
              Bcc     0.0066     0.885     0.316     0.295  0.9985 -0.0283 -0.0469
 
              Baa    -0.4712   -63.233   -22.563   -21.092  0.8333  0.5096  0.2143
     4 C(13)  Bbb    -0.4531   -60.807   -21.698   -20.283 -0.5172  0.8555 -0.0236
              Bcc     0.9244   124.040    44.261    41.375 -0.1954 -0.0912  0.9765
 
              Baa    -0.0078    -4.166    -1.487    -1.390  0.3494 -0.1935  0.9168
     5 H(1)   Bbb    -0.0061    -3.260    -1.163    -1.087  0.5390  0.8418 -0.0277
              Bcc     0.0139     7.426     2.650     2.477  0.7664 -0.5039 -0.3985
 
              Baa    -0.0081    -4.348    -1.552    -1.450 -0.0302  0.3305  0.9433
     6 H(1)   Bbb    -0.0070    -3.755    -1.340    -1.253  0.5357  0.8021 -0.2639
              Bcc     0.0152     8.104     2.892     2.703  0.8439 -0.4973  0.2012
 
              Baa    -0.0023    -1.224    -0.437    -0.408  0.2882 -0.2124  0.9337
     7 H(1)   Bbb    -0.0022    -1.151    -0.411    -0.384  0.1130  0.9758  0.1871
              Bcc     0.0045     2.375     0.847     0.792  0.9509 -0.0516 -0.3052
 
              Baa    -0.0041    -2.184    -0.779    -0.728 -0.3455  0.9348  0.0820
     8 H(1)   Bbb    -0.0033    -1.785    -0.637    -0.595  0.0406 -0.0725  0.9965
              Bcc     0.0074     3.968     1.416     1.324  0.9375  0.3477 -0.0129
 
              Baa    -0.0020    -1.051    -0.375    -0.351 -0.0505  0.5197  0.8529
     9 H(1)   Bbb    -0.0019    -0.998    -0.356    -0.333  0.1245  0.8506 -0.5109
              Bcc     0.0038     2.049     0.731     0.683  0.9909 -0.0804  0.1077
 
              Baa    -0.0555   -29.611   -10.566    -9.877  0.9827 -0.1410  0.1200
    10 H(1)   Bbb    -0.0110    -5.876    -2.097    -1.960 -0.1730 -0.4682  0.8665
              Bcc     0.0665    35.487    12.663    11.837  0.0660  0.8723  0.4845
 
              Baa    -0.0537   -28.666   -10.229    -9.562  0.7206  0.6823  0.1234
    11 H(1)   Bbb    -0.0137    -7.289    -2.601    -2.431 -0.3868  0.2479  0.8882
              Bcc     0.0674    35.955    12.830    11.993 -0.5754  0.6878 -0.4425
 

 ---------------------------------------------------------------------------------

 No NMR shielding tensors so no spin-rotation constants.
 Leave Link  601 at Thu Mar  7 00:15:03 2019, MaxMem=   104857600 cpu:               0.5 elap:               0.5
 (Enter /shared/centos7/gaussian/g16/l701.exe)
 SCFChk:  SCF convergence  3.49D-09 required  1.00D-08
 ... and contract with generalized density number  0.
 Compute integral second derivatives.
 Entering OneElI...
 Calculate overlap and kinetic energy integrals
    NBasis = 219  MinDer = 2  MaxDer = 2
 Requested accuracy = 0.1000D-12
 PrmmSu-InSpLW:  IPartL=    0 NPrtUS=    1 NPrtUL=    1 DoSpLW=F IThBeg=    0 IThEnd=    0 NThAct=    1.
 PrsmSu:  NPrtUS=   1 ThrOK=F IAlg=1 NPAlg=1 LenDen=           0 ISkipM=0 DoSpLW=F IThBeg=    0 IThEnd=    0.
 Prism:   IPart=     0 DynPar=F LinDyn=F Incr=          22.
 PRISM was handed   104522836 working-precision words and  2278 shell-pairs
 IPart=  0 NShTot=        2278 NBatch=         135 AvBLen=        16.9
 PrSmSu:  NxtVal=             23.
 Entering OneElI...
 Calculate potential energy integrals
    NBasis = 219  MinDer = 2  MaxDer = 2
 Requested accuracy = 0.1000D-12
 PrmmSu-InSpLW:  IPartL=    0 NPrtUS=    1 NPrtUL=    1 DoSpLW=F IThBeg=    0 IThEnd=    0 NThAct=    1.
 PrsmSu:  NPrtUS=   1 ThrOK=F IAlg=1 NPAlg=1 LenDen=           0 ISkipM=0 DoSpLW=F IThBeg=    0 IThEnd=    0.
 Prism:   IPart=     0 DynPar=F LinDyn=F Incr=         241.
 PRISM was handed   104579293 working-precision words and  2195 shell-pairs
 IPart=  0 NShTot=       24145 NBatch=        2195 AvBLen=        11.0
 PrSmSu:  NxtVal=            242.
 Polarizability after L701:
                1             2             3 
      1  0.000000D+00
      2  0.000000D+00  0.000000D+00
      3  0.000000D+00  0.000000D+00  0.000000D+00
 Dipole Derivatives after L701:
                 1             2             3             4             5 
      1   0.103381D+00  0.549069D-01  0.178540D-01  0.682387D-01  0.318392D+00
      2  -0.310393D-01 -0.517303D-01  0.185613D-01 -0.524363D-01 -0.880077D+00
      3   0.292207D-01  0.539188D-01 -0.156101D+00 -0.750646D-01  0.220223D-01
                 6             7             8             9            10 
      1  -0.588160D-01 -0.164775D+01 -0.296979D+00  0.108691D+00 -0.133601D+01
      2  -0.143209D-01  0.162453D+00 -0.862488D+00 -0.654740D-02  0.920064D-01
      3  -0.800480D+00 -0.286023D-01 -0.107508D-01 -0.100259D+01 -0.154804D+00
                11            12            13            14            15 
      1  -0.104210D-01 -0.981703D+00  0.133927D+00 -0.695237D-01 -0.721867D-01
      2  -0.937331D+00 -0.383951D-01  0.678507D-01  0.358913D+00  0.314772D+00
      3  -0.569392D-01 -0.264889D+00  0.643665D-01  0.153881D+00  0.446797D+00
                16            17            18            19            20 
      1   0.157352D+00 -0.111489D+00  0.939517D-01  0.431131D+00 -0.205101D+00
      2  -0.507939D-03  0.487117D+00 -0.320638D+00  0.831268D-02  0.108815D+00
      3  -0.616621D-02 -0.255432D+00  0.453769D+00 -0.143432D+00  0.126131D+00
                21            22            23            24            25 
      1  -0.822242D+00  0.874296D-01  0.716578D+00  0.683019D-01  0.871362D+00
      2   0.322593D-01 -0.683790D-01  0.711277D+00  0.660633D-01 -0.687123D-01
      3   0.554220D+00 -0.556495D-02  0.546762D-01  0.113518D+00  0.222985D+00
                26            27            28            29            30 
      1  -0.350154D+00  0.699708D+00  0.316420D+00  0.746453D+00  0.363015D+00
      2   0.138275D+00 -0.910099D-01  0.591517D-01  0.539519D+00  0.196952D+00
      3  -0.133547D+00  0.343343D+00  0.229964D-01  0.148801D+00  0.154090D+00
                31            32            33 
      1   0.814516D+00 -0.792662D+00  0.583425D+00
      2  -0.168700D+00  0.387709D+00 -0.157696D+00
      3   0.740644D-01 -0.102760D+00  0.158325D+00
 Hessian after L701:
                1             2             3             4             5 
      1  0.788656D+00
      2  0.817876D+00  0.907036D+01
      3  0.185602D+00  0.280357D+00  0.129590D+02
      4 -0.228333D+01 -0.340330D+01  0.713232D-01  0.101211D+02
      5 -0.328450D+01 -0.340930D+01 -0.746809D-01  0.167617D+01  0.125295D+02
      6  0.110359D+00 -0.930351D-01 -0.646861D+01 -0.223221D+00  0.235849D+00
      7  0.931915D+00 -0.426673D-01 -0.172127D-01 -0.132012D+01  0.152975D+01
      8 -0.189573D+00 -0.294614D+00  0.119334D-01  0.157494D+01 -0.428225D+01
      9 -0.393320D-01  0.907475D-02 -0.369733D+00 -0.179409D+00 -0.637554D-01
     10  0.414852D+00  0.258648D+01 -0.369825D+00  0.413999D+00 -0.435515D-01
     11  0.260904D+01 -0.564330D+01 -0.213813D+00 -0.184344D+00 -0.182097D+00
     12 -0.430184D+00 -0.217987D+00 -0.680185D+01 -0.857161D-01 -0.144786D-01
     13  0.313940D-02  0.142656D+00 -0.250363D-02 -0.350297D+01  0.216296D+00
     14  0.106762D+00 -0.231926D-01  0.158109D+00  0.281650D+00 -0.255288D+01
     15 -0.236403D-01  0.140967D+00  0.332391D+00  0.339363D+00  0.124803D+01
     16 -0.301156D-01  0.555529D-01  0.586184D-01 -0.357011D+01  0.662551D-02
     17  0.183469D-01  0.283866D-01 -0.222423D+00  0.489608D-01 -0.218408D+01
     18  0.689903D-01 -0.190496D+00  0.254479D+00 -0.225407D-01 -0.135205D+01
     19  0.927622D-01 -0.187177D-01 -0.638131D-01 -0.947261D-02 -0.228432D-01
     20 -0.332374D-01 -0.430595D-01  0.180589D-01 -0.180911D-01  0.471400D-01
     21 -0.960650D-01  0.137702D-01 -0.247495D-02 -0.137142D-01  0.245107D-01
     22  0.349501D-01  0.521936D-02 -0.923917D-02  0.248092D-01 -0.253661D-01
     23  0.990723D-01 -0.955963D-02 -0.106598D-03  0.709135D-01  0.292733D-01
     24  0.193092D-02  0.221161D-02 -0.443864D-01  0.169448D-02  0.114590D-01
     25  0.128880D+00 -0.411837D-01  0.535485D-01 -0.513614D-02  0.422416D-02
     26 -0.477850D-01 -0.373847D-01 -0.165166D-01 -0.140981D-02  0.333570D-01
     27  0.702807D-01 -0.149643D-01 -0.258341D-01  0.361445D-01 -0.169904D-01
     28 -0.331877D-01  0.525853D-02  0.466608D-01  0.187589D-01 -0.393101D-02
     29  0.649812D-01  0.220102D+00  0.112058D+00  0.367272D-01 -0.671149D-02
     30  0.594901D-01  0.120300D+00  0.661622D-01  0.310538D-01  0.124829D-01
     31 -0.485153D-01 -0.107167D+00  0.468406D-01  0.112453D+00 -0.528804D-01
     32 -0.160983D+00  0.141574D+00 -0.529759D-01 -0.822195D-01 -0.219226D-01
     33  0.925694D-01 -0.501976D-01  0.100831D+00  0.450219D-01 -0.103769D-01
                6             7             8             9            10 
      6  0.157420D+02
      7 -0.214977D+00  0.780165D+01
      8 -0.771819D-01 -0.580336D+00  0.110872D+02
      9 -0.486989D+01  0.176430D-01 -0.109832D+00  0.114827D+02
     10 -0.296988D-01  0.248566D+00  0.352242D-01 -0.461155D-02  0.406257D+01
     11 -0.520796D-02  0.582355D-01 -0.129398D+00 -0.362145D-02 -0.196840D+01
     12 -0.162588D+00 -0.218917D-01  0.353168D-02 -0.123964D+00 -0.425493D+00
     13  0.266278D+00  0.895772D-02 -0.417919D-01  0.397804D-03 -0.254931D-01
     14  0.127850D+01 -0.455588D-01  0.216090D-01  0.144254D-01 -0.230903D-01
     15 -0.201283D+01  0.394361D-02  0.129394D-01  0.103184D+00 -0.235594D-01
     16  0.217659D-01 -0.136269D-02 -0.326363D-01  0.850300D-02  0.331617D-01
     17 -0.134815D+01 -0.173570D-01  0.303261D-01 -0.273483D-01 -0.746487D-01
     18 -0.226230D+01 -0.254327D-02 -0.208066D-01  0.838629D-01  0.546388D-01
     19  0.398974D-01 -0.266988D+01 -0.180701D+00 -0.890101D+00  0.147052D-01
     20  0.232936D-01 -0.153580D+00 -0.293599D+01  0.363429D+00 -0.248466D-02
     21  0.743271D-01 -0.784703D+00  0.376091D+00 -0.116078D+01 -0.156833D-01
     22 -0.387107D-02 -0.315121D+01 -0.607268D-01 -0.198821D-02  0.368737D-01
     23  0.804311D-02 -0.273768D+00 -0.711642D+00  0.263845D+00  0.450733D-01
     24 -0.161662D-01 -0.245928D-01  0.262317D+00 -0.307643D+01  0.227817D-02
     25  0.617443D-02 -0.188872D+01 -0.522757D+00  0.107963D+01  0.208248D-01
     26 -0.158478D-01 -0.488952D+00 -0.277427D+01 -0.449424D+00 -0.508598D-02
     27  0.443910D-01  0.102308D+01 -0.455784D+00 -0.204750D+01  0.993847D-02
     28  0.369550D-02  0.225572D-01  0.696108D-02  0.619148D-02 -0.310472D+01
     29  0.819953D-02  0.280227D-01 -0.971410D-02  0.552090D-02  0.370889D+00
     30 -0.321876D-01  0.116746D-01  0.194631D-02 -0.129346D-01  0.187560D+00
     31  0.235986D-01  0.176449D-01 -0.860718D-02  0.308151D-02 -0.211533D+01
     32 -0.144587D-01 -0.137909D-01 -0.126401D-02 -0.231441D-02 -0.920397D+00
     33 -0.360997D-01  0.957725D-02 -0.515514D-02 -0.853733D-02  0.614455D+00
               11            12            13            14            15 
     11  0.930417D+01
     12 -0.145614D-01  0.125716D+02
     13 -0.155477D-01  0.399890D-02  0.334144D+01
     14  0.848531D-02  0.147855D-01 -0.298304D+00  0.236178D+01
     15  0.310250D-01  0.613259D-02 -0.289404D+00 -0.150592D+01  0.182459D+01
     16 -0.404994D-01  0.120172D-01  0.156072D+00  0.176647D-02 -0.335556D-01
     17 -0.598427D-02 -0.116045D-01  0.225285D-02  0.165235D+00  0.275661D-01
     18 -0.355896D-01 -0.339719D-01 -0.159499D-01  0.490635D-02 -0.258526D+00
     19  0.366223D-03 -0.108662D-01 -0.498802D-01 -0.454411D-01  0.838735D-02
     20 -0.103402D-01  0.323444D-02 -0.421560D-01  0.321930D-02  0.243845D-02
     21  0.180880D-02  0.215639D-02  0.427087D-02 -0.527656D-03  0.234537D-01
     22  0.212060D-01 -0.192835D-02 -0.188777D-02  0.290496D-01  0.156432D-01
     23 -0.326032D-02 -0.753758D-02  0.301740D-01  0.460360D-01  0.360637D-01
     24  0.140181D-02 -0.218231D-01  0.949304D-02  0.198396D-01 -0.367135D-02
     25 -0.305997D-02 -0.241646D-02  0.286512D-01  0.260147D-01  0.413510D-01
     26 -0.855576D-02  0.106706D-03  0.103355D-01 -0.102558D-01  0.789435D-02
     27 -0.285131D-02 -0.106927D-01  0.308965D-01  0.188000D-01  0.173037D-01
     28  0.550105D+00  0.251046D+00  0.297327D-01 -0.138159D-01 -0.267238D-01
     29 -0.121530D+01  0.928091D+00  0.812334D-02 -0.292687D-01 -0.112538D-01
     30  0.889910D+00 -0.277367D+01 -0.688962D-02 -0.131080D-02 -0.237389D-01
     31 -0.102709D+01  0.711434D+00  0.122364D-01 -0.190328D-01 -0.118049D-01
     32 -0.211442D+01 -0.683581D+00 -0.120378D-01  0.923670D-02  0.102560D-01
     33 -0.648501D+00 -0.265137D+01 -0.587563D-03 -0.159872D-02 -0.828594D-02
               16            17            18            19            20 
     16  0.344133D+01
     17 -0.288506D-02  0.192695D+01
     18 -0.320643D-01  0.163294D+01  0.216945D+01
     19  0.128451D-01  0.302780D-01 -0.431211D-01  0.248640D+01
     20  0.150942D-01 -0.595969D-02 -0.192537D-01  0.204622D+00  0.290077D+01
     21 -0.360733D-01 -0.374032D-01  0.350582D-01  0.959424D+00 -0.327749D+00
     22 -0.320977D-02  0.188445D-01 -0.849957D-02  0.384191D-01  0.345593D-01
     23  0.163591D-01  0.406571D-01 -0.251292D-01  0.364988D-01 -0.173030D-01
     24 -0.319537D-02 -0.955387D-02 -0.563514D-02  0.338838D-01 -0.942947D-01
     25 -0.305289D-01 -0.115497D-01 -0.311309D-02  0.744899D-01 -0.246993D-02
     26 -0.211916D-01  0.272220D-02  0.292197D-02 -0.565348D-02  0.632947D-01
     27  0.569542D-02  0.742981D-02  0.953547D-02 -0.368370D-01  0.319656D-01
     28 -0.940401D-02 -0.408523D-02 -0.276069D-02  0.368044D-02 -0.517530D-04
     29  0.487139D-02 -0.529835D-02  0.961778D-02  0.556174D-02 -0.218610D-02
     30 -0.436637D-02 -0.503460D-02  0.450778D-02  0.156473D-02 -0.325460D-03
     31  0.132637D-02 -0.815737D-02  0.696347D-02  0.592834D-02 -0.220491D-02
     32 -0.305717D-02  0.704483D-02 -0.706134D-02 -0.396991D-02  0.412554D-03
     33  0.265488D-02 -0.641727D-02  0.354463D-02  0.158096D-02 -0.797188D-03
               21            22            23            24            25 
     21  0.115665D+01
     22  0.175354D-01  0.299503D+01
     23 -0.577936D-01 -0.867169D-01  0.663341D+00
     24 -0.346489D-02 -0.176377D-02 -0.255103D+00  0.313550D+01
     25 -0.247262D-01  0.213538D-01  0.474425D-01 -0.217887D-01  0.163835D+01
     26  0.926918D-02  0.614661D-01 -0.407676D-01  0.610939D-01  0.501064D+00
     27 -0.117671D+00 -0.953133D-02  0.283781D-01  0.380136D-01 -0.113725D+01
     28 -0.437703D-02  0.157417D-02  0.670572D-02  0.891075D-03  0.548498D-02
     29 -0.644369D-02  0.416175D-02  0.978624D-02  0.132194D-02  0.749776D-02
     30 -0.356801D-02  0.168971D-02  0.463998D-02 -0.104084D-02  0.433522D-02
     31 -0.588897D-02  0.330106D-02  0.824566D-02  0.116922D-02  0.635422D-02
     32  0.446759D-02 -0.169694D-02 -0.656114D-02 -0.693367D-03 -0.522271D-02
     33 -0.368829D-02  0.195311D-02  0.470018D-02 -0.892173D-03  0.426374D-02
               26            27            28            29            30 
     26  0.277340D+01
     27  0.402600D+00  0.208928D+01
     28 -0.416505D-03  0.344839D-02  0.299669D+01
     29 -0.245183D-02  0.462122D-02 -0.621145D+00  0.118981D+01
     30 -0.718632D-03  0.146156D-02 -0.287640D+00 -0.103441D+01  0.268455D+01
     31 -0.237079D-02  0.413573D-02  0.688403D-01  0.903096D-01  0.152746D-02
     32  0.906161D-03 -0.320547D-02  0.744156D-01 -0.148775D+00  0.125169D-01
     33 -0.137949D-02  0.170599D-02  0.956773D-02 -0.173267D-01  0.904552D-01
               31            32            33 
     31  0.193576D+01
     32  0.112896D+01  0.213377D+01
     33 -0.781056D+00  0.737049D+00  0.251234D+01
 Leave Link  701 at Thu Mar  7 00:15:03 2019, MaxMem=   104857600 cpu:               0.4 elap:               0.4
 (Enter /shared/centos7/gaussian/g16/l702.exe)
 L702 exits ... SP integral derivatives will be done elsewhere.
 Leave Link  702 at Thu Mar  7 00:15:04 2019, MaxMem=   104857600 cpu:               0.1 elap:               0.1
 (Enter /shared/centos7/gaussian/g16/l703.exe)
 Integral derivatives from FoFJK, PRISM(SPDF).
 Compute integral second derivatives, UseDBF=F ICtDFT=           0.
 ICntrl=    100147.
 Calling FoFJK, ICntrl=    100147 FMM=F ISym2X=0 I1Cent= 0 IOpClX= 1 NMat=1 NMatS=1 NMatT=0.
 FoFJK:  IHMeth= 1 ICntrl=  100147 DoSepK=F KAlg= 0 I1Cent=           0 FoldK=F
 IRaf=         0 NMat=       1 IRICut=       1 DoRegI=T DoRafI=F ISym2E= 0 IDoP0=0 IntGTp=1.
 FoFCou: FMM=F IPFlag=           0 FMFlag=      100000 FMFlg1=         800
         NFxFlg=           0 DoJE=F BraDBF=F KetDBF=F FulRan=T
         wScrn=  0.000000 ICntrl=    100147 IOpCl=  1 I1Cent=           0 NGrid=           0
         NMat0=    1 NMatS0=      1 NMatT0=    0 NMatD0=    1 NMtDS0=    0 NMtDT0=    0
 Symmetry not used in FoFCou.
 FoFCou:  KetSym=F NOpSet=  1 NOpAb=1 NOp=  1.
 FoFCou:  CnvScl= 1.00D+00 Thresh= 1.00D-08 IAcrcy=      12.
 PrismS was handed   104596064 working-precision words and  2230 shell-pairs
 FoFCou: LinMIO=F DoNuc=F BraDBF=F KetDBF=F HaveP=T PDBF=F HaveZ=T HaveW=F
         NIJTC =      15 NIJTAt=       0 NIJTCD=       0 NIJTT =      15
         IJTBeg=       1 IJTEnd=      15 KLTBeg=       1 KLTEnd=      15
         IPTBeg=       1 IPTEnd=      15 IPTBCv=       1 IPTECv=      15
         IZTBeg=       1 IZTEnd=      15 IZTBCv=       1 IZTECv=      15
         IWTBeg=      16 IWTEnd=      15 IWTBCv=      16 IWTECv=      15
         INTBeg=       1 INTEnd=       0 IFTBCv=       1 IFTECv=      15
 NCel replicated for PrismC:     1
 CoulSu-InSpLW:  IPartL=    0 NPrtUS=    1 NPrtUL=    1 DoSpLW=F IThBeg=    0 IThEnd=    0 NThAct=    1.
 CoulSu:  IncDef=  1024 NBBP=        2487565 NTPThr=   100 NPartT=    1 Incr=        1024 LDynOK=F GPUOK=T.
 CoulSu:  NPrtUS=   1 ThrOK=F IAlg=1 NPAlg=1 LenDen=           0 LWGrdD=           0 DoCopy=F ISkipM=0
          DoSpLW=F IThBeg=    0 IThEnd=    0.
 Enter PrismC:  IPart=  0 JobTyp=22 DoJE=F Cont=F.
 PrismC:  IPart=     0 DynPar=F LinDyn=F Incr=        1024 UseFst=F UseS4=T ISplat=2.
 PrismC was handed   104593662 working-precision words and  2230 shell-pairs
 IPart=  0 NShTot=     1859697 NShNF=     1859697 NShFF=           0 MinMC=       7
           NShCPU=     1859697 NBCPU=       84030 AvBCPU=        22.1
           NShGPU=           0 NBGPU=           0 AvBGPU=         0.0
 CoulSu:  NxtVal=           1025 LenVP=      104593663 MinMC=       7.
 ReadGW:  IGet=0 IStart=           1 Next=           1 LGW=           0.
 Remaining memory in FofDFT       99.91 Mw
 CkSvGd:  ISavGI=        -1 IRadAn=       5 IRASav=       5 ISavGd=        -1.
 CalDSu-InSpLW:  IPartL=    0 NPrtUS=    1 NPrtUL=    1 DoSpLW=F IThBeg=    0 IThEnd=    0 NThAct=    1.
 CalDSu:  NPrtUS=   1 ThrOK=F IAlg=1 NPAlg=1 DoDPD=F LenP=       24090 LenD1P=             0 GPUOK=F
          ISkipM=0 DoSpLW=F IThBeg=    0 IThEnd=    0.
 IPart=  0 IRanGd=          0 ScrnBf=T ScrnGd=T RCrit=4.00D+00 DoMicB=T.
 IPart=  0       225785 of       251282 points in     234 batches and     1306 microbatches, Max-NSigAt=      11 Max-NSgAt2=      11
 Polarizability after L703:
                1             2             3 
      1  0.000000D+00
      2  0.000000D+00  0.000000D+00
      3  0.000000D+00  0.000000D+00  0.000000D+00
 Dipole Derivatives after L703:
                 1             2             3             4             5 
      1   0.103381D+00  0.549069D-01  0.178540D-01  0.682387D-01  0.318392D+00
      2  -0.310393D-01 -0.517303D-01  0.185613D-01 -0.524363D-01 -0.880077D+00
      3   0.292207D-01  0.539188D-01 -0.156101D+00 -0.750646D-01  0.220223D-01
                 6             7             8             9            10 
      1  -0.588160D-01 -0.164775D+01 -0.296979D+00  0.108691D+00 -0.133601D+01
      2  -0.143209D-01  0.162453D+00 -0.862488D+00 -0.654740D-02  0.920064D-01
      3  -0.800480D+00 -0.286023D-01 -0.107508D-01 -0.100259D+01 -0.154804D+00
                11            12            13            14            15 
      1  -0.104210D-01 -0.981703D+00  0.133927D+00 -0.695237D-01 -0.721867D-01
      2  -0.937331D+00 -0.383951D-01  0.678507D-01  0.358913D+00  0.314772D+00
      3  -0.569392D-01 -0.264889D+00  0.643665D-01  0.153881D+00  0.446797D+00
                16            17            18            19            20 
      1   0.157352D+00 -0.111489D+00  0.939517D-01  0.431131D+00 -0.205101D+00
      2  -0.507939D-03  0.487117D+00 -0.320638D+00  0.831268D-02  0.108815D+00
      3  -0.616621D-02 -0.255432D+00  0.453769D+00 -0.143432D+00  0.126131D+00
                21            22            23            24            25 
      1  -0.822242D+00  0.874296D-01  0.716578D+00  0.683019D-01  0.871362D+00
      2   0.322593D-01 -0.683790D-01  0.711277D+00  0.660633D-01 -0.687123D-01
      3   0.554220D+00 -0.556495D-02  0.546762D-01  0.113518D+00  0.222985D+00
                26            27            28            29            30 
      1  -0.350154D+00  0.699708D+00  0.316420D+00  0.746453D+00  0.363015D+00
      2   0.138275D+00 -0.910099D-01  0.591517D-01  0.539519D+00  0.196952D+00
      3  -0.133547D+00  0.343343D+00  0.229964D-01  0.148801D+00  0.154090D+00
                31            32            33 
      1   0.814516D+00 -0.792662D+00  0.583425D+00
      2  -0.168700D+00  0.387709D+00 -0.157696D+00
      3   0.740644D-01 -0.102760D+00  0.158325D+00
 Hessian after L703:
                1             2             3             4             5 
      1  0.537979D+00
      2 -0.511559D-01  0.361882D+00
      3 -0.286450D-02  0.716469D-02  0.732349D-01
      4 -0.157589D+00  0.719874D-01  0.397663D-02  0.541489D+00
      5  0.108993D+00 -0.193742D+00  0.116255D-02  0.285198D-01  0.544515D+00
      6  0.517318D-02  0.138518D-02 -0.606378D-01 -0.167563D-02 -0.331509D-01
      7 -0.407022D-01 -0.738448D-02  0.121114D-02 -0.191016D+00 -0.625498D-01
      8  0.254778D-01  0.131011D-01 -0.134434D-02 -0.712384D-01 -0.112531D+00
      9 -0.667667D-03 -0.856772D-04  0.146267D-02  0.988730D-02  0.796749D-02
     10 -0.262982D+00 -0.485730D-01  0.203672D-01 -0.545380D-01 -0.476056D-02
     11 -0.930299D-01 -0.130547D+00  0.103084D-01  0.248807D-01  0.923468D-02
     12  0.319963D-03 -0.102843D-02 -0.365462D-01 -0.482496D-02  0.846988D-03
     13 -0.117636D-01  0.253286D-01  0.226114D-01 -0.585574D-01 -0.257905D-01
     14  0.177363D-01 -0.311996D-01 -0.257450D-01 -0.230446D-01 -0.101005D+00
     15  0.693090D-02 -0.726495D-02  0.437511D-02 -0.333391D-01 -0.838684D-01
     16 -0.914101D-02  0.226249D-01 -0.213347D-01 -0.548904D-01 -0.184165D-01
     17  0.108598D-01 -0.225299D-01  0.205876D-01 -0.158884D-01 -0.134249D+00
     18 -0.501047D-02 -0.267681D-03  0.838410D-02  0.196735D-01  0.110938D+00
     19 -0.311825D-02 -0.135172D-02 -0.955463D-04 -0.128159D-01  0.264584D-02
     20  0.111472D-03 -0.287921D-03  0.821897D-03 -0.908333D-02 -0.575305D-03
     21  0.729135D-03  0.464057D-03  0.143645D-04 -0.637096D-03 -0.578441D-03
     22  0.204394D-02 -0.329100D-04 -0.975775D-04  0.183751D-02 -0.295416D-01
     23  0.310188D-02  0.167441D-02  0.456641D-04  0.719540D-03 -0.153280D-01
     24 -0.565022D-03 -0.525927D-04  0.704783D-03 -0.919057D-03  0.288387D-02
     25 -0.584260D-02 -0.244328D-02  0.922383D-04 -0.129334D-01  0.116972D-01
     26 -0.262190D-03 -0.547631D-03 -0.674018D-03 -0.963439D-02  0.359124D-02
     27  0.190076D-02 -0.573982D-04 -0.150637D-03  0.354049D-02 -0.292997D-02
     28 -0.132715D-01 -0.320118D-01 -0.134288D-01  0.227873D-02 -0.587314D-02
     29 -0.962926D-02 -0.104966D-01 -0.830927D-02  0.410343D-02  0.374412D-03
     30 -0.419121D-02  0.173848D-02  0.608698D-02  0.179368D-02 -0.977739D-03
     31 -0.356126D-01  0.230123D-01 -0.104376D-01 -0.326588D-02 -0.492386D-02
     32 -0.122031D-01  0.126929D-01 -0.401811D-02 -0.132186D-02 -0.285194D-03
     33 -0.175507D-02 -0.199569D-02  0.307173D-02  0.252426D-02 -0.229343D-02
                6             7             8             9            10 
      6  0.539786D+00
      7  0.695405D-02  0.525100D+00
      8  0.517271D-02 -0.167389D-01  0.512355D+00
      9 -0.760168D-01  0.153976D-01 -0.456481D-03  0.507360D+00
     10  0.301697D-02 -0.193773D-02  0.211679D-02 -0.760052D-03  0.489644D+00
     11 -0.359725D-02  0.258180D-02 -0.357412D-02 -0.193712D-03 -0.323847D-01
     12 -0.229530D-02 -0.763233D-03 -0.808251D-04  0.144522D-02  0.632403D-01
     13 -0.359063D-01 -0.679926D-02 -0.158782D-01 -0.186161D-01  0.388650D-02
[...]
    R5        2.06687  -0.00000   0.00000  -0.00000  -0.00000   2.06687
    R6        2.05733   0.00000   0.00000   0.00000   0.00000   2.05733
    R7        2.05718   0.00000   0.00000   0.00000   0.00000   2.05718
    R8        2.05801  -0.00000   0.00000  -0.00000  -0.00000   2.05801
    R9        2.04631  -0.00000   0.00000  -0.00000  -0.00000   2.04631
   R10        2.03604  -0.00000   0.00000  -0.00000  -0.00000   2.03604
    A1        2.00732   0.00000   0.00000   0.00000   0.00000   2.00732
    A2        1.89227   0.00000   0.00000  -0.00000  -0.00000   1.89227
    A3        1.90074  -0.00000   0.00000  -0.00000  -0.00000   1.90074
    A4        1.90060  -0.00000   0.00000  -0.00000  -0.00000   1.90060
    A5        1.94044   0.00000   0.00000   0.00000   0.00000   1.94044
    A6        1.94281   0.00000   0.00000   0.00000   0.00000   1.94281
    A7        1.88628   0.00000   0.00000   0.00000   0.00000   1.88628
    A8        1.92740   0.00000   0.00000   0.00000   0.00000   1.92740
    A9        1.92593   0.00000   0.00000  -0.00000  -0.00000   1.92593
   A10        1.92293  -0.00000   0.00000  -0.00000  -0.00000   1.92293
   A11        1.89407  -0.00000   0.00000   0.00000   0.00000   1.89407
   A12        1.89663  -0.00000   0.00000  -0.00000  -0.00000   1.89663
   A13        1.89616   0.00000   0.00000   0.00000   0.00000   1.89616
   A14        2.06423  -0.00000   0.00000   0.00000   0.00000   2.06423
   A15        1.99558  -0.00000   0.00000   0.00000   0.00000   1.99558
   A16        2.11973   0.00000   0.00000   0.00000   0.00000   2.11973
    D1       -3.11860  -0.00000   0.00000  -0.00000  -0.00000  -3.11860
    D2       -1.00499   0.00000   0.00000  -0.00000  -0.00000  -1.00499
    D3        1.04818  -0.00000   0.00000  -0.00000  -0.00000   1.04818
    D4        0.40943  -0.00000   0.00000  -0.00000  -0.00000   0.40943
    D5        3.08530   0.00000   0.00000   0.00000   0.00000   3.08530
    D6        1.04690   0.00000   0.00000   0.00000   0.00000   1.04690
    D7       -1.04716   0.00000   0.00000   0.00000   0.00000  -1.04716
    D8       -3.14096   0.00000   0.00000   0.00000   0.00000  -3.14096
    D9       -1.04202   0.00000   0.00000   0.00000   0.00000  -1.04202
   D10       -3.13608   0.00000   0.00000   0.00000   0.00000  -3.13608
   D11        1.05330   0.00000   0.00000   0.00000   0.00000   1.05330
   D12        3.13709  -0.00000   0.00000   0.00000   0.00000   3.13709
   D13        1.04302  -0.00000   0.00000   0.00000   0.00000   1.04303
   D14       -1.05078  -0.00000   0.00000   0.00000   0.00000  -1.05078
   D15        2.64137   0.00000   0.00000   0.00000   0.00000   2.64138
         Item               Value     Threshold  Converged?
 Maximum Force            0.000000     0.000002     YES
 RMS     Force            0.000000     0.000001     YES
 Maximum Displacement     0.000004     0.000006     YES
 RMS     Displacement     0.000002     0.000004     YES
 Predicted change in Energy=-4.120762D-13
 Optimization completed.
    -- Stationary point found.
                           ----------------------------
                           !   Optimized Parameters   !
                           ! (Angstroms and Degrees)  !
 --------------------------                            --------------------------
 ! Name  Definition              Value          Derivative Info.                !
 --------------------------------------------------------------------------------
 ! R1    R(1,2)                  1.4187         -DE/DX =    0.0                 !
 ! R2    R(1,4)                  1.3461         -DE/DX =    0.0                 !
 ! R3    R(2,3)                  1.5099         -DE/DX =    0.0                 !
 ! R4    R(2,5)                  1.0949         -DE/DX =    0.0                 !
 ! R5    R(2,6)                  1.0937         -DE/DX =    0.0                 !
 ! R6    R(3,7)                  1.0887         -DE/DX =    0.0                 !
 ! R7    R(3,8)                  1.0886         -DE/DX =    0.0                 !
 ! R8    R(3,9)                  1.0891         -DE/DX =    0.0                 !
 ! R9    R(4,10)                 1.0829         -DE/DX =    0.0                 !
 ! R10   R(4,11)                 1.0774         -DE/DX =    0.0                 !
 ! A1    A(2,1,4)              115.011          -DE/DX =    0.0                 !
 ! A2    A(1,2,3)              108.4193         -DE/DX =    0.0                 !
 ! A3    A(1,2,5)              108.9045         -DE/DX =    0.0                 !
 ! A4    A(1,2,6)              108.8964         -DE/DX =    0.0                 !
 ! A5    A(3,2,5)              111.1788         -DE/DX =    0.0                 !
 ! A6    A(3,2,6)              111.3146         -DE/DX =    0.0                 !
 ! A7    A(5,2,6)              108.0761         -DE/DX =    0.0                 !
 ! A8    A(2,3,7)              110.4321         -DE/DX =    0.0                 !
 ! A9    A(2,3,8)              110.3475         -DE/DX =    0.0                 !
 ! A10   A(2,3,9)              110.1758         -DE/DX =    0.0                 !
 ! A11   A(7,3,8)              108.5219         -DE/DX =    0.0                 !
 ! A12   A(7,3,9)              108.6686         -DE/DX =    0.0                 !
 ! A13   A(8,3,9)              108.642          -DE/DX =    0.0                 !
 ! A14   A(1,4,10)             118.2716         -DE/DX =    0.0                 !
 ! A15   A(1,4,11)             114.3385         -DE/DX =    0.0                 !
 ! A16   A(10,4,11)            121.4514         -DE/DX =    0.0                 !
 ! D1    D(4,1,2,3)           -178.6826         -DE/DX =    0.0                 !
 ! D2    D(4,1,2,5)            -57.5816         -DE/DX =    0.0                 !
 ! D3    D(4,1,2,6)             60.0563         -DE/DX =    0.0                 !
 ! D4    D(2,1,4,10)            23.4586         -DE/DX =    0.0                 !
 ! D5    D(2,1,4,11)           176.7748         -DE/DX =    0.0                 !
 ! D6    D(1,2,3,7)             59.983          -DE/DX =    0.0                 !
 ! D7    D(1,2,3,8)            -59.9979         -DE/DX =    0.0                 !
 ! D8    D(1,2,3,9)           -179.9639         -DE/DX =    0.0                 !
 ! D9    D(5,2,3,7)            -59.7035         -DE/DX =    0.0                 !
 ! D10   D(5,2,3,8)           -179.6844         -DE/DX =    0.0                 !
 ! D11   D(5,2,3,9)             60.3496         -DE/DX =    0.0                 !
 ! D12   D(6,2,3,7)            179.7418         -DE/DX =    0.0                 !
 ! D13   D(6,2,3,8)             59.7608         -DE/DX =    0.0                 !
 ! D14   D(6,2,3,9)            -60.2051         -DE/DX =    0.0                 !
 ! D15   D(1,4,10,11)          151.3394         -DE/DX =    0.0                 !
 --------------------------------------------------------------------------------
 GradGradGradGradGradGradGradGradGradGradGradGradGradGradGradGradGradGrad

 Leave Link  103 at Thu Mar  7 02:06:13 2019, MaxMem=   104857600 cpu:               0.0 elap:               0.1
 (Enter /shared/centos7/gaussian/g16/l9999.exe)

 ----------------------------------------------------------------------

 Electric dipole moment (input orientation):
 (Debye = 10**-18 statcoulomb cm , SI units = C m)
                  (au)            (Debye)         (10**-30 SI)
   Tot        0.552232D+00      0.140363D+01      0.468202D+01
   x          0.253751D+00      0.644970D+00      0.215139D+01
   y         -0.235219D-01     -0.597867D-01     -0.199427D+00
   z         -0.489916D+00     -0.124524D+01     -0.415368D+01

 Dipole polarizability, Alpha (input orientation).
 (esu units = cm**3 , SI units = C**2 m**2 J**-1)
 Alpha(0;0):
               (au)            (10**-24 esu)      (10**-40 SI)
   iso        0.438617D+02      0.649964D+01      0.723182D+01
   aniso      0.140817D+02      0.208669D+01      0.232176D+01
   xx         0.518004D+02      0.767603D+01      0.854074D+01
   yx        -0.376981D+01     -0.558628D+00     -0.621557D+00
   yy         0.403557D+02      0.598010D+01      0.665376D+01
   zx        -0.208270D+01     -0.308624D+00     -0.343391D+00
   zy         0.258994D+00      0.383789D-01      0.427023D-01
   zz         0.394291D+02      0.584278D+01      0.650097D+01

 ----------------------------------------------------------------------

 Dipole orientation:
     8         -0.30431630          1.46101795         -2.00727699
     6          0.43771864          1.03763114          0.53400112
     6          2.90819110          2.39078912          0.98922679
     6         -2.51925065          0.40105437         -2.67178104
     1         -1.04486356          1.74498425          1.79196769
     1          0.62682157         -0.99677567          0.84602906
     1          2.69154282          4.41051182          0.66303248
     1          4.36002740          1.67574222         -0.28076850
     1          3.52988598          2.09979579          2.92939071
     1         -3.87518206         -0.01614897         -1.19706725
     1         -3.11338877          0.82095004         -4.57339536

 Electric dipole moment (dipole orientation):
 (Debye = 10**-18 statcoulomb cm , SI units = C m)
                  (au)            (Debye)         (10**-30 SI)
   Tot        0.552232D+00      0.140363D+01      0.468202D+01
   x          0.000000D+00      0.000000D+00      0.000000D+00
   y          0.000000D+00      0.000000D+00      0.000000D+00
   z          0.552232D+00      0.140363D+01      0.468202D+01

 Dipole polarizability, Alpha (dipole orientation).
 (esu units = cm**3 , SI units = C**2 m**2 J**-1)
 Alpha(0;0):
               (au)            (10**-24 esu)      (10**-40 SI)
   iso        0.438617D+02      0.649964D+01      0.723182D+01
   aniso      0.140817D+02      0.208669D+01      0.232176D+01
   xx         0.474203D+02      0.702696D+01      0.781855D+01
   yx         0.303403D+01      0.449596D+00      0.500243D+00
   yy         0.402570D+02      0.596547D+01      0.663748D+01
   zx         0.636663D+01      0.943437D+00      0.104972D+01
   zy         0.187852D+01      0.278368D+00      0.309727D+00
   zz         0.439080D+02      0.650649D+01      0.723945D+01

 ----------------------------------------------------------------------

 Test job not archived.
 1\1\GINC-C0162\Freq\UM062X\6-311+G(2df,2p)\C3H7O1(2)\UNDERKOFFLER.C\07
 -Mar-2019\0\\#P Geom=AllCheck Guess=TCheck SCRF=Check Test GenChk UM06
 2X/6-311+G(2df,2p) Freq\\Gaussian input prepared by ASE\\0,2\O,-0.6391
 214978,-0.728820504,0.9012762037\C,0.3298665785,-0.5581969044,-0.12087
 12293\C,1.5941828891,-1.2702711751,0.2966296714\C,-1.8358387877,-0.165
 6293183,0.6507681065\H,-0.0649035611,-0.9686432949,-1.0559959841\H,0.5
 057764967,0.5113345964,-0.2672303025\H,1.401963383,-2.3318715203,0.442
 6105042\H,1.9716206902,-0.855654933,1.229751971\H,2.3597229301,-1.1567
 512519,-0.4695944616\H,-2.1122113167,0.0142514639,-0.380662735\H,-2.57
 97617747,-0.3480135153,1.4085007014\\Version=EM64L-G16RevA.03\State=2-
 A\HF=-193.6538671\S2=0.754546\S2-1=0.\S2A=0.750015\RMSD=4.829e-09\RMSF
 =7.183e-07\ZeroPoint=0.0950168\Thermal=0.100606\Dipole=0.2537507,-0.02
 35219,-0.4899162\DipoleDeriv=-1.4391473,0.3866993,0.19399,0.4170848,-0
 .426734,0.0661494,0.1927801,0.0861883,-0.5725072,0.8041208,-0.0666561,
 -0.191168,0.038873,0.3589864,0.0036985,-0.3852975,0.0747513,0.5207148,
 -0.0538185,0.0472755,0.0004397,0.0622171,0.0483713,0.0026593,-0.027069
 4,0.0141036,0.0618787,0.7669196,-0.3942352,-0.0164393,-0.4406876,-0.12
 13294,-0.115996,0.1496885,-0.1877591,0.1835731,-0.063287,-0.0221775,-0
 .1033293,-0.0260589,0.0104616,-0.0683015,0.0178271,-0.0547312,-0.11952
 9,-0.0228532,0.0311229,0.0127439,-0.0656329,-0.1458275,0.0608332,0.058
 6275,-0.0212188,0.0159829,0.0374403,-0.0484672,-0.0025751,0.0048427,-0
 .0983742,0.0251368,-0.0255699,0.0252322,0.0652481,0.0334614,0.0037777,
 -0.0370431,-0.0101686,0.0266664,-0.0663666,-0.0855495,-0.0391244,-0.05
 35014,-0.0387567,0.0088342,0.068669,-0.0070348,0.0647887,0.0304138,0.0
 973242,0.0191622,-0.0273589,0.012903,0.0266834,0.0383298,0.0479584,0.1
 467035,-0.0176292,-0.0582031,0.0396576,-0.0921352,-0.0369825,0.0271428
 ,0.0363823,-0.021393,0.1362873,0.0794023,0.065442,0.0437384,0.017634\P
 olar=51.8004346,-3.769806,40.3557323,-2.0827013,0.2589936,39.429051\Qu
 adrupole=1.1963771,-1.1362126,-0.0601645,0.0798497,-0.0965018,-0.20127
 27\PG=C01 [X(C3H7O1)]\NImag=0\\0.54803132,-0.13659599,0.14580880,-0.07
 201722,-0.08820730,0.30568305,-0.13564003,-0.00442301,0.05475886,0.512
 45835,-0.01915020,-0.07466963,0.03420148,0.00884081,0.59335901,0.08741
 212,0.02320662,-0.17207285,0.05197453,0.01011245,0.54262003,-0.0368125
 1,0.01491612,-0.00003670,-0.16623026,0.05075781,-0.03559212,0.52714532
 ,-0.00416665,0.00461035,-0.00216514,0.05864980,-0.11792879,0.02054626,
 0.03490314,0.56593833,0.03562442,-0.01554818,0.00551480,-0.05012585,0.
 02585502,-0.09645890,-0.02338092,0.01020319,0.58300744,-0.30874312,0.1
 3236921,-0.01823210,-0.04810110,0.01628073,0.00235572,-0.00183333,-0.0
 0030924,0.00186864,0.59939769,0.13884301,-0.08237639,0.04064206,0.0011
 0188,-0.00200771,-0.00262907,-0.00064209,0.00018995,0.00128704,-0.1312
 1054,0.12962212,-0.05994561,0.06161649,-0.10251319,0.02803126,-0.01478
 658,0.00316361,0.00314772,0.00103162,-0.00433368,-0.07048763,-0.150201
 97,0.63379482,-0.00170201,0.01136977,0.03055209,-0.08690835,-0.0392079
 1,-0.08549125,-0.01066520,-0.01164103,-0.02423217,0.00515265,-0.001925
 00,0.00371673,0.09649031,0.00359930,0.00571978,0.00666329,-0.03915584,
 -0.09467721,-0.08449265,0.00711442,0.00705441,0.01499953,-0.00066705,0
 .00010959,-0.00098143,0.03964875,0.09336720,0.00827784,-0.00783715,-0.
 03494377,-0.08028807,-0.08109937,-0.21981787,-0.00434445,-0.00288754,-
 0.00511410,-0.00467693,0.00198432,-0.00038557,0.08105676,0.08916114,0.
 25351558,-0.01772626,-0.02364450,0.01446924,-0.05502394,-0.03432144,-0
 .00055726,0.00519700,0.02997545,-0.00339431,0.00549362,-0.00332367,0.0
 0155020,-0.00028266,-0.01294608,-0.00015158,0.06572324,-0.00510775,0.0
 0043589,0.00728761,-0.03787000,-0.29713263,0.02421942,-0.00115336,-0.0
 1353167,0.00065092,0.00049209,0.00137028,-0.00021552,-0.00139833,-0.01
 195464,0.00031413,0.04288492,0.31989842,0.01856087,0.02887332,-0.01222
 951,-0.00040203,0.01878164,-0.05378088,0.00018859,0.00956711,-0.000294
 77,-0.00366750,0.00123665,-0.00019235,-0.00451112,-0.02668844,0.004322
 68,-0.00996784,-0.03252215,0.06125930,0.00293619,-0.00163164,-0.000256
 01,0.00457826,0.03212835,-0.00430362,-0.05690567,-0.05173940,0.0066317
 5,-0.00049029,0.00001301,-0.00019268,0.00142511,-0.00084857,0.00040572
 ,-0.00494066,0.00256954,-0.00130780,0.06015575,-0.00045684,0.00139012,
 -0.00059538,-0.00287785,-0.01692601,0.00290834,-0.04929720,-0.30572275
 ,0.03355538,0.00009067,0.00028895,-0.00014875,0.00015628,0.00094382,0.
 00004013,0.00280765,0.00045257,0.00114645,0.05198712,0.33161883,-0.000
 13518,-0.00093471,0.00038999,0.00277667,0.01108975,-0.00261075,0.00540
 043,0.03325072,-0.05288703,0.00026737,-0.00024238,-0.00005086,0.000689
 28,0.00016552,-0.00005039,-0.00207551,0.00067413,0.00043915,-0.0047108
 5,-0.03882443,0.05256178,0.00298089,-0.00072557,0.00040331,-0.01218192
 ,-0.01160716,-0.02702709,-0.07781383,-0.03626902,-0.07798468,-0.000450
 62,0.00030154,-0.00003812,-0.00425715,0.00327461,-0.00091157,0.0012385
 8,-0.00021766,0.00085271,-0.00293124,-0.00194499,-0.00486991,0.0838564
 7,-0.00158634,0.00018325,-0.00032066,0.00649723,0.00700140,0.01682092,
 -0.03693275,-0.09052430,-0.09204638,0.00000695,-0.00012806,0.00020900,
 0.00363645,-0.00079246,0.00063808,-0.00097503,0.00087622,0.00029037,-0
 .00997167,-0.01089796,-0.02784800,0.03729015,0.09381228,-0.00004896,0.
 00020064,0.00142464,-0.00271657,-0.00341960,-0.00965741,-0.08019853,-0
 .09047950,-0.24724799,0.00029247,-0.00005285,0.00031464,-0.00113227,0.
 00144508,0.00087631,0.00014529,0.00031327,0.00019580,0.00236055,0.0019
 5241,0.00511720,0.08941732,0.09843574,0.26677347,-0.00691382,0.0042157
 4,-0.00236093,-0.01473958,-0.00679921,0.02165938,-0.18103204,-0.019004
 63,0.13297440,0.00015854,-0.00052187,0.00148826,0.00051376,-0.00075726
 ,-0.00054540,0.00086608,0.00044281,0.00002148,-0.00398194,-0.00038630,
 0.00269400,0.00932434,0.00209607,-0.00821074,0.19635083,0.00444579,-0.
 00127227,0.00103802,0.00823782,0.00139193,-0.01316466,-0.02019006,-0.0
 5027235,0.02169883,0.00033042,0.00055085,-0.00072491,-0.00039393,0.000
 44643,0.00013107,-0.00082928,-0.00003450,-0.00024520,-0.02248489,-0.00
 109438,0.02260884,0.01002610,0.00044300,-0.00831701,0.02051205,0.04998
 310,-0.00260271,0.00117212,0.00058939,-0.00664335,-0.00222417,0.006524
 77,0.13517101,0.02084454,-0.18327156,-0.00059426,0.00006751,0.00076363
 ,0.00061785,-0.00056058,0.00018672,0.00059828,-0.00021346,0.00028502,0
 .00122131,0.00003269,-0.00291695,0.01981703,0.00398112,-0.01775191,-0.
 14745758,-0.02316784,0.19569213,-0.01810507,0.00837136,-0.02929181,0.0
 0278519,0.00046671,-0.00594966,-0.00026431,-0.00008121,0.00048817,-0.0
 6709060,0.02144335,-0.05240383,0.00023340,0.00053595,0.00069693,-0.000
 41049,-0.00041640,0.00017508,0.00010736,-0.00012302,-0.00002325,0.0001
 7242,0.00000297,0.00013583,-0.00010478,0.00005233,0.00006761,0.0736868
 8,0.00779456,-0.00063488,0.01641657,-0.00143579,0.00031735,0.00097129,
 -0.00007573,-0.00028710,-0.00012771,0.02074592,-0.02017003,0.03768554,
 -0.00018112,-0.00010075,-0.00076249,-0.00014238,-0.00052622,-0.0001136
 4,0.00006677,-0.00005300,0.00006391,-0.00011721,0.00001473,-0.00007918
 ,0.00000852,-0.00000510,-0.00003314,-0.02729791,0.02083544,-0.00635374
 ,-0.00010993,-0.00119297,0.00332309,0.00040981,0.00162478,0.00004671,-
 0.00008576,0.00056842,-0.05735481,0.05994095,-0.32109509,-0.00113668,0
 .00003372,0.00080834,-0.00050535,-0.00036758,0.00007918,0.00010134,-0.
 00003601,-0.00000576,0.00023352,-0.00009514,-0.00006109,-0.00014259,0.
 00006660,-0.00003851,0.06923812,-0.05880565,0.32858088,-0.02830559,-0.
 00422149,0.02201127,-0.00099661,0.00261152,-0.00448074,-0.00078517,-0.
 00031721,0.00153056,-0.18349343,-0.02407961,0.14513371,0.00000016,0.00
 020176,0.00048073,-0.00013450,-0.00022587,0.00005756,0.00004713,0.0000
 4448,-0.00001305,0.00006207,-0.00006403,-0.00004439,-0.00044139,0.0002
 9366,-0.00019517,0.00899000,0.00063437,-0.00744961,0.20505733,0.012381
 10,0.00080499,-0.01496055,0.00243495,0.00127230,0.00150109,0.00059971,
 0.00047391,-0.00052766,-0.03812917,-0.02744954,0.06651652,-0.00006393,
 -0.00011618,0.00031768,0.00051437,0.00014627,-0.00032611,-0.00008862,-
 0.00000018,-0.00000335,-0.00001078,0.00001190,0.00000101,0.00019409,-0
 .00013672,0.00010123,-0.00295414,0.00060956,-0.00095100,0.02512242,0.0
 2438369,-0.00877185,-0.00243190,0.00935043,-0.00068854,0.00107958,0.00
 046548,-0.00040173,0.00017451,0.00051737,0.15022902,0.04796775,-0.2094
 6597,-0.00012923,0.00025481,0.00060208,-0.00011116,-0.00014076,-0.0000
 8363,0.00005030,-0.00003083,0.00001361,0.00010750,-0.00006505,0.000016
 32,-0.00012026,0.00007626,-0.00006273,0.01686682,0.00478450,-0.0092681
 8,-0.15703087,-0.05166886,0.20791523\\-0.00000049,-0.00000068,-0.00000
 051,0.00000004,0.00000039,0.00000047,-0.00000002,-0.00000005,0.0000004
 0,0.00000002,-0.00000047,-0.00000058,0.00000085,0.00000133,-0.00000039
 ,0.00000032,0.00000054,0.00000148,-0.00000010,-0.00000013,-0.00000081,
 -0.00000063,-0.00000096,0.00000102,0.00000049,0.00000077,0.00000096,0.
 00000031,0.00000056,-0.00000069,-0.00000079,-0.00000129,-0.00000134\\\
 @


 AND THIS OUR LIFE, EXEMPT FROM PUBLIC HAUNT,
 FINDS TONGUES IN TREES, BOOKS IN THE RUNNING BROOKS,
 SERMONS IN STONES, AND GOOD IN EVERYTHING.
 I WOULD NOT CHANGE IT. -- W. SHAKESPEARE
 AS YOU LIKE IT, ACT II, SCENE 1.
 Job cpu time:       0 days  0 hours 38 minutes  9.1 seconds.
 Elapsed time:       0 days  0 hours 38 minutes  8.9 seconds.
 File lengths (MBytes):  RWF=   1312 Int=      0 D2E=      0 Chk=     32 Scr=     32
 Normal termination of Gaussian 16 at Thu Mar  7 02:06:13 2019.
