 Entering Gaussian System, Link 0=g16
 Input=TVFRQKHUZDMLDB-UHFFFAOYSA-N_GeoFreq_a1.com
 Output=TVFRQKHUZDMLDB-UHFFFAOYSA-N_GeoFreq_a1.log
 Initial command:
 /shared/centos7/gaussian/g16/l1.exe "/scratch/underkoffler.c/gaussian_scratch/Gau-4418.inp" -scrdir="/scratch/underkoffler.c/gaussian_scratch/"
 Entering Link 1 = /shared/centos7/gaussian/g16/l1.exe PID=      4419.
  
 Copyright (c) 1988,1990,1992,1993,1995,1998,2003,2009,2016,
            Gaussian, Inc.  All Rights Reserved.
  
 This is part of the Gaussian(R) 16 program.  It is based on
 the Gaussian(R) 09 system (copyright 2009, Gaussian, Inc.),
 the Gaussian(R) 03 system (copyright 2003, Gaussian, Inc.),
 the Gaussian(R) 98 system (copyright 1998, Gaussian, Inc.),
 the Gaussian(R) 94 system (copyright 1995, Gaussian, Inc.),
 the Gaussian 92(TM) system (copyright 1992, Gaussian, Inc.),
 the Gaussian 90(TM) system (copyright 1990, Gaussian, Inc.),
 the Gaussian 88(TM) system (copyright 1988, Gaussian, Inc.),
 the Gaussian 86(TM) system (copyright 1986, Carnegie Mellon
 University), and the Gaussian 82(TM) system (copyright 1983,
 Carnegie Mellon University). Gaussian is a federally registered
 trademark of Gaussian, Inc.
  
 This software contains proprietary and confidential information,
 including trade secrets, belonging to Gaussian, Inc.
  
 This software is provided under written license and may be
 used, copied, transmitted, or stored only in accord with that
 written license.
  
 The following legend is applicable only to US Government
 contracts under FAR:
  
                    RESTRICTED RIGHTS LEGEND
  
 Use, reproduction and disclosure by the US Government is
 subject to restrictions as set forth in subparagraphs (a)
 and (c) of the Commercial Computer Software - Restricted
 Rights clause in FAR 52.227-19.
  
 Gaussian, Inc.
 340 Quinnipiac St., Bldg. 40, Wallingford CT 06492
  
  
 ---------------------------------------------------------------
 Warning -- This program may not be used in any manner that
 competes with the business of Gaussian, Inc. or will provide
 assistance to any competitor of Gaussian, Inc.  The licensee
 of this program is prohibited from giving any competitor of
 Gaussian, Inc. access to this program.  By using this program,
 the user acknowledges that Gaussian, Inc. is engaged in the
 business of creating and licensing software in the field of
 computational chemistry and represents and warrants to the
 licensee that it is not a competitor of Gaussian, Inc. and that
 it will not use this program in any manner prohibited above.
 ---------------------------------------------------------------
  

 Cite this work as:
 Gaussian 16, Revision A.03,
 M. J. Frisch, G. W. Trucks, H. B. Schlegel, G. E. Scuseria, 
 M. A. Robb, J. R. Cheeseman, G. Scalmani, V. Barone, 
 G. A. Petersson, H. Nakatsuji, X. Li, M. Caricato, A. V. Marenich, 
 J. Bloino, B. G. Janesko, R. Gomperts, B. Mennucci, H. P. Hratchian, 
 J. V. Ortiz, A. F. Izmaylov, J. L. Sonnenberg, D. Williams-Young, 
 F. Ding, F. Lipparini, F. Egidi, J. Goings, B. Peng, A. Petrone, 
 T. Henderson, D. Ranasinghe, V. G. Zakrzewski, J. Gao, N. Rega, 
 G. Zheng, W. Liang, M. Hada, M. Ehara, K. Toyota, R. Fukuda, 
 J. Hasegawa, M. Ishida, T. Nakajima, Y. Honda, O. Kitao, H. Nakai, 
 T. Vreven, K. Throssell, J. A. Montgomery, Jr., J. E. Peralta, 
 F. Ogliaro, M. J. Bearpark, J. J. Heyd, E. N. Brothers, K. N. Kudin, 
 V. N. Staroverov, T. A. Keith, R. Kobayashi, J. Normand, 
 K. Raghavachari, A. P. Rendell, J. C. Burant, S. S. Iyengar, 
 J. Tomasi, M. Cossi, J. M. Millam, M. Klene, C. Adamo, R. Cammi, 
 J. W. Ochterski, R. L. Martin, K. Morokuma, O. Farkas, 
 J. B. Foresman, and D. J. Fox, Gaussian, Inc., Wallingford CT, 2016.
 
 ******************************************
 Gaussian 16:  EM64L-G16RevA.03 25-Dec-2016
                 9-Mar-2019 
 ******************************************
 %nprocshared=20
 Will use up to   20 processors via shared memory.
 %mem=5GB
 ----------------------------------------------------------------------
 #p m062x/6-311+g(2df,2p) opt=(calcfc,verytight,gdiis,maxcycles=900) fr
 eq iop(7/33=1,2/16=3)
 ----------------------------------------------------------------------

 Warning!  Use of Opt=GDIIS is deprecated since it is seldom a good choice.

 1/6=900,7=1,10=4,18=20,19=11,26=3,38=1/1,3;
 2/9=110,12=2,16=3,17=6,18=5,40=1/2;
 3/5=4,6=6,7=214,11=2,25=1,30=1,71=2,74=-55,140=1/1,2,3;
 4//1;
 5/5=2,38=5/2;
 8/6=4,10=90,11=11/1;
 11/6=1,8=1,9=11,15=111,16=1/1,2,10;
 10/6=1,13=1/2;
 6/7=2,8=2,9=2,10=2,28=1/1;
 7/10=1,18=20,25=1,33=1/1,2,3,16;
 1/6=900,7=1,10=4,18=20,19=11,26=3/3(2);
 2/9=110,16=3/2;
 99//99;
 2/9=110,16=3/2;
 3/5=4,6=6,7=214,11=2,25=1,30=1,71=1,74=-55/1,2,3;
 4/5=5,16=3,69=1/1;
 5/5=2,38=5/2;
 7/33=1/1,2,3,16;
 1/6=900,7=1,18=20,19=11,26=3/3(-5);
 2/9=110,16=3/2;
 6/7=2,8=2,9=2,10=2,19=2,28=1/1;
 99/9=1/99;
 Leave Link    1 at Sat Mar  9 01:31:51 2019, MaxMem=   671088640 cpu:              26.5 elap:               1.4
 (Enter /shared/centos7/gaussian/g16/l101.exe)
 ------------------------------
 Gaussian input prepared by ASE
 ------------------------------
 Symbolic Z-matrix:
 Charge =  0 Multiplicity = 2
 O                     0.43949  -0.26497   1.01165 
 C                    -0.03514   0.69796   0.01198 
 C                    -0.07728   0.13304  -1.3798 
 C                     1.752    -0.70082   0.70945 
 H                    -1.05442   1.01276   0.35711 
 H                     0.63296   1.60438   0.04905 
 H                     0.88142  -0.40896  -1.60012 
 H                    -0.20408   0.95259  -2.13083 
 H                    -0.92303  -0.58912  -1.50283 
 H                     1.92122  -0.76938  -0.40218 
 H                     1.95425  -1.65066   1.26467 
 
 Add atom      4 valence  3 ND=      2 dihedral       1      4     10     11
 ITRead=  0  0  0  0  0  0  0  0  0  0  0
 MicOpt= -1 -1 -1 -1 -1 -1 -1 -1 -1 -1 -1
 NAtoms=     11 NQM=       11 NQMF=       0 NMMI=      0 NMMIF=      0
                NMic=       0 NMicF=      0.
                    Isotopes and Nuclear Properties:
 (Nuclear quadrupole moments (NQMom) in fm**2, nuclear magnetic moments (NMagM)
  in nuclear magnetons)

  Atom         1           2           3           4           5           6           7           8           9          10
 IAtWgt=          16          12          12          12           1           1           1           1           1           1
 AtmWgt=  15.9949146  12.0000000  12.0000000  12.0000000   1.0078250   1.0078250   1.0078250   1.0078250   1.0078250   1.0078250
 NucSpn=           0           0           0           0           1           1           1           1           1           1
 AtZEff=  -0.0000000  -0.0000000  -0.0000000  -0.0000000  -0.0000000  -0.0000000  -0.0000000  -0.0000000  -0.0000000  -0.0000000
 NQMom=    0.0000000   0.0000000   0.0000000   0.0000000   0.0000000   0.0000000   0.0000000   0.0000000   0.0000000   0.0000000
 NMagM=    0.0000000   0.0000000   0.0000000   0.0000000   2.7928460   2.7928460   2.7928460   2.7928460   2.7928460   2.7928460
 AtZNuc=   8.0000000   6.0000000   6.0000000   6.0000000   1.0000000   1.0000000   1.0000000   1.0000000   1.0000000   1.0000000

  Atom        11
 IAtWgt=           1
 AtmWgt=   1.0078250
 NucSpn=           1
 AtZEff=  -0.0000000
 NQMom=    0.0000000
 NMagM=    2.7928460
 AtZNuc=   1.0000000
 Leave Link  101 at Sat Mar  9 01:31:52 2019, MaxMem=   671088640 cpu:               6.3 elap:               0.3
 (Enter /shared/centos7/gaussian/g16/l103.exe)

 GradGradGradGradGradGradGradGradGradGradGradGradGradGradGradGradGradGrad
 Berny optimization.
 Initialization pass.
                           ----------------------------
                           !    Initial Parameters    !
                           ! (Angstroms and Degrees)  !
 --------------------------                            --------------------------
 ! Name  Definition              Value          Derivative Info.                !
 --------------------------------------------------------------------------------
 ! R1    R(1,2)                  1.4669         calculate D2E/DX2 analytically  !
 ! R2    R(1,4)                  1.4156         calculate D2E/DX2 analytically  !
 ! R3    R(2,3)                  1.5026         calculate D2E/DX2 analytically  !
 ! R4    R(2,5)                  1.1212         calculate D2E/DX2 analytically  !
 ! R5    R(2,6)                  1.1266         calculate D2E/DX2 analytically  !
 ! R6    R(3,7)                  1.1231         calculate D2E/DX2 analytically  !
 ! R7    R(3,8)                  1.1188         calculate D2E/DX2 analytically  !
 ! R8    R(3,9)                  1.1189         calculate D2E/DX2 analytically  !
 ! R9    R(4,10)                 1.1265         calculate D2E/DX2 analytically  !
 ! R10   R(4,11)                 1.1186         calculate D2E/DX2 analytically  !
 ! A1    A(2,1,4)              110.8928         calculate D2E/DX2 analytically  !
 ! A2    A(1,2,3)              113.1717         calculate D2E/DX2 analytically  !
 ! A3    A(1,2,5)              105.585          calculate D2E/DX2 analytically  !
 ! A4    A(1,2,6)              108.2902         calculate D2E/DX2 analytically  !
 ! A5    A(3,2,5)              111.4176         calculate D2E/DX2 analytically  !
 ! A6    A(3,2,6)              110.4611         calculate D2E/DX2 analytically  !
 ! A7    A(5,2,6)              107.6416         calculate D2E/DX2 analytically  !
 ! A8    A(2,3,7)              109.8269         calculate D2E/DX2 analytically  !
 ! A9    A(2,3,8)              110.4585         calculate D2E/DX2 analytically  !
 ! A10   A(2,3,9)              111.4499         calculate D2E/DX2 analytically  !
 ! A11   A(7,3,8)              108.5753         calculate D2E/DX2 analytically  !
 ! A12   A(7,3,9)              108.1904         calculate D2E/DX2 analytically  !
 ! A13   A(8,3,9)              108.2582         calculate D2E/DX2 analytically  !
 ! A14   A(1,4,10)             111.6332         calculate D2E/DX2 analytically  !
 ! A15   A(1,4,11)             108.851          calculate D2E/DX2 analytically  !
 ! A16   A(10,4,11)            114.2637         calculate D2E/DX2 analytically  !
 ! D1    D(4,1,2,3)             60.1268         calculate D2E/DX2 analytically  !
 ! D2    D(4,1,2,5)           -177.7494         calculate D2E/DX2 analytically  !
 ! D3    D(4,1,2,6)            -62.6896         calculate D2E/DX2 analytically  !
 ! D4    D(2,1,4,10)           -34.5371         calculate D2E/DX2 analytically  !
 ! D5    D(2,1,4,11)          -161.589          calculate D2E/DX2 analytically  !
 ! D6    D(1,2,3,7)            -46.734          calculate D2E/DX2 analytically  !
 ! D7    D(1,2,3,8)           -166.4648         calculate D2E/DX2 analytically  !
 ! D8    D(1,2,3,9)             73.1473         calculate D2E/DX2 analytically  !
 ! D9    D(5,2,3,7)           -165.5377         calculate D2E/DX2 analytically  !
 ! D10   D(5,2,3,8)             74.7314         calculate D2E/DX2 analytically  !
 ! D11   D(5,2,3,9)            -45.6565         calculate D2E/DX2 analytically  !
 ! D12   D(6,2,3,7)             74.8705         calculate D2E/DX2 analytically  !
 ! D13   D(6,2,3,8)            -44.8604         calculate D2E/DX2 analytically  !
 ! D14   D(6,2,3,9)           -165.2483         calculate D2E/DX2 analytically  !
 ! D15   D(1,4,10,11)         -124.0586         calculate D2E/DX2 analytically  !
 --------------------------------------------------------------------------------
 Trust Radius=3.00D-01 FncErr=1.00D-07 GrdErr=1.00D-06 EigMax=2.50D+02 EigMin=1.00D-04
 Number of steps in this run=    100 maximum allowed number of steps=    100.
 GradGradGradGradGradGradGradGradGradGradGradGradGradGradGradGradGradGrad

 Leave Link  103 at Sat Mar  9 01:31:52 2019, MaxMem=   671088640 cpu:               0.2 elap:               0.0
 (Enter /shared/centos7/gaussian/g16/l202.exe)
                          Input orientation:                          
 ---------------------------------------------------------------------
 Center     Atomic      Atomic             Coordinates (Angstroms)
 Number     Number       Type             X           Y           Z
 ---------------------------------------------------------------------
      1          8           0        0.439494   -0.264973    1.011648
      2          6           0       -0.035138    0.697955    0.011977
      3          6           0       -0.077283    0.133039   -1.379800
      4          6           0        1.752000   -0.700825    0.709452
      5          1           0       -1.054421    1.012756    0.357114
      6          1           0        0.632956    1.604383    0.049049
      7          1           0        0.881415   -0.408957   -1.600124
      8          1           0       -0.204082    0.952594   -2.130831
      9          1           0       -0.923031   -0.589123   -1.502831
     10          1           0        1.921222   -0.769382   -0.402182
     11          1           0        1.954255   -1.650662    1.264671
 ---------------------------------------------------------------------
                    Distance matrix (angstroms):
                    1          2          3          4          5
     1  O    0.000000
     2  C    1.466918   0.000000
     3  C    2.478809   1.502647   0.000000
     4  C    1.415613   2.374219   2.899410   0.000000
     5  H    2.071905   1.121230   2.178433   3.307038   0.000000
     6  H    2.111520   1.126647   2.170460   2.646200   1.814433
     7  H    2.652805   2.159674   1.123123   2.485406   3.098307
     8  H    3.431011   2.164489   1.118837   3.824560   2.629937
     9  H    2.878221   2.177055   1.118904   3.473106   2.458186
    10  H    2.109232   2.480313   2.400859   1.126528   3.550634
    11  H    2.068491   3.323090   3.781794   1.118645   4.119416
                    6          7          8          9         10
     6  H    0.000000
     7  H    2.614390   0.000000
     8  H    2.424322   1.820378   0.000000
     9  H    3.104979   1.816026   1.813329   0.000000
    10  H    2.738247   1.626705   3.235792   3.055110   0.000000
    11  H    3.717376   3.301494   4.792160   4.130945   1.885774
                   11
    11  H    0.000000
 Stoichiometry    C3H7O(2)
 Framework group  C1[X(C3H7O)]
 Deg. of freedom    27
 Full point group                 C1      NOp   1
 Largest Abelian subgroup         C1      NOp   1
 Largest concise Abelian subgroup C1      NOp   1
                         Standard orientation:                         
 ---------------------------------------------------------------------
 Center     Atomic      Atomic             Coordinates (Angstroms)
 Number     Number       Type             X           Y           Z
 ---------------------------------------------------------------------
      1          8           0        0.788416   -0.600108   -0.295230
      2          6           0       -0.581403   -0.661806    0.225959
      3          6           0       -1.403123    0.545849   -0.126597
      4          6           0        1.475176    0.524525    0.221994
      5          1           0       -1.024905   -1.598151   -0.202669
      6          1           0       -0.528855   -0.789676    1.344092
      7          1           0       -0.814681    1.480180    0.078749
      8          1           0       -2.340067    0.573256    0.484288
      9          1           0       -1.689744    0.544195   -1.208165
     10          1           0        0.785050    1.403575    0.363635
     11          1           0        2.361979    0.736077   -0.426229
 ---------------------------------------------------------------------
 Rotational constants (GHZ):          15.3053490           5.8163042           4.7400938
 Leave Link  202 at Sat Mar  9 01:31:52 2019, MaxMem=   671088640 cpu:               0.2 elap:               0.0
 (Enter /shared/centos7/gaussian/g16/l301.exe)
 Standard basis: 6-311+G(2df,2p) (5D, 7F)
 Ernie: Thresh=  0.10000D-02 Tol=  0.10000D-05 Strict=F.
 There are   219 symmetry adapted cartesian basis functions of A   symmetry.
 There are   199 symmetry adapted basis functions of A   symmetry.
   199 basis functions,   285 primitive gaussians,   219 cartesian basis functions
    17 alpha electrons       16 beta electrons
       nuclear repulsion energy       126.1832228824 Hartrees.
 IExCor= 4336 DFT=T Ex+Corr=M062X ExCW=0 ScaHFX=  0.540000
 ScaDFX=  1.000000  1.000000  1.000000  1.000000 ScalE2=  1.000000  1.000000
 IRadAn=      5 IRanWt=     -1 IRanGd=            0 ICorTp=0 IEmpDi=  4
 NAtoms=   11 NActive=   11 NUniq=   11 SFac= 1.00D+00 NAtFMM=   60 NAOKFM=F Big=F
 Integral buffers will be    131072 words long.
 Raffenetti 2 integral format.
 Two-electron integral symmetry is turned on.
 Leave Link  301 at Sat Mar  9 01:31:52 2019, MaxMem=   671088640 cpu:               1.3 elap:               0.1
 (Enter /shared/centos7/gaussian/g16/l302.exe)
 NPDir=0 NMtPBC=     1 NCelOv=     1 NCel=       1 NClECP=     1 NCelD=      1
         NCelK=      1 NCelE2=     1 NClLst=     1 CellRange=     0.0.
 One-electron integrals computed using PRISM.
 One-electron integral symmetry used in STVInt
 NBasis=   199 RedAO= T EigKep=  8.65D-05  NBF=   199
 NBsUse=   199 1.00D-06 EigRej= -1.00D+00 NBFU=   199
 Precomputing XC quadrature grid using
 IXCGrd= 4 IRadAn=           5 IRanWt=          -1 IRanGd=           0 AccXCQ= 0.00D+00.
 Generated NRdTot=       0 NPtTot=           0 NUsed=           0 NTot=          32
 NSgBfM=   219   219   219   219   219 MxSgAt=    11 MxSgA2=    11.
 Leave Link  302 at Sat Mar  9 01:31:52 2019, MaxMem=   671088640 cpu:               5.4 elap:               0.3
 (Enter /shared/centos7/gaussian/g16/l303.exe)
 DipDrv:  MaxL=1.
 Leave Link  303 at Sat Mar  9 01:31:52 2019, MaxMem=   671088640 cpu:               0.5 elap:               0.1
 (Enter /shared/centos7/gaussian/g16/l401.exe)
 ExpMin= 4.38D-02 ExpMax= 8.59D+03 ExpMxC= 1.30D+03 IAcc=3 IRadAn=         5 AccDes= 0.00D+00
 Harris functional with IExCor= 1009 and IRadAn=       5 diagonalized for initial guess.
 HarFok:  IExCor= 1009 AccDes= 0.00D+00 IRadAn=         5 IDoV= 1 UseB2=F ITyADJ=14
 ICtDFT=  3500011 ScaDFX=  1.000000  1.000000  1.000000  1.000000
 FoFCou: FMM=F IPFlag=           0 FMFlag=      100000 FMFlg1=           0
         NFxFlg=           0 DoJE=T BraDBF=F KetDBF=T FulRan=T
         wScrn=  0.000000 ICntrl=       500 IOpCl=  0 I1Cent=   200000004 NGrid=           0
         NMat0=    1 NMatS0=      1 NMatT0=    0 NMatD0=    1 NMtDS0=    0 NMtDT0=    0
 Petite list used in FoFCou.
 Harris En= -193.542233708752    
 JPrj=0 DoOrth=F DoCkMO=F.
 Initial guess <Sx>= 0.0000 <Sy>= 0.0000 <Sz>= 0.5000 <S**2>= 0.7500 S= 0.5000
 Leave Link  401 at Sat Mar  9 01:31:53 2019, MaxMem=   671088640 cpu:              14.5 elap:               0.8
 (Enter /shared/centos7/gaussian/g16/l502.exe)
 Keep R1 and R2 ints in memory in canonical form, NReq=416958841.
 FoFCou: FMM=F IPFlag=           0 FMFlag=           0 FMFlg1=           0
         NFxFlg=           0 DoJE=F BraDBF=F KetDBF=F FulRan=T
         wScrn=  0.000000 ICntrl=       600 IOpCl=  0 I1Cent=           0 NGrid=           0
         NMat0=    1 NMatS0=  19900 NMatT0=    0 NMatD0=    1 NMtDS0=    0 NMtDT0=    0
 Symmetry not used in FoFCou.
 Two-electron integral symmetry not used.
 UHF open shell SCF:
 Using DIIS extrapolation, IDIIS=  1040.
 NGot=   671088640 LenX=   274956345 LenY=   274907943
 Requested convergence on RMS density matrix=1.00D-08 within 128 cycles.
 Requested convergence on MAX density matrix=1.00D-06.
 Requested convergence on             energy=1.00D-06.
 No special actions if energy rises.

 Cycle   1  Pass 1  IDiag  1:
 E= -193.523628658910    
 DIIS: error= 2.09D-02 at cycle   1 NSaved=   1.
 NSaved= 1 IEnMin= 1 EnMin= -193.523628658910     IErMin= 1 ErrMin= 2.09D-02
 ErrMax= 2.09D-02  0.00D+00 EMaxC= 1.00D-01 BMatC= 5.27D-01 BMatP= 5.27D-01
 IDIUse=3 WtCom= 7.91D-01 WtEn= 2.09D-01
 Coeff-Com:  0.100D+01
 Coeff-En:   0.100D+01
 Coeff:      0.100D+01
 Gap=     0.276 Goal=   None    Shift=    0.000
 Gap=     0.357 Goal=   None    Shift=    0.000
 GapD=    0.276 DampG=1.000 DampE=0.500 DampFc=0.5000 IDamp=-1.
 Damping current iteration by 5.00D-01
 RMSDP=2.19D-03 MaxDP=1.06D-01              OVMax= 1.37D-01

 Cycle   2  Pass 1  IDiag  1:
 E= -193.580411174420     Delta-E=       -0.056782515510 Rises=F Damp=T
 DIIS: error= 6.77D-03 at cycle   2 NSaved=   2.
 NSaved= 2 IEnMin= 2 EnMin= -193.580411174420     IErMin= 2 ErrMin= 6.77D-03
 ErrMax= 6.77D-03  0.00D+00 EMaxC= 1.00D-01 BMatC= 4.60D-02 BMatP= 5.27D-01
 IDIUse=3 WtCom= 9.32D-01 WtEn= 6.77D-02
 Coeff-Com: -0.181D+00 0.118D+01
 Coeff-En:   0.000D+00 0.100D+01
 Coeff:     -0.169D+00 0.117D+01
 Gap=     0.276 Goal=   None    Shift=    0.000
 Gap=     0.365 Goal=   None    Shift=    0.000
 RMSDP=7.90D-04 MaxDP=3.89D-02 DE=-5.68D-02 OVMax= 6.71D-02

 Cycle   3  Pass 1  IDiag  1:
 E= -193.631849696395     Delta-E=       -0.051438521975 Rises=F Damp=F
 DIIS: error= 2.73D-03 at cycle   3 NSaved=   3.
 NSaved= 3 IEnMin= 3 EnMin= -193.631849696395     IErMin= 3 ErrMin= 2.73D-03
 ErrMax= 2.73D-03  0.00D+00 EMaxC= 1.00D-01 BMatC= 4.93D-03 BMatP= 4.60D-02
 IDIUse=3 WtCom= 9.73D-01 WtEn= 2.73D-02
 Coeff-Com: -0.913D-01 0.264D+00 0.827D+00
 Coeff-En:   0.000D+00 0.000D+00 0.100D+01
 Coeff:     -0.888D-01 0.257D+00 0.832D+00
 Gap=     0.279 Goal=   None    Shift=    0.000
 Gap=     0.342 Goal=   None    Shift=    0.000
 RMSDP=1.72D-04 MaxDP=5.87D-03 DE=-5.14D-02 OVMax= 1.20D-02

 Cycle   4  Pass 1  IDiag  1:
 E= -193.633171443639     Delta-E=       -0.001321747245 Rises=F Damp=F
 DIIS: error= 8.24D-04 at cycle   4 NSaved=   4.
 NSaved= 4 IEnMin= 4 EnMin= -193.633171443639     IErMin= 4 ErrMin= 8.24D-04
 ErrMax= 8.24D-04  0.00D+00 EMaxC= 1.00D-01 BMatC= 4.62D-04 BMatP= 4.93D-03
 IDIUse=3 WtCom= 9.92D-01 WtEn= 8.24D-03
 Coeff-Com: -0.151D-01 0.256D-01 0.231D+00 0.759D+00
 Coeff-En:   0.000D+00 0.000D+00 0.000D+00 0.100D+01
 Coeff:     -0.150D-01 0.254D-01 0.229D+00 0.761D+00
 Gap=     0.277 Goal=   None    Shift=    0.000
 Gap=     0.345 Goal=   None    Shift=    0.000
 RMSDP=5.55D-05 MaxDP=3.72D-03 DE=-1.32D-03 OVMax= 1.20D-02

 Cycle   5  Pass 1  IDiag  1:
 E= -193.633375671649     Delta-E=       -0.000204228010 Rises=F Damp=F
 DIIS: error= 3.40D-04 at cycle   5 NSaved=   5.
 NSaved= 5 IEnMin= 5 EnMin= -193.633375671649     IErMin= 5 ErrMin= 3.40D-04
 ErrMax= 3.40D-04  0.00D+00 EMaxC= 1.00D-01 BMatC= 1.33D-04 BMatP= 4.62D-04
 IDIUse=3 WtCom= 9.97D-01 WtEn= 3.40D-03
 Coeff-Com:  0.792D-02-0.281D-01-0.426D-01 0.235D+00 0.827D+00
 Coeff-En:   0.000D+00 0.000D+00 0.000D+00 0.000D+00 0.100D+01
 Coeff:      0.789D-02-0.280D-01-0.424D-01 0.235D+00 0.828D+00
 Gap=     0.280 Goal=   None    Shift=    0.000
 Gap=     0.345 Goal=   None    Shift=    0.000
 RMSDP=4.91D-05 MaxDP=2.22D-03 DE=-2.04D-04 OVMax= 6.29D-03

 Cycle   6  Pass 1  IDiag  1:
 E= -193.633456828820     Delta-E=       -0.000081157171 Rises=F Damp=F
 DIIS: error= 1.65D-04 at cycle   6 NSaved=   6.
 NSaved= 6 IEnMin= 6 EnMin= -193.633456828820     IErMin= 6 ErrMin= 1.65D-04
 ErrMax= 1.65D-04  0.00D+00 EMaxC= 1.00D-01 BMatC= 2.71D-05 BMatP= 1.33D-04
 IDIUse=3 WtCom= 9.98D-01 WtEn= 1.65D-03
 Coeff-Com:  0.685D-02-0.134D-01-0.923D-01-0.198D+00 0.103D+00 0.119D+01
 Coeff-En:   0.000D+00 0.000D+00 0.000D+00 0.000D+00 0.000D+00 0.100D+01
 Coeff:      0.684D-02-0.134D-01-0.922D-01-0.197D+00 0.103D+00 0.119D+01
 Gap=     0.281 Goal=   None    Shift=    0.000
 Gap=     0.346 Goal=   None    Shift=    0.000
 RMSDP=4.51D-05 MaxDP=2.08D-03 DE=-8.12D-05 OVMax= 8.61D-03

 Cycle   7  Pass 1  IDiag  1:
 E= -193.633493596773     Delta-E=       -0.000036767952 Rises=F Damp=F
 DIIS: error= 1.26D-04 at cycle   7 NSaved=   7.
 NSaved= 7 IEnMin= 7 EnMin= -193.633493596773     IErMin= 7 ErrMin= 1.26D-04
 ErrMax= 1.26D-04  0.00D+00 EMaxC= 1.00D-01 BMatC= 1.36D-05 BMatP= 2.71D-05
 IDIUse=3 WtCom= 9.99D-01 WtEn= 1.26D-03
 Coeff-Com:  0.181D-02-0.215D-02-0.394D-01-0.143D+00-0.119D+00 0.641D+00
 Coeff-Com:  0.661D+00
 Coeff-En:   0.000D+00 0.000D+00 0.000D+00 0.000D+00 0.000D+00 0.000D+00
 Coeff-En:   0.100D+01
 Coeff:      0.181D-02-0.215D-02-0.394D-01-0.143D+00-0.119D+00 0.641D+00
 Coeff:      0.662D+00
 Gap=     0.280 Goal=   None    Shift=    0.000
 Gap=     0.346 Goal=   None    Shift=    0.000
 RMSDP=1.40D-05 MaxDP=4.62D-04 DE=-3.68D-05 OVMax= 2.12D-03

 Cycle   8  Pass 1  IDiag  1:
 E= -193.633498851727     Delta-E=       -0.000005254954 Rises=F Damp=F
 DIIS: error= 3.66D-05 at cycle   8 NSaved=   8.
 NSaved= 8 IEnMin= 8 EnMin= -193.633498851727     IErMin= 8 ErrMin= 3.66D-05
 ErrMax= 3.66D-05  0.00D+00 EMaxC= 1.00D-01 BMatC= 1.32D-06 BMatP= 1.36D-05
 IDIUse=1 WtCom= 1.00D+00 WtEn= 0.00D+00
 Coeff-Com: -0.195D-02 0.446D-02 0.193D-01 0.274D-01-0.690D-01-0.161D+00
 Coeff-Com:  0.179D+00 0.100D+01
 Coeff:     -0.195D-02 0.446D-02 0.193D-01 0.274D-01-0.690D-01-0.161D+00
 Coeff:      0.179D+00 0.100D+01
 Gap=     0.281 Goal=   None    Shift=    0.000
 Gap=     0.346 Goal=   None    Shift=    0.000
 RMSDP=5.81D-06 MaxDP=2.38D-04 DE=-5.25D-06 OVMax= 1.01D-03

 Cycle   9  Pass 1  IDiag  1:
 E= -193.633499604870     Delta-E=       -0.000000753143 Rises=F Damp=F
 DIIS: error= 1.02D-05 at cycle   9 NSaved=   9.
 NSaved= 9 IEnMin= 9 EnMin= -193.633499604870     IErMin= 9 ErrMin= 1.02D-05
 ErrMax= 1.02D-05  0.00D+00 EMaxC= 1.00D-01 BMatC= 1.23D-07 BMatP= 1.32D-06
 IDIUse=1 WtCom= 1.00D+00 WtEn= 0.00D+00
 Coeff-Com: -0.569D-03 0.111D-02 0.863D-02 0.227D-01-0.454D-02-0.107D+00
 Coeff-Com: -0.414D-01 0.219D+00 0.902D+00
 Coeff:     -0.569D-03 0.111D-02 0.863D-02 0.227D-01-0.454D-02-0.107D+00
 Coeff:     -0.414D-01 0.219D+00 0.902D+00
 Gap=     0.281 Goal=   None    Shift=    0.000
 Gap=     0.346 Goal=   None    Shift=    0.000
 RMSDP=1.65D-06 MaxDP=6.79D-05 DE=-7.53D-07 OVMax= 2.44D-04

 Cycle  10  Pass 1  IDiag  1:
 E= -193.633499671064     Delta-E=       -0.000000066195 Rises=F Damp=F
 DIIS: error= 2.86D-06 at cycle  10 NSaved=  10.
 NSaved=10 IEnMin=10 EnMin= -193.633499671064     IErMin=10 ErrMin= 2.86D-06
 ErrMax= 2.86D-06  0.00D+00 EMaxC= 1.00D-01 BMatC= 1.34D-08 BMatP= 1.23D-07
 IDIUse=1 WtCom= 1.00D+00 WtEn= 0.00D+00
 Coeff-Com:  0.152D-03-0.340D-03-0.765D-03 0.465D-03 0.457D-02 0.547D-02
 Coeff-Com: -0.274D-01-0.673D-01 0.108D+00 0.977D+00
 Coeff:      0.152D-03-0.340D-03-0.765D-03 0.465D-03 0.457D-02 0.547D-02
 Coeff:     -0.274D-01-0.673D-01 0.108D+00 0.977D+00
 Gap=     0.281 Goal=   None    Shift=    0.000
 Gap=     0.346 Goal=   None    Shift=    0.000
 RMSDP=5.78D-07 MaxDP=2.64D-05 DE=-6.62D-08 OVMax= 5.23D-05

 Cycle  11  Pass 1  IDiag  1:
 E= -193.633499677711     Delta-E=       -0.000000006646 Rises=F Damp=F
 DIIS: error= 1.47D-06 at cycle  11 NSaved=  11.
 NSaved=11 IEnMin=11 EnMin= -193.633499677711     IErMin=11 ErrMin= 1.47D-06
 ErrMax= 1.47D-06  0.00D+00 EMaxC= 1.00D-01 BMatC= 2.88D-09 BMatP= 1.34D-08
 IDIUse=1 WtCom= 1.00D+00 WtEn= 0.00D+00
 Coeff-Com:  0.123D-03-0.258D-03-0.141D-02-0.302D-02 0.176D-02 0.174D-01
 Coeff-Com: -0.442D-02-0.521D-01-0.103D+00 0.327D+00 0.818D+00
 Coeff:      0.123D-03-0.258D-03-0.141D-02-0.302D-02 0.176D-02 0.174D-01
 Coeff:     -0.442D-02-0.521D-01-0.103D+00 0.327D+00 0.818D+00
 Gap=     0.281 Goal=   None    Shift=    0.000
 Gap=     0.346 Goal=   None    Shift=    0.000
 RMSDP=1.93D-07 MaxDP=6.16D-06 DE=-6.65D-09 OVMax= 1.47D-05

 Cycle  12  Pass 1  IDiag  1:
 E= -193.633499678859     Delta-E=       -0.000000001149 Rises=F Damp=F
 DIIS: error= 3.28D-07 at cycle  12 NSaved=  12.
 NSaved=12 IEnMin=12 EnMin= -193.633499678859     IErMin=12 ErrMin= 3.28D-07
 ErrMax= 3.28D-07  0.00D+00 EMaxC= 1.00D-01 BMatC= 1.42D-10 BMatP= 2.88D-09
 IDIUse=1 WtCom= 1.00D+00 WtEn= 0.00D+00
 Coeff-Com: -0.120D-04 0.241D-04 0.155D-04-0.832D-04-0.103D-03 0.184D-04
 Coeff-Com:  0.170D-02 0.351D-02-0.168D-01-0.752D-01 0.531D-01 0.103D+01
 Coeff:     -0.120D-04 0.241D-04 0.155D-04-0.832D-04-0.103D-03 0.184D-04
 Coeff:      0.170D-02 0.351D-02-0.168D-01-0.752D-01 0.531D-01 0.103D+01
 Gap=     0.281 Goal=   None    Shift=    0.000
 Gap=     0.346 Goal=   None    Shift=    0.000
 RMSDP=6.16D-08 MaxDP=1.65D-06 DE=-1.15D-09 OVMax= 4.00D-06

 Cycle  13  Pass 1  IDiag  1:
 E= -193.633499678954     Delta-E=       -0.000000000095 Rises=F Damp=F
 DIIS: error= 7.01D-08 at cycle  13 NSaved=  13.
 NSaved=13 IEnMin=13 EnMin= -193.633499678954     IErMin=13 ErrMin= 7.01D-08
 ErrMax= 7.01D-08  0.00D+00 EMaxC= 1.00D-01 BMatC= 8.95D-12 BMatP= 1.42D-10
 IDIUse=1 WtCom= 1.00D+00 WtEn= 0.00D+00
 Coeff-Com: -0.515D-05 0.110D-04 0.634D-04 0.146D-03-0.939D-04-0.869D-03
 Coeff-Com:  0.223D-03 0.253D-02 0.718D-02-0.158D-01-0.569D-01-0.101D+00
 Coeff-Com:  0.116D+01
 Coeff:     -0.515D-05 0.110D-04 0.634D-04 0.146D-03-0.939D-04-0.869D-03
 Coeff:      0.223D-03 0.253D-02 0.718D-02-0.158D-01-0.569D-01-0.101D+00
 Coeff:      0.116D+01
 Gap=     0.281 Goal=   None    Shift=    0.000
 Gap=     0.346 Goal=   None    Shift=    0.000
 RMSDP=2.03D-08 MaxDP=4.60D-07 DE=-9.46D-11 OVMax= 1.59D-06

 Cycle  14  Pass 1  IDiag  1:
 E= -193.633499678960     Delta-E=       -0.000000000006 Rises=F Damp=F
 DIIS: error= 2.40D-08 at cycle  14 NSaved=  14.
 NSaved=14 IEnMin=14 EnMin= -193.633499678960     IErMin=14 ErrMin= 2.40D-08
 ErrMax= 2.40D-08  0.00D+00 EMaxC= 1.00D-01 BMatC= 6.31D-13 BMatP= 8.95D-12
 IDIUse=1 WtCom= 1.00D+00 WtEn= 0.00D+00
 Coeff-Com:  0.105D-05-0.193D-05-0.462D-05-0.117D-04 0.270D-05 0.636D-04
 Coeff-Com: -0.954D-04-0.225D-03 0.411D-03 0.440D-02 0.165D-03-0.565D-01
 Coeff-Com: -0.632D-01 0.111D+01
 Coeff:      0.105D-05-0.193D-05-0.462D-05-0.117D-04 0.270D-05 0.636D-04
 Coeff:     -0.954D-04-0.225D-03 0.411D-03 0.440D-02 0.165D-03-0.565D-01
 Coeff:     -0.632D-01 0.111D+01
 Gap=     0.281 Goal=   None    Shift=    0.000
 Gap=     0.346 Goal=   None    Shift=    0.000
 RMSDP=5.03D-09 MaxDP=1.30D-07 DE=-6.48D-12 OVMax= 4.05D-07

 SCF Done:  E(UM062X) =  -193.633499679     A.U. after   14 cycles
            NFock= 14  Conv=0.50D-08     -V/T= 2.0059
 <Sx>= 0.0000 <Sy>= 0.0000 <Sz>= 0.5000 <S**2>= 0.7548 S= 0.5024
 <L.S>= 0.000000000000E+00
 KE= 1.925009658101D+02 PE=-7.038493595824D+02 EE= 1.915316712110D+02
 Annihilation of the first spin contaminant:
 S**2 before annihilation     0.7548,   after     0.7500
 Leave Link  502 at Sat Mar  9 01:32:26 2019, MaxMem=   671088640 cpu:             460.6 elap:              32.7
 (Enter /shared/centos7/gaussian/g16/l801.exe)
 DoSCS=F DFT=T ScalE2(SS,OS)=  1.000000  1.000000
 Range of M.O.s used for correlation:     1   199
 NBasis=   199 NAE=    17 NBE=    16 NFC=     0 NFV=     0
 NROrb=    199 NOA=    17 NOB=    16 NVA=   182 NVB=   183

 **** Warning!!: The largest alpha MO coefficient is  0.30929211D+02


 **** Warning!!: The largest beta MO coefficient is  0.36345082D+02

 Leave Link  801 at Sat Mar  9 01:32:26 2019, MaxMem=   671088640 cpu:               0.6 elap:               0.1
 (Enter /shared/centos7/gaussian/g16/l1101.exe)
 Using compressed storage, NAtomX=    11.
 Will process     12 centers per pass.
 Leave Link 1101 at Sat Mar  9 01:32:26 2019, MaxMem=   671088640 cpu:               5.2 elap:               0.4
 (Enter /shared/centos7/gaussian/g16/l1102.exe)
 Symmetrizing basis deriv contribution to polar:
 IMax=3 JMax=2 DiffMx= 0.00D+00
 Leave Link 1102 at Sat Mar  9 01:32:27 2019, MaxMem=   671088640 cpu:               1.1 elap:               0.1
 (Enter /shared/centos7/gaussian/g16/l1110.exe)
 Forming Gx(P) for the SCF density, NAtomX=    11.
 Integral derivatives from FoFJK, PRISM(SPDF).
 Do as many integral derivatives as possible in FoFJK.
 G2DrvN: MDV=     671087712.
 G2DrvN: will do    12 centers at a time, making    1 passes.
 Calling FoFCou, ICntrl=  3107 FMM=F I1Cent=   0 AccDes= 0.00D+00.
 FoFJK:  IHMeth= 1 ICntrl=    3107 DoSepK=F KAlg= 0 I1Cent=           0 FoldK=F
 IRaf=         0 NMat=       1 IRICut=       1 DoRegI=T DoRafI=F ISym2E= 0 IDoP0=0 IntGTp=1.
 FoFCou: FMM=F IPFlag=           0 FMFlag=      100000 FMFlg1=           0
         NFxFlg=           0 DoJE=F BraDBF=F KetDBF=F FulRan=T
         wScrn=  0.000000 ICntrl=      3107 IOpCl=  1 I1Cent=           0 NGrid=           0
         NMat0=    1 NMatS0=      1 NMatT0=    0 NMatD0=    1 NMtDS0=    0 NMtDT0=    0
 Symmetry not used in FoFCou.
 End of G2Drv F.D. properties file   721 does not exist.
 End of G2Drv F.D. properties file   722 does not exist.
 End of G2Drv F.D. properties file   788 does not exist.
 Leave Link 1110 at Sat Mar  9 01:33:15 2019, MaxMem=   671088640 cpu:             963.2 elap:              48.3
 (Enter /shared/centos7/gaussian/g16/l1002.exe)
 Minotr:  UHF open shell wavefunction.
          IDoAtm=11111111111
          Direct CPHF calculation.
          Differentiating once with respect to nuclear coordinates.
          Requested convergence is 1.0D-08 RMS, and 1.0D-07 maximum.
          Secondary convergence is 1.0D-12 RMS, and 1.0D-12 maximum.
          NewPWx=T KeepS1=F KeepF1=F KeepIn=T MapXYZ=F SortEE=F KeepMc=T.
         3335 words used for storage of precomputed grid.
 Keep R1 and R2 ints in memory in canonical form, NReq=416899964.
 FoFCou: FMM=F IPFlag=           0 FMFlag=           0 FMFlg1=           0
         NFxFlg=           0 DoJE=F BraDBF=F KetDBF=F FulRan=T
         wScrn=  0.000000 ICntrl=       600 IOpCl=  0 I1Cent=           0 NGrid=           0
         NMat0=    1 NMatS0=  19900 NMatT0=    0 NMatD0=    1 NMtDS0=    0 NMtDT0=    0
 Symmetry not used in FoFCou.
 Two-electron integral symmetry not used.
          MDV=     671088640 using IRadAn=       1.
          Solving linear equations simultaneously, MaxMat=       0.
          There are    36 degrees of freedom in the 1st order CPHF.  IDoFFX=6 NUNeed=     0.
     30 vectors produced by pass  0 Test12= 1.67D-14 2.78D-09 XBig12= 1.15D-01 5.63D-02.
 AX will form    30 AO Fock derivatives at one time.
     30 vectors produced by pass  1 Test12= 1.67D-14 2.78D-09 XBig12= 7.18D-03 3.36D-02.
     30 vectors produced by pass  2 Test12= 1.67D-14 2.78D-09 XBig12= 4.98D-04 4.24D-03.
     30 vectors produced by pass  3 Test12= 1.67D-14 2.78D-09 XBig12= 8.06D-06 4.12D-04.
     30 vectors produced by pass  4 Test12= 1.67D-14 2.78D-09 XBig12= 1.15D-07 3.54D-05.
     30 vectors produced by pass  5 Test12= 1.67D-14 2.78D-09 XBig12= 1.43D-09 4.42D-06.
     30 vectors produced by pass  6 Test12= 1.67D-14 2.78D-09 XBig12= 1.41D-11 4.13D-07.
     11 vectors produced by pass  7 Test12= 1.67D-14 2.78D-09 XBig12= 8.27D-14 3.32D-08.
 InvSVY:  IOpt=1 It=  1 EMax= 1.55D-15
 Solved reduced A of dimension   221 with    30 vectors.
 End of Minotr F.D. properties file   721 does not exist.
 End of Minotr F.D. properties file   722 does not exist.
 End of Minotr F.D. properties file   788 does not exist.
 Leave Link 1002 at Sat Mar  9 01:34:21 2019, MaxMem=   671088640 cpu:            1319.9 elap:              66.1
 (Enter /shared/centos7/gaussian/g16/l601.exe)
 Copying SCF densities to generalized density rwf, IOpCl= 1 IROHF=0.

 **********************************************************************

            Population analysis using the SCF density.

 **********************************************************************

 Orbital symmetries:
 Alpha Orbitals:
       Occupied  (A) (A) (A) (A) (A) (A) (A) (A) (A) (A) (A) (A)
                 (A) (A) (A) (A) (A)
       Virtual   (A) (A) (A) (A) (A) (A) (A) (A) (A) (A) (A) (A)
                 (A) (A) (A) (A) (A) (A) (A) (A) (A) (A) (A) (A)
                 (A) (A) (A) (A) (A) (A) (A) (A) (A) (A) (A) (A)
                 (A) (A) (A) (A) (A) (A) (A) (A) (A) (A) (A) (A)
                 (A) (A) (A) (A) (A) (A) (A) (A) (A) (A) (A) (A)
                 (A) (A) (A) (A) (A) (A) (A) (A) (A) (A) (A) (A)
                 (A) (A) (A) (A) (A) (A) (A) (A) (A) (A) (A) (A)
                 (A) (A) (A) (A) (A) (A) (A) (A) (A) (A) (A) (A)
                 (A) (A) (A) (A) (A) (A) (A) (A) (A) (A) (A) (A)
                 (A) (A) (A) (A) (A) (A) (A) (A) (A) (A) (A) (A)
                 (A) (A) (A) (A) (A) (A) (A) (A) (A) (A) (A) (A)
                 (A) (A) (A) (A) (A) (A) (A) (A) (A) (A) (A) (A)
                 (A) (A) (A) (A) (A) (A) (A) (A) (A) (A) (A) (A)
                 (A) (A) (A) (A) (A) (A) (A) (A) (A) (A) (A) (A)
                 (A) (A) (A) (A) (A) (A) (A) (A) (A) (A) (A) (A)
                 (A) (A)
 Beta  Orbitals:
       Occupied  (A) (A) (A) (A) (A) (A) (A) (A) (A) (A) (A) (A)
                 (A) (A) (A) (A)
       Virtual   (A) (A) (A) (A) (A) (A) (A) (A) (A) (A) (A) (A)
                 (A) (A) (A) (A) (A) (A) (A) (A) (A) (A) (A) (A)
                 (A) (A) (A) (A) (A) (A) (A) (A) (A) (A) (A) (A)
                 (A) (A) (A) (A) (A) (A) (A) (A) (A) (A) (A) (A)
                 (A) (A) (A) (A) (A) (A) (A) (A) (A) (A) (A) (A)
                 (A) (A) (A) (A) (A) (A) (A) (A) (A) (A) (A) (A)
                 (A) (A) (A) (A) (A) (A) (A) (A) (A) (A) (A) (A)
                 (A) (A) (A) (A) (A) (A) (A) (A) (A) (A) (A) (A)
                 (A) (A) (A) (A) (A) (A) (A) (A) (A) (A) (A) (A)
                 (A) (A) (A) (A) (A) (A) (A) (A) (A) (A) (A) (A)
                 (A) (A) (A) (A) (A) (A) (A) (A) (A) (A) (A) (A)
                 (A) (A) (A) (A) (A) (A) (A) (A) (A) (A) (A) (A)
                 (A) (A) (A) (A) (A) (A) (A) (A) (A) (A) (A) (A)
                 (A) (A) (A) (A) (A) (A) (A) (A) (A) (A) (A) (A)
                 (A) (A) (A) (A) (A) (A) (A) (A) (A) (A) (A) (A)
                 (A) (A) (A)
 The electronic state is 2-A.
 Alpha  occ. eigenvalues --  -19.65518 -10.59836 -10.59308 -10.54394  -1.16409
 Alpha  occ. eigenvalues --   -0.86186  -0.76945  -0.67438  -0.57585  -0.56066
 Alpha  occ. eigenvalues --   -0.51150  -0.47885  -0.45208  -0.43990  -0.40326
 Alpha  occ. eigenvalues --   -0.38939  -0.26297
 Alpha virt. eigenvalues --    0.01758   0.03299   0.04177   0.04570   0.06433
 Alpha virt. eigenvalues --    0.07123   0.07691   0.08520   0.08959   0.11081
 Alpha virt. eigenvalues --    0.11776   0.14613   0.16191   0.17492   0.19013
 Alpha virt. eigenvalues --    0.21594   0.22941   0.23531   0.25332   0.25748
 Alpha virt. eigenvalues --    0.27031   0.28031   0.31278   0.32337   0.32711
 Alpha virt. eigenvalues --    0.34171   0.41691   0.44705   0.45512   0.46333
 Alpha virt. eigenvalues --    0.49155   0.49715   0.52244   0.52912   0.54617
 Alpha virt. eigenvalues --    0.55731   0.57489   0.58648   0.60282   0.61301
 Alpha virt. eigenvalues --    0.64355   0.65062   0.67278   0.68214   0.72566
 Alpha virt. eigenvalues --    0.76009   0.79577   0.82062   0.84163   0.86779
 Alpha virt. eigenvalues --    0.91052   0.95414   0.96944   0.97169   1.00678
 Alpha virt. eigenvalues --    1.04929   1.08005   1.09130   1.12293   1.13697
 Alpha virt. eigenvalues --    1.15545   1.17858   1.19810   1.21749   1.23529
 Alpha virt. eigenvalues --    1.25718   1.27446   1.28365   1.31499   1.33364
 Alpha virt. eigenvalues --    1.34471   1.35980   1.40645   1.41232   1.42704
 Alpha virt. eigenvalues --    1.45821   1.47036   1.48199   1.50769   1.54843
 Alpha virt. eigenvalues --    1.57603   1.61213   1.64149   1.67799   1.76112
 Alpha virt. eigenvalues --    1.94024   2.00049   2.07132   2.19962   2.28605
 Alpha virt. eigenvalues --    2.40989   2.43930   2.46468   2.48959   2.58357
 Alpha virt. eigenvalues --    2.61545   2.66063   2.81090   2.82938   2.86047
 Alpha virt. eigenvalues --    2.87424   2.94029   2.96245   2.98237   3.01828
 Alpha virt. eigenvalues --    3.03529   3.05002   3.06696   3.10795   3.13224
 Alpha virt. eigenvalues --    3.14346   3.18821   3.20234   3.21717   3.27342
 Alpha virt. eigenvalues --    3.29579   3.32439   3.33433   3.36905   3.41708
 Alpha virt. eigenvalues --    3.45349   3.47701   3.50989   3.52240   3.60053
 Alpha virt. eigenvalues --    3.61420   3.62290   3.64604   3.68283   3.72780
 Alpha virt. eigenvalues --    3.74722   3.78377   3.82350   3.83196   3.88125
 Alpha virt. eigenvalues --    3.90758   3.91901   3.96471   4.01688   4.04184
 Alpha virt. eigenvalues --    4.05840   4.10234   4.17537   4.18204   4.22170
 Alpha virt. eigenvalues --    4.23088   4.23972   4.28740   4.31844   4.38511
 Alpha virt. eigenvalues --    4.39486   4.44338   4.49718   4.53097   4.56136
 Alpha virt. eigenvalues --    4.58861   4.99489   5.07696   5.19558   5.23804
 Alpha virt. eigenvalues --    5.26354   5.34823   5.38061   5.40777   5.44654
 Alpha virt. eigenvalues --    5.48491   5.49160   5.59123   5.71269   5.73961
 Alpha virt. eigenvalues --    6.08609   6.32213   6.53403   7.11770   7.18162
 Alpha virt. eigenvalues --    7.22960   7.56819   7.68105  24.15020  24.19622
 Alpha virt. eigenvalues --   24.36069  50.10769
  Beta  occ. eigenvalues --  -19.65112 -10.59845 -10.58488 -10.54389  -1.15082
  Beta  occ. eigenvalues --   -0.85953  -0.75056  -0.66032  -0.56942  -0.55004
  Beta  occ. eigenvalues --   -0.50119  -0.46537  -0.44648  -0.43382  -0.38408
  Beta  occ. eigenvalues --   -0.37306
  Beta virt. eigenvalues --   -0.02693   0.01638   0.03239   0.04055   0.04566
  Beta virt. eigenvalues --    0.06385   0.07068   0.07713   0.08391   0.09275
  Beta virt. eigenvalues --    0.10921   0.11666   0.13626   0.16250   0.17620
  Beta virt. eigenvalues --    0.19327   0.21541   0.23151   0.23988   0.25556
  Beta virt. eigenvalues --    0.25956   0.27447   0.28292   0.31044   0.32462
  Beta virt. eigenvalues --    0.32951   0.34154   0.41686   0.44956   0.45607
  Beta virt. eigenvalues --    0.46620   0.49503   0.49935   0.51970   0.52880
  Beta virt. eigenvalues --    0.54839   0.56050   0.58680   0.59272   0.60147
  Beta virt. eigenvalues --    0.61031   0.64012   0.65215   0.67458   0.68579
  Beta virt. eigenvalues --    0.72386   0.76304   0.79766   0.82155   0.84396
  Beta virt. eigenvalues --    0.86731   0.91263   0.95335   0.96916   0.97293
  Beta virt. eigenvalues --    1.00527   1.04929   1.08197   1.09030   1.12389
  Beta virt. eigenvalues --    1.13846   1.15825   1.17757   1.19823   1.21816
  Beta virt. eigenvalues --    1.23655   1.25787   1.27614   1.28370   1.31509
  Beta virt. eigenvalues --    1.33339   1.34618   1.36320   1.40909   1.41233
  Beta virt. eigenvalues --    1.42883   1.45921   1.47203   1.48310   1.51050
  Beta virt. eigenvalues --    1.54882   1.57635   1.61291   1.64510   1.67967
  Beta virt. eigenvalues --    1.76359   1.95096   2.00390   2.07470   2.20380
  Beta virt. eigenvalues --    2.29194   2.41453   2.44534   2.46920   2.49619
  Beta virt. eigenvalues --    2.58552   2.61827   2.66465   2.81828   2.83208
  Beta virt. eigenvalues --    2.86652   2.91481   2.94650   2.98385   3.00422
  Beta virt. eigenvalues --    3.03010   3.05277   3.06279   3.08545   3.11690
  Beta virt. eigenvalues --    3.14565   3.15974   3.20772   3.22272   3.24908
  Beta virt. eigenvalues --    3.29446   3.30761   3.34032   3.36094   3.40417
  Beta virt. eigenvalues --    3.43536   3.47261   3.48254   3.52316   3.52571
  Beta virt. eigenvalues --    3.61989   3.63046   3.64846   3.66223   3.68889
  Beta virt. eigenvalues --    3.73561   3.74829   3.79345   3.82960   3.85444
  Beta virt. eigenvalues --    3.88712   3.92111   3.93131   3.97051   4.01791
  Beta virt. eigenvalues --    4.04939   4.08183   4.10706   4.18020   4.18812
  Beta virt. eigenvalues --    4.22321   4.23570   4.25197   4.30732   4.32472
  Beta virt. eigenvalues --    4.39111   4.39908   4.44993   4.49830   4.53199
  Beta virt. eigenvalues --    4.56186   4.59142   5.01286   5.09653   5.20720
  Beta virt. eigenvalues --    5.25066   5.27137   5.36949   5.38985   5.41089
  Beta virt. eigenvalues --    5.45344   5.48861   5.49417   5.59851   5.71492
  Beta virt. eigenvalues --    5.74590   6.08787   6.32380   6.53921   7.12677
  Beta virt. eigenvalues --    7.19233   7.23951   7.57143   7.68057  24.15643
  Beta virt. eigenvalues --   24.20344  24.36057  50.10496
          Condensed to atoms (all electrons):
               1          2          3          4          5          6
     1  O    8.086991   0.166446  -0.067508   0.110043  -0.048719  -0.031421
     2  C    0.166446   5.262287   0.129747  -0.106667   0.423287   0.454074
     3  C   -0.067508   0.129747   5.107720   0.017004  -0.023761  -0.062481
     4  C    0.110043  -0.106667   0.017004   5.452077   0.007269  -0.004883
     5  H   -0.048719   0.423287  -0.023761   0.007269   0.536058  -0.027420
     6  H   -0.031421   0.454074  -0.062481  -0.004883  -0.027420   0.527741
     7  H   -0.009034  -0.035858   0.413951  -0.012536   0.006038  -0.004970
     8  H    0.007804  -0.036458   0.414406   0.000197  -0.001232  -0.005390
     9  H   -0.001672  -0.032468   0.416404  -0.000301  -0.009851   0.006120
    10  H   -0.030152  -0.017278  -0.008050   0.387303  -0.000614  -0.000917
    11  H   -0.049801   0.007702  -0.003878   0.421876  -0.000129  -0.000348
               7          8          9         10         11
     1  O   -0.009034   0.007804  -0.001672  -0.030152  -0.049801
     2  C   -0.035858  -0.036458  -0.032468  -0.017278   0.007702
     3  C    0.413951   0.414406   0.416404  -0.008050  -0.003878
     4  C   -0.012536   0.000197  -0.000301   0.387303   0.421876
     5  H    0.006038  -0.001232  -0.009851  -0.000614  -0.000129
     6  H   -0.004970  -0.005390   0.006120  -0.000917  -0.000348
     7  H    0.578847  -0.028047  -0.032157  -0.000598   0.001126
     8  H   -0.028047   0.548551  -0.026100   0.000003   0.000027
     9  H   -0.032157  -0.026100   0.537553   0.001192  -0.000075
    10  H   -0.000598   0.000003   0.001192   0.579268  -0.037163
    11  H    0.001126   0.000027  -0.000075  -0.037163   0.514746
          Atomic-Atomic Spin Densities.
               1          2          3          4          5          6
     1  O    0.264673   0.013970  -0.008445  -0.199371  -0.000631  -0.004047
     2  C    0.013970   0.050440  -0.039467   0.006851   0.002351   0.003826
     3  C   -0.008445  -0.039467   0.051557   0.003056  -0.002926   0.000043
     4  C   -0.199371   0.006851   0.003056   1.155809   0.001294   0.005440
     5  H   -0.000631   0.002351  -0.002926   0.001294  -0.001597   0.001247
     6  H   -0.004047   0.003826   0.000043   0.005440   0.001247  -0.006560
     7  H   -0.000801   0.004154  -0.004637   0.001918  -0.000100  -0.000171
     8  H    0.000142   0.002563  -0.004295   0.000585  -0.000047  -0.000231
     9  H    0.000417  -0.003277   0.004027  -0.000579   0.000193  -0.000036
    10  H    0.004854  -0.016455   0.005426  -0.026191  -0.000011  -0.000687
    11  H    0.001800  -0.001955  -0.001678  -0.012318  -0.000020  -0.000132
               7          8          9         10         11
     1  O   -0.000801   0.000142   0.000417   0.004854   0.001800
     2  C    0.004154   0.002563  -0.003277  -0.016455  -0.001955
     3  C   -0.004637  -0.004295   0.004027   0.005426  -0.001678
     4  C    0.001918   0.000585  -0.000579  -0.026191  -0.012318
     5  H   -0.000100  -0.000047   0.000193  -0.000011  -0.000020
     6  H   -0.000171  -0.000231  -0.000036  -0.000687  -0.000132
     7  H   -0.003900   0.000366   0.000278   0.002910   0.000094
     8  H    0.000366   0.000203  -0.000184   0.000153   0.000007
     9  H    0.000278  -0.000184  -0.000764   0.000033   0.000028
    10  H    0.002910   0.000153   0.000033   0.004912   0.008591
    11  H    0.000094   0.000007   0.000028   0.008591  -0.010627
 Mulliken charges and spin densities:
               1          2
     1  O   -0.132977   0.072561
     2  C   -0.214814   0.023002
     3  C   -0.333552   0.002662
     4  C   -0.271383   0.936496
     5  H    0.139074  -0.000248
     6  H    0.149895  -0.001307
     7  H    0.123239   0.000111
     8  H    0.126238  -0.000738
     9  H    0.141356   0.000137
    10  H    0.127005  -0.016466
    11  H    0.145918  -0.016211
 Sum of Mulliken charges =  -0.00000   1.00000
 Mulliken charges and spin densities with hydrogens summed into heavy atoms:
               1          2
     1  O   -0.132977   0.072561
     2  C    0.074156   0.021447
     3  C    0.057281   0.002173
     4  C    0.001540   0.903819
 APT charges:
               1
     1  O   -0.152893
     2  C   -0.685836
     3  C   -1.032264
     4  C   -0.705645
     5  H    0.430122
     6  H    0.361950
     7  H    0.241313
     8  H    0.455493
     9  H    0.372866
    10  H    0.216474
    11  H    0.498421
 Sum of APT charges =  -0.00000
 APT charges with hydrogens summed into heavy atoms:
               1
     1  O   -0.152893
     2  C    0.106236
     3  C    0.037407
     4  C    0.009250
 Electronic spatial extent (au):  <R**2>=            313.1845
 Charge=             -0.0000 electrons
 Dipole moment (field-independent basis, Debye):
    X=             -1.5622    Y=              0.8499    Z=              0.1849  Tot=              1.7880
 Quadrupole moment (field-independent basis, Debye-Ang):
   XX=            -26.0986   YY=            -26.1907   ZZ=            -27.4436
   XY=              2.0996   XZ=             -0.9576   YZ=             -0.5687
 Traceless Quadrupole moment (field-independent basis, Debye-Ang):
   XX=              0.4791   YY=              0.3869   ZZ=             -0.8660
   XY=              2.0996   XZ=             -0.9576   YZ=             -0.5687
 Octapole moment (field-independent basis, Debye-Ang**2):
  XXX=              1.1250  YYY=             -2.6554  ZZZ=             -2.6335  XYY=             -0.9135
  XXY=              0.5988  XXZ=             -3.5345  XZZ=             -2.2579  YZZ=             -1.6237
  YYZ=             -0.3348  XYZ=             -1.2977
 Hexadecapole moment (field-independent basis, Debye-Ang**3):
 XXXX=           -260.2034 YYYY=           -107.8173 ZZZZ=            -54.2162 XXXY=              1.7680
 XXXZ=            -13.5421 YYYX=              1.9419 YYYZ=              2.3062 ZZZX=             -3.1675
 ZZZY=             -1.5677 XXYY=            -65.0633 XXZZ=            -54.9522 YYZZ=            -28.4750
 XXYZ=             -1.3594 YYXZ=             -0.2396 ZZXY=             -1.0338
 N-N= 1.261832228824D+02 E-N=-7.038493596904D+02  KE= 1.925009658101D+02
  Exact polarizability:   0.000   0.000   0.000   0.000   0.000   0.000
 Approx polarizability:  52.968   2.899  49.057  -0.565   1.487  46.856
                          Isotropic Fermi Contact Couplings
        Atom                 a.u.       MegaHertz       Gauss      10(-4) cm-1
     1  O(17)              0.04095     -24.82592      -8.85850      -8.28103
     2  C(13)             -0.00301      -3.38561      -1.20807      -1.12932
     3  C(13)             -0.00020      -0.22250      -0.07939      -0.07422
     4  C(13)              0.34758     390.74200     139.42646     130.33750
     5  H(1)              -0.00034      -1.52697      -0.54486      -0.50934
     6  H(1)               0.00103       4.61650       1.64728       1.53990
     7  H(1)              -0.00037      -1.64167      -0.58579      -0.54760
     8  H(1)              -0.00034      -1.50724      -0.53782      -0.50276
     9  H(1)              -0.00011      -0.50221      -0.17920      -0.16752
    10  H(1)               0.00178       7.94070       2.83344       2.64873
    11  H(1)              -0.00137      -6.14402      -2.19234      -2.04942
 --------------------------------------------------------
       Center         ----  Spin Dipole Couplings  ----
                      3XX-RR        3YY-RR        3ZZ-RR
 --------------------------------------------------------
     1   Atom       -0.266107     -0.315634      0.581741
     2   Atom        0.014497     -0.005877     -0.008619
     3   Atom        0.003262      0.006275     -0.009538
     4   Atom       -0.321982     -0.336492      0.658474
     5   Atom        0.005362     -0.000705     -0.004657
     6   Atom        0.007521     -0.003455     -0.004066
     7   Atom        0.011663     -0.003917     -0.007746
     8   Atom        0.004905     -0.002377     -0.002527
     9   Atom        0.004166     -0.003058     -0.001109
    10   Atom       -0.006778      0.018552     -0.011774
    11   Atom        0.033276     -0.045059      0.011783
 --------------------------------------------------------
                        XY            XZ            YZ
 --------------------------------------------------------
     1   Atom       -0.154247      0.340471     -0.407753
     2   Atom        0.006552     -0.000173      0.003137
     3   Atom       -0.001993      0.001250     -0.000347
     4   Atom       -0.143609      0.397495     -0.394535
     5   Atom        0.006953      0.000789      0.000076
     6   Atom        0.008251     -0.007356     -0.002633
     7   Atom       -0.006567      0.000946     -0.000473
     8   Atom       -0.000613     -0.000912      0.000209
     9   Atom       -0.000893      0.003672     -0.000354
    10   Atom       -0.057920     -0.005850      0.005052
    11   Atom        0.008528     -0.039361     -0.023244
 --------------------------------------------------------


 ---------------------------------------------------------------------------------
              Anisotropic Spin Dipole Couplings in Principal Axis System
 ---------------------------------------------------------------------------------

       Atom             a.u.   MegaHertz   Gauss  10(-4) cm-1        Axes

              Baa    -0.4778    34.575    12.337    11.533  0.2118  0.9330  0.2910
     1 O(17)  Bbb    -0.3849    27.853     9.939     9.291  0.9255 -0.0958 -0.3664
              Bcc     0.8627   -62.428   -22.276   -20.824  0.3140 -0.3469  0.8838
 
              Baa    -0.0113    -1.517    -0.541    -0.506  0.1666 -0.6362  0.7533
     2 C(13)  Bbb    -0.0051    -0.689    -0.246    -0.230 -0.2334  0.7168  0.6571
              Bcc     0.0164     2.206     0.787     0.736  0.9580  0.2853  0.0291
 
              Baa    -0.0097    -1.296    -0.463    -0.432 -0.0947  0.0098  0.9955
     3 C(13)  Bbb     0.0023     0.315     0.112     0.105  0.8861  0.4566  0.0798
              Bcc     0.0073     0.981     0.350     0.327 -0.4538  0.8896 -0.0520
 
              Baa    -0.4757   -63.836   -22.778   -21.293  0.3401  0.9188  0.2004
     4 C(13)  Bbb    -0.4620   -61.997   -22.122   -20.680  0.8850 -0.2406 -0.3987
              Bcc     0.9377   125.832    44.900    41.973  0.3181 -0.3129  0.8949
 
              Baa    -0.0054    -2.902    -1.035    -0.968 -0.5082  0.7394  0.4416
     5 H(1)   Bbb    -0.0045    -2.406    -0.858    -0.802  0.2056 -0.3937  0.8959
              Bcc     0.0099     5.308     1.894     1.770  0.8363  0.5461  0.0480
 
              Baa    -0.0087    -4.621    -1.649    -1.541 -0.5640  0.6157 -0.5502
     6 H(1)   Bbb    -0.0064    -3.420    -1.221    -1.141 -0.0006  0.6660  0.7460
              Bcc     0.0151     8.042     2.869     2.682  0.8257  0.4211 -0.3753
 
              Baa    -0.0078    -4.165    -1.486    -1.389 -0.0174  0.0918  0.9956
     7 H(1)   Bbb    -0.0063    -3.365    -1.201    -1.122  0.3459  0.9348 -0.0801
              Bcc     0.0141     7.530     2.687     2.512  0.9381 -0.3430  0.0480
 
              Baa    -0.0027    -1.442    -0.515    -0.481  0.0720 -0.4394  0.8954
     8 H(1)   Bbb    -0.0024    -1.262    -0.450    -0.421  0.1291  0.8943  0.4285
              Bcc     0.0051     2.705     0.965     0.902  0.9890 -0.0848 -0.1211
 
              Baa    -0.0032    -1.706    -0.609    -0.569  0.2699  0.9080 -0.3205
     9 H(1)   Bbb    -0.0030    -1.574    -0.562    -0.525 -0.3782  0.4061  0.8319
              Bcc     0.0061     3.281     1.171     1.094  0.8855 -0.1033  0.4530
 
              Baa    -0.0534   -28.518   -10.176    -9.513  0.7799  0.6250  0.0337
    10 H(1)   Bbb    -0.0125    -6.654    -2.374    -2.220  0.0348 -0.0970  0.9947
              Bcc     0.0659    35.172    12.550    11.732 -0.6250  0.7746  0.0974
 
              Baa    -0.0538   -28.687   -10.236    -9.569  0.0791  0.9236  0.3750
    11 H(1)   Bbb    -0.0135    -7.214    -2.574    -2.406  0.6415 -0.3351  0.6901
              Bcc     0.0673    35.901    12.810    11.975  0.7630  0.1860 -0.6190
 

 ---------------------------------------------------------------------------------

 No NMR shielding tensors so no spin-rotation constants.
 Leave Link  601 at Sat Mar  9 01:34:22 2019, MaxMem=   671088640 cpu:               8.9 elap:               0.5
 (Enter /shared/centos7/gaussian/g16/l701.exe)
 SCFChk:  SCF convergence  5.03D-09 required  1.00D-08
 ... and contract with generalized density number  0.
 Compute integral second derivatives.
 Entering OneElI...
 Calculate overlap and kinetic energy integrals
    NBasis = 219  MinDer = 2  MaxDer = 2
 Requested accuracy = 0.1000D-12
 PrmmSu-InSpLW:  IPartL=    0 NPrtUS=   20 NPrtUL=    1 DoSpLW=F IThBeg=    0 IThEnd=   19 NThAct=   20.
 PrsmSu:  NPrtUS=  20 ThrOK=T IAlg=1 NPAlg=1 LenDen=           0 ISkipM=0 DoSpLW=F IThBeg=    0 IThEnd=   19.
 Prism:   IPart=     0 DynPar=F LinDyn=F Incr=           1.
 PRISM was handed    33491679 working-precision words and  2278 shell-pairs
 PRISM was handed    33491679 working-precision words and  2278 shell-pairs
 PRISM was handed    33491679 working-precision words and  2278 shell-pairs
 PRISM was handed    33491679 working-precision words and  2278 shell-pairs
 PRISM was handed    33491679 working-precision words and  2278 shell-pairs
 PRISM was handed    33491679 working-precision words and  2278 shell-pairs
 PRISM was handed    33491679 working-precision words and  2278 shell-pairs
 PRISM was handed    33491679 working-precision words and  2278 shell-pairs
 PRISM was handed    33491679 working-precision words and  2278 shell-pairs
 PRISM was handed    33491679 working-precision words and  2278 shell-pairs
 PRISM was handed    33491679 working-precision words and  2278 shell-pairs
 PRISM was handed    33491679 working-precision words and  2278 shell-pairs
 PRISM was handed    33491679 working-precision words and  2278 shell-pairs
 PRISM was handed    33491679 working-precision words and  2278 shell-pairs
 PRISM was handed    33491679 working-precision words and  2278 shell-pairs
 PRISM was handed    33491679 working-precision words and  2278 shell-pairs
 PRISM was handed    33491679 working-precision words and  2278 shell-pairs
 PRISM was handed    33491679 working-precision words and  2278 shell-pairs
 PRISM was handed    33491679 working-precision words and  2278 shell-pairs
 PRISM was handed    33491679 working-precision words and  2278 shell-pairs
 IPart= 15 NShTot=         102 NBatch=          28 AvBLen=         3.6
 IPart=  0 NShTot=         142 NBatch=          51 AvBLen=         2.8
 IPart=  4 NShTot=         127 NBatch=          38 AvBLen=         3.3
 IPart=  3 NShTot=         134 NBatch=          45 AvBLen=         3.0
 IPart=  1 NShTot=         137 NBatch=          47 AvBLen=         2.9
 IPart=  9 NShTot=         112 NBatch=          30 AvBLen=         3.7
 IPart=  6 NShTot=         124 NBatch=          37 AvBLen=         3.4
 IPart= 10 NShTot=         111 NBatch=          29 AvBLen=         3.8
 IPart=  7 NShTot=         123 NBatch=          36 AvBLen=         3.4
 IPart=  2 NShTot=         135 NBatch=          46 AvBLen=         2.9
 IPart= 11 NShTot=         111 NBatch=          29 AvBLen=         3.8
 IPart=  5 NShTot=         125 NBatch=          37 AvBLen=         3.4
 IPart= 12 NShTot=         103 NBatch=          28 AvBLen=         3.7
 IPart= 17 NShTot=          94 NBatch=          26 AvBLen=         3.6
 IPart= 16 NShTot=          94 NBatch=          26 AvBLen=         3.6
 IPart=  8 NShTot=         116 NBatch=          34 AvBLen=         3.4
 IPart= 19 NShTot=          91 NBatch=          26 AvBLen=         3.5
 IPart= 13 NShTot=         103 NBatch=          28 AvBLen=         3.7
 IPart= 18 NShTot=          91 NBatch=          26 AvBLen=         3.5
 IPart= 14 NShTot=         103 NBatch=          28 AvBLen=         3.7
 PrSmSu:  NxtVal=             21.
 Entering OneElI...
 Calculate potential energy integrals
    NBasis = 219  MinDer = 2  MaxDer = 2
 Requested accuracy = 0.1000D-12
 PrmmSu-InSpLW:  IPartL=    0 NPrtUS=   20 NPrtUL=    1 DoSpLW=F IThBeg=    0 IThEnd=   19 NThAct=   20.
 PrsmSu:  NPrtUS=  20 ThrOK=T IAlg=1 NPAlg=1 LenDen=           0 ISkipM=0 DoSpLW=F IThBeg=    0 IThEnd=   19.
 Prism:   IPart=     0 DynPar=F LinDyn=F Incr=          12.
 PRISM was handed    33498604 working-precision words and  2230 shell-pairs
 PRISM was handed    33498604 working-precision words and  2230 shell-pairs
 PRISM was handed    33498604 working-precision words and  2230 shell-pairs
 PRISM was handed    33498604 working-precision words and  2230 shell-pairs
 PRISM was handed    33498604 working-precision words and  2230 shell-pairs
 PRISM was handed    33498604 working-precision words and  2230 shell-pairs
 PRISM was handed    33498604 working-precision words and  2230 shell-pairs
 PRISM was handed    33498604 working-precision words and  2230 shell-pairs
 PRISM was handed    33498604 working-precision words and  2230 shell-pairs
 PRISM was handed    33498604 working-precision words and  2230 shell-pairs
 PRISM was handed    33498604 working-precision words and  2230 shell-pairs
 PRISM was handed    33498604 working-precision words and  2230 shell-pairs
 PRISM was handed    33498604 working-precision words and  2230 shell-pairs
 PRISM was handed    33498604 working-precision words and  2230 shell-pairs
 PRISM was handed    33498604 working-precision words and  2230 shell-pairs
 PRISM was handed    33498604 working-precision words and  2230 shell-pairs
 PRISM was handed    33498604 working-precision words and  2230 shell-pairs
 PRISM was handed    33498604 working-precision words and  2230 shell-pairs
 PRISM was handed    33498604 working-precision words and  2230 shell-pairs
 PRISM was handed    33498604 working-precision words and  2230 shell-pairs
 IPart= 15 NShTot=        1100 NBatch=         100 AvBLen=        11.0
 IPart=  0 NShTot=        1562 NBatch=         142 AvBLen=        11.0
 IPart=  2 NShTot=        1441 NBatch=         131 AvBLen=        11.0
 IPart=  9 NShTot=        1188 NBatch=         108 AvBLen=        11.0
 IPart= 12 NShTot=        1133 NBatch=         103 AvBLen=        11.0
 IPart=  5 NShTot=        1342 NBatch=         122 AvBLen=        11.0
 IPart= 11 NShTot=        1144 NBatch=         104 AvBLen=        11.0
 IPart=  7 NShTot=        1276 NBatch=         116 AvBLen=        11.0
 IPart=  1 NShTot=        1507 NBatch=         137 AvBLen=        11.0
 IPart= 10 NShTot=        1166 NBatch=         106 AvBLen=        11.0
 IPart=  6 NShTot=        1331 NBatch=         121 AvBLen=        11.0
 IPart=  3 NShTot=        1419 NBatch=         129 AvBLen=        11.0
 IPart= 16 NShTot=        1056 NBatch=          96 AvBLen=        11.0
 IPart=  8 NShTot=        1232 NBatch=         112 AvBLen=        11.0
 IPart=  4 NShTot=        1364 NBatch=         124 AvBLen=        11.0
 IPart= 17 NShTot=        1045 NBatch=          95 AvBLen=        11.0
 IPart= 13 NShTot=        1111 NBatch=         101 AvBLen=        11.0
 IPart= 14 NShTot=        1100 NBatch=         100 AvBLen=        11.0
 IPart= 18 NShTot=        1012 NBatch=          92 AvBLen=        11.0
 IPart= 19 NShTot=        1001 NBatch=          91 AvBLen=        11.0
 PrSmSu:  NxtVal=            241.
 Polarizability after L701:
                1             2             3 
      1  0.000000D+00
      2  0.000000D+00  0.000000D+00
      3  0.000000D+00  0.000000D+00  0.000000D+00
 Dipole Derivatives after L701:
                 1             2             3             4             5 
      1  -0.137523D+00  0.115197D+00  0.216234D-01 -0.336044D+00 -0.577496D+00
      2   0.163759D+00 -0.122757D+00 -0.149618D-01 -0.495932D+00 -0.803655D+00
      3  -0.644146D-02 -0.698079D-03 -0.198398D+00  0.462917D-01  0.176146D-01
                 6             7             8             9            10 
      1   0.185625D+00 -0.131876D+01  0.517073D+00 -0.265657D+00 -0.995246D+00
      2   0.121232D+00  0.508872D-01 -0.877594D+00 -0.317152D-01 -0.309035D-02
      3  -0.917811D+00 -0.444993D-01 -0.842748D-01 -0.900436D+00  0.257515D+00
                11            12            13            14            15 
      1  -0.667224D+00  0.685997D+00  0.363811D+00  0.352443D+00  0.168643D+00
      2  -0.845330D+00  0.644736D-01  0.312499D+00  0.737444D+00  0.291089D+00
      3  -0.145983D+00 -0.276360D+00  0.263865D-01  0.735238D-01  0.189111D+00
                16            17            18            19            20 
      1   0.178556D+00  0.912816D-02 -0.212605D+00 -0.453077D-01 -0.262749D+00
      2   0.376636D-02  0.184884D+00 -0.347241D+00  0.396754D+00  0.639109D+00
      3  -0.770134D-02 -0.540363D-01  0.722410D+00  0.421005D-01  0.357720D-01
                21            22            23            24            25 
      1  -0.336258D-01  0.100243D+01 -0.546717D-01 -0.568970D+00  0.318351D+00
      2   0.110355D+00 -0.208077D+00  0.119912D+00  0.120201D+00 -0.731817D-01
      3   0.130136D+00 -0.197302D+00 -0.261866D-02  0.244140D+00  0.149981D+00
                26            27            28            29            30 
      1  -0.365974D-02  0.706902D+00 -0.593044D-01  0.302124D+00  0.356867D-01
      2   0.144670D+00 -0.211147D+00 -0.413644D+00  0.593854D+00  0.794539D-01
      3   0.193934D-01  0.655577D+00 -0.115624D+00  0.144929D+00  0.114874D+00
                31            32            33 
      1   0.102904D+01  0.269835D+00 -0.723619D+00
      2   0.266259D+00  0.229461D+00 -0.181741D+00
      3  -0.150707D+00 -0.362254D-02  0.236757D+00
 Hessian after L701:
                1             2             3             4             5 
      1  0.325624D+01
      2 -0.293044D+01  0.704952D+01
      3  0.812038D+00 -0.207278D+01  0.103997D+02
      4  0.209996D+00  0.460332D+00 -0.215690D+01  0.900433D+01
      5  0.389931D+00 -0.564965D+01 -0.111607D-01  0.382758D+00  0.128226D+02
      6 -0.208716D+01 -0.423612D-01 -0.496130D+01  0.122820D+01  0.302921D+00
      7  0.526624D+00 -0.544380D+00  0.738822D-01 -0.341178D+01 -0.216860D+01
      8 -0.488132D+00 -0.168192D-01 -0.213786D-01 -0.215254D+01 -0.222725D+01
      9 -0.236484D-02  0.688864D-02 -0.334367D+00  0.567709D+00 -0.639924D+00
     10 -0.426243D+01  0.324984D+01  0.136947D+01  0.318124D+00  0.308630D+00
     11  0.319277D+01 -0.169159D+01  0.217743D+01  0.267754D+00  0.296276D-01
     12  0.138254D+01  0.222900D+01 -0.536392D+01  0.874885D-01  0.418500D-01
     13 -0.137650D-01  0.636296D-01  0.605863D-01 -0.283643D+01  0.101407D+01
     14  0.111771D+00  0.154638D+00  0.495648D-01  0.100664D+01 -0.161216D+01
     15  0.106181D+00  0.718399D-01  0.228865D-01  0.372655D+00  0.686732D+00
     16 -0.802094D-01  0.265810D-01  0.958765D-02 -0.345095D+01  0.137119D-01
     17  0.208741D-01  0.229836D-02 -0.520857D-01  0.100094D-01 -0.337499D+01
     18 -0.450838D-01 -0.644761D-01  0.245166D+00 -0.709208D-01 -0.395164D+00
     19 -0.159525D-01 -0.185496D-02  0.223270D-01  0.327859D-01  0.413787D-01
     20 -0.708754D-01  0.483290D-01 -0.131242D-01 -0.640827D-01  0.311861D-01
     21  0.318583D-03 -0.248966D-02 -0.322317D-01  0.137692D-01  0.390807D-01
     22  0.139088D+00 -0.633208D-01 -0.557643D-01  0.462960D-02 -0.165955D-01
     23 -0.521375D-01 -0.294733D-01  0.170560D-01  0.668527D-02  0.380122D-01
     24 -0.660397D-01  0.225345D-01 -0.256611D-01 -0.342465D-01  0.546523D-04
     25  0.615529D-01 -0.557354D-01  0.280371D-01  0.252941D-01  0.177608D-01
     26 -0.412506D-01 -0.134482D-01 -0.109519D-01  0.369414D-02 -0.151731D-01
     27  0.688117D-01 -0.364597D-01 -0.136659D-01  0.518993D-01  0.110497D-01
     28  0.647025D-01 -0.205853D+00 -0.688637D-01  0.755483D-03 -0.387477D-01
     29 -0.107717D+00  0.173495D+00 -0.162447D-01  0.131635D-01 -0.275389D-01
     30 -0.224784D-01 -0.192766D-01 -0.127934D-02 -0.123367D-01 -0.169473D-01
     31  0.114157D+00  0.119980D-02 -0.944012D-01  0.103240D+00  0.557053D-01
     32 -0.248013D-01 -0.273076D-01 -0.463182D-01  0.655858D-01 -0.147071D-01
     33 -0.146763D+00 -0.924154D-01  0.647204D-01 -0.473199D-01 -0.184927D-01
                6             7             8             9            10 
      6  0.137881D+02
      7  0.540529D+00  0.936013D+01
      8 -0.631138D+00  0.149949D+01  0.998085D+01
      9 -0.483264D+01 -0.409158D+00  0.161067D+00  0.117479D+02
     10  0.117219D+00  0.241371D+00  0.608481D-01  0.692761D-01  0.747944D+01
     11  0.512984D-01 -0.836531D-01 -0.237137D+00 -0.131366D-01 -0.282848D+01
     12 -0.130702D+00  0.700839D-01  0.169916D-02 -0.207773D+00 -0.227396D+00
     13  0.399629D+00  0.269125D-01  0.517845D-01  0.134506D-01  0.691251D-01
     14  0.711617D+00  0.173491D-01 -0.103742D-01  0.237106D-01  0.107078D+00
     15 -0.312338D+01  0.517959D-02  0.389329D-01  0.313220D-01  0.324575D-01
     16 -0.149203D+00  0.636137D-01  0.442059D-01 -0.644318D-01  0.152175D-01
     17 -0.449943D+00  0.611572D-01  0.213935D-01  0.106834D+00  0.320517D-01
     18 -0.787098D+00 -0.688483D-01  0.895110D-01  0.297796D-01 -0.711661D-01
     19  0.111339D-01 -0.260201D+01  0.101417D+01  0.187300D+00 -0.369510D-01
     20  0.442816D-01  0.125574D+01 -0.143815D+01  0.363752D+00 -0.718658D-01
     21  0.361230D-02  0.216263D+00  0.343750D+00 -0.316956D+01 -0.176555D-01
     22 -0.114497D-01 -0.130954D+01 -0.755375D-01 -0.106435D+01  0.554414D-01
     23 -0.187428D-01 -0.112418D+00 -0.300002D+01  0.839863D-01 -0.126184D-02
     24  0.188827D-01 -0.101712D+01  0.586826D-01 -0.235345D+01 -0.178090D-01
     25 -0.101437D-01 -0.290368D+01 -0.210666D-02  0.710548D+00  0.477671D-01
     26  0.456856D-01 -0.118498D-01 -0.309196D+01 -0.111608D+00  0.130817D-02
     27  0.619752D-01  0.593456D+00 -0.548370D-01 -0.870538D+00  0.546253D-01
     28 -0.144983D-01 -0.394656D-01  0.374254D-01  0.196400D-02 -0.242660D+01
     29 -0.713566D-03  0.815529D-01  0.298799D-01  0.178744D-01 -0.136638D+01
     30 -0.357620D-02  0.144868D-01  0.201983D-01 -0.315039D-01 -0.274005D+00
     31 -0.242602D-01  0.478277D-01  0.103879D-01 -0.994436D-02 -0.150050D+01
     32 -0.129057D-01  0.561604D-02 -0.104248D-01  0.555864D-03  0.508236D+00
     33 -0.338346D-01 -0.187487D-01 -0.648844D-02 -0.912293D-02 -0.103502D+01
               11            12            13            14            15 
     11  0.622773D+01
     12 -0.221871D+01  0.112548D+02
     13  0.844685D-01  0.324591D-01  0.271962D+01
     14  0.348104D-01  0.296687D-01 -0.123802D+01  0.131879D+01
     15  0.219981D-01 -0.311746D-01 -0.460192D+00 -0.796570D+00  0.317173D+01
     16  0.231064D-01 -0.209429D-01  0.450092D-01 -0.169328D-01 -0.438197D-01
     17 -0.161411D-01 -0.168823D-01 -0.191829D-01  0.341494D-01 -0.771307D-01
     18 -0.315892D-01  0.552054D-02 -0.319757D-01 -0.491821D-01 -0.571202D-01
     19 -0.256367D-01 -0.168029D-01 -0.167355D-01  0.158081D-01  0.264678D-02
     20  0.366029D-01 -0.274092D-02  0.232027D-01  0.877581D-01  0.178043D-01
     21  0.674045D-02 -0.237180D-01  0.127669D-02  0.121802D-01 -0.150004D-01
     22 -0.793477D-02 -0.423554D-02 -0.503888D-02 -0.207190D-01 -0.846024D-02
     23 -0.175258D-01 -0.200246D-02 -0.224216D-02  0.102120D-01  0.492627D-02
     24  0.472010D-02 -0.145351D-01  0.131633D-02  0.118528D-01  0.168191D-02
     25 -0.519679D-02  0.355017D-01  0.102406D-01  0.131722D-01 -0.822258D-02
     26 -0.227799D-01  0.129827D-02  0.133788D-01 -0.312669D-01  0.241412D-01
     27 -0.991981D-02  0.983600D-02 -0.117418D-01  0.118937D-01  0.278970D-02
     28 -0.111107D+01 -0.173443D+00 -0.572026D-02 -0.719591D-02 -0.243104D-02
     29 -0.143816D+01  0.305990D+00  0.658148D-02  0.986109D-02  0.505167D-02
     30  0.336725D+00 -0.320717D+01  0.990740D-03  0.162777D-02 -0.730607D-03
     31  0.493874D+00 -0.116525D+01  0.678770D-02  0.110477D-01  0.400550D-02
     32 -0.290544D+01 -0.369165D+00  0.233123D-02  0.358229D-02  0.227389D-02
     33 -0.325548D+00 -0.229116D+01 -0.579964D-02 -0.636400D-02 -0.300000D-02
               16            17            18            19            20 
     16  0.341387D+01
     17 -0.101442D+00  0.334063D+01
     18  0.256344D+00  0.511520D+00  0.491701D+00
     19  0.689093D-02  0.580267D-02 -0.916494D-02  0.264093D+01
     20  0.221554D-02 -0.762876D-02 -0.377139D-02 -0.938525D+00  0.123947D+01
     21  0.298132D-03  0.107864D-01 -0.454789D-03 -0.164957D+00 -0.356795D+00
     22 -0.537173D-02  0.584943D-02  0.934124D-02 -0.474097D-01 -0.573211D-01
     23  0.889662D-02 -0.717617D-03  0.479800D-03 -0.713251D-01  0.246663D-01
     24 -0.802816D-02  0.628605D-02 -0.280167D-02  0.108367D-01  0.142758D-01
     25 -0.670492D-02 -0.149278D-01  0.385491D-01  0.248787D-01 -0.493294D-01
     26 -0.828574D-02 -0.481218D-02 -0.342209D-01 -0.378842D-01  0.252182D-01
     27  0.254097D-01 -0.355654D-01  0.684376D-01 -0.476523D-01 -0.658474D-01
     28 -0.449523D-02 -0.354583D-02  0.630117D-02  0.271053D-04 -0.112415D-01
     29  0.590517D-02  0.586345D-02 -0.179670D-01  0.123637D-02 -0.419997D-01
     30 -0.986124D-03 -0.116111D-02 -0.171202D-02  0.669172D-02 -0.567050D-02
     31  0.312345D-02  0.335432D-02 -0.133759D-01  0.135519D-01 -0.179136D-01
     32  0.203835D-02 -0.476936D-04 -0.514062D-02 -0.317442D-02 -0.545555D-02
     33 -0.422722D-02 -0.265860D-02  0.858221D-02 -0.235896D-02  0.783574D-02
               21            22            23            24            25 
     21  0.324647D+01
     22  0.364377D-01  0.111107D+01
     23  0.335760D-01  0.220374D+00  0.293145D+01
     24  0.496184D-01  0.106827D+01 -0.114108D+00  0.240380D+01
     25 -0.836488D-01  0.441010D-01  0.212066D-02  0.671847D-01  0.268294D+01
     26 -0.865215D-01 -0.173273D-02  0.462156D-01  0.133272D-02  0.785849D-01
     27 -0.249279D-01  0.362110D-01 -0.557011D-02 -0.757788D-01 -0.786989D+00
     28  0.423624D-02  0.193736D-02  0.181048D-02  0.771464D-03  0.565923D-02
     29 -0.605623D-03  0.143090D-01 -0.189215D-02 -0.452194D-02  0.137066D-01
     30 -0.307255D-01  0.421598D-03  0.109725D-04 -0.362278D-02  0.121136D-01
     31 -0.633769D-02  0.110988D-01 -0.502876D-03 -0.513098D-02  0.794445D-02
     32  0.297408D-03  0.262887D-02 -0.928377D-03 -0.110899D-02  0.195099D-02
     33 -0.308605D-02 -0.642291D-02  0.388326D-03  0.186283D-02 -0.293070D-02
               26            27            28            29            30 
     26  0.311221D+01
     27  0.167406D+00  0.843220D+00
     28  0.386340D-02  0.579526D-02  0.249531D+01
     29 -0.314593D-02  0.154070D-01  0.125596D+01  0.123060D+01
     30  0.327885D-02  0.448814D-02  0.168533D+00 -0.272325D+00  0.323403D+01
     31  0.173645D-03  0.101745D-01 -0.921136D-01  0.816854D-01  0.106569D+00
     32 -0.106470D-02  0.244326D-02  0.785996D-01  0.630402D-01 -0.464604D-01
     33  0.160424D-03 -0.583646D-02  0.716343D-01 -0.319451D-01  0.418021D-01
               31            32            33 
     31  0.128489D+01
     32 -0.639011D+00  0.289876D+01
     33  0.119795D+01  0.475528D+00  0.222907D+01
 Leave Link  701 at Sat Mar  9 01:34:22 2019, MaxMem=   671088640 cpu:               7.5 elap:               0.4
 (Enter /shared/centos7/gaussian/g16/l702.exe)
 L702 exits ... SP integral derivatives will be done elsewhere.
 Leave Link  702 at Sat Mar  9 01:34:22 2019, MaxMem=   671088640 cpu:               0.4 elap:               0.0
 (Enter /shared/centos7/gaussian/g16/l703.exe)
 Integral derivatives from FoFJK, PRISM(SPDF).
 Compute integral second derivatives, UseDBF=F ICtDFT=           0.
 ICntrl=    100147.
 Calling FoFJK, ICntrl=    100147 FMM=F ISym2X=0 I1Cent= 0 IOpClX= 1 NMat=1 NMatS=1 NMatT=0.
 FoFJK:  IHMeth= 1 ICntrl=  100147 DoSepK=F KAlg= 0 I1Cent=           0 FoldK=F
 IRaf=         0 NMat=       1 IRICut=       1 DoRegI=T DoRafI=F ISym2E= 0 IDoP0=0 IntGTp=1.
 FoFCou: FMM=F IPFlag=           0 FMFlag=      100000 FMFlg1=         800
         NFxFlg=           0 DoJE=F BraDBF=F KetDBF=F FulRan=T
         wScrn=  0.000000 ICntrl=    100147 IOpCl=  1 I1Cent=           0 NGrid=           0
         NMat0=    1 NMatS0=      1 NMatT0=    0 NMatD0=    1 NMtDS0=    0 NMtDT0=    0
 Symmetry not used in FoFCou.
 FoFCou:  KetSym=F NOpSet=  1 NOpAb=1 NOp=  1.
 FoFCou:  CnvScl= 1.00D+00 Thresh= 1.00D-08 IAcrcy=      12.
 PrismS was handed   670825390 working-precision words and  2263 shell-pairs
 FoFCou: LinMIO=F DoNuc=F BraDBF=F KetDBF=F HaveP=T PDBF=F HaveZ=T HaveW=F
         NIJTC =      15 NIJTAt=       0 NIJTCD=       0 NIJTT =      15
         IJTBeg=       1 IJTEnd=      15 KLTBeg=       1 KLTEnd=      15
         IPTBeg=       1 IPTEnd=      15 IPTBCv=       1 IPTECv=      15
         IZTBeg=       1 IZTEnd=      15 IZTBCv=       1 IZTECv=      15
         IWTBeg=      16 IWTEnd=      15 IWTBCv=      16 IWTECv=      15
         INTBeg=       1 INTEnd=       0 IFTBCv=       1 IFTECv=      15
 NCel replicated for PrismC:     1
 CoulSu-InSpLW:  IPartL=    0 NPrtUS=   20 NPrtUL=    1 DoSpLW=F IThBeg=    0 IThEnd=   19 NThAct=   20.
 CoulSu:  IncDef=  1024 NBBP=        2561716 NTPThr=   100 NPartT=   20 Incr=        1024 LDynOK=F GPUOK=T.
 CoulSu:  NPrtUS=  20 ThrOK=T IAlg=1 NPAlg=1 LenDen=           0 LWGrdD=           0 DoCopy=F ISkipM=0
          DoSpLW=F IThBeg=    0 IThEnd=   19.
 Enter PrismC:  IPart=  0 JobTyp=22 DoJE=F Cont=F.
 PrismC:  IPart=     0 DynPar=T LinDyn=F Incr=        1024 UseFst=F UseS4=T ISplat=2.
 PrismC was handed    33498080 working-precision words and  2263 shell-pairs
 Enter PrismC:  IPart= 18 JobTyp=22 DoJE=F Cont=F.
 Enter PrismC:  IPart=  4 JobTyp=22 DoJE=F Cont=F.
 Enter PrismC:  IPart=  1 JobTyp=22 DoJE=F Cont=F.
 PrismC:  IPart=     4 DynPar=T LinDyn=F Incr=        1024 UseFst=F UseS4=T ISplat=2.
 PrismC:  IPart=    18 DynPar=T LinDyn=F Incr=        1024 UseFst=F UseS4=T ISplat=2.
 PrismC was handed    33498080 working-precision words and  2263 shell-pairs
 PrismC was handed    33498080 working-precision words and  2263 shell-pairs
 PrismC:  IPart=     1 DynPar=T LinDyn=F Incr=        1024 UseFst=F UseS4=T ISplat=2.
 PrismC was handed    33498080 working-precision words and  2263 shell-pairs
 Enter PrismC:  IPart=  7 JobTyp=22 DoJE=F Cont=F.
 Enter PrismC:  IPart= 11 JobTyp=22 DoJE=F Cont=F.
 PrismC:  IPart=     7 DynPar=T LinDyn=F Incr=        1024 UseFst=F UseS4=T ISplat=2.
 PrismC was handed    33498080 working-precision words and  2263 shell-pairs
 Enter PrismC:  IPart=  9 JobTyp=22 DoJE=F Cont=F.
 PrismC:  IPart=    11 DynPar=T LinDyn=F Incr=        1024 UseFst=F UseS4=T ISplat=2.
 PrismC was handed    33498080 working-precision words and  2263 shell-pairs
 Enter PrismC:  IPart=  8 JobTyp=22 DoJE=F Cont=F.
 PrismC:  IPart=     9 DynPar=T LinDyn=F Incr=        1024 UseFst=F UseS4=T ISplat=2.
 PrismC was handed    33498080 working-precision words and  2263 shell-pairs
 Enter PrismC:  IPart= 19 JobTyp=22 DoJE=F Cont=F.
 PrismC:  IPart=    19 DynPar=T LinDyn=F Incr=        1024 UseFst=F UseS4=T ISplat=2.
 Enter PrismC:  IPart= 15 JobTyp=22 DoJE=F Cont=F.
 PrismC:  IPart=     8 DynPar=T LinDyn=F Incr=        1024 UseFst=F UseS4=T ISplat=2.
 PrismC was handed    33498080 working-precision words and  2263 shell-pairs
 PrismC was handed    33498080 working-precision words and  2263 shell-pairs
 PrismC:  IPart=    15 DynPar=T LinDyn=F Incr=        1024 UseFst=F UseS4=T ISplat=2.
 PrismC was handed    33498080 working-precision words and  2263 shell-pairs
 Enter PrismC:  IPart= 16 JobTyp=22 DoJE=F Cont=F.
 Enter PrismC:  IPart= 12 JobTyp=22 DoJE=F Cont=F.
 Enter PrismC:  IPart=  2 JobTyp=22 DoJE=F Cont=F.
 PrismC:  IPart=    16 DynPar=T LinDyn=F Incr=        1024 UseFst=F UseS4=T ISplat=2.
 PrismC:  IPart=    12 DynPar=T LinDyn=F Incr=        1024 UseFst=F UseS4=T ISplat=2.
 PrismC was handed    33498080 working-precision words and  2263 shell-pairs
 Enter PrismC:  IPart=  5 JobTyp=22 DoJE=F Cont=F.
 PrismC was handed    33498080 working-precision words and  2263 shell-pairs
 PrismC:  IPart=     5 DynPar=T LinDyn=F Incr=        1024 UseFst=F UseS4=T ISplat=2.
 PrismC was handed    33498080 working-precision words and  2263 shell-pairs
[...]
    R3        2.86620   0.00000   0.00000   0.00000   0.00000   2.86620
    R4        2.05657   0.00000   0.00000   0.00000   0.00000   2.05657
    R5        2.06677   0.00000   0.00000   0.00000   0.00000   2.06677
    R6        2.05866   0.00000   0.00000  -0.00000  -0.00000   2.05866
    R7        2.05904   0.00000   0.00000   0.00000   0.00000   2.05904
    R8        2.05764  -0.00000   0.00000   0.00000   0.00000   2.05764
    R9        2.04316   0.00000   0.00000   0.00000   0.00000   2.04316
   R10        2.03493  -0.00000   0.00000  -0.00000  -0.00000   2.03493
    A1        2.01645  -0.00000   0.00000  -0.00000  -0.00000   2.01645
    A2        1.94733   0.00000   0.00000   0.00000   0.00000   1.94733
    A3        1.84465  -0.00000   0.00000   0.00000   0.00000   1.84465
    A4        1.90362   0.00000   0.00000   0.00000   0.00000   1.90362
    A5        1.93384  -0.00000   0.00000  -0.00000  -0.00000   1.93384
    A6        1.94245  -0.00000   0.00000  -0.00000  -0.00000   1.94245
    A7        1.88848   0.00000   0.00000  -0.00000  -0.00000   1.88848
    A8        1.93794  -0.00000   0.00000   0.00000   0.00000   1.93794
    A9        1.92273   0.00000   0.00000  -0.00000  -0.00000   1.92273
   A10        1.92334   0.00000   0.00000   0.00000   0.00000   1.92334
   A11        1.88976  -0.00000   0.00000  -0.00000  -0.00000   1.88976
   A12        1.89229   0.00000   0.00000   0.00000   0.00000   1.89229
   A13        1.89680  -0.00000   0.00000  -0.00000  -0.00000   1.89680
   A14        2.07678   0.00000   0.00000   0.00000   0.00000   2.07678
   A15        2.00172   0.00000   0.00000   0.00000   0.00000   2.00172
   A16        2.12737  -0.00000   0.00000  -0.00000  -0.00000   2.12737
    D1        1.39646  -0.00000   0.00000  -0.00001  -0.00001   1.39645
    D2       -2.78338  -0.00000   0.00000  -0.00001  -0.00001  -2.78339
    D3       -0.75654  -0.00000   0.00000  -0.00001  -0.00001  -0.75655
    D4       -0.24334  -0.00000   0.00000  -0.00001  -0.00001  -0.24335
    D5       -2.98086  -0.00000   0.00000  -0.00001  -0.00001  -2.98087
    D6       -1.07714   0.00000   0.00000  -0.00000  -0.00000  -1.07714
    D7        3.11265   0.00000   0.00000  -0.00000  -0.00000   3.11265
    D8        1.01983   0.00000   0.00000  -0.00000  -0.00000   1.01983
    D9       -3.12740  -0.00000   0.00000  -0.00000  -0.00000  -3.12740
   D10        1.06239  -0.00000   0.00000  -0.00000  -0.00000   1.06239
   D11       -1.03043  -0.00000   0.00000  -0.00000  -0.00000  -1.03043
   D12        1.05365   0.00000   0.00000  -0.00000  -0.00000   1.05365
   D13       -1.03975   0.00000   0.00000  -0.00000  -0.00000  -1.03975
   D14       -3.13257   0.00000   0.00000  -0.00000  -0.00000  -3.13257
   D15       -2.70735  -0.00000   0.00000  -0.00000  -0.00000  -2.70735
         Item               Value     Threshold  Converged?
 Maximum Force            0.000000     0.000002     YES
 RMS     Force            0.000000     0.000001     YES
 Maximum Displacement     0.000018     0.000006     NO 
 RMS     Displacement     0.000005     0.000004     NO 
 Predicted change in Energy=-9.749421D-13
                           ----------------------------
                           ! Non-Optimized Parameters !
                           ! (Angstroms and Degrees)  !
 --------------------------                            --------------------------
 ! Name  Definition              Value          Derivative Info.                !
 --------------------------------------------------------------------------------
 ! R1    R(1,2)                  1.4199         -DE/DX =    0.0                 !
 ! R2    R(1,4)                  1.3468         -DE/DX =    0.0                 !
 ! R3    R(2,3)                  1.5167         -DE/DX =    0.0                 !
 ! R4    R(2,5)                  1.0883         -DE/DX =    0.0                 !
 ! R5    R(2,6)                  1.0937         -DE/DX =    0.0                 !
 ! R6    R(3,7)                  1.0894         -DE/DX =    0.0                 !
 ! R7    R(3,8)                  1.0896         -DE/DX =    0.0                 !
 ! R8    R(3,9)                  1.0889         -DE/DX =    0.0                 !
 ! R9    R(4,10)                 1.0812         -DE/DX =    0.0                 !
 ! R10   R(4,11)                 1.0768         -DE/DX =    0.0                 !
 ! A1    A(2,1,4)              115.534          -DE/DX =    0.0                 !
 ! A2    A(1,2,3)              111.574          -DE/DX =    0.0                 !
 ! A3    A(1,2,5)              105.6908         -DE/DX =    0.0                 !
 ! A4    A(1,2,6)              109.0692         -DE/DX =    0.0                 !
 ! A5    A(3,2,5)              110.8008         -DE/DX =    0.0                 !
 ! A6    A(3,2,6)              111.2941         -DE/DX =    0.0                 !
 ! A7    A(5,2,6)              108.2017         -DE/DX =    0.0                 !
 ! A8    A(2,3,7)              111.0357         -DE/DX =    0.0                 !
 ! A9    A(2,3,8)              110.1642         -DE/DX =    0.0                 !
 ! A10   A(2,3,9)              110.1995         -DE/DX =    0.0                 !
 ! A11   A(7,3,8)              108.2752         -DE/DX =    0.0                 !
 ! A12   A(7,3,9)              108.4203         -DE/DX =    0.0                 !
 ! A13   A(8,3,9)              108.6788         -DE/DX =    0.0                 !
 ! A14   A(1,4,10)             118.9906         -DE/DX =    0.0                 !
 ! A15   A(1,4,11)             114.6903         -DE/DX =    0.0                 !
 ! A16   A(10,4,11)            121.8894         -DE/DX =    0.0                 !
 ! D1    D(4,1,2,3)             80.0109         -DE/DX =    0.0                 !
 ! D2    D(4,1,2,5)           -159.4764         -DE/DX =    0.0                 !
 ! D3    D(4,1,2,6)            -43.3471         -DE/DX =    0.0                 !
 ! D4    D(2,1,4,10)           -13.9427         -DE/DX =    0.0                 !
 ! D5    D(2,1,4,11)          -170.791          -DE/DX =    0.0                 !
 ! D6    D(1,2,3,7)            -61.7157         -DE/DX =    0.0                 !
 ! D7    D(1,2,3,8)            178.3417         -DE/DX =    0.0                 !
 ! D8    D(1,2,3,9)             58.4318         -DE/DX =    0.0                 !
 ! D9    D(5,2,3,7)           -179.1869         -DE/DX =    0.0                 !
 ! D10   D(5,2,3,8)             60.8705         -DE/DX =    0.0                 !
 ! D11   D(5,2,3,9)            -59.0394         -DE/DX =    0.0                 !
 ! D12   D(6,2,3,7)             60.3695         -DE/DX =    0.0                 !
 ! D13   D(6,2,3,8)            -59.5732         -DE/DX =    0.0                 !
 ! D14   D(6,2,3,9)           -179.4831         -DE/DX =    0.0                 !
 ! D15   D(1,4,10,11)         -155.1198         -DE/DX =    0.0                 !
 --------------------------------------------------------------------------------
 GradGradGradGradGradGradGradGradGradGradGradGradGradGradGradGradGradGrad

 Leave Link  103 at Sat Mar  9 01:48:14 2019, MaxMem=   671088640 cpu:               0.4 elap:               0.0
 (Enter /shared/centos7/gaussian/g16/l9999.exe)

 ----------------------------------------------------------------------

 Electric dipole moment (input orientation):
 (Debye = 10**-18 statcoulomb cm , SI units = C m)
                  (au)            (Debye)         (10**-30 SI)
   Tot        0.630622D+00      0.160288D+01      0.534664D+01
   x         -0.313266D-01     -0.796243D-01     -0.265598D+00
   y          0.291834D+00      0.741769D+00      0.247427D+01
   z         -0.558154D+00     -0.141869D+01     -0.473223D+01

 Dipole polarizability, Alpha (input orientation).
 (esu units = cm**3 , SI units = C**2 m**2 J**-1)
 Alpha(0;0):
               (au)            (10**-24 esu)      (10**-40 SI)
   iso        0.434081D+02      0.643241D+01      0.715702D+01
   aniso      0.116957D+02      0.173312D+01      0.192836D+01
   xx         0.443168D+02      0.656708D+01      0.730686D+01
   yx        -0.391157D+01     -0.579635D+00     -0.644931D+00
   yy         0.423515D+02      0.627585D+01      0.698282D+01
   zx         0.508618D+01      0.753694D+00      0.838598D+00
   zy        -0.185604D+01     -0.275037D+00     -0.306020D+00
   zz         0.435558D+02      0.645431D+01      0.718139D+01

 ----------------------------------------------------------------------

 Dipole orientation:
     8          0.62583234         -0.06798545         -1.79377742
     6          0.07027750         -1.04866437          0.64132584
     6         -0.19792299          1.04209330          2.58346142
     6          3.05781449          0.56831898         -2.19156548
     1         -1.69450192         -2.08418013          0.43455457
     1          1.54652017         -2.39033267          1.18185594
     1          1.55703600          2.10080673          2.77662772
     1         -0.67771031          0.24662019          4.42103810
     1         -1.68610654          2.34721820          2.02147407
     1          4.31679112          0.71888865         -0.58943525
     1          3.40005372          1.57583326         -3.92613344

 Electric dipole moment (dipole orientation):
 (Debye = 10**-18 statcoulomb cm , SI units = C m)
                  (au)            (Debye)         (10**-30 SI)
   Tot        0.630622D+00      0.160288D+01      0.534664D+01
   x          0.000000D+00      0.000000D+00      0.000000D+00
   y          0.000000D+00      0.000000D+00      0.000000D+00
   z          0.630622D+00      0.160288D+01      0.534664D+01

 Dipole polarizability, Alpha (dipole orientation).
 (esu units = cm**3 , SI units = C**2 m**2 J**-1)
 Alpha(0;0):
               (au)            (10**-24 esu)      (10**-40 SI)
   iso        0.434081D+02      0.643241D+01      0.715702D+01
   aniso      0.116957D+02      0.173312D+01      0.192836D+01
   xx         0.437170D+02      0.647819D+01      0.720795D+01
   yx         0.104815D+01      0.155320D+00      0.172817D+00
   yy         0.410599D+02      0.608445D+01      0.676986D+01
   zx        -0.627053D+01     -0.929197D+00     -0.103387D+01
   zy        -0.542518D+00     -0.803929D-01     -0.894491D-01
   zz         0.454473D+02      0.673460D+01      0.749325D+01

 ----------------------------------------------------------------------

 Test job not archived.
 1\1\GINC-C0249\Freq\UM062X\6-311+G(2df,2p)\C3H7O1(2)\UNDERKOFFLER.C\09
 -Mar-2019\0\\#P Geom=AllCheck Guess=TCheck SCRF=Check Test GenChk UM06
 2X/6-311+G(2df,2p) Freq\\Gaussian input prepared by ASE\\0,2\O,0.37833
 48898,-0.4033473384,0.8403427085\C,0.0270492168,0.6493924621,-0.045417
 2444\C,-0.1792362618,0.1425789048,-1.4600004881\C,1.6699502328,-0.7835
 311812,0.8068996376\H,-0.893491405,1.0730861741,0.3514044548\H,0.80166
 96958,1.4206105267,-0.0088308478\H,0.7363223498,-0.2953909599,-1.85587
 27638\H,-0.4759678329,0.9626078523,-2.1132454667\H,-0.9593674357,-0.61
 68298275,-1.4772740826\H,2.2922125835,-0.4536896776,-0.013452302\H,1.8
 899135947,-1.6786819991,1.3635881321\\Version=EM64L-G16RevA.03\State=2
 -A\HF=-193.6528665\S2=0.754687\S2-1=0.\S2A=0.750016\RMSD=5.625e-09\RMS
 F=5.440e-07\ZeroPoint=0.0948782\Thermal=0.1005108\Dipole=-0.0313266,0.
 2918343,-0.558154\DipoleDeriv=-1.1457175,0.3923728,-0.2603408,0.398573
 3,-0.6198921,0.360501,-0.1255489,0.2696713,-0.56133,0.3858371,-0.07537
 06,0.1351812,-0.2603304,0.5943602,-0.2318248,0.2488741,-0.2236633,0.63
 43871,0.0512234,0.0057764,-0.0156494,0.0380072,0.0177934,-0.0641018,-0
 .057279,-0.008568,-0.127407,0.7778311,-0.3616863,0.0610385,-0.2872094,
 0.0068015,-0.2880881,-0.1489402,-0.2202756,-0.0691756,-0.0719168,0.096
 7408,0.0345436,0.0616087,0.0157108,0.0013362,0.0432235,-0.0275964,-0.0
 161804,-0.0421184,-0.1458805,-0.0185728,-0.0186521,-0.0754007,0.019656
 9,-0.0601318,-0.0056756,-0.0127559,-0.0655059,0.0550799,0.0594972,0.04
 1678,0.0355344,-0.0513294,0.0198432,-0.0282464,0.0303624,0.0615539,0.0
 344485,-0.040566,0.0408175,-0.042003,0.0888082,-0.0548403,0.0698438,-0
 .0132852,-0.0160496,-0.0845603,-0.0162633,-0.0898054,-0.0152575,-0.032
 901,0.0208976,0.0056113,0.039299,0.0245688,0.0628197,0.0273071,0.00385
 82,0.0812977,0.0938954,0.1045443,0.0897503,-0.0046892,0.040294,0.02025
 97,0.0338249,0.0714544,0.0010553,0.1040474,0.0093575,0.0791487,0.10077
 46\Polar=44.3168206,-3.9115697,42.3515294,5.0861805,-1.8560436,43.5558
 274\Quadrupole=0.5196569,0.6560649,-1.1757219,-1.0676027,-0.0706962,-0
 .495264\PG=C01 [X(C3H7O1)]\NImag=0\\0.49423590,-0.15402396,0.27928475,
 0.00519274,-0.16560365,0.21256259,-0.09110053,0.00924513,0.00297412,0.
 64074138,0.03442210,-0.15769095,0.07540735,0.00597572,0.53574692,-0.02
 240052,0.08325661,-0.12850852,-0.04223460,0.03234195,0.47134257,-0.001
 88621,0.00115292,-0.01493192,-0.08663781,-0.00706859,-0.00991475,0.579
 71721,0.01246533,0.00259542,0.03817360,-0.00839675,-0.10150377,-0.0580
 9557,-0.00486137,0.57797016,-0.00869877,0.00814915,-0.03258206,-0.0121
 9432,-0.04900391,-0.17848900,-0.01362917,-0.03103380,0.49733970,-0.361
 12695,0.09915337,0.00672075,-0.02354036,0.01682310,-0.00915824,0.00264
 695,-0.00460084,0.00034558,0.56985271,0.07409008,-0.07352582,0.0498792
 3,0.03760453,-0.02130166,0.00332076,-0.00014658,0.00155129,-0.00165245
 ,-0.12136370,0.40576977,0.04328585,0.04023752,-0.05387100,-0.02769553,
 0.00622437,-0.00150892,-0.00130143,0.00321624,-0.00191619,-0.12527555,
 -0.30562705,0.38341097,-0.00849920,0.00649843,-0.00205595,-0.24665398,
 0.08375977,0.08568212,0.00646028,-0.00336100,-0.00229037,0.00136883,0.
 00195567,-0.00109299,0.26349553,0.03113373,-0.01763896,-0.00090985,0.0
 7450293,-0.08528340,-0.03695932,0.00964532,-0.00324375,-0.00643916,-0.
 00224070,-0.00305329,0.00190882,-0.09629884,0.09821495,-0.02602683,0.0
 1544778,0.00462053,0.09339459,-0.04203449,-0.08672410,0.02740024,-0.01
 234951,-0.01302414,-0.00022134,0.00362598,-0.00182022,-0.08888472,0.03
 584279,0.09873528,0.00649193,0.00922270,-0.00044140,-0.18980039,-0.128
 36271,-0.00537035,-0.00173147,-0.00179021,0.00008859,0.00388074,0.0021
 6272,-0.00048209,-0.01815151,-0.01858444,-0.00183757,0.19701741,-0.010
 58914,-0.03223686,0.01232659,-0.12077831,-0.16675151,-0.01105361,-0.00
 877912,-0.00589993,-0.00225317,-0.00575836,0.00198869,0.00060357,0.007
 75513,0.01062177,0.00031386,0.13713037,0.19159379,0.01115306,0.0277793
 9,-0.00587107,-0.01009393,-0.01213437,-0.05008629,-0.02428543,-0.02292
 441,-0.00127531,0.00393827,-0.00209929,0.00038427,0.00902903,0.0082109
 3,0.00144076,0.00986684,0.00244931,0.05887777,0.00075286,-0.00011424,0
 .00132381,0.00547435,-0.00248841,-0.00198264,-0.24207249,0.09051980,0.
 08163553,-0.00077632,-0.00031780,-0.00046455,0.00113310,-0.00019171,-0
 .00192169,0.00072500,0.00010972,0.00084439,0.26052408,-0.00147379,0.00
 077537,0.00044877,0.01147748,-0.00654481,-0.00343795,0.08982078,-0.090
 27539,-0.03892061,0.00071457,-0.00003400,-0.00002170,-0.00098116,0.000
 34152,-0.00217248,0.00020551,-0.00003094,0.00036245,-0.09993014,0.0943
 8854,-0.00085509,0.00089054,0.00324596,0.02936487,-0.01437042,-0.01269
 620,0.08075156,-0.03746703,-0.08034679,0.00068375,0.00034385,-0.000407
 82,-0.00180813,-0.00207692,-0.00559672,-0.00041977,0.00077832,0.001413
 32,-0.08831732,0.04461613,0.08772983,0.00058700,0.00006442,-0.00129731
 ,-0.00312360,0.00354240,-0.00097976,-0.06645202,0.05546380,-0.04452618
 ,0.00031943,-0.00036680,-0.00017375,0.00009449,-0.00011065,-0.00014661
 ,-0.00008458,-0.00018643,0.00023096,-0.00690636,0.01991793,-0.01768071
 ,0.06773199,-0.00081081,0.00121059,-0.00370619,-0.00348260,0.00879263,
 -0.00592293,0.05593651,-0.20249897,0.12220734,0.00026461,0.00024944,-0
 .00032909,0.00033343,0.00035463,0.00076027,-0.00011633,0.00026101,0.00
 094801,0.00212507,-0.00938600,0.00695542,-0.06143667,0.21680166,-0.003
 71183,-0.00073412,-0.00859288,-0.00733726,0.02571579,-0.01270643,-0.04
 425828,0.12075197,-0.14362004,0.00252502,-0.00055716,-0.00043740,0.000
 97133,-0.00004344,0.00082357,-0.00050093,-0.00041853,0.00109228,0.0024
 5184,-0.00982626,0.00781325,0.04910666,-0.13353135,0.15509872,0.000447
 65,0.00070395,0.00034575,-0.00294804,-0.00275191,-0.00072126,-0.189636
 68,-0.13583698,-0.00044402,-0.00068424,0.00021994,0.00011898,0.0007031
 9,0.00050081,-0.00046587,0.00143350,-0.00024444,-0.00045527,-0.0185435
 6,-0.01951707,-0.00047573,0.00755190,0.00742710,0.00108028,0.20147389,
 0.00037856,0.00197992,0.00016519,-0.00838284,-0.01015555,0.00050095,-0
 .13556005,-0.17850387,-0.00164133,0.00045726,-0.00025169,-0.00019923,0
 .00019631,0.00002800,0.00018563,0.00040585,0.00053430,-0.00224999,0.01
 011782,0.01048867,0.00056939,-0.01712417,-0.01565060,-0.00130372,0.149
 61273,0.19149522,0.00174286,0.00043342,0.00328869,-0.02555967,-0.02533
 093,-0.00210850,0.00035608,0.00059147,-0.04655683,-0.00029568,0.000396
 58,0.00008310,0.00040720,0.00064939,0.00155242,-0.00064327,-0.00175873
 ,-0.00616823,0.00732163,0.00860435,-0.00081922,0.01538558,0.01254795,0
 .00018474,0.00125479,0.00395092,0.05061121,-0.02711425,-0.00427885,0.0
 2442310,0.00141370,-0.00410290,0.00314502,-0.00025256,0.00007983,-0.00
 021565,-0.13534974,-0.03597788,0.12209321,0.00037280,0.00026739,-0.000
 20019,0.00014017,0.00075141,-0.00013108,-0.00033271,-0.00006467,-0.000
 97369,0.00023616,-0.00010717,-0.00016181,0.00016109,-0.00004902,0.0000
 6271,0.15395713,0.01015922,0.00245489,-0.00720052,0.00154407,0.0020829
 8,-0.00260492,-0.00005185,0.00006373,0.00046187,-0.04040160,-0.0620371
 0,0.09174437,-0.00018883,-0.00030078,0.00005854,-0.00019909,-0.0004004
 6,-0.00023595,0.00017422,0.00026518,-0.00025858,0.00021695,-0.00015060
 ,-0.00014223,-0.00008668,0.00000691,-0.00008025,0.04191337,0.05967568,
 -0.00013847,-0.00473245,0.00463825,-0.00130466,0.00167296,-0.00032529,
 -0.00019704,-0.00048830,-0.00002364,0.14011060,0.10299370,-0.21066462,
 0.00000173,-0.00022809,0.00007702,-0.00018385,-0.00083585,0.00037933,-
 0.00100827,0.00021733,-0.00050960,0.00009214,0.00003279,0.00025094,-0.
 00007096,-0.00000763,-0.00002902,-0.14293575,-0.09618829,0.21168476,-0
 .01278822,0.03237613,-0.02225369,-0.00382472,0.00025142,0.00393498,-0.
 00015519,0.00031839,-0.00007122,-0.05659104,0.04213982,-0.00901215,-0.
 00032353,0.00137617,-0.00109002,0.00007919,0.00058916,-0.00009682,0.00
 002204,-0.00016944,-0.00026972,0.00004561,-0.00013316,-0.00016501,0.00
 004131,-0.00005244,-0.00003222,0.00676821,-0.01307978,0.00563453,0.066
 72635,0.00424868,-0.00720834,0.00101948,0.00069064,0.00260914,-0.00134
 596,-0.00008797,-0.00025490,0.00012609,0.05695228,-0.24935562,0.162242
 19,0.00033110,-0.00004068,0.00032163,-0.00007439,0.00032015,-0.0001060
 8,-0.00000432,0.00001185,0.00001929,0.00001923,0.00001623,0.00008906,-
 0.00002746,0.00002871,-0.00000416,0.00156849,-0.00166041,-0.00243617,-
 0.06361626,0.25553389,0.00045700,-0.00512419,0.00106950,0.00068641,0.0
 0151169,0.00181068,0.00001015,-0.00037466,0.00049430,-0.01937315,0.149
 37586,-0.11325218,0.00004076,0.00004486,-0.00008439,-0.00007621,-0.000
 15177,-0.00018683,0.00011727,0.00012997,0.00017399,-0.00001100,0.00003
 779,0.00009325,-0.00016669,0.00002983,-0.00003835,-0.00510586,0.014445
 97,-0.00547813,0.02342134,-0.15992536,0.11539815\\-0.00000076,0.000000
 16,-0.00000001,0.00000006,0.00000043,-0.00000046,0.00000054,0.00000009
 ,-0.00000026,-0.00000055,-0.00000037,0.00000065,0.00000015,0.00000059,
 -0.00000069,0.00000041,-0.00000013,-0.00000001,0.00000051,-0.00000030,
 0.00000015,0.00000115,0.00000011,-0.00000049,0.00000024,0.00000041,-0.
 00000053,-0.00000034,-0.00000065,0.00000086,-0.00000141,-0.00000036,0.
 00000081\\\@


 IF YOU GIVE A BOY AND A PIG EVERYTHING THEY WANT,
 YOU'LL GET A BAD BOY AND A GOOD PIG.
 Job cpu time:       0 days  1 hours  4 minutes 45.2 seconds.
 Elapsed time:       0 days  0 hours  3 minutes 15.4 seconds.
 File lengths (MBytes):  RWF=   1328 Int=      0 D2E=      0 Chk=     32 Scr=     32
 Normal termination of Gaussian 16 at Sat Mar  9 01:48:14 2019.
