 Entering Gaussian System, Link 0=g16
 Input=OTMSDBZUPAUEDD-UHFFFAOYSA-N_GeoFreq_a1.com
 Output=OTMSDBZUPAUEDD-UHFFFAOYSA-N_GeoFreq_a1.log
 Initial command:
 /shared/centos7/gaussian/g16/l1.exe "/scratch/underkoffler.c/gaussian_scratch/Gau-28281.inp" -scrdir="/scratch/underkoffler.c/gaussian_scratch/"
 Entering Link 1 = /shared/centos7/gaussian/g16/l1.exe PID=     28282.
  
 Copyright (c) 1988,1990,1992,1993,1995,1998,2003,2009,2016,
            Gaussian, Inc.  All Rights Reserved.
  
 This is part of the Gaussian(R) 16 program.  It is based on
 the Gaussian(R) 09 system (copyright 2009, Gaussian, Inc.),
 the Gaussian(R) 03 system (copyright 2003, Gaussian, Inc.),
 the Gaussian(R) 98 system (copyright 1998, Gaussian, Inc.),
 the Gaussian(R) 94 system (copyright 1995, Gaussian, Inc.),
 the Gaussian 92(TM) system (copyright 1992, Gaussian, Inc.),
 the Gaussian 90(TM) system (copyright 1990, Gaussian, Inc.),
 the Gaussian 88(TM) system (copyright 1988, Gaussian, Inc.),
 the Gaussian 86(TM) system (copyright 1986, Carnegie Mellon
 University), and the Gaussian 82(TM) system (copyright 1983,
 Carnegie Mellon University). Gaussian is a federally registered
 trademark of Gaussian, Inc.
  
 This software contains proprietary and confidential information,
 including trade secrets, belonging to Gaussian, Inc.
  
 This software is provided under written license and may be
 used, copied, transmitted, or stored only in accord with that
 written license.
  
 The following legend is applicable only to US Government
 contracts under FAR:
  
                    RESTRICTED RIGHTS LEGEND
  
 Use, reproduction and disclosure by the US Government is
 subject to restrictions as set forth in subparagraphs (a)
 and (c) of the Commercial Computer Software - Restricted
 Rights clause in FAR 52.227-19.
  
 Gaussian, Inc.
 340 Quinnipiac St., Bldg. 40, Wallingford CT 06492
  
  
 ---------------------------------------------------------------
 Warning -- This program may not be used in any manner that
 competes with the business of Gaussian, Inc. or will provide
 assistance to any competitor of Gaussian, Inc.  The licensee
 of this program is prohibited from giving any competitor of
 Gaussian, Inc. access to this program.  By using this program,
 the user acknowledges that Gaussian, Inc. is engaged in the
 business of creating and licensing software in the field of
 computational chemistry and represents and warrants to the
 licensee that it is not a competitor of Gaussian, Inc. and that
 it will not use this program in any manner prohibited above.
 ---------------------------------------------------------------
  

 Cite this work as:
 Gaussian 16, Revision A.03,
 M. J. Frisch, G. W. Trucks, H. B. Schlegel, G. E. Scuseria, 
 M. A. Robb, J. R. Cheeseman, G. Scalmani, V. Barone, 
 G. A. Petersson, H. Nakatsuji, X. Li, M. Caricato, A. V. Marenich, 
 J. Bloino, B. G. Janesko, R. Gomperts, B. Mennucci, H. P. Hratchian, 
 J. V. Ortiz, A. F. Izmaylov, J. L. Sonnenberg, D. Williams-Young, 
 F. Ding, F. Lipparini, F. Egidi, J. Goings, B. Peng, A. Petrone, 
 T. Henderson, D. Ranasinghe, V. G. Zakrzewski, J. Gao, N. Rega, 
 G. Zheng, W. Liang, M. Hada, M. Ehara, K. Toyota, R. Fukuda, 
 J. Hasegawa, M. Ishida, T. Nakajima, Y. Honda, O. Kitao, H. Nakai, 
 T. Vreven, K. Throssell, J. A. Montgomery, Jr., J. E. Peralta, 
 F. Ogliaro, M. J. Bearpark, J. J. Heyd, E. N. Brothers, K. N. Kudin, 
 V. N. Staroverov, T. A. Keith, R. Kobayashi, J. Normand, 
 K. Raghavachari, A. P. Rendell, J. C. Burant, S. S. Iyengar, 
 J. Tomasi, M. Cossi, J. M. Millam, M. Klene, C. Adamo, R. Cammi, 
 J. W. Ochterski, R. L. Martin, K. Morokuma, O. Farkas, 
 J. B. Foresman, and D. J. Fox, Gaussian, Inc., Wallingford CT, 2016.
 
 ******************************************
 Gaussian 16:  EM64L-G16RevA.03 25-Dec-2016
                 8-Mar-2019 
 ******************************************
 ----------------------------------------------------------------------
 #p m062x/6-311+g(2df,2p) opt=(calcfc,verytight,gdiis,maxcycles=900) fr
 eq iop(7/33=1,2/16=3)
 ----------------------------------------------------------------------

 Warning!  Use of Opt=GDIIS is deprecated since it is seldom a good choice.

 1/6=900,7=1,10=4,18=20,19=11,26=3,38=1/1,3;
 2/9=110,12=2,16=3,17=6,18=5,40=1/2;
 3/5=4,6=6,7=214,11=2,25=1,30=1,71=2,74=-55,140=1/1,2,3;
 4//1;
 5/5=2,38=5/2;
 8/6=4,10=90,11=11/1;
 11/6=1,8=1,9=11,15=111,16=1/1,2,10;
 10/6=1,13=1/2;
 6/7=2,8=2,9=2,10=2,28=1/1;
 7/10=1,18=20,25=1,33=1/1,2,3,16;
 1/6=900,7=1,10=4,18=20,19=11,26=3/3(2);
 2/9=110,16=3/2;
 99//99;
 2/9=110,16=3/2;
 3/5=4,6=6,7=214,11=2,25=1,30=1,71=1,74=-55/1,2,3;
 4/5=5,16=3,69=1/1;
 5/5=2,38=5/2;
 7/33=1/1,2,3,16;
 1/6=900,7=1,18=20,19=11,26=3/3(-5);
 2/9=110,16=3/2;
 6/7=2,8=2,9=2,10=2,19=2,28=1/1;
 99/9=1/99;
 Leave Link    1 at Fri Mar  8 00:14:16 2019, MaxMem=           0 cpu:               0.1 elap:               1.0
 (Enter /shared/centos7/gaussian/g16/l101.exe)
 ------------------------------
 Gaussian input prepared by ASE
 ------------------------------
 Symbolic Z-matrix:
 Charge =  0 Multiplicity = 1
 C                     0.7731   -0.0098   -0.0105 
 C                    -0.7531   -0.0257   -0.053 
 H                     1.2234   -0.1493   -1.0015 
 H                     1.0445    1.0128    0.3551 
 H                     1.0524   -0.7817    0.7301 
 H                    -1.1415    0.8406   -0.6126 
 H                    -1.0495    0.0965    1.0212 
 H                    -1.1494   -0.9834   -0.4289 
 
 ITRead=  0  0  0  0  0  0  0  0
 MicOpt= -1 -1 -1 -1 -1 -1 -1 -1
 NAtoms=      8 NQM=        8 NQMF=       0 NMMI=      0 NMMIF=      0
                NMic=       0 NMicF=      0.
                    Isotopes and Nuclear Properties:
 (Nuclear quadrupole moments (NQMom) in fm**2, nuclear magnetic moments (NMagM)
  in nuclear magnetons)

  Atom         1           2           3           4           5           6           7           8
 IAtWgt=          12          12           1           1           1           1           1           1
 AtmWgt=  12.0000000  12.0000000   1.0078250   1.0078250   1.0078250   1.0078250   1.0078250   1.0078250
 NucSpn=           0           0           1           1           1           1           1           1
 AtZEff=  -0.0000000  -0.0000000  -0.0000000  -0.0000000  -0.0000000  -0.0000000  -0.0000000  -0.0000000
 NQMom=    0.0000000   0.0000000   0.0000000   0.0000000   0.0000000   0.0000000   0.0000000   0.0000000
 NMagM=    0.0000000   0.0000000   2.7928460   2.7928460   2.7928460   2.7928460   2.7928460   2.7928460
 AtZNuc=   6.0000000   6.0000000   1.0000000   1.0000000   1.0000000   1.0000000   1.0000000   1.0000000
 Leave Link  101 at Fri Mar  8 00:14:16 2019, MaxMem=   104857600 cpu:               0.2 elap:               0.3
 (Enter /shared/centos7/gaussian/g16/l103.exe)

 GradGradGradGradGradGradGradGradGradGradGradGradGradGradGradGradGradGrad
 Berny optimization.
 Initialization pass.
                           ----------------------------
                           !    Initial Parameters    !
                           ! (Angstroms and Degrees)  !
 --------------------------                            --------------------------
 ! Name  Definition              Value          Derivative Info.                !
 --------------------------------------------------------------------------------
 ! R1    R(1,2)                  1.5269         calculate D2E/DX2 analytically  !
 ! R2    R(1,3)                  1.0974         calculate D2E/DX2 analytically  !
 ! R3    R(1,4)                  1.1194         calculate D2E/DX2 analytically  !
 ! R4    R(1,5)                  1.1056         calculate D2E/DX2 analytically  !
 ! R5    R(2,6)                  1.102          calculate D2E/DX2 analytically  !
 ! R6    R(2,7)                  1.121          calculate D2E/DX2 analytically  !
 ! R7    R(2,8)                  1.1025         calculate D2E/DX2 analytically  !
 ! A1    A(2,1,3)              112.5624         calculate D2E/DX2 analytically  !
 ! A2    A(2,1,4)              105.1265         calculate D2E/DX2 analytically  !
 ! A3    A(2,1,5)              105.301          calculate D2E/DX2 analytically  !
 ! A4    A(3,1,4)              108.1543         calculate D2E/DX2 analytically  !
 ! A5    A(3,1,5)              114.3623         calculate D2E/DX2 analytically  !
 ! A6    A(4,1,5)              110.9638         calculate D2E/DX2 analytically  !
 ! A7    A(1,2,6)              110.9916         calculate D2E/DX2 analytically  !
 ! A8    A(1,2,7)              103.6787         calculate D2E/DX2 analytically  !
 ! A9    A(1,2,8)              112.1992         calculate D2E/DX2 analytically  !
 ! A10   A(6,2,7)              107.9209         calculate D2E/DX2 analytically  !
 ! A11   A(6,2,8)              112.5211         calculate D2E/DX2 analytically  !
 ! A12   A(7,2,8)              109.0478         calculate D2E/DX2 analytically  !
 ! D1    D(3,1,2,6)            -65.9433         calculate D2E/DX2 analytically  !
 ! D2    D(3,1,2,7)            178.4252         calculate D2E/DX2 analytically  !
 ! D3    D(3,1,2,8)             60.9031         calculate D2E/DX2 analytically  !
 ! D4    D(4,1,2,6)             51.5616         calculate D2E/DX2 analytically  !
 ! D5    D(4,1,2,7)            -64.0699         calculate D2E/DX2 analytically  !
 ! D6    D(4,1,2,8)            178.408          calculate D2E/DX2 analytically  !
 ! D7    D(5,1,2,6)            168.8322         calculate D2E/DX2 analytically  !
 ! D8    D(5,1,2,7)             53.2007         calculate D2E/DX2 analytically  !
 ! D9    D(5,1,2,8)            -64.3214         calculate D2E/DX2 analytically  !
 --------------------------------------------------------------------------------
 Trust Radius=3.00D-01 FncErr=1.00D-07 GrdErr=1.00D-06 EigMax=2.50D+02 EigMin=1.00D-04
 Number of steps in this run=    100 maximum allowed number of steps=    100.
 GradGradGradGradGradGradGradGradGradGradGradGradGradGradGradGradGradGrad

 Leave Link  103 at Fri Mar  8 00:14:16 2019, MaxMem=   104857600 cpu:               0.0 elap:               0.0
 (Enter /shared/centos7/gaussian/g16/l202.exe)
                          Input orientation:                          
 ---------------------------------------------------------------------
 Center     Atomic      Atomic             Coordinates (Angstroms)
 Number     Number       Type             X           Y           Z
 ---------------------------------------------------------------------
      1          6           0        0.773100   -0.009800   -0.010500
      2          6           0       -0.753100   -0.025700   -0.053000
      3          1           0        1.223400   -0.149300   -1.001500
      4          1           0        1.044500    1.012800    0.355100
      5          1           0        1.052400   -0.781700    0.730100
      6          1           0       -1.141500    0.840600   -0.612600
      7          1           0       -1.049500    0.096500    1.021200
      8          1           0       -1.149400   -0.983400   -0.428900
 ---------------------------------------------------------------------
                    Distance matrix (angstroms):
                    1          2          3          4          5
     1  C    0.000000
     2  C    1.526874   0.000000
     3  H    1.097411   2.195787   0.000000
     4  H    1.119389   2.115749   1.795228   0.000000
     5  H    1.105589   2.108225   1.851380   1.833281   0.000000
     6  H    2.179770   1.102036   2.593048   2.396809   3.041036
     7  H    2.097040   1.121022   3.052508   2.380784   2.296510
     8  H    2.195213   1.102517   2.579491   3.068007   2.496375
                    6          7          8
     6  H    0.000000
     7  H    1.797624   0.000000
     8  H    1.833244   1.810788   0.000000
 Stoichiometry    C2H6
 Framework group  C1[X(C2H6)]
 Deg. of freedom    18
 Full point group                 C1      NOp   1
 Largest Abelian subgroup         C1      NOp   1
 Largest concise Abelian subgroup C1      NOp   1
                         Standard orientation:                         
 ---------------------------------------------------------------------
 Center     Atomic      Atomic             Coordinates (Angstroms)
 Number     Number       Type             X           Y           Z
 ---------------------------------------------------------------------
      1          6           0        0.767422   -0.007624   -0.013774
      2          6           0       -0.759372    0.007249   -0.018770
      3          1           0        1.195021    0.342454   -0.961885
      4          1           0        1.063934    0.713094    0.789768
      5          1           0        1.048225   -1.041591    0.258966
      6          1           0       -1.143921    1.037913   -0.084625
      7          1           0       -1.031739   -0.398743    0.990030
      8          1           0       -1.179820   -0.650881   -0.796993
 ---------------------------------------------------------------------
 Rotational constants (GHZ):          75.8012895          20.4290868          20.3231595
 Leave Link  202 at Fri Mar  8 00:14:16 2019, MaxMem=   104857600 cpu:               0.0 elap:               0.0
 (Enter /shared/centos7/gaussian/g16/l301.exe)
 Standard basis: 6-311+G(2df,2p) (5D, 7F)
 Ernie: Thresh=  0.10000D-02 Tol=  0.10000D-05 Strict=F.
 There are   132 symmetry adapted cartesian basis functions of A   symmetry.
 There are   122 symmetry adapted basis functions of A   symmetry.
   122 basis functions,   170 primitive gaussians,   132 cartesian basis functions
     9 alpha electrons        9 beta electrons
       nuclear repulsion energy        42.1001940474 Hartrees.
 IExCor= 4336 DFT=T Ex+Corr=M062X ExCW=0 ScaHFX=  0.540000
 ScaDFX=  1.000000  1.000000  1.000000  1.000000 ScalE2=  1.000000  1.000000
 IRadAn=      5 IRanWt=     -1 IRanGd=            0 ICorTp=0 IEmpDi=  4
 NAtoms=    8 NActive=    8 NUniq=    8 SFac= 1.00D+00 NAtFMM=   60 NAOKFM=F Big=F
 Integral buffers will be    131072 words long.
 Raffenetti 2 integral format.
 Two-electron integral symmetry is turned on.
 Leave Link  301 at Fri Mar  8 00:14:16 2019, MaxMem=   104857600 cpu:               0.1 elap:               0.1
 (Enter /shared/centos7/gaussian/g16/l302.exe)
 NPDir=0 NMtPBC=     1 NCelOv=     1 NCel=       1 NClECP=     1 NCelD=      1
         NCelK=      1 NCelE2=     1 NClLst=     1 CellRange=     0.0.
 One-electron integrals computed using PRISM.
 One-electron integral symmetry used in STVInt
 NBasis=   122 RedAO= T EigKep=  1.58D-04  NBF=   122
 NBsUse=   122 1.00D-06 EigRej= -1.00D+00 NBFU=   122
 Precomputing XC quadrature grid using
 IXCGrd= 4 IRadAn=           5 IRanWt=          -1 IRanGd=           0 AccXCQ= 0.00D+00.
 Generated NRdTot=       0 NPtTot=           0 NUsed=           0 NTot=          32
 NSgBfM=   132   132   132   132   132 MxSgAt=     8 MxSgA2=     8.
 Leave Link  302 at Fri Mar  8 00:14:16 2019, MaxMem=   104857600 cpu:               0.4 elap:               0.4
 (Enter /shared/centos7/gaussian/g16/l303.exe)
 DipDrv:  MaxL=1.
 Leave Link  303 at Fri Mar  8 00:14:17 2019, MaxMem=   104857600 cpu:               0.1 elap:               0.1
 (Enter /shared/centos7/gaussian/g16/l401.exe)
 ExpMin= 4.38D-02 ExpMax= 4.56D+03 ExpMxC= 6.82D+02 IAcc=3 IRadAn=         5 AccDes= 0.00D+00
 Harris functional with IExCor= 1009 and IRadAn=       5 diagonalized for initial guess.
 HarFok:  IExCor= 1009 AccDes= 0.00D+00 IRadAn=         5 IDoV= 1 UseB2=F ITyADJ=14
 ICtDFT=  3500011 ScaDFX=  1.000000  1.000000  1.000000  1.000000
 FoFCou: FMM=F IPFlag=           0 FMFlag=      100000 FMFlg1=           0
         NFxFlg=           0 DoJE=T BraDBF=F KetDBF=T FulRan=T
         wScrn=  0.000000 ICntrl=       500 IOpCl=  0 I1Cent=   200000004 NGrid=           0
         NMat0=    1 NMatS0=      1 NMatT0=    0 NMatD0=    1 NMtDS0=    0 NMtDT0=    0
 Petite list used in FoFCou.
 Harris En= -79.8242261439321    
 JPrj=0 DoOrth=F DoCkMO=F.
 Leave Link  401 at Fri Mar  8 00:14:19 2019, MaxMem=   104857600 cpu:               2.7 elap:               2.7
 (Enter /shared/centos7/gaussian/g16/l502.exe)
 Keep R1 ints in memory in canonical form, NReq=30149346.
 FoFCou: FMM=F IPFlag=           0 FMFlag=           0 FMFlg1=           0
         NFxFlg=           0 DoJE=F BraDBF=F KetDBF=F FulRan=T
         wScrn=  0.000000 ICntrl=       600 IOpCl=  0 I1Cent=           0 NGrid=           0
         NMat0=    1 NMatS0=   7503 NMatT0=    0 NMatD0=    1 NMtDS0=    0 NMtDT0=    0
 Symmetry not used in FoFCou.
 Two-electron integral symmetry not used.
 Closed shell SCF:
 Using DIIS extrapolation, IDIIS=  1040.
 NGot=   104857600 LenX=    76669324 LenY=    76651459
 Requested convergence on RMS density matrix=1.00D-08 within 128 cycles.
 Requested convergence on MAX density matrix=1.00D-06.
 Requested convergence on             energy=1.00D-06.
 No special actions if energy rises.

 Cycle   1  Pass 1  IDiag  1:
 E= -79.6652763703254    
 DIIS: error= 3.89D-02 at cycle   1 NSaved=   1.
 NSaved= 1 IEnMin= 1 EnMin= -79.6652763703254     IErMin= 1 ErrMin= 3.89D-02
 ErrMax= 3.89D-02  0.00D+00 EMaxC= 1.00D-01 BMatC= 1.36D-01 BMatP= 1.36D-01
 IDIUse=3 WtCom= 6.11D-01 WtEn= 3.89D-01
 Coeff-Com:  0.100D+01
 Coeff-En:   0.100D+01
 Coeff:      0.100D+01
 Gap=     0.359 Goal=   None    Shift=    0.000
 GapD=    0.359 DampG=1.000 DampE=0.500 DampFc=0.5000 IDamp=-1.
 Damping current iteration by 5.00D-01
 RMSDP=3.17D-03 MaxDP=1.08D-01              OVMax= 1.64D-01

 Cycle   2  Pass 1  IDiag  1:
 E= -79.7321803092743     Delta-E=       -0.066903938949 Rises=F Damp=T
 DIIS: error= 6.02D-03 at cycle   2 NSaved=   2.
 NSaved= 2 IEnMin= 2 EnMin= -79.7321803092743     IErMin= 2 ErrMin= 6.02D-03
 ErrMax= 6.02D-03  0.00D+00 EMaxC= 1.00D-01 BMatC= 4.88D-03 BMatP= 1.36D-01
 IDIUse=3 WtCom= 9.40D-01 WtEn= 6.02D-02
 Coeff-Com: -0.664D-01 0.107D+01
 Coeff-En:   0.000D+00 0.100D+01
 Coeff:     -0.624D-01 0.106D+01
 Gap=     0.438 Goal=   None    Shift=    0.000
 RMSDP=6.09D-04 MaxDP=8.46D-03 DE=-6.69D-02 OVMax= 9.05D-02

 Cycle   3  Pass 1  IDiag  1:
 E= -79.7959382542282     Delta-E=       -0.063757944954 Rises=F Damp=F
 DIIS: error= 2.53D-03 at cycle   3 NSaved=   3.
 NSaved= 3 IEnMin= 3 EnMin= -79.7959382542282     IErMin= 3 ErrMin= 2.53D-03
 ErrMax= 2.53D-03  0.00D+00 EMaxC= 1.00D-01 BMatC= 2.57D-04 BMatP= 4.88D-03
 IDIUse=3 WtCom= 9.75D-01 WtEn= 2.53D-02
 Coeff-Com: -0.314D-01 0.136D+00 0.895D+00
 Coeff-En:   0.000D+00 0.000D+00 0.100D+01
 Coeff:     -0.306D-01 0.133D+00 0.898D+00
 Gap=     0.419 Goal=   None    Shift=    0.000
 RMSDP=7.31D-05 MaxDP=1.09D-03 DE=-6.38D-02 OVMax= 5.12D-03

 Cycle   4  Pass 1  IDiag  1:
 E= -79.7961704604181     Delta-E=       -0.000232206190 Rises=F Damp=F
 DIIS: error= 6.80D-04 at cycle   4 NSaved=   4.
 NSaved= 4 IEnMin= 4 EnMin= -79.7961704604181     IErMin= 4 ErrMin= 6.80D-04
 ErrMax= 6.80D-04  0.00D+00 EMaxC= 1.00D-01 BMatC= 8.44D-06 BMatP= 2.57D-04
 IDIUse=3 WtCom= 9.93D-01 WtEn= 6.80D-03
 Coeff-Com: -0.175D-02 0.610D-03 0.154D+00 0.847D+00
 Coeff-En:   0.000D+00 0.000D+00 0.000D+00 0.100D+01
 Coeff:     -0.174D-02 0.605D-03 0.153D+00 0.848D+00
 Gap=     0.419 Goal=   None    Shift=    0.000
 RMSDP=1.61D-05 MaxDP=3.50D-04 DE=-2.32D-04 OVMax= 1.39D-03

 Cycle   5  Pass 1  IDiag  1:
 E= -79.7961787927966     Delta-E=       -0.000008332378 Rises=F Damp=F
 DIIS: error= 5.57D-05 at cycle   5 NSaved=   5.
 NSaved= 5 IEnMin= 5 EnMin= -79.7961787927966     IErMin= 5 ErrMin= 5.57D-05
 ErrMax= 5.57D-05  0.00D+00 EMaxC= 1.00D-01 BMatC= 1.56D-07 BMatP= 8.44D-06
 IDIUse=1 WtCom= 1.00D+00 WtEn= 0.00D+00
 Coeff-Com:  0.129D-02-0.335D-02-0.301D-01-0.409D-01 0.107D+01
 Coeff:      0.129D-02-0.335D-02-0.301D-01-0.409D-01 0.107D+01
 Gap=     0.419 Goal=   None    Shift=    0.000
 RMSDP=4.17D-06 MaxDP=1.12D-04 DE=-8.33D-06 OVMax= 2.94D-04

 Cycle   6  Pass 1  IDiag  1:
 E= -79.7961789968304     Delta-E=       -0.000000204034 Rises=F Damp=F
 DIIS: error= 2.52D-05 at cycle   6 NSaved=   6.
 NSaved= 6 IEnMin= 6 EnMin= -79.7961789968304     IErMin= 6 ErrMin= 2.52D-05
 ErrMax= 2.52D-05  0.00D+00 EMaxC= 1.00D-01 BMatC= 2.95D-08 BMatP= 1.56D-07
 IDIUse=1 WtCom= 1.00D+00 WtEn= 0.00D+00
 Coeff-Com:  0.516D-03-0.129D-02-0.167D-01-0.414D-01 0.407D+00 0.652D+00
 Coeff:      0.516D-03-0.129D-02-0.167D-01-0.414D-01 0.407D+00 0.652D+00
 Gap=     0.419 Goal=   None    Shift=    0.000
 RMSDP=9.49D-07 MaxDP=3.67D-05 DE=-2.04D-07 OVMax= 6.68D-05

 Cycle   7  Pass 1  IDiag  1:
 E= -79.7961790244579     Delta-E=       -0.000000027627 Rises=F Damp=F
 DIIS: error= 5.19D-06 at cycle   7 NSaved=   7.
 NSaved= 7 IEnMin= 7 EnMin= -79.7961790244579     IErMin= 7 ErrMin= 5.19D-06
 ErrMax= 5.19D-06  0.00D+00 EMaxC= 1.00D-01 BMatC= 1.43D-09 BMatP= 2.95D-08
 IDIUse=1 WtCom= 1.00D+00 WtEn= 0.00D+00
 Coeff-Com: -0.799D-04 0.154D-03 0.316D-03-0.160D-02-0.420D-01 0.139D+00
 Coeff-Com:  0.904D+00
 Coeff:     -0.799D-04 0.154D-03 0.316D-03-0.160D-02-0.420D-01 0.139D+00
 Coeff:      0.904D+00
 Gap=     0.419 Goal=   None    Shift=    0.000
 RMSDP=2.41D-07 MaxDP=6.58D-06 DE=-2.76D-08 OVMax= 1.63D-05

 Cycle   8  Pass 1  IDiag  1:
 E= -79.7961790259954     Delta-E=       -0.000000001538 Rises=F Damp=F
 DIIS: error= 4.40D-07 at cycle   8 NSaved=   8.
 NSaved= 8 IEnMin= 8 EnMin= -79.7961790259954     IErMin= 8 ErrMin= 4.40D-07
 ErrMax= 4.40D-07  0.00D+00 EMaxC= 1.00D-01 BMatC= 1.33D-11 BMatP= 1.43D-09
 IDIUse=1 WtCom= 1.00D+00 WtEn= 0.00D+00
 Coeff-Com: -0.209D-04 0.461D-04 0.229D-03 0.825D-04-0.134D-01 0.188D-01
 Coeff-Com:  0.176D+00 0.818D+00
 Coeff:     -0.209D-04 0.461D-04 0.229D-03 0.825D-04-0.134D-01 0.188D-01
 Coeff:      0.176D+00 0.818D+00
 Gap=     0.419 Goal=   None    Shift=    0.000
 RMSDP=2.93D-08 MaxDP=4.85D-07 DE=-1.54D-09 OVMax= 2.03D-06

 Cycle   9  Pass 1  IDiag  1:
 E= -79.7961790260126     Delta-E=       -0.000000000017 Rises=F Damp=F
 DIIS: error= 9.67D-08 at cycle   9 NSaved=   9.
 NSaved= 9 IEnMin= 9 EnMin= -79.7961790260126     IErMin= 9 ErrMin= 9.67D-08
 ErrMax= 9.67D-08  0.00D+00 EMaxC= 1.00D-01 BMatC= 6.71D-13 BMatP= 1.33D-11
 IDIUse=1 WtCom= 1.00D+00 WtEn= 0.00D+00
 Coeff-Com:  0.288D-05-0.397D-05-0.911D-05 0.321D-04 0.623D-03-0.521D-02
 Coeff-Com: -0.274D-01 0.106D+00 0.926D+00
 Coeff:      0.288D-05-0.397D-05-0.911D-05 0.321D-04 0.623D-03-0.521D-02
 Coeff:     -0.274D-01 0.106D+00 0.926D+00
 Gap=     0.419 Goal=   None    Shift=    0.000
 RMSDP=8.39D-09 MaxDP=1.54D-07 DE=-1.72D-11 OVMax= 5.47D-07

 SCF Done:  E(RM062X) =  -79.7961790260     A.U. after    9 cycles
            NFock=  9  Conv=0.84D-08     -V/T= 2.0063
 KE= 7.929392375679D+01 PE=-2.683072667728D+02 EE= 6.711696994257D+01
 Leave Link  502 at Fri Mar  8 00:15:09 2019, MaxMem=   104857600 cpu:              50.1 elap:              50.1
 (Enter /shared/centos7/gaussian/g16/l801.exe)
 DoSCS=F DFT=T ScalE2(SS,OS)=  1.000000  1.000000
 Range of M.O.s used for correlation:     1   122
 NBasis=   122 NAE=     9 NBE=     9 NFC=     0 NFV=     0
 NROrb=    122 NOA=     9 NOB=     9 NVA=   113 NVB=   113

 **** Warning!!: The largest alpha MO coefficient is  0.37672446D+02

 Leave Link  801 at Fri Mar  8 00:15:09 2019, MaxMem=   104857600 cpu:               0.1 elap:               0.1
 (Enter /shared/centos7/gaussian/g16/l1101.exe)
 Using compressed storage, NAtomX=     8.
 Will process      9 centers per pass.
 Leave Link 1101 at Fri Mar  8 00:15:10 2019, MaxMem=   104857600 cpu:               0.3 elap:               0.3
 (Enter /shared/centos7/gaussian/g16/l1102.exe)
 Symmetrizing basis deriv contribution to polar:
 IMax=3 JMax=2 DiffMx= 0.00D+00
 Leave Link 1102 at Fri Mar  8 00:15:10 2019, MaxMem=   104857600 cpu:               0.1 elap:               0.1
 (Enter /shared/centos7/gaussian/g16/l1110.exe)
 Forming Gx(P) for the SCF density, NAtomX=     8.
 Integral derivatives from FoFJK, PRISM(SPDF).
 Do as many integral derivatives as possible in FoFJK.
 G2DrvN: MDV=     104856888.
 G2DrvN: will do     9 centers at a time, making    1 passes.
 Calling FoFCou, ICntrl=  3107 FMM=F I1Cent=   0 AccDes= 0.00D+00.
 FoFJK:  IHMeth= 1 ICntrl=    3107 DoSepK=F KAlg= 0 I1Cent=           0 FoldK=F
 IRaf=         0 NMat=       1 IRICut=       1 DoRegI=T DoRafI=F ISym2E= 0 IDoP0=0 IntGTp=1.
 FoFCou: FMM=F IPFlag=           0 FMFlag=      100000 FMFlg1=           0
         NFxFlg=           0 DoJE=F BraDBF=F KetDBF=F FulRan=T
         wScrn=  0.000000 ICntrl=      3107 IOpCl=  0 I1Cent=           0 NGrid=           0
         NMat0=    1 NMatS0=      1 NMatT0=    0 NMatD0=    1 NMtDS0=    0 NMtDT0=    0
 Symmetry not used in FoFCou.
 End of G2Drv F.D. properties file   721 does not exist.
 End of G2Drv F.D. properties file   722 does not exist.
 End of G2Drv F.D. properties file   788 does not exist.
 Leave Link 1110 at Fri Mar  8 00:17:05 2019, MaxMem=   104857600 cpu:             115.6 elap:             115.7
 (Enter /shared/centos7/gaussian/g16/l1002.exe)
 Minotr:  Closed shell wavefunction.
          IDoAtm=11111111
          Direct CPHF calculation.
          Differentiating once with respect to nuclear coordinates.
          Requested convergence is 1.0D-08 RMS, and 1.0D-07 maximum.
          Secondary convergence is 1.0D-12 RMS, and 1.0D-12 maximum.
          NewPWx=T KeepS1=F KeepF1=F KeepIn=T MapXYZ=F SortEE=F KeepMc=T.
         2427 words used for storage of precomputed grid.
 Keep R1 ints in memory in canonical form, NReq=30152781.
 FoFCou: FMM=F IPFlag=           0 FMFlag=           0 FMFlg1=           0
         NFxFlg=           0 DoJE=F BraDBF=F KetDBF=F FulRan=T
         wScrn=  0.000000 ICntrl=       600 IOpCl=  0 I1Cent=           0 NGrid=           0
         NMat0=    1 NMatS0=   7503 NMatT0=    0 NMatD0=    1 NMtDS0=    0 NMtDT0=    0
 Symmetry not used in FoFCou.
 Two-electron integral symmetry not used.
          MDV=     104857600 using IRadAn=       1.
          Solving linear equations simultaneously, MaxMat=       0.
          There are    27 degrees of freedom in the 1st order CPHF.  IDoFFX=6 NUNeed=     0.
     21 vectors produced by pass  0 Test12= 3.77D-15 3.70D-09 XBig12= 4.45D-02 7.00D-02.
 AX will form    21 AO Fock derivatives at one time.
     21 vectors produced by pass  1 Test12= 3.77D-15 3.70D-09 XBig12= 1.48D-03 1.51D-02.
     21 vectors produced by pass  2 Test12= 3.77D-15 3.70D-09 XBig12= 3.25D-05 1.81D-03.
     21 vectors produced by pass  3 Test12= 3.77D-15 3.70D-09 XBig12= 2.96D-07 1.54D-04.
     21 vectors produced by pass  4 Test12= 3.77D-15 3.70D-09 XBig12= 1.46D-09 1.28D-05.
     21 vectors produced by pass  5 Test12= 3.77D-15 3.70D-09 XBig12= 1.07D-11 8.99D-07.
      7 vectors produced by pass  6 Test12= 3.77D-15 3.70D-09 XBig12= 3.23D-14 4.52D-08.
 InvSVY:  IOpt=1 It=  1 EMax= 1.22D-15
 Solved reduced A of dimension   133 with    21 vectors.
 End of Minotr F.D. properties file   721 does not exist.
 End of Minotr F.D. properties file   722 does not exist.
 End of Minotr F.D. properties file   788 does not exist.
 Leave Link 1002 at Fri Mar  8 00:19:31 2019, MaxMem=   104857600 cpu:             145.3 elap:             145.3
 (Enter /shared/centos7/gaussian/g16/l601.exe)
 Copying SCF densities to generalized density rwf, IOpCl= 0 IROHF=0.

 **********************************************************************

            Population analysis using the SCF density.

 **********************************************************************

 Orbital symmetries:
       Occupied  (A) (A) (A) (A) (A) (A) (A) (A) (A)
       Virtual   (A) (A) (A) (A) (A) (A) (A) (A) (A) (A) (A) (A)
                 (A) (A) (A) (A) (A) (A) (A) (A) (A) (A) (A) (A)
                 (A) (A) (A) (A) (A) (A) (A) (A) (A) (A) (A) (A)
                 (A) (A) (A) (A) (A) (A) (A) (A) (A) (A) (A) (A)
                 (A) (A) (A) (A) (A) (A) (A) (A) (A) (A) (A) (A)
                 (A) (A) (A) (A) (A) (A) (A) (A) (A) (A) (A) (A)
                 (A) (A) (A) (A) (A) (A) (A) (A) (A) (A) (A) (A)
                 (A) (A) (A) (A) (A) (A) (A) (A) (A) (A) (A) (A)
                 (A) (A) (A) (A) (A) (A) (A) (A) (A) (A) (A) (A)
                 (A) (A) (A) (A) (A)
 The electronic state is 1-A.
 Alpha  occ. eigenvalues --  -10.52560 -10.52485  -0.84928  -0.68751  -0.51067
 Alpha  occ. eigenvalues --   -0.50415  -0.41309  -0.40442  -0.39793
 Alpha virt. eigenvalues --    0.02098   0.04103   0.05162   0.05270   0.08672
 Alpha virt. eigenvalues --    0.08725   0.08780   0.13883   0.16500   0.17321
 Alpha virt. eigenvalues --    0.20547   0.21340   0.22526   0.26615   0.27410
 Alpha virt. eigenvalues --    0.42023   0.42222   0.45105   0.45182   0.47364
 Alpha virt. eigenvalues --    0.53527   0.53567   0.55301   0.55841   0.58226
 Alpha virt. eigenvalues --    0.59447   0.59702   0.66123   0.68393   0.74336
 Alpha virt. eigenvalues --    0.76751   0.84198   0.85063   0.85310   0.93885
 Alpha virt. eigenvalues --    1.01820   1.02136   1.13410   1.14921   1.16348
 Alpha virt. eigenvalues --    1.17911   1.19116   1.20225   1.21856   1.23205
 Alpha virt. eigenvalues --    1.31712   1.39293   1.40645   1.41629   1.41722
 Alpha virt. eigenvalues --    1.43156   1.43696   1.44141   1.53538   1.54734
 Alpha virt. eigenvalues --    1.56820   1.63246   2.38554   2.38782   2.51838
 Alpha virt. eigenvalues --    2.53889   2.57161   2.60135   2.74554   2.86220
 Alpha virt. eigenvalues --    2.87231   2.93296   3.02295   3.02929   3.07637
 Alpha virt. eigenvalues --    3.08464   3.09855   3.11084   3.17959   3.25758
 Alpha virt. eigenvalues --    3.26833   3.35717   3.37670   3.39507   3.52217
 Alpha virt. eigenvalues --    3.53890   3.58811   3.60093   3.76367   3.77158
 Alpha virt. eigenvalues --    3.80710   3.90064   3.92017   3.95437   3.98251
 Alpha virt. eigenvalues --    4.01141   4.05498   4.13005   4.15358   4.16169
 Alpha virt. eigenvalues --    4.17275   4.24765   4.28568   4.36557   4.38977
 Alpha virt. eigenvalues --    4.42088   4.49208   4.54041   4.62161   4.64123
 Alpha virt. eigenvalues --    5.10543   5.35650   5.48745   5.50041   5.53012
 Alpha virt. eigenvalues --    5.53737  24.24442  24.35473
          Condensed to atoms (all electrons):
               1          2          3          4          5          6
     1  C    4.946537   0.279802   0.408575   0.414157   0.411981  -0.035415
     2  C    0.279802   4.956763  -0.032031  -0.044498  -0.041309   0.411157
     3  H    0.408575  -0.032031   0.569875  -0.032898  -0.025047  -0.004558
     4  H    0.414157  -0.044498  -0.032898   0.586017  -0.029586  -0.008536
     5  H    0.411981  -0.041309  -0.025047  -0.029586   0.575132   0.007815
     6  H   -0.035415   0.411157  -0.004558  -0.008536   0.007815   0.571611
     7  H   -0.048619   0.415121   0.008146  -0.009073  -0.011179  -0.032776
     8  H   -0.030994   0.407714  -0.006343   0.007721  -0.005827  -0.025766
               7          8
     1  C   -0.048619  -0.030994
     2  C    0.415121   0.407714
     3  H    0.008146  -0.006343
     4  H   -0.009073   0.007721
     5  H   -0.011179  -0.005827
     6  H   -0.032776  -0.025766
     7  H    0.592418  -0.031445
     8  H   -0.031445   0.569065
 Mulliken charges:
               1
     1  C   -0.346025
     2  C   -0.352719
     3  H    0.114279
     4  H    0.116696
     5  H    0.118019
     6  H    0.116468
     7  H    0.117406
     8  H    0.115874
 Sum of Mulliken charges =  -0.00000
 Mulliken charges with hydrogens summed into heavy atoms:
               1
     1  C    0.002970
     2  C   -0.002970
 APT charges:
               1
     1  C   -0.898928
     2  C   -0.913429
     3  H    0.311627
     4  H    0.295037
     5  H    0.292055
     6  H    0.308532
     7  H    0.291852
     8  H    0.313254
 Sum of APT charges =  -0.00000
 APT charges with hydrogens summed into heavy atoms:
               1
     1  C   -0.000209
     2  C    0.000209
 Electronic spatial extent (au):  <R**2>=            109.3539
 Charge=             -0.0000 electrons
 Dipole moment (field-independent basis, Debye):
    X=             -0.0097    Y=              0.0090    Z=              0.0248  Tot=              0.0281
 Quadrupole moment (field-independent basis, Debye-Ang):
   XX=            -16.3161   YY=            -14.7667   ZZ=            -14.9887
   XY=              0.0597   XZ=             -0.0118   YZ=             -0.0063
 Traceless Quadrupole moment (field-independent basis, Debye-Ang):
   XX=             -0.9589   YY=              0.5905   ZZ=              0.3685
   XY=              0.0597   XZ=             -0.0118   YZ=             -0.0063
 Octapole moment (field-independent basis, Debye-Ang**2):
  XXX=             -0.1662  YYY=              0.0408  ZZZ=             -0.1100  XYY=             -0.0564
  XXY=              0.2067  XXZ=             -0.4873  XZZ=              0.0968  YZZ=             -0.0614
  YYZ=              0.1992  XYZ=             -0.2650
 Hexadecapole moment (field-independent basis, Debye-Ang**3):
 XXXX=            -96.5457 YYYY=            -31.0620 ZZZZ=            -31.1487 XXXY=              0.1999
 XXXZ=             -0.0550 YYYX=             -1.3412 YYYZ=              0.0159 ZZZX=             -0.7746
 ZZZY=             -0.0659 XXYY=            -19.9394 XXZZ=            -20.0662 YYZZ=            -10.3141
 XXYZ=              0.0562 YYXZ=              0.7694 ZZXY=              1.3926
 N-N= 4.210019404743D+01 E-N=-2.683072682197D+02  KE= 7.929392375679D+01
  Exact polarizability:   0.000   0.000   0.000   0.000   0.000   0.000
 Approx polarizability:  29.732   0.266  30.717  -0.043   0.001  30.585
 No NMR shielding tensors so no spin-rotation constants.
 Leave Link  601 at Fri Mar  8 00:19:31 2019, MaxMem=   104857600 cpu:               0.2 elap:               0.2
 (Enter /shared/centos7/gaussian/g16/l701.exe)
 SCFChk:  SCF convergence  8.39D-09 required  1.00D-08
 ... and contract with generalized density number  0.
 Compute integral second derivatives.
 Entering OneElI...
 Calculate overlap and kinetic energy integrals
    NBasis = 132  MinDer = 2  MaxDer = 2
 Requested accuracy = 0.1000D-12
 PrmmSu-InSpLW:  IPartL=    0 NPrtUS=    1 NPrtUL=    1 DoSpLW=F IThBeg=    0 IThEnd=    0 NThAct=    1.
 PrsmSu:  NPrtUS=   1 ThrOK=F IAlg=1 NPAlg=1 LenDen=           0 ISkipM=0 DoSpLW=F IThBeg=    0 IThEnd=    0.
 Prism:   IPart=     0 DynPar=F LinDyn=F Incr=          10.
 PRISM was handed   104719811 working-precision words and  1081 shell-pairs
 IPart=  0 NShTot=        1081 NBatch=          69 AvBLen=        15.7
 PrSmSu:  NxtVal=             11.
 Entering OneElI...
 Calculate potential energy integrals
    NBasis = 132  MinDer = 2  MaxDer = 2
 Requested accuracy = 0.1000D-12
 PrmmSu-InSpLW:  IPartL=    0 NPrtUS=    1 NPrtUL=    1 DoSpLW=F IThBeg=    0 IThEnd=    0 NThAct=    1.
 PrsmSu:  NPrtUS=   1 ThrOK=F IAlg=1 NPAlg=1 LenDen=           0 ISkipM=0 DoSpLW=F IThBeg=    0 IThEnd=    0.
 Prism:   IPart=     0 DynPar=F LinDyn=F Incr=          86.
 PRISM was handed   104738547 working-precision words and  1081 shell-pairs
 IPart=  0 NShTot=        8648 NBatch=        1081 AvBLen=         8.0
 PrSmSu:  NxtVal=             87.
 Polarizability after L701:
                1             2             3 
      1  0.000000D+00
      2  0.000000D+00  0.000000D+00
      3  0.000000D+00  0.000000D+00  0.000000D+00
 Dipole Derivatives after L701:
                 1             2             3             4             5 
      1  -0.671305D+00 -0.583065D-01 -0.398414D-01 -0.737019D+00 -0.131634D-01
      2  -0.265298D-01 -0.104169D+01  0.172313D-01  0.417873D-02 -0.101001D+01
      3   0.513987D-02  0.212526D-01 -0.983794D+00 -0.855009D-02 -0.201240D-01
                 6             7             8             9            10 
      1   0.697671D-01  0.290500D+00  0.201247D+00 -0.444726D+00  0.199343D+00
      2  -0.157681D-01  0.464004D-01  0.147153D+00 -0.124898D+00  0.459000D-01
      3  -0.993260D+00 -0.142356D+00 -0.162625D+00  0.497226D+00  0.473369D-01
                11            12            13            14            15 
      1   0.304834D+00  0.309109D+00  0.179806D+00 -0.441551D+00  0.134041D+00
      2   0.320019D+00  0.228979D+00 -0.504416D-01  0.565496D+00 -0.135735D+00
      3   0.244664D+00  0.365751D+00  0.622401D-02 -0.104671D+00  0.130863D+00
                16            17            18            19            20 
      1   0.262855D+00 -0.464613D+00  0.101086D-02  0.186814D+00  0.148987D+00
      2  -0.126734D+00  0.562766D+00 -0.126860D-01  0.172446D-01  0.175416D+00
      3   0.183275D-01 -0.539486D-01  0.999751D-01 -0.433310D-01 -0.163369D+00
                21            22            23            24 
      1  -0.381570D+00  0.289006D+00  0.322565D+00  0.352210D+00
      2  -0.167839D+00  0.899821D-01  0.280844D+00  0.210717D+00
      3   0.513327D+00  0.117209D+00  0.238821D+00  0.369911D+00
 Hessian after L701:
                1             2             3             4             5 
      1  0.631918D+01
      2 -0.132565D+00  0.801285D+01
      3  0.148711D+00  0.124950D+00  0.831346D+01
      4  0.208684D+00 -0.386792D-01 -0.433560D-02  0.619311D+01
      5 -0.440120D-01 -0.377119D+01 -0.260509D-03  0.498800D-01  0.815323D+01
      6  0.517597D-01 -0.249185D-02 -0.377188D+01 -0.156636D+00 -0.104898D+00
      7 -0.208682D+01  0.270519D+00 -0.657272D+00  0.159285D-01  0.279198D-02
      8  0.246543D+00 -0.214046D+01 -0.544440D+00  0.237841D-01 -0.983719D-02
      9 -0.616551D+00 -0.554764D+00 -0.101372D+01 -0.538856D-01 -0.225205D-01
     10 -0.220607D+01  0.355108D+00  0.374254D+00  0.127966D-01  0.100712D-02
     11  0.305696D+00 -0.148301D+01  0.884040D+00  0.423563D-01  0.192480D-01
     12  0.325866D+00  0.889041D+00 -0.136288D+01  0.419423D-01  0.356852D-01
     13 -0.228143D+01 -0.447049D+00  0.122346D+00  0.330226D-02  0.606568D-02
     14 -0.378306D+00 -0.684651D+00 -0.470048D+00 -0.535487D-01  0.585452D-01
     15  0.100730D+00 -0.463151D+00 -0.222851D+01  0.191314D-01 -0.193715D-01
     16  0.173977D-01 -0.105088D-01 -0.471573D-03 -0.213281D+01 -0.655193D+00
     17 -0.573380D-01  0.603577D-01 -0.750627D-02 -0.609290D+00 -0.723414D+00
     18 -0.215058D-02 -0.456874D-02 -0.168530D-01  0.299502D-01 -0.667712D-01
     19  0.109002D-01 -0.815928D-03  0.425472D-02 -0.222743D+01  0.174566D+00
     20  0.217074D-01 -0.237644D-02 -0.257945D-01  0.151006D+00 -0.206798D+01
     21 -0.536279D-01 -0.246205D-01  0.514117D-01 -0.379295D+00 -0.612109D+00
     22  0.181558D-01  0.399255D-02  0.125132D-01 -0.207357D+01  0.464894D+00
     23  0.382741D-01  0.848569D-02  0.390601D-01  0.434492D+00 -0.165860D+01
     24  0.452625D-01  0.356049D-01  0.289766D-01  0.503128D+00  0.790246D+00
                6             7             8             9            10 
      6  0.826933D+01
      7 -0.138990D-01  0.197847D+01
      8 -0.267903D-01 -0.287173D+00  0.212476D+01
      9  0.519643D-01  0.717881D+00  0.572826D+00  0.100062D+01
     10  0.109579D-02  0.443505D-01  0.125624D-01  0.698000D-02  0.211672D+01
     11  0.414479D-01  0.867021D-02  0.402518D-01 -0.700205D-02 -0.383800D+00
     12  0.280147D-01  0.181074D-02 -0.423918D-01 -0.700067D-01 -0.414977D+00
     13  0.206953D-02  0.320061D-01 -0.141850D-01 -0.337291D-02  0.393494D-01
     14 -0.197813D-01 -0.578814D-02 -0.988856D-02  0.263709D-01 -0.398384D-02
     15 -0.781847D-02 -0.799599D-02  0.572805D-01 -0.269299D-02  0.910874D-02
     16  0.255709D-01  0.827868D-03  0.353466D-02 -0.425629D-02 -0.133716D-01
     17 -0.556036D-01 -0.644583D-02 -0.277096D-02  0.102755D-01 -0.544655D-03
     18 -0.235348D+01  0.491019D-04 -0.184802D-02  0.187656D-02 -0.880598D-02
     19 -0.440723D+00  0.202103D-01  0.164497D-01 -0.422755D-01 -0.135675D-01
     20 -0.613800D+00  0.174271D-01 -0.703972D-02 -0.183873D-01 -0.931142D-02
     21 -0.768670D+00 -0.453730D-01 -0.192610D-01  0.338900D-01 -0.123467D-02
     22  0.530762D+00 -0.497146D-02 -0.151565D-02 -0.451960D-02  0.197991D-01
     23  0.781917D+00  0.000000D+00  0.498520D-02 -0.679841D-02  0.289629D-01
     24 -0.144747D+01  0.479936D-02  0.462553D-02 -0.193637D-02  0.335785D-01
               11            12            13            14            15 
     11  0.146528D+01
     12 -0.891334D+00  0.134891D+01
     13 -0.289634D-02  0.970645D-02  0.221459D+01
     14 -0.565216D-01 -0.152796D-01  0.487160D+00  0.650779D+00
     15 -0.503174D-01  0.342604D-01 -0.141958D+00  0.486624D+00  0.220907D+01
     16  0.710169D-02 -0.326608D-02  0.178817D-01 -0.461611D-01  0.936232D-02
     17  0.152753D-03 -0.694498D-02 -0.433249D-01  0.405025D-01 -0.115801D-01
     18  0.274746D-02  0.321859D-02  0.539351D-02 -0.621234D-02 -0.128062D-01
     19 -0.847332D-02  0.377969D-02 -0.212454D-01  0.644176D-02  0.119249D-01
     20  0.490273D-02  0.468926D-02  0.102863D-01  0.489180D-02 -0.396340D-02
     21 -0.644975D-02  0.183995D-02  0.772388D-02  0.646772D-02  0.415740D-02
     22  0.313452D-01  0.351374D-01 -0.445696D-02 -0.581397D-02 -0.303709D-03
     23  0.969754D-02  0.265355D-01  0.394378D-02 -0.365743D-02  0.447868D-02
     24  0.268686D-01  0.166408D-01 -0.190889D-02 -0.814158D-02  0.434616D-02
               16            17            18            19            20 
     16  0.203404D+01
     17  0.716022D+00  0.692343D+00
     18 -0.243358D-01  0.455914D-01  0.235281D+01
     19  0.435735D-01 -0.135274D-02 -0.121405D-01  0.214606D+01
     20 -0.208467D-02 -0.298945D-01  0.764722D-01 -0.196615D+00  0.205427D+01
     21 -0.884826D-02  0.411096D-01  0.293981D-02  0.485760D+00  0.613195D+00
     22  0.324640D-01  0.227446D-02  0.120401D-01  0.415009D-01  0.758435D-02
     23 -0.127107D-01 -0.372759D-01 -0.454108D-01  0.979956D-02  0.432295D-01
     24  0.624482D-02 -0.153415D-01  0.222876D-01 -0.105805D-01 -0.324119D-01
               21            22            23            24 
     21  0.742391D+00
     22 -0.510545D-02  0.197108D+01
     23  0.166775D-02 -0.502761D+00  0.163314D+01
     24 -0.679597D-01 -0.580524D+00 -0.801450D+00  0.144512D+01
 Leave Link  701 at Fri Mar  8 00:19:31 2019, MaxMem=   104857600 cpu:               0.3 elap:               0.3
 (Enter /shared/centos7/gaussian/g16/l702.exe)
 L702 exits ... SP integral derivatives will be done elsewhere.
 Leave Link  702 at Fri Mar  8 00:19:31 2019, MaxMem=   104857600 cpu:               0.1 elap:               0.1
 (Enter /shared/centos7/gaussian/g16/l703.exe)
 Integral derivatives from FoFJK, PRISM(SPDF).
 Compute integral second derivatives, UseDBF=F ICtDFT=           0.
 ICntrl=    100147.
 Calling FoFJK, ICntrl=    100147 FMM=F ISym2X=0 I1Cent= 0 IOpClX= 0 NMat=1 NMatS=1 NMatT=0.
 FoFJK:  IHMeth= 1 ICntrl=  100147 DoSepK=F KAlg= 0 I1Cent=           0 FoldK=F
 IRaf=         0 NMat=       1 IRICut=       1 DoRegI=T DoRafI=F ISym2E= 0 IDoP0=0 IntGTp=1.
 FoFCou: FMM=F IPFlag=           0 FMFlag=      100000 FMFlg1=         800
         NFxFlg=           0 DoJE=F BraDBF=F KetDBF=F FulRan=T
         wScrn=  0.000000 ICntrl=    100147 IOpCl=  0 I1Cent=           0 NGrid=           0
         NMat0=    1 NMatS0=      1 NMatT0=    0 NMatD0=    1 NMtDS0=    0 NMtDT0=    0
 Symmetry not used in FoFCou.
 FoFCou:  KetSym=F NOpSet=  1 NOpAb=1 NOp=  1.
 FoFCou:  CnvScl= 1.00D+00 Thresh= 1.00D-08 IAcrcy=      12.
 PrismS was handed   104763662 working-precision words and  1081 shell-pairs
 FoFCou: LinMIO=F DoNuc=F BraDBF=F KetDBF=F HaveP=T PDBF=F HaveZ=T HaveW=F
         NIJTC =      15 NIJTAt=       0 NIJTCD=       0 NIJTT =      15
         IJTBeg=       1 IJTEnd=      15 KLTBeg=       1 KLTEnd=      15
         IPTBeg=       1 IPTEnd=      15 IPTBCv=       1 IPTECv=      15
         IZTBeg=       1 IZTEnd=      15 IZTBCv=       1 IZTECv=      15
         IWTBeg=      16 IWTEnd=      15 IWTBCv=      16 IWTECv=      15
         INTBeg=       1 INTEnd=       0 IFTBCv=       1 IFTECv=      15
 NCel replicated for PrismC:     1
 CoulSu-InSpLW:  IPartL=    0 NPrtUS=    1 NPrtUL=    1 DoSpLW=F IThBeg=    0 IThEnd=    0 NThAct=    1.
 CoulSu:  IncDef=  1024 NBBP=         584821 NTPThr=   100 NPartT=    1 Incr=        1024 LDynOK=F GPUOK=T.
 CoulSu:  NPrtUS=   1 ThrOK=F IAlg=1 NPAlg=1 LenDen=           0 LWGrdD=           0 DoCopy=F ISkipM=0
          DoSpLW=F IThBeg=    0 IThEnd=    0.
 Enter PrismC:  IPart=  0 JobTyp=22 DoJE=F Cont=F.
 PrismC:  IPart=     0 DynPar=F LinDyn=F Incr=        1024 UseFst=F UseS4=T ISplat=2.
 PrismC was handed   104762415 working-precision words and  1081 shell-pairs
 IPart=  0 NShTot=      542325 NShNF=      542325 NShFF=           0 MinMC=       7
           NShCPU=      542325 NBCPU=       22831 AvBCPU=        23.8
           NShGPU=           0 NBGPU=           0 AvBGPU=         0.0
 CoulSu:  NxtVal=           1025 LenVP=      104762416 MinMC=       7.
 ReadGW:  IGet=0 IStart=           1 Next=           1 LGW=           0.
 Remaining memory in FofDFT       99.98 Mw
 CkSvGd:  ISavGI=        -1 IRadAn=       5 IRASav=       5 ISavGd=        -1.
 CalDSu-InSpLW:  IPartL=    0 NPrtUS=    1 NPrtUL=    1 DoSpLW=F IThBeg=    0 IThEnd=    0 NThAct=    1.
 CalDSu:  NPrtUS=   1 ThrOK=F IAlg=1 NPAlg=1 DoDPD=F LenP=        8778 LenD1P=             0 GPUOK=F
          ISkipM=0 DoSpLW=F IThBeg=    0 IThEnd=    0.
 IPart=  0 IRanGd=          0 ScrnBf=T ScrnGd=T RCrit=4.00D+00 DoMicB=T.
 IPart=  0       164943 of       182192 points in     168 batches and      988 microbatches, Max-NSigAt=       8 Max-NSgAt2=       8
 Polarizability after L703:
                1             2             3 
      1  0.000000D+00
      2  0.000000D+00  0.000000D+00
      3  0.000000D+00  0.000000D+00  0.000000D+00
 Dipole Derivatives after L703:
                 1             2             3             4             5 
      1  -0.671305D+00 -0.583065D-01 -0.398414D-01 -0.737019D+00 -0.131634D-01
      2  -0.265298D-01 -0.104169D+01  0.172313D-01  0.417873D-02 -0.101001D+01
      3   0.513987D-02  0.212526D-01 -0.983794D+00 -0.855009D-02 -0.201240D-01
                 6             7             8             9            10 
      1   0.697671D-01  0.290500D+00  0.201247D+00 -0.444726D+00  0.199343D+00
      2  -0.157681D-01  0.464004D-01  0.147153D+00 -0.124898D+00  0.459000D-01
      3  -0.993260D+00 -0.142356D+00 -0.162625D+00  0.497226D+00  0.473369D-01
                11            12            13            14            15 
      1   0.304834D+00  0.309109D+00  0.179806D+00 -0.441551D+00  0.134041D+00
      2   0.320019D+00  0.228979D+00 -0.504416D-01  0.565496D+00 -0.135735D+00
      3   0.244664D+00  0.365751D+00  0.622401D-02 -0.104671D+00  0.130863D+00
                16            17            18            19            20 
      1   0.262855D+00 -0.464613D+00  0.101086D-02  0.186814D+00  0.148987D+00
      2  -0.126734D+00  0.562766D+00 -0.126860D-01  0.172446D-01  0.175416D+00
      3   0.183275D-01 -0.539486D-01  0.999751D-01 -0.433310D-01 -0.163369D+00
                21            22            23            24 
      1  -0.381570D+00  0.289006D+00  0.322565D+00  0.352210D+00
      2  -0.167839D+00  0.899821D-01  0.280844D+00  0.210717D+00
      3   0.513327D+00  0.117209D+00  0.238821D+00  0.369911D+00
 Hessian after L703:
                1             2             3             4             5 
      1  0.445584D+00
      2  0.692997D-02  0.554863D+00
      3 -0.349495D-01 -0.304428D-01  0.551330D+00
      4 -0.200005D+00  0.191299D-02 -0.174163D-02  0.459938D+00
      5  0.140339D-02 -0.770812D-01  0.237086D-03 -0.929776D-02  0.567961D+00
      6  0.150877D-02 -0.130927D-02 -0.754382D-01  0.307461D-01  0.250891D-01
      7 -0.834163D-01 -0.286413D-01  0.829300D-01 -0.118748D-01 -0.101029D-01
      8 -0.293881D-01 -0.781068D-01  0.702136D-01 -0.291024D-03  0.213497D-03
      9  0.848496D-01  0.698927D-01 -0.242260D+00 -0.633702D-03 -0.117450D-02
     10 -0.606421D-01 -0.333549D-01 -0.366182D-01 -0.163054D-01 -0.227019D-01
     11 -0.358831D-01 -0.141892D+00 -0.958945D-01 -0.105174D-03  0.271844D-03
     12 -0.393171D-01 -0.956949D-01 -0.164376D+00 -0.113430D-02 -0.139487D-02
     13 -0.594540D-01  0.536101D-01 -0.128195D-01 -0.164220D-01  0.339947D-01
     14  0.575621D-01 -0.260310D+00  0.546070D-01  0.117228D-02 -0.108403D-02
     15 -0.142044D-01  0.555729D-01 -0.691631D-01 -0.921745D-04  0.149463D-02
     16 -0.123862D-01  0.319080D-01 -0.460599D-02 -0.757008D-01  0.754742D-01
     17 -0.416471D-03  0.181683D-02 -0.191912D-03  0.780631D-01 -0.266858D+00
     18 -0.113394D-03 -0.108352D-02 -0.153494D-03 -0.619837D-02  0.125343D-01
     19 -0.175586D-01 -0.125979D-01  0.323747D-01 -0.577792D-01 -0.170509D-01
     20  0.231694D-04  0.374077D-04  0.495925D-03 -0.185992D-01 -0.832532D-01
     21  0.140501D-02  0.119058D-02 -0.215228D-02  0.444050D-01  0.664539D-01
     22 -0.121213D-01 -0.197670D-01 -0.245698D-01 -0.818511D-01 -0.517189D-01
     23 -0.230962D-03  0.672889D-03  0.975571D-03 -0.528553D-01 -0.140170D+00
     24  0.821052D-03  0.187422D-02  0.221378D-02 -0.653509D-01 -0.103240D+00
                6             7             8             9            10 
      6  0.521330D+00
      7  0.300488D-01  0.934307D-01
      8 -0.119715D-02  0.335187D-01  0.748814D-01
      9  0.312002D-02 -0.941973D-01 -0.745631D-01  0.259272D+00
     10 -0.261203D-01  0.328554D-02  0.870182D-02  0.864058D-02  0.763291D-01
     11  0.125281D-03  0.362195D-02  0.637520D-02  0.664195D-02  0.413736D-01
     12 -0.145377D-02 -0.838843D-02 -0.168880D-01 -0.189759D-01  0.455681D-01
     13 -0.628123D-02  0.302649D-02 -0.122562D-01  0.872091D-03  0.174946D-02
     14  0.553437D-03  0.136481D-02 -0.459826D-02 -0.213886D-03  0.558189D-02
     15  0.685682D-04 -0.100528D-01  0.229772D-01 -0.361025D-02  0.829552D-02
     16 -0.662870D-02  0.109856D-02 -0.228955D-03  0.552687D-03  0.142619D-02
     17  0.136191D-01  0.430868D-03  0.133220D-03 -0.184506D-03  0.303565D-03
     18 -0.528122D-01 -0.113429D-03 -0.556664D-03 -0.780152D-04 -0.340228D-03
     19  0.408040D-01 -0.722500D-02  0.169991D-03 -0.586782D-03  0.129306D-02
     20  0.666591D-01  0.785231D-04  0.127997D-02 -0.362831D-03 -0.165526D-03
     21 -0.221240D+00  0.212664D-03 -0.312787D-03  0.188405D-02  0.489598D-05
     22 -0.640774D-01  0.167479D-02 -0.226165D-03  0.502793D-03 -0.713593D-02
     23 -0.103540D+00 -0.270703D-03 -0.178228D-03 -0.358462D-04  0.261472D-03
     24 -0.173575D+00 -0.439555D-03  0.327014D-03  0.648482D-03  0.569706D-03
               11            12            13            14            15 
     11  0.148247D+00
     12  0.107832D+00  0.176081D+00
     13 -0.911075D-02  0.353565D-02  0.759031D-01
     14 -0.149478D-01  0.507133D-02 -0.660161D-01  0.277910D+00
     15 -0.198589D-01  0.633946D-02  0.153642D-01 -0.594157D-01  0.649826D-01
     16  0.401966D-04 -0.100051D-03 -0.718571D-02  0.587927D-04  0.642117D-04
     17  0.930257D-03  0.318709D-03 -0.339535D-03  0.188522D-02 -0.216993D-03
     18  0.510421D-03 -0.381857D-04 -0.185580D-03 -0.915142D-04  0.124078D-02
     19 -0.242922D-03  0.368326D-04  0.114246D-02  0.000000D+00  0.582363D-03
     20 -0.470823D-03  0.411176D-03  0.487613D-03  0.724148D-03 -0.995494D-03
     21  0.123962D-03  0.865579D-03 -0.374167D-04 -0.676581D-03  0.446370D-03
     22  0.306184D-03 -0.200632D-03  0.124025D-02  0.276309D-03  0.429768D-04
     23  0.148602D-02  0.344663D-03 -0.369835D-03  0.421630D-03  0.442465D-03
     24  0.519955D-03  0.155857D-02 -0.448221D-03  0.165893D-03 -0.304391D-03
               16            17            18            19            20 
     16  0.865047D-01
     17 -0.869315D-01  0.285436D+00
     18  0.795664D-02 -0.170397D-01  0.502507D-01
     19  0.234845D-02  0.341084D-02 -0.106256D-01  0.751914D-01
     20 -0.873199D-02 -0.100809D-01  0.257331D-01  0.206925D-01  0.845933D-01
     21 -0.977780D-04  0.742573D-03 -0.133785D-02 -0.519225D-01 -0.755527D-01
     22  0.389477D-02  0.547910D-02  0.961997D-02  0.258739D-02  0.621483D-02
     23 -0.115888D-01 -0.132625D-01 -0.200065D-01  0.561843D-02  0.717012D-02
     24  0.285898D-02  0.295275D-02  0.292822D-02 -0.106631D-01 -0.163883D-01
               21            22            23            24 
     21  0.239764D+00
     22  0.603012D-02  0.917111D-01
     23  0.803105D-02  0.594356D-01  0.143860D+00
     24 -0.182297D-01  0.726520D-01  0.113788D+00  0.184760D+00
 Leave Link  703 at Fri Mar  8 00:22:30 2019, MaxMem=   104857600 cpu:             178.8 elap:             178.8
 (Enter /shared/centos7/gaussian/g16/l716.exe)
 FrcOut:
 IF    =       297 IFX   =       325 IFXYZ =       349
 IFFX  =       373 IFFFX =       673 IFLen =        28
 IFFLen=       300 IFFFLn=         0 IEDerv=       673
 LEDerv=      1205 IFroze=      2184 ICStrt=     32293
 Dipole        =-3.81815075D-03 3.53937438D-03 9.74964426D-03
 DipoleDeriv   =-6.71304717D-01-2.65297637D-02 5.13987214D-03
                -5.83065169D-02-1.04168626D+00 2.12526020D-02
                -3.98413819D-02 1.72313498D-02-9.83793548D-01
                -7.37019029D-01 4.17872707D-03-8.55008500D-03
                -1.31634241D-02-1.01000788D+00-2.01240063D-02
                 6.97671165D-02-1.57681182D-02-9.93259808D-01
                 2.90500102D-01 4.64004269D-02-1.42356483D-01
                 2.01247492D-01 1.47153205D-01-1.62624712D-01
                -4.44726380D-01-1.24898406D-01 4.97226346D-01
                 1.99342756D-01 4.58999925D-02 4.73369304D-02
                 3.04833797D-01 3.20018791D-01 2.44663616D-01
                 3.09109430D-01 2.28979356D-01 3.65750934D-01
                 1.79805736D-01-5.04416403D-02 6.22400884D-03
                -4.41550948D-01 5.65496340D-01-1.04670934D-01
                 1.34040906D-01-1.35735272D-01 1.30863051D-01
                 2.62855001D-01-1.26734402D-01 1.83274632D-02
                -4.64612742D-01 5.62765762D-01-5.39486089D-02
                 1.01085954D-03-1.26860185D-02 9.99750587D-02
                 1.86814169D-01 1.72445799D-02-4.33309651D-02
                 1.48986882D-01 1.75416214D-01-1.63368558D-01
                -3.81570138D-01-1.67839439D-01 5.13326783D-01
                 2.89005981D-01 8.99820800D-02 1.17209258D-01
                 3.22565460D-01 2.80843832D-01 2.38820602D-01
                 3.52209589D-01 2.10716548D-01 3.69911184D-01
 Polarizability= 0.00000000D+00 0.00000000D+00 0.00000000D+00
                 0.00000000D+00 0.00000000D+00 0.00000000D+00
 Quadrupole    =-7.12930239D-01 4.38991328D-01 2.73938911D-01
                 4.44178805D-02-8.75414329D-03-4.68151808D-03
 Forces in standard orientation:
 -------------------------------------------------------------------
 Center     Atomic                   Forces (Hartrees/Bohr)
 Number     Number              X              Y              Z
 -------------------------------------------------------------------
      1        6           0.005062779   -0.009062539   -0.012262519
      2        6           0.003451744    0.004762839   -0.016823010
      3        1          -0.000762947    0.007441702   -0.005563590
      4        1          -0.004133154    0.015579373    0.012445865
      5        1          -0.009539698   -0.013643797    0.006351269
      6        1           0.000989472    0.010485778    0.003627531
      7        1           0.005563378   -0.006908997    0.018575095
      8        1          -0.000631574   -0.008654358   -0.006350641
 -------------------------------------------------------------------
 Cartesian Forces:  Max     0.018575095 RMS     0.009260786
 ***** Axes restored to original set *****
 Rotating derivatives, DoTrsp=F IDiff=-2 LEDeriv=   1204 LFDPrp=       0 LDFDPr=       0.
 -------------------------------------------------------------------
 Center     Atomic                   Forces (Hartrees/Bohr)
 Number     Number              X              Y              Z
 -------------------------------------------------------------------
      1        6          -0.005431851    0.013739580    0.006312659
      2        6          -0.003864045    0.003818728    0.016973488
      3        1           0.000658420   -0.003852614    0.008463947
      4        1           0.004543462   -0.019562916   -0.003368774
      5        1           0.009626777    0.009097627   -0.011918725
      6        1          -0.000836157   -0.010957497    0.001823092
      7        1          -0.005113931   -0.002931336   -0.019722438
      8        1           0.000417325    0.010648429    0.001436750
 -------------------------------------------------------------------
 Cartesian Forces:  Max     0.019722438 RMS     0.009260786
 Force constants in Cartesian coordinates: 
                1             2             3             4             5 
      1  0.447401D+00
      2 -0.117176D-01  0.528051D+00
      3 -0.363264D-01 -0.187832D-01  0.576324D+00
      4 -0.199929D+00 -0.128530D-02 -0.499433D-02  0.458486D+00
      5 -0.205829D-03 -0.771435D-01  0.112748D-02  0.461625D-02  0.578552D+00
      6 -0.187069D-02 -0.386994D-03 -0.754525D-01  0.304777D-01 -0.539838D-02
      7 -0.875690D-01  0.147224D-01  0.906124D-01 -0.125759D-01  0.530967D-02
      8  0.149807D-01 -0.563626D-01 -0.291716D-01 -0.787496D-03 -0.338267D-04
      9  0.926604D-01 -0.294621D-01 -0.259852D+00 -0.752422D-03  0.692778D-03
     10 -0.583747D-01 -0.426311D-01 -0.146798D-01 -0.154561D-01 -0.326591D-01
     11 -0.461389D-01 -0.229263D+00 -0.625938D-01 -0.887199D-03 -0.123821D-02
     12 -0.158409D-01 -0.623431D-01 -0.792727D-01 -0.121646D-02 -0.250876D-02
     13 -0.593602D-01  0.405729D-01 -0.368094D-01 -0.164382D-01  0.264991D-01
     14  0.433963D-01 -0.168594D+00  0.109945D+00  0.686068D-03  0.520629D-03
     15 -0.399348D-01  0.110800D+00 -0.160973D+00 -0.980987D-03  0.203614D-02
     16 -0.124286D-01  0.255908D-01 -0.195839D-01 -0.762023D-01  0.633545D-01
     17 -0.635677D-03  0.126565D-02 -0.107702D-02  0.658103D-01 -0.204450D+00
     18 -0.141139D-03 -0.109813D-02  0.440133D-03 -0.437681D-01  0.970915D-01
     19 -0.183607D-01  0.414289D-02  0.341369D-01 -0.599024D-01  0.503158D-02
     20  0.386517D-03  0.328150D-03 -0.204783D-03  0.539492D-02 -0.587817D-01
     21  0.899128D-03 -0.120167D-04 -0.164096D-02  0.520346D-01 -0.211954D-01
     22 -0.113791D-01 -0.293950D-01 -0.123554D-01 -0.779830D-01 -0.719462D-01
     23 -0.655262D-04  0.171748D-02  0.757690D-03 -0.735475D-01 -0.237425D+00
     24  0.554253D-03  0.128584D-02  0.427000D-03 -0.308000D-01 -0.718453D-01
                6             7             8             9            10 
      6  0.512191D+00
      7  0.308759D-01  0.980754D-01
      8  0.109672D-02 -0.157396D-01  0.539587D-01
      9  0.406842D-02 -0.103060D+00  0.351751D-01  0.275550D+00
     10 -0.123467D-01  0.319407D-02  0.124091D-01  0.368823D-02  0.735901D-01
     11 -0.536689D-03 -0.687848D-03 -0.356039D-02 -0.162188D-02  0.537334D-01
     12 -0.792981D-03 -0.841411D-02 -0.251049D-01 -0.894883D-02  0.188443D-01
     13 -0.221193D-01  0.332534D-02 -0.107370D-01  0.706364D-02  0.146021D-02
     14  0.202679D-03 -0.355160D-02  0.495791D-02 -0.498039D-02  0.882875D-02
     15 -0.151995D-02 -0.945263D-02  0.177856D-01 -0.134653D-01  0.461102D-02
     16 -0.429245D-01  0.108502D-02  0.965029D-04  0.612824D-03  0.143490D-02
     17  0.982412D-01  0.348605D-03 -0.219813D-03 -0.857874D-04  0.115528D-03
     18 -0.114718D+00 -0.281378D-03 -0.478758D-03  0.288560D-03 -0.410019D-03
     19  0.481291D-01 -0.721021D-02 -0.279280D-03 -0.784805D-03  0.129396D-02
     20 -0.210508D-01  0.246685D-04  0.113266D-02  0.364106D-04 -0.138700D-03
     21 -0.243588D+00 -0.402453D-04  0.932582D-04  0.201657D-02  0.932877D-04
     22 -0.302215D-01  0.167517D-02  0.570340D-04  0.572526D-03 -0.714238D-02
     23 -0.721678D-01 -0.426361D-03  0.127390D-03  0.245903D-03  0.342133D-03
     24 -0.801877D-01 -0.239479D-03  0.604577D-03  0.342481D-03  0.199676D-03
               11            12            13            14            15 
     11  0.247302D+00
     12  0.714790D-01  0.797643D-01
     13 -0.583820D-02  0.703821D-02  0.758126D-01
     14 -0.162301D-01  0.177279D-01 -0.498842D-01  0.177270D+00
     15 -0.755123D-02  0.791097D-02  0.454376D-01 -0.121917D+00  0.165713D+00
     16 -0.432464D-05 -0.697374D-04 -0.717499D-02 -0.645458D-04 -0.141055D-03
     17  0.105833D-02 -0.278410D-03 -0.531224D-03  0.159960D-02 -0.427505D-03
     18 -0.949843D-04 -0.174969D-03 -0.171650D-03 -0.293040D-03  0.151568D-02
     19 -0.185471D-03  0.153395D-03  0.112478D-02  0.307663D-03  0.522027D-03
     20  0.554671D-04  0.850166D-03  0.445003D-03 -0.304416D-04 -0.710610D-03
     21  0.560853D-03  0.338386D-03 -0.261092D-03 -0.407999D-03  0.121864D-02
     22  0.857107D-05 -0.494760D-03  0.125037D-02  0.281577D-03 -0.612230D-04
     23  0.187529D-02  0.178048D-03 -0.526407D-03  0.506232D-03 -0.148321D-04
     24  0.358715D-03  0.117575D-02 -0.177975D-03 -0.277130D-03 -0.399111D-03
               16            17            18            19            20 
     16  0.870281D-01
     17 -0.725280D-01  0.214558D+00
     18  0.498664D-01 -0.108754D+00  0.120605D+00
     19  0.265918D-02 -0.207366D-02 -0.110171D-01  0.777677D-01
     20 -0.818892D-02  0.288923D-02  0.229769D-01 -0.686101D-02  0.564378D-01
     21  0.447388D-02 -0.162882D-02 -0.146187D-01 -0.597611D-01  0.232838D-01
     22  0.359874D-02  0.949420D-02  0.592301D-02  0.262765D-02  0.893752D-02
     23 -0.825594D-02 -0.167009D-01 -0.935002D-02 -0.827069D-04 -0.203124D-02
     24  0.776606D-02  0.140099D-01  0.666260D-02 -0.113784D-01 -0.251812D-01
               21            22            23            24 
     21  0.265343D+00
     22  0.256156D-02  0.873526D-01
     23 -0.693645D-03  0.825623D-01  0.251931D+00
     24 -0.906863D-02  0.340758D-01  0.810446D-01  0.810476D-01
 Cartesian forces in FCRed:
 I=    1 X=  -5.431851042070D-03 Y=   1.373958008486D-02 Z=   6.312659192066D-03
 I=    2 X=  -3.864044744806D-03 Y=   3.818727995813D-03 Z=   1.697348844196D-02
 I=    3 X=   6.584197917112D-04 Y=  -3.852613989910D-03 Z=   8.463947318381D-03
 I=    4 X=   4.543461865086D-03 Y=  -1.956291622184D-02 Z=  -3.368774316232D-03
 I=    5 X=   9.626776880917D-03 Y=   9.097626756896D-03 Z=  -1.191872527442D-02
 I=    6 X=  -8.361570634795D-04 Y=  -1.095749723575D-02 Z=   1.823092387627D-03
 I=    7 X=  -5.113930673783D-03 Y=  -2.931336143086D-03 Z=  -1.972243791350D-02
 I=    8 X=   4.173249864141D-04 Y=   1.064842875307D-02 Z=   1.436750164097D-03
 Cartesian force constants in FCRed: 
                1             2             3             4             5 
      1  0.447401D+00
      2 -0.117176D-01  0.528051D+00
      3 -0.363264D-01 -0.187832D-01  0.576324D+00
      4 -0.199929D+00 -0.128530D-02 -0.499433D-02  0.458486D+00
      5 -0.205829D-03 -0.771435D-01  0.112748D-02  0.461625D-02  0.578552D+00
      6 -0.187069D-02 -0.386994D-03 -0.754525D-01  0.304777D-01 -0.539838D-02
      7 -0.875690D-01  0.147224D-01  0.906124D-01 -0.125759D-01  0.530967D-02
      8  0.149807D-01 -0.563626D-01 -0.291716D-01 -0.787496D-03 -0.338267D-04
      9  0.926604D-01 -0.294621D-01 -0.259852D+00 -0.752422D-03  0.692778D-03
     10 -0.583747D-01 -0.426311D-01 -0.146798D-01 -0.154561D-01 -0.326591D-01
     11 -0.461389D-01 -0.229263D+00 -0.625938D-01 -0.887199D-03 -0.123821D-02
     12 -0.158409D-01 -0.623431D-01 -0.792727D-01 -0.121646D-02 -0.250876D-02
     13 -0.593602D-01  0.405729D-01 -0.368094D-01 -0.164382D-01  0.264991D-01
     14  0.433963D-01 -0.168594D+00  0.109945D+00  0.686068D-03  0.520629D-03
     15 -0.399348D-01  0.110800D+00 -0.160973D+00 -0.980987D-03  0.203614D-02
     16 -0.124286D-01  0.255908D-01 -0.195839D-01 -0.762023D-01  0.633545D-01
     17 -0.635677D-03  0.126565D-02 -0.107702D-02  0.658103D-01 -0.204450D+00
     18 -0.141139D-03 -0.109813D-02  0.440133D-03 -0.437681D-01  0.970915D-01
     19 -0.183607D-01  0.414289D-02  0.341369D-01 -0.599024D-01  0.503158D-02
     20  0.386517D-03  0.328150D-03 -0.204783D-03  0.539492D-02 -0.587817D-01
     21  0.899128D-03 -0.120167D-04 -0.164096D-02  0.520346D-01 -0.211954D-01
     22 -0.113791D-01 -0.293950D-01 -0.123554D-01 -0.779830D-01 -0.719462D-01
     23 -0.655262D-04  0.171748D-02  0.757690D-03 -0.735475D-01 -0.237425D+00
     24  0.554253D-03  0.128584D-02  0.427000D-03 -0.308000D-01 -0.718453D-01
                6             7             8             9            10 
      6  0.512191D+00
      7  0.308759D-01  0.980754D-01
      8  0.109672D-02 -0.157396D-01  0.539587D-01
      9  0.406842D-02 -0.103060D+00  0.351751D-01  0.275550D+00
     10 -0.123467D-01  0.319407D-02  0.124091D-01  0.368823D-02  0.735901D-01
     11 -0.536689D-03 -0.687848D-03 -0.356039D-02 -0.162188D-02  0.537334D-01
     12 -0.792981D-03 -0.841411D-02 -0.251049D-01 -0.894883D-02  0.188443D-01
     13 -0.221193D-01  0.332534D-02 -0.107370D-01  0.706364D-02  0.146021D-02
     14  0.202679D-03 -0.355160D-02  0.495791D-02 -0.498039D-02  0.882875D-02
     15 -0.151995D-02 -0.945263D-02  0.177856D-01 -0.134653D-01  0.461102D-02
     16 -0.429245D-01  0.108502D-02  0.965029D-04  0.612824D-03  0.143490D-02
     17  0.982412D-01  0.348605D-03 -0.219813D-03 -0.857874D-04  0.115528D-03
     18 -0.114718D+00 -0.281378D-03 -0.478758D-03  0.288560D-03 -0.410019D-03
     19  0.481291D-01 -0.721021D-02 -0.279280D-03 -0.784805D-03  0.129396D-02
     20 -0.210508D-01  0.246685D-04  0.113266D-02  0.364106D-04 -0.138700D-03
     21 -0.243588D+00 -0.402453D-04  0.932582D-04  0.201657D-02  0.932877D-04
     22 -0.302215D-01  0.167517D-02  0.570340D-04  0.572526D-03 -0.714238D-02
     23 -0.721678D-01 -0.426361D-03  0.127390D-03  0.245903D-03  0.342133D-03
     24 -0.801877D-01 -0.239479D-03  0.604577D-03  0.342481D-03  0.199676D-03
               11            12            13            14            15 
     11  0.247302D+00
     12  0.714790D-01  0.797643D-01
     13 -0.583820D-02  0.703821D-02  0.758126D-01
     14 -0.162301D-01  0.177279D-01 -0.498842D-01  0.177270D+00
     15 -0.755123D-02  0.791097D-02  0.454376D-01 -0.121917D+00  0.165713D+00
     16 -0.432464D-05 -0.697374D-04 -0.717499D-02 -0.645458D-04 -0.141055D-03
     17  0.105833D-02 -0.278410D-03 -0.531224D-03  0.159960D-02 -0.427505D-03
     18 -0.949843D-04 -0.174969D-03 -0.171650D-03 -0.293040D-03  0.151568D-02
     19 -0.185471D-03  0.153395D-03  0.112478D-02  0.307663D-03  0.522027D-03
     20  0.554671D-04  0.850166D-03  0.445003D-03 -0.304416D-04 -0.710610D-03
     21  0.560853D-03  0.338386D-03 -0.261092D-03 -0.407999D-03  0.121864D-02
     22  0.857107D-05 -0.494760D-03  0.125037D-02  0.281577D-03 -0.612230D-04
     23  0.187529D-02  0.178048D-03 -0.526407D-03  0.506232D-03 -0.148321D-04
     24  0.358715D-03  0.117575D-02 -0.177975D-03 -0.277130D-03 -0.399111D-03
               16            17            18            19            20 
     16  0.870281D-01
     17 -0.725280D-01  0.214558D+00
     18  0.498664D-01 -0.108754D+00  0.120605D+00
     19  0.265918D-02 -0.207366D-02 -0.110171D-01  0.777677D-01
     20 -0.818892D-02  0.288923D-02  0.229769D-01 -0.686101D-02  0.564378D-01
     21  0.447388D-02 -0.162882D-02 -0.146187D-01 -0.597611D-01  0.232838D-01
     22  0.359874D-02  0.949420D-02  0.592301D-02  0.262765D-02  0.893752D-02
     23 -0.825594D-02 -0.167009D-01 -0.935002D-02 -0.827069D-04 -0.203124D-02
     24  0.776606D-02  0.140099D-01  0.666260D-02 -0.113784D-01 -0.251812D-01
               21            22            23            24 
     21  0.265343D+00
     22  0.256156D-02  0.873526D-01
     23 -0.693645D-03  0.825623D-01  0.251931D+00
     24 -0.906863D-02  0.340758D-01  0.810446D-01  0.810476D-01
 FormGI is forming the generalized inverse of G from B-inverse, IUseBI=4.
 Internal forces: 
                 1 
      1   0.937240D-02
      2  -0.688329D-02
      3  -0.178698D-01
      4  -0.119041D-01
      5  -0.924493D-02
      6  -0.178660D-01
      7  -0.988937D-02
      8  -0.150638D-03
      9   0.128977D-01
     10   0.164523D-01
     11  -0.489552D-02
     12  -0.117081D-01
     13  -0.104405D-01
     14   0.342828D-02
     15   0.155908D-01
     16   0.791766D-03
     17  -0.588680D-02
     18  -0.614215D-02
     19  -0.662936D-02
     20   0.122435D-02
     21  -0.193949D-02
     22  -0.362192D-02
     23   0.311978D-02
     24  -0.440646D-04
     25  -0.172649D-02
     26   0.443085D-02
     27   0.126701D-02
     28  -0.415418D-03
 Internal force constants: 
                1             2             3             4             5 
      1  0.300364D+00
      2  0.636187D-02  0.328197D+00
      3  0.646650D-02  0.317184D-02  0.288659D+00
      4  0.672546D-02  0.142316D-02  0.199451D-02  0.312627D+00
      5  0.604082D-02  0.394228D-03  0.718814D-03 -0.114391D-02  0.319358D+00
      6  0.665151D-02 -0.120203D-02  0.601303D-03  0.847813D-03  0.286725D-02
      7  0.622119D-02  0.457929D-03 -0.118561D-02  0.438744D-03  0.193133D-02
      8  0.126534D-01  0.208051D-02 -0.655032D-02 -0.597528D-02 -0.923914D-03
      9  0.246453D-01 -0.660318D-02  0.193150D-02 -0.557074D-02 -0.113426D-02
     10  0.242837D-01 -0.598878D-02 -0.532353D-02  0.253819D-02  0.424243D-02
     11 -0.184744D-01  0.532136D-02  0.509188D-02  0.202484D-03  0.125305D-03
     12 -0.200743D-01  0.433576D-02  0.471626D-03  0.402145D-02 -0.138646D-02
     13 -0.186972D-01 -0.328301D-03  0.432929D-02  0.404443D-02 -0.904527D-03
     14  0.159684D-01 -0.470808D-03 -0.177580D-02  0.405407D-02  0.153207D-02
     15  0.271636D-01  0.428161D-02 -0.104576D-02 -0.151065D-02 -0.579029D-02
     16  0.130147D-01 -0.111438D-02  0.422845D-02 -0.111228D-02 -0.613382D-02
     17 -0.182937D-01 -0.137072D-02  0.320983D-03 -0.611840D-03  0.510153D-02
     18 -0.181008D-01  0.140478D-03 -0.995255D-03 -0.122871D-02  0.481345D-02
     19 -0.183718D-01 -0.119949D-02 -0.861746D-03  0.337649D-03  0.535389D-04
     20  0.132723D-02  0.196345D-03 -0.423963D-02  0.282912D-02  0.684506D-03
     21  0.626682D-03 -0.317391D-03 -0.323959D-02  0.251949D-02 -0.280561D-02
     22  0.110490D-03 -0.866607D-03 -0.366432D-02  0.354789D-02  0.351725D-02
     23  0.733089D-03  0.365284D-02 -0.357246D-03 -0.343486D-02 -0.337330D-03
     24  0.325435D-04  0.313910D-02  0.642788D-03 -0.374449D-02 -0.382745D-02
     25 -0.483648D-03  0.258989D-02  0.218064D-03 -0.271609D-02  0.249541D-02
     26  0.146730D-02 -0.233604D-02  0.302128D-02 -0.232672D-03  0.234563D-04
     27  0.766751D-03 -0.284978D-02  0.402132D-02 -0.542307D-03 -0.346666D-02
     28  0.250560D-03 -0.339899D-02  0.359659D-02  0.486099D-03  0.285620D-02
                6             7             8             9            10 
      6  0.285278D+00
      7  0.263871D-02  0.318731D+00
      8  0.457547D-02 -0.122135D-02  0.112603D+00
      9 -0.124612D-02  0.435598D-02 -0.185992D-01  0.123384D+00
     10 -0.187734D-02 -0.504525D-03 -0.247461D-01 -0.122515D-01  0.118028D+00
     11 -0.920460D-03 -0.117393D-02 -0.363510D-01 -0.481590D-01  0.673132D-02
     12 -0.828019D-03  0.966010D-04 -0.383585D-01  0.718555D-02 -0.473587D-01
     13  0.313193D-03 -0.117797D-02  0.914136D-02 -0.407931D-01 -0.379210D-01
     14 -0.537771D-02 -0.631778D-02 -0.650010D-02 -0.779725D-02  0.182169D-01
     15  0.130403D-02 -0.581270D-02  0.188845D-01 -0.715842D-02 -0.641490D-02
     16 -0.548958D-02  0.185683D-02 -0.732169D-02  0.190050D-01 -0.734162D-02
     17  0.490710D-02 -0.102322D-03 -0.430391D-02  0.351321D-02 -0.319613D-02
     18  0.768155D-03  0.475930D-02  0.469999D-02 -0.481814D-02 -0.491948D-02
     19  0.464865D-02  0.495630D-02 -0.434258D-02 -0.336889D-02  0.343882D-02
     20  0.379233D-02 -0.347911D-02  0.285232D-02 -0.804334D-02  0.663629D-02
     21 -0.181875D-03  0.266096D-02  0.568630D-03 -0.470781D-02  0.556238D-02
     22 -0.378123D-02 -0.703838D-03 -0.180461D-02 -0.577131D-02  0.882925D-02
     23  0.431134D-02 -0.287272D-02  0.651469D-02 -0.446526D-03 -0.563300D-02
     24  0.337133D-03  0.326735D-02  0.423099D-02  0.288901D-02 -0.670691D-02
     25 -0.326222D-02 -0.974516D-04  0.185776D-02  0.182550D-02 -0.344005D-02
     26  0.327182D-02 -0.247863D-02 -0.250356D-02  0.324406D-02 -0.135653D-02
     27 -0.702388D-03  0.366143D-02 -0.478726D-02  0.657960D-02 -0.243045D-02
     28 -0.430174D-02  0.296632D-03 -0.716050D-02  0.551609D-02  0.836418D-03
               11            12            13            14            15 
     11  0.499910D-01
     12  0.101893D-01  0.528724D-01
     13  0.107238D-01  0.109701D-01  0.438331D-01
     14  0.361502D-02 -0.489902D-02 -0.301101D-02  0.108537D+00
     15 -0.360234D-02 -0.457014D-02  0.289336D-02 -0.135124D-01  0.120020D+00
     16 -0.424617D-02  0.443836D-02 -0.327358D-02 -0.289515D-01 -0.157414D-01
     17  0.624279D-03  0.294559D-02  0.410818D-03 -0.331309D-01 -0.459651D-01
     18  0.856593D-03  0.938169D-03  0.277052D-02 -0.432140D-01  0.801532D-02
     19  0.259655D-02  0.815022D-03  0.412153D-03  0.105589D-01 -0.471224D-01
     20 -0.587134D-02  0.322514D-02  0.553719D-03  0.130066D-02  0.630514D-02
     21 -0.628524D-02  0.450135D-02 -0.126294D-03 -0.210829D-02  0.821090D-03
     22 -0.517902D-02  0.405643D-02 -0.718457D-03  0.741422D-02 -0.612841D-02
     23  0.592466D-02 -0.141209D-03 -0.664598D-02 -0.249217D-02  0.745595D-02
     24  0.551076D-02  0.113500D-02 -0.732600D-02 -0.590113D-02  0.197189D-02
     25  0.661698D-02  0.690086D-03 -0.791816D-02  0.362138D-02 -0.497761D-02
     26 -0.513441D-03 -0.563267D-02  0.768905D-02 -0.126665D-02  0.466403D-02
     27 -0.927338D-03 -0.435645D-02  0.700904D-02 -0.467560D-02 -0.820024D-03
     28  0.178880D-03 -0.480137D-02  0.641688D-02  0.484691D-02 -0.776952D-02
               16            17            18            19            20 
     16  0.105960D+00
     17  0.107349D-01  0.462060D-01
     18 -0.405697D-01  0.946805D-02  0.557465D-01
     19 -0.330181D-01  0.112400D-01  0.944720D-02  0.475355D-01
     20 -0.725362D-02  0.559627D-02 -0.418814D-02 -0.368804D-03  0.142297D-01
     21  0.194038D-02 -0.818547D-02  0.710481D-04  0.731776D-02  0.370913D-02
     22 -0.130966D-02  0.248553D-03  0.393352D-02 -0.526120D-02  0.397820D-02
     23 -0.459423D-02  0.624392D-02 -0.364472D-02 -0.156361D-02  0.376031D-02
     24  0.459977D-02 -0.753782D-02  0.614473D-03  0.612296D-02 -0.676022D-02
     25  0.134973D-02  0.896199D-03  0.447694D-02 -0.645601D-02 -0.649114D-02
     26 -0.305792D-02  0.685559D-02 -0.486311D-02 -0.107417D-02  0.374268D-02
     27  0.613608D-02 -0.692616D-02 -0.603917D-03  0.661240D-02 -0.677785D-02
     28  0.288605D-02  0.150787D-02  0.325855D-02 -0.596657D-02 -0.650877D-02
               21            22            23            24            25 
     21  0.137436D-01
     22  0.364643D-02  0.141150D-01
     23 -0.641569D-02 -0.670179D-02  0.140030D-01
     24  0.361878D-02 -0.703357D-02  0.382697D-02  0.142060D-01
     25 -0.647839D-02  0.343499D-02  0.354087D-02  0.355363D-02  0.134670D-01
     26 -0.618716D-02 -0.616268D-02  0.379728D-02 -0.613256D-02 -0.610808D-02
     27  0.384731D-02 -0.649445D-02 -0.637872D-02  0.424644D-02 -0.609532D-02
     28 -0.624986D-02  0.397410D-02 -0.666482D-02 -0.640590D-02  0.381805D-02
               26            27            28 
     26  0.133194D-01
     27  0.338952D-02  0.140147D-01
     28  0.341400D-02  0.367292D-02  0.138969D-01
 Force constants in internal coordinates: 
                1             2             3             4             5 
      1  0.300364D+00
      2  0.636187D-02  0.328197D+00
      3  0.646650D-02  0.317184D-02  0.288659D+00
      4  0.672546D-02  0.142316D-02  0.199451D-02  0.312627D+00
      5  0.604082D-02  0.394228D-03  0.718814D-03 -0.114391D-02  0.319358D+00
      6  0.665151D-02 -0.120203D-02  0.601303D-03  0.847813D-03  0.286725D-02
      7  0.622119D-02  0.457929D-03 -0.118561D-02  0.438744D-03  0.193133D-02
      8  0.126534D-01  0.208051D-02 -0.655032D-02 -0.597528D-02 -0.923914D-03
      9  0.246453D-01 -0.660318D-02  0.193150D-02 -0.557074D-02 -0.113426D-02
     10  0.242837D-01 -0.598878D-02 -0.532353D-02  0.253819D-02  0.424243D-02
     11 -0.184744D-01  0.532136D-02  0.509188D-02  0.202484D-03  0.125305D-03
     12 -0.200743D-01  0.433576D-02  0.471626D-03  0.402145D-02 -0.138646D-02
     13 -0.186972D-01 -0.328301D-03  0.432929D-02  0.404443D-02 -0.904527D-03
     14  0.159684D-01 -0.470808D-03 -0.177580D-02  0.405407D-02  0.153207D-02
     15  0.271636D-01  0.428161D-02 -0.104576D-02 -0.151065D-02 -0.579029D-02
     16  0.130147D-01 -0.111438D-02  0.422845D-02 -0.111228D-02 -0.613382D-02
     17 -0.182937D-01 -0.137072D-02  0.320983D-03 -0.611840D-03  0.510153D-02
     18 -0.181008D-01  0.140478D-03 -0.995255D-03 -0.122871D-02  0.481345D-02
     19 -0.183718D-01 -0.119949D-02 -0.861746D-03  0.337649D-03  0.535389D-04
     20  0.132723D-02  0.196345D-03 -0.423963D-02  0.282912D-02  0.684506D-03
     21  0.626682D-03 -0.317391D-03 -0.323959D-02  0.251949D-02 -0.280561D-02
     22  0.110490D-03 -0.866607D-03 -0.366432D-02  0.354789D-02  0.351725D-02
     23  0.733089D-03  0.365284D-02 -0.357246D-03 -0.343486D-02 -0.337330D-03
     24  0.325435D-04  0.313910D-02  0.642788D-03 -0.374449D-02 -0.382745D-02
     25 -0.483648D-03  0.258989D-02  0.218064D-03 -0.271609D-02  0.249541D-02
     26  0.146730D-02 -0.233604D-02  0.302128D-02 -0.232672D-03  0.234563D-04
     27  0.766751D-03 -0.284978D-02  0.402132D-02 -0.542307D-03 -0.346666D-02
     28  0.250560D-03 -0.339899D-02  0.359659D-02  0.486099D-03  0.285620D-02
                6             7             8             9            10 
      6  0.285278D+00
      7  0.263871D-02  0.318731D+00
      8  0.457547D-02 -0.122135D-02  0.112603D+00
      9 -0.124612D-02  0.435598D-02 -0.185992D-01  0.123384D+00
     10 -0.187734D-02 -0.504525D-03 -0.247461D-01 -0.122515D-01  0.118028D+00
     11 -0.920460D-03 -0.117393D-02 -0.363510D-01 -0.481590D-01  0.673132D-02
     12 -0.828019D-03  0.966010D-04 -0.383585D-01  0.718555D-02 -0.473587D-01
     13  0.313193D-03 -0.117797D-02  0.914136D-02 -0.407931D-01 -0.379210D-01
     14 -0.537771D-02 -0.631778D-02 -0.650010D-02 -0.779725D-02  0.182169D-01
     15  0.130403D-02 -0.581270D-02  0.188845D-01 -0.715842D-02 -0.641490D-02
     16 -0.548958D-02  0.185683D-02 -0.732169D-02  0.190050D-01 -0.734162D-02
     17  0.490710D-02 -0.102322D-03 -0.430391D-02  0.351321D-02 -0.319613D-02
     18  0.768155D-03  0.475930D-02  0.469999D-02 -0.481814D-02 -0.491948D-02
     19  0.464865D-02  0.495630D-02 -0.434258D-02 -0.336889D-02  0.343882D-02
     20  0.379233D-02 -0.347911D-02  0.285232D-02 -0.804334D-02  0.663629D-02
     21 -0.181875D-03  0.266096D-02  0.568630D-03 -0.470781D-02  0.556238D-02
     22 -0.378123D-02 -0.703838D-03 -0.180461D-02 -0.577131D-02  0.882925D-02
     23  0.431134D-02 -0.287272D-02  0.651469D-02 -0.446526D-03 -0.563300D-02
     24  0.337133D-03  0.326735D-02  0.423099D-02  0.288901D-02 -0.670691D-02
     25 -0.326222D-02 -0.974516D-04  0.185776D-02  0.182550D-02 -0.344005D-02
     26  0.327182D-02 -0.247863D-02 -0.250356D-02  0.324406D-02 -0.135653D-02
     27 -0.702388D-03  0.366143D-02 -0.478726D-02  0.657960D-02 -0.243045D-02
     28 -0.430174D-02  0.296632D-03 -0.716050D-02  0.551609D-02  0.836418D-03
               11            12            13            14            15 
     11  0.499910D-01
     12  0.101893D-01  0.528724D-01
     13  0.107238D-01  0.109701D-01  0.438331D-01
     14  0.361502D-02 -0.489902D-02 -0.301101D-02  0.108537D+00
     15 -0.360234D-02 -0.457014D-02  0.289336D-02 -0.135124D-01  0.120020D+00
     16 -0.424617D-02  0.443836D-02 -0.327358D-02 -0.289515D-01 -0.157414D-01
     17  0.624279D-03  0.294559D-02  0.410818D-03 -0.331309D-01 -0.459651D-01
     18  0.856593D-03  0.938169D-03  0.277052D-02 -0.432140D-01  0.801532D-02
     19  0.259655D-02  0.815022D-03  0.412153D-03  0.105589D-01 -0.471224D-01
     20 -0.587134D-02  0.322514D-02  0.553719D-03  0.130066D-02  0.630514D-02
     21 -0.628524D-02  0.450135D-02 -0.126294D-03 -0.210829D-02  0.821090D-03
     22 -0.517902D-02  0.405643D-02 -0.718457D-03  0.741422D-02 -0.612841D-02
     23  0.592466D-02 -0.141209D-03 -0.664598D-02 -0.249217D-02  0.745595D-02
     24  0.551076D-02  0.113500D-02 -0.732600D-02 -0.590113D-02  0.197189D-02
[...]
 Forces in standard orientation:
 -------------------------------------------------------------------
 Center     Atomic                   Forces (Hartrees/Bohr)
 Number     Number              X              Y              Z
 -------------------------------------------------------------------
      1        6          -0.000006649   -0.000014239    0.000014223
      2        6           0.000007609    0.000013610   -0.000013055
      3        1          -0.000001635    0.000004865   -0.000001313
      4        1           0.000001920   -0.000000429    0.000002220
      5        1           0.000003334    0.000006048   -0.000006836
      6        1          -0.000003785   -0.000005435    0.000007632
      7        1           0.000002111   -0.000004060   -0.000000340
      8        1          -0.000002905   -0.000000359   -0.000002531
 -------------------------------------------------------------------
 Cartesian Forces:  Max     0.000014239 RMS     0.000006869
 ***** Axes restored to original set *****
 Rotating derivatives, DoTrsp=F IDiff=-1 LEDeriv=   1204 LFDPrp=       0 LDFDPr=       0.
 -------------------------------------------------------------------
 Center     Atomic                   Forces (Hartrees/Bohr)
 Number     Number              X              Y              Z
 -------------------------------------------------------------------
      1        6           0.000006872    0.000008633   -0.000018097
      2        6          -0.000007810   -0.000008454    0.000016766
      3        1           0.000001640   -0.000004101    0.000002926
      4        1          -0.000001871   -0.000000382   -0.000002270
      5        1          -0.000003447   -0.000003403    0.000008424
      6        1           0.000003921    0.000002563   -0.000008954
      7        1          -0.000002149    0.000003900   -0.000001107
      8        1           0.000002843    0.000001243    0.000002312
 -------------------------------------------------------------------
 Cartesian Forces:  Max     0.000018097 RMS     0.000006869
 Final forces over variables, Energy=-7.98022681D+01:
  5.88744281D-07-2.58136798D-07-9.23410533D-06 2.02367305D-06
  7.79905779D-07-4.73738627D-06-4.89191578D-06 1.52992970D-05
  2.14692164D-06-3.08086438D-06-7.79393831D-06-5.04354280D-06
 -2.42915194D-06-3.59580385D-06 1.10258070D-05 5.07586096D-06
 -3.29896811D-06-2.99332152D-06-6.99843150D-06 1.17026376D-06
  3.47459573D-07-1.62441662D-06 3.03973247D-06 2.21692828D-06
  2.45052090D-07-6.65475462D-07-1.48827965D-06-3.46015584D-06
 Leave Link  716 at Fri Mar  8 00:28:57 2019, MaxMem=   104857600 cpu:               0.0 elap:               0.1
 (Enter /shared/centos7/gaussian/g16/l103.exe)

 GradGradGradGradGradGradGradGradGradGradGradGradGradGradGradGradGradGrad
 Berny optimization.
 Using GDIIS optimizer.
 FormGI is forming the generalized inverse of G from B-inverse, IUseBI=4.
 Internal  Forces:  Max     0.000008374 RMS     0.000003548
 Search for a local minimum.
 Step number  11 out of a maximum of  100
 All quantities printed in internal units (Hartrees-Bohrs-Radians)
 Swapping is turned off.
 Update second derivatives using D2CorX and points    1    2    3    4    5
                                                      6    7    8    9   10
                                                     11
 DE= -6.84D-08 DEPred=-4.50D-10 R= 1.52D+02
 Trust test= 1.52D+02 RLast= 1.09D-04 DXMaxT set to 6.31D-02
 ITU=  0  1 -1 -1  0  1 -1  1  1  1  0
     Eigenvalues ---    0.00051   0.00338   0.04505   0.04764   0.07362
     Eigenvalues ---    0.10658   0.12670   0.13471   0.17989   0.23269
     Eigenvalues ---    0.26056   0.28188   0.31289   0.31628   0.32453
     Eigenvalues ---    0.36890   0.76230   5.31653
 Cut down GDIIS temporarily because of the coefficient check. E 4
 DIIS coeff's:      4.05199     -3.05199
 Cosine:  1.000 >  0.970
 Length:  1.020
 GDIIS step was calculated using  2 of the last 11 vectors.
 Iteration  1 RMS(Cart)=  0.00149688 RMS(Int)=  0.00000208
 Iteration  2 RMS(Cart)=  0.00000172 RMS(Int)=  0.00000122
 Iteration  3 RMS(Cart)=  0.00000000 RMS(Int)=  0.00000122
 ITry= 1 IFail=0 DXMaxC= 4.28D-03 DCOld= 1.00D+10 DXMaxT= 6.31D-02 DXLimC= 3.00D+00 Rises=F
 Variable       Old X    -DE/DX   Delta X   Delta X   Delta X     New X
                                 (Linear)    (Quad)   (Total)
    R1        2.88115   0.00000  -0.00002  -0.00030  -0.00032   2.88083
    R2        2.05880  -0.00000   0.00001   0.00022   0.00023   2.05903
    R3        2.05879  -0.00000  -0.00007  -0.00154  -0.00161   2.05717
    R4        2.05877   0.00001   0.00001   0.00021   0.00022   2.05899
    R5        2.05878   0.00001   0.00000   0.00006   0.00006   2.05884
    R6        2.05880   0.00000  -0.00004  -0.00092  -0.00096   2.05784
    R7        2.05879  -0.00000  -0.00003  -0.00060  -0.00063   2.05816
    A1        1.94134   0.00001   0.00009   0.00200   0.00209   1.94343
    A2        1.94139  -0.00000  -0.00007  -0.00166  -0.00173   1.93966
    A3        1.94142  -0.00001  -0.00006  -0.00156  -0.00162   1.93980
    A4        1.87889   0.00000   0.00004   0.00085   0.00088   1.87977
    A5        1.87891   0.00000   0.00004   0.00098   0.00103   1.87994
    A6        1.87892   0.00000  -0.00003  -0.00054  -0.00058   1.87835
    A7        1.94142  -0.00001  -0.00007  -0.00178  -0.00186   1.93956
    A8        1.94133   0.00001  -0.00004  -0.00086  -0.00090   1.94043
    A9        1.94140  -0.00000   0.00005   0.00101   0.00106   1.94246
   A10        1.87890   0.00000   0.00003   0.00070   0.00072   1.87962
   A11        1.87893   0.00000  -0.00002  -0.00015  -0.00017   1.87876
   A12        1.87889   0.00000   0.00005   0.00120   0.00125   1.88014
    D1       -1.04722   0.00000  -0.00006  -0.00099  -0.00105  -1.04826
    D2        3.14159  -0.00000  -0.00002  -0.00009  -0.00011   3.14148
    D3        1.04724  -0.00000  -0.00009  -0.00170  -0.00180   1.04544
    D4        1.04713   0.00000   0.00000   0.00031   0.00031   1.04744
    D5       -1.04725   0.00000   0.00004   0.00121   0.00125  -1.04600
    D6        3.14159  -0.00000  -0.00003  -0.00040  -0.00044   3.14115
    D7        3.14157   0.00000  -0.00013  -0.00253  -0.00266   3.13891
    D8        1.04720  -0.00000  -0.00009  -0.00163  -0.00172   1.04547
    D9       -1.04715  -0.00000  -0.00017  -0.00325  -0.00341  -1.05057
         Item               Value     Threshold  Converged?
 Maximum Force            0.000008     0.000002     NO 
 RMS     Force            0.000004     0.000001     NO 
 Maximum Displacement     0.004283     0.000006     NO 
 RMS     Displacement     0.001497     0.000004     NO 
 Predicted change in Energy=-4.036142D-08
 GradGradGradGradGradGradGradGradGradGradGradGradGradGradGradGradGradGrad

 Leave Link  103 at Fri Mar  8 00:28:57 2019, MaxMem=   104857600 cpu:               0.0 elap:               0.0
 (Enter /shared/centos7/gaussian/g16/l202.exe)
                          Input orientation:                          
 ---------------------------------------------------------------------
 Center     Atomic      Atomic             Coordinates (Angstroms)
 Number     Number       Type             X           Y           Z
 ---------------------------------------------------------------------
      1          6           0        0.761950    0.011294    0.013797
      2          6           0       -0.762082   -0.011900   -0.014459
      3          1           0        1.179386   -0.130973   -0.982556
      4          1           0        1.133036    0.960775    0.395701
      5          1           0        1.155201   -0.777985    0.653767
      6          1           0       -1.155127    0.779087   -0.652301
      7          1           0       -1.176257    0.130391    0.982560
      8          1           0       -1.136206   -0.960688   -0.396610
 ---------------------------------------------------------------------
                    Distance matrix (angstroms):
                    1          2          3          4          5
     1  C    0.000000
     2  C    1.524470   0.000000
     3  H    1.089593   2.172714   0.000000
     4  H    1.088610   2.169286   1.758880   0.000000
     5  H    1.089572   2.170111   1.759762   1.757947   0.000000
     6  H    2.169880   1.089490   2.527297   2.523293   3.076995
     7  H    2.170100   1.088960   3.078806   2.523247   2.523677
     8  H    2.171677   1.089132   2.528582   3.077213   2.527294
                    6          7          8
     6  H    0.000000
     7  H    1.758984   0.000000
     8  H    1.758566   1.759025   0.000000
 Stoichiometry    C2H6
 Framework group  C1[X(C2H6)]
 Deg. of freedom    18
 Full point group                 C1      NOp   1
 RotChk:  IX=3 Diff= 1.57D+00
 Largest Abelian subgroup         C1      NOp   1
 Largest concise Abelian subgroup C1      NOp   1
                         Standard orientation:                         
 ---------------------------------------------------------------------
 Center     Atomic      Atomic             Coordinates (Angstroms)
 Number     Number       Type             X           Y           Z
 ---------------------------------------------------------------------
      1          6           0        0.762207    0.000259   -0.000059
      2          6           0       -0.762263    0.000010   -0.000223
      3          1           0        1.158749    0.996446   -0.193909
      4          1           0        1.154661   -0.331267    0.959702
      5          1           0        1.155388   -0.667818   -0.765728
      6          1           0       -1.155175    0.666044    0.767246
      7          1           0       -1.155534   -0.996782    0.193631
      8          1           0       -1.157750    0.331760   -0.959254
 ---------------------------------------------------------------------
 Rotational constants (GHZ):          81.0475366          20.0999941          20.0963046
 Leave Link  202 at Fri Mar  8 00:28:57 2019, MaxMem=   104857600 cpu:               0.0 elap:               0.0
 (Enter /shared/centos7/gaussian/g16/l301.exe)
 Standard basis: 6-311+G(2df,2p) (5D, 7F)
 Ernie: Thresh=  0.10000D-02 Tol=  0.10000D-05 Strict=F.
 There are   132 symmetry adapted cartesian basis functions of A   symmetry.
 There are   122 symmetry adapted basis functions of A   symmetry.
   122 basis functions,   170 primitive gaussians,   132 cartesian basis functions
     9 alpha electrons        9 beta electrons
       nuclear repulsion energy        42.3408393314 Hartrees.
 IExCor= 4336 DFT=T Ex+Corr=M062X ExCW=0 ScaHFX=  0.540000
 ScaDFX=  1.000000  1.000000  1.000000  1.000000 ScalE2=  1.000000  1.000000
 IRadAn=      5 IRanWt=     -1 IRanGd=            0 ICorTp=0 IEmpDi=  4
 NAtoms=    8 NActive=    8 NUniq=    8 SFac= 1.00D+00 NAtFMM=   60 NAOKFM=F Big=F
 Integral buffers will be    131072 words long.
 Raffenetti 2 integral format.
 Two-electron integral symmetry is turned on.
 Leave Link  301 at Fri Mar  8 00:28:57 2019, MaxMem=   104857600 cpu:               0.1 elap:               0.1
 (Enter /shared/centos7/gaussian/g16/l302.exe)
 NPDir=0 NMtPBC=     1 NCelOv=     1 NCel=       1 NClECP=     1 NCelD=      1
         NCelK=      1 NCelE2=     1 NClLst=     1 CellRange=     0.0.
 One-electron integrals computed using PRISM.
 One-electron integral symmetry used in STVInt
 NBasis=   122 RedAO= T EigKep=  1.58D-04  NBF=   122
 NBsUse=   122 1.00D-06 EigRej= -1.00D+00 NBFU=   122
 Precomputing XC quadrature grid using
 IXCGrd= 4 IRadAn=           5 IRanWt=          -1 IRanGd=           0 AccXCQ= 0.00D+00.
 Generated NRdTot=       0 NPtTot=           0 NUsed=           0 NTot=          32
 NSgBfM=   132   132   132   132   132 MxSgAt=     8 MxSgA2=     8.
 Leave Link  302 at Fri Mar  8 00:28:57 2019, MaxMem=   104857600 cpu:               0.3 elap:               0.3
 (Enter /shared/centos7/gaussian/g16/l303.exe)
 DipDrv:  MaxL=1.
 Leave Link  303 at Fri Mar  8 00:28:57 2019, MaxMem=   104857600 cpu:               0.1 elap:               0.1
 (Enter /shared/centos7/gaussian/g16/l401.exe)
 Initial guess from the checkpoint file:  "/scratch/underkoffler.c/gaussian_scratch/Gau-28282.chk"
 B after Tr=     0.000000    0.000000   -0.000000
         Rot=    0.831717   -0.555199    0.000051    0.000181 Ang= -67.45 deg.
 Guess basis will be translated and rotated to current coordinates.
 JPrj=2 DoOrth=T DoCkMO=T.
 Leave Link  401 at Fri Mar  8 00:28:58 2019, MaxMem=   104857600 cpu:               0.2 elap:               0.2
 (Enter /shared/centos7/gaussian/g16/l502.exe)
 Keep R1 ints in memory in canonical form, NReq=30149262.
 FoFCou: FMM=F IPFlag=           0 FMFlag=           0 FMFlg1=           0
         NFxFlg=           0 DoJE=F BraDBF=F KetDBF=F FulRan=T
         wScrn=  0.000000 ICntrl=       600 IOpCl=  0 I1Cent=           0 NGrid=           0
         NMat0=    1 NMatS0=   7503 NMatT0=    0 NMatD0=    1 NMtDS0=    0 NMtDT0=    0
 Symmetry not used in FoFCou.
 Two-electron integral symmetry not used.
 Closed shell SCF:
 Using DIIS extrapolation, IDIIS=  1040.
 NGot=   104857600 LenX=    76669324 LenY=    76651459
 Requested convergence on RMS density matrix=1.00D-08 within 128 cycles.
 Requested convergence on MAX density matrix=1.00D-06.
 Requested convergence on             energy=1.00D-06.
 No special actions if energy rises.

 Cycle   1  Pass 1  IDiag  1:
 E= -79.8022651874301    
 DIIS: error= 8.50D-05 at cycle   1 NSaved=   1.
 NSaved= 1 IEnMin= 1 EnMin= -79.8022651874301     IErMin= 1 ErrMin= 8.50D-05
 ErrMax= 8.50D-05  0.00D+00 EMaxC= 1.00D-01 BMatC= 1.12D-06 BMatP= 1.12D-06
 IDIUse=1 WtCom= 1.00D+00 WtEn= 0.00D+00
 Coeff-Com:  0.100D+01
 Coeff:      0.100D+01
 Gap=     0.714 Goal=   None    Shift=    0.000
 RMSDP=7.55D-06 MaxDP=1.15D-04              OVMax= 3.77D-04

 Cycle   2  Pass 1  IDiag  1:
 E= -79.8022663639646     Delta-E=       -0.000001176534 Rises=F Damp=F
 DIIS: error= 2.43D-05 at cycle   2 NSaved=   2.
 NSaved= 2 IEnMin= 2 EnMin= -79.8022663639646     IErMin= 2 ErrMin= 2.43D-05
 ErrMax= 2.43D-05  0.00D+00 EMaxC= 1.00D-01 BMatC= 3.49D-08 BMatP= 1.12D-06
 IDIUse=1 WtCom= 1.00D+00 WtEn= 0.00D+00
 Coeff-Com: -0.407D-01 0.104D+01
 Coeff:     -0.407D-01 0.104D+01
 Gap=     0.424 Goal=   None    Shift=    0.000
 RMSDP=1.82D-06 MaxDP=4.57D-05 DE=-1.18D-06 OVMax= 1.19D-04

 Cycle   3  Pass 1  IDiag  1:
 E= -79.8022664067393     Delta-E=       -0.000000042775 Rises=F Damp=F
 DIIS: error= 1.70D-05 at cycle   3 NSaved=   3.
 NSaved= 3 IEnMin= 3 EnMin= -79.8022664067393     IErMin= 3 ErrMin= 1.70D-05
 ErrMax= 1.70D-05  0.00D+00 EMaxC= 1.00D-01 BMatC= 1.38D-08 BMatP= 3.49D-08
 IDIUse=1 WtCom= 1.00D+00 WtEn= 0.00D+00
 Coeff-Com: -0.420D-01 0.394D+00 0.648D+00
 Coeff:     -0.420D-01 0.394D+00 0.648D+00
 Gap=     0.424 Goal=   None    Shift=    0.000
 RMSDP=6.53D-07 MaxDP=2.45D-05 DE=-4.28D-08 OVMax= 3.67D-05

 Cycle   4  Pass 1  IDiag  1:
 E= -79.8022664205669     Delta-E=       -0.000000013828 Rises=F Damp=F
 DIIS: error= 3.89D-06 at cycle   4 NSaved=   4.
 NSaved= 4 IEnMin= 4 EnMin= -79.8022664205669     IErMin= 4 ErrMin= 3.89D-06
 ErrMax= 3.89D-06  0.00D+00 EMaxC= 1.00D-01 BMatC= 6.00D-10 BMatP= 1.38D-08
 IDIUse=1 WtCom= 1.00D+00 WtEn= 0.00D+00
 Coeff-Com: -0.496D-02-0.199D-01 0.140D+00 0.885D+00
 Coeff:     -0.496D-02-0.199D-01 0.140D+00 0.885D+00
 Gap=     0.424 Goal=   None    Shift=    0.000
 RMSDP=1.95D-07 MaxDP=4.57D-06 DE=-1.38D-08 OVMax= 1.03D-05

 Cycle   5  Pass 1  IDiag  1:
 E= -79.8022664213237     Delta-E=       -0.000000000757 Rises=F Damp=F
 DIIS: error= 9.68D-07 at cycle   5 NSaved=   5.
 NSaved= 5 IEnMin= 5 EnMin= -79.8022664213237     IErMin= 5 ErrMin= 9.68D-07
 ErrMax= 9.68D-07  0.00D+00 EMaxC= 1.00D-01 BMatC= 2.47D-11 BMatP= 6.00D-10
 IDIUse=1 WtCom= 1.00D+00 WtEn= 0.00D+00
 Coeff-Com:  0.130D-02-0.276D-01-0.618D-02 0.198D+00 0.835D+00
 Coeff:      0.130D-02-0.276D-01-0.618D-02 0.198D+00 0.835D+00
 Gap=     0.424 Goal=   None    Shift=    0.000
 RMSDP=4.49D-08 MaxDP=4.51D-07 DE=-7.57D-10 OVMax= 2.76D-06

 Cycle   6  Pass 1  IDiag  1:
 E= -79.8022664213551     Delta-E=       -0.000000000031 Rises=F Damp=F
 DIIS: error= 6.55D-08 at cycle   6 NSaved=   6.
 NSaved= 6 IEnMin= 6 EnMin= -79.8022664213551     IErMin= 6 ErrMin= 6.55D-08
 ErrMax= 6.55D-08  0.00D+00 EMaxC= 1.00D-01 BMatC= 3.44D-13 BMatP= 2.47D-11
 IDIUse=1 WtCom= 1.00D+00 WtEn= 0.00D+00
 Coeff-Com:  0.240D-03-0.210D-02-0.507D-02-0.681D-02 0.874D-01 0.926D+00
 Coeff:      0.240D-03-0.210D-02-0.507D-02-0.681D-02 0.874D-01 0.926D+00
 Gap=     0.424 Goal=   None    Shift=    0.000
 RMSDP=9.35D-09 MaxDP=1.06D-07 DE=-3.14D-11 OVMax= 3.99D-07

 SCF Done:  E(RM062X) =  -79.8022664214     A.U. after    6 cycles
            NFock=  6  Conv=0.93D-08     -V/T= 2.0047
 KE= 7.942578225414D+01 PE=-2.688892805101D+02 EE= 6.732039250314D+01
 Leave Link  502 at Fri Mar  8 00:29:30 2019, MaxMem=   104857600 cpu:              32.6 elap:              32.6
 (Enter /shared/centos7/gaussian/g16/l701.exe)
 SCFChk:  SCF convergence  9.35D-09 required  1.00D-08
 ... and contract with generalized density number  0.
 Compute integral first derivatives.
 DipInt: DoE/N= T T RetVal/Mat= T F Init=T NMatP=  1 IDeriv=0 Min/MaxMlt=  1  1
 Entering OneElI...
 Multipole integrals L=1 to 1 MinM= 0 MaxM= 0.
 Requested accuracy = 0.1000D-12
 PrmmSu-InSpLW:  IPartL=    0 NPrtUS=    1 NPrtUL=    1 DoSpLW=F IThBeg=    0 IThEnd=    0 NThAct=    1.
 PrsmSu:  NPrtUS=   1 ThrOK=F IAlg=1 NPAlg=1 LenDen=           0 ISkipM=0 DoSpLW=F IThBeg=    0 IThEnd=    0.
 Prism:   IPart=     0 DynPar=F LinDyn=F Incr=          10.
 PRISM was handed   104739130 working-precision words and  1081 shell-pairs
 IPart=  0 NShTot=        1081 NBatch=          41 AvBLen=        26.4
 PrSmSu:  NxtVal=             11.
 Entering OneElI...
 Calculate overlap and kinetic energy integrals
    NBasis = 132  MinDer = 1  MaxDer = 1
 Requested accuracy = 0.1000D-12
 PrmmSu-InSpLW:  IPartL=    0 NPrtUS=    1 NPrtUL=    1 DoSpLW=F IThBeg=    0 IThEnd=    0 NThAct=    1.
 PrsmSu:  NPrtUS=   1 ThrOK=F IAlg=1 NPAlg=1 LenDen=           0 ISkipM=0 DoSpLW=F IThBeg=    0 IThEnd=    0.
 Prism:   IPart=     0 DynPar=F LinDyn=F Incr=          10.
 PRISM was handed   104720623 working-precision words and  1081 shell-pairs
 IPart=  0 NShTot=        1081 NBatch=          46 AvBLen=        23.5
 PrSmSu:  NxtVal=             11.
 Entering OneElI...
 Calculate potential energy integrals
    NBasis = 132  MinDer = 1  MaxDer = 1
 Requested accuracy = 0.1000D-12
 PrmmSu-InSpLW:  IPartL=    0 NPrtUS=    1 NPrtUL=    1 DoSpLW=F IThBeg=    0 IThEnd=    0 NThAct=    1.
 PrsmSu:  NPrtUS=   1 ThrOK=F IAlg=1 NPAlg=1 LenDen=           0 ISkipM=0 DoSpLW=F IThBeg=    0 IThEnd=    0.
 Prism:   IPart=     0 DynPar=F LinDyn=F Incr=          86.
 PRISM was handed   104739138 working-precision words and  1081 shell-pairs
 IPart=  0 NShTot=        8648 NBatch=        1081 AvBLen=         8.0
 PrSmSu:  NxtVal=             87.
 Force l701 out
 I=    0 X=  -1.655683154000D-05 Y=  -4.336018469191D-04 Z=   4.381706753436D-04
 I=    1 X=   2.422584854181D+00 Y=   1.663924723007D-02 Z=  -1.832836248600D-03
 I=    2 X=  -2.424162274787D+00 Y=  -7.427220735267D-03 Z=  -7.753302205745D-03
 I=    3 X=   1.187673723990D+00 Y=   2.307691295670D+00 Z=  -4.484044666511D-01
 I=    4 X=   1.176527975241D+00 Y=  -7.700035289437D-01 Z=   2.223870390664D+00
 I=    5 X=   1.176272209747D+00 Y=  -1.549022652746D+00 Z=  -1.771326774975D+00
 I=    6 X=  -1.175562814314D+00 Y=   1.542875475385D+00 Z=   1.777020507267D+00
 I=    7 X=  -1.178600425363D+00 Y=  -2.310548125582D+00 Z=   4.499006161493D-01
 I=    8 X=  -1.184733248695D+00 Y=   7.697955097216D-01 Z=  -2.221474133999D+00
 Leave Link  701 at Fri Mar  8 00:29:30 2019, MaxMem=   104857600 cpu:               0.2 elap:               0.2
 (Enter /shared/centos7/gaussian/g16/l702.exe)
 L702 exits ... SP integral derivatives will be done elsewhere.
 Leave Link  702 at Fri Mar  8 00:29:30 2019, MaxMem=   104857600 cpu:               0.0 elap:               0.0
