 Entering Gaussian System, Link 0=g16
 Input=RMGHERXMTMUMMV-UHFFFAOYSA-N_GeoFreq_a1.com
 Output=RMGHERXMTMUMMV-UHFFFAOYSA-N_GeoFreq_a1.log
 Initial command:
 /shared/centos7/gaussian/g16/l1.exe "/scratch/underkoffler.c/gaussian_scratch/Gau-35411.inp" -scrdir="/scratch/underkoffler.c/gaussian_scratch/"
 Entering Link 1 = /shared/centos7/gaussian/g16/l1.exe PID=     35412.
  
 Copyright (c) 1988,1990,1992,1993,1995,1998,2003,2009,2016,
            Gaussian, Inc.  All Rights Reserved.
  
 This is part of the Gaussian(R) 16 program.  It is based on
 the Gaussian(R) 09 system (copyright 2009, Gaussian, Inc.),
 the Gaussian(R) 03 system (copyright 2003, Gaussian, Inc.),
 the Gaussian(R) 98 system (copyright 1998, Gaussian, Inc.),
 the Gaussian(R) 94 system (copyright 1995, Gaussian, Inc.),
 the Gaussian 92(TM) system (copyright 1992, Gaussian, Inc.),
 the Gaussian 90(TM) system (copyright 1990, Gaussian, Inc.),
 the Gaussian 88(TM) system (copyright 1988, Gaussian, Inc.),
 the Gaussian 86(TM) system (copyright 1986, Carnegie Mellon
 University), and the Gaussian 82(TM) system (copyright 1983,
 Carnegie Mellon University). Gaussian is a federally registered
 trademark of Gaussian, Inc.
  
 This software contains proprietary and confidential information,
 including trade secrets, belonging to Gaussian, Inc.
  
 This software is provided under written license and may be
 used, copied, transmitted, or stored only in accord with that
 written license.
  
 The following legend is applicable only to US Government
 contracts under FAR:
  
                    RESTRICTED RIGHTS LEGEND
  
 Use, reproduction and disclosure by the US Government is
 subject to restrictions as set forth in subparagraphs (a)
 and (c) of the Commercial Computer Software - Restricted
 Rights clause in FAR 52.227-19.
  
 Gaussian, Inc.
 340 Quinnipiac St., Bldg. 40, Wallingford CT 06492
  
  
 ---------------------------------------------------------------
 Warning -- This program may not be used in any manner that
 competes with the business of Gaussian, Inc. or will provide
 assistance to any competitor of Gaussian, Inc.  The licensee
 of this program is prohibited from giving any competitor of
 Gaussian, Inc. access to this program.  By using this program,
 the user acknowledges that Gaussian, Inc. is engaged in the
 business of creating and licensing software in the field of
 computational chemistry and represents and warrants to the
 licensee that it is not a competitor of Gaussian, Inc. and that
 it will not use this program in any manner prohibited above.
 ---------------------------------------------------------------
  

 Cite this work as:
 Gaussian 16, Revision A.03,
 M. J. Frisch, G. W. Trucks, H. B. Schlegel, G. E. Scuseria, 
 M. A. Robb, J. R. Cheeseman, G. Scalmani, V. Barone, 
 G. A. Petersson, H. Nakatsuji, X. Li, M. Caricato, A. V. Marenich, 
 J. Bloino, B. G. Janesko, R. Gomperts, B. Mennucci, H. P. Hratchian, 
 J. V. Ortiz, A. F. Izmaylov, J. L. Sonnenberg, D. Williams-Young, 
 F. Ding, F. Lipparini, F. Egidi, J. Goings, B. Peng, A. Petrone, 
 T. Henderson, D. Ranasinghe, V. G. Zakrzewski, J. Gao, N. Rega, 
 G. Zheng, W. Liang, M. Hada, M. Ehara, K. Toyota, R. Fukuda, 
 J. Hasegawa, M. Ishida, T. Nakajima, Y. Honda, O. Kitao, H. Nakai, 
 T. Vreven, K. Throssell, J. A. Montgomery, Jr., J. E. Peralta, 
 F. Ogliaro, M. J. Bearpark, J. J. Heyd, E. N. Brothers, K. N. Kudin, 
 V. N. Staroverov, T. A. Keith, R. Kobayashi, J. Normand, 
 K. Raghavachari, A. P. Rendell, J. C. Burant, S. S. Iyengar, 
 J. Tomasi, M. Cossi, J. M. Millam, M. Klene, C. Adamo, R. Cammi, 
 J. W. Ochterski, R. L. Martin, K. Morokuma, O. Farkas, 
 J. B. Foresman, and D. J. Fox, Gaussian, Inc., Wallingford CT, 2016.
 
 ******************************************
 Gaussian 16:  EM64L-G16RevA.03 25-Dec-2016
                 6-Mar-2019 
 ******************************************
 ----------------------------------------------------------------------
 #p m062x/6-311+g(2df,2p) opt=(calcfc,verytight,gdiis,maxcycles=900) fr
 eq iop(7/33=1,2/16=3)
 ----------------------------------------------------------------------

 Warning!  Use of Opt=GDIIS is deprecated since it is seldom a good choice.

 1/6=900,7=1,10=4,18=20,19=11,26=3,38=1/1,3;
 2/9=110,12=2,16=3,17=6,18=5,40=1/2;
 3/5=4,6=6,7=214,11=2,25=1,30=1,71=2,74=-55,140=1/1,2,3;
 4//1;
 5/5=2,38=5/2;
 8/6=4,10=90,11=11/1;
 11/6=1,8=1,9=11,15=111,16=1/1,2,10;
 10/6=1,13=1/2;
 6/7=2,8=2,9=2,10=2,28=1/1;
 7/10=1,18=20,25=1,33=1/1,2,3,16;
 1/6=900,7=1,10=4,18=20,19=11,26=3/3(2);
 2/9=110,16=3/2;
 99//99;
 2/9=110,16=3/2;
 3/5=4,6=6,7=214,11=2,25=1,30=1,71=1,74=-55/1,2,3;
 4/5=5,16=3,69=1/1;
 5/5=2,38=5/2;
 7/33=1/1,2,3,16;
 1/6=900,7=1,18=20,19=11,26=3/3(-5);
 2/9=110,16=3/2;
 6/7=2,8=2,9=2,10=2,19=2,28=1/1;
 99/9=1/99;
 Leave Link    1 at Wed Mar  6 14:55:12 2019, MaxMem=           0 cpu:               0.2 elap:               1.6
 (Enter /shared/centos7/gaussian/g16/l101.exe)
 ------------------------------
 Gaussian input prepared by ASE
 ------------------------------
 Symbolic Z-matrix:
 Charge =  0 Multiplicity = 1
 O                     0.7844   -0.5729    0.7579 
 C                    -0.4267   -0.0745    0.4652 
 C                    -1.47904  -1.16994   0.55265 
 C                    -0.61501   0.62644  -0.83503 
 C                     1.9076    0.0037    0.2815 
 H                    -0.7111    0.66637   1.25686 
 H                    -2.16372  -1.03023   1.41747 
 H                    -0.97689  -2.14293   0.71235 
 H                    -2.07933  -1.24659  -0.36526 
 H                    -1.72026   0.75644  -0.9761 
 H                    -0.2789    0.07718  -1.7245 
 H                    -0.21724   1.6719   -0.82218 
 H                     2.5283   -0.7962   -0.1971 
 H                     1.8163    0.8127   -0.44 
 H                     2.5123    0.4118    1.1307 
 
 ITRead=  0  0  0  0  0  0  0  0  0  0  0  0  0  0  0
 MicOpt= -1 -1 -1 -1 -1 -1 -1 -1 -1 -1 -1 -1 -1 -1 -1
 NAtoms=     15 NQM=       15 NQMF=       0 NMMI=      0 NMMIF=      0
                NMic=       0 NMicF=      0.
                    Isotopes and Nuclear Properties:
 (Nuclear quadrupole moments (NQMom) in fm**2, nuclear magnetic moments (NMagM)
  in nuclear magnetons)

  Atom         1           2           3           4           5           6           7           8           9          10
 IAtWgt=          16          12          12          12          12           1           1           1           1           1
 AtmWgt=  15.9949146  12.0000000  12.0000000  12.0000000  12.0000000   1.0078250   1.0078250   1.0078250   1.0078250   1.0078250
 NucSpn=           0           0           0           0           0           1           1           1           1           1
 AtZEff=  -0.0000000  -0.0000000  -0.0000000  -0.0000000  -0.0000000  -0.0000000  -0.0000000  -0.0000000  -0.0000000  -0.0000000
 NQMom=    0.0000000   0.0000000   0.0000000   0.0000000   0.0000000   0.0000000   0.0000000   0.0000000   0.0000000   0.0000000
 NMagM=    0.0000000   0.0000000   0.0000000   0.0000000   0.0000000   2.7928460   2.7928460   2.7928460   2.7928460   2.7928460
 AtZNuc=   8.0000000   6.0000000   6.0000000   6.0000000   6.0000000   1.0000000   1.0000000   1.0000000   1.0000000   1.0000000

  Atom        11          12          13          14          15
 IAtWgt=           1           1           1           1           1
 AtmWgt=   1.0078250   1.0078250   1.0078250   1.0078250   1.0078250
 NucSpn=           1           1           1           1           1
 AtZEff=  -0.0000000  -0.0000000  -0.0000000  -0.0000000  -0.0000000
 NQMom=    0.0000000   0.0000000   0.0000000   0.0000000   0.0000000
 NMagM=    2.7928460   2.7928460   2.7928460   2.7928460   2.7928460
 AtZNuc=   1.0000000   1.0000000   1.0000000   1.0000000   1.0000000
 Leave Link  101 at Wed Mar  6 14:55:13 2019, MaxMem=   104857600 cpu:               0.2 elap:               0.3
 (Enter /shared/centos7/gaussian/g16/l103.exe)

 GradGradGradGradGradGradGradGradGradGradGradGradGradGradGradGradGradGrad
 Berny optimization.
 Initialization pass.
                           ----------------------------
                           !    Initial Parameters    !
                           ! (Angstroms and Degrees)  !
 --------------------------                            --------------------------
 ! Name  Definition              Value          Derivative Info.                !
 --------------------------------------------------------------------------------
 ! R1    R(1,2)                  1.342          calculate D2E/DX2 analytically  !
 ! R2    R(1,5)                  1.3494         calculate D2E/DX2 analytically  !
 ! R3    R(2,3)                  1.5215         calculate D2E/DX2 analytically  !
 ! R4    R(2,4)                  1.4891         calculate D2E/DX2 analytically  !
 ! R5    R(2,6)                  1.1209         calculate D2E/DX2 analytically  !
 ! R6    R(3,7)                  1.1119         calculate D2E/DX2 analytically  !
 ! R7    R(3,8)                  1.1065         calculate D2E/DX2 analytically  !
 ! R8    R(3,9)                  1.0994         calculate D2E/DX2 analytically  !
 ! R9    R(4,10)                 1.1218         calculate D2E/DX2 analytically  !
 ! R10   R(4,11)                 1.0981         calculate D2E/DX2 analytically  !
 ! R11   R(4,12)                 1.1186         calculate D2E/DX2 analytically  !
 ! R12   R(5,13)                 1.1199         calculate D2E/DX2 analytically  !
 ! R13   R(5,14)                 1.0878         calculate D2E/DX2 analytically  !
 ! R14   R(5,15)                 1.1195         calculate D2E/DX2 analytically  !
 ! A1    A(2,1,5)              121.0299         calculate D2E/DX2 analytically  !
 ! A2    A(1,2,3)              110.1368         calculate D2E/DX2 analytically  !
 ! A3    A(1,2,4)              118.6464         calculate D2E/DX2 analytically  !
 ! A4    A(1,2,6)              108.6875         calculate D2E/DX2 analytically  !
 ! A5    A(3,2,4)              107.5548         calculate D2E/DX2 analytically  !
 ! A6    A(3,2,6)              105.0571         calculate D2E/DX2 analytically  !
 ! A7    A(4,2,6)              105.8715         calculate D2E/DX2 analytically  !
 ! A8    A(2,3,7)              112.3423         calculate D2E/DX2 analytically  !
 ! A9    A(2,3,8)              109.1174         calculate D2E/DX2 analytically  !
 ! A10   A(2,3,9)              112.3235         calculate D2E/DX2 analytically  !
 ! A11   A(7,3,8)              106.1222         calculate D2E/DX2 analytically  !
 ! A12   A(7,3,9)              108.7798         calculate D2E/DX2 analytically  !
 ! A13   A(8,3,9)              107.877          calculate D2E/DX2 analytically  !
 ! A14   A(2,4,10)             106.7951         calculate D2E/DX2 analytically  !
 ! A15   A(2,4,11)             115.6663         calculate D2E/DX2 analytically  !
 ! A16   A(2,4,12)             112.6387         calculate D2E/DX2 analytically  !
 ! A17   A(10,4,11)            104.9323         calculate D2E/DX2 analytically  !
 ! A18   A(10,4,12)            104.0919         calculate D2E/DX2 analytically  !
 ! A19   A(11,4,12)            111.5888         calculate D2E/DX2 analytically  !
 ! A20   A(1,5,13)             107.8786         calculate D2E/DX2 analytically  !
 ! A21   A(1,5,14)             118.8198         calculate D2E/DX2 analytically  !
 ! A22   A(1,5,15)             109.7276         calculate D2E/DX2 analytically  !
 ! A23   A(13,5,14)            107.1129         calculate D2E/DX2 analytically  !
 ! A24   A(13,5,15)            106.5688         calculate D2E/DX2 analytically  !
 ! A25   A(14,5,15)            106.1011         calculate D2E/DX2 analytically  !
 ! D1    D(5,1,2,3)            154.4973         calculate D2E/DX2 analytically  !
 ! D2    D(5,1,2,4)             30.0            calculate D2E/DX2 analytically  !
 ! D3    D(5,1,2,6)            -90.913          calculate D2E/DX2 analytically  !
 ! D4    D(2,1,5,13)          -129.0714         calculate D2E/DX2 analytically  !
 ! D5    D(2,1,5,14)            -7.0402         calculate D2E/DX2 analytically  !
 ! D6    D(2,1,5,15)           115.2073         calculate D2E/DX2 analytically  !
 ! D7    D(1,2,3,7)            110.3436         calculate D2E/DX2 analytically  !
 ! D8    D(1,2,3,8)             -7.057          calculate D2E/DX2 analytically  !
 ! D9    D(1,2,3,9)           -126.6305         calculate D2E/DX2 analytically  !
 ! D10   D(4,2,3,7)           -118.9975         calculate D2E/DX2 analytically  !
 ! D11   D(4,2,3,8)            123.602          calculate D2E/DX2 analytically  !
 ! D12   D(4,2,3,9)              4.0284         calculate D2E/DX2 analytically  !
 ! D13   D(6,2,3,7)             -6.5311         calculate D2E/DX2 analytically  !
 ! D14   D(6,2,3,8)           -123.9317         calculate D2E/DX2 analytically  !
 ! D15   D(6,2,3,9)            116.4947         calculate D2E/DX2 analytically  !
 ! D16   D(1,2,4,10)           167.786          calculate D2E/DX2 analytically  !
 ! D17   D(1,2,4,11)            51.4482         calculate D2E/DX2 analytically  !
 ! D18   D(1,2,4,12)           -78.5461         calculate D2E/DX2 analytically  !
 ! D19   D(3,2,4,10)            42.0358         calculate D2E/DX2 analytically  !
 ! D20   D(3,2,4,11)           -74.302          calculate D2E/DX2 analytically  !
 ! D21   D(3,2,4,12)           155.7036         calculate D2E/DX2 analytically  !
 ! D22   D(6,2,4,10)           -69.8782         calculate D2E/DX2 analytically  !
 ! D23   D(6,2,4,11)           173.784          calculate D2E/DX2 analytically  !
 ! D24   D(6,2,4,12)            43.7896         calculate D2E/DX2 analytically  !
 --------------------------------------------------------------------------------
 Trust Radius=3.00D-01 FncErr=1.00D-07 GrdErr=1.00D-06 EigMax=2.50D+02 EigMin=1.00D-04
 Number of steps in this run=    100 maximum allowed number of steps=    100.
 GradGradGradGradGradGradGradGradGradGradGradGradGradGradGradGradGradGrad

 Leave Link  103 at Wed Mar  6 14:55:13 2019, MaxMem=   104857600 cpu:               0.0 elap:               0.0
 (Enter /shared/centos7/gaussian/g16/l202.exe)
                          Input orientation:                          
 ---------------------------------------------------------------------
 Center     Atomic      Atomic             Coordinates (Angstroms)
 Number     Number       Type             X           Y           Z
 ---------------------------------------------------------------------
      1          8           0        0.784400   -0.572900    0.757900
      2          6           0       -0.426700   -0.074500    0.465200
      3          6           0       -1.479038   -1.169942    0.552646
      4          6           0       -0.615006    0.626436   -0.835033
      5          6           0        1.907600    0.003700    0.281500
      6          1           0       -0.711102    0.666374    1.256863
      7          1           0       -2.163716   -1.030230    1.417474
      8          1           0       -0.976886   -2.142933    0.712349
      9          1           0       -2.079327   -1.246591   -0.365264
     10          1           0       -1.720259    0.756441   -0.976098
     11          1           0       -0.278904    0.077178   -1.724503
     12          1           0       -0.217238    1.671896   -0.822176
     13          1           0        2.528300   -0.796200   -0.197100
     14          1           0        1.816300    0.812700   -0.440000
     15          1           0        2.512300    0.411800    1.130700
 ---------------------------------------------------------------------
                    Distance matrix (angstroms):
                    1          2          3          4          5
     1  O    0.000000
     2  C    1.341953   0.000000
     3  C    2.349839   1.521531   0.000000
     4  C    2.436017   1.489085   2.428822   0.000000
     5  C    1.349445   2.342823   3.594478   2.828071   0.000000
     6  H    2.005315   1.120941   2.111328   2.094483   2.871945
     7  H    3.055417   2.199425   1.111859   3.196378   4.351443
     8  H    2.359916   2.154577   1.106514   3.192922   3.621315
     9  H    3.149014   2.189667   1.099446   2.423458   4.228134
    10  H    3.323735   2.107391   2.471072   1.121778   3.912740
    11  H    2.777687   2.199921   2.860252   1.098093   2.968206
    12  H    2.922161   2.179704   3.399752   1.118647   2.918204
    13  H    2.000769   3.113120   4.093967   3.508736   1.119896
    14  H    2.102301   2.576346   3.971835   2.470222   1.087832
    15  H    2.023426   3.052392   4.332071   3.700029   1.119530
                    6          7          8          9         10
     6  H    0.000000
     7  H    2.239274   0.000000
     8  H    2.873907   1.773097   0.000000
     9  H    2.857056   1.797801   1.783271   0.000000
    10  H    2.452066   3.019608   3.436542   2.124661   0.000000
    11  H    3.069608   3.827648   3.369617   2.615610   1.760402
    12  H    2.361648   4.013264   4.181476   3.491949   1.766585
    13  H    3.840164   4.967558   3.863562   4.632640   4.589966
    14  H    3.047707   4.763100   4.226767   4.407060   3.577404
    15  H    3.235899   4.901715   4.344663   5.105997   4.740457
                   11         12         13         14         15
    11  H    0.000000
    12  H    1.833337   0.000000
    13  H    3.313026   3.744355   0.000000
    14  H    2.565311   2.240436   1.776092   0.000000
    15  H    4.006866   3.584961   1.795153   1.764153   0.000000
 Stoichiometry    C4H10O
 Framework group  C1[X(C4H10O)]
 Deg. of freedom    39
 Full point group                 C1      NOp   1
 Largest Abelian subgroup         C1      NOp   1
 Largest concise Abelian subgroup C1      NOp   1
                         Standard orientation:                         
 ---------------------------------------------------------------------
 Center     Atomic      Atomic             Coordinates (Angstroms)
 Number     Number       Type             X           Y           Z
 ---------------------------------------------------------------------
      1          8           0        0.695960   -0.713305    0.032320
      2          6           0       -0.412233   -0.027329    0.351983
      3          6           0       -1.645673   -0.757170   -0.158911
      4          6           0       -0.520985    1.394056   -0.078383
      5          6           0        1.885949   -0.090612   -0.098764
      6          1           0       -0.520117   -0.018927    1.467689
      7          1           0       -2.255428   -1.185474    0.666307
      8          1           0       -1.327398   -1.614051   -0.782470
      9          1           0       -2.287697   -0.111445   -0.775050
     10          1           0       -1.587574    1.701234    0.084140
     11          1           0       -0.330745    1.584549   -1.142962
     12          1           0        0.064832    2.087803    0.574996
     13          1           0        2.326072   -0.393800   -1.082906
     14          1           0        1.916833    0.995917   -0.055427
     15          1           0        2.591191   -0.453037    0.691573
 ---------------------------------------------------------------------
 Rotational constants (GHZ):           8.0565716           3.9350118           2.9239689
 Leave Link  202 at Wed Mar  6 14:55:13 2019, MaxMem=   104857600 cpu:               0.1 elap:               0.0
 (Enter /shared/centos7/gaussian/g16/l301.exe)
 Standard basis: 6-311+G(2df,2p) (5D, 7F)
 Ernie: Thresh=  0.10000D-02 Tol=  0.10000D-05 Strict=F.
 There are   285 symmetry adapted cartesian basis functions of A   symmetry.
 There are   260 symmetry adapted basis functions of A   symmetry.
   260 basis functions,   370 primitive gaussians,   285 cartesian basis functions
    21 alpha electrons       21 beta electrons
       nuclear repulsion energy       199.8073094720 Hartrees.
 IExCor= 4336 DFT=T Ex+Corr=M062X ExCW=0 ScaHFX=  0.540000
 ScaDFX=  1.000000  1.000000  1.000000  1.000000 ScalE2=  1.000000  1.000000
 IRadAn=      5 IRanWt=     -1 IRanGd=            0 ICorTp=0 IEmpDi=  4
 NAtoms=   15 NActive=   15 NUniq=   15 SFac= 1.00D+00 NAtFMM=   60 NAOKFM=F Big=F
 Integral buffers will be    131072 words long.
 Raffenetti 2 integral format.
 Two-electron integral symmetry is turned on.
 Leave Link  301 at Wed Mar  6 14:55:13 2019, MaxMem=   104857600 cpu:               0.1 elap:               0.1
 (Enter /shared/centos7/gaussian/g16/l302.exe)
 NPDir=0 NMtPBC=     1 NCelOv=     1 NCel=       1 NClECP=     1 NCelD=      1
         NCelK=      1 NCelE2=     1 NClLst=     1 CellRange=     0.0.
 One-electron integrals computed using PRISM.
 One-electron integral symmetry used in STVInt
 NBasis=   260 RedAO= T EigKep=  3.63D-05  NBF=   260
 NBsUse=   260 1.00D-06 EigRej= -1.00D+00 NBFU=   260
 Precomputing XC quadrature grid using
 IXCGrd= 4 IRadAn=           5 IRanWt=          -1 IRanGd=           0 AccXCQ= 0.00D+00.
 Generated NRdTot=       0 NPtTot=           0 NUsed=           0 NTot=          32
 NSgBfM=   285   285   285   285   285 MxSgAt=    15 MxSgA2=    15.
 Leave Link  302 at Wed Mar  6 14:55:14 2019, MaxMem=   104857600 cpu:               0.6 elap:               0.6
 (Enter /shared/centos7/gaussian/g16/l303.exe)
 DipDrv:  MaxL=1.
 Leave Link  303 at Wed Mar  6 14:55:14 2019, MaxMem=   104857600 cpu:               0.1 elap:               0.1
 (Enter /shared/centos7/gaussian/g16/l401.exe)
 ExpMin= 4.38D-02 ExpMax= 8.59D+03 ExpMxC= 1.30D+03 IAcc=3 IRadAn=         5 AccDes= 0.00D+00
 Harris functional with IExCor= 1009 and IRadAn=       5 diagonalized for initial guess.
 HarFok:  IExCor= 1009 AccDes= 0.00D+00 IRadAn=         5 IDoV= 1 UseB2=F ITyADJ=14
 ICtDFT=  3500011 ScaDFX=  1.000000  1.000000  1.000000  1.000000
 FoFCou: FMM=F IPFlag=           0 FMFlag=      100000 FMFlg1=           0
         NFxFlg=           0 DoJE=T BraDBF=F KetDBF=T FulRan=T
         wScrn=  0.000000 ICntrl=       500 IOpCl=  0 I1Cent=   200000004 NGrid=           0
         NMat0=    1 NMatS0=      1 NMatT0=    0 NMatD0=    1 NMtDS0=    0 NMtDT0=    0
 Petite list used in FoFCou.
 Harris En= -233.550344732535    
 JPrj=0 DoOrth=F DoCkMO=F.
 Leave Link  401 at Wed Mar  6 14:55:23 2019, MaxMem=   104857600 cpu:               8.8 elap:               8.8
 (Enter /shared/centos7/gaussian/g16/l502.exe)
 Integral symmetry usage will be decided dynamically.
 Closed shell SCF:
 Using DIIS extrapolation, IDIIS=  1040.
 NGot=   104857600 LenX=   104690743 LenY=   104609077
 Requested convergence on RMS density matrix=1.00D-08 within 128 cycles.
 Requested convergence on MAX density matrix=1.00D-06.
 Requested convergence on             energy=1.00D-06.
 No special actions if energy rises.
 Fock matrices will be formed incrementally for  20 cycles.

 Cycle   1  Pass 1  IDiag  1:
 FoFJK:  IHMeth= 1 ICntrl=       0 DoSepK=F KAlg= 0 I1Cent=           0 FoldK=F
 IRaf= 990000000 NMat=       1 IRICut=       1 DoRegI=T DoRafI=F ISym2E= 0 IDoP0=0 IntGTp=1.
 FoFCou: FMM=F IPFlag=           0 FMFlag=      100000 FMFlg1=           0
         NFxFlg=           0 DoJE=F BraDBF=F KetDBF=F FulRan=T
         wScrn=  0.000000 ICntrl=         0 IOpCl=  0 I1Cent=           0 NGrid=           0
         NMat0=    1 NMatS0=      1 NMatT0=    0 NMatD0=    1 NMtDS0=    0 NMtDT0=    0
 Symmetry not used in FoFCou.
 E= -233.391208437375    
 DIIS: error= 2.47D-02 at cycle   1 NSaved=   1.
 NSaved= 1 IEnMin= 1 EnMin= -233.391208437375     IErMin= 1 ErrMin= 2.47D-02
 ErrMax= 2.47D-02  0.00D+00 EMaxC= 1.00D-01 BMatC= 2.41D-01 BMatP= 2.41D-01
 IDIUse=3 WtCom= 7.53D-01 WtEn= 2.47D-01
 Coeff-Com:  0.100D+01
 Coeff-En:   0.100D+01
 Coeff:      0.100D+01
 Gap=     0.283 Goal=   None    Shift=    0.000
 GapD=    0.283 DampG=1.000 DampE=0.500 DampFc=0.5000 IDamp=-1.
 Damping current iteration by 5.00D-01
 RMSDP=2.50D-03 MaxDP=1.11D-01              OVMax= 1.53D-01

 Cycle   2  Pass 1  IDiag  1:
 RMSU=  1.22D-03    CP:  9.71D-01
 E= -233.496226313000     Delta-E=       -0.105017875624 Rises=F Damp=T
 DIIS: error= 4.23D-03 at cycle   2 NSaved=   2.
 NSaved= 2 IEnMin= 2 EnMin= -233.496226313000     IErMin= 2 ErrMin= 4.23D-03
 ErrMax= 4.23D-03  0.00D+00 EMaxC= 1.00D-01 BMatC= 1.45D-02 BMatP= 2.41D-01
 IDIUse=3 WtCom= 9.58D-01 WtEn= 4.23D-02
 Coeff-Com: -0.107D+00 0.111D+01
 Coeff-En:   0.000D+00 0.100D+01
 Coeff:     -0.103D+00 0.110D+01
 Gap=     0.344 Goal=   None    Shift=    0.000
 RMSDP=8.84D-04 MaxDP=5.60D-02 DE=-1.05D-01 OVMax= 7.92D-02

 Cycle   3  Pass 1  IDiag  1:
 RMSU=  8.81D-04    CP:  9.66D-01  9.52D-01
 E= -233.594124785605     Delta-E=       -0.097898472605 Rises=F Damp=F
 DIIS: error= 3.10D-03 at cycle   3 NSaved=   3.
 NSaved= 3 IEnMin= 3 EnMin= -233.594124785605     IErMin= 3 ErrMin= 3.10D-03
 ErrMax= 3.10D-03  0.00D+00 EMaxC= 1.00D-01 BMatC= 2.53D-03 BMatP= 1.45D-02
 IDIUse=3 WtCom= 9.69D-01 WtEn= 3.10D-02
 Coeff-Com: -0.723D-01 0.291D+00 0.781D+00
 Coeff-En:   0.000D+00 0.000D+00 0.100D+01
 Coeff:     -0.701D-01 0.282D+00 0.788D+00
 Gap=     0.322 Goal=   None    Shift=    0.000
 RMSDP=1.69D-04 MaxDP=8.10D-03 DE=-9.79D-02 OVMax= 1.38D-02

 Cycle   4  Pass 1  IDiag  1:
 RMSU=  1.36D-04    CP:  9.64D-01  1.01D+00  9.30D-01
 E= -233.595782812380     Delta-E=       -0.001658026775 Rises=F Damp=F
 DIIS: error= 1.25D-03 at cycle   4 NSaved=   4.
 NSaved= 4 IEnMin= 4 EnMin= -233.595782812380     IErMin= 4 ErrMin= 1.25D-03
 ErrMax= 1.25D-03  0.00D+00 EMaxC= 1.00D-01 BMatC= 6.08D-04 BMatP= 2.53D-03
 IDIUse=3 WtCom= 9.87D-01 WtEn= 1.25D-02
 Coeff-Com: -0.255D-01 0.686D-01 0.372D+00 0.585D+00
 Coeff-En:   0.000D+00 0.000D+00 0.862D-01 0.914D+00
 Coeff:     -0.251D-01 0.677D-01 0.369D+00 0.589D+00
 Gap=     0.327 Goal=   None    Shift=    0.000
 RMSDP=6.96D-05 MaxDP=3.63D-03 DE=-1.66D-03 OVMax= 4.79D-03

 Cycle   5  Pass 1  IDiag  1:
 RMSU=  4.87D-05    CP:  9.64D-01  9.97D-01  9.59D-01  7.31D-01
 E= -233.596216497306     Delta-E=       -0.000433684926 Rises=F Damp=F
 DIIS: error= 2.14D-04 at cycle   5 NSaved=   5.
 NSaved= 5 IEnMin= 5 EnMin= -233.596216497306     IErMin= 5 ErrMin= 2.14D-04
 ErrMax= 2.14D-04  0.00D+00 EMaxC= 1.00D-01 BMatC= 1.96D-05 BMatP= 6.08D-04
 IDIUse=3 WtCom= 9.98D-01 WtEn= 2.14D-03
 Coeff-Com: -0.425D-02 0.707D-02 0.888D-01 0.219D+00 0.690D+00
 Coeff-En:   0.000D+00 0.000D+00 0.000D+00 0.000D+00 0.100D+01
 Coeff:     -0.424D-02 0.705D-02 0.886D-01 0.218D+00 0.690D+00
 Gap=     0.326 Goal=   None    Shift=    0.000
 RMSDP=1.78D-05 MaxDP=6.11D-04 DE=-4.34D-04 OVMax= 8.16D-04

 Cycle   6  Pass 1  IDiag  1:
 RMSU=  1.67D-05    CP:  9.64D-01  9.96D-01  9.61D-01  7.64D-01  9.34D-01
 E= -233.596229787884     Delta-E=       -0.000013290578 Rises=F Damp=F
 DIIS: error= 5.09D-05 at cycle   6 NSaved=   6.
 NSaved= 6 IEnMin= 6 EnMin= -233.596229787884     IErMin= 6 ErrMin= 5.09D-05
 ErrMax= 5.09D-05  0.00D+00 EMaxC= 1.00D-01 BMatC= 1.05D-06 BMatP= 1.96D-05
 IDIUse=1 WtCom= 1.00D+00 WtEn= 0.00D+00
 Coeff-Com:  0.265D-03-0.178D-02 0.933D-02 0.452D-01 0.237D+00 0.710D+00
 Coeff:      0.265D-03-0.178D-02 0.933D-02 0.452D-01 0.237D+00 0.710D+00
 Gap=     0.327 Goal=   None    Shift=    0.000
 RMSDP=4.49D-06 MaxDP=1.96D-04 DE=-1.33D-05 OVMax= 2.42D-04

 Cycle   7  Pass 1  IDiag  1:
 RMSU=  3.04D-06    CP:  9.64D-01  9.95D-01  9.62D-01  7.72D-01  9.88D-01
                    CP:  9.78D-01
 E= -233.596230635182     Delta-E=       -0.000000847297 Rises=F Damp=F
 DIIS: error= 2.05D-05 at cycle   7 NSaved=   7.
 NSaved= 7 IEnMin= 7 EnMin= -233.596230635182     IErMin= 7 ErrMin= 2.05D-05
 ErrMax= 2.05D-05  0.00D+00 EMaxC= 1.00D-01 BMatC= 1.03D-07 BMatP= 1.05D-06
 IDIUse=1 WtCom= 1.00D+00 WtEn= 0.00D+00
 Coeff-Com:  0.660D-03-0.152D-02-0.842D-02-0.125D-01-0.159D-01 0.228D+00
 Coeff-Com:  0.809D+00
 Coeff:      0.660D-03-0.152D-02-0.842D-02-0.125D-01-0.159D-01 0.228D+00
 Coeff:      0.809D+00
 Gap=     0.327 Goal=   None    Shift=    0.000
 RMSDP=2.05D-06 MaxDP=7.81D-05 DE=-8.47D-07 OVMax= 8.43D-05

 Cycle   8  Pass 1  IDiag  1:
 RMSU=  1.10D-06    CP:  9.64D-01  9.94D-01  9.62D-01  7.75D-01  1.01D+00
                    CP:  1.04D+00  1.02D+00
 E= -233.596230727544     Delta-E=       -0.000000092362 Rises=F Damp=F
 DIIS: error= 3.48D-06 at cycle   8 NSaved=   8.
 NSaved= 8 IEnMin= 8 EnMin= -233.596230727544     IErMin= 8 ErrMin= 3.48D-06
 ErrMax= 3.48D-06  0.00D+00 EMaxC= 1.00D-01 BMatC= 2.81D-09 BMatP= 1.03D-07
 IDIUse=1 WtCom= 1.00D+00 WtEn= 0.00D+00
 Coeff-Com:  0.125D-03-0.260D-03-0.243D-02-0.486D-02-0.150D-01 0.243D-01
 Coeff-Com:  0.189D+00 0.809D+00
 Coeff:      0.125D-03-0.260D-03-0.243D-02-0.486D-02-0.150D-01 0.243D-01
 Coeff:      0.189D+00 0.809D+00
 Gap=     0.327 Goal=   None    Shift=    0.000
 RMSDP=4.16D-07 MaxDP=1.76D-05 DE=-9.24D-08 OVMax= 1.59D-05

 Cycle   9  Pass 1  IDiag  1:
 RMSU=  3.08D-07    CP:  9.64D-01  9.94D-01  9.63D-01  7.75D-01  1.01D+00
                    CP:  1.05D+00  1.04D+00  1.00D+00
 E= -233.596230730605     Delta-E=       -0.000000003061 Rises=F Damp=F
 DIIS: error= 7.01D-07 at cycle   9 NSaved=   9.
 NSaved= 9 IEnMin= 9 EnMin= -233.596230730605     IErMin= 9 ErrMin= 7.01D-07
 ErrMax= 7.01D-07  0.00D+00 EMaxC= 1.00D-01 BMatC= 9.15D-11 BMatP= 2.81D-09
 IDIUse=1 WtCom= 1.00D+00 WtEn= 0.00D+00
 Coeff-Com: -0.210D-04 0.454D-04 0.920D-04-0.248D-04-0.697D-03-0.650D-02
 Coeff-Com: -0.165D-01 0.994D-01 0.924D+00
 Coeff:     -0.210D-04 0.454D-04 0.920D-04-0.248D-04-0.697D-03-0.650D-02
 Coeff:     -0.165D-01 0.994D-01 0.924D+00
 Gap=     0.327 Goal=   None    Shift=    0.000
 RMSDP=8.90D-08 MaxDP=2.57D-06 DE=-3.06D-09 OVMax= 5.81D-06

 Cycle  10  Pass 1  IDiag  1:
 RMSU=  4.37D-08    CP:  9.64D-01  9.94D-01  9.63D-01  7.75D-01  1.01D+00
                    CP:  1.05D+00  1.05D+00  1.06D+00  1.06D+00
 E= -233.596230730727     Delta-E=       -0.000000000122 Rises=F Damp=F
 DIIS: error= 1.14D-07 at cycle  10 NSaved=  10.
 NSaved=10 IEnMin=10 EnMin= -233.596230730727     IErMin=10 ErrMin= 1.14D-07
 ErrMax= 1.14D-07  0.00D+00 EMaxC= 1.00D-01 BMatC= 6.94D-12 BMatP= 9.15D-11
 IDIUse=1 WtCom= 1.00D+00 WtEn= 0.00D+00
 Coeff-Com: -0.823D-05 0.181D-04 0.954D-04 0.124D-03 0.308D-03-0.232D-02
 Coeff-Com: -0.990D-02-0.570D-02 0.227D+00 0.790D+00
 Coeff:     -0.823D-05 0.181D-04 0.954D-04 0.124D-03 0.308D-03-0.232D-02
 Coeff:     -0.990D-02-0.570D-02 0.227D+00 0.790D+00
 Gap=     0.327 Goal=   None    Shift=    0.000
 RMSDP=2.12D-08 MaxDP=8.54D-07 DE=-1.22D-10 OVMax= 1.29D-06

 Cycle  11  Pass 1  IDiag  1:
 RMSU=  1.05D-08    CP:  9.64D-01  9.94D-01  9.63D-01  7.75D-01  1.01D+00
                    CP:  1.05D+00  1.05D+00  1.07D+00  1.10D+00  1.02D+00
 E= -233.596230730733     Delta-E=       -0.000000000006 Rises=F Damp=F
 DIIS: error= 4.67D-08 at cycle  11 NSaved=  11.
 NSaved=11 IEnMin=11 EnMin= -233.596230730733     IErMin=11 ErrMin= 4.67D-08
 ErrMax= 4.67D-08  0.00D+00 EMaxC= 1.00D-01 BMatC= 8.45D-13 BMatP= 6.94D-12
 IDIUse=1 WtCom= 1.00D+00 WtEn= 0.00D+00
 Coeff-Com: -0.440D-06 0.141D-05 0.194D-04 0.314D-04 0.131D-03-0.158D-03
 Coeff-Com: -0.170D-02-0.101D-01-0.204D-03 0.244D+00 0.768D+00
 Coeff:     -0.440D-06 0.141D-05 0.194D-04 0.314D-04 0.131D-03-0.158D-03
 Coeff:     -0.170D-02-0.101D-01-0.204D-03 0.244D+00 0.768D+00
 Gap=     0.327 Goal=   None    Shift=    0.000
 RMSDP=5.91D-09 MaxDP=2.26D-07 DE=-6.03D-12 OVMax= 4.90D-07

 SCF Done:  E(RM062X) =  -233.596230731     A.U. after   11 cycles
            NFock= 11  Conv=0.59D-08     -V/T= 2.0034
 KE= 2.328066016376D+02 PE=-9.437963087258D+02 EE= 2.775861668854D+02
 Leave Link  502 at Wed Mar  6 15:01:04 2019, MaxMem=   104857600 cpu:             341.4 elap:             341.4
 (Enter /shared/centos7/gaussian/g16/l801.exe)
 DoSCS=F DFT=T ScalE2(SS,OS)=  1.000000  1.000000
 Range of M.O.s used for correlation:     1   260
 NBasis=   260 NAE=    21 NBE=    21 NFC=     0 NFV=     0
 NROrb=    260 NOA=    21 NOB=    21 NVA=   239 NVB=   239

 **** Warning!!: The largest alpha MO coefficient is  0.45457520D+02

 Leave Link  801 at Wed Mar  6 15:01:04 2019, MaxMem=   104857600 cpu:               0.1 elap:               0.1
 (Enter /shared/centos7/gaussian/g16/l1101.exe)
 Using compressed storage, NAtomX=    15.
 Will process     16 centers per pass.
 Leave Link 1101 at Wed Mar  6 15:01:05 2019, MaxMem=   104857600 cpu:               0.3 elap:               0.4
 (Enter /shared/centos7/gaussian/g16/l1102.exe)
 Symmetrizing basis deriv contribution to polar:
 IMax=3 JMax=2 DiffMx= 0.00D+00
 Leave Link 1102 at Wed Mar  6 15:01:05 2019, MaxMem=   104857600 cpu:               0.1 elap:               0.1
 (Enter /shared/centos7/gaussian/g16/l1110.exe)
 Forming Gx(P) for the SCF density, NAtomX=    15.
 Integral derivatives from FoFJK, PRISM(SPDF).
 Do as many integral derivatives as possible in FoFJK.
 G2DrvN: MDV=     104856384.
 G2DrvN: will do    16 centers at a time, making    1 passes.
 Calling FoFCou, ICntrl=  3107 FMM=F I1Cent=   0 AccDes= 0.00D+00.
 FoFJK:  IHMeth= 1 ICntrl=    3107 DoSepK=F KAlg= 0 I1Cent=           0 FoldK=F
 IRaf=         0 NMat=       1 IRICut=       1 DoRegI=T DoRafI=F ISym2E= 0 IDoP0=0 IntGTp=1.
 FoFCou: FMM=F IPFlag=           0 FMFlag=      100000 FMFlg1=           0
         NFxFlg=           0 DoJE=F BraDBF=F KetDBF=F FulRan=T
         wScrn=  0.000000 ICntrl=      3107 IOpCl=  0 I1Cent=           0 NGrid=           0
         NMat0=    1 NMatS0=      1 NMatT0=    0 NMatD0=    1 NMtDS0=    0 NMtDT0=    0
 Symmetry not used in FoFCou.
 End of G2Drv F.D. properties file   721 does not exist.
 End of G2Drv F.D. properties file   722 does not exist.
 End of G2Drv F.D. properties file   788 does not exist.
 Leave Link 1110 at Wed Mar  6 15:15:53 2019, MaxMem=   104857600 cpu:             888.3 elap:             888.5
 (Enter /shared/centos7/gaussian/g16/l1002.exe)
 Minotr:  Closed shell wavefunction.
          IDoAtm=111111111111111
          Direct CPHF calculation.
          Differentiating once with respect to nuclear coordinates.
          Requested convergence is 1.0D-08 RMS, and 1.0D-07 maximum.
          Secondary convergence is 1.0D-12 RMS, and 1.0D-12 maximum.
          NewPWx=T KeepS1=F KeepF1=F KeepIn=T MapXYZ=F SortEE=F KeepMc=T.
         4562 words used for storage of precomputed grid.
 Two-electron integrals replicated using symmetry.
          MDV=     104857600 using IRadAn=       1.
          Solving linear equations simultaneously, MaxMat=     384.
 FoF2E skips out because all densities are zero.
 CalDSu exits because no D1Ps are significant.
 FoFJK:  IHMeth= 1 ICntrl=       0 DoSepK=F KAlg= 0 I1Cent=           0 FoldK=F
 IRaf= 980000000 NMat=      45 IRICut=     112 DoRegI=T DoRafI=T ISym2E= 2 IDoP0=3 IntGTp=3.
 FoFCou: FMM=F IPFlag=           0 FMFlag=      100000 FMFlg1=           0
         NFxFlg=           0 DoJE=F BraDBF=F KetDBF=F FulRan=T
         wScrn=  0.000000 ICntrl=         0 IOpCl=  0 I1Cent=           0 NGrid=           0
         NMat0=   45 NMatS0=     45 NMatT0=    0 NMatD0=   45 NMtDS0=    0 NMtDT0=    0
 Integrals replicated using symmetry in FoFCou.
 Raff kept on since  96.51% of shell-pairs survive, threshold=   0.20 IRatSp=97.
          There are    48 degrees of freedom in the 1st order CPHF.  IDoFFX=6 NUNeed=     0.
     42 vectors produced by pass  0 Test12= 1.05D-14 2.08D-09 XBig12= 8.48D-02 4.45D-02.
 AX will form    42 AO Fock derivatives at one time.
     42 vectors produced by pass  1 Test12= 1.05D-14 2.08D-09 XBig12= 4.27D-03 9.52D-03.
     42 vectors produced by pass  2 Test12= 1.05D-14 2.08D-09 XBig12= 7.29D-05 1.36D-03.
     42 vectors produced by pass  3 Test12= 1.05D-14 2.08D-09 XBig12= 6.40D-07 9.57D-05.
     42 vectors produced by pass  4 Test12= 1.05D-14 2.08D-09 XBig12= 3.72D-09 5.78D-06.
     42 vectors produced by pass  5 Test12= 1.05D-14 2.08D-09 XBig12= 1.57D-11 3.79D-07.
     17 vectors produced by pass  6 Test12= 1.05D-14 2.08D-09 XBig12= 6.26D-14 2.87D-08.
 InvSVY:  IOpt=1 It=  1 EMax= 1.78D-15
 Solved reduced A of dimension   269 with    42 vectors.
 End of Minotr F.D. properties file   721 does not exist.
 End of Minotr F.D. properties file   722 does not exist.
 End of Minotr F.D. properties file   788 does not exist.
 Leave Link 1002 at Wed Mar  6 15:34:06 2019, MaxMem=   104857600 cpu:            1092.3 elap:            1092.6
 (Enter /shared/centos7/gaussian/g16/l601.exe)
 Copying SCF densities to generalized density rwf, IOpCl= 0 IROHF=0.

 **********************************************************************

            Population analysis using the SCF density.

 **********************************************************************

 Orbital symmetries:
       Occupied  (A) (A) (A) (A) (A) (A) (A) (A) (A) (A) (A) (A)
                 (A) (A) (A) (A) (A) (A) (A) (A) (A)
       Virtual   (A) (A) (A) (A) (A) (A) (A) (A) (A) (A) (A) (A)
                 (A) (A) (A) (A) (A) (A) (A) (A) (A) (A) (A) (A)
                 (A) (A) (A) (A) (A) (A) (A) (A) (A) (A) (A) (A)
                 (A) (A) (A) (A) (A) (A) (A) (A) (A) (A) (A) (A)
                 (A) (A) (A) (A) (A) (A) (A) (A) (A) (A) (A) (A)
                 (A) (A) (A) (A) (A) (A) (A) (A) (A) (A) (A) (A)
                 (A) (A) (A) (A) (A) (A) (A) (A) (A) (A) (A) (A)
                 (A) (A) (A) (A) (A) (A) (A) (A) (A) (A) (A) (A)
                 (A) (A) (A) (A) (A) (A) (A) (A) (A) (A) (A) (A)
                 (A) (A) (A) (A) (A) (A) (A) (A) (A) (A) (A) (A)
                 (A) (A) (A) (A) (A) (A) (A) (A) (A) (A) (A) (A)
                 (A) (A) (A) (A) (A) (A) (A) (A) (A) (A) (A) (A)
                 (A) (A) (A) (A) (A) (A) (A) (A) (A) (A) (A) (A)
                 (A) (A) (A) (A) (A) (A) (A) (A) (A) (A) (A) (A)
                 (A) (A) (A) (A) (A) (A) (A) (A) (A) (A) (A) (A)
                 (A) (A) (A) (A) (A) (A) (A) (A) (A) (A) (A) (A)
                 (A) (A) (A) (A) (A) (A) (A) (A) (A) (A) (A) (A)
                 (A) (A) (A) (A) (A) (A) (A) (A) (A) (A) (A) (A)
                 (A) (A) (A) (A) (A) (A) (A) (A) (A) (A) (A) (A)
                 (A) (A) (A) (A) (A) (A) (A) (A) (A) (A) (A)
 The electronic state is 1-A.
 Alpha  occ. eigenvalues --  -19.62080 -10.58297 -10.57511 -10.52983 -10.51878
 Alpha  occ. eigenvalues --   -1.19411  -0.89340  -0.79737  -0.76235  -0.65739
 Alpha  occ. eigenvalues --   -0.58836  -0.55248  -0.54591  -0.50035  -0.45864
 Alpha  occ. eigenvalues --   -0.45545  -0.43333  -0.40913  -0.40798  -0.36921
 Alpha  occ. eigenvalues --   -0.31237
 Alpha virt. eigenvalues --    0.01417   0.02995   0.03622   0.03939   0.05509
 Alpha virt. eigenvalues --    0.06486   0.06763   0.07158   0.07579   0.09810
 Alpha virt. eigenvalues --    0.10206   0.11596   0.11853   0.12613   0.13476
 Alpha virt. eigenvalues --    0.14812   0.17739   0.18563   0.20419   0.21682
 Alpha virt. eigenvalues --    0.22118   0.23840   0.24826   0.25399   0.26925
 Alpha virt. eigenvalues --    0.27016   0.27915   0.29220   0.30345   0.32055
 Alpha virt. eigenvalues --    0.32975   0.36004   0.37109   0.39795   0.41556
 Alpha virt. eigenvalues --    0.44677   0.45379   0.46417   0.47236   0.47778
 Alpha virt. eigenvalues --    0.49072   0.51943   0.52609   0.54845   0.57172
 Alpha virt. eigenvalues --    0.57573   0.58017   0.59027   0.59778   0.61438
 Alpha virt. eigenvalues --    0.63074   0.64223   0.64881   0.65948   0.68033
 Alpha virt. eigenvalues --    0.69178   0.69509   0.71122   0.73849   0.77725
 Alpha virt. eigenvalues --    0.82039   0.83800   0.84763   0.87807   0.90531
 Alpha virt. eigenvalues --    0.92969   0.94929   0.97102   1.00611   1.02911
 Alpha virt. eigenvalues --    1.04544   1.05654   1.06422   1.08999   1.10543
 Alpha virt. eigenvalues --    1.12416   1.14138   1.14756   1.17022   1.18489
 Alpha virt. eigenvalues --    1.19811   1.20427   1.23291   1.25426   1.26194
 Alpha virt. eigenvalues --    1.27564   1.27945   1.28638   1.30376   1.31742
 Alpha virt. eigenvalues --    1.34374   1.35362   1.36987   1.39282   1.41352
 Alpha virt. eigenvalues --    1.42259   1.43403   1.44260   1.46020   1.47714
 Alpha virt. eigenvalues --    1.49194   1.50338   1.52015   1.54193   1.54301
 Alpha virt. eigenvalues --    1.56134   1.57842   1.59703   1.61409   1.63787
 Alpha virt. eigenvalues --    1.64482   1.69636   1.72973   1.85272   2.05032
 Alpha virt. eigenvalues --    2.13457   2.14644   2.32802   2.35998   2.40897
 Alpha virt. eigenvalues --    2.47168   2.49368   2.50559   2.53025   2.56894
 Alpha virt. eigenvalues --    2.60527   2.66599   2.74215   2.79359   2.81675
 Alpha virt. eigenvalues --    2.83289   2.90752   2.93603   2.97255   2.98154
 Alpha virt. eigenvalues --    2.99082   3.01784   3.05802   3.06641   3.09817
 Alpha virt. eigenvalues --    3.12228   3.14051   3.15296   3.16794   3.19289
 Alpha virt. eigenvalues --    3.20995   3.23906   3.24809   3.26253   3.27795
 Alpha virt. eigenvalues --    3.30622   3.31268   3.35012   3.35830   3.37716
 Alpha virt. eigenvalues --    3.40073   3.42154   3.45153   3.48757   3.52252
 Alpha virt. eigenvalues --    3.54036   3.59041   3.60671   3.63539   3.67182
 Alpha virt. eigenvalues --    3.69764   3.71787   3.74482   3.76133   3.79732
 Alpha virt. eigenvalues --    3.80372   3.82379   3.85954   3.88616   3.89797
 Alpha virt. eigenvalues --    3.90820   3.92235   3.94995   3.96221   3.98076
 Alpha virt. eigenvalues --    4.01430   4.03933   4.11669   4.11992   4.15808
 Alpha virt. eigenvalues --    4.17663   4.18777   4.20781   4.21540   4.22677
 Alpha virt. eigenvalues --    4.24629   4.26151   4.30095   4.30857   4.33194
 Alpha virt. eigenvalues --    4.35162   4.39401   4.42040   4.44038   4.46743
 Alpha virt. eigenvalues --    4.49829   4.50290   4.56835   4.57820   4.59726
 Alpha virt. eigenvalues --    4.64997   4.69602   4.72261   4.87807   4.96923
 Alpha virt. eigenvalues --    5.07496   5.25269   5.28119   5.35596   5.44051
 Alpha virt. eigenvalues --    5.48626   5.49561   5.53722   5.54231   5.55654
 Alpha virt. eigenvalues --    5.58177   5.58394   5.66093   5.73316   5.92872
 Alpha virt. eigenvalues --    6.14415   6.37293   6.58545   7.02771   7.16741
 Alpha virt. eigenvalues --    7.27211   7.46059   7.77224   7.82255  24.29438
 Alpha virt. eigenvalues --   24.35731  24.50546  24.62140  50.25832
          Condensed to atoms (all electrons):
               1          2          3          4          5          6
     1  O    8.304527   0.123356  -0.141053  -0.022518   0.068435  -0.069477
     2  C    0.123356   5.676075   0.021984   0.023222  -0.062217   0.516402
     3  C   -0.141053   0.021984   5.370652   0.009648  -0.000184  -0.099779
     4  C   -0.022518   0.023222   0.009648   5.337185  -0.014639  -0.051095
     5  C    0.068435  -0.062217  -0.000184  -0.014639   4.995114   0.008481
     6  H   -0.069477   0.516402  -0.099779  -0.051095   0.008481   0.566218
     7  H    0.006542  -0.026912   0.401326   0.008258  -0.000881  -0.014903
     8  H   -0.014323  -0.040056   0.425949   0.001075   0.004193   0.004022
     9  H    0.009330  -0.096291   0.448665   0.010156   0.001541   0.006072
    10  H    0.007274  -0.058092   0.003366   0.412207   0.002059  -0.004675
    11  H    0.001295  -0.034502  -0.022185   0.438728  -0.000771   0.005945
    12  H    0.001142  -0.041228   0.018205   0.413947  -0.014409  -0.011127
    13  H   -0.083984   0.009588   0.009302  -0.011925   0.442343  -0.001938
    14  H   -0.025252  -0.019939  -0.000526   0.019046   0.410650  -0.000103
    15  H   -0.081771   0.007127  -0.009008   0.000667   0.455163   0.003864
               7          8          9         10         11         12
     1  O    0.006542  -0.014323   0.009330   0.007274   0.001295   0.001142
     2  C   -0.026912  -0.040056  -0.096291  -0.058092  -0.034502  -0.041228
     3  C    0.401326   0.425949   0.448665   0.003366  -0.022185   0.018205
     4  C    0.008258   0.001075   0.010156   0.412207   0.438728   0.413947
     5  C   -0.000881   0.004193   0.001541   0.002059  -0.000771  -0.014409
     6  H   -0.014903   0.004022   0.006072  -0.004675   0.005945  -0.011127
     7  H    0.554114  -0.025805  -0.031960   0.000315  -0.000116  -0.000353
     8  H   -0.025805   0.533004  -0.030451   0.001400   0.000480  -0.000469
     9  H   -0.031960  -0.030451   0.557002  -0.008954   0.000391   0.001104
    10  H    0.000315   0.001400  -0.008954   0.554644  -0.026789  -0.026977
    11  H   -0.000116   0.000480   0.000391  -0.026789   0.484306  -0.026079
    12  H   -0.000353  -0.000469   0.001104  -0.026977  -0.026079   0.543174
    13  H    0.000017  -0.000013   0.000027   0.000025  -0.000842   0.000839
    14  H   -0.000028   0.000048  -0.000038   0.000304  -0.004240  -0.004537
    15  H    0.000028  -0.000155   0.000027  -0.000035   0.000203  -0.000072
              13         14         15
     1  O   -0.083984  -0.025252  -0.081771
     2  C    0.009588  -0.019939   0.007127
     3  C    0.009302  -0.000526  -0.009008
     4  C   -0.011925   0.019046   0.000667
     5  C    0.442343   0.410650   0.455163
     6  H   -0.001938  -0.000103   0.003864
     7  H    0.000017  -0.000028   0.000028
     8  H   -0.000013   0.000048  -0.000155
     9  H    0.000027  -0.000038   0.000027
    10  H    0.000025   0.000304  -0.000035
    11  H   -0.000842  -0.004240   0.000203
    12  H    0.000839  -0.004537  -0.000072
    13  H    0.589133  -0.032137  -0.040591
    14  H   -0.032137   0.566703  -0.039947
    15  H   -0.040591  -0.039947   0.589293
 Mulliken charges:
               1
     1  O   -0.083523
     2  C    0.001485
     3  C   -0.436362
     4  C   -0.573962
     5  C   -0.294878
     6  H    0.142092
     7  H    0.130359
     8  H    0.141101
     9  H    0.133381
    10  H    0.143930
    11  H    0.184176
    12  H    0.146842
    13  H    0.120157
    14  H    0.129996
    15  H    0.115207
 Sum of Mulliken charges =  -0.00000
 Mulliken charges with hydrogens summed into heavy atoms:
               1
     1  O   -0.083523
     2  C    0.143577
     3  C   -0.031521
     4  C   -0.099015
     5  C    0.070482
 APT charges:
               1
     1  O    0.002887
     2  C    0.011417
     3  C   -1.240623
     4  C   -1.374548
     5  C   -1.291838
     6  H    0.357656
     7  H    0.445346
     8  H    0.330831
     9  H    0.386311
    10  H    0.429128
    11  H    0.369187
    12  H    0.381480
    13  H    0.405008
    14  H    0.341952
    15  H    0.445806
 Sum of APT charges =  -0.00000
 APT charges with hydrogens summed into heavy atoms:
               1
     1  O    0.002887
     2  C    0.369073
     3  C   -0.078135
     4  C   -0.194753
     5  C   -0.099072
 Electronic spatial extent (au):  <R**2>=            493.8492
 Charge=             -0.0000 electrons
 Dipole moment (field-independent basis, Debye):
    X=             -0.0312    Y=              1.2117    Z=              0.0419  Tot=              1.2128
 Quadrupole moment (field-independent basis, Debye-Ang):
   XX=            -32.0402   YY=            -34.9559   ZZ=            -33.4914
   XY=              0.6693   XZ=             -0.2503   YZ=             -0.0900
 Traceless Quadrupole moment (field-independent basis, Debye-Ang):
   XX=              1.4557   YY=             -1.4601   ZZ=              0.0044
   XY=              0.6693   XZ=             -0.2503   YZ=             -0.0900
 Octapole moment (field-independent basis, Debye-Ang**2):
  XXX=              6.7713  YYY=             -1.9436  ZZZ=             -0.2194  XYY=              0.4448
  XXY=             -0.2752  XXZ=              0.2534  XZZ=              1.4312  YZZ=             -1.2301
  YYZ=              0.0491  XYZ=              0.8932
 Hexadecapole moment (field-independent basis, Debye-Ang**3):
 XXXX=           -404.2174 YYYY=           -209.0247 ZZZZ=            -74.2079 XXXY=             -6.2991
 XXXZ=             -1.0909 YYYX=              0.9430 YYYZ=              2.1211 ZZZX=             -1.3994
 ZZZY=             -1.5877 XXYY=           -101.2174 XXZZ=            -78.8319 YYZZ=            -45.1907
 XXYZ=             -1.8463 YYXZ=             -0.0242 ZZXY=             -1.0472
 N-N= 1.998073094720D+02 E-N=-9.437963084716D+02  KE= 2.328066016376D+02
  Exact polarizability:   0.000   0.000   0.000   0.000   0.000   0.000
 Approx polarizability:  64.479  -0.422  60.749  -0.839   0.621  62.307
 No NMR shielding tensors so no spin-rotation constants.
 Leave Link  601 at Wed Mar  6 15:34:06 2019, MaxMem=   104857600 cpu:               0.3 elap:               0.3
 (Enter /shared/centos7/gaussian/g16/l701.exe)
 SCFChk:  SCF convergence  5.91D-09 required  1.00D-08
 ... and contract with generalized density number  0.
 Compute integral second derivatives.
 Entering OneElI...
 Calculate overlap and kinetic energy integrals
    NBasis = 285  MinDer = 2  MaxDer = 2
 Requested accuracy = 0.1000D-12
 PrmmSu-InSpLW:  IPartL=    0 NPrtUS=    1 NPrtUL=    1 DoSpLW=F IThBeg=    0 IThEnd=    0 NThAct=    1.
 PrsmSu:  NPrtUS=   1 ThrOK=F IAlg=1 NPAlg=1 LenDen=           0 ISkipM=0 DoSpLW=F IThBeg=    0 IThEnd=    0.
 Prism:   IPart=     0 DynPar=F LinDyn=F Incr=          40.
 PRISM was handed   104289299 working-precision words and  4095 shell-pairs
 IPart=  0 NShTot=        4095 NBatch=         203 AvBLen=        20.2
 PrSmSu:  NxtVal=             41.
 Entering OneElI...
 Calculate potential energy integrals
    NBasis = 285  MinDer = 2  MaxDer = 2
 Requested accuracy = 0.1000D-12
 PrmmSu-InSpLW:  IPartL=    0 NPrtUS=    1 NPrtUL=    1 DoSpLW=F IThBeg=    0 IThEnd=    0 NThAct=    1.
 PrsmSu:  NPrtUS=   1 ThrOK=F IAlg=1 NPAlg=1 LenDen=           0 ISkipM=0 DoSpLW=F IThBeg=    0 IThEnd=    0.
 Prism:   IPart=     0 DynPar=F LinDyn=F Incr=         512.
 PRISM was handed   104388469 working-precision words and  3927 shell-pairs
 IPart=  0 NShTot=       58905 NBatch=        3927 AvBLen=        15.0
 PrSmSu:  NxtVal=            513.
 Polarizability after L701:
                1             2             3 
      1  0.000000D+00
      2  0.000000D+00  0.000000D+00
      3  0.000000D+00  0.000000D+00  0.000000D+00
 Dipole Derivatives after L701:
                 1             2             3             4             5 
      1   0.431490D+00  0.272797D+00 -0.826669D-01  0.339940D+00  0.372306D-01
      2   0.273890D-01 -0.379790D+00 -0.110259D-01  0.677907D-01  0.477550D+00
      3  -0.138430D+00  0.797007D-01 -0.430379D-01  0.405540D+00 -0.596632D-01
                 6             7             8             9            10 
      1   0.651568D+00 -0.171424D+01 -0.567589D+00 -0.449954D+00 -0.120637D+01
      2  -0.346473D-01 -0.292297D+00 -0.114162D+01 -0.111464D+00  0.153821D+00
      3  -0.783238D+00 -0.235780D-01  0.566338D-01 -0.866001D+00 -0.125495D+00
                11            12            13            14            15 
      1   0.299241D+00 -0.225487D+00 -0.219980D+01 -0.313734D+00  0.145342D+00
      2  -0.181267D+01  0.170841D+00  0.166715D+00 -0.728182D+00 -0.269158D-01
      3  -0.299486D-01 -0.110460D+01  0.787179D-02 -0.870636D-02 -0.947529D+00
                16            17            18            19            20 
      1   0.210645D+00  0.565074D-02 -0.193470D+00  0.645271D+00  0.408749D+00
      2  -0.324900D-04  0.179091D+00 -0.197116D-01  0.279579D+00  0.308706D+00
      3  -0.107709D+00 -0.299608D-01  0.683231D+00 -0.155825D+00 -0.121337D+00
                21            22            23            24            25 
      1  -0.701096D+00  0.154935D-01  0.421583D+00  0.307292D+00  0.701070D+00
      2  -0.370514D+00 -0.195436D+00  0.670282D+00  0.413839D+00  0.301948D-01
      3   0.382062D+00 -0.104672D+00  0.277299D+00  0.306718D+00  0.202646D+00
                26            27            28            29            30 
      1  -0.557551D+00  0.544847D+00  0.817536D+00 -0.134064D+00 -0.669014D-01
      2   0.166509D+00  0.323462D-02 -0.661149D+00  0.328049D+00  0.600247D-01
      3  -0.213322D+00  0.291353D+00 -0.496645D-01  0.139221D-01  0.141799D+00
                31            32            33            34            35 
      1   0.138036D+00 -0.366876D-01  0.121836D+00  0.178186D+00  0.248959D-01
      2   0.911731D-01  0.308765D+00 -0.648794D+00  0.440787D+00  0.662294D+00
      3  -0.831930D-01 -0.105699D+00  0.660758D+00  0.135793D+00  0.132364D+00
                36            37            38            39            40 
      1   0.362571D-01  0.508292D+00 -0.271507D+00 -0.811731D+00  0.329516D+00
      2   0.558328D+00 -0.219034D-01  0.178350D+00  0.165620D+00  0.234313D-02
      3   0.303960D+00 -0.131345D+00  0.167336D+00  0.528383D+00  0.337294D-02
                41            42            43            44            45 
      1   0.762249D+00  0.224245D-01  0.804944D+00 -0.351264D+00  0.701742D+00
      2   0.581887D+00  0.154414D-01 -0.889749D-01  0.200781D+00 -0.164256D+00
      3  -0.175463D-01  0.114452D+00  0.164687D+00 -0.141073D+00  0.331693D+00
 Hessian after L701:
                1             2             3             4             5 
      1  0.274453D+01
      2  0.721464D+00  0.116744D+02
      3  0.161433D+01 -0.190280D+00  0.147614D+02
      4 -0.226156D+01 -0.289958D+01 -0.168729D+01  0.133705D+02
      5 -0.288280D+01 -0.673757D+01  0.791686D+00  0.213956D+01  0.168387D+02
      6 -0.152340D+01  0.734443D+00 -0.796570D+01  0.119698D+01 -0.339114D+00
      7  0.939161D+00  0.267717D+00  0.489077D+00 -0.196740D+01  0.145069D+01
      8  0.669147D-01 -0.101600D+00  0.231042D-01  0.152469D+01 -0.447157D+01
      9  0.298473D+00  0.141048D-01 -0.886478D-01  0.104753D+01  0.389712D+00
     10 -0.721789D-01 -0.532854D+00  0.132617D+00 -0.553711D+01 -0.600042D+00
     11 -0.467948D+00  0.712462D+00 -0.277471D+00 -0.680474D+00 -0.142114D+01
     12  0.793398D-01 -0.200616D+00 -0.298942D+00  0.234039D+00 -0.100111D+01
     13 -0.112563D+01  0.290137D+01 -0.777868D+00  0.272218D+00  0.252478D-01
     14  0.293124D+01 -0.632409D+01 -0.278221D+00 -0.189471D-01 -0.141118D+00
     15 -0.773436D+00 -0.269006D+00 -0.758704D+01 -0.112967D+00  0.152419D-01
     16 -0.118796D+00  0.159769D+00  0.382276D-01 -0.417295D+01  0.242330D-02
     17  0.155967D+00  0.419636D-01 -0.417761D-01  0.516288D-02 -0.424925D+01
     18  0.624521D-01 -0.548140D-01  0.495323D+00 -0.539410D+00  0.903955D-01
     19  0.141881D+00  0.428204D-01 -0.446984D-01 -0.472755D-01 -0.128680D-01
     20  0.558135D-01 -0.423296D-01 -0.105492D-01 -0.486962D-02  0.448658D-01
     21 -0.772715D-01 -0.188155D-01 -0.316810D-01 -0.342262D-01 -0.303683D-01
     22 -0.758212D-03 -0.816674D-02  0.929512D-02  0.593241D-01 -0.249706D-01
     23  0.550401D-01 -0.444455D-03  0.255622D-01  0.466204D-01  0.471591D-01
     24  0.612923D-01  0.261894D-01 -0.655989D-04  0.400480D-01  0.212423D-01
     25  0.147900D+00 -0.526798D-01  0.585462D-01 -0.113407D+00 -0.121682D-01
     26 -0.694389D-01 -0.411571D-01 -0.208701D-01 -0.428952D-01  0.198207D+00
     27  0.770448D-01 -0.174779D-01 -0.367350D-01 -0.103956D+00 -0.180056D-01
     28  0.884809D-01 -0.122874D+00 -0.146655D-02  0.441406D-01  0.260126D-01
     29 -0.105721D+00  0.440149D-01  0.151274D-02  0.991984D-01 -0.177951D-01
     30 -0.471700D-02  0.363901D-02 -0.484475D-01 -0.520847D-02 -0.141991D-01
     31 -0.234280D-01 -0.455952D-01  0.121624D-01  0.646468D-01  0.130798D-01
     32 -0.594111D-01  0.612994D-01 -0.384726D-01 -0.206323D-02  0.303430D-01
     33  0.425711D-01 -0.811942D-01 -0.126027D-01 -0.742936D-02  0.305479D-01
     34 -0.349354D-01 -0.844749D-02  0.187256D-04  0.652006D-01 -0.300160D-01
     35 -0.425787D-01  0.843295D-01  0.139346D-01 -0.975356D-01 -0.587769D-01
     36 -0.139673D-01  0.473847D-01 -0.342924D-01  0.172054D-01  0.383359D-01
     37 -0.221898D+00 -0.166037D+00 -0.479527D-01  0.916829D-01 -0.431843D-01
     38 -0.150802D+00  0.141743D+00  0.787097D-01 -0.451484D-01 -0.438314D-01
     39 -0.209518D-01  0.750828D-01  0.470042D+00 -0.103946D+00  0.283303D-01
     40 -0.111174D+00 -0.417857D-01 -0.565057D-02 -0.381771D-01 -0.356135D-01
     41 -0.165440D-01  0.361107D+00 -0.139219D-01  0.107281D-01  0.236820D-01
     42  0.724832D-03 -0.420508D-02  0.155086D-01  0.265658D-02  0.227396D-02
     43 -0.915950D-01 -0.215123D+00  0.210647D+00  0.170138D+00 -0.153582D-01
     44 -0.191203D+00  0.125870D+00 -0.629472D-01 -0.344553D-01 -0.419413D-01
     45  0.177515D+00 -0.644343D-01  0.361839D+00  0.559734D-01 -0.497046D-02
                6             7             8             9            10 
      6  0.193763D+02
      7  0.943561D+00  0.949320D+01
      8  0.338968D+00 -0.127494D+01  0.123234D+02
      9 -0.489479D+01 -0.889609D+00 -0.690244D-02  0.131848D+02
     10  0.227490D+00 -0.575548D-01  0.379257D+00  0.683343D-02  0.130669D+02
     11 -0.903537D+00  0.265222D+00  0.139195D+00  0.427639D-01  0.744410D+00
     12 -0.535381D+01  0.649579D-01  0.129574D+00 -0.287920D+00 -0.506950D+00
     13 -0.107315D+00  0.221635D+00  0.825079D-01 -0.401366D-02  0.155095D+00
     14  0.445579D-02  0.841587D-01 -0.125673D+00  0.126548D-04 -0.251840D+00
     15 -0.198102D+00 -0.119829D-01 -0.116155D-02 -0.144066D+00  0.424786D-01
     16 -0.552522D+00  0.890826D-01 -0.648297D-01 -0.104297D+00  0.114227D+00
     17  0.693219D-01 -0.660131D-01  0.129308D+00 -0.781390D-01 -0.135568D-01
     18 -0.128965D+01 -0.125201D+00 -0.948301D-01  0.664735D-01  0.127575D-01
     19 -0.193306D-01 -0.261049D+01  0.617626D+00 -0.106931D+01  0.248318D-01
     20 -0.251953D-01  0.593192D+00 -0.297665D+01 -0.763292D+00  0.844092D-01
     21  0.789183D-01 -0.990702D+00 -0.733692D+00 -0.220014D+01 -0.455778D-01
     22 -0.149163D-01 -0.351596D+01 -0.405134D+00 -0.291698D+00 -0.371870D-01
     23 -0.282855D-02 -0.581316D+00 -0.202210D+01  0.115815D+01  0.251593D-01
     24  0.169437D-01 -0.418315D+00  0.113946D+01 -0.277430D+01  0.872087D-02
     25 -0.139932D+00 -0.263327D+01 -0.994137D+00  0.102709D+01  0.497872D-01
     26 -0.276350D-01 -0.849817D+00 -0.299112D+01 -0.770092D+00  0.870522D-02
     27  0.103820D+00  0.948871D+00 -0.839623D+00 -0.278976D+01  0.528556D-01
     28 -0.159955D-01 -0.831244D-02 -0.555054D-01  0.857282D-03 -0.127421D+01
     29 -0.459623D-02 -0.218198D-01 -0.837480D-02 -0.241905D-01 -0.886728D+00
     30  0.514086D-01 -0.572293D-02 -0.327638D-02 -0.250649D-01 -0.278391D+00
     31 -0.151921D-01  0.331016D-02  0.140181D-01 -0.678325D-02 -0.364769D+01
     32  0.103586D+00 -0.872958D-03  0.146023D-01 -0.236890D-02  0.116131D+00
     33  0.674876D-02  0.498269D-02 -0.100485D-01  0.173102D-01 -0.385160D+00
     34  0.339573D-01  0.169358D-02  0.100683D+00  0.225496D-01 -0.297246D+01
     35  0.305733D-01  0.111357D+00  0.112067D+00  0.431542D-01  0.895702D+00
     36  0.104384D+00  0.323329D-01  0.604417D-01 -0.435411D-01  0.748237D+00
     37 -0.562005D-01  0.620570D-01  0.440639D-02 -0.269808D-01  0.155665D-01
     38  0.238722D-01 -0.220071D-02 -0.227727D-01  0.311217D-02 -0.238469D-01
     39 -0.134030D-01 -0.411454D-01  0.206291D-02 -0.723205D-02 -0.227044D-01
     40  0.139696D-01  0.193601D-01  0.105053D-01 -0.292668D-02  0.144868D+00
     41  0.116092D-01  0.279632D-01 -0.349687D-02 -0.588258D-02  0.799242D-01
     42  0.860989D-02  0.839860D-03  0.423282D-03 -0.133719D-01 -0.143076D-01
     43  0.288469D-01 -0.365160D-01 -0.606454D-02 -0.771390D-02  0.271246D-01
     44 -0.139227D-01 -0.331806D-02  0.479947D-02 -0.139715D-03 -0.248303D-01
     45 -0.316980D-01 -0.194371D-02 -0.449571D-02  0.290858D-03  0.211000D-01
               11            12            13            14            15 
     11  0.100571D+02
     12  0.485676D+00  0.136215D+02
     13 -0.111669D+00  0.350133D-01  0.951567D+01
     14 -0.142423D+00 -0.159505D-01 -0.252680D+01  0.147904D+02
     15 -0.379826D-01 -0.232900D+00  0.708908D+00  0.195414D+00  0.162217D+02
     16 -0.131667D-01  0.650475D-02  0.574554D-01 -0.514063D-02 -0.566523D-01
     17 -0.687384D-03  0.126547D+00  0.185830D-04 -0.493150D-01 -0.392999D-02
     18  0.129959D+00  0.205369D-01 -0.903190D-01  0.817311D-02  0.557489D-02
     19  0.808552D-01 -0.264225D-01  0.497560D-02  0.284147D-02 -0.315751D-02
     20  0.479318D-01 -0.323084D-01  0.484576D-02 -0.766154D-02 -0.103545D-02
     21 -0.441576D-01 -0.281309D-01 -0.667312D-02 -0.931035D-03 -0.564848D-02
     22  0.123363D-01  0.691731D-03  0.262934D-01  0.257647D-01  0.106444D-01
     23  0.956734D-01  0.419001D-01  0.414367D-01 -0.173458D-02  0.141706D-01
     24  0.424548D-01 -0.205403D-01  0.204025D-01  0.120110D-01 -0.166390D-01
     25  0.542685D-01  0.299342D-01  0.241395D-01 -0.378478D-02  0.966067D-02
     26 -0.518931D-01 -0.122433D-01 -0.692242D-02 -0.887215D-02 -0.365651D-02
     27  0.218914D-01 -0.351321D-01  0.111452D-01 -0.255956D-02 -0.909375D-02
     28 -0.737877D+00 -0.276714D+00  0.401515D-01 -0.382767D-01 -0.364707D-02
     29 -0.330364D+01  0.117290D+00 -0.299526D-01 -0.338854D-02  0.215849D-02
     30  0.102664D+00 -0.349691D+01 -0.372257D-02  0.284018D-02 -0.173862D-01
     31  0.789717D-01 -0.329069D+00  0.441335D-02 -0.376150D-01  0.211745D-01
     32 -0.358018D+01 -0.701969D+00 -0.360097D-01  0.120216D-01 -0.244690D-01
     33 -0.540928D+00 -0.114229D+01  0.384832D-01 -0.527168D-01  0.333366D-02
     34  0.791357D+00  0.712109D+00 -0.215651D-01  0.871072D-02  0.738709D-02
     35 -0.245005D+01  0.105915D+01  0.100896D-01  0.303388D-01 -0.250312D-03
     36  0.973965D+00 -0.264471D+01 -0.145361D-02  0.259539D-01 -0.934699D-03
     37 -0.901549D-02 -0.149062D-01 -0.302148D+01 -0.299900D+00 -0.114894D+01
     38  0.368872D-02  0.139513D-01 -0.279943D+00 -0.347593D+01  0.510187D+00
     39  0.712597D-02  0.581384D-02 -0.105546D+01  0.505885D+00 -0.167085D+01
     40  0.653571D-02 -0.186405D-01 -0.388654D+01  0.659513D+00  0.191555D-01
     41 -0.982424D-01 -0.221174D-02  0.435682D+00 -0.114558D+01  0.695261D-01
     42  0.375069D-02 -0.950393D-01  0.969898D-02  0.554175D-01 -0.388864D+01
     43 -0.138061D-01  0.101127D-01 -0.226682D+01 -0.529931D+00  0.129137D+01
     44 -0.776338D-02 -0.768437D-02 -0.509909D+00 -0.340693D+01 -0.465207D+00
     45 -0.617448D-02 -0.115329D-01  0.122318D+01 -0.459784D+00 -0.245929D+01
               16            17            18            19            20 
     16  0.402570D+01
     17 -0.295701D-01  0.419846D+01
     18  0.654108D+00 -0.751418D-01  0.515226D+00
     19 -0.435058D-01 -0.530045D-01 -0.334993D-01  0.240754D+01
     20 -0.526547D-01  0.575552D-03 -0.213500D-01 -0.717676D+00  0.285323D+01
     21 -0.320444D-01 -0.225528D-01  0.136473D-01  0.113515D+01  0.789759D+00
     22 -0.134362D-01  0.104334D-01  0.168985D-01  0.151396D-01  0.329353D-01
     23  0.841648D-02  0.903999D-02  0.533055D-01  0.175161D-01  0.631167D-01
     24  0.103633D-01  0.323100D-01  0.461522D-01  0.783099D-01 -0.533692D-01
     25  0.148659D-01  0.703965D-03  0.684132D-01  0.984745D-01 -0.506109D-02
     26 -0.103704D-02 -0.225470D-01 -0.829189D-02  0.895865D-03 -0.399095D-02
     27  0.432644D-01  0.413372D-03  0.563035D-01 -0.922308D-02  0.126692D+00
     28  0.232357D-02  0.401099D-02  0.803808D-02 -0.946568D-02 -0.550792D-02
     29  0.898540D-02 -0.404234D-02  0.658382D-02  0.864471D-02  0.154352D-01
     30 -0.645490D-02  0.888530D-02 -0.785627D-03 -0.115956D-02 -0.304727D-02
     31 -0.194473D-01  0.421164D-02 -0.732276D-02  0.100479D-02  0.343288D-02
     32  0.661075D-02  0.161954D-02 -0.565753D-01  0.460938D-02  0.353276D-02
     33 -0.109154D-01 -0.442362D-01  0.799522D-01 -0.769730D-02 -0.818027D-02
     34  0.221485D-01 -0.186621D-01  0.431110D-02  0.251310D-02  0.301631D-02
     35 -0.196257D-01 -0.474362D-01  0.298795D-01  0.297293D-02  0.167196D-02
     36  0.117700D-01  0.310999D-01  0.536239D-02  0.370579D-02  0.321834D-02
     37 -0.125538D-01  0.346152D-02  0.102142D-01  0.445728D-02  0.226787D-02
     38 -0.253249D-04  0.306467D-02  0.217954D-02 -0.101990D-02 -0.164093D-02
     39  0.102150D-01 -0.219164D-02 -0.101713D-03 -0.586256D-02 -0.280578D-02
     40  0.640114D-02  0.350538D-02 -0.114759D-01  0.317013D-02  0.255461D-02
     41  0.108981D-01  0.358282D-03 -0.171767D-01  0.718180D-02  0.372564D-02
     42 -0.536632D-02 -0.182514D-02  0.149403D-02 -0.496404D-03 -0.301218D-03
     43  0.484881D-01 -0.666881D-02 -0.299641D-01  0.674618D-02  0.330193D-02
     44 -0.110534D-01 -0.111124D-01  0.770388D-02 -0.139522D-02 -0.181434D-02
     45 -0.620029D-02  0.121488D-02 -0.155123D-01  0.369235D-02  0.176398D-02
               21            22            23            24            25 
     21  0.230329D+01
     22  0.637035D-01  0.345504D+01
     23 -0.210996D-01  0.263163D+00  0.183741D+01
     24 -0.560161D-01  0.193833D+00 -0.125616D+01  0.272274D+01
     25 -0.851399D-03  0.162937D-01  0.111702D+00 -0.257463D-02  0.235853D+01
     26  0.103866D+00  0.928740D-01 -0.810416D-01  0.139586D-01  0.884071D+00
     27 -0.741864D-01  0.138870D-01 -0.128034D-01  0.943369D-01 -0.104223D+01
     28  0.616045D-02 -0.405005D-02 -0.159223D-01 -0.651137D-02  0.124766D-02
     29 -0.855997D-02 -0.226083D-02  0.293561D-01  0.123119D-01 -0.174201D-01
     30 -0.375604D-02 -0.773804D-03  0.926737D-02 -0.311758D-02 -0.672819D-02
     31 -0.330750D-02 -0.298203D-02  0.732088D-02  0.923937D-03  0.649355D-02
     32 -0.507916D-02  0.349532D-02  0.178515D-01  0.261404D-02  0.131652D-01
     33  0.749721D-02 -0.355122D-03 -0.137766D-01 -0.846932D-02 -0.138109D-01
     34 -0.346877D-02 -0.133840D-02  0.215783D-02  0.246863D-02  0.120055D-01
     35 -0.506961D-02 -0.361761D-02  0.123773D-02  0.242673D-02  0.182360D-01
     36 -0.371137D-02 -0.634573D-03  0.481965D-02  0.289660D-02  0.125563D-01
     37 -0.397194D-02  0.214291D-02  0.636734D-02  0.285685D-02  0.629353D-02
     38  0.117648D-02  0.378576D-03 -0.295854D-02 -0.788293D-03 -0.248246D-02
     39  0.411919D-02 -0.200191D-02 -0.639555D-02 -0.551953D-02 -0.568449D-02
     40 -0.264107D-02  0.142563D-02  0.602203D-02  0.323303D-02  0.409350D-02
     41 -0.567959D-02  0.309151D-02  0.982988D-02  0.660269D-02  0.789909D-02
     42 -0.623265D-03  0.480537D-03  0.109033D-02 -0.124856D-02  0.863833D-03
     43 -0.428037D-02  0.491984D-04  0.631704D-02  0.494833D-02  0.655356D-02
     44  0.120309D-02 -0.321593D-03 -0.239360D-02 -0.125516D-02 -0.231250D-02
     45 -0.358541D-02  0.946063D-03  0.480459D-02  0.284977D-02  0.474326D-02
               26            27            28            29            30 
     26  0.304313D+01
     27  0.741592D+00  0.269289D+01
     28 -0.176354D-01 -0.149169D-01  0.119111D+01
     29 -0.352663D-01 -0.166000D-01  0.994511D+00  0.315916D+01
     30 -0.213815D-01  0.788435D-02  0.256226D+00 -0.729399D-01  0.351207D+01
     31  0.271971D-02  0.224575D-02 -0.213463D-01  0.605999D-02  0.116861D+00
     32 -0.354891D-02  0.238054D-02 -0.487754D-03  0.676215D-01 -0.803722D-02
     33  0.146272D-02 -0.107998D-01  0.790025D-01 -0.128183D-01 -0.218834D-01
     34  0.613623D-02  0.117308D-01 -0.778439D-01 -0.430966D-01 -0.587451D-01
     35  0.179852D-02  0.121918D-01 -0.313212D-01  0.594453D-01 -0.443287D-02
     36  0.308774D-02  0.333374D-02 -0.275352D-01 -0.137773D-02  0.501722D-01
     37 -0.279280D-02  0.228166D-02  0.645519D-02 -0.279326D-02 -0.125632D-02
     38  0.202922D-03 -0.111693D-02 -0.459614D-02  0.835497D-03  0.107175D-02
     39  0.308425D-02 -0.393925D-02 -0.791480D-02  0.285785D-02  0.798115D-05
     40 -0.152111D-02  0.270655D-02  0.134710D-01 -0.466386D-02 -0.304234D-03
     41 -0.433975D-02  0.462261D-02  0.986889D-02 -0.449201D-02 -0.704963D-03
     42 -0.264303D-03 -0.936203D-03 -0.800390D-03  0.217421D-03 -0.331004D-02
     43 -0.334235D-02  0.429380D-02  0.785608D-02 -0.294361D-02  0.974776D-04
     44  0.435745D-03 -0.159714D-02 -0.439979D-02  0.112872D-02 -0.348196D-03
     45 -0.261644D-02  0.201833D-02  0.521764D-02 -0.184910D-02 -0.879009D-03
               31            32            33            34            35 
     31  0.358823D+01
     32 -0.448820D-01  0.331332D+01
     33  0.278288D+00  0.784788D+00  0.118581D+01
     34  0.650533D-01 -0.346247D-03 -0.293264D-01  0.295523D+01
     35 -0.868018D-02  0.599254D-01 -0.557017D-01 -0.813693D+00  0.219931D+01
     36 -0.602035D-01 -0.589126D-01 -0.106563D+00 -0.704282D+00 -0.113374D+01
     37 -0.190196D-02 -0.804892D-03  0.642420D-02  0.189895D-02 -0.135545D-01
     38  0.241820D-03  0.689397D-03 -0.518503D-02 -0.536620D-02  0.923006D-02
     39 -0.213377D-02  0.429883D-02 -0.797902D-02 -0.336015D-02  0.137254D-01
     40 -0.196043D-01  0.762545D-02 -0.625776D-02 -0.167854D-01  0.263522D-02
     41  0.996843D-02 -0.799689D-03  0.150485D-01  0.895887D-02 -0.886150D-02
     42 -0.110261D-01  0.304133D-02  0.314330D-02  0.520429D-02 -0.694785D-03
     43  0.325043D-02 -0.675910D-02  0.112003D-01 -0.813509D-03 -0.103866D-01
     44 -0.325241D-02  0.170686D-02 -0.706148D-02 -0.139212D-02  0.576891D-02
     45  0.338302D-02 -0.482559D-02  0.679140D-02 -0.554345D-03 -0.514748D-02
               36            37            38            39            40 
     36  0.266317D+01
     37 -0.985361D-02  0.288798D+01
     38  0.100302D-01  0.472463D+00  0.334003D+01
     39  0.681361D-02  0.128297D+01 -0.527334D+00  0.138801D+01
     40 -0.285244D-02  0.723431D-01  0.440747D-01  0.249497D-01  0.374415D+01
     41 -0.773120D-02  0.547500D-01 -0.546755D-01 -0.102490D+00 -0.749881D+00
     42  0.295762D-02  0.414026D-01 -0.132330D+00  0.659408D-02  0.223140D-01
     43 -0.502551D-02  0.106956D+00 -0.172778D-02 -0.469668D-01  0.630008D-01
     44  0.342539D-02 -0.563287D-02  0.102322D+00 -0.123642D-02  0.904944D-01
     45 -0.533247D-02 -0.360898D-01  0.224636D-01 -0.172380D+00 -0.355792D-01
               41            42            43            44            45 
     41  0.997694D+00
     42 -0.419781D-01  0.390853D+01
     43  0.995116D-01 -0.521886D-01  0.195559D+01
     44 -0.759050D-01  0.115384D+00  0.702980D+00  0.330582D+01
     45  0.903672D-01  0.563325D-01 -0.141538D+01  0.433683D+00  0.227008D+01
 Leave Link  701 at Wed Mar  6 15:34:07 2019, MaxMem=   104857600 cpu:               0.5 elap:               0.5
 (Enter /shared/centos7/gaussian/g16/l702.exe)
 L702 exits ... SP integral derivatives will be done elsewhere.
 Leave Link  702 at Wed Mar  6 15:34:07 2019, MaxMem=   104857600 cpu:               0.1 elap:               0.1
 (Enter /shared/centos7/gaussian/g16/l703.exe)
 Integral derivatives from FoFJK, PRISM(SPDF).
 Compute integral second derivatives, UseDBF=F ICtDFT=           0.
 ICntrl=    100147.
 Calling FoFJK, ICntrl=    100147 FMM=F ISym2X=0 I1Cent= 0 IOpClX= 0 NMat=1 NMatS=1 NMatT=0.
 FoFJK:  IHMeth= 1 ICntrl=  100147 DoSepK=F KAlg= 0 I1Cent=           0 FoldK=F
 IRaf=         0 NMat=       1 IRICut=       1 DoRegI=T DoRafI=F ISym2E= 0 IDoP0=0 IntGTp=1.
 FoFCou: FMM=F IPFlag=           0 FMFlag=      100000 FMFlg1=         800
         NFxFlg=           0 DoJE=F BraDBF=F KetDBF=F FulRan=T
         wScrn=  0.000000 ICntrl=    100147 IOpCl=  0 I1Cent=           0 NGrid=           0
         NMat0=    1 NMatS0=      1 NMatT0=    0 NMatD0=    1 NMtDS0=    0 NMtDT0=    0
 Symmetry not used in FoFCou.
 FoFCou:  KetSym=F NOpSet=  1 NOpAb=1 NOp=  1.
 FoFCou:  CnvScl= 1.00D+00 Thresh= 1.00D-08 IAcrcy=      12.
 PrismS was handed   104499411 working-precision words and  4015 shell-pairs
 FoFCou: LinMIO=F DoNuc=F BraDBF=F KetDBF=F HaveP=T PDBF=F HaveZ=T HaveW=F
         NIJTC =      15 NIJTAt=       0 NIJTCD=       0 NIJTT =      15
         IJTBeg=       1 IJTEnd=      15 KLTBeg=       1 KLTEnd=      15
         IPTBeg=       1 IPTEnd=      15 IPTBCv=       1 IPTECv=      15
         IZTBeg=       1 IZTEnd=      15 IZTBCv=       1 IZTECv=      15
         IWTBeg=      16 IWTEnd=      15 IWTBCv=      16 IWTECv=      15
         INTBeg=       1 INTEnd=       0 IFTBCv=       1 IFTECv=      15
 NCel replicated for PrismC:     1
 CoulSu-InSpLW:  IPartL=    0 NPrtUS=    1 NPrtUL=    1 DoSpLW=F IThBeg=    0 IThEnd=    0 NThAct=    1.
 CoulSu:  IncDef=  1024 NBBP=        8062120 NTPThr=   100 NPartT=    1 Incr=        1024 LDynOK=F GPUOK=T.
 CoulSu:  NPrtUS=   1 ThrOK=F IAlg=1 NPAlg=1 LenDen=           0 LWGrdD=           0 DoCopy=F ISkipM=0
          DoSpLW=F IThBeg=    0 IThEnd=    0.
 Enter PrismC:  IPart=  0 JobTyp=22 DoJE=F Cont=F.
 PrismC:  IPart=     0 DynPar=F LinDyn=F Incr=        1024 UseFst=F UseS4=T ISplat=2.
 PrismC was handed   104495216 working-precision words and  4015 shell-pairs
 IPart=  0 NShTot=     5468246 NShNF=     5468246 NShFF=           0 MinMC=       7
           NShCPU=     5468246 NBCPU=      238532 AvBCPU=        22.9
           NShGPU=           0 NBGPU=           0 AvBGPU=         0.0
 CoulSu:  NxtVal=           1025 LenVP=      104495217 MinMC=       7.
 ReadGW:  IGet=0 IStart=           1 Next=           1 LGW=           0.
 Remaining memory in FofDFT       99.92 Mw
 CkSvGd:  ISavGI=        -1 IRadAn=       5 IRASav=       5 ISavGd=        -1.
 CalDSu-InSpLW:  IPartL=    0 NPrtUS=    1 NPrtUL=    1 DoSpLW=F IThBeg=    0 IThEnd=    0 NThAct=    1.
 CalDSu:  NPrtUS=   1 ThrOK=F IAlg=1 NPAlg=1 DoDPD=F LenP=       40755 LenD1P=             0 GPUOK=F
          ISkipM=0 DoSpLW=F IThBeg=    0 IThEnd=    0.
 IPart=  0 IRanGd=          0 ScrnBf=T ScrnGd=T RCrit=4.00D+00 DoMicB=T.
 IPart=  0       300640 of       342378 points in     318 batches and     1691 microbatches, Max-NSigAt=      15 Max-NSgAt2=      15
 Polarizability after L703:
                1             2             3 
      1  0.000000D+00
      2  0.000000D+00  0.000000D+00
      3  0.000000D+00  0.000000D+00  0.000000D+00
 Dipole Derivatives after L703:
                 1             2             3             4             5 
      1   0.431490D+00  0.272797D+00 -0.826669D-01  0.339940D+00  0.372306D-01
      2   0.273890D-01 -0.379790D+00 -0.110259D-01  0.677907D-01  0.477550D+00
      3  -0.138430D+00  0.797007D-01 -0.430379D-01  0.405540D+00 -0.596632D-01
                 6             7             8             9            10 
      1   0.651568D+00 -0.171424D+01 -0.567589D+00 -0.449954D+00 -0.120637D+01
      2  -0.346473D-01 -0.292297D+00 -0.114162D+01 -0.111464D+00  0.153821D+00
      3  -0.783238D+00 -0.235780D-01  0.566338D-01 -0.866001D+00 -0.125495D+00
                11            12            13            14            15 
      1   0.299241D+00 -0.225487D+00 -0.219980D+01 -0.313734D+00  0.145342D+00
      2  -0.181267D+01  0.170841D+00  0.166715D+00 -0.728182D+00 -0.269158D-01
      3  -0.299486D-01 -0.110460D+01  0.787179D-02 -0.870636D-02 -0.947529D+00
                16            17            18            19            20 
      1   0.210645D+00  0.565074D-02 -0.193470D+00  0.645271D+00  0.408749D+00
      2  -0.324900D-04  0.179091D+00 -0.197116D-01  0.279579D+00  0.308706D+00
      3  -0.107709D+00 -0.299608D-01  0.683231D+00 -0.155825D+00 -0.121337D+00
                21            22            23            24            25 
      1  -0.701096D+00  0.154935D-01  0.421583D+00  0.307292D+00  0.701070D+00
      2  -0.370514D+00 -0.195436D+00  0.670282D+00  0.413839D+00  0.301948D-01
      3   0.382062D+00 -0.104672D+00  0.277299D+00  0.306718D+00  0.202646D+00
                26            27            28            29            30 
      1  -0.557551D+00  0.544847D+00  0.817536D+00 -0.134064D+00 -0.669014D-01
      2   0.166509D+00  0.323462D-02 -0.661149D+00  0.328049D+00  0.600247D-01
      3  -0.213322D+00  0.291353D+00 -0.496645D-01  0.139221D-01  0.141799D+00
                31            32            33            34            35 
      1   0.138036D+00 -0.366876D-01  0.121836D+00  0.178186D+00  0.248959D-01
      2   0.911731D-01  0.308765D+00 -0.648794D+00  0.440787D+00  0.662294D+00
      3  -0.831930D-01 -0.105699D+00  0.660758D+00  0.135793D+00  0.132364D+00
                36            37            38            39            40 
      1   0.362571D-01  0.508292D+00 -0.271507D+00 -0.811731D+00  0.329516D+00
      2   0.558328D+00 -0.219034D-01  0.178350D+00  0.165620D+00  0.234313D-02
      3   0.303960D+00 -0.131345D+00  0.167336D+00  0.528383D+00  0.337294D-02
                41            42            43            44            45 
      1   0.762249D+00  0.224245D-01  0.804944D+00 -0.351264D+00  0.701742D+00
      2   0.581887D+00  0.154414D-01 -0.889749D-01  0.200781D+00 -0.164256D+00
      3  -0.175463D-01  0.114452D+00  0.164687D+00 -0.141073D+00  0.331693D+00
 Hessian after L703:
                1             2             3             4             5 
      1  0.766946D+00
      2 -0.107316D-01  0.327384D+00
      3 -0.151160D+00  0.510244D-01  0.780540D-01
      4 -0.277779D+00  0.104288D+00  0.768817D-01  0.611593D+00
      5  0.145203D+00 -0.166685D+00 -0.537758D-01 -0.547428D-01  0.583840D+00
      6  0.740286D-01 -0.412267D-01 -0.684239D-01 -0.389355D-01  0.108505D-01
      7 -0.464706D-01 -0.111884D-01 -0.388603D-02 -0.147475D+00 -0.526891D-01
      8  0.162050D-01  0.101156D-01  0.272146D-02 -0.571840D-01 -0.108347D+00
      9  0.825339D-02  0.600321D-02  0.816076D-02 -0.406835D-01 -0.237736D-01
     10 -0.153515D-01  0.389734D-01 -0.702856D-02 -0.722081D-01 -0.299488D-02
     11  0.113589D-01 -0.201567D-01  0.361933D-02  0.252242D-02 -0.224479D+00
     12 -0.261998D-03 -0.147979D-01  0.813464D-02  0.223461D-02  0.529633D-01
     13 -0.312762D+00 -0.951160D-01  0.352177D-01 -0.502196D-01 -0.115945D-01
     14 -0.137453D+00 -0.146898D+00  0.119049D-01  0.117669D-01  0.132223D-01
     15  0.344079D-01  0.709919D-02 -0.434257D-01  0.942552D-02  0.483252D-02
     16 -0.213796D-01  0.133717D-01  0.402470D-01 -0.508889D-01 -0.154483D-02
     17  0.160241D-01 -0.203057D-02 -0.231179D-01 -0.179989D-02 -0.540052D-01
     18  0.216789D-01 -0.118626D-01 -0.613808D-02  0.313130D-02  0.892657D-02
     19 -0.401870D-02 -0.178724D-02 -0.138271D-02 -0.105035D-01 -0.737442D-02
     20 -0.659033D-03 -0.702642D-03  0.462015D-03 -0.648734D-02 -0.637539D-02
     21 -0.244447D-03 -0.422809D-03  0.333721D-03 -0.935952D-02 -0.693734D-02
     22  0.201421D-02 -0.492764D-05  0.164611D-03  0.578247D-02 -0.203308D-01
     23  0.296169D-02  0.201855D-02  0.148663D-02  0.568806D-02 -0.132862D-01
     24  0.143408D-02  0.124292D-02  0.158516D-02  0.354645D-02 -0.851872D-02
     25 -0.549714D-02 -0.196376D-02  0.564806D-03 -0.111787D-01  0.150600D-01
     26 -0.641572D-03 -0.391018D-03  0.236378D-03 -0.888077D-02  0.746354D-02
     27 -0.320530D-03  0.112443D-03  0.148311D-03 -0.404100D-02  0.408899D-02
     28  0.439971D-03  0.795785D-04 -0.116187D-02 -0.567820D-02 -0.474256D-03
     29  0.326402D-02 -0.742921D-02  0.251750D-02  0.297126D-01 -0.913341D-02
     30 -0.522993D-03  0.130231D-02  0.636507D-03 -0.838964D-02  0.213587D-02
     31  0.660867D-03 -0.122562D-02 -0.633766D-04 -0.470872D-03  0.179379D-02
     32 -0.230559D-03  0.328431D-02 -0.298074D-02 -0.967533D-02 -0.739979D-03
     33 -0.193606D-02  0.519073D-04  0.149436D-02  0.234668D-02 -0.216065D-03
     34  0.830199D-03 -0.206456D-04 -0.414047D-03  0.563629D-03  0.223030D-02
     35  0.864645D-03 -0.743627D-04  0.680610D-03 -0.210942D-01 -0.163363D-01
     36  0.135785D-02 -0.366232D-03  0.212555D-04  0.645698D-02  0.700998D-02
     37 -0.375721D-01  0.168629D-02  0.305332D-01  0.117029D-02 -0.457553D-02
     38 -0.163539D-01  0.651804D-02  0.135786D-01  0.801707D-03 -0.207760D-02
     39  0.133238D-01  0.371132D-02  0.626154D-02 -0.336759D-02  0.209868D-02
     40 -0.634027D-02 -0.381547D-01 -0.106465D-02  0.579031D-02 -0.403597D-02
     41 -0.114267D-01 -0.124765D-01  0.179125D-02  0.465491D-02 -0.170067D-02
     42  0.985546D-03  0.511308D-02 -0.917016D-03 -0.765984D-03  0.912612D-03
     43 -0.437204D-01  0.179441D-02 -0.174475D-01  0.150217D-02 -0.392998D-02
     44 -0.183855D-01  0.752327D-02 -0.101486D-01  0.430260D-03 -0.136128D-02
     45 -0.102378D-02 -0.698450D-02  0.140745D-01  0.151952D-02 -0.597641D-03
                6             7             8             9            10 
      6  0.527864D+00
      7 -0.357290D-01  0.521643D+00
      8 -0.239352D-01 -0.229535D-01  0.542517D+00
      9 -0.943846D-01  0.298403D-03 -0.141046D-01  0.522114D+00
     10  0.316166D-02 -0.356871D-02 -0.235234D-01  0.678888D-02  0.494811D+00
[...]
 ! D20   D(3,2,4,11)           -62.8729         -DE/DX =    0.0                 !
 ! D21   D(3,2,4,12)           176.3843         -DE/DX =    0.0                 !
 ! D22   D(6,2,4,10)           -64.4259         -DE/DX =    0.0                 !
 ! D23   D(6,2,4,11)           176.1989         -DE/DX =    0.0                 !
 ! D24   D(6,2,4,12)            55.4562         -DE/DX =    0.0                 !
 --------------------------------------------------------------------------------
 GradGradGradGradGradGradGradGradGradGradGradGradGradGradGradGradGradGrad

 Leave Link  103 at Wed Mar  6 19:59:30 2019, MaxMem=   104857600 cpu:               0.1 elap:               0.0
 (Enter /shared/centos7/gaussian/g16/l9999.exe)

 ----------------------------------------------------------------------

 Electric dipole moment (input orientation):
 (Debye = 10**-18 statcoulomb cm , SI units = C m)
                  (au)            (Debye)         (10**-30 SI)
   Tot        0.510084D+00      0.129650D+01      0.432467D+01
   x         -0.862336D-01     -0.219184D+00     -0.731119D+00
   y          0.498410D+00      0.126683D+01      0.422569D+01
   z          0.658573D-01      0.167392D+00      0.558361D+00

 Dipole polarizability, Alpha (input orientation).
 (esu units = cm**3 , SI units = C**2 m**2 J**-1)
 Alpha(0;0):
               (au)            (10**-24 esu)      (10**-40 SI)
   iso        0.550208D+02      0.815324D+01      0.907170D+01
   aniso      0.106522D+02      0.157849D+01      0.175631D+01
   xx         0.610086D+02      0.904055D+01      0.100590D+02
   yx         0.212439D+01      0.314803D+00      0.350265D+00
   yy         0.531638D+02      0.787806D+01      0.876552D+01
   zx         0.522617D+00      0.774438D-01      0.861679D-01
   zy        -0.220311D+01     -0.326468D+00     -0.363244D+00
   zz         0.508900D+02      0.754112D+01      0.839063D+01

 ----------------------------------------------------------------------

 Dipole orientation:
     8          1.38316894         -0.38916441         -1.71213915
     6         -0.69976078         -0.87563172         -0.10512807
     6         -2.84170279         -1.74015084         -1.79926784
     6         -1.43471205          1.43906205          1.44013937
     6          3.66891569          0.06972732         -0.44834595
     1         -0.18086989         -2.41579625          1.18910279
     1         -4.49356771         -2.24650938         -0.67996900
     1         -2.26206175         -3.37128722         -2.91007987
     1         -3.36182425         -0.22259109         -3.09244442
     1         -3.12667237          1.04371321          2.54559589
     1         -1.83085138          3.01915462          0.17666594
     1          0.05198361          1.99923256          2.74831502
     1          5.16351831          0.04217358         -1.85874255
     1          3.68497693          1.90930547          0.49305472
     1          4.05105446         -1.39876022          0.96167305

 Electric dipole moment (dipole orientation):
 (Debye = 10**-18 statcoulomb cm , SI units = C m)
                  (au)            (Debye)         (10**-30 SI)
   Tot        0.510084D+00      0.129650D+01      0.432467D+01
   x          0.000000D+00      0.000000D+00      0.000000D+00
   y          0.000000D+00      0.000000D+00      0.000000D+00
   z          0.510084D+00      0.129650D+01      0.432467D+01

 Dipole polarizability, Alpha (dipole orientation).
 (esu units = cm**3 , SI units = C**2 m**2 J**-1)
 Alpha(0;0):
               (au)            (10**-24 esu)      (10**-40 SI)
   iso        0.550208D+02      0.815324D+01      0.907170D+01
   aniso      0.106522D+02      0.157849D+01      0.175631D+01
   xx         0.612206D+02      0.907196D+01      0.100939D+02
   yx         0.163209D+01      0.241851D+00      0.269096D+00
   yy         0.517722D+02      0.767185D+01      0.853608D+01
   zx         0.273679D+00      0.405550D-01      0.451236D-01
   zy         0.249675D+01      0.369980D+00      0.411658D+00
   zz         0.520695D+02      0.771591D+01      0.858511D+01

 ----------------------------------------------------------------------

 Test job not archived.
 1\1\GINC-C0254\Freq\RM062X\6-311+G(2df,2p)\C4H10O1\UNDERKOFFLER.C\06-M
 ar-2019\0\\#P Geom=AllCheck Guess=TCheck SCRF=Check Test GenChk RM062X
 /6-311+G(2df,2p) Freq\\Gaussian input prepared by ASE\\0,1\O,0.8364563
 258,-0.8100074684,0.2079865612\C,-0.4193094784,-0.1800867141,0.3829750
 846\C,-1.4394550112,-1.2925406483,0.522619362\C,-0.7574263779,0.751169
 9371,-0.7740476952\C,1.9378702268,0.0579153222,0.2615410624\H,-0.38669
 57019,0.4034298299,1.3141874919\H,-2.4307936248,-0.8830523694,0.713134
 9912\H,-1.1673914803,-1.9553206876,1.3419866444\H,-1.4745478423,-1.877
 4545271,-0.3969429406\H,-1.7596129398,1.1594681002,-0.645464135\H,-0.7
 263874951,0.1963230606,-1.7128225721\H,-0.064278683,1.5884562842,-0.84
 13130052\H,2.832803086,-0.5578945181,0.3131358639\H,2.004352516,0.6962
 501466,-0.6238865269\H,1.8951401982,0.6965720724,1.1513686132\\Version
 =EM64L-G16RevA.03\State=1-A\HF=-233.6252115\RMSD=3.734e-09\RMSF=1.101e
 -06\ZeroPoint=0.1372226\Thermal=0.143965\Dipole=-0.0862336,0.4984096,0
 .0658573\DipoleDeriv=-1.2936084,-0.0909124,-0.0177079,-0.0624201,-0.62
 46315,0.0184448,0.0295516,0.0001892,-0.4626239,0.8701217,-0.0625183,0.
 0003585,-0.2234211,0.4069721,-0.0642481,-0.0281752,-0.059827,0.412057,
 -0.035565,-0.0584727,-0.0040721,-0.0897222,-0.0158272,0.0442206,0.0079
 427,0.0399597,0.0620213,-0.0283236,-0.0108729,-0.0124059,0.0715316,-0.
 044987,0.1086642,-0.05739,0.1211083,-0.0520956,0.6454067,0.1756963,0.0
 226216,0.3476821,0.4155138,0.019775,0.0309623,0.0172209,0.3548464,-0.0
 390089,-0.0410098,-0.053192,0.0346344,-0.0638352,-0.0769324,0.0095823,
 -0.0827012,-0.1556948,-0.103759,0.0323762,0.0274548,0.0800832,0.016498
 ,-0.021008,0.0264058,-0.0094645,0.0688185,0.0551684,0.0240595,-0.04562
 ,-0.0131171,-0.0240435,0.0823806,-0.0200664,0.0971762,-0.0385737,0.058
 4817,0.0000673,0.0240344,-0.0342422,0.0111578,-0.0456743,-0.0191537,-0
 .0955132,-0.0719935,-0.1057068,0.0777267,0.0029408,0.0567049,0.0564874
 ,0.0011998,0.0323658,-0.0152657,0.0525537,0.0713563,0.0103361,0.012585
 5,-0.0009284,-0.0030035,-0.0981063,-0.0088461,-0.0329982,-0.0685773,-0
 .0031202,-0.1147278,0.0173295,-0.0979628,-0.0555557,0.0309925,-0.00021
 19,0.0214474,0.0308049,-0.1093631,0.0371493,-0.0086628,0.1000691,0.002
 3561,0.0099698,-0.0135942,0.0052335,0.0757258,0.0087366,-0.0045204,-0.
 0265992,-0.0916174,-0.0404289,0.0758691,0.0335871,0.107984,-0.1017325,
 0.0091836,0.025623,0.0609348,-0.0772739,-0.0366727,-0.0855473,-0.02296
 01,-0.1145494,-0.1055364\Polar=61.0086285,2.1243938,53.1637603,0.52261
 7,-2.2031135,50.8899879\Quadrupole=1.4070047,-1.1171432,-0.2898615,0.9
 085201,0.0052448,0.0841702\PG=C01 [X(C4H10O1)]\NImag=0\\0.52231262,0.0
 3858082,0.33656327,-0.02638718,0.03068343,0.10699181,-0.18612539,0.042
 29911,0.01644703,0.49493786,0.07724372,-0.13040587,-0.01883755,0.03244
 448,0.54305495,0.02408576,-0.01329068,-0.06932095,0.00626066,0.0483645
 3,0.56320540,-0.04696541,-0.02555142,0.00438413,-0.12336666,-0.0585235
 9,0.00573913,0.55160988,0.01379667,0.01316741,-0.00100765,-0.07194385,
 -0.15769134,0.00675537,-0.05168910,0.53481313,0.00803158,0.00400797,0.
 00138471,0.00310641,0.00348406,-0.08251447,0.00533510,-0.00092710,0.58
 421277,-0.02636160,0.03063144,-0.02576032,-0.07930547,0.00368404,-0.01
 219849,0.00727495,-0.01473218,0.01836875,0.57905392,0.01580548,-0.0133
 6144,0.01291175,0.00563932,-0.11746395,0.04899234,0.00149239,-0.021326
 00,0.02441250,0.01663780,0.55084577,-0.00042744,-0.00229638,0.00835372
 ,-0.01679471,0.05496350,-0.15781276,0.00148632,0.00566569,-0.00447201,
 -0.02383546,0.04595999,0.51700955,-0.18745218,-0.06473247,0.00174774,-
 0.04877318,-0.02035103,-0.00081113,-0.00353919,0.00266804,-0.00015503,
 0.00204424,0.00157149,-0.00103451,0.55890915,-0.10241135,-0.16491657,-
 0.00637925,0.00552642,0.01231842,0.00058494,0.00322189,-0.00174540,-0.
 00069253,0.00476406,0.00069162,-0.00108355,-0.06226502,0.55716322,-0.0
 0850034,-0.00995479,-0.06210347,0.00363038,0.00221384,-0.00495874,0.00
 174506,-0.00091329,-0.00063409,-0.00157520,-0.00166393,0.00093388,-0.0
 0916398,-0.00410178,0.56285038,-0.01877674,0.02437711,0.02955381,-0.04
 960179,-0.01221617,-0.01530019,-0.00091853,-0.01288000,-0.01966341,0.0
 0196986,-0.00432290,-0.00569803,0.00444658,0.00551407,0.00358649,0.063
 38506,0.01311404,-0.01358278,-0.01662942,-0.00922151,-0.11233989,-0.10
 304579,-0.00334696,-0.01355440,-0.02044392,0.00061081,0.01016738,0.019
 42811,-0.00290109,-0.00025480,0.00155046,0.00234448,0.13032978,0.00924
 327,-0.00741715,-0.00160990,-0.01312987,-0.10360677,-0.22443908,-0.000
 19244,0.00261113,0.00388655,-0.00290437,-0.01207841,-0.02402498,-0.001
 93659,-0.00023866,0.00086441,0.00875478,0.11573220,0.24490322,-0.00485
 505,-0.00506019,0.00001891,-0.01663195,0.01337301,0.00350354,-0.270264
 41,0.09169814,0.04366959,0.00021529,0.00106684,-0.00023420,0.00014628,
 0.00119693,0.00053915,0.00045406,-0.00015538,-0.00068253,0.29431552,-0
 .00531426,-0.00358835,0.00051522,-0.01958773,0.01152984,0.00486339,0.0
 9507669,-0.08788198,-0.01823465,0.00026870,0.00050855,-0.00005732,-0.0
 0110839,0.00099349,0.00035406,0.00078994,0.00078974,-0.00058111,-0.101
 59477,0.09231189,0.00035287,0.00052399,0.00076076,0.00115706,-0.001665
 42,-0.00286888,0.04330291,-0.01760433,-0.05517328,0.00014579,-0.000227
 96,-0.00011874,0.00003052,-0.00014728,0.00065325,-0.00004392,0.0002283
 9,0.00002503,-0.04779179,0.01938968,0.05500471,0.00203104,0.00056723,-
 0.00037379,0.00478682,-0.01408236,0.01904385,-0.06511053,0.04391191,-0
 .05462816,-0.00337182,-0.00271091,-0.00001533,-0.00003472,-0.00019691,
 -0.00003760,0.00081018,0.00093449,-0.00026355,-0.00616408,0.01671097,-
 0.02300354,0.06738594,0.00154117,0.00184461,-0.00120447,0.00809146,-0.
 01632285,0.02011702,0.04133091,-0.14579978,0.12337551,-0.00441906,-0.0
 0332462,-0.00072253,-0.00009266,0.00003749,-0.00015722,0.00067817,0.00
 056043,-0.00045893,0.00198691,-0.00725802,0.00796086,-0.04410864,0.158
 78772,0.00005234,-0.00068895,0.00023734,-0.00094138,0.00057319,-0.0024
 3354,-0.05283106,0.12446257,-0.20452500,0.00098046,0.00077230,0.001064
 78,0.00024928,-0.00008284,0.00012199,0.00062743,0.00003706,0.00062434,
 0.00121265,-0.00521694,0.00559353,0.05837048,-0.13673415,0.21807163,0.
 00236185,0.00064000,0.00016545,-0.00215511,-0.01406256,-0.02095634,-0.
 04648210,-0.00232975,-0.00510249,0.00043398,0.00126533,-0.00072466,-0.
 00035250,-0.00020045,-0.00018331,-0.00267744,-0.00320001,0.00074446,0.
 00237197,0.01527719,0.02574269,-0.00106793,-0.00512021,-0.00702722,0.0
 4733064,0.00135489,0.00151691,0.00095427,-0.00061017,-0.01673645,-0.02
 365458,-0.00355980,-0.12196890,-0.11921665,0.00076736,0.00113103,-0.00
 130975,0.00000945,0.00012957,0.00005833,-0.00380380,-0.00283185,0.0012
 1475,-0.00112008,-0.00674473,-0.00906113,-0.00004543,0.01178546,0.0170
 3415,0.00699192,0.13346975,-0.00090328,0.00034765,0.00040375,0.0000728
 2,0.00115911,0.00139692,-0.00618176,-0.12049493,-0.24093321,0.00003981
 ,0.00052982,0.00128273,0.00001292,0.00029056,0.00024016,0.00048216,0.0
 0072960,0.00120425,-0.00015023,-0.00126289,-0.00376488,0.00018892,-0.0
 1342346,-0.01930009,0.00633792,0.13245958,0.25909413,-0.00023637,0.000
 68006,-0.00188682,-0.00709947,0.00094464,0.00295371,-0.00014242,-0.000
 63872,0.00083212,-0.27583041,0.09342024,0.03022591,0.00061792,0.000487
 80,0.00039015,0.00012812,-0.00004848,-0.00054688,0.00069425,-0.0002700
 3,0.00011574,0.00024573,-0.00015377,-0.00022150,0.00000158,0.00001781,
 -0.00017745,0.29903715,0.00367571,-0.00318074,0.00493924,0.01694584,-0
 .00679758,-0.00657495,0.00027193,0.00042537,-0.00072892,0.09191666,-0.
 08274052,-0.01200256,-0.00189233,-0.00122502,0.00047887,-0.00035404,0.
 00056737,0.00017329,-0.00049930,-0.00047748,0.00062923,-0.00019560,0.0
 0030035,-0.00009679,0.00005492,-0.00011538,-0.00002644,-0.10167118,0.0
 8837764,-0.00399820,0.00499841,-0.00371161,-0.02273248,0.00695787,0.00
 570685,-0.00006446,-0.00042589,0.00077580,0.03150743,-0.01287538,-0.05
 144868,0.00120562,0.00112948,-0.00021575,0.00044402,-0.00123747,0.0002
 2780,0.00024033,0.00045329,-0.00004662,-0.00009607,-0.00034018,-0.0000
 3633,0.00016923,0.00003513,-0.00001335,-0.03378547,0.01148643,0.052064
 91,0.00111779,-0.00083011,0.00048296,-0.00100653,-0.00329470,-0.008073
 06,-0.00025735,0.00007738,0.00076689,-0.04731204,0.00292197,0.00787284
 ,-0.00027486,-0.00020460,-0.00018797,0.00028913,0.00109452,-0.00135806
 ,0.00000862,0.00003893,0.00013002,-0.00011766,-0.00008935,-0.00010788,
 0.00028488,-0.00017259,0.00025183,0.00069463,0.01485485,0.02633434,0.0
 4567492,-0.00184777,0.00133035,-0.00156776,-0.00086809,0.01012277,0.01
 904972,0.00041369,0.00172540,0.00035579,0.00346258,-0.11898991,-0.1194
 8196,0.00022189,0.00029299,-0.00018887,0.00110693,-0.00192652,0.003556
 24,-0.00009654,-0.00003787,-0.00002807,0.00007791,0.00008024,-0.000228
 90,0.00006883,-0.00025052,-0.00030196,-0.00072728,-0.00646151,-0.00889
 805,-0.00409041,0.12637782,0.00033647,-0.00029699,0.00380557,0.0016942
 5,-0.01472478,-0.02664613,-0.00034561,-0.00134360,0.00092820,0.0072951
 5,-0.11820348,-0.24158753,-0.00027587,-0.00007175,-0.00023497,-0.00121
 678,0.00410430,-0.00288536,-0.00007815,0.00008405,-0.00000046,-0.00010
 573,0.00017389,0.00050844,0.00053122,0.00094019,0.00031560,0.00003127,
 -0.00061154,-0.00215686,-0.00723323,0.12814608,0.26551916,0.00062034,-
 0.00130611,0.00086860,0.00567272,0.00742454,0.00044724,-0.00000203,0.0
 0081970,-0.00058093,-0.15792348,-0.13371441,0.00899874,-0.00167030,0.0
 0039213,0.00022742,0.00018356,-0.00038083,0.00076808,0.00036992,0.0000
 6847,-0.00022151,0.00039586,0.00017745,-0.00027517,-0.00011893,0.00003
 830,-0.00007720,-0.01837481,-0.02344199,0.00098059,0.00083092,0.002412
 61,-0.00056049,0.17192922,0.00082296,0.00110887,-0.00058831,-0.0140822
 4,-0.01460152,-0.00117196,0.00224182,-0.00145136,0.00384287,-0.1326947
 8,-0.20594043,0.01058124,-0.00098566,-0.00070933,0.00090099,0.00054461
 ,0.00084569,-0.00006356,-0.00019876,0.00019268,-0.00003130,-0.00103263
 ,-0.00076396,0.00029627,0.00024186,0.00046420,0.00002221,0.00791529,0.
 01054680,-0.00067418,-0.01017160,-0.01202757,0.00176219,0.14615914,0.2
 2152128,0.00015640,-0.00168925,0.00086311,0.02026723,0.01949593,-0.000
 55651,-0.00244918,0.00276616,-0.00398067,0.00818143,0.00998907,-0.0491
 0074,-0.00046774,0.00005336,0.00066863,0.00034679,-0.00090207,0.000964
 47,-0.00023420,-0.00026365,-0.00001901,0.00093099,0.00154377,0.0000716
 2,-0.00001279,0.00031580,0.00015109,0.00240671,0.00313353,-0.00140413,
 -0.01917109,-0.02048643,0.00266037,-0.00941017,-0.01389776,0.05005884,
 -0.03542265,0.01038064,0.00073730,-0.00004053,-0.00522179,-0.00195715,
 -0.00114978,0.00096739,0.00007594,-0.00008926,-0.00022835,0.00034890,-
 0.22012615,0.12689027,-0.01058225,0.00011870,0.00004881,0.00014962,-0.
 00033608,-0.00039416,0.00005513,0.00004129,-0.00001828,0.00005496,-0.0
 0000485,-0.00003909,-0.00007012,0.00000530,0.00020702,-0.00010947,-0.0
 0000863,-0.00000944,-0.00002925,0.00013410,0.00016587,-0.00002545,0.25
 389277,-0.02751279,0.01418101,-0.00047555,-0.00230951,-0.00271536,-0.0
 0089737,-0.00091750,0.00060851,0.00023128,-0.00036317,-0.00040150,0.00
 018176,0.13906835,-0.14773887,0.00740773,-0.00007641,0.00014865,0.0003
 8845,-0.00022913,-0.00027961,0.00004283,0.00003465,0.00002040,0.000016
 43,0.00006070,0.00003774,-0.00005178,0.00013124,0.00030232,-0.00012578
 ,0.00003839,0.00003302,0.00002318,0.00019872,0.00048080,-0.00012255,-0
 .13491697,0.15417412,-0.00134475,-0.00010194,0.00083678,0.00083787,0.0
 0011603,-0.00038294,0.00004317,0.00004558,0.00041311,-0.00004085,0.000
 49569,0.00018436,-0.01026488,0.00741839,-0.05148764,-0.00022591,0.0003
 0988,0.00045083,0.00001785,-0.00003809,0.00000462,-0.00001256,-0.00003
 325,-0.00000567,0.00006981,0.00008012,-0.00002698,-0.00011601,-0.00017
 078,0.00005225,0.00004543,-0.00001762,0.00000640,-0.00017178,-0.000400
 47,-0.00010049,0.01129369,-0.00858983,0.04784413,-0.01156757,-0.025840
 14,0.02359178,0.00407649,-0.00288956,0.00192925,-0.00055934,0.00037043
 ,-0.00014723,-0.00033986,0.00077112,-0.00059604,-0.05091621,0.00185881
 ,0.00110376,-0.00041560,0.00023315,0.00009337,-0.00025942,-0.00002156,
 -0.00008399,0.00013396,0.00019078,-0.00010680,0.00007805,-0.00001339,-
 0.00001005,0.00030588,-0.00004635,0.00000563,-0.00002406,-0.00003433,-
 0.00020183,-0.00215738,0.00095519,-0.00048332,0.00254779,0.01375730,-0
 .02207431,0.05781856,-0.01563447,-0.01970686,0.01628065,0.00336191,-0.
 00159970,-0.00034906,-0.00038773,0.00032661,0.00013777,-0.00004236,-0.
 00003459,0.00012372,-0.00095533,-0.12856236,0.11483656,-0.00059956,0.0
 0024579,0.00008015,-0.00023522,-0.00004723,-0.00006906,0.00010085,0.00
 011129,-0.00010503,0.00006490,-0.00002193,-0.00000901,-0.00000588,0.00
 034305,-0.00033653,-0.00017436,-0.00012717,-0.00006935,0.00138959,0.00
 038496,0.00015050,0.00056275,-0.00958583,0.01670841,0.01125582,0.14630
 826,0.00635241,0.00030071,0.00943081,-0.00169401,0.00127579,0.00019612
 ,0.00021015,-0.00007414,0.00017717,0.00011274,0.00114706,-0.00004125,0
 .00452799,0.11652051,-0.22603597,-0.00021333,-0.00012437,-0.00022887,0
 .00008935,0.00006330,-0.00003810,-0.00004480,-0.00011047,0.00004562,0.
 00000179,0.00003060,0.00000819,-0.00017381,-0.00070045,0.00017380,0.00
 005257,-0.00003575,-0.00029857,-0.00101767,-0.00063071,0.00010180,-0.0
 0054348,-0.00035796,-0.00041012,-0.00676271,-0.13210365,0.23851077,-0.
 01068068,-0.02483597,-0.02358960,0.00463217,-0.00447267,-0.00466678,-0
 .00012707,-0.00009607,0.00009087,-0.00045829,0.00038458,0.00042768,-0.
 05302488,0.01542594,0.01900824,0.00060485,0.00087397,0.00126070,-0.000
 06491,0.00006000,0.00011203,0.00003590,0.00000513,-0.00003658,-0.00000
 411,0.00018459,0.00018371,-0.00004706,0.00017386,-0.00010104,0.0001002
 4,-0.00009058,0.00015858,0.00011028,0.00011891,-0.00003560,0.00043796,
 0.01303614,0.02194324,0.00127870,0.00129910,-0.00089720,0.05720690,-0.
 01321483,-0.02096981,-0.01959459,0.00431455,-0.00035148,0.00025708,-0.
 00007324,0.00035273,0.00039602,-0.00049189,0.00023860,0.00005004,0.011
 74477,-0.12647446,-0.11082093,-0.00110244,0.00083541,0.00068837,-0.000
 13246,-0.00001092,0.00005958,0.00003446,-0.00005876,-0.00003836,0.0002
 4732,0.00013509,0.00003194,-0.00008174,0.00013534,-0.00014714,0.000001
 66,-0.00014152,0.00008763,-0.00023731,-0.00005113,-0.00008641,0.001605
 34,-0.00926540,-0.01582211,-0.00054727,0.01196571,0.01479952,-0.002066
 93,0.14366059,-0.00704990,-0.00512602,0.00367758,0.00181875,0.00023067
 ,0.00142873,-0.00018146,0.00048444,0.00045443,-0.00031687,-0.00016137,
 -0.00022231,0.01633567,-0.11319960,-0.22066209,-0.00143392,0.00026304,
 0.00003729,-0.00012026,-0.00006833,-0.00001192,0.00004690,0.00001362,-
 0.00003866,0.00024423,0.00011921,-0.00005830,-0.00004764,0.00007183,0.
 00003192,0.00019439,0.00012754,0.00006614,0.00002426,0.00005248,-0.000
 37837,0.00060162,0.00232917,0.00262137,0.00374249,-0.01527604,-0.02159
 140,-0.01385825,0.13013937,0.23464559\\0.00000051,0.00000051,-0.000000
 93,0.,-0.00000014,0.00000028,0.00000109,-0.00000091,0.00000084,-0.0000
 0119,-0.00000023,0.00000077,0.00000021,0.00000130,-0.00000156,0.000000
 71,-0.00000052,0.00000037,0.00000100,-0.00000159,0.00000173,0.00000214
 ,-0.00000099,0.00000048,0.00000067,-0.00000076,0.00000069,-0.00000133,
 -0.00000087,0.00000168,-0.00000166,0.00000002,0.00000060,-0.00000181,0
 .00000021,0.00000040,0.00000043,0.00000169,-0.00000246,-0.00000111,0.0
 0000140,-0.00000148,0.00000033,0.00000090,-0.00000141\\\@


 ABSOLUTISM, OBSOLETISM -- IF IT WORKS, IT'S OUT OF DATE

                          -- STAFFORD BEER
 Job cpu time:       0 days  0 hours 55 minutes 19.4 seconds.
 Elapsed time:       0 days  0 hours 55 minutes 19.7 seconds.
 File lengths (MBytes):  RWF=   1328 Int=      0 D2E=      0 Chk=     32 Scr=     32
 Normal termination of Gaussian 16 at Wed Mar  6 19:59:30 2019.
