 Entering Gaussian System, Link 0=g16
 Input=RMGHERXMTMUMMV-UHFFFAOYSA-N_GeoFreq_a1.com
 Output=RMGHERXMTMUMMV-UHFFFAOYSA-N_GeoFreq_a1.log
 Initial command:
 /shared/centos7/gaussian/g16/l1.exe "/scratch/underkoffler.c/gaussian_scratch/Gau-35411.inp" -scrdir="/scratch/underkoffler.c/gaussian_scratch/"
 Entering Link 1 = /shared/centos7/gaussian/g16/l1.exe PID=     35412.
  
 Copyright (c) 1988,1990,1992,1993,1995,1998,2003,2009,2016,
            Gaussian, Inc.  All Rights Reserved.
  
 This is part of the Gaussian(R) 16 program.  It is based on
 the Gaussian(R) 09 system (copyright 2009, Gaussian, Inc.),
 the Gaussian(R) 03 system (copyright 2003, Gaussian, Inc.),
 the Gaussian(R) 98 system (copyright 1998, Gaussian, Inc.),
 the Gaussian(R) 94 system (copyright 1995, Gaussian, Inc.),
 the Gaussian 92(TM) system (copyright 1992, Gaussian, Inc.),
 the Gaussian 90(TM) system (copyright 1990, Gaussian, Inc.),
 the Gaussian 88(TM) system (copyright 1988, Gaussian, Inc.),
 the Gaussian 86(TM) system (copyright 1986, Carnegie Mellon
 University), and the Gaussian 82(TM) system (copyright 1983,
 Carnegie Mellon University). Gaussian is a federally registered
 trademark of Gaussian, Inc.
  
 This software contains proprietary and confidential information,
 including trade secrets, belonging to Gaussian, Inc.
  
 This software is provided under written license and may be
 used, copied, transmitted, or stored only in accord with that
 written license.
  
 The following legend is applicable only to US Government
 contracts under FAR:
  
                    RESTRICTED RIGHTS LEGEND
  
 Use, reproduction and disclosure by the US Government is
 subject to restrictions as set forth in subparagraphs (a)
 and (c) of the Commercial Computer Software - Restricted
 Rights clause in FAR 52.227-19.
  
 Gaussian, Inc.
 340 Quinnipiac St., Bldg. 40, Wallingford CT 06492
  
  
 ---------------------------------------------------------------
 Warning -- This program may not be used in any manner that
 competes with the business of Gaussian, Inc. or will provide
 assistance to any competitor of Gaussian, Inc.  The licensee
 of this program is prohibited from giving any competitor of
 Gaussian, Inc. access to this program.  By using this program,
 the user acknowledges that Gaussian, Inc. is engaged in the
 business of creating and licensing software in the field of
 computational chemistry and represents and warrants to the
 licensee that it is not a competitor of Gaussian, Inc. and that
 it will not use this program in any manner prohibited above.
 ---------------------------------------------------------------
  

 Cite this work as:
 Gaussian 16, Revision A.03,
 M. J. Frisch, G. W. Trucks, H. B. Schlegel, G. E. Scuseria, 
 M. A. Robb, J. R. Cheeseman, G. Scalmani, V. Barone, 
 G. A. Petersson, H. Nakatsuji, X. Li, M. Caricato, A. V. Marenich, 
 J. Bloino, B. G. Janesko, R. Gomperts, B. Mennucci, H. P. Hratchian, 
 J. V. Ortiz, A. F. Izmaylov, J. L. Sonnenberg, D. Williams-Young, 
 F. Ding, F. Lipparini, F. Egidi, J. Goings, B. Peng, A. Petrone, 
 T. Henderson, D. Ranasinghe, V. G. Zakrzewski, J. Gao, N. Rega, 
 G. Zheng, W. Liang, M. Hada, M. Ehara, K. Toyota, R. Fukuda, 
 J. Hasegawa, M. Ishida, T. Nakajima, Y. Honda, O. Kitao, H. Nakai, 
 T. Vreven, K. Throssell, J. A. Montgomery, Jr., J. E. Peralta, 
 F. Ogliaro, M. J. Bearpark, J. J. Heyd, E. N. Brothers, K. N. Kudin, 
 V. N. Staroverov, T. A. Keith, R. Kobayashi, J. Normand, 
 K. Raghavachari, A. P. Rendell, J. C. Burant, S. S. Iyengar, 
 J. Tomasi, M. Cossi, J. M. Millam, M. Klene, C. Adamo, R. Cammi, 
 J. W. Ochterski, R. L. Martin, K. Morokuma, O. Farkas, 
 J. B. Foresman, and D. J. Fox, Gaussian, Inc., Wallingford CT, 2016.
 
 ******************************************
 Gaussian 16:  EM64L-G16RevA.03 25-Dec-2016
                 6-Mar-2019 
 ******************************************
 ----------------------------------------------------------------------
 #p m062x/6-311+g(2df,2p) opt=(calcfc,verytight,gdiis,maxcycles=900) fr
 eq iop(7/33=1,2/16=3)
 ----------------------------------------------------------------------

 Warning!  Use of Opt=GDIIS is deprecated since it is seldom a good choice.

 1/6=900,7=1,10=4,18=20,19=11,26=3,38=1/1,3;
 2/9=110,12=2,16=3,17=6,18=5,40=1/2;
 3/5=4,6=6,7=214,11=2,25=1,30=1,71=2,74=-55,140=1/1,2,3;
 4//1;
 5/5=2,38=5/2;
 8/6=4,10=90,11=11/1;
 11/6=1,8=1,9=11,15=111,16=1/1,2,10;
 10/6=1,13=1/2;
 6/7=2,8=2,9=2,10=2,28=1/1;
 7/10=1,18=20,25=1,33=1/1,2,3,16;
 1/6=900,7=1,10=4,18=20,19=11,26=3/3(2);
 2/9=110,16=3/2;
 99//99;
 2/9=110,16=3/2;
 3/5=4,6=6,7=214,11=2,25=1,30=1,71=1,74=-55/1,2,3;
 4/5=5,16=3,69=1/1;
 5/5=2,38=5/2;
 7/33=1/1,2,3,16;
 1/6=900,7=1,18=20,19=11,26=3/3(-5);
 2/9=110,16=3/2;
 6/7=2,8=2,9=2,10=2,19=2,28=1/1;
 99/9=1/99;
 Leave Link    1 at Wed Mar  6 14:55:12 2019, MaxMem=           0 cpu:               0.2 elap:               1.6
 (Enter /shared/centos7/gaussian/g16/l101.exe)
 ------------------------------
 Gaussian input prepared by ASE
 ------------------------------
 Symbolic Z-matrix:
 Charge =  0 Multiplicity = 1
 O                     0.7844   -0.5729    0.7579 
 C                    -0.4267   -0.0745    0.4652 
 C                    -1.47904  -1.16994   0.55265 
 C                    -0.61501   0.62644  -0.83503 
 C                     1.9076    0.0037    0.2815 
 H                    -0.7111    0.66637   1.25686 
 H                    -2.16372  -1.03023   1.41747 
 H                    -0.97689  -2.14293   0.71235 
 H                    -2.07933  -1.24659  -0.36526 
 H                    -1.72026   0.75644  -0.9761 
 H                    -0.2789    0.07718  -1.7245 
 H                    -0.21724   1.6719   -0.82218 
 H                     2.5283   -0.7962   -0.1971 
 H                     1.8163    0.8127   -0.44 
 H                     2.5123    0.4118    1.1307 
 
 ITRead=  0  0  0  0  0  0  0  0  0  0  0  0  0  0  0
 MicOpt= -1 -1 -1 -1 -1 -1 -1 -1 -1 -1 -1 -1 -1 -1 -1
 NAtoms=     15 NQM=       15 NQMF=       0 NMMI=      0 NMMIF=      0
                NMic=       0 NMicF=      0.
                    Isotopes and Nuclear Properties:
 (Nuclear quadrupole moments (NQMom) in fm**2, nuclear magnetic moments (NMagM)
  in nuclear magnetons)

  Atom         1           2           3           4           5           6           7           8           9          10
 IAtWgt=          16          12          12          12          12           1           1           1           1           1
 AtmWgt=  15.9949146  12.0000000  12.0000000  12.0000000  12.0000000   1.0078250   1.0078250   1.0078250   1.0078250   1.0078250
 NucSpn=           0           0           0           0           0           1           1           1           1           1
 AtZEff=  -0.0000000  -0.0000000  -0.0000000  -0.0000000  -0.0000000  -0.0000000  -0.0000000  -0.0000000  -0.0000000  -0.0000000
 NQMom=    0.0000000   0.0000000   0.0000000   0.0000000   0.0000000   0.0000000   0.0000000   0.0000000   0.0000000   0.0000000
 NMagM=    0.0000000   0.0000000   0.0000000   0.0000000   0.0000000   2.7928460   2.7928460   2.7928460   2.7928460   2.7928460
 AtZNuc=   8.0000000   6.0000000   6.0000000   6.0000000   6.0000000   1.0000000   1.0000000   1.0000000   1.0000000   1.0000000

  Atom        11          12          13          14          15
 IAtWgt=           1           1           1           1           1
 AtmWgt=   1.0078250   1.0078250   1.0078250   1.0078250   1.0078250
 NucSpn=           1           1           1           1           1
 AtZEff=  -0.0000000  -0.0000000  -0.0000000  -0.0000000  -0.0000000
 NQMom=    0.0000000   0.0000000   0.0000000   0.0000000   0.0000000
 NMagM=    2.7928460   2.7928460   2.7928460   2.7928460   2.7928460
 AtZNuc=   1.0000000   1.0000000   1.0000000   1.0000000   1.0000000
 Leave Link  101 at Wed Mar  6 14:55:13 2019, MaxMem=   104857600 cpu:               0.2 elap:               0.3
 (Enter /shared/centos7/gaussian/g16/l103.exe)

 GradGradGradGradGradGradGradGradGradGradGradGradGradGradGradGradGradGrad
 Berny optimization.
 Initialization pass.
                           ----------------------------
                           !    Initial Parameters    !
                           ! (Angstroms and Degrees)  !
 --------------------------                            --------------------------
 ! Name  Definition              Value          Derivative Info.                !
 --------------------------------------------------------------------------------
 ! R1    R(1,2)                  1.342          calculate D2E/DX2 analytically  !
 ! R2    R(1,5)                  1.3494         calculate D2E/DX2 analytically  !
 ! R3    R(2,3)                  1.5215         calculate D2E/DX2 analytically  !
 ! R4    R(2,4)                  1.4891         calculate D2E/DX2 analytically  !
 ! R5    R(2,6)                  1.1209         calculate D2E/DX2 analytically  !
 ! R6    R(3,7)                  1.1119         calculate D2E/DX2 analytically  !
 ! R7    R(3,8)                  1.1065         calculate D2E/DX2 analytically  !
 ! R8    R(3,9)                  1.0994         calculate D2E/DX2 analytically  !
 ! R9    R(4,10)                 1.1218         calculate D2E/DX2 analytically  !
 ! R10   R(4,11)                 1.0981         calculate D2E/DX2 analytically  !
 ! R11   R(4,12)                 1.1186         calculate D2E/DX2 analytically  !
 ! R12   R(5,13)                 1.1199         calculate D2E/DX2 analytically  !
 ! R13   R(5,14)                 1.0878         calculate D2E/DX2 analytically  !
 ! R14   R(5,15)                 1.1195         calculate D2E/DX2 analytically  !
 ! A1    A(2,1,5)              121.0299         calculate D2E/DX2 analytically  !
 ! A2    A(1,2,3)              110.1368         calculate D2E/DX2 analytically  !
 ! A3    A(1,2,4)              118.6464         calculate D2E/DX2 analytically  !
 ! A4    A(1,2,6)              108.6875         calculate D2E/DX2 analytically  !
 ! A5    A(3,2,4)              107.5548         calculate D2E/DX2 analytically  !
 ! A6    A(3,2,6)              105.0571         calculate D2E/DX2 analytically  !
 ! A7    A(4,2,6)              105.8715         calculate D2E/DX2 analytically  !
 ! A8    A(2,3,7)              112.3423         calculate D2E/DX2 analytically  !
 ! A9    A(2,3,8)              109.1174         calculate D2E/DX2 analytically  !
 ! A10   A(2,3,9)              112.3235         calculate D2E/DX2 analytically  !
 ! A11   A(7,3,8)              106.1222         calculate D2E/DX2 analytically  !
 ! A12   A(7,3,9)              108.7798         calculate D2E/DX2 analytically  !
 ! A13   A(8,3,9)              107.877          calculate D2E/DX2 analytically  !
 ! A14   A(2,4,10)             106.7951         calculate D2E/DX2 analytically  !
 ! A15   A(2,4,11)             115.6663         calculate D2E/DX2 analytically  !
 ! A16   A(2,4,12)             112.6387         calculate D2E/DX2 analytically  !
 ! A17   A(10,4,11)            104.9323         calculate D2E/DX2 analytically  !
 ! A18   A(10,4,12)            104.0919         calculate D2E/DX2 analytically  !
 ! A19   A(11,4,12)            111.5888         calculate D2E/DX2 analytically  !
 ! A20   A(1,5,13)             107.8786         calculate D2E/DX2 analytically  !
 ! A21   A(1,5,14)             118.8198         calculate D2E/DX2 analytically  !
 ! A22   A(1,5,15)             109.7276         calculate D2E/DX2 analytically  !
 ! A23   A(13,5,14)            107.1129         calculate D2E/DX2 analytically  !
 ! A24   A(13,5,15)            106.5688         calculate D2E/DX2 analytically  !
 ! A25   A(14,5,15)            106.1011         calculate D2E/DX2 analytically  !
 ! D1    D(5,1,2,3)            154.4973         calculate D2E/DX2 analytically  !
 ! D2    D(5,1,2,4)             30.0            calculate D2E/DX2 analytically  !
 ! D3    D(5,1,2,6)            -90.913          calculate D2E/DX2 analytically  !
 ! D4    D(2,1,5,13)          -129.0714         calculate D2E/DX2 analytically  !
 ! D5    D(2,1,5,14)            -7.0402         calculate D2E/DX2 analytically  !
 ! D6    D(2,1,5,15)           115.2073         calculate D2E/DX2 analytically  !
 ! D7    D(1,2,3,7)            110.3436         calculate D2E/DX2 analytically  !
 ! D8    D(1,2,3,8)             -7.057          calculate D2E/DX2 analytically  !
 ! D9    D(1,2,3,9)           -126.6305         calculate D2E/DX2 analytically  !
 ! D10   D(4,2,3,7)           -118.9975         calculate D2E/DX2 analytically  !
 ! D11   D(4,2,3,8)            123.602          calculate D2E/DX2 analytically  !
 ! D12   D(4,2,3,9)              4.0284         calculate D2E/DX2 analytically  !
 ! D13   D(6,2,3,7)             -6.5311         calculate D2E/DX2 analytically  !
 ! D14   D(6,2,3,8)           -123.9317         calculate D2E/DX2 analytically  !
 ! D15   D(6,2,3,9)            116.4947         calculate D2E/DX2 analytically  !
 ! D16   D(1,2,4,10)           167.786          calculate D2E/DX2 analytically  !
 ! D17   D(1,2,4,11)            51.4482         calculate D2E/DX2 analytically  !
 ! D18   D(1,2,4,12)           -78.5461         calculate D2E/DX2 analytically  !
 ! D19   D(3,2,4,10)            42.0358         calculate D2E/DX2 analytically  !
 ! D20   D(3,2,4,11)           -74.302          calculate D2E/DX2 analytically  !
 ! D21   D(3,2,4,12)           155.7036         calculate D2E/DX2 analytically  !
 ! D22   D(6,2,4,10)           -69.8782         calculate D2E/DX2 analytically  !
 ! D23   D(6,2,4,11)           173.784          calculate D2E/DX2 analytically  !
 ! D24   D(6,2,4,12)            43.7896         calculate D2E/DX2 analytically  !
 --------------------------------------------------------------------------------
 Trust Radius=3.00D-01 FncErr=1.00D-07 GrdErr=1.00D-06 EigMax=2.50D+02 EigMin=1.00D-04
 Number of steps in this run=    100 maximum allowed number of steps=    100.
 GradGradGradGradGradGradGradGradGradGradGradGradGradGradGradGradGradGrad

 Leave Link  103 at Wed Mar  6 14:55:13 2019, MaxMem=   104857600 cpu:               0.0 elap:               0.0
 (Enter /shared/centos7/gaussian/g16/l202.exe)
                          Input orientation:                          
 ---------------------------------------------------------------------
 Center     Atomic      Atomic             Coordinates (Angstroms)
 Number     Number       Type             X           Y           Z
 ---------------------------------------------------------------------
      1          8           0        0.784400   -0.572900    0.757900
      2          6           0       -0.426700   -0.074500    0.465200
      3          6           0       -1.479038   -1.169942    0.552646
      4          6           0       -0.615006    0.626436   -0.835033
      5          6           0        1.907600    0.003700    0.281500
      6          1           0       -0.711102    0.666374    1.256863
      7          1           0       -2.163716   -1.030230    1.417474
      8          1           0       -0.976886   -2.142933    0.712349
      9          1           0       -2.079327   -1.246591   -0.365264
     10          1           0       -1.720259    0.756441   -0.976098
     11          1           0       -0.278904    0.077178   -1.724503
     12          1           0       -0.217238    1.671896   -0.822176
     13          1           0        2.528300   -0.796200   -0.197100
     14          1           0        1.816300    0.812700   -0.440000
     15          1           0        2.512300    0.411800    1.130700
 ---------------------------------------------------------------------
                    Distance matrix (angstroms):
                    1          2          3          4          5
     1  O    0.000000
     2  C    1.341953   0.000000
     3  C    2.349839   1.521531   0.000000
     4  C    2.436017   1.489085   2.428822   0.000000
     5  C    1.349445   2.342823   3.594478   2.828071   0.000000
     6  H    2.005315   1.120941   2.111328   2.094483   2.871945
     7  H    3.055417   2.199425   1.111859   3.196378   4.351443
     8  H    2.359916   2.154577   1.106514   3.192922   3.621315
     9  H    3.149014   2.189667   1.099446   2.423458   4.228134
    10  H    3.323735   2.107391   2.471072   1.121778   3.912740
    11  H    2.777687   2.199921   2.860252   1.098093   2.968206
    12  H    2.922161   2.179704   3.399752   1.118647   2.918204
    13  H    2.000769   3.113120   4.093967   3.508736   1.119896
    14  H    2.102301   2.576346   3.971835   2.470222   1.087832
    15  H    2.023426   3.052392   4.332071   3.700029   1.119530
                    6          7          8          9         10
     6  H    0.000000
     7  H    2.239274   0.000000
     8  H    2.873907   1.773097   0.000000
     9  H    2.857056   1.797801   1.783271   0.000000
    10  H    2.452066   3.019608   3.436542   2.124661   0.000000
    11  H    3.069608   3.827648   3.369617   2.615610   1.760402
    12  H    2.361648   4.013264   4.181476   3.491949   1.766585
    13  H    3.840164   4.967558   3.863562   4.632640   4.589966
    14  H    3.047707   4.763100   4.226767   4.407060   3.577404
    15  H    3.235899   4.901715   4.344663   5.105997   4.740457
                   11         12         13         14         15
    11  H    0.000000
    12  H    1.833337   0.000000
    13  H    3.313026   3.744355   0.000000
    14  H    2.565311   2.240436   1.776092   0.000000
    15  H    4.006866   3.584961   1.795153   1.764153   0.000000
 Stoichiometry    C4H10O
 Framework group  C1[X(C4H10O)]
 Deg. of freedom    39
 Full point group                 C1      NOp   1
 Largest Abelian subgroup         C1      NOp   1
 Largest concise Abelian subgroup C1      NOp   1
                         Standard orientation:                         
 ---------------------------------------------------------------------
 Center     Atomic      Atomic             Coordinates (Angstroms)
 Number     Number       Type             X           Y           Z
 ---------------------------------------------------------------------
      1          8           0        0.695960   -0.713305    0.032320
      2          6           0       -0.412233   -0.027329    0.351983
      3          6           0       -1.645673   -0.757170   -0.158911
      4          6           0       -0.520985    1.394056   -0.078383
      5          6           0        1.885949   -0.090612   -0.098764
      6          1           0       -0.520117   -0.018927    1.467689
      7          1           0       -2.255428   -1.185474    0.666307
      8          1           0       -1.327398   -1.614051   -0.782470
      9          1           0       -2.287697   -0.111445   -0.775050
     10          1           0       -1.587574    1.701234    0.084140
     11          1           0       -0.330745    1.584549   -1.142962
     12          1           0        0.064832    2.087803    0.574996
     13          1           0        2.326072   -0.393800   -1.082906
     14          1           0        1.916833    0.995917   -0.055427
     15          1           0        2.591191   -0.453037    0.691573
 ---------------------------------------------------------------------
 Rotational constants (GHZ):           8.0565716           3.9350118           2.9239689
 Leave Link  202 at Wed Mar  6 14:55:13 2019, MaxMem=   104857600 cpu:               0.1 elap:               0.0
 (Enter /shared/centos7/gaussian/g16/l301.exe)
 Standard basis: 6-311+G(2df,2p) (5D, 7F)
 Ernie: Thresh=  0.10000D-02 Tol=  0.10000D-05 Strict=F.
 There are   285 symmetry adapted cartesian basis functions of A   symmetry.
 There are   260 symmetry adapted basis functions of A   symmetry.
   260 basis functions,   370 primitive gaussians,   285 cartesian basis functions
    21 alpha electrons       21 beta electrons
       nuclear repulsion energy       199.8073094720 Hartrees.
 IExCor= 4336 DFT=T Ex+Corr=M062X ExCW=0 ScaHFX=  0.540000
 ScaDFX=  1.000000  1.000000  1.000000  1.000000 ScalE2=  1.000000  1.000000
 IRadAn=      5 IRanWt=     -1 IRanGd=            0 ICorTp=0 IEmpDi=  4
 NAtoms=   15 NActive=   15 NUniq=   15 SFac= 1.00D+00 NAtFMM=   60 NAOKFM=F Big=F
 Integral buffers will be    131072 words long.
 Raffenetti 2 integral format.
 Two-electron integral symmetry is turned on.
 Leave Link  301 at Wed Mar  6 14:55:13 2019, MaxMem=   104857600 cpu:               0.1 elap:               0.1
 (Enter /shared/centos7/gaussian/g16/l302.exe)
 NPDir=0 NMtPBC=     1 NCelOv=     1 NCel=       1 NClECP=     1 NCelD=      1
         NCelK=      1 NCelE2=     1 NClLst=     1 CellRange=     0.0.
 One-electron integrals computed using PRISM.
 One-electron integral symmetry used in STVInt
 NBasis=   260 RedAO= T EigKep=  3.63D-05  NBF=   260
 NBsUse=   260 1.00D-06 EigRej= -1.00D+00 NBFU=   260
 Precomputing XC quadrature grid using
 IXCGrd= 4 IRadAn=           5 IRanWt=          -1 IRanGd=           0 AccXCQ= 0.00D+00.
 Generated NRdTot=       0 NPtTot=           0 NUsed=           0 NTot=          32
 NSgBfM=   285   285   285   285   285 MxSgAt=    15 MxSgA2=    15.
 Leave Link  302 at Wed Mar  6 14:55:14 2019, MaxMem=   104857600 cpu:               0.6 elap:               0.6
 (Enter /shared/centos7/gaussian/g16/l303.exe)
 DipDrv:  MaxL=1.
 Leave Link  303 at Wed Mar  6 14:55:14 2019, MaxMem=   104857600 cpu:               0.1 elap:               0.1
 (Enter /shared/centos7/gaussian/g16/l401.exe)
 ExpMin= 4.38D-02 ExpMax= 8.59D+03 ExpMxC= 1.30D+03 IAcc=3 IRadAn=         5 AccDes= 0.00D+00
 Harris functional with IExCor= 1009 and IRadAn=       5 diagonalized for initial guess.
 HarFok:  IExCor= 1009 AccDes= 0.00D+00 IRadAn=         5 IDoV= 1 UseB2=F ITyADJ=14
 ICtDFT=  3500011 ScaDFX=  1.000000  1.000000  1.000000  1.000000
 FoFCou: FMM=F IPFlag=           0 FMFlag=      100000 FMFlg1=           0
         NFxFlg=           0 DoJE=T BraDBF=F KetDBF=T FulRan=T
         wScrn=  0.000000 ICntrl=       500 IOpCl=  0 I1Cent=   200000004 NGrid=           0
         NMat0=    1 NMatS0=      1 NMatT0=    0 NMatD0=    1 NMtDS0=    0 NMtDT0=    0
 Petite list used in FoFCou.
 Harris En= -233.550344732535    
 JPrj=0 DoOrth=F DoCkMO=F.
 Leave Link  401 at Wed Mar  6 14:55:23 2019, MaxMem=   104857600 cpu:               8.8 elap:               8.8
 (Enter /shared/centos7/gaussian/g16/l502.exe)
 Integral symmetry usage will be decided dynamically.
 Closed shell SCF:
 Using DIIS extrapolation, IDIIS=  1040.
 NGot=   104857600 LenX=   104690743 LenY=   104609077
 Requested convergence on RMS density matrix=1.00D-08 within 128 cycles.
 Requested convergence on MAX density matrix=1.00D-06.
 Requested convergence on             energy=1.00D-06.
 No special actions if energy rises.
 Fock matrices will be formed incrementally for  20 cycles.

 Cycle   1  Pass 1  IDiag  1:
 FoFJK:  IHMeth= 1 ICntrl=       0 DoSepK=F KAlg= 0 I1Cent=           0 FoldK=F
 IRaf= 990000000 NMat=       1 IRICut=       1 DoRegI=T DoRafI=F ISym2E= 0 IDoP0=0 IntGTp=1.
 FoFCou: FMM=F IPFlag=           0 FMFlag=      100000 FMFlg1=           0
         NFxFlg=           0 DoJE=F BraDBF=F KetDBF=F FulRan=T
         wScrn=  0.000000 ICntrl=         0 IOpCl=  0 I1Cent=           0 NGrid=           0
         NMat0=    1 NMatS0=      1 NMatT0=    0 NMatD0=    1 NMtDS0=    0 NMtDT0=    0
 Symmetry not used in FoFCou.
 E= -233.391208437375    
 DIIS: error= 2.47D-02 at cycle   1 NSaved=   1.
 NSaved= 1 IEnMin= 1 EnMin= -233.391208437375     IErMin= 1 ErrMin= 2.47D-02
 ErrMax= 2.47D-02  0.00D+00 EMaxC= 1.00D-01 BMatC= 2.41D-01 BMatP= 2.41D-01
 IDIUse=3 WtCom= 7.53D-01 WtEn= 2.47D-01
 Coeff-Com:  0.100D+01
 Coeff-En:   0.100D+01
 Coeff:      0.100D+01
 Gap=     0.283 Goal=   None    Shift=    0.000
 GapD=    0.283 DampG=1.000 DampE=0.500 DampFc=0.5000 IDamp=-1.
 Damping current iteration by 5.00D-01
 RMSDP=2.50D-03 MaxDP=1.11D-01              OVMax= 1.53D-01

 Cycle   2  Pass 1  IDiag  1:
 RMSU=  1.22D-03    CP:  9.71D-01
 E= -233.496226313000     Delta-E=       -0.105017875624 Rises=F Damp=T
 DIIS: error= 4.23D-03 at cycle   2 NSaved=   2.
 NSaved= 2 IEnMin= 2 EnMin= -233.496226313000     IErMin= 2 ErrMin= 4.23D-03
 ErrMax= 4.23D-03  0.00D+00 EMaxC= 1.00D-01 BMatC= 1.45D-02 BMatP= 2.41D-01
 IDIUse=3 WtCom= 9.58D-01 WtEn= 4.23D-02
 Coeff-Com: -0.107D+00 0.111D+01
 Coeff-En:   0.000D+00 0.100D+01
 Coeff:     -0.103D+00 0.110D+01
 Gap=     0.344 Goal=   None    Shift=    0.000
 RMSDP=8.84D-04 MaxDP=5.60D-02 DE=-1.05D-01 OVMax= 7.92D-02

 Cycle   3  Pass 1  IDiag  1:
 RMSU=  8.81D-04    CP:  9.66D-01  9.52D-01
 E= -233.594124785605     Delta-E=       -0.097898472605 Rises=F Damp=F
 DIIS: error= 3.10D-03 at cycle   3 NSaved=   3.
 NSaved= 3 IEnMin= 3 EnMin= -233.594124785605     IErMin= 3 ErrMin= 3.10D-03
 ErrMax= 3.10D-03  0.00D+00 EMaxC= 1.00D-01 BMatC= 2.53D-03 BMatP= 1.45D-02
 IDIUse=3 WtCom= 9.69D-01 WtEn= 3.10D-02
 Coeff-Com: -0.723D-01 0.291D+00 0.781D+00
 Coeff-En:   0.000D+00 0.000D+00 0.100D+01
 Coeff:     -0.701D-01 0.282D+00 0.788D+00
 Gap=     0.322 Goal=   None    Shift=    0.000
 RMSDP=1.69D-04 MaxDP=8.10D-03 DE=-9.79D-02 OVMax= 1.38D-02

 Cycle   4  Pass 1  IDiag  1:
 RMSU=  1.36D-04    CP:  9.64D-01  1.01D+00  9.30D-01
 E= -233.595782812380     Delta-E=       -0.001658026775 Rises=F Damp=F
 DIIS: error= 1.25D-03 at cycle   4 NSaved=   4.
 NSaved= 4 IEnMin= 4 EnMin= -233.595782812380     IErMin= 4 ErrMin= 1.25D-03
 ErrMax= 1.25D-03  0.00D+00 EMaxC= 1.00D-01 BMatC= 6.08D-04 BMatP= 2.53D-03
 IDIUse=3 WtCom= 9.87D-01 WtEn= 1.25D-02
 Coeff-Com: -0.255D-01 0.686D-01 0.372D+00 0.585D+00
 Coeff-En:   0.000D+00 0.000D+00 0.862D-01 0.914D+00
 Coeff:     -0.251D-01 0.677D-01 0.369D+00 0.589D+00
 Gap=     0.327 Goal=   None    Shift=    0.000
 RMSDP=6.96D-05 MaxDP=3.63D-03 DE=-1.66D-03 OVMax= 4.79D-03

 Cycle   5  Pass 1  IDiag  1:
 RMSU=  4.87D-05    CP:  9.64D-01  9.97D-01  9.59D-01  7.31D-01
 E= -233.596216497306     Delta-E=       -0.000433684926 Rises=F Damp=F
 DIIS: error= 2.14D-04 at cycle   5 NSaved=   5.
 NSaved= 5 IEnMin= 5 EnMin= -233.596216497306     IErMin= 5 ErrMin= 2.14D-04
 ErrMax= 2.14D-04  0.00D+00 EMaxC= 1.00D-01 BMatC= 1.96D-05 BMatP= 6.08D-04
 IDIUse=3 WtCom= 9.98D-01 WtEn= 2.14D-03
 Coeff-Com: -0.425D-02 0.707D-02 0.888D-01 0.219D+00 0.690D+00
 Coeff-En:   0.000D+00 0.000D+00 0.000D+00 0.000D+00 0.100D+01
 Coeff:     -0.424D-02 0.705D-02 0.886D-01 0.218D+00 0.690D+00
 Gap=     0.326 Goal=   None    Shift=    0.000
 RMSDP=1.78D-05 MaxDP=6.11D-04 DE=-4.34D-04 OVMax= 8.16D-04

 Cycle   6  Pass 1  IDiag  1:
 RMSU=  1.67D-05    CP:  9.64D-01  9.96D-01  9.61D-01  7.64D-01  9.34D-01
 E= -233.596229787884     Delta-E=       -0.000013290578 Rises=F Damp=F
 DIIS: error= 5.09D-05 at cycle   6 NSaved=   6.
 NSaved= 6 IEnMin= 6 EnMin= -233.596229787884     IErMin= 6 ErrMin= 5.09D-05
 ErrMax= 5.09D-05  0.00D+00 EMaxC= 1.00D-01 BMatC= 1.05D-06 BMatP= 1.96D-05
 IDIUse=1 WtCom= 1.00D+00 WtEn= 0.00D+00
 Coeff-Com:  0.265D-03-0.178D-02 0.933D-02 0.452D-01 0.237D+00 0.710D+00
 Coeff:      0.265D-03-0.178D-02 0.933D-02 0.452D-01 0.237D+00 0.710D+00
 Gap=     0.327 Goal=   None    Shift=    0.000
 RMSDP=4.49D-06 MaxDP=1.96D-04 DE=-1.33D-05 OVMax= 2.42D-04

 Cycle   7  Pass 1  IDiag  1:
 RMSU=  3.04D-06    CP:  9.64D-01  9.95D-01  9.62D-01  7.72D-01  9.88D-01
                    CP:  9.78D-01
 E= -233.596230635182     Delta-E=       -0.000000847297 Rises=F Damp=F
 DIIS: error= 2.05D-05 at cycle   7 NSaved=   7.
 NSaved= 7 IEnMin= 7 EnMin= -233.596230635182     IErMin= 7 ErrMin= 2.05D-05
 ErrMax= 2.05D-05  0.00D+00 EMaxC= 1.00D-01 BMatC= 1.03D-07 BMatP= 1.05D-06
 IDIUse=1 WtCom= 1.00D+00 WtEn= 0.00D+00
 Coeff-Com:  0.660D-03-0.152D-02-0.842D-02-0.125D-01-0.159D-01 0.228D+00
 Coeff-Com:  0.809D+00
 Coeff:      0.660D-03-0.152D-02-0.842D-02-0.125D-01-0.159D-01 0.228D+00
 Coeff:      0.809D+00
 Gap=     0.327 Goal=   None    Shift=    0.000
 RMSDP=2.05D-06 MaxDP=7.81D-05 DE=-8.47D-07 OVMax= 8.43D-05

 Cycle   8  Pass 1  IDiag  1:
 RMSU=  1.10D-06    CP:  9.64D-01  9.94D-01  9.62D-01  7.75D-01  1.01D+00
                    CP:  1.04D+00  1.02D+00
 E= -233.596230727544     Delta-E=       -0.000000092362 Rises=F Damp=F
 DIIS: error= 3.48D-06 at cycle   8 NSaved=   8.
 NSaved= 8 IEnMin= 8 EnMin= -233.596230727544     IErMin= 8 ErrMin= 3.48D-06
 ErrMax= 3.48D-06  0.00D+00 EMaxC= 1.00D-01 BMatC= 2.81D-09 BMatP= 1.03D-07
 IDIUse=1 WtCom= 1.00D+00 WtEn= 0.00D+00
 Coeff-Com:  0.125D-03-0.260D-03-0.243D-02-0.486D-02-0.150D-01 0.243D-01
 Coeff-Com:  0.189D+00 0.809D+00
 Coeff:      0.125D-03-0.260D-03-0.243D-02-0.486D-02-0.150D-01 0.243D-01
 Coeff:      0.189D+00 0.809D+00
 Gap=     0.327 Goal=   None    Shift=    0.000
 RMSDP=4.16D-07 MaxDP=1.76D-05 DE=-9.24D-08 OVMax= 1.59D-05

 Cycle   9  Pass 1  IDiag  1:
 RMSU=  3.08D-07    CP:  9.64D-01  9.94D-01  9.63D-01  7.75D-01  1.01D+00
                    CP:  1.05D+00  1.04D+00  1.00D+00
 E= -233.596230730605     Delta-E=       -0.000000003061 Rises=F Damp=F
 DIIS: error= 7.01D-07 at cycle   9 NSaved=   9.
 NSaved= 9 IEnMin= 9 EnMin= -233.596230730605     IErMin= 9 ErrMin= 7.01D-07
 ErrMax= 7.01D-07  0.00D+00 EMaxC= 1.00D-01 BMatC= 9.15D-11 BMatP= 2.81D-09
 IDIUse=1 WtCom= 1.00D+00 WtEn= 0.00D+00
 Coeff-Com: -0.210D-04 0.454D-04 0.920D-04-0.248D-04-0.697D-03-0.650D-02
 Coeff-Com: -0.165D-01 0.994D-01 0.924D+00
 Coeff:     -0.210D-04 0.454D-04 0.920D-04-0.248D-04-0.697D-03-0.650D-02
 Coeff:     -0.165D-01 0.994D-01 0.924D+00
 Gap=     0.327 Goal=   None    Shift=    0.000
 RMSDP=8.90D-08 MaxDP=2.57D-06 DE=-3.06D-09 OVMax= 5.81D-06

 Cycle  10  Pass 1  IDiag  1:
 RMSU=  4.37D-08    CP:  9.64D-01  9.94D-01  9.63D-01  7.75D-01  1.01D+00
                    CP:  1.05D+00  1.05D+00  1.06D+00  1.06D+00
 E= -233.596230730727     Delta-E=       -0.000000000122 Rises=F Damp=F
 DIIS: error= 1.14D-07 at cycle  10 NSaved=  10.
 NSaved=10 IEnMin=10 EnMin= -233.596230730727     IErMin=10 ErrMin= 1.14D-07
 ErrMax= 1.14D-07  0.00D+00 EMaxC= 1.00D-01 BMatC= 6.94D-12 BMatP= 9.15D-11
 IDIUse=1 WtCom= 1.00D+00 WtEn= 0.00D+00
 Coeff-Com: -0.823D-05 0.181D-04 0.954D-04 0.124D-03 0.308D-03-0.232D-02
 Coeff-Com: -0.990D-02-0.570D-02 0.227D+00 0.790D+00
 Coeff:     -0.823D-05 0.181D-04 0.954D-04 0.124D-03 0.308D-03-0.232D-02
 Coeff:     -0.990D-02-0.570D-02 0.227D+00 0.790D+00
 Gap=     0.327 Goal=   None    Shift=    0.000
 RMSDP=2.12D-08 MaxDP=8.54D-07 DE=-1.22D-10 OVMax= 1.29D-06

 Cycle  11  Pass 1  IDiag  1:
 RMSU=  1.05D-08    CP:  9.64D-01  9.94D-01  9.63D-01  7.75D-01  1.01D+00
                    CP:  1.05D+00  1.05D+00  1.07D+00  1.10D+00  1.02D+00
 E= -233.596230730733     Delta-E=       -0.000000000006 Rises=F Damp=F
 DIIS: error= 4.67D-08 at cycle  11 NSaved=  11.
 NSaved=11 IEnMin=11 EnMin= -233.596230730733     IErMin=11 ErrMin= 4.67D-08
 ErrMax= 4.67D-08  0.00D+00 EMaxC= 1.00D-01 BMatC= 8.45D-13 BMatP= 6.94D-12
 IDIUse=1 WtCom= 1.00D+00 WtEn= 0.00D+00
 Coeff-Com: -0.440D-06 0.141D-05 0.194D-04 0.314D-04 0.131D-03-0.158D-03
 Coeff-Com: -0.170D-02-0.101D-01-0.204D-03 0.244D+00 0.768D+00
 Coeff:     -0.440D-06 0.141D-05 0.194D-04 0.314D-04 0.131D-03-0.158D-03
 Coeff:     -0.170D-02-0.101D-01-0.204D-03 0.244D+00 0.768D+00
 Gap=     0.327 Goal=   None    Shift=    0.000
 RMSDP=5.91D-09 MaxDP=2.26D-07 DE=-6.03D-12 OVMax= 4.90D-07

 SCF Done:  E(RM062X) =  -233.596230731     A.U. after   11 cycles
            NFock= 11  Conv=0.59D-08     -V/T= 2.0034
 KE= 2.328066016376D+02 PE=-9.437963087258D+02 EE= 2.775861668854D+02
 Leave Link  502 at Wed Mar  6 15:01:04 2019, MaxMem=   104857600 cpu:             341.4 elap:             341.4
 (Enter /shared/centos7/gaussian/g16/l801.exe)
 DoSCS=F DFT=T ScalE2(SS,OS)=  1.000000  1.000000
 Range of M.O.s used for correlation:     1   260
 NBasis=   260 NAE=    21 NBE=    21 NFC=     0 NFV=     0
 NROrb=    260 NOA=    21 NOB=    21 NVA=   239 NVB=   239

 **** Warning!!: The largest alpha MO coefficient is  0.45457520D+02

 Leave Link  801 at Wed Mar  6 15:01:04 2019, MaxMem=   104857600 cpu:               0.1 elap:               0.1
 (Enter /shared/centos7/gaussian/g16/l1101.exe)
 Using compressed storage, NAtomX=    15.
 Will process     16 centers per pass.
 Leave Link 1101 at Wed Mar  6 15:01:05 2019, MaxMem=   104857600 cpu:               0.3 elap:               0.4
 (Enter /shared/centos7/gaussian/g16/l1102.exe)
 Symmetrizing basis deriv contribution to polar:
 IMax=3 JMax=2 DiffMx= 0.00D+00
 Leave Link 1102 at Wed Mar  6 15:01:05 2019, MaxMem=   104857600 cpu:               0.1 elap:               0.1
 (Enter /shared/centos7/gaussian/g16/l1110.exe)
 Forming Gx(P) for the SCF density, NAtomX=    15.
 Integral derivatives from FoFJK, PRISM(SPDF).
 Do as many integral derivatives as possible in FoFJK.
 G2DrvN: MDV=     104856384.
 G2DrvN: will do    16 centers at a time, making    1 passes.
 Calling FoFCou, ICntrl=  3107 FMM=F I1Cent=   0 AccDes= 0.00D+00.
 FoFJK:  IHMeth= 1 ICntrl=    3107 DoSepK=F KAlg= 0 I1Cent=           0 FoldK=F
 IRaf=         0 NMat=       1 IRICut=       1 DoRegI=T DoRafI=F ISym2E= 0 IDoP0=0 IntGTp=1.
 FoFCou: FMM=F IPFlag=           0 FMFlag=      100000 FMFlg1=           0
         NFxFlg=           0 DoJE=F BraDBF=F KetDBF=F FulRan=T
         wScrn=  0.000000 ICntrl=      3107 IOpCl=  0 I1Cent=           0 NGrid=           0
         NMat0=    1 NMatS0=      1 NMatT0=    0 NMatD0=    1 NMtDS0=    0 NMtDT0=    0
 Symmetry not used in FoFCou.
 End of G2Drv F.D. properties file   721 does not exist.
 End of G2Drv F.D. properties file   722 does not exist.
 End of G2Drv F.D. properties file   788 does not exist.
 Leave Link 1110 at Wed Mar  6 15:15:53 2019, MaxMem=   104857600 cpu:             888.3 elap:             888.5
 (Enter /shared/centos7/gaussian/g16/l1002.exe)
 Minotr:  Closed shell wavefunction.
          IDoAtm=111111111111111
          Direct CPHF calculation.
          Differentiating once with respect to nuclear coordinates.
          Requested convergence is 1.0D-08 RMS, and 1.0D-07 maximum.
          Secondary convergence is 1.0D-12 RMS, and 1.0D-12 maximum.
          NewPWx=T KeepS1=F KeepF1=F KeepIn=T MapXYZ=F SortEE=F KeepMc=T.
         4562 words used for storage of precomputed grid.
 Two-electron integrals replicated using symmetry.
          MDV=     104857600 using IRadAn=       1.
          Solving linear equations simultaneously, MaxMat=     384.
 FoF2E skips out because all densities are zero.
 CalDSu exits because no D1Ps are significant.
 FoFJK:  IHMeth= 1 ICntrl=       0 DoSepK=F KAlg= 0 I1Cent=           0 FoldK=F
 IRaf= 980000000 NMat=      45 IRICut=     112 DoRegI=T DoRafI=T ISym2E= 2 IDoP0=3 IntGTp=3.
 FoFCou: FMM=F IPFlag=           0 FMFlag=      100000 FMFlg1=           0
         NFxFlg=           0 DoJE=F BraDBF=F KetDBF=F FulRan=T
         wScrn=  0.000000 ICntrl=         0 IOpCl=  0 I1Cent=           0 NGrid=           0
         NMat0=   45 NMatS0=     45 NMatT0=    0 NMatD0=   45 NMtDS0=    0 NMtDT0=    0
 Integrals replicated using symmetry in FoFCou.
 Raff kept on since  96.51% of shell-pairs survive, threshold=   0.20 IRatSp=97.
          There are    48 degrees of freedom in the 1st order CPHF.  IDoFFX=6 NUNeed=     0.
     42 vectors produced by pass  0 Test12= 1.05D-14 2.08D-09 XBig12= 8.48D-02 4.45D-02.
 AX will form    42 AO Fock derivatives at one time.
     42 vectors produced by pass  1 Test12= 1.05D-14 2.08D-09 XBig12= 4.27D-03 9.52D-03.
     42 vectors produced by pass  2 Test12= 1.05D-14 2.08D-09 XBig12= 7.29D-05 1.36D-03.
     42 vectors produced by pass  3 Test12= 1.05D-14 2.08D-09 XBig12= 6.40D-07 9.57D-05.
