 Entering Gaussian System, Link 0=g16
 Input=XOBKSJJDNFUZPF-UHFFFAOYSA-N_GeoFreq_a1.com
 Output=XOBKSJJDNFUZPF-UHFFFAOYSA-N_GeoFreq_a1.log
 Initial command:
 /shared/centos7/gaussian/g16/l1.exe "/scratch/underkoffler.c/gaussian_scratch/Gau-6547.inp" -scrdir="/scratch/underkoffler.c/gaussian_scratch/"
 Entering Link 1 = /shared/centos7/gaussian/g16/l1.exe PID=      6548.
  
 Copyright (c) 1988,1990,1992,1993,1995,1998,2003,2009,2016,
            Gaussian, Inc.  All Rights Reserved.
  
 This is part of the Gaussian(R) 16 program.  It is based on
 the Gaussian(R) 09 system (copyright 2009, Gaussian, Inc.),
 the Gaussian(R) 03 system (copyright 2003, Gaussian, Inc.),
 the Gaussian(R) 98 system (copyright 1998, Gaussian, Inc.),
 the Gaussian(R) 94 system (copyright 1995, Gaussian, Inc.),
 the Gaussian 92(TM) system (copyright 1992, Gaussian, Inc.),
 the Gaussian 90(TM) system (copyright 1990, Gaussian, Inc.),
 the Gaussian 88(TM) system (copyright 1988, Gaussian, Inc.),
 the Gaussian 86(TM) system (copyright 1986, Carnegie Mellon
 University), and the Gaussian 82(TM) system (copyright 1983,
 Carnegie Mellon University). Gaussian is a federally registered
 trademark of Gaussian, Inc.
  
 This software contains proprietary and confidential information,
 including trade secrets, belonging to Gaussian, Inc.
  
 This software is provided under written license and may be
 used, copied, transmitted, or stored only in accord with that
 written license.
  
 The following legend is applicable only to US Government
 contracts under FAR:
  
                    RESTRICTED RIGHTS LEGEND
  
 Use, reproduction and disclosure by the US Government is
 subject to restrictions as set forth in subparagraphs (a)
 and (c) of the Commercial Computer Software - Restricted
 Rights clause in FAR 52.227-19.
  
 Gaussian, Inc.
 340 Quinnipiac St., Bldg. 40, Wallingford CT 06492
  
  
 ---------------------------------------------------------------
 Warning -- This program may not be used in any manner that
 competes with the business of Gaussian, Inc. or will provide
 assistance to any competitor of Gaussian, Inc.  The licensee
 of this program is prohibited from giving any competitor of
 Gaussian, Inc. access to this program.  By using this program,
 the user acknowledges that Gaussian, Inc. is engaged in the
 business of creating and licensing software in the field of
 computational chemistry and represents and warrants to the
 licensee that it is not a competitor of Gaussian, Inc. and that
 it will not use this program in any manner prohibited above.
 ---------------------------------------------------------------
  

 Cite this work as:
 Gaussian 16, Revision A.03,
 M. J. Frisch, G. W. Trucks, H. B. Schlegel, G. E. Scuseria, 
 M. A. Robb, J. R. Cheeseman, G. Scalmani, V. Barone, 
 G. A. Petersson, H. Nakatsuji, X. Li, M. Caricato, A. V. Marenich, 
 J. Bloino, B. G. Janesko, R. Gomperts, B. Mennucci, H. P. Hratchian, 
 J. V. Ortiz, A. F. Izmaylov, J. L. Sonnenberg, D. Williams-Young, 
 F. Ding, F. Lipparini, F. Egidi, J. Goings, B. Peng, A. Petrone, 
 T. Henderson, D. Ranasinghe, V. G. Zakrzewski, J. Gao, N. Rega, 
 G. Zheng, W. Liang, M. Hada, M. Ehara, K. Toyota, R. Fukuda, 
 J. Hasegawa, M. Ishida, T. Nakajima, Y. Honda, O. Kitao, H. Nakai, 
 T. Vreven, K. Throssell, J. A. Montgomery, Jr., J. E. Peralta, 
 F. Ogliaro, M. J. Bearpark, J. J. Heyd, E. N. Brothers, K. N. Kudin, 
 V. N. Staroverov, T. A. Keith, R. Kobayashi, J. Normand, 
 K. Raghavachari, A. P. Rendell, J. C. Burant, S. S. Iyengar, 
 J. Tomasi, M. Cossi, J. M. Millam, M. Klene, C. Adamo, R. Cammi, 
 J. W. Ochterski, R. L. Martin, K. Morokuma, O. Farkas, 
 J. B. Foresman, and D. J. Fox, Gaussian, Inc., Wallingford CT, 2016.
 
 ******************************************
 Gaussian 16:  EM64L-G16RevA.03 25-Dec-2016
                11-Mar-2019 
 ******************************************
 %nprocshared=20
 Will use up to   20 processors via shared memory.
 %mem=5GB
 ----------------------------------------------------------------------
 #p m062x/6-311+g(2df,2p) opt=(calcfc,verytight,gdiis,maxcycles=900) fr
 eq iop(7/33=1,2/16=3)
 ----------------------------------------------------------------------

 Warning!  Use of Opt=GDIIS is deprecated since it is seldom a good choice.

 1/6=900,7=1,10=4,18=20,19=11,26=3,38=1/1,3;
 2/9=110,12=2,16=3,17=6,18=5,40=1/2;
 3/5=4,6=6,7=214,11=2,25=1,30=1,71=2,74=-55,140=1/1,2,3;
 4//1;
 5/5=2,38=5/2;
 8/6=4,10=90,11=11/1;
 11/6=1,8=1,9=11,15=111,16=1/1,2,10;
 10/6=1,13=1/2;
 6/7=2,8=2,9=2,10=2,28=1/1;
 7/10=1,18=20,25=1,33=1/1,2,3,16;
 1/6=900,7=1,10=4,18=20,19=11,26=3/3(2);
 2/9=110,16=3/2;
 99//99;
 2/9=110,16=3/2;
 3/5=4,6=6,7=214,11=2,25=1,30=1,71=1,74=-55/1,2,3;
 4/5=5,16=3,69=1/1;
 5/5=2,38=5/2;
 7/33=1/1,2,3,16;
 1/6=900,7=1,18=20,19=11,26=3/3(-5);
 2/9=110,16=3/2;
 6/7=2,8=2,9=2,10=2,19=2,28=1/1;
 99/9=1/99;
 Leave Link    1 at Mon Mar 11 15:40:52 2019, MaxMem=   671088640 cpu:              29.8 elap:               1.6
 (Enter /shared/centos7/gaussian/g16/l101.exe)
 ------------------------------
 Gaussian input prepared by ASE
 ------------------------------
 Symbolic Z-matrix:
 Charge =  0 Multiplicity = 1
 O                     0.50319  -0.49852   0. 
 C                    -0.48782   0.5007    0. 
 C                    -1.84491  -0.16515   0. 
 C                     1.80073   0.03291   0. 
 H                    -0.36868   1.14035  -0.88435 
 H                    -0.36868   1.14035   0.88435 
 H                    -1.95701  -0.792    -0.88318 
 H                    -2.63669   0.58291   0. 
 H                    -1.95701  -0.792     0.88318 
 H                     1.97734   0.64876  -0.88904 
 H                     1.97734   0.64876   0.88904 
 H                     2.49989  -0.79971   0. 
 
 ITRead=  0  0  0  0  0  0  0  0  0  0  0  0
 MicOpt= -1 -1 -1 -1 -1 -1 -1 -1 -1 -1 -1 -1
 NAtoms=     12 NQM=       12 NQMF=       0 NMMI=      0 NMMIF=      0
                NMic=       0 NMicF=      0.
                    Isotopes and Nuclear Properties:
 (Nuclear quadrupole moments (NQMom) in fm**2, nuclear magnetic moments (NMagM)
  in nuclear magnetons)

  Atom         1           2           3           4           5           6           7           8           9          10
 IAtWgt=          16          12          12          12           1           1           1           1           1           1
 AtmWgt=  15.9949146  12.0000000  12.0000000  12.0000000   1.0078250   1.0078250   1.0078250   1.0078250   1.0078250   1.0078250
 NucSpn=           0           0           0           0           1           1           1           1           1           1
 AtZEff=  -0.0000000  -0.0000000  -0.0000000  -0.0000000  -0.0000000  -0.0000000  -0.0000000  -0.0000000  -0.0000000  -0.0000000
 NQMom=    0.0000000   0.0000000   0.0000000   0.0000000   0.0000000   0.0000000   0.0000000   0.0000000   0.0000000   0.0000000
 NMagM=    0.0000000   0.0000000   0.0000000   0.0000000   2.7928460   2.7928460   2.7928460   2.7928460   2.7928460   2.7928460
 AtZNuc=   8.0000000   6.0000000   6.0000000   6.0000000   1.0000000   1.0000000   1.0000000   1.0000000   1.0000000   1.0000000

  Atom        11          12
 IAtWgt=           1           1
 AtmWgt=   1.0078250   1.0078250
 NucSpn=           1           1
 AtZEff=  -0.0000000  -0.0000000
 NQMom=    0.0000000   0.0000000
 NMagM=    2.7928460   2.7928460
 AtZNuc=   1.0000000   1.0000000
 Leave Link  101 at Mon Mar 11 15:40:52 2019, MaxMem=   671088640 cpu:               7.2 elap:               0.4
 (Enter /shared/centos7/gaussian/g16/l103.exe)

 GradGradGradGradGradGradGradGradGradGradGradGradGradGradGradGradGradGrad
 Berny optimization.
 Initialization pass.
                           ----------------------------
                           !    Initial Parameters    !
                           ! (Angstroms and Degrees)  !
 --------------------------                            --------------------------
 ! Name  Definition              Value          Derivative Info.                !
 --------------------------------------------------------------------------------
 ! R1    R(1,2)                  1.4073         calculate D2E/DX2 analytically  !
 ! R2    R(1,4)                  1.4021         calculate D2E/DX2 analytically  !
 ! R3    R(2,3)                  1.5116         calculate D2E/DX2 analytically  !
 ! R4    R(2,5)                  1.0979         calculate D2E/DX2 analytically  !
 ! R5    R(2,6)                  1.0979         calculate D2E/DX2 analytically  !
 ! R6    R(3,7)                  1.0888         calculate D2E/DX2 analytically  !
 ! R7    R(3,8)                  1.0893         calculate D2E/DX2 analytically  !
 ! R8    R(3,9)                  1.0888         calculate D2E/DX2 analytically  !
 ! R9    R(4,10)                 1.0958         calculate D2E/DX2 analytically  !
 ! R10   R(4,11)                 1.0958         calculate D2E/DX2 analytically  !
 ! R11   R(4,12)                 1.0872         calculate D2E/DX2 analytically  !
 ! A1    A(2,1,4)              112.4914         calculate D2E/DX2 analytically  !
 ! A2    A(1,2,3)              108.6289         calculate D2E/DX2 analytically  !
 ! A3    A(1,2,5)              109.7088         calculate D2E/DX2 analytically  !
 ! A4    A(1,2,6)              109.7088         calculate D2E/DX2 analytically  !
 ! A5    A(3,2,5)              110.7353         calculate D2E/DX2 analytically  !
 ! A6    A(3,2,6)              110.7353         calculate D2E/DX2 analytically  !
 ! A7    A(5,2,6)              107.3134         calculate D2E/DX2 analytically  !
 ! A8    A(2,3,7)              110.2446         calculate D2E/DX2 analytically  !
 ! A9    A(2,3,8)              110.4917         calculate D2E/DX2 analytically  !
 ! A10   A(2,3,9)              110.2446         calculate D2E/DX2 analytically  !
 ! A11   A(7,3,8)              108.6952         calculate D2E/DX2 analytically  !
 ! A12   A(7,3,9)              108.415          calculate D2E/DX2 analytically  !
 ! A13   A(8,3,9)              108.6952         calculate D2E/DX2 analytically  !
 ! A14   A(1,4,10)             111.2319         calculate D2E/DX2 analytically  !
 ! A15   A(1,4,11)             111.2319         calculate D2E/DX2 analytically  !
 ! A16   A(1,4,12)             107.7485         calculate D2E/DX2 analytically  !
 ! A17   A(10,4,11)            108.4438         calculate D2E/DX2 analytically  !
 ! A18   A(10,4,12)            109.0711         calculate D2E/DX2 analytically  !
 ! A19   A(11,4,12)            109.0711         calculate D2E/DX2 analytically  !
 ! D1    D(4,1,2,3)            180.0            calculate D2E/DX2 analytically  !
 ! D2    D(4,1,2,5)             58.8264         calculate D2E/DX2 analytically  !
 ! D3    D(4,1,2,6)            -58.8265         calculate D2E/DX2 analytically  !
 ! D4    D(2,1,4,10)           -60.5012         calculate D2E/DX2 analytically  !
 ! D5    D(2,1,4,11)            60.5012         calculate D2E/DX2 analytically  !
 ! D6    D(2,1,4,12)           180.0            calculate D2E/DX2 analytically  !
 ! D7    D(1,2,3,7)            -59.8312         calculate D2E/DX2 analytically  !
 ! D8    D(1,2,3,8)            180.0            calculate D2E/DX2 analytically  !
 ! D9    D(1,2,3,9)             59.8312         calculate D2E/DX2 analytically  !
 ! D10   D(5,2,3,7)             60.7095         calculate D2E/DX2 analytically  !
 ! D11   D(5,2,3,8)            -59.4593         calculate D2E/DX2 analytically  !
 ! D12   D(5,2,3,9)           -179.6281         calculate D2E/DX2 analytically  !
 ! D13   D(6,2,3,7)            179.6281         calculate D2E/DX2 analytically  !
 ! D14   D(6,2,3,8)             59.4593         calculate D2E/DX2 analytically  !
 ! D15   D(6,2,3,9)            -60.7095         calculate D2E/DX2 analytically  !
 --------------------------------------------------------------------------------
 Trust Radius=3.00D-01 FncErr=1.00D-07 GrdErr=1.00D-06 EigMax=2.50D+02 EigMin=1.00D-04
 Number of steps in this run=    100 maximum allowed number of steps=    100.
 GradGradGradGradGradGradGradGradGradGradGradGradGradGradGradGradGradGrad

 Leave Link  103 at Mon Mar 11 15:40:52 2019, MaxMem=   671088640 cpu:               0.2 elap:               0.0
 (Enter /shared/centos7/gaussian/g16/l202.exe)
                          Input orientation:                          
 ---------------------------------------------------------------------
 Center     Atomic      Atomic             Coordinates (Angstroms)
 Number     Number       Type             X           Y           Z
 ---------------------------------------------------------------------
      1          8           0        0.503188   -0.498519    0.000000
      2          6           0       -0.487822    0.500699    0.000000
      3          6           0       -1.844905   -0.165153    0.000000
      4          6           0        1.800727    0.032909    0.000000
      5          1           0       -0.368678    1.140349   -0.884353
      6          1           0       -0.368678    1.140349    0.884354
      7          1           0       -1.957009   -0.792001   -0.883179
      8          1           0       -2.636690    0.582905    0.000000
      9          1           0       -1.957009   -0.792001    0.883179
     10          1           0        1.977338    0.648762   -0.889036
     11          1           0        1.977338    0.648762    0.889036
     12          1           0        2.499892   -0.799708    0.000000
 ---------------------------------------------------------------------
                    Distance matrix (angstroms):
                    1          2          3          4          5
     1  O    0.000000
     2  C    1.407316   0.000000
     3  C    2.371639   1.511633   0.000000
     4  C    1.402149   2.335869   3.651008   0.000000
     5  H    2.056239   1.097920   2.160014   2.591297   0.000000
     6  H    2.056239   1.097920   2.160015   2.591298   1.768707
     7  H    2.630343   2.146995   1.088812   3.947285   2.501354
     8  H    3.320890   2.150440   1.089272   4.471372   2.497339
     9  H    2.630343   2.146995   1.088812   3.947285   3.062832
    10  H    2.068757   2.624752   4.007790   1.095834   2.396971
    11  H    2.068757   2.624752   4.007790   1.095834   2.981670
    12  H    2.019292   3.258450   4.390891   1.087236   3.574157
                    6          7          8          9         10
     6  H    0.000000
     7  H    3.062833   0.000000
     8  H    2.497339   1.769841   0.000000
     9  H    2.501354   1.766358   1.769841   0.000000
    10  H    2.981671   4.189859   4.699359   4.549245   0.000000
    11  H    2.396971   4.549245   4.699359   4.189859   1.778072
    12  H    3.574157   4.543570   5.319407   4.543570   1.778064
                   11         12
    11  H    0.000000
    12  H    1.778064   0.000000
 Stoichiometry    C3H8O
 Framework group  CS[SG(C3H2O),X(H6)]
 Deg. of freedom    18
 Full point group                 CS      NOp   2
 Largest Abelian subgroup         CS      NOp   2
 Largest concise Abelian subgroup CS      NOp   2
                         Standard orientation:                         
 ---------------------------------------------------------------------
 Center     Atomic      Atomic             Coordinates (Angstroms)
 Number     Number       Type             X           Y           Z
 ---------------------------------------------------------------------
      1          8           0        0.012527   -0.708210    0.000000
      2          6           0        0.000000    0.699049    0.000000
      3          6           0       -1.436676    1.169150    0.000000
      4          6           0        1.312749   -1.233041    0.000000
      5          1           0        0.531709    1.074060   -0.884353
      6          1           0        0.531709    1.074060    0.884353
      7          1           0       -1.954409    0.798396   -0.883179
      8          1           0       -1.481776    2.257489    0.000000
      9          1           0       -1.954409    0.798396    0.883179
     10          1           0        1.869012   -0.915178   -0.889036
     11          1           0        1.869012   -0.915178    0.889036
     12          1           0        1.232500   -2.317312    0.000000
 ---------------------------------------------------------------------
 Rotational constants (GHZ):          28.5211231           4.1910173           3.9230743
 Leave Link  202 at Mon Mar 11 15:40:52 2019, MaxMem=   671088640 cpu:               0.3 elap:               0.0
 (Enter /shared/centos7/gaussian/g16/l301.exe)
 Standard basis: 6-311+G(2df,2p) (5D, 7F)
 Ernie: Thresh=  0.10000D-02 Tol=  0.10000D-05 Strict=F.
 There are   149 symmetry adapted cartesian basis functions of A'  symmetry.
 There are    79 symmetry adapted cartesian basis functions of A"  symmetry.
 There are   133 symmetry adapted basis functions of A'  symmetry.
 There are    75 symmetry adapted basis functions of A"  symmetry.
   208 basis functions,   296 primitive gaussians,   228 cartesian basis functions
    17 alpha electrons       17 beta electrons
       nuclear repulsion energy       134.1589793590 Hartrees.
 IExCor= 4336 DFT=T Ex+Corr=M062X ExCW=0 ScaHFX=  0.540000
 ScaDFX=  1.000000  1.000000  1.000000  1.000000 ScalE2=  1.000000  1.000000
 IRadAn=      5 IRanWt=     -1 IRanGd=            0 ICorTp=0 IEmpDi=  4
 NAtoms=   12 NActive=   12 NUniq=    9 SFac= 1.78D+00 NAtFMM=   60 NAOKFM=F Big=F
 Integral buffers will be    131072 words long.
 Raffenetti 2 integral format.
 Two-electron integral symmetry is turned on.
 Leave Link  301 at Mon Mar 11 15:40:53 2019, MaxMem=   671088640 cpu:               1.3 elap:               0.1
 (Enter /shared/centos7/gaussian/g16/l302.exe)
 NPDir=0 NMtPBC=     1 NCelOv=     1 NCel=       1 NClECP=     1 NCelD=      1
         NCelK=      1 NCelE2=     1 NClLst=     1 CellRange=     0.0.
 One-electron integrals computed using PRISM.
 One-electron integral symmetry used in STVInt
 NBasis=   208 RedAO= T EigKep=  7.85D-05  NBF=   133    75
 NBsUse=   208 1.00D-06 EigRej= -1.00D+00 NBFU=   133    75
 Precomputing XC quadrature grid using
 IXCGrd= 4 IRadAn=           5 IRanWt=          -1 IRanGd=           0 AccXCQ= 0.00D+00.
 Generated NRdTot=       0 NPtTot=           0 NUsed=           0 NTot=          32
 NSgBfM=   228   228   228   228   228 MxSgAt=    12 MxSgA2=    12.
 Leave Link  302 at Mon Mar 11 15:40:53 2019, MaxMem=   671088640 cpu:               6.9 elap:               0.4
 (Enter /shared/centos7/gaussian/g16/l303.exe)
 DipDrv:  MaxL=1.
 Leave Link  303 at Mon Mar 11 15:40:53 2019, MaxMem=   671088640 cpu:               0.6 elap:               0.1
 (Enter /shared/centos7/gaussian/g16/l401.exe)
 ExpMin= 4.38D-02 ExpMax= 8.59D+03 ExpMxC= 1.30D+03 IAcc=3 IRadAn=         5 AccDes= 0.00D+00
 Harris functional with IExCor= 1009 and IRadAn=       5 diagonalized for initial guess.
 HarFok:  IExCor= 1009 AccDes= 0.00D+00 IRadAn=         5 IDoV= 1 UseB2=F ITyADJ=14
 ICtDFT=  3500011 ScaDFX=  1.000000  1.000000  1.000000  1.000000
 FoFCou: FMM=F IPFlag=           0 FMFlag=      100000 FMFlg1=           0
         NFxFlg=           0 DoJE=T BraDBF=F KetDBF=T FulRan=T
         wScrn=  0.000000 ICntrl=       500 IOpCl=  0 I1Cent=   200000004 NGrid=           0
         NMat0=    1 NMatS0=      1 NMatT0=    0 NMatD0=    1 NMtDS0=    0 NMtDT0=    0
 Petite list used in FoFCou.
 Harris En= -194.272793833535    
 JPrj=0 DoOrth=F DoCkMO=F.
 Initial guess orbital symmetries:
       Occupied  (A') (A') (A') (A') (A') (A') (A') (A') (A') (A")
                 (A') (A") (A') (A') (A") (A') (A")
       Virtual   (A') (A') (A') (A") (A') (A') (A') (A") (A') (A')
                 (A") (A") (A') (A") (A') (A') (A") (A') (A') (A')
                 (A') (A') (A') (A") (A') (A') (A') (A") (A') (A")
                 (A') (A') (A") (A') (A") (A') (A") (A') (A") (A')
                 (A') (A") (A') (A') (A') (A') (A") (A') (A") (A')
                 (A') (A") (A') (A") (A') (A') (A") (A") (A') (A")
                 (A') (A") (A') (A") (A') (A") (A') (A') (A') (A")
                 (A') (A') (A") (A') (A') (A") (A') (A") (A') (A")
                 (A") (A') (A') (A') (A') (A') (A") (A') (A') (A')
                 (A") (A') (A") (A') (A') (A") (A") (A') (A') (A")
                 (A') (A') (A') (A') (A") (A') (A") (A") (A") (A')
                 (A') (A') (A") (A') (A") (A') (A") (A') (A") (A")
                 (A') (A') (A') (A") (A") (A') (A") (A') (A') (A")
                 (A') (A') (A") (A') (A') (A") (A') (A") (A') (A')
                 (A') (A") (A') (A') (A") (A') (A') (A") (A") (A')
                 (A") (A') (A') (A') (A') (A") (A") (A') (A") (A")
                 (A') (A') (A") (A') (A') (A") (A') (A") (A') (A')
                 (A') (A') (A") (A') (A") (A') (A") (A") (A") (A')
                 (A') (A') (A") (A') (A") (A') (A') (A') (A') (A')
                 (A')
 The electronic state of the initial guess is 1-A'.
 Leave Link  401 at Mon Mar 11 15:40:54 2019, MaxMem=   671088640 cpu:              16.0 elap:               0.8
 (Enter /shared/centos7/gaussian/g16/l502.exe)
 Keep R1 ints in memory in symmetry-blocked form, NReq=355207208.
 FoFCou: FMM=F IPFlag=           0 FMFlag=           0 FMFlg1=           0
         NFxFlg=           0 DoJE=F BraDBF=F KetDBF=F FulRan=T
         wScrn=  0.000000 ICntrl=       600 IOpCl=  0 I1Cent=           0 NGrid=           0
         NMat0=    1 NMatS0=  21736 NMatT0=    0 NMatD0=    1 NMtDS0=    0 NMtDT0=    0
 Petite list used in FoFCou.
 Closed shell SCF:
 Using DIIS extrapolation, IDIIS=  1040.
 NGot=   671088640 LenX=   552009815 LenY=   551957390
 Requested convergence on RMS density matrix=1.00D-08 within 128 cycles.
 Requested convergence on MAX density matrix=1.00D-06.
 Requested convergence on             energy=1.00D-06.
 No special actions if energy rises.

 Cycle   1  Pass 1  IDiag  1:
 E= -194.165627535070    
 DIIS: error= 2.96D-02 at cycle   1 NSaved=   1.
 NSaved= 1 IEnMin= 1 EnMin= -194.165627535070     IErMin= 1 ErrMin= 2.96D-02
 ErrMax= 2.96D-02  0.00D+00 EMaxC= 1.00D-01 BMatC= 1.79D-01 BMatP= 1.79D-01
 IDIUse=3 WtCom= 7.04D-01 WtEn= 2.96D-01
 Coeff-Com:  0.100D+01
 Coeff-En:   0.100D+01
 Coeff:      0.100D+01
 Gap=     0.323 Goal=   None    Shift=    0.000
 GapD=    0.323 DampG=1.000 DampE=0.500 DampFc=0.5000 IDamp=-1.
 Damping current iteration by 5.00D-01
 RMSDP=2.33D-03 MaxDP=1.12D-01              OVMax= 1.50D-01

 Cycle   2  Pass 1  IDiag  1:
 E= -194.243423502360     Delta-E=       -0.077795967290 Rises=F Damp=T
 DIIS: error= 5.81D-03 at cycle   2 NSaved=   2.
 NSaved= 2 IEnMin= 2 EnMin= -194.243423502360     IErMin= 2 ErrMin= 5.81D-03
 ErrMax= 5.81D-03  0.00D+00 EMaxC= 1.00D-01 BMatC= 1.20D-02 BMatP= 1.79D-01
 IDIUse=3 WtCom= 9.42D-01 WtEn= 5.81D-02
 Coeff-Com: -0.133D+00 0.113D+01
 Coeff-En:   0.000D+00 0.100D+01
 Coeff:     -0.126D+00 0.113D+01
 Gap=     0.368 Goal=   None    Shift=    0.000
 RMSDP=6.03D-04 MaxDP=1.14D-02 DE=-7.78D-02 OVMax= 7.44D-02

 Cycle   3  Pass 1  IDiag  1:
 E= -194.313668917053     Delta-E=       -0.070245414693 Rises=F Damp=F
 DIIS: error= 3.41D-03 at cycle   3 NSaved=   3.
 NSaved= 3 IEnMin= 3 EnMin= -194.313668917053     IErMin= 3 ErrMin= 3.41D-03
 ErrMax= 3.41D-03  0.00D+00 EMaxC= 1.00D-01 BMatC= 2.57D-03 BMatP= 1.20D-02
 IDIUse=3 WtCom= 9.66D-01 WtEn= 3.41D-02
 Coeff-Com: -0.847D-01 0.340D+00 0.745D+00
 Coeff-En:   0.000D+00 0.000D+00 0.100D+01
 Coeff:     -0.818D-01 0.328D+00 0.753D+00
 Gap=     0.345 Goal=   None    Shift=    0.000
 RMSDP=1.77D-04 MaxDP=9.93D-03 DE=-7.02D-02 OVMax= 1.46D-02

 Cycle   4  Pass 1  IDiag  1:
 E= -194.315003611023     Delta-E=       -0.001334693970 Rises=F Damp=F
 DIIS: error= 1.69D-03 at cycle   4 NSaved=   4.
 NSaved= 4 IEnMin= 4 EnMin= -194.315003611023     IErMin= 4 ErrMin= 1.69D-03
 ErrMax= 1.69D-03  0.00D+00 EMaxC= 1.00D-01 BMatC= 8.11D-04 BMatP= 2.57D-03
 IDIUse=3 WtCom= 9.83D-01 WtEn= 1.69D-02
 Coeff-Com: -0.302D-01 0.802D-01 0.393D+00 0.557D+00
 Coeff-En:   0.000D+00 0.000D+00 0.196D+00 0.804D+00
 Coeff:     -0.297D-01 0.789D-01 0.390D+00 0.561D+00
 Gap=     0.350 Goal=   None    Shift=    0.000
 RMSDP=6.89D-05 MaxDP=4.18D-03 DE=-1.33D-03 OVMax= 4.96D-03

 Cycle   5  Pass 1  IDiag  1:
 E= -194.315555508774     Delta-E=       -0.000551897751 Rises=F Damp=F
 DIIS: error= 2.38D-04 at cycle   5 NSaved=   5.
 NSaved= 5 IEnMin= 5 EnMin= -194.315555508774     IErMin= 5 ErrMin= 2.38D-04
 ErrMax= 2.38D-04  0.00D+00 EMaxC= 1.00D-01 BMatC= 8.89D-06 BMatP= 8.11D-04
 IDIUse=3 WtCom= 9.98D-01 WtEn= 2.38D-03
 Coeff-Com: -0.301D-02 0.467D-02 0.688D-01 0.153D+00 0.776D+00
 Coeff-En:   0.000D+00 0.000D+00 0.000D+00 0.000D+00 0.100D+01
 Coeff:     -0.300D-02 0.466D-02 0.687D-01 0.153D+00 0.777D+00
 Gap=     0.350 Goal=   None    Shift=    0.000
 RMSDP=1.22D-05 MaxDP=3.67D-04 DE=-5.52D-04 OVMax= 6.26D-04

 Cycle   6  Pass 1  IDiag  1:
 E= -194.315561741041     Delta-E=       -0.000006232268 Rises=F Damp=F
 DIIS: error= 4.69D-05 at cycle   6 NSaved=   6.
 NSaved= 6 IEnMin= 6 EnMin= -194.315561741041     IErMin= 6 ErrMin= 4.69D-05
 ErrMax= 4.69D-05  0.00D+00 EMaxC= 1.00D-01 BMatC= 6.02D-07 BMatP= 8.89D-06
 IDIUse=1 WtCom= 1.00D+00 WtEn= 0.00D+00
 Coeff-Com:  0.351D-03-0.178D-02 0.783D-02 0.337D-01 0.268D+00 0.692D+00
 Coeff:      0.351D-03-0.178D-02 0.783D-02 0.337D-01 0.268D+00 0.692D+00
 Gap=     0.350 Goal=   None    Shift=    0.000
 RMSDP=2.89D-06 MaxDP=1.73D-04 DE=-6.23D-06 OVMax= 1.96D-04

 Cycle   7  Pass 1  IDiag  1:
 E= -194.315562265503     Delta-E=       -0.000000524462 Rises=F Damp=F
 DIIS: error= 1.90D-05 at cycle   7 NSaved=   7.
 NSaved= 7 IEnMin= 7 EnMin= -194.315562265503     IErMin= 7 ErrMin= 1.90D-05
 ErrMax= 1.90D-05  0.00D+00 EMaxC= 1.00D-01 BMatC= 5.16D-08 BMatP= 6.02D-07
 IDIUse=1 WtCom= 1.00D+00 WtEn= 0.00D+00
 Coeff-Com:  0.580D-03-0.125D-02-0.791D-02-0.108D-01-0.327D-01 0.198D+00
 Coeff-Com:  0.854D+00
 Coeff:      0.580D-03-0.125D-02-0.791D-02-0.108D-01-0.327D-01 0.198D+00
 Coeff:      0.854D+00
 Gap=     0.350 Goal=   None    Shift=    0.000
 RMSDP=1.38D-06 MaxDP=4.75D-05 DE=-5.24D-07 OVMax= 6.62D-05

 Cycle   8  Pass 1  IDiag  1:
 E= -194.315562316407     Delta-E=       -0.000000050904 Rises=F Damp=F
 DIIS: error= 1.98D-06 at cycle   8 NSaved=   8.
 NSaved= 8 IEnMin= 8 EnMin= -194.315562316407     IErMin= 8 ErrMin= 1.98D-06
 ErrMax= 1.98D-06  0.00D+00 EMaxC= 1.00D-01 BMatC= 4.42D-10 BMatP= 5.16D-08
 IDIUse=1 WtCom= 1.00D+00 WtEn= 0.00D+00
 Coeff-Com:  0.360D-04-0.738D-04-0.976D-03-0.176D-02-0.838D-02 0.285D-02
 Coeff-Com:  0.753D-01 0.933D+00
 Coeff:      0.360D-04-0.738D-04-0.976D-03-0.176D-02-0.838D-02 0.285D-02
 Coeff:      0.753D-01 0.933D+00
 Gap=     0.350 Goal=   None    Shift=    0.000
 RMSDP=2.01D-07 MaxDP=6.25D-06 DE=-5.09D-08 OVMax= 1.06D-05

 Cycle   9  Pass 1  IDiag  1:
 E= -194.315562317015     Delta-E=       -0.000000000608 Rises=F Damp=F
 DIIS: error= 3.27D-07 at cycle   9 NSaved=   9.
 NSaved= 9 IEnMin= 9 EnMin= -194.315562317015     IErMin= 9 ErrMin= 3.27D-07
 ErrMax= 3.27D-07  0.00D+00 EMaxC= 1.00D-01 BMatC= 2.99D-11 BMatP= 4.42D-10
 IDIUse=1 WtCom= 1.00D+00 WtEn= 0.00D+00
 Coeff-Com: -0.223D-04 0.477D-04 0.209D-03 0.251D-03 0.685D-03-0.808D-02
 Coeff-Com: -0.312D-01 0.138D+00 0.900D+00
 Coeff:     -0.223D-04 0.477D-04 0.209D-03 0.251D-03 0.685D-03-0.808D-02
 Coeff:     -0.312D-01 0.138D+00 0.900D+00
 Gap=     0.350 Goal=   None    Shift=    0.000
 RMSDP=5.04D-08 MaxDP=1.28D-06 DE=-6.08D-10 OVMax= 2.53D-06

 Cycle  10  Pass 1  IDiag  1:
 E= -194.315562317053     Delta-E=       -0.000000000038 Rises=F Damp=F
 DIIS: error= 8.16D-08 at cycle  10 NSaved=  10.
 NSaved=10 IEnMin=10 EnMin= -194.315562317053     IErMin=10 ErrMin= 8.16D-08
 ErrMax= 8.16D-08  0.00D+00 EMaxC= 1.00D-01 BMatC= 1.82D-12 BMatP= 2.99D-11
 IDIUse=1 WtCom= 1.00D+00 WtEn= 0.00D+00
 Coeff-Com: -0.390D-05 0.897D-05 0.570D-04 0.856D-04 0.370D-03-0.147D-02
 Coeff-Com: -0.800D-02-0.223D-02 0.180D+00 0.831D+00
 Coeff:     -0.390D-05 0.897D-05 0.570D-04 0.856D-04 0.370D-03-0.147D-02
 Coeff:     -0.800D-02-0.223D-02 0.180D+00 0.831D+00
 Gap=     0.350 Goal=   None    Shift=    0.000
 RMSDP=8.59D-09 MaxDP=3.53D-07 DE=-3.82D-11 OVMax= 6.06D-07

 SCF Done:  E(RM062X) =  -194.315562317     A.U. after   10 cycles
            NFock= 10  Conv=0.86D-08     -V/T= 2.0039
 KE= 1.935634418066D+02 PE=-7.216200673657D+02 EE= 1.995820838830D+02
 Leave Link  502 at Mon Mar 11 15:41:06 2019, MaxMem=   671088640 cpu:             225.2 elap:              12.5
 (Enter /shared/centos7/gaussian/g16/l801.exe)
 DoSCS=F DFT=T ScalE2(SS,OS)=  1.000000  1.000000
 Range of M.O.s used for correlation:     1   208
 NBasis=   208 NAE=    17 NBE=    17 NFC=     0 NFV=     0
 NROrb=    208 NOA=    17 NOB=    17 NVA=   191 NVB=   191

 **** Warning!!: The largest alpha MO coefficient is  0.38072808D+02

 Leave Link  801 at Mon Mar 11 15:41:07 2019, MaxMem=   671088640 cpu:               0.6 elap:               0.1
 (Enter /shared/centos7/gaussian/g16/l1101.exe)
 Using compressed storage, NAtomX=    12.
 Will process     13 centers per pass.
 Leave Link 1101 at Mon Mar 11 15:41:07 2019, MaxMem=   671088640 cpu:               7.3 elap:               0.4
 (Enter /shared/centos7/gaussian/g16/l1102.exe)
 Symmetrizing basis deriv contribution to polar:
 IMax=3 JMax=2 DiffMx= 0.00D+00
 Leave Link 1102 at Mon Mar 11 15:41:07 2019, MaxMem=   671088640 cpu:               0.8 elap:               0.1
 (Enter /shared/centos7/gaussian/g16/l1110.exe)
 Forming Gx(P) for the SCF density, NAtomX=    12.
 Integral derivatives from FoFJK, PRISM(SPDF).
 Do as many integral derivatives as possible in FoFJK.
 G2DrvN: MDV=     671087640.
 G2DrvN: will do    13 centers at a time, making    1 passes.
 Calling FoFCou, ICntrl=  3107 FMM=F I1Cent=   0 AccDes= 0.00D+00.
 FoFJK:  IHMeth= 1 ICntrl=    3107 DoSepK=F KAlg= 0 I1Cent=           0 FoldK=F
 IRaf=         0 NMat=       1 IRICut=       1 DoRegI=T DoRafI=F ISym2E= 1 IDoP0=0 IntGTp=1.
 FoFCou: FMM=F IPFlag=           0 FMFlag=      100000 FMFlg1=           0
         NFxFlg=           0 DoJE=F BraDBF=F KetDBF=F FulRan=T
         wScrn=  0.000000 ICntrl=      3107 IOpCl=  0 I1Cent=           0 NGrid=           0
         NMat0=    1 NMatS0=      1 NMatT0=    0 NMatD0=    1 NMtDS0=    0 NMtDT0=    0
 Petite list used in FoFCou.
 End of G2Drv F.D. properties file   721 does not exist.
 End of G2Drv F.D. properties file   722 does not exist.
 End of G2Drv F.D. properties file   788 does not exist.
 Leave Link 1110 at Mon Mar 11 15:41:34 2019, MaxMem=   671088640 cpu:             545.1 elap:              27.3
 (Enter /shared/centos7/gaussian/g16/l1002.exe)
 Minotr:  Closed shell wavefunction.
          IDoAtm=111111111111
          Direct CPHF calculation.
          Differentiating once with respect to nuclear coordinates.
          Using symmetry in CPHF.
          Requested convergence is 1.0D-08 RMS, and 1.0D-07 maximum.
          Secondary convergence is 1.0D-12 RMS, and 1.0D-12 maximum.
          NewPWx=T KeepS1=F KeepF1=F KeepIn=T MapXYZ=F SortEE=F KeepMc=T.
         3654 words used for storage of precomputed grid.
 Keep R1 ints in memory in symmetry-blocked form, NReq=355212614.
 FoFCou: FMM=F IPFlag=           0 FMFlag=           0 FMFlg1=           0
         NFxFlg=           0 DoJE=F BraDBF=F KetDBF=F FulRan=T
         wScrn=  0.000000 ICntrl=       600 IOpCl=  0 I1Cent=           0 NGrid=           0
         NMat0=    1 NMatS0=  21736 NMatT0=    0 NMatD0=    1 NMtDS0=    0 NMtDT0=    0
 Petite list used in FoFCou.
          MDV=     671088640 using IRadAn=       1.
          Solving linear equations simultaneously, MaxMat=       0.
          There are    30 degrees of freedom in the 1st order CPHF.  IDoFFX=4 NUNeed=    30.
     27 vectors produced by pass  0 Test12= 1.08D-14 3.33D-09 XBig12= 5.83D-02 6.03D-02.
 AX will form    27 AO Fock derivatives at one time.
     27 vectors produced by pass  1 Test12= 1.08D-14 3.33D-09 XBig12= 2.36D-03 1.27D-02.
     27 vectors produced by pass  2 Test12= 1.08D-14 3.33D-09 XBig12= 1.17D-04 2.03D-03.
     27 vectors produced by pass  3 Test12= 1.08D-14 3.33D-09 XBig12= 1.04D-06 2.10D-04.
     27 vectors produced by pass  4 Test12= 1.08D-14 3.33D-09 XBig12= 7.45D-09 1.62D-05.
     27 vectors produced by pass  5 Test12= 1.08D-14 3.33D-09 XBig12= 4.62D-11 1.28D-06.
     15 vectors produced by pass  6 Test12= 1.08D-14 3.33D-09 XBig12= 2.00D-13 6.24D-08.
      1 vectors produced by pass  7 Test12= 1.08D-14 3.33D-09 XBig12= 8.13D-16 4.04D-09.
 InvSVY:  IOpt=1 It=  1 EMax= 1.11D-16
 Solved reduced A of dimension   178 with    30 vectors.
 FullF1:  Do perturbations      4 to      30.
 End of Minotr F.D. properties file   721 does not exist.
 End of Minotr F.D. properties file   722 does not exist.
 End of Minotr F.D. properties file   788 does not exist.
 Leave Link 1002 at Mon Mar 11 15:42:38 2019, MaxMem=   671088640 cpu:            1267.9 elap:              63.7
 (Enter /shared/centos7/gaussian/g16/l601.exe)
 Copying SCF densities to generalized density rwf, IOpCl= 0 IROHF=0.

 **********************************************************************

            Population analysis using the SCF density.

 **********************************************************************

 Orbital symmetries:
       Occupied  (A') (A') (A') (A') (A') (A') (A') (A') (A") (A')
                 (A') (A") (A') (A') (A") (A') (A")
       Virtual   (A') (A') (A') (A") (A') (A') (A") (A') (A') (A")
                 (A') (A') (A") (A') (A") (A') (A') (A") (A') (A')
                 (A') (A") (A') (A') (A') (A') (A') (A") (A") (A')
                 (A') (A") (A') (A') (A") (A") (A') (A") (A') (A')
                 (A") (A') (A') (A') (A') (A') (A") (A') (A") (A')
                 (A') (A') (A") (A") (A') (A') (A") (A") (A') (A")
                 (A') (A') (A") (A") (A') (A') (A") (A') (A") (A')
                 (A') (A') (A") (A') (A') (A") (A') (A') (A") (A")
                 (A") (A') (A') (A') (A') (A') (A") (A') (A') (A')
                 (A") (A') (A") (A') (A') (A") (A") (A') (A') (A")
                 (A') (A') (A') (A') (A") (A') (A") (A") (A") (A')
                 (A') (A') (A") (A') (A") (A') (A") (A') (A") (A")
                 (A') (A') (A') (A") (A") (A') (A') (A") (A') (A")
                 (A') (A') (A") (A') (A') (A") (A') (A") (A') (A')
                 (A') (A") (A') (A') (A") (A') (A') (A") (A") (A')
                 (A") (A') (A') (A') (A') (A") (A") (A') (A") (A")
                 (A') (A') (A") (A') (A') (A') (A") (A") (A') (A')
                 (A') (A") (A') (A") (A') (A") (A') (A") (A") (A')
                 (A') (A') (A") (A') (A") (A') (A') (A') (A') (A')
                 (A')
 The electronic state is 1-A'.
 Alpha  occ. eigenvalues --  -19.62202 -10.57944 -10.57356 -10.52191  -1.16025
 Alpha  occ. eigenvalues --   -0.86131  -0.76608  -0.69404  -0.56380  -0.56068
 Alpha  occ. eigenvalues --   -0.52856  -0.48994  -0.44915  -0.42470  -0.41738
 Alpha  occ. eigenvalues --   -0.38932  -0.33087
 Alpha virt. eigenvalues --    0.01886   0.03050   0.04216   0.04357   0.05576
 Alpha virt. eigenvalues --    0.07100   0.07353   0.08626   0.09775   0.09970
 Alpha virt. eigenvalues --    0.13210   0.14348   0.18373   0.19233   0.19538
 Alpha virt. eigenvalues --    0.21274   0.22106   0.22553   0.24400   0.25307
 Alpha virt. eigenvalues --    0.26563   0.28552   0.28808   0.29442   0.30438
 Alpha virt. eigenvalues --    0.35366   0.37701   0.41805   0.44312   0.44502
 Alpha virt. eigenvalues --    0.47880   0.51037   0.51276   0.51582   0.54663
 Alpha virt. eigenvalues --    0.55917   0.56301   0.56817   0.57798   0.59170
 Alpha virt. eigenvalues --    0.60943   0.62572   0.64636   0.67266   0.68512
 Alpha virt. eigenvalues --    0.70120   0.74960   0.78103   0.81542   0.86493
 Alpha virt. eigenvalues --    0.87443   0.90188   0.90706   0.91950   0.97229
 Alpha virt. eigenvalues --    0.99977   1.05278   1.06085   1.07760   1.08789
 Alpha virt. eigenvalues --    1.11125   1.13968   1.14194   1.16603   1.17758
 Alpha virt. eigenvalues --    1.20277   1.21545   1.22556   1.25562   1.26282
 Alpha virt. eigenvalues --    1.28306   1.32262   1.33011   1.36628   1.39762
 Alpha virt. eigenvalues --    1.41109   1.41629   1.43377   1.44257   1.44824
 Alpha virt. eigenvalues --    1.48184   1.49007   1.51181   1.52096   1.57300
 Alpha virt. eigenvalues --    1.59602   1.60369   1.61703   1.74763   1.81313
 Alpha virt. eigenvalues --    2.03061   2.05789   2.10890   2.22058   2.37212
 Alpha virt. eigenvalues --    2.37604   2.46523   2.47060   2.48709   2.58338
 Alpha virt. eigenvalues --    2.61072   2.64431   2.70004   2.80311   2.85479
 Alpha virt. eigenvalues --    2.87944   2.96688   2.97731   3.03004   3.06524
 Alpha virt. eigenvalues --    3.08457   3.09232   3.10575   3.13849   3.14324
 Alpha virt. eigenvalues --    3.17146   3.17183   3.20627   3.26909   3.32812
 Alpha virt. eigenvalues --    3.35382   3.36010   3.37968   3.39262   3.41925
 Alpha virt. eigenvalues --    3.43901   3.50808   3.51691   3.55505   3.57364
 Alpha virt. eigenvalues --    3.60732   3.65962   3.66109   3.70851   3.76355
 Alpha virt. eigenvalues --    3.81108   3.82268   3.87013   3.88467   3.91979
 Alpha virt. eigenvalues --    3.95010   3.98818   4.02755   4.05839   4.08061
 Alpha virt. eigenvalues --    4.10503   4.14304   4.17675   4.20597   4.22167
 Alpha virt. eigenvalues --    4.22433   4.23954   4.25678   4.29095   4.31390
 Alpha virt. eigenvalues --    4.34280   4.40411   4.43181   4.48011   4.50097
 Alpha virt. eigenvalues --    4.51963   4.55865   4.57175   4.64916   4.91625
 Alpha virt. eigenvalues --    5.13091   5.21130   5.24771   5.31374   5.41948
 Alpha virt. eigenvalues --    5.50020   5.51822   5.56581   5.58947   5.59341
 Alpha virt. eigenvalues --    5.65827   5.66807   5.84008   5.87953   6.24394
 Alpha virt. eigenvalues --    6.47906   6.72463   7.19389   7.20272   7.32244
 Alpha virt. eigenvalues --    7.68703   7.76602  24.36532  24.43885  24.49307
 Alpha virt. eigenvalues --   50.17624
          Condensed to atoms (all electrons):
               1          2          3          4          5          6
     1  O    8.296468   0.094335  -0.094848   0.123202  -0.052688  -0.052688
     2  C    0.094335   5.080778   0.318960  -0.088761   0.445032   0.445032
     3  C   -0.094848   0.318960   5.082151  -0.030482  -0.046099  -0.046099
     4  C    0.123202  -0.088761  -0.030482   4.940090   0.002050   0.002050
     5  H   -0.052688   0.445032  -0.046099   0.002050   0.574487  -0.055376
     6  H   -0.052688   0.445032  -0.046099   0.002050  -0.055376   0.574487
     7  H   -0.002764  -0.029691   0.405501   0.000066  -0.008222   0.006689
     8  H    0.011817  -0.036070   0.416247   0.001014  -0.003921  -0.003921
     9  H   -0.002764  -0.029691   0.405501   0.000066   0.006689  -0.008222
    10  H   -0.048702  -0.003703  -0.003032   0.437647   0.008175  -0.003659
    11  H   -0.048702  -0.003703  -0.003032   0.437647  -0.003659   0.008175
    12  H   -0.055769   0.012263   0.002138   0.425881   0.000049   0.000049
               7          8          9         10         11         12
     1  O   -0.002764   0.011817  -0.002764  -0.048702  -0.048702  -0.055769
     2  C   -0.029691  -0.036070  -0.029691  -0.003703  -0.003703   0.012263
     3  C    0.405501   0.416247   0.405501  -0.003032  -0.003032   0.002138
     4  C    0.000066   0.001014   0.000066   0.437647   0.437647   0.425881
     5  H   -0.008222  -0.003921   0.006689   0.008175  -0.003659   0.000049
     6  H    0.006689  -0.003921  -0.008222  -0.003659   0.008175   0.000049
     7  H    0.544553  -0.027210  -0.030257  -0.000029  -0.000009   0.000010
     8  H   -0.027210   0.543357  -0.027210   0.000011   0.000011   0.000016
     9  H   -0.030257  -0.027210   0.544553  -0.000009  -0.000029   0.000010
    10  H   -0.000029   0.000011  -0.000009   0.579496  -0.053051  -0.025859
    11  H   -0.000009   0.000011  -0.000029  -0.053051   0.579496  -0.025859
    12  H    0.000010   0.000016   0.000010  -0.025859  -0.025859   0.538993
 Mulliken charges:
               1
     1  O   -0.166898
     2  C   -0.204782
     3  C   -0.406907
     4  C   -0.250471
     5  H    0.133484
     6  H    0.133484
     7  H    0.141362
     8  H    0.125858
     9  H    0.141362
    10  H    0.112714
    11  H    0.112714
    12  H    0.128080
 Sum of Mulliken charges =   0.00000
 Mulliken charges with hydrogens summed into heavy atoms:
               1
     1  O   -0.166898
     2  C    0.062185
     3  C    0.001675
     4  C    0.103038
 APT charges:
               1
     1  O   -0.070424
     2  C   -0.574954
     3  C   -1.139729
     4  C   -1.172921
     5  H    0.333330
     6  H    0.333330
     7  H    0.331780
     8  H    0.471316
     9  H    0.331780
    10  H    0.336843
    11  H    0.336843
    12  H    0.482807
 Sum of APT charges =   0.00000
 APT charges with hydrogens summed into heavy atoms:
               1
     1  O   -0.070424
     2  C    0.091706
     3  C   -0.004852
     4  C   -0.016429
 Electronic spatial extent (au):  <R**2>=            366.6228
 Charge=              0.0000 electrons
 Dipole moment (field-independent basis, Debye):
    X=              0.9828    Y=              0.7743    Z=              0.0000  Tot=              1.2512
 Quadrupole moment (field-independent basis, Debye-Ang):
   XX=            -25.8521   YY=            -25.9121   ZZ=            -26.7052
   XY=             -1.8454   XZ=             -0.0000   YZ=             -0.0000
 Traceless Quadrupole moment (field-independent basis, Debye-Ang):
   XX=              0.3044   YY=              0.2444   ZZ=             -0.5487
   XY=             -1.8454   XZ=             -0.0000   YZ=             -0.0000
 Octapole moment (field-independent basis, Debye-Ang**2):
  XXX=              0.6942  YYY=             -5.1725  ZZZ=              0.0000  XYY=              2.2546
  XXY=             -2.3773  XXZ=              0.0000  XZZ=              0.3075  YZZ=             -0.4871
  YYZ=              0.0000  XYZ=             -0.0000
 Hexadecapole moment (field-independent basis, Debye-Ang**3):
 XXXX=           -237.3343 YYYY=           -206.0118 ZZZZ=            -48.7810 XXXY=             78.1893
 XXXZ=              0.0000 YYYX=             72.2081 YYYZ=             -0.0000 ZZZX=             -0.0000
 ZZZY=             -0.0000 XXYY=            -76.0302 XXZZ=            -44.4292 YYZZ=            -47.1133
 XXYZ=             -0.0000 YYXZ=              0.0000 ZZXY=             26.6849
 N-N= 1.341589793590D+02 E-N=-7.216200608595D+02  KE= 1.935634418066D+02
 Symmetry A'   KE= 1.829074557226D+02
 Symmetry A"   KE= 1.065598608399D+01
  Exact polarizability:   0.000   0.000   0.000   0.000   0.000   0.000
 Approx polarizability:  48.440  -0.777  48.929   0.000   0.000  46.114
 No NMR shielding tensors so no spin-rotation constants.
 Leave Link  601 at Mon Mar 11 15:42:38 2019, MaxMem=   671088640 cpu:               6.4 elap:               0.4
 (Enter /shared/centos7/gaussian/g16/l701.exe)
 SCFChk:  SCF convergence  8.59D-09 required  1.00D-08
 ... and contract with generalized density number  0.
 Compute integral second derivatives.
 Entering OneElI...
 Calculate overlap and kinetic energy integrals
    NBasis = 228  MinDer = 2  MaxDer = 2
 Requested accuracy = 0.1000D-12
 PrmmSu-InSpLW:  IPartL=    0 NPrtUS=   20 NPrtUL=    1 DoSpLW=F IThBeg=    0 IThEnd=   19 NThAct=   20.
 PrsmSu:  NPrtUS=  20 ThrOK=T IAlg=1 NPAlg=1 LenDen=           0 ISkipM=0 DoSpLW=F IThBeg=    0 IThEnd=   19.
 Prism:   IPart=     0 DynPar=F LinDyn=F Incr=           1.
 PRISM was handed    33484771 working-precision words and  2627 shell-pairs
 PRISM was handed    33484771 working-precision words and  2627 shell-pairs
 PRISM was handed    33484771 working-precision words and  2627 shell-pairs
 PRISM was handed    33484771 working-precision words and  2627 shell-pairs
 PRISM was handed    33484771 working-precision words and  2627 shell-pairs
 PRISM was handed    33484771 working-precision words and  2627 shell-pairs
 PRISM was handed    33484771 working-precision words and  2627 shell-pairs
 PRISM was handed    33484771 working-precision words and  2627 shell-pairs
 PRISM was handed    33484771 working-precision words and  2627 shell-pairs
 PRISM was handed    33484771 working-precision words and  2627 shell-pairs
 PRISM was handed    33484771 working-precision words and  2627 shell-pairs
 PRISM was handed    33484771 working-precision words and  2627 shell-pairs
 PRISM was handed    33484771 working-precision words and  2627 shell-pairs
 PRISM was handed    33484771 working-precision words and  2627 shell-pairs
 PRISM was handed    33484771 working-precision words and  2627 shell-pairs
 PRISM was handed    33484771 working-precision words and  2627 shell-pairs
 PRISM was handed    33484771 working-precision words and  2627 shell-pairs
 PRISM was handed    33484771 working-precision words and  2627 shell-pairs
 PRISM was handed    33484771 working-precision words and  2627 shell-pairs
 PRISM was handed    33484771 working-precision words and  2627 shell-pairs
 IPart=  5 NShTot=         141 NBatch=          37 AvBLen=         3.8
 IPart=  1 NShTot=         160 NBatch=          53 AvBLen=         3.0
 IPart=  4 NShTot=         143 NBatch=          39 AvBLen=         3.7
 IPart=  2 NShTot=         155 NBatch=          49 AvBLen=         3.2
 IPart=  3 NShTot=         151 NBatch=          45 AvBLen=         3.4
 IPart= 10 NShTot=         128 NBatch=          29 AvBLen=         4.4
 IPart=  7 NShTot=         138 NBatch=          34 AvBLen=         4.1
 IPart= 11 NShTot=         128 NBatch=          29 AvBLen=         4.4
 IPart= 14 NShTot=         118 NBatch=          28 AvBLen=         4.2
 IPart= 15 NShTot=         117 NBatch=          28 AvBLen=         4.2
 IPart= 13 NShTot=         119 NBatch=          28 AvBLen=         4.3
 IPart= 12 NShTot=         119 NBatch=          28 AvBLen=         4.3
 IPart=  0 NShTot=         163 NBatch=          55 AvBLen=         3.0
 IPart=  9 NShTot=         131 NBatch=          31 AvBLen=         4.2
 IPart=  8 NShTot=         131 NBatch=          31 AvBLen=         4.2
 IPart=  6 NShTot=         139 NBatch=          35 AvBLen=         4.0
 IPart= 16 NShTot=         113 NBatch=          26 AvBLen=         4.3
 IPart= 17 NShTot=         112 NBatch=          26 AvBLen=         4.3
 IPart= 19 NShTot=         110 NBatch=          26 AvBLen=         4.2
 IPart= 18 NShTot=         111 NBatch=          26 AvBLen=         4.3
 PrSmSu:  NxtVal=             21.
 Entering OneElI...
 Calculate potential energy integrals
    NBasis = 228  MinDer = 2  MaxDer = 2
 Requested accuracy = 0.1000D-12
 PrmmSu-InSpLW:  IPartL=    0 NPrtUS=   20 NPrtUL=    1 DoSpLW=F IThBeg=    0 IThEnd=   19 NThAct=   20.
 PrsmSu:  NPrtUS=  20 ThrOK=T IAlg=1 NPAlg=1 LenDen=           0 ISkipM=0 DoSpLW=F IThBeg=    0 IThEnd=   19.
 Prism:   IPart=     0 DynPar=F LinDyn=F Incr=          15.
 PRISM was handed    33492778 working-precision words and  2528 shell-pairs
 PRISM was handed    33492778 working-precision words and  2528 shell-pairs
 PRISM was handed    33492778 working-precision words and  2528 shell-pairs
 PRISM was handed    33492778 working-precision words and  2528 shell-pairs
 PRISM was handed    33492778 working-precision words and  2528 shell-pairs
 PRISM was handed    33492778 working-precision words and  2528 shell-pairs
 PRISM was handed    33492778 working-precision words and  2528 shell-pairs
 PRISM was handed    33492778 working-precision words and  2528 shell-pairs
 PRISM was handed    33492778 working-precision words and  2528 shell-pairs
 PRISM was handed    33492778 working-precision words and  2528 shell-pairs
 PRISM was handed    33492778 working-precision words and  2528 shell-pairs
 PRISM was handed    33492778 working-precision words and  2528 shell-pairs
 PRISM was handed    33492778 working-precision words and  2528 shell-pairs
 PRISM was handed    33492778 working-precision words and  2528 shell-pairs
 PRISM was handed    33492778 working-precision words and  2528 shell-pairs
 PRISM was handed    33492778 working-precision words and  2528 shell-pairs
 PRISM was handed    33492778 working-precision words and  2528 shell-pairs
 PRISM was handed    33492778 working-precision words and  2528 shell-pairs
 PRISM was handed    33492778 working-precision words and  2528 shell-pairs
 PRISM was handed    33492778 working-precision words and  2528 shell-pairs
 IPart=  5 NShTot=        1656 NBatch=         138 AvBLen=        12.0
 IPart=  4 NShTot=        1692 NBatch=         141 AvBLen=        12.0
 IPart=  2 NShTot=        1776 NBatch=         148 AvBLen=        12.0
 IPart=  3 NShTot=        1740 NBatch=         145 AvBLen=        12.0
 IPart=  1 NShTot=        1848 NBatch=         154 AvBLen=        12.0
 IPart= 16 NShTot=        1320 NBatch=         110 AvBLen=        12.0
 IPart= 14 NShTot=        1344 NBatch=         112 AvBLen=        12.0
 IPart= 12 NShTot=        1392 NBatch=         116 AvBLen=        12.0
 IPart=  0 NShTot=        1896 NBatch=         158 AvBLen=        12.0
 IPart=  6 NShTot=        1620 NBatch=         135 AvBLen=        12.0
 IPart= 10 NShTot=        1416 NBatch=         118 AvBLen=        12.0
 IPart=  7 NShTot=        1596 NBatch=         133 AvBLen=        12.0
 IPart= 15 NShTot=        1344 NBatch=         112 AvBLen=        12.0
 IPart= 11 NShTot=        1416 NBatch=         118 AvBLen=        12.0
 IPart= 18 NShTot=        1296 NBatch=         108 AvBLen=        12.0
 IPart= 17 NShTot=        1320 NBatch=         110 AvBLen=        12.0
 IPart=  9 NShTot=        1464 NBatch=         122 AvBLen=        12.0
 IPart= 13 NShTot=        1368 NBatch=         114 AvBLen=        12.0
 IPart=  8 NShTot=        1548 NBatch=         129 AvBLen=        12.0
 IPart= 19 NShTot=        1284 NBatch=         107 AvBLen=        12.0
 PrSmSu:  NxtVal=            301.
 Polarizability after L701:
                1             2             3 
      1  0.000000D+00
      2  0.000000D+00  0.000000D+00
      3  0.000000D+00  0.000000D+00  0.000000D+00
 Dipole Derivatives after L701:
                 1             2             3             4             5 
      1   0.556214D-01 -0.716442D-01  0.000000D+00 -0.295307D+00 -0.221461D+00
      2  -0.260682D+00 -0.803776D-01  0.000000D+00 -0.519764D+00 -0.602756D+00
      3   0.000000D+00  0.000000D+00 -0.186517D+00  0.000000D+00  0.000000D+00
                 6             7             8             9            10 
      1   0.000000D+00 -0.125608D+01  0.147807D+00  0.000000D+00 -0.143883D+01
      2   0.000000D+00  0.520809D+00 -0.116328D+01  0.000000D+00  0.641767D+00
      3  -0.826800D+00  0.000000D+00  0.000000D+00 -0.999827D+00  0.000000D+00
                11            12            13            14            15 
      1   0.212753D+00  0.000000D+00  0.225383D+00  0.792207D-01 -0.159166D+00
      2  -0.115954D+01  0.000000D+00  0.190278D+00  0.324490D+00 -0.302363D+00
      3   0.000000D+00 -0.920398D+00 -0.154471D+00 -0.112895D+00  0.450118D+00
                16            17            18            19            20 
      1   0.225383D+00  0.792207D-01  0.159166D+00  0.516639D+00  0.279261D+00
      2   0.190278D+00  0.324490D+00  0.302363D+00 -0.143400D+00  0.142488D-01
      3   0.154471D+00  0.112895D+00  0.450118D+00  0.183364D+00  0.144104D+00
                21            22            23            24            25 
      1   0.658669D+00  0.175586D+00 -0.627699D+00  0.000000D+00  0.516639D+00
      2  -0.239926D+00 -0.775813D-01  0.113767D+01  0.000000D+00 -0.143400D+00
      3   0.464452D+00  0.000000D+00  0.000000D+00  0.100698D+00 -0.183364D+00
                26            27            28            29            30 
      1   0.279261D+00 -0.658669D+00  0.566653D+00  0.196892D+00 -0.566503D+00
      2   0.142488D-01  0.239926D+00 -0.232976D+00 -0.361186D-02  0.267854D+00
      3  -0.144104D+00  0.464452D+00 -0.182901D+00 -0.122782D+00  0.447486D+00
                31            32            33            34            35 
      1   0.566653D+00  0.196892D+00  0.566503D+00  0.141662D+00 -0.550502D+00
      2  -0.232976D+00 -0.361186D-02 -0.267854D+00  0.676485D-01  0.119803D+01
      3   0.182901D+00  0.122782D+00  0.447486D+00  0.000000D+00  0.000000D+00
                36 
      1   0.000000D+00
      2   0.000000D+00
      3   0.108731D+00
 Hessian after L701:
                1             2             3             4             5 
      1  0.630760D+01
      2  0.400975D+01  0.385082D+01
      3  0.000000D+00  0.000000D+00  0.124198D+02
      4 -0.634742D+01 -0.669357D+00  0.000000D+00  0.135573D+02
      5 -0.570798D+00  0.627747D+00  0.000000D+00  0.150424D+01  0.980928D+01
      6  0.000000D+00  0.000000D+00 -0.672941D+01  0.000000D+00  0.000000D+00
      7  0.270959D+00 -0.528624D+00  0.000000D+00 -0.116069D+01 -0.152451D+01
      8 -0.645366D+00  0.361003D+00  0.000000D+00 -0.149360D+01 -0.462541D+01
      9  0.000000D+00  0.000000D+00 -0.235023D+00  0.000000D+00  0.000000D+00
     10 -0.313162D+00 -0.273654D+01  0.000000D+00 -0.486900D-01 -0.247174D+00
     11 -0.274593D+01 -0.508434D+01  0.000000D+00 -0.360877D+00  0.335061D+00
     12  0.000000D+00  0.000000D+00 -0.658838D+01  0.000000D+00  0.000000D+00
     13  0.906848D-01  0.192220D-01 -0.108809D+00 -0.304167D+01  0.545781D+00
     14 -0.117455D-01 -0.119288D+00 -0.156633D+00  0.589079D+00 -0.317063D+01
     15 -0.847726D-01 -0.150590D+00  0.317689D+00 -0.988535D+00 -0.864030D+00
     16  0.906848D-01  0.192220D-01  0.108809D+00 -0.304167D+01  0.545781D+00
     17 -0.117455D-01 -0.119288D+00  0.156633D+00  0.589079D+00 -0.317063D+01
     18  0.847726D-01  0.150590D+00  0.317689D+00  0.988535D+00  0.864030D+00
     19  0.662719D-01 -0.811615D-01  0.256407D-01 -0.776729D-02 -0.678667D-01
     20 -0.529643D-01 -0.517086D-02 -0.598104D-02 -0.123776D-02  0.187573D-01
     21  0.693878D-01 -0.427943D-01 -0.298927D-01  0.321907D-01 -0.226638D-01
     22 -0.166619D-01 -0.924430D-01  0.000000D+00  0.371669D-01  0.380220D-01
     23 -0.108591D+00  0.169304D+00  0.000000D+00 -0.730212D-02  0.218712D-01
     24  0.000000D+00  0.000000D+00 -0.554871D-01  0.000000D+00  0.000000D+00
     25  0.662719D-01 -0.811615D-01 -0.256407D-01 -0.776729D-02 -0.678667D-01
     26 -0.529643D-01 -0.517086D-02  0.598104D-02 -0.123776D-02  0.187573D-01
     27 -0.693878D-01  0.427943D-01 -0.298927D-01 -0.321907D-01  0.226638D-01
     28 -0.653066D-01  0.353040D-01 -0.194560D+00  0.460407D-01 -0.498746D-01
     29  0.868625D-01  0.371340D-01 -0.334791D-01 -0.344776D-01  0.401322D-03
     30 -0.179701D+00 -0.170074D-01  0.294444D+00 -0.569171D-01  0.270585D-01
     31 -0.653066D-01  0.353040D-01  0.194560D+00  0.460407D-01 -0.498746D-01
     32  0.868625D-01  0.371340D-01  0.334791D-01 -0.344776D-01  0.401322D-03
     33  0.179701D+00  0.170074D-01  0.294444D+00  0.569171D-01 -0.270585D-01
     34 -0.846103D-01  0.704843D-01  0.000000D+00 -0.308651D-01 -0.558555D-01
     35  0.166249D-01  0.250123D+00  0.000000D+00 -0.798316D-01  0.134394D+00
     36  0.000000D+00  0.000000D+00  0.240325D-01  0.000000D+00  0.000000D+00
                6             7             8             9            10 
      6  0.163338D+02
      7  0.000000D+00  0.926785D+01
      8  0.000000D+00  0.164954D+01  0.109206D+02
      9 -0.510637D+01  0.000000D+00  0.000000D+00  0.119472D+02
     10  0.000000D+00  0.382264D-01 -0.129429D+00  0.000000D+00  0.871551D+01
     11  0.000000D+00 -0.131885D+00  0.359948D-01  0.000000D+00  0.255445D+01
     12 -0.272542D+00  0.000000D+00  0.000000D+00 -0.103207D+00  0.000000D+00
     13 -0.972932D+00 -0.158255D-02  0.201479D-03  0.210611D-01 -0.310676D-01
     14 -0.921085D+00  0.103220D-01  0.463797D-01 -0.202270D-01 -0.160921D-01
     15 -0.212916D+01 -0.424572D-02 -0.118210D-01  0.620385D-01  0.582928D-02
     16  0.972932D+00 -0.158255D-02  0.201479D-03 -0.210611D-01 -0.310676D-01
     17  0.921085D+00  0.103220D-01  0.463797D-01  0.202270D-01 -0.160921D-01
     18 -0.212916D+01  0.424572D-02  0.118210D-01  0.620385D-01 -0.582928D-02
     19 -0.588017D-02 -0.264946D+01  0.450597D+00  0.978142D+00  0.140977D-01
     20  0.199011D-01  0.354454D+00 -0.296931D+01  0.556908D+00 -0.121498D-01
     21  0.587004D-01  0.881011D+00  0.643564D+00 -0.174231D+01  0.111498D-01
     22  0.000000D+00 -0.313713D+01 -0.239050D+00  0.000000D+00 -0.134980D-02
     23  0.000000D+00 -0.159296D+00 -0.861747D+00  0.000000D+00 -0.100427D-01
     24 -0.412053D-02  0.000000D+00  0.000000D+00 -0.312169D+01  0.000000D+00
     25  0.588017D-02 -0.264946D+01  0.450597D+00 -0.978142D+00  0.140977D-01
     26 -0.199011D-01  0.354454D+00 -0.296931D+01 -0.556908D+00 -0.121498D-01
     27  0.587004D-01 -0.881011D+00 -0.643564D+00 -0.174231D+01 -0.111498D-01
     28 -0.164281D-01  0.117685D-01 -0.152691D-01 -0.725120D-02 -0.251387D+01
     29  0.343350D-02 -0.698571D-02 -0.656937D-02  0.131483D-02  0.315429D+00
     30 -0.148463D-01 -0.117478D-01  0.946090D-02 -0.420647D-02 -0.112649D+01
     31  0.164281D-01  0.117685D-01 -0.152691D-01  0.725120D-02 -0.251387D+01
     32 -0.343350D-02 -0.698571D-02 -0.656937D-02 -0.131483D-02  0.315429D+00
     33 -0.148463D-01  0.117478D-01 -0.946090D-02 -0.420647D-02  0.112649D+01
     34  0.000000D+00 -0.669825D-03 -0.131604D-01  0.000000D+00 -0.332885D+01
     35  0.000000D+00 -0.208102D-01  0.285639D-01  0.000000D+00 -0.563514D-02
     36 -0.507677D-01  0.000000D+00  0.000000D+00 -0.119581D-01  0.000000D+00
               11            12            13            14            15 
     11  0.120722D+02
     12  0.000000D+00  0.140900D+02
     13 -0.487816D-02 -0.145427D-04  0.283104D+01
     14  0.446698D-01 -0.300284D-01 -0.551218D+00  0.302007D+01
     15 -0.619348D-01 -0.120935D-01  0.111484D+01  0.111417D+01  0.199139D+01
     16 -0.487816D-02  0.145425D-04  0.154077D+00  0.465739D-02 -0.200235D-03
     17  0.446698D-01  0.300284D-01  0.465739D-02  0.150457D+00 -0.119571D-01
     18  0.619348D-01 -0.120935D-01  0.200235D-03  0.119571D-01 -0.239433D+00
     19 -0.185629D-01  0.918120D-02 -0.313834D-01 -0.545049D-02 -0.385563D-02
     20 -0.636195D-02 -0.180256D-02 -0.226392D-02  0.141553D-01 -0.245174D-02
     21 -0.810454D-02 -0.715415D-02  0.426442D-02  0.463323D-02  0.839763D-02
     22 -0.115261D-01  0.000000D+00 -0.286700D-02  0.643202D-02  0.379739D-03
     23  0.162203D-01  0.000000D+00 -0.477821D-02 -0.322481D-02  0.948337D-02
     24  0.000000D+00 -0.967510D-02  0.268069D-02 -0.280733D-02  0.243738D-02
     25 -0.185629D-01 -0.918120D-02  0.429472D-01  0.188053D-01 -0.550816D-01
     26 -0.636195D-02  0.180256D-02  0.104018D-01 -0.173289D-01 -0.699794D-02
     27  0.810454D-02 -0.715415D-02 -0.528223D-01 -0.122701D-01  0.266784D-01
     28  0.411319D+00 -0.120430D+01 -0.503124D-02 -0.451286D-01  0.129181D-01
     29 -0.325296D+01 -0.400163D+00 -0.255095D-01  0.248583D-01 -0.733638D-02
     30 -0.484926D+00 -0.187756D+01 -0.143053D-02  0.137590D-01 -0.331539D-01
     31  0.411319D+00  0.120430D+01 -0.261441D-02  0.213113D-02  0.174384D-02
     32 -0.325296D+01  0.400163D+00  0.487854D-02 -0.548645D-02  0.698893D-02
     33  0.484926D+00 -0.187756D+01 -0.685869D-02  0.115605D-02  0.615687D-02
     34 -0.799892D-01  0.000000D+00 -0.253580D-02 -0.179259D-02  0.981405D-03
     35 -0.945867D+00  0.000000D+00  0.350575D-02  0.153718D-01 -0.135192D-01
     36  0.000000D+00 -0.332258D+01 -0.177180D-03 -0.262110D-02 -0.947376D-03
               16            17            18            19            20 
     16  0.283104D+01
     17 -0.551218D+00  0.302007D+01
     18 -0.111484D+01 -0.111417D+01  0.199139D+01
     19  0.429472D-01  0.188053D-01  0.550816D-01  0.243211D+01
     20  0.104018D-01 -0.173289D-01  0.699794D-02 -0.259196D+00  0.294028D+01
     21  0.528223D-01  0.122701D-01  0.266784D-01 -0.104729D+01 -0.507742D+00
     22 -0.286700D-02  0.643202D-02 -0.379739D-03  0.422701D-01 -0.432691D-01
     23 -0.477821D-02 -0.322481D-02 -0.948337D-02 -0.359744D-01 -0.413922D-01
     24 -0.268069D-02  0.280733D-02  0.243738D-02 -0.176383D-01 -0.846427D-01
     25 -0.313834D-01 -0.545049D-02  0.385563D-02  0.767747D-01  0.802313D-02
     26 -0.226392D-02  0.141553D-01  0.245174D-02  0.802313D-02  0.683634D-01
     27 -0.426442D-02 -0.463323D-02  0.839763D-02  0.466513D-02  0.193066D-01
     28 -0.261441D-02  0.213113D-02 -0.174384D-02  0.695177D-02 -0.492306D-03
     29  0.487854D-02 -0.548645D-02 -0.698893D-02 -0.799543D-03 -0.108556D-02
     30  0.685869D-02 -0.115605D-02  0.615687D-02 -0.482857D-02 -0.356020D-03
     31 -0.503124D-02 -0.451286D-01 -0.129181D-01  0.571369D-02 -0.123913D-03
     32 -0.255095D-01  0.248583D-01  0.733638D-02 -0.437902D-03 -0.100468D-02
     33  0.143053D-02 -0.137590D-01 -0.331539D-01  0.587964D-02  0.239350D-03
     34 -0.253580D-02 -0.179259D-02 -0.981405D-03  0.146941D-02 -0.118215D-02
     35  0.350575D-02  0.153718D-01  0.135192D-01 -0.797575D-02  0.950807D-04
     36  0.177180D-03  0.262110D-02 -0.947376D-03  0.900645D-03 -0.376762D-03
               21            22            23            24            25 
     21  0.179053D+01
     22 -0.123041D-01  0.303496D+01
     23 -0.524193D-01  0.384458D+00  0.731976D+00
     24  0.205685D-01  0.000000D+00  0.000000D+00  0.314713D+01
     25 -0.466513D-02  0.422701D-01 -0.359744D-01  0.176383D-01  0.243211D+01
     26 -0.193066D-01 -0.432691D-01 -0.413922D-01  0.846427D-01 -0.259196D+00
     27 -0.124085D+00  0.123041D-01  0.524193D-01  0.205685D-01  0.104729D+01
     28  0.543169D-02  0.239049D-02 -0.799340D-02 -0.806830D-03  0.571369D-02
     29  0.195544D-03 -0.141240D-02  0.516344D-03  0.402519D-03 -0.437902D-03
     30 -0.548286D-02 -0.243926D-02  0.692332D-02 -0.668303D-03 -0.587964D-02
     31  0.631912D-02  0.239049D-02 -0.799340D-02  0.806830D-03  0.695177D-02
     32  0.658864D-04 -0.141240D-02  0.516345D-03 -0.402519D-03 -0.799543D-03
     33  0.470706D-02  0.243926D-02 -0.692332D-02 -0.668303D-03  0.482857D-02
     34  0.168058D-02 -0.570058D-03 -0.173427D-02  0.000000D+00  0.146941D-02
     35 -0.769827D-02 -0.296297D-02  0.105766D-01  0.000000D+00 -0.797575D-02
     36 -0.663067D-03  0.000000D+00  0.000000D+00 -0.833887D-03 -0.900645D-03
               26            27            28            29            30 
     26  0.294028D+01
     27  0.507742D+00  0.179053D+01
     28 -0.123913D-03 -0.631912D-02  0.234143D+01
     29 -0.100468D-02 -0.658864D-04 -0.290698D+00  0.311273D+01
     30 -0.239350D-03  0.470706D-02  0.137168D+01  0.374973D+00  0.183682D+01
     31 -0.492306D-03 -0.543169D-02  0.139362D+00  0.369677D-02 -0.988221D-02
     32 -0.108556D-02 -0.195544D-03  0.369677D-02  0.129237D+00  0.181344D-01
     33  0.356020D-03 -0.548286D-02  0.988221D-02 -0.181344D-01 -0.222919D+00
     34 -0.118215D-02 -0.168058D-02  0.331703D-01 -0.505458D-01  0.207818D-01
     35  0.950806D-04  0.769827D-02 -0.428706D-01 -0.377644D-01  0.533760D-01
     36  0.376762D-03 -0.663067D-03  0.315036D-01  0.858482D-01  0.167075D-01
               31            32            33            34            35 
     31  0.234143D+01
     32 -0.290698D+00  0.311273D+01
     33 -0.137168D+01 -0.374973D+00  0.183682D+01
     34  0.331703D-01 -0.505458D-01 -0.207818D-01  0.338136D+01
     35 -0.428706D-01 -0.377644D-01 -0.533760D-01  0.187296D+00  0.566803D+00
     36 -0.315036D-01 -0.858482D-01  0.167075D-01  0.000000D+00  0.000000D+00
               36 
     36  0.333191D+01
 Leave Link  701 at Mon Mar 11 15:42:39 2019, MaxMem=   671088640 cpu:              10.1 elap:               0.5
 (Enter /shared/centos7/gaussian/g16/l702.exe)
 L702 exits ... SP integral derivatives will be done elsewhere.
 Leave Link  702 at Mon Mar 11 15:42:39 2019, MaxMem=   671088640 cpu:               0.4 elap:               0.0
 (Enter /shared/centos7/gaussian/g16/l703.exe)
 Integral derivatives from FoFJK, PRISM(SPDF).
 Compute integral second derivatives, UseDBF=F ICtDFT=           0.
 ICntrl=    100147.
 Calling FoFJK, ICntrl=    100147 FMM=F ISym2X=1 I1Cent= 0 IOpClX= 0 NMat=1 NMatS=1 NMatT=0.
 FoFJK:  IHMeth= 1 ICntrl=  100147 DoSepK=F KAlg= 0 I1Cent=           0 FoldK=F
 IRaf=         0 NMat=       1 IRICut=       1 DoRegI=T DoRafI=F ISym2E= 1 IDoP0=0 IntGTp=1.
 FoFCou: FMM=F IPFlag=           0 FMFlag=      100000 FMFlg1=         800
         NFxFlg=           0 DoJE=F BraDBF=F KetDBF=F FulRan=T
         wScrn=  0.000000 ICntrl=    100147 IOpCl=  0 I1Cent=           0 NGrid=           0
         NMat0=    1 NMatS0=      1 NMatT0=    0 NMatD0=    1 NMtDS0=    0 NMtDT0=    0
 Petite list used in FoFCou.
 FoFCou:  KetSym=F NOpSet=  2 NOpAb=2 NOp=  2.
 FoFCou:  CnvScl= 1.00D+00 Thresh= 1.00D-08 IAcrcy=      12.
 PrismS was handed   670851689 working-precision words and  2566 shell-pairs
 FoFCou: LinMIO=F DoNuc=F BraDBF=F KetDBF=F HaveP=T PDBF=F HaveZ=T HaveW=F
         NIJTC =      15 NIJTAt=       0 NIJTCD=       0 NIJTT =      15
         IJTBeg=       1 IJTEnd=      15 KLTBeg=       1 KLTEnd=      15
         IPTBeg=       1 IPTEnd=      15 IPTBCv=       1 IPTECv=      15
         IZTBeg=       1 IZTEnd=      15 IZTBCv=       1 IZTECv=      15
         IWTBeg=      16 IWTEnd=      15 IWTBCv=      16 IWTECv=      15
         INTBeg=       1 INTEnd=       0 IFTBCv=       1 IFTECv=      15
 NCel replicated for PrismC:     1
 CoulSu-InSpLW:  IPartL=    0 NPrtUS=   20 NPrtUL=    1 DoSpLW=F IThBeg=    0 IThEnd=   19 NThAct=   20.
 CoulSu:  IncDef=  1024 NBBP=        3293461 NTPThr=   100 NPartT=   20 Incr=        1024 LDynOK=F GPUOK=T.
 CoulSu:  NPrtUS=  20 ThrOK=T IAlg=1 NPAlg=1 LenDen=           0 LWGrdD=           0 DoCopy=F ISkipM=0
          DoSpLW=F IThBeg=    0 IThEnd=   19.
 Enter PrismC:  IPart=  0 JobTyp=22 DoJE=F Cont=F.
 PrismC:  IPart=     0 DynPar=T LinDyn=F Incr=        1024 UseFst=F UseS4=T ISplat=2.
 PrismC was handed    33494814 working-precision words and  2566 shell-pairs
 Enter PrismC:  IPart= 13 JobTyp=22 DoJE=F Cont=F.
 Enter PrismC:  IPart= 16 JobTyp=22 DoJE=F Cont=F.
 PrismC:  IPart=    13 DynPar=T LinDyn=F Incr=        1024 UseFst=F UseS4=T ISplat=2.
 PrismC was handed    33494814 working-precision words and  2566 shell-pairs
 PrismC:  IPart=    16 DynPar=T LinDyn=F Incr=        1024 UseFst=F UseS4=T ISplat=2.
 Enter PrismC:  IPart=  3 JobTyp=22 DoJE=F Cont=F.
 Enter PrismC:  IPart= 15 JobTyp=22 DoJE=F Cont=F.
 Enter PrismC:  IPart=  7 JobTyp=22 DoJE=F Cont=F.
 PrismC was handed    33494814 working-precision words and  2566 shell-pairs
 PrismC:  IPart=     3 DynPar=T LinDyn=F Incr=        1024 UseFst=F UseS4=T ISplat=2.
 PrismC was handed    33494814 working-precision words and  2566 shell-pairs
 PrismC:  IPart=    15 DynPar=T LinDyn=F Incr=        1024 UseFst=F UseS4=T ISplat=2.
 PrismC was handed    33494814 working-precision words and  2566 shell-pairs
 PrismC:  IPart=     7 DynPar=T LinDyn=F Incr=        1024 UseFst=F UseS4=T ISplat=2.
 PrismC was handed    33494814 working-precision words and  2566 shell-pairs
 Enter PrismC:  IPart= 10 JobTyp=22 DoJE=F Cont=F.
 Enter PrismC:  IPart=  8 JobTyp=22 DoJE=F Cont=F.
 PrismC:  IPart=    10 DynPar=T LinDyn=F Incr=        1024 UseFst=F UseS4=T ISplat=2.
 PrismC was handed    33494814 working-precision words and  2566 shell-pairs
 Enter PrismC:  IPart=  6 JobTyp=22 DoJE=F Cont=F.
 PrismC:  IPart=     8 DynPar=T LinDyn=F Incr=        1024 UseFst=F UseS4=T ISplat=2.
 PrismC was handed    33494814 working-precision words and  2566 shell-pairs
 PrismC:  IPart=     6 DynPar=T LinDyn=F Incr=        1024 UseFst=F UseS4=T ISplat=2.
 Enter PrismC:  IPart=  9 JobTyp=22 DoJE=F Cont=F.
 PrismC was handed    33494814 working-precision words and  2566 shell-pairs
 Enter PrismC:  IPart=  5 JobTyp=22 DoJE=F Cont=F.
 PrismC:  IPart=     9 DynPar=T LinDyn=F Incr=        1024 UseFst=F UseS4=T ISplat=2.
 PrismC was handed    33494814 working-precision words and  2566 shell-pairs
 Enter PrismC:  IPart= 18 JobTyp=22 DoJE=F Cont=F.
 PrismC:  IPart=     5 DynPar=T LinDyn=F Incr=        1024 UseFst=F UseS4=T ISplat=2.
 PrismC was handed    33494814 working-precision words and  2566 shell-pairs
 Enter PrismC:  IPart=  1 JobTyp=22 DoJE=F Cont=F.
 PrismC:  IPart=    18 DynPar=T LinDyn=F Incr=        1024 UseFst=F UseS4=T ISplat=2.
 PrismC was handed    33494814 working-precision words and  2566 shell-pairs
 Enter PrismC:  IPart=  4 JobTyp=22 DoJE=F Cont=F.
 PrismC:  IPart=     1 DynPar=T LinDyn=F Incr=        1024 UseFst=F UseS4=T ISplat=2.
 PrismC was handed    33494814 working-precision words and  2566 shell-pairs
 PrismC:  IPart=     4 DynPar=T LinDyn=F Incr=        1024 UseFst=F UseS4=T ISplat=2.
 PrismC was handed    33494814 working-precision words and  2566 shell-pairs
 Enter PrismC:  IPart=  2 JobTyp=22 DoJE=F Cont=F.
 Enter PrismC:  IPart= 17 JobTyp=22 DoJE=F Cont=F.
 PrismC:  IPart=     2 DynPar=T LinDyn=F Incr=        1024 UseFst=F UseS4=T ISplat=2.
 PrismC was handed    33494814 working-precision words and  2566 shell-pairs
 PrismC:  IPart=    17 DynPar=T LinDyn=F Incr=        1024 UseFst=F UseS4=T ISplat=2.
 Enter PrismC:  IPart= 19 JobTyp=22 DoJE=F Cont=F.
 PrismC was handed    33494814 working-precision words and  2566 shell-pairs
 PrismC:  IPart=    19 DynPar=T LinDyn=F Incr=        1024 UseFst=F UseS4=T ISplat=2.
 PrismC was handed    33494814 working-precision words and  2566 shell-pairs
 Enter PrismC:  IPart= 12 JobTyp=22 DoJE=F Cont=F.
 PrismC:  IPart=    12 DynPar=T LinDyn=F Incr=        1024 UseFst=F UseS4=T ISplat=2.
 PrismC was handed    33494814 working-precision words and  2566 shell-pairs
 Enter PrismC:  IPart= 11 JobTyp=22 DoJE=F Cont=F.
 Enter PrismC:  IPart= 14 JobTyp=22 DoJE=F Cont=F.
 PrismC:  IPart=    11 DynPar=T LinDyn=F Incr=        1024 UseFst=F UseS4=T ISplat=2.
 PrismC was handed    33494814 working-precision words and  2566 shell-pairs
 PrismC:  IPart=    14 DynPar=T LinDyn=F Incr=        1024 UseFst=F UseS4=T ISplat=2.
 PrismC was handed    33494814 working-precision words and  2566 shell-pairs
 IPart= 11 NShTot=       70662 NShNF=       70662 NShFF=           0 MinMC=       7
           NShCPU=       70662 NBCPU=        2996 AvBCPU=        23.6
           NShGPU=           0 NBGPU=           0 AvBGPU=         0.0
 IPart= 18 NShTot=       64299 NShNF=       64299 NShFF=           0 MinMC=       7
           NShCPU=       64299 NBCPU=        2849 AvBCPU=        22.6
           NShGPU=           0 NBGPU=           0 AvBGPU=         0.0
 IPart=  5 NShTot=       60412 NShNF=       60412 NShFF=           0 MinMC=       7
           NShCPU=       60412 NBCPU=        2502 AvBCPU=        24.1
           NShGPU=           0 NBGPU=           0 AvBGPU=         0.0
 IPart=  9 NShTot=       76564 NShNF=       76564 NShFF=           0 MinMC=       7
           NShCPU=       76564 NBCPU=        3623 AvBCPU=        21.1
           NShGPU=           0 NBGPU=           0 AvBGPU=         0.0
 IPart= 12 NShTot=       75432 NShNF=       75432 NShFF=           0 MinMC=       7
           NShCPU=       75432 NBCPU=        3181 AvBCPU=        23.7
           NShGPU=           0 NBGPU=           0 AvBGPU=         0.0
 IPart= 17 NShTot=       63720 NShNF=       63720 NShFF=           0 MinMC=       7
           NShCPU=       63720 NBCPU=        2913 AvBCPU=        21.9
           NShGPU=           0 NBGPU=           0 AvBGPU=         0.0
 IPart=  3 NShTot=       71171 NShNF=       71171 NShFF=           0 MinMC=       7
           NShCPU=       71171 NBCPU=        3231 AvBCPU=        22.0
           NShGPU=           0 NBGPU=           0 AvBGPU=         0.0
 IPart=  6 NShTot=       62469 NShNF=       62469 NShFF=           0 MinMC=       7
           NShCPU=       62469 NBCPU=        2666 AvBCPU=        23.4
           NShGPU=           0 NBGPU=           0 AvBGPU=         0.0
 IPart=  7 NShTot=       67592 NShNF=       67592 NShFF=           0 MinMC=       7
           NShCPU=       67592 NBCPU=        3134 AvBCPU=        21.6
           NShGPU=           0 NBGPU=           0 AvBGPU=         0.0
 IPart= 15 NShTot=       67235 NShNF=       67235 NShFF=           0 MinMC=       7
           NShCPU=       67235 NBCPU=        2919 AvBCPU=        23.0
           NShGPU=           0 NBGPU=           0 AvBGPU=         0.0
 IPart= 10 NShTot=       59940 NShNF=       59940 NShFF=           0 MinMC=       7
           NShCPU=       59940 NBCPU=        2557 AvBCPU=        23.4
           NShGPU=           0 NBGPU=           0 AvBGPU=         0.0
 IPart= 13 NShTot=       61644 NShNF=       61644 NShFF=           0 MinMC=       7
           NShCPU=       61644 NBCPU=        2856 AvBCPU=        21.6
           NShGPU=           0 NBGPU=           0 AvBGPU=         0.0
 IPart= 14 NShTot=       66910 NShNF=       66910 NShFF=           0 MinMC=       7
           NShCPU=       66910 NBCPU=        2721 AvBCPU=        24.6
           NShGPU=           0 NBGPU=           0 AvBGPU=         0.0
 IPart=  4 NShTot=       65409 NShNF=       65409 NShFF=           0 MinMC=       7
           NShCPU=       65409 NBCPU=        2702 AvBCPU=        24.2
           NShGPU=           0 NBGPU=           0 AvBGPU=         0.0
 IPart= 16 NShTot=       63031 NShNF=       63031 NShFF=           0 MinMC=       7
           NShCPU=       63031 NBCPU=        2739 AvBCPU=        23.0
           NShGPU=           0 NBGPU=           0 AvBGPU=         0.0
 IPart=  8 NShTot=       69114 NShNF=       69114 NShFF=           0 MinMC=       7
           NShCPU=       69114 NBCPU=        3178 AvBCPU=        21.7
           NShGPU=           0 NBGPU=           0 AvBGPU=         0.0
 IPart= 19 NShTot=       65993 NShNF=       65993 NShFF=           0 MinMC=       7
           NShCPU=       65993 NBCPU=        2841 AvBCPU=        23.2
           NShGPU=           0 NBGPU=           0 AvBGPU=         0.0
 IPart=  1 NShTot=       70940 NShNF=       70940 NShFF=           0 MinMC=       7
           NShCPU=       70940 NBCPU=        3368 AvBCPU=        21.1
           NShGPU=           0 NBGPU=           0 AvBGPU=         0.0
 IPart=  0 NShTot=       67374 NShNF=       67374 NShFF=           0 MinMC=       7
           NShCPU=       67374 NBCPU=        2781 AvBCPU=        24.2
           NShGPU=           0 NBGPU=           0 AvBGPU=         0.0
 IPart=  2 NShTot=       71181 NShNF=       71181 NShFF=           0 MinMC=       7
           NShCPU=       71181 NBCPU=        3440 AvBCPU=        20.7
           NShGPU=           0 NBGPU=           0 AvBGPU=         0.0
 CoulSu:  NxtVal=        2445313 LenVP=       33494815 MinMC=       7.
 ReadGW:  IGet=0 IStart=           1 Next=           1 LGW=           0.
 Remaining memory in FofDFT      639.95 Mw
 CkSvGd:  ISavGI=        -1 IRadAn=       5 IRASav=       5 ISavGd=        -1.
 CalDSu-InSpLW:  IPartL=    0 NPrtUS=   20 NPrtUL=    1 DoSpLW=F IThBeg=    0 IThEnd=   19 NThAct=   20.
 CalDSu:  NPrtUS=  20 ThrOK=T IAlg=1 NPAlg=2 DoDPD=T LenP=       26106 LenD1P=             0 GPUOK=F
          ISkipM=0 DoSpLW=F IThBeg=    0 IThEnd=   19.
 IPart=  0 IRanGd=          0 ScrnBf=T ScrnGd=T RCrit=4.00D+00 DoMicB=T.
 IPart= 16         5873 of         6569 points in      10 batches and       33 microbatches, Max-NSigAt=      12 Max-NSgAt2=      12
 IPart=  0         5753 of         6428 points in       9 batches and       37 microbatches, Max-NSigAt=      12 Max-NSgAt2=      12
 IPart=  3         7282 of         8760 points in      13 batches and       43 microbatches, Max-NSigAt=      12 Max-NSgAt2=      12
 IPart=  9         6141 of         6613 points in      10 batches and       39 microbatches, Max-NSigAt=      12 Max-NSgAt2=      12
 IPart= 11         6503 of         7637 points in      10 batches and       38 microbatches, Max-NSigAt=      12 Max-NSgAt2=      12
 IPart=  8         5947 of         6629 points in      11 batches and       42 microbatches, Max-NSigAt=      12 Max-NSgAt2=      12
 IPart=  4         6171 of         6668 points in      10 batches and       39 microbatches, Max-NSigAt=      12 Max-NSgAt2=      12
 IPart=  6         6875 of         8127 points in      13 batches and       63 microbatches, Max-NSigAt=      12 Max-NSgAt2=      12
 IPart= 19         6967 of         8236 points in      14 batches and       53 microbatches, Max-NSigAt=      12 Max-NSgAt2=      12
 IPart=  5         6121 of         6963 points in      10 batches and       38 microbatches, Max-NSigAt=      12 Max-NSgAt2=      12
 IPart= 10         5765 of         6136 points in       9 batches and       34 microbatches, Max-NSigAt=      12 Max-NSgAt2=      12
 IPart= 14         5790 of         6267 points in       8 batches and       36 microbatches, Max-NSigAt=      12 Max-NSgAt2=      12
 IPart= 13         6398 of         7228 points in      11 batches and       31 microbatches, Max-NSigAt=      12 Max-NSgAt2=      12
 IPart= 18         5760 of         6246 points in       9 batches and       49 microbatches, Max-NSigAt=      12 Max-NSgAt2=      12
 IPart= 12         6109 of         6505 points in       9 batches and       28 microbatches, Max-NSigAt=      12 Max-NSgAt2=      12
 IPart= 17         6532 of         7257 points in      11 batches and       42 microbatches, Max-NSigAt=      12 Max-NSgAt2=      12
 IPart=  2         6954 of         8827 points in      14 batches and       45 microbatches, Max-NSigAt=      12 Max-NSgAt2=      12
 IPart= 15         6490 of         6851 points in       9 batches and       26 microbatches, Max-NSigAt=      12 Max-NSgAt2=      12
 IPart=  1         6530 of         6937 points in      10 batches and       28 microbatches, Max-NSigAt=      12 Max-NSgAt2=      12
 IPart=  7         6149 of         6816 points in      10 batches and       50 microbatches, Max-NSigAt=      12 Max-NSgAt2=      12
 Polarizability after L703:
                1             2             3 
      1  0.000000D+00
      2  0.000000D+00  0.000000D+00
      3  0.000000D+00  0.000000D+00  0.000000D+00
 Dipole Derivatives after L703:
                 1             2             3             4             5 
      1   0.556214D-01 -0.716442D-01  0.000000D+00 -0.295307D+00 -0.221461D+00
      2  -0.260682D+00 -0.803776D-01  0.000000D+00 -0.519764D+00 -0.602756D+00
      3   0.000000D+00  0.000000D+00 -0.186517D+00  0.000000D+00  0.000000D+00
                 6             7             8             9            10 
      1   0.000000D+00 -0.125608D+01  0.147807D+00  0.000000D+00 -0.143883D+01
      2   0.000000D+00  0.520809D+00 -0.116328D+01  0.000000D+00  0.641767D+00
      3  -0.826800D+00  0.000000D+00  0.000000D+00 -0.999827D+00  0.000000D+00
                11            12            13            14            15 
      1   0.212753D+00  0.000000D+00  0.225383D+00  0.792207D-01 -0.159166D+00
      2  -0.115954D+01  0.000000D+00  0.190278D+00  0.324490D+00 -0.302363D+00
      3   0.000000D+00 -0.920398D+00 -0.154471D+00 -0.112895D+00  0.450118D+00
                16            17            18            19            20 
      1   0.225383D+00  0.792207D-01  0.159166D+00  0.516639D+00  0.279261D+00
      2   0.190278D+00  0.324490D+00  0.302363D+00 -0.143400D+00  0.142488D-01
      3   0.154471D+00  0.112895D+00  0.450118D+00  0.183364D+00  0.144104D+00
                21            22            23            24            25 
      1   0.658669D+00  0.175586D+00 -0.627699D+00  0.000000D+00  0.516639D+00
      2  -0.239926D+00 -0.775813D-01  0.113767D+01  0.000000D+00 -0.143400D+00
      3   0.464452D+00  0.000000D+00  0.000000D+00  0.100698D+00 -0.183364D+00
                26            27            28            29            30 
      1   0.279261D+00 -0.658669D+00  0.566653D+00  0.196892D+00 -0.566503D+00
      2   0.142488D-01  0.239926D+00 -0.232976D+00 -0.361186D-02  0.267854D+00
      3  -0.144104D+00  0.464452D+00 -0.182901D+00 -0.122782D+00  0.447486D+00
                31            32            33            34            35 
[...]
   A10        1.92418  -0.00000   0.00000   0.00000   0.00000   1.92418
   A11        1.89713   0.00000   0.00000   0.00000   0.00000   1.89713
   A12        1.89214   0.00000   0.00000   0.00000   0.00000   1.89214
   A13        1.89713   0.00000   0.00000   0.00000   0.00000   1.89713
   A14        1.94135  -0.00000   0.00000  -0.00000  -0.00000   1.94135
   A15        1.94135  -0.00000   0.00000  -0.00000  -0.00000   1.94135
   A16        1.88057   0.00000   0.00000   0.00000   0.00000   1.88057
   A17        1.89285   0.00000   0.00000   0.00000   0.00000   1.89285
   A18        1.90358   0.00000   0.00000   0.00000   0.00000   1.90358
   A19        1.90358   0.00000   0.00000   0.00000   0.00000   1.90358
    D1        3.14159  -0.00000   0.00000  -0.00000   0.00000   3.14159
    D2        1.02669  -0.00000   0.00000  -0.00000  -0.00000   1.02669
    D3       -1.02669   0.00000   0.00000   0.00000   0.00000  -1.02669
    D4       -1.05603   0.00000   0.00000   0.00000   0.00000  -1.05603
    D5        1.05603  -0.00000   0.00000  -0.00000  -0.00000   1.05603
    D6        3.14159  -0.00000   0.00000  -0.00000   0.00000   3.14159
    D7       -1.04424  -0.00000   0.00000  -0.00000  -0.00000  -1.04424
    D8        3.14159   0.00000   0.00000   0.00000   0.00000   3.14159
    D9        1.04424   0.00000   0.00000   0.00000   0.00000   1.04424
   D10        1.05966  -0.00000   0.00000  -0.00000  -0.00000   1.05966
   D11       -1.03769  -0.00000   0.00000  -0.00000  -0.00000  -1.03769
   D12       -3.13504   0.00000   0.00000   0.00000   0.00000  -3.13504
   D13        3.13504  -0.00000   0.00000  -0.00000  -0.00000   3.13504
   D14        1.03769   0.00000   0.00000   0.00000   0.00000   1.03769
   D15       -1.05966   0.00000   0.00000   0.00000   0.00000  -1.05966
         Item               Value     Threshold  Converged?
 Maximum Force            0.000000     0.000002     YES
 RMS     Force            0.000000     0.000001     YES
 Maximum Displacement     0.000001     0.000006     YES
 RMS     Displacement     0.000000     0.000004     YES
 Predicted change in Energy=-8.234917D-14
 Optimization completed.
    -- Stationary point found.
                           ----------------------------
                           !   Optimized Parameters   !
                           ! (Angstroms and Degrees)  !
 --------------------------                            --------------------------
 ! Name  Definition              Value          Derivative Info.                !
 --------------------------------------------------------------------------------
 ! R1    R(1,2)                  1.4073         -DE/DX =    0.0                 !
 ! R2    R(1,4)                  1.4021         -DE/DX =    0.0                 !
 ! R3    R(2,3)                  1.5116         -DE/DX =    0.0                 !
 ! R4    R(2,5)                  1.0979         -DE/DX =    0.0                 !
 ! R5    R(2,6)                  1.0979         -DE/DX =    0.0                 !
 ! R6    R(3,7)                  1.0888         -DE/DX =    0.0                 !
 ! R7    R(3,8)                  1.0893         -DE/DX =    0.0                 !
 ! R8    R(3,9)                  1.0888         -DE/DX =    0.0                 !
 ! R9    R(4,10)                 1.0958         -DE/DX =    0.0                 !
 ! R10   R(4,11)                 1.0958         -DE/DX =    0.0                 !
 ! R11   R(4,12)                 1.0872         -DE/DX =    0.0                 !
 ! A1    A(2,1,4)              112.4926         -DE/DX =    0.0                 !
 ! A2    A(1,2,3)              108.6312         -DE/DX =    0.0                 !
 ! A3    A(1,2,5)              109.7115         -DE/DX =    0.0                 !
 ! A4    A(1,2,6)              109.7115         -DE/DX =    0.0                 !
 ! A5    A(3,2,5)              110.734          -DE/DX =    0.0                 !
 ! A6    A(3,2,6)              110.734          -DE/DX =    0.0                 !
 ! A7    A(5,2,6)              107.3082         -DE/DX =    0.0                 !
 ! A8    A(2,3,7)              110.2472         -DE/DX =    0.0                 !
 ! A9    A(2,3,8)              110.4851         -DE/DX =    0.0                 !
 ! A10   A(2,3,9)              110.2472         -DE/DX =    0.0                 !
 ! A11   A(7,3,8)              108.6975         -DE/DX =    0.0                 !
 ! A12   A(7,3,9)              108.4116         -DE/DX =    0.0                 !
 ! A13   A(8,3,9)              108.6975         -DE/DX =    0.0                 !
 ! A14   A(1,4,10)             111.2311         -DE/DX =    0.0                 !
 ! A15   A(1,4,11)             111.2311         -DE/DX =    0.0                 !
 ! A16   A(1,4,12)             107.7487         -DE/DX =    0.0                 !
 ! A17   A(10,4,11)            108.4525         -DE/DX =    0.0                 !
 ! A18   A(10,4,12)            109.0673         -DE/DX =    0.0                 !
 ! A19   A(11,4,12)            109.0673         -DE/DX =    0.0                 !
 ! D1    D(4,1,2,3)            180.0            -DE/DX =    0.0                 !
 ! D2    D(4,1,2,5)             58.8248         -DE/DX =    0.0                 !
 ! D3    D(4,1,2,6)            -58.8248         -DE/DX =    0.0                 !
 ! D4    D(2,1,4,10)           -60.5062         -DE/DX =    0.0                 !
 ! D5    D(2,1,4,11)            60.5062         -DE/DX =    0.0                 !
 ! D6    D(2,1,4,12)           180.0            -DE/DX =    0.0                 !
 ! D7    D(1,2,3,7)            -59.8308         -DE/DX =    0.0                 !
 ! D8    D(1,2,3,8)            180.0            -DE/DX =    0.0                 !
 ! D9    D(1,2,3,9)             59.8308         -DE/DX =    0.0                 !
 ! D10   D(5,2,3,7)             60.714          -DE/DX =    0.0                 !
 ! D11   D(5,2,3,8)            -59.4552         -DE/DX =    0.0                 !
 ! D12   D(5,2,3,9)           -179.6244         -DE/DX =    0.0                 !
 ! D13   D(6,2,3,7)            179.6244         -DE/DX =    0.0                 !
 ! D14   D(6,2,3,8)             59.4552         -DE/DX =    0.0                 !
 ! D15   D(6,2,3,9)            -60.714          -DE/DX =    0.0                 !
 --------------------------------------------------------------------------------
 GradGradGradGradGradGradGradGradGradGradGradGradGradGradGradGradGradGrad

 Leave Link  103 at Mon Mar 11 15:45:39 2019, MaxMem=   671088640 cpu:               0.4 elap:               0.1
 (Enter /shared/centos7/gaussian/g16/l9999.exe)

 ----------------------------------------------------------------------

 Electric dipole moment (input orientation):
 (Debye = 10**-18 statcoulomb cm , SI units = C m)
                  (au)            (Debye)         (10**-30 SI)
   Tot        0.492238D+00      0.125114D+01      0.417337D+01
   x          0.643978D-01      0.163683D+00      0.545987D+00
   y          0.488008D+00      0.124039D+01      0.413750D+01
   z          0.000000D+00      0.000000D+00      0.000000D+00

 Dipole polarizability, Alpha (input orientation).
 (esu units = cm**3 , SI units = C**2 m**2 J**-1)
 Alpha(0;0):
               (au)            (10**-24 esu)      (10**-40 SI)
   iso        0.434333D+02      0.643615D+01      0.716119D+01
   aniso      0.114800D+02      0.170117D+01      0.189280D+01
   xx         0.510315D+02      0.756209D+01      0.841396D+01
   yx         0.245225D+00      0.363387D-01      0.404322D-01
   yy         0.403896D+02      0.598512D+01      0.665935D+01
   zx         0.000000D+00      0.000000D+00      0.000000D+00
   zy         0.000000D+00      0.000000D+00      0.000000D+00
   zz         0.388788D+02      0.576124D+01      0.641025D+01

 ----------------------------------------------------------------------

 Dipole orientation:
     8          1.05683086         -0.13946008         -0.80952502
     6         -1.02877841          0.13575814          0.81738948
     6         -3.38621217          0.44684648         -0.76556154
     6          3.33658588         -0.44029788          0.50690945
     1         -0.74572971          1.78401608          2.04529550
     1         -1.18298350         -1.52950207          2.04529550
     1         -3.22253641          2.10864845         -1.96771211
     1         -5.04006848          0.66509033          0.44037367
     1         -3.65921732         -1.20052831         -1.96771211
     1          3.73351165          1.20201352          1.70422776
     1          3.29390228         -2.12935529          1.70422776
     1          4.83929120         -0.63859575         -0.88010311

 Electric dipole moment (dipole orientation):
 (Debye = 10**-18 statcoulomb cm , SI units = C m)
                  (au)            (Debye)         (10**-30 SI)
   Tot        0.492238D+00      0.125114D+01      0.417337D+01
   x          0.000000D+00      0.000000D+00      0.000000D+00
   y          0.000000D+00      0.000000D+00      0.000000D+00
   z          0.492238D+00      0.125114D+01      0.417337D+01

 Dipole polarizability, Alpha (dipole orientation).
 (esu units = cm**3 , SI units = C**2 m**2 J**-1)
 Alpha(0;0):
               (au)            (10**-24 esu)      (10**-40 SI)
   iso        0.434333D+02      0.643615D+01      0.716119D+01
   aniso      0.114800D+02      0.170117D+01      0.189280D+01
   xx         0.505820D+02      0.749548D+01      0.833984D+01
   yx        -0.154436D+01     -0.228850D+00     -0.254630D+00
   yy         0.390826D+02      0.579144D+01      0.644385D+01
   zx         0.160321D+01      0.237571D+00      0.264334D+00
   zy        -0.211561D+00     -0.313500D-01     -0.348816D-01
   zz         0.406354D+02      0.602154D+01      0.669987D+01

 ----------------------------------------------------------------------

 Test job not archived.
 1\1\GINC-C0274\Freq\RM062X\6-311+G(2df,2p)\C3H8O1\UNDERKOFFLER.C\11-Ma
 r-2019\0\\#P Geom=AllCheck Guess=TCheck SCRF=Check Test GenChk RM062X/
 6-311+G(2df,2p) Freq\\Gaussian input prepared by ASE\\0,1\O,0.50320710
 3,-0.4984994382,0.0000000294\C,-0.4878179145,0.5006664422,0.0000000294
 \C,-1.8449064081,-0.1651748472,0.0000000294\C,1.8007387383,0.032943863
 6,0.0000000294\H,-0.3687189891,1.1403630451,-0.88431959\H,-0.368718989
 1,1.1403630451,0.8843196489\H,-1.9570590386,-0.792040734,-0.8831609475
 \H,-2.6366021483,0.5829835096,0.0000000294\H,-1.9570590386,-0.79204073
 4,0.8831610063\H,1.9773579593,0.6487234137,-0.889083614\H,1.9773579593
 ,0.6487234137,0.8890836728\H,2.4999127665,-0.7996579796,0.0000000294\\
 Version=EM64L-G16RevA.03\State=1-A'\HF=-194.3155623\RMSD=1.959e-09\RMS
 F=1.056e-07\ZeroPoint=0.1091171\Thermal=0.114613\Dipole=0.0643978,0.48
 80075,0.\DipoleDeriv=-1.2922474,0.0521518,0.,0.1249503,-0.6505362,0.,0
 .,0.,-0.4428477,0.7265567,-0.1716488,0.,-0.3324268,0.4903412,0.,0.,0.,
 0.4042778,-0.0751851,-0.0255717,0.,-0.0592721,0.0639419,0.,0.,0.,0.072
 2176,0.7904112,0.1166599,0.,0.2637077,0.3286552,0.,0.,0.,0.3775142,-0.
 0352432,-0.0460579,0.0553846,0.0367266,-0.0615682,0.0788401,0.0133555,
 0.1310283,-0.1156233,-0.0352432,-0.0460579,-0.0553846,0.0367266,-0.061
 5682,-0.0788401,-0.0133555,-0.1310283,-0.1156233,0.041245,-0.0079158,0
 .0102052,-0.0523246,0.0048225,-0.0737995,-0.0272986,-0.0873435,-0.0536
 494,-0.0597475,0.0624969,0.,0.1025296,-0.036959,0.,0.,0.,0.077227,0.04
 1245,-0.0079158,-0.0102052,-0.0523246,0.0048225,0.0737995,0.0272986,0.
 0873435,-0.0536494,-0.0165419,0.0110613,-0.0246751,-0.0907463,-0.01996
 48,0.0944792,0.061582,0.1084667,-0.11352,-0.0165419,0.0110613,0.024675
 1,-0.0907463,-0.0199648,-0.0944792,-0.061582,-0.1084667,-0.11352,-0.06
 87077,0.0517366,0.,0.1131997,-0.042022,0.,0.,0.,0.0771963\Polar=51.031
 5218,0.2452254,40.3896056,0.,0.,38.8787999\Quadrupole=1.5760789,-1.168
 1121,-0.4079668,-0.0134092,0.,0.\PG=CS [SG(C3H2O1),X(H6)]\NImag=0\\0.5
 2858147,-0.02745626,0.35540628,0.,0.,0.10031232,-0.15502270,0.05684103
 ,0.,0.51153900,0.09952799,-0.18722416,0.,0.03546293,0.54724109,0.,0.,-
 0.06634297,0.,0.,0.58824928,-0.04038597,-0.00673526,0.,-0.17777297,-0.
 05583129,0.,0.51636057,0.03424861,0.01228514,0.,-0.07169199,-0.1160919
 9,0.,-0.03907609,0.57000910,0.,0.,0.00201247,0.,0.,-0.08308643,0.,0.,0
 .58314524,-0.23412079,-0.04381013,0.,-0.05056480,-0.00493285,0.,-0.001
 97003,0.00264687,0.,0.53269054,-0.08847180,-0.12222333,0.,0.02848359,0
 .00905436,0.,0.00353256,-0.00417860,0.,-0.05743197,0.59102244,0.,0.,-0
 .06349000,0.,0.,-0.00399222,0.,0.,-0.00050429,0.,0.,0.56004354,-0.0085
 9512,0.02409941,-0.02080436,-0.05432466,-0.02107321,0.02747608,-0.0038
 5900,-0.01761974,0.02609217,0.00479087,0.00376644,-0.00314407,0.062799
 83,0.01280151,-0.02731684,0.02260326,-0.01939904,-0.12122439,0.1045658
 7,-0.00339110,-0.00711167,0.01182342,-0.00405344,-0.00056850,-0.000295
 78,0.01268827,0.14371066,-0.00537184,0.00436423,0.00634092,0.02635302,
 0.10811233,-0.21812005,-0.00008042,-0.00157581,0.00152203,0.00122621,-
 0.00048066,0.00117742,-0.02560073,-0.12382478,0.23032426,-0.00859512,0
 .02409941,0.02080436,-0.05432466,-0.02107321,-0.02747608,-0.00385900,-
 0.01761974,-0.02609217,0.00479087,0.00376644,0.00314407,0.00227683,0.0
 0131265,0.00426814,0.06279983,0.01280151,-0.02731684,-0.02260326,-0.01
 939904,-0.12122439,-0.10456587,-0.00339110,-0.00711167,-0.01182342,-0.
 00405344,-0.00056850,0.00029578,0.00131265,0.01116937,0.01396369,0.012
 68827,0.14371066,0.00537184,-0.00436423,0.00634092,-0.02635302,-0.1081
 1233,-0.21812005,0.00008042,0.00157581,0.00152203,-0.00122621,0.000480
 66,0.00117742,-0.00426814,-0.01396369,-0.02301597,0.02560073,0.1238247
 8,0.23032426,0.00306781,0.00054326,0.00062016,-0.00465292,-0.01970597,
 -0.02761581,-0.04866726,-0.01334954,-0.01951759,-0.00032535,-0.0001564
 2,-0.00006610,0.00143246,0.00082746,0.00035942,-0.00548774,-0.00238592
 ,0.00040888,0.05221940,0.00059374,0.00133286,0.00093325,-0.00123384,-0
 .01110154,-0.01375568,-0.01527015,-0.13591071,-0.12567403,0.00022670,0
 .00019107,0.00011953,0.00058017,0.00002575,0.00014407,-0.00305724,-0.0
 0030103,0.00065814,0.01929221,0.14583517,-0.00049212,0.00055332,0.0000
 9179,0.00011166,0.00052676,0.00078310,-0.02108380,-0.12647395,-0.22973
 448,-0.00000031,0.00025318,0.00018298,-0.00065667,0.00014053,0.0008668
 7,0.00059972,0.00003257,0.00155189,0.02278923,0.13904469,0.24548886,-0
 .00757357,-0.00438657,0.,-0.01571977,0.02469871,0.,-0.18960179,0.13351
 713,0.,-0.00000265,0.00166184,0.,0.00078664,-0.00022597,0.00077081,0.0
 0078664,-0.00022597,-0.00077081,0.00298119,-0.00331969,0.00083666,0.20
 621642,-0.00380785,-0.00071600,0.,-0.01002748,0.01160510,0.,0.13611644
 ,-0.17725224,0.,-0.00086594,0.00081581,0.,0.00086950,0.00040998,0.0002
 5888,0.00086950,0.00040998,-0.00025888,0.01253966,-0.01220007,0.001619
 59,-0.14798931,0.18924211,0.,0.,0.00073925,0.,0.,-0.00248607,0.,0.,-0.
 04654383,0.,0.,0.00071965,-0.00011126,-0.00008112,-0.00008033,0.000111
 26,0.00008112,-0.00008033,0.02050894,-0.01726780,0.00107336,0.,0.,0.04
 565554,0.00306781,0.00054326,-0.00062016,-0.00465292,-0.01970597,0.027
 61581,-0.04866726,-0.01334954,0.01951759,-0.00032535,-0.00015642,0.000
 06610,-0.00548774,-0.00238592,-0.00040888,0.00143246,0.00082746,-0.000
 35942,-0.00081919,0.00207289,-0.00220423,0.00298119,0.01253966,-0.0205
 0894,0.05221940,0.00059374,0.00133286,-0.00093325,-0.00123384,-0.01110
 154,0.01375568,-0.01527015,-0.13591071,0.12567403,0.00022670,0.0001910
 7,-0.00011953,-0.00305724,-0.00030103,-0.00065814,0.00058017,0.0000257
 5,-0.00014407,0.00207289,0.01218561,-0.01570578,-0.00331969,-0.0122000
 7,0.01726780,0.01929221,0.14583517,0.00049212,-0.00055332,0.00009179,-
 0.00011166,-0.00052676,0.00078310,0.02108380,0.12647395,-0.22973448,0.
 00000031,-0.00025318,0.00018298,-0.00059972,-0.00003257,0.00155189,0.0
 0065667,-0.00014053,0.00086687,0.00220423,0.01570578,-0.02025065,-0.00
 083666,-0.00161959,0.00107336,-0.02278923,-0.13904469,0.24548886,-0.02
 315321,-0.02464528,0.02829052,0.00433336,-0.00591192,0.00319829,-0.000
 30760,0.00026533,-0.00022801,-0.05315465,-0.01070676,0.02033790,0.0005
 8853,0.00106032,-0.00137115,-0.00043977,0.00060932,-0.00015119,0.00005
 397,-0.00004001,0.00003062,-0.00013100,0.00004323,-0.00012615,0.000160
 31,0.00018331,-0.00015098,0.06522902,-0.01404111,-0.01014693,0.0114811
 2,0.00218555,0.00007575,-0.00168057,-0.00000408,0.00032360,-0.00025008
 ,-0.01364608,-0.12577223,0.11078670,-0.00101981,0.00087820,0.00003272,
 -0.00034775,0.00014808,0.00003860,0.00000264,-0.00006292,0.00000928,-0
 .00010886,0.00001535,-0.00002856,0.00021816,-0.00003186,-0.00001496,0.
 02661203,0.13588438,0.00692422,0.00146833,0.00688217,-0.00141938,0.000
 07526,0.00116571,0.00010277,-0.00046688,0.00039126,0.02343529,0.112315
 93,-0.22219965,0.00129443,-0.00052058,-0.00025620,-0.00010868,0.000026
 47,-0.00064118,-0.00004194,0.00000917,-0.00001029,0.00012851,0.0000322
 9,-0.00003894,-0.00024871,-0.00004474,-0.00002247,-0.03100426,-0.12662
 684,0.23550789,-0.02315321,-0.02464528,-0.02829052,0.00433336,-0.00591
 192,-0.00319829,-0.00030760,0.00026533,0.00022801,-0.05315465,-0.01070
 676,-0.02033790,-0.00043977,0.00060932,0.00015119,0.00058853,0.0010603
 2,0.00137115,0.00016031,0.00018331,0.00015098,-0.00013100,0.00004323,0
 .00012615,0.00005397,-0.00004001,-0.00003062,0.00235485,0.00294894,0.0
 0186784,0.06522902,-0.01404111,-0.01014693,-0.01148112,0.00218555,0.00
 007575,0.00168057,-0.00000408,0.00032360,0.00025008,-0.01364608,-0.125
 77223,-0.11078670,-0.00034775,0.00014808,-0.00003860,-0.00101981,0.000
 87820,-0.00003272,0.00021816,-0.00003186,0.00001496,-0.00010886,0.0000
 1535,0.00002856,0.00000264,-0.00006292,-0.00000928,0.00294894,0.010891
 49,0.01498896,0.02661203,0.13588438,-0.00692422,-0.00146833,0.00688217
 ,0.00141938,-0.00007526,0.00116571,-0.00010277,0.00046688,0.00039126,-
 0.02343529,-0.11231593,-0.22219965,0.00010868,-0.00002647,-0.00064118,
 -0.00129443,0.00052058,-0.00025620,0.00024871,0.00004474,-0.00002247,-
 0.00012851,-0.00003229,-0.00003894,0.00004194,-0.00000917,-0.00001029,
 -0.00186784,-0.01498896,-0.02198013,0.03100426,0.12662684,0.23550789,-
 0.03411740,0.02555241,0.,-0.00317033,-0.00554330,0.,-0.00096207,0.0017
 6335,0.,-0.14865400,0.12641924,0.,0.00003112,0.00015595,-0.00029577,0.
 00003112,0.00015595,0.00029577,0.00003733,-0.00002810,-0.00008173,-0.0
 0059229,-0.00033065,0.,0.00003733,-0.00002810,0.00008173,0.00446618,-0
 .00279964,-0.00093008,0.00446618,-0.00279964,0.00093008,0.17842683,-0.
 01274898,0.01473389,0.,-0.00217343,-0.00008405,0.,-0.00067571,0.000626
 13,0.,0.13933966,-0.22219138,0.,-0.00019868,0.00018039,-0.00029792,-0.
 00019868,0.00018039,0.00029792,0.00010156,0.00003765,-0.00001515,-0.00
 019276,-0.00014531,0.,0.00010156,0.00003765,0.00001515,0.00958149,-0.0
 1220290,-0.00125736,0.00958149,-0.01220290,0.00125736,-0.14251750,0.23
 103045,0.,0.,0.00013917,0.,0.,0.00000090,0.,0.,0.00061924,0.,0.,-0.051
 09819,0.00021360,-0.00038808,0.00033035,-0.00021360,0.00038808,0.00033
 035,0.00010187,0.00003814,-0.00002094,0.,0.,0.00000728,-0.00010187,-0.
 00003814,-0.00002094,-0.01695775,0.02124154,0.00120185,0.01695775,-0.0
 2124154,0.00120185,0.,0.,0.04730910\\0.00000001,0.00000004,0.,0.000000
 08,0.00000003,0.,0.00000009,-0.00000019,0.,-0.00000001,0.00000025,0.,-
 0.00000012,-0.00000005,0.00000005,-0.00000012,-0.00000005,-0.00000005,
 0.00000008,-0.00000018,0.,-0.00000010,-0.00000022,0.,0.00000008,-0.000
 00018,0.,-0.00000003,0.00000016,0.00000005,-0.00000003,0.00000016,-0.0
 0000005,0.00000008,0.00000023,0.\\\@


 ABOVE ALL I AM AN OPTIMIST FOR NUMBER THEORY,
 AND I HOLD THE HOPE THAT WE MAY NOT BE FAR FROM
 A TIME WHEN IRREFUTABLE ARITHMETIC WILL CELEBRATE
 ITS TRIUMPHS IN PHYSICS AND CHEMISTRY.
   -- HERMANN MINKOWSKI, 1905
 Job cpu time:       0 days  0 hours 43 minutes 47.1 seconds.
 Elapsed time:       0 days  0 hours  2 minutes 12.2 seconds.
 File lengths (MBytes):  RWF=   1312 Int=      0 D2E=      0 Chk=     32 Scr=     32
 Normal termination of Gaussian 16 at Mon Mar 11 15:45:40 2019.
