 Entering Gaussian System, Link 0=g16
 Input=XOBKSJJDNFUZPF-UHFFFAOYSA-N_36by10.0_tor01_a1.com
 Output=XOBKSJJDNFUZPF-UHFFFAOYSA-N_36by10.0_tor01_a1.log
 Initial command:
 /shared/centos7/gaussian/g16/l1.exe "/scratch/underkoffler.c/gaussian_scratch/Gau-2315.inp" -scrdir="/scratch/underkoffler.c/gaussian_scratch/"
 Entering Link 1 = /shared/centos7/gaussian/g16/l1.exe PID=      2316.
  
 Copyright (c) 1988,1990,1992,1993,1995,1998,2003,2009,2016,
            Gaussian, Inc.  All Rights Reserved.
  
 This is part of the Gaussian(R) 16 program.  It is based on
 the Gaussian(R) 09 system (copyright 2009, Gaussian, Inc.),
 the Gaussian(R) 03 system (copyright 2003, Gaussian, Inc.),
 the Gaussian(R) 98 system (copyright 1998, Gaussian, Inc.),
 the Gaussian(R) 94 system (copyright 1995, Gaussian, Inc.),
 the Gaussian 92(TM) system (copyright 1992, Gaussian, Inc.),
 the Gaussian 90(TM) system (copyright 1990, Gaussian, Inc.),
 the Gaussian 88(TM) system (copyright 1988, Gaussian, Inc.),
 the Gaussian 86(TM) system (copyright 1986, Carnegie Mellon
 University), and the Gaussian 82(TM) system (copyright 1983,
 Carnegie Mellon University). Gaussian is a federally registered
 trademark of Gaussian, Inc.
  
 This software contains proprietary and confidential information,
 including trade secrets, belonging to Gaussian, Inc.
  
 This software is provided under written license and may be
 used, copied, transmitted, or stored only in accord with that
 written license.
  
 The following legend is applicable only to US Government
 contracts under FAR:
  
                    RESTRICTED RIGHTS LEGEND
  
 Use, reproduction and disclosure by the US Government is
 subject to restrictions as set forth in subparagraphs (a)
 and (c) of the Commercial Computer Software - Restricted
 Rights clause in FAR 52.227-19.
  
 Gaussian, Inc.
 340 Quinnipiac St., Bldg. 40, Wallingford CT 06492
  
  
 ---------------------------------------------------------------
 Warning -- This program may not be used in any manner that
 competes with the business of Gaussian, Inc. or will provide
 assistance to any competitor of Gaussian, Inc.  The licensee
 of this program is prohibited from giving any competitor of
 Gaussian, Inc. access to this program.  By using this program,
 the user acknowledges that Gaussian, Inc. is engaged in the
 business of creating and licensing software in the field of
 computational chemistry and represents and warrants to the
 licensee that it is not a competitor of Gaussian, Inc. and that
 it will not use this program in any manner prohibited above.
 ---------------------------------------------------------------
  

 Cite this work as:
 Gaussian 16, Revision A.03,
 M. J. Frisch, G. W. Trucks, H. B. Schlegel, G. E. Scuseria, 
 M. A. Robb, J. R. Cheeseman, G. Scalmani, V. Barone, 
 G. A. Petersson, H. Nakatsuji, X. Li, M. Caricato, A. V. Marenich, 
 J. Bloino, B. G. Janesko, R. Gomperts, B. Mennucci, H. P. Hratchian, 
 J. V. Ortiz, A. F. Izmaylov, J. L. Sonnenberg, D. Williams-Young, 
 F. Ding, F. Lipparini, F. Egidi, J. Goings, B. Peng, A. Petrone, 
 T. Henderson, D. Ranasinghe, V. G. Zakrzewski, J. Gao, N. Rega, 
 G. Zheng, W. Liang, M. Hada, M. Ehara, K. Toyota, R. Fukuda, 
 J. Hasegawa, M. Ishida, T. Nakajima, Y. Honda, O. Kitao, H. Nakai, 
 T. Vreven, K. Throssell, J. A. Montgomery, Jr., J. E. Peralta, 
 F. Ogliaro, M. J. Bearpark, J. J. Heyd, E. N. Brothers, K. N. Kudin, 
 V. N. Staroverov, T. A. Keith, R. Kobayashi, J. Normand, 
 K. Raghavachari, A. P. Rendell, J. C. Burant, S. S. Iyengar, 
 J. Tomasi, M. Cossi, J. M. Millam, M. Klene, C. Adamo, R. Cammi, 
 J. W. Ochterski, R. L. Martin, K. Morokuma, O. Farkas, 
 J. B. Foresman, and D. J. Fox, Gaussian, Inc., Wallingford CT, 2016.
 
 ******************************************
 Gaussian 16:  EM64L-G16RevA.03 25-Dec-2016
                11-Mar-2019 
 ******************************************
 %nprocshared=20
 Will use up to   20 processors via shared memory.
 %mem=5GB
 ----------------------------------------------
 #p m062x/6-311+g(2df,2p) Opt=(CalcFC,ModRedun)
 ----------------------------------------------
 1/10=4,18=120,19=15,26=3,38=1/1,3;
 2/9=110,12=2,17=6,18=5,40=1/2;
 3/5=4,6=6,7=214,11=2,25=1,30=1,71=2,74=-55,140=1/1,2,3;
 4//1;
 5/5=2,38=5/2;
 8/6=4,10=90,11=11/1;
 11/6=1,8=1,9=11,15=111,16=1/1,2,10;
 10/6=1,13=1/2;
 6/7=2,8=2,9=2,10=2,28=1/1;
 7/10=1,18=20,25=1/1,2,3,16;
 1/10=4,18=20,19=15,26=3/3(2);
 2/9=110/2;
 99//99;
 2/9=110/2;
 3/5=4,6=6,7=214,11=2,25=1,30=1,71=1,74=-55/1,2,3;
 4/5=5,16=3,69=1/1;
 5/5=2,38=5/2;
 7//1,2,3,16;
 1/18=20,19=15,26=3/3(-5);
 2/9=110/2;
 6/7=2,8=2,9=2,10=2,19=2,28=1/1;
 99/9=1/99;
 Leave Link    1 at Mon Mar 11 19:44:07 2019, MaxMem=   671088640 cpu:              39.8 elap:               2.1
 (Enter /shared/centos7/gaussian/g16/l101.exe)
 ----------------------------------------
 Gaussian Input Prepared from Scan Object
 ----------------------------------------
 Symbolic Z-matrix:
 Charge =  0 Multiplicity = 1
 O                     0.50321  -0.4985    0. 
 C                    -0.48782   0.50067   0. 
 C                    -1.84491  -0.16517   0. 
 C                     1.80074   0.03294   0. 
 H                    -0.36872   1.14036  -0.88432 
 H                    -0.36872   1.14036   0.88432 
 H                    -1.95706  -0.79204  -0.88316 
 H                    -2.6366    0.58298   0. 
 H                    -1.95706  -0.79204   0.88316 
 H                     1.97736   0.64872  -0.88908 
 H                     1.97736   0.64872   0.88908 
 H                     2.49991  -0.79966   0. 
 
 The following ModRedundant input section has been read:
 B       4      10 B                                                           
 B       3       7 B                                                           
 B       2       5 B                                                           
 B       2       6 B                                                           
 B       3       9 B                                                           
 B       4      12 B                                                           
 B       1       4 B                                                           
 B       2       3 B                                                           
 B       1       2 B                                                           
 B       4      11 B                                                           
 B       3       8 B                                                           
 D       4       1       2       6 S  36 10.000                                
 
 ITRead=  0  0  0  0  0  0  0  0  0  0  0  0
 MicOpt= -1 -1 -1 -1 -1 -1 -1 -1 -1 -1 -1 -1
 NAtoms=     12 NQM=       12 NQMF=       0 NMMI=      0 NMMIF=      0
                NMic=       0 NMicF=      0.
                    Isotopes and Nuclear Properties:
 (Nuclear quadrupole moments (NQMom) in fm**2, nuclear magnetic moments (NMagM)
  in nuclear magnetons)

  Atom         1           2           3           4           5           6           7           8           9          10
 IAtWgt=          16          12          12          12           1           1           1           1           1           1
 AtmWgt=  15.9949146  12.0000000  12.0000000  12.0000000   1.0078250   1.0078250   1.0078250   1.0078250   1.0078250   1.0078250
 NucSpn=           0           0           0           0           1           1           1           1           1           1
 AtZEff=  -0.0000000  -0.0000000  -0.0000000  -0.0000000  -0.0000000  -0.0000000  -0.0000000  -0.0000000  -0.0000000  -0.0000000
 NQMom=    0.0000000   0.0000000   0.0000000   0.0000000   0.0000000   0.0000000   0.0000000   0.0000000   0.0000000   0.0000000
 NMagM=    0.0000000   0.0000000   0.0000000   0.0000000   2.7928460   2.7928460   2.7928460   2.7928460   2.7928460   2.7928460
 AtZNuc=   8.0000000   6.0000000   6.0000000   6.0000000   1.0000000   1.0000000   1.0000000   1.0000000   1.0000000   1.0000000

  Atom        11          12
 IAtWgt=           1           1
 AtmWgt=   1.0078250   1.0078250
 NucSpn=           1           1
 AtZEff=  -0.0000000  -0.0000000
 NQMom=    0.0000000   0.0000000
 NMagM=    2.7928460   2.7928460
 AtZNuc=   1.0000000   1.0000000
 Leave Link  101 at Mon Mar 11 19:44:07 2019, MaxMem=   671088640 cpu:               5.4 elap:               0.4
 (Enter /shared/centos7/gaussian/g16/l103.exe)

 GradGradGradGradGradGradGradGradGradGradGradGradGradGradGradGradGradGrad
 Berny optimization.
 Initialization pass.
                           ----------------------------
                           !    Initial Parameters    !
                           ! (Angstroms and Degrees)  !
 --------------------------                            --------------------------
 ! Name  Definition              Value          Derivative Info.                !
 --------------------------------------------------------------------------------
 ! R1    R(1,2)                  1.4073         calculate D2E/DX2 analytically  !
 ! R2    R(1,4)                  1.4021         calculate D2E/DX2 analytically  !
 ! R3    R(2,3)                  1.5116         calculate D2E/DX2 analytically  !
 ! R4    R(2,5)                  1.0979         calculate D2E/DX2 analytically  !
 ! R5    R(2,6)                  1.0979         calculate D2E/DX2 analytically  !
 ! R6    R(3,7)                  1.0888         calculate D2E/DX2 analytically  !
 ! R7    R(3,8)                  1.0893         calculate D2E/DX2 analytically  !
 ! R8    R(3,9)                  1.0888         calculate D2E/DX2 analytically  !
 ! R9    R(4,10)                 1.0958         calculate D2E/DX2 analytically  !
 ! R10   R(4,11)                 1.0958         calculate D2E/DX2 analytically  !
 ! R11   R(4,12)                 1.0872         calculate D2E/DX2 analytically  !
 ! A1    A(2,1,4)              112.4926         calculate D2E/DX2 analytically  !
 ! A2    A(1,2,3)              108.6312         calculate D2E/DX2 analytically  !
 ! A3    A(1,2,5)              109.7115         calculate D2E/DX2 analytically  !
 ! A4    A(1,2,6)              109.7115         calculate D2E/DX2 analytically  !
 ! A5    A(3,2,5)              110.734          calculate D2E/DX2 analytically  !
 ! A6    A(3,2,6)              110.734          calculate D2E/DX2 analytically  !
 ! A7    A(5,2,6)              107.3082         calculate D2E/DX2 analytically  !
 ! A8    A(2,3,7)              110.2472         calculate D2E/DX2 analytically  !
 ! A9    A(2,3,8)              110.4851         calculate D2E/DX2 analytically  !
 ! A10   A(2,3,9)              110.2472         calculate D2E/DX2 analytically  !
 ! A11   A(7,3,8)              108.6975         calculate D2E/DX2 analytically  !
 ! A12   A(7,3,9)              108.4116         calculate D2E/DX2 analytically  !
 ! A13   A(8,3,9)              108.6975         calculate D2E/DX2 analytically  !
 ! A14   A(1,4,10)             111.2311         calculate D2E/DX2 analytically  !
 ! A15   A(1,4,11)             111.2311         calculate D2E/DX2 analytically  !
 ! A16   A(1,4,12)             107.7487         calculate D2E/DX2 analytically  !
 ! A17   A(10,4,11)            108.4525         calculate D2E/DX2 analytically  !
 ! A18   A(10,4,12)            109.0673         calculate D2E/DX2 analytically  !
 ! A19   A(11,4,12)            109.0673         calculate D2E/DX2 analytically  !
 ! D1    D(4,1,2,3)            180.0            calculate D2E/DX2 analytically  !
 ! D2    D(4,1,2,5)             58.8248         calculate D2E/DX2 analytically  !
 ! D3    D(4,1,2,6)            -58.8248         Scan                            !
 ! D4    D(2,1,4,10)           -60.5062         calculate D2E/DX2 analytically  !
 ! D5    D(2,1,4,11)            60.5062         calculate D2E/DX2 analytically  !
 ! D6    D(2,1,4,12)           180.0            calculate D2E/DX2 analytically  !
 ! D7    D(1,2,3,7)            -59.8308         calculate D2E/DX2 analytically  !
 ! D8    D(1,2,3,8)            180.0            calculate D2E/DX2 analytically  !
 ! D9    D(1,2,3,9)             59.8308         calculate D2E/DX2 analytically  !
 ! D10   D(5,2,3,7)             60.714          calculate D2E/DX2 analytically  !
 ! D11   D(5,2,3,8)            -59.4552         calculate D2E/DX2 analytically  !
 ! D12   D(5,2,3,9)           -179.6244         calculate D2E/DX2 analytically  !
 ! D13   D(6,2,3,7)            179.6244         calculate D2E/DX2 analytically  !
 ! D14   D(6,2,3,8)             59.4552         calculate D2E/DX2 analytically  !
 ! D15   D(6,2,3,9)            -60.714          calculate D2E/DX2 analytically  !
 --------------------------------------------------------------------------------
 Trust Radius=3.00D-01 FncErr=1.00D-07 GrdErr=1.00D-06 EigMax=2.50D+02 EigMin=1.00D-04
 Number of optimizations in scan=  37
 Number of steps in this run=     55 maximum allowed number of steps=    100.
 GradGradGradGradGradGradGradGradGradGradGradGradGradGradGradGradGradGrad

 Leave Link  103 at Mon Mar 11 19:44:07 2019, MaxMem=   671088640 cpu:               0.3 elap:               0.0
 (Enter /shared/centos7/gaussian/g16/l202.exe)
                          Input orientation:                          
 ---------------------------------------------------------------------
 Center     Atomic      Atomic             Coordinates (Angstroms)
 Number     Number       Type             X           Y           Z
 ---------------------------------------------------------------------
      1          8           0        0.503207   -0.498499    0.000000
      2          6           0       -0.487818    0.500666    0.000000
      3          6           0       -1.844906   -0.165175    0.000000
      4          6           0        1.800739    0.032944    0.000000
      5          1           0       -0.368719    1.140363   -0.884320
      6          1           0       -0.368719    1.140363    0.884320
      7          1           0       -1.957059   -0.792041   -0.883161
      8          1           0       -2.636602    0.582984    0.000000
      9          1           0       -1.957059   -0.792041    0.883161
     10          1           0        1.977358    0.648723   -0.889084
     11          1           0        1.977358    0.648723    0.889084
     12          1           0        2.499913   -0.799658    0.000000
 ---------------------------------------------------------------------
                    Distance matrix (angstroms):
                    1          2          3          4          5
     1  O    0.000000
     2  C    1.407289   0.000000
     3  C    2.371654   1.511633   0.000000
     4  C    1.402148   2.335863   3.651024   0.000000
     5  H    2.056246   1.097915   2.159995   2.591321   0.000000
     6  H    2.056246   1.097915   2.159995   2.591321   1.768639
     7  H    2.630409   2.147029   1.088812   3.947356   2.501402
     8  H    3.320844   2.150360   1.089276   4.471302   2.497196
     9  H    2.630409   2.147029   1.088812   3.947356   3.062841
    10  H    2.068746   2.624782   4.007818   1.095832   2.397042
    11  H    2.068746   2.624782   4.007818   1.095832   2.981735
    12  H    2.019289   3.258432   4.390902   1.087230   3.574178
                    6          7          8          9         10
     6  H    0.000000
     7  H    3.062841   0.000000
     8  H    2.497196   1.769871   0.000000
     9  H    2.501402   1.766322   1.769871   0.000000
    10  H    2.981735   4.189925   4.699300   4.549317   0.000000
    11  H    2.397042   4.549317   4.699300   4.189925   1.778167
    12  H    3.574178   4.543636   5.319350   4.543636   1.778016
                   11         12
    11  H    0.000000
    12  H    1.778016   0.000000
 Stoichiometry    C3H8O
 Framework group  CS[SG(C3H2O),X(H6)]
 Deg. of freedom    18
 Full point group                 CS      NOp   2
 Largest Abelian subgroup         CS      NOp   2
 Largest concise Abelian subgroup CS      NOp   2
                         Standard orientation:                         
 ---------------------------------------------------------------------
 Center     Atomic      Atomic             Coordinates (Angstroms)
 Number     Number       Type             X           Y           Z
 ---------------------------------------------------------------------
      1          8           0       -0.012524   -0.708207    0.000000
      2          6           0        0.000000    0.699027    0.000000
      3          6           0        1.436656    1.169190    0.000000
      4          6           0       -1.312732   -1.233068    0.000000
      5          1           0       -0.531722    1.074083    0.884320
      6          1           0       -0.531722    1.074083   -0.884320
      7          1           0        1.954449    0.798476    0.883161
      8          1           0        1.481583    2.257540    0.000000
      9          1           0        1.954449    0.798476   -0.883161
     10          1           0       -1.868962   -0.915283    0.889084
     11          1           0       -1.868962   -0.915283   -0.889084
     12          1           0       -1.232462   -2.317331    0.000000
 ---------------------------------------------------------------------
 Rotational constants (GHZ):          28.5218634           4.1909818           3.9230564
 Leave Link  202 at Mon Mar 11 19:44:07 2019, MaxMem=   671088640 cpu:               0.2 elap:               0.0
 (Enter /shared/centos7/gaussian/g16/l301.exe)
 Standard basis: 6-311+G(2df,2p) (5D, 7F)
 Ernie: Thresh=  0.10000D-02 Tol=  0.10000D-05 Strict=F.
 There are   149 symmetry adapted cartesian basis functions of A'  symmetry.
 There are    79 symmetry adapted cartesian basis functions of A"  symmetry.
 There are   133 symmetry adapted basis functions of A'  symmetry.
 There are    75 symmetry adapted basis functions of A"  symmetry.
   208 basis functions,   296 primitive gaussians,   228 cartesian basis functions
    17 alpha electrons       17 beta electrons
       nuclear repulsion energy       134.1591950911 Hartrees.
 IExCor= 4336 DFT=T Ex+Corr=M062X ExCW=0 ScaHFX=  0.540000
 ScaDFX=  1.000000  1.000000  1.000000  1.000000 ScalE2=  1.000000  1.000000
 IRadAn=      5 IRanWt=     -1 IRanGd=            0 ICorTp=0 IEmpDi=  4
 NAtoms=   12 NActive=   12 NUniq=    9 SFac= 1.78D+00 NAtFMM=   60 NAOKFM=F Big=F
 Integral buffers will be    131072 words long.
 Raffenetti 2 integral format.
 Two-electron integral symmetry is turned on.
 Leave Link  301 at Mon Mar 11 19:44:07 2019, MaxMem=   671088640 cpu:               1.1 elap:               0.1
 (Enter /shared/centos7/gaussian/g16/l302.exe)
 NPDir=0 NMtPBC=     1 NCelOv=     1 NCel=       1 NClECP=     1 NCelD=      1
         NCelK=      1 NCelE2=     1 NClLst=     1 CellRange=     0.0.
 One-electron integrals computed using PRISM.
 One-electron integral symmetry used in STVInt
 NBasis=   208 RedAO= T EigKep=  7.85D-05  NBF=   133    75
 NBsUse=   208 1.00D-06 EigRej= -1.00D+00 NBFU=   133    75
 Precomputing XC quadrature grid using
 IXCGrd= 4 IRadAn=           5 IRanWt=          -1 IRanGd=           0 AccXCQ= 0.00D+00.
 Generated NRdTot=       0 NPtTot=           0 NUsed=           0 NTot=          32
 NSgBfM=   228   228   228   228   228 MxSgAt=    12 MxSgA2=    12.
 Leave Link  302 at Mon Mar 11 19:44:07 2019, MaxMem=   671088640 cpu:               4.3 elap:               0.2
 (Enter /shared/centos7/gaussian/g16/l303.exe)
 DipDrv:  MaxL=1.
 Leave Link  303 at Mon Mar 11 19:44:07 2019, MaxMem=   671088640 cpu:               0.6 elap:               0.1
 (Enter /shared/centos7/gaussian/g16/l401.exe)
 ExpMin= 4.38D-02 ExpMax= 8.59D+03 ExpMxC= 1.30D+03 IAcc=3 IRadAn=         5 AccDes= 0.00D+00
 Harris functional with IExCor= 1009 and IRadAn=       5 diagonalized for initial guess.
 HarFok:  IExCor= 1009 AccDes= 0.00D+00 IRadAn=         5 IDoV= 1 UseB2=F ITyADJ=14
 ICtDFT=  3500011 ScaDFX=  1.000000  1.000000  1.000000  1.000000
 FoFCou: FMM=F IPFlag=           0 FMFlag=      100000 FMFlg1=           0
         NFxFlg=           0 DoJE=T BraDBF=F KetDBF=T FulRan=T
         wScrn=  0.000000 ICntrl=       500 IOpCl=  0 I1Cent=   200000004 NGrid=           0
         NMat0=    1 NMatS0=      1 NMatT0=    0 NMatD0=    1 NMtDS0=    0 NMtDT0=    0
 Petite list used in FoFCou.
 Harris En= -194.272795308625    
 JPrj=0 DoOrth=F DoCkMO=F.
 Initial guess orbital symmetries:
       Occupied  (A') (A') (A') (A') (A') (A') (A') (A') (A') (A")
                 (A') (A") (A') (A') (A") (A') (A")
       Virtual   (A') (A') (A') (A") (A') (A') (A') (A") (A') (A')
                 (A") (A") (A') (A") (A') (A') (A") (A') (A') (A')
                 (A') (A') (A') (A") (A') (A') (A') (A") (A') (A")
                 (A') (A') (A") (A') (A") (A') (A") (A') (A") (A')
                 (A') (A") (A') (A') (A') (A') (A") (A') (A") (A')
                 (A') (A") (A') (A") (A') (A') (A") (A") (A') (A")
                 (A') (A") (A') (A") (A') (A") (A') (A') (A') (A")
                 (A') (A') (A") (A') (A') (A") (A') (A") (A') (A")
                 (A") (A') (A') (A') (A') (A') (A") (A') (A') (A')
                 (A") (A') (A") (A') (A') (A") (A") (A') (A') (A")
                 (A') (A') (A') (A') (A") (A') (A") (A") (A") (A')
                 (A') (A') (A") (A') (A") (A') (A") (A') (A") (A")
                 (A') (A') (A') (A") (A") (A') (A") (A') (A') (A")
                 (A') (A') (A") (A') (A') (A") (A') (A") (A') (A')
                 (A') (A") (A') (A') (A") (A') (A') (A") (A") (A')
                 (A") (A') (A') (A') (A') (A") (A") (A') (A") (A")
                 (A') (A') (A") (A') (A') (A") (A') (A") (A') (A')
                 (A') (A') (A") (A') (A") (A') (A") (A") (A") (A')
                 (A') (A') (A") (A') (A") (A') (A') (A') (A') (A')
                 (A')
 The electronic state of the initial guess is 1-A'.
 Leave Link  401 at Mon Mar 11 19:44:08 2019, MaxMem=   671088640 cpu:               9.5 elap:               0.5
 (Enter /shared/centos7/gaussian/g16/l502.exe)
 Keep R1 ints in memory in symmetry-blocked form, NReq=355207208.
 FoFCou: FMM=F IPFlag=           0 FMFlag=           0 FMFlg1=           0
         NFxFlg=           0 DoJE=F BraDBF=F KetDBF=F FulRan=T
         wScrn=  0.000000 ICntrl=       600 IOpCl=  0 I1Cent=           0 NGrid=           0
         NMat0=    1 NMatS0=  21736 NMatT0=    0 NMatD0=    1 NMtDS0=    0 NMtDT0=    0
 Petite list used in FoFCou.
 Closed shell SCF:
 Using DIIS extrapolation, IDIIS=  1040.
 NGot=   671088640 LenX=   552009815 LenY=   551957390
 Requested convergence on RMS density matrix=1.00D-08 within 128 cycles.
 Requested convergence on MAX density matrix=1.00D-06.
 Requested convergence on             energy=1.00D-06.
 No special actions if energy rises.

 Cycle   1  Pass 1  IDiag  1:
 E= -194.165625638713    
 DIIS: error= 2.96D-02 at cycle   1 NSaved=   1.
 NSaved= 1 IEnMin= 1 EnMin= -194.165625638713     IErMin= 1 ErrMin= 2.96D-02
 ErrMax= 2.96D-02  0.00D+00 EMaxC= 1.00D-01 BMatC= 1.79D-01 BMatP= 1.79D-01
 IDIUse=3 WtCom= 7.04D-01 WtEn= 2.96D-01
 Coeff-Com:  0.100D+01
 Coeff-En:   0.100D+01
 Coeff:      0.100D+01
 Gap=     0.323 Goal=   None    Shift=    0.000
 GapD=    0.323 DampG=1.000 DampE=0.500 DampFc=0.5000 IDamp=-1.
 Damping current iteration by 5.00D-01
 RMSDP=2.33D-03 MaxDP=1.12D-01              OVMax= 1.50D-01

 Cycle   2  Pass 1  IDiag  1:
 E= -194.243422571748     Delta-E=       -0.077796933036 Rises=F Damp=T
 DIIS: error= 5.81D-03 at cycle   2 NSaved=   2.
 NSaved= 2 IEnMin= 2 EnMin= -194.243422571748     IErMin= 2 ErrMin= 5.81D-03
 ErrMax= 5.81D-03  0.00D+00 EMaxC= 1.00D-01 BMatC= 1.20D-02 BMatP= 1.79D-01
 IDIUse=3 WtCom= 9.42D-01 WtEn= 5.81D-02
 Coeff-Com: -0.133D+00 0.113D+01
 Coeff-En:   0.000D+00 0.100D+01
 Coeff:     -0.126D+00 0.113D+01
 Gap=     0.368 Goal=   None    Shift=    0.000
 RMSDP=6.03D-04 MaxDP=1.14D-02 DE=-7.78D-02 OVMax= 7.44D-02

 Cycle   3  Pass 1  IDiag  1:
 E= -194.313668929046     Delta-E=       -0.070246357297 Rises=F Damp=F
 DIIS: error= 3.41D-03 at cycle   3 NSaved=   3.
 NSaved= 3 IEnMin= 3 EnMin= -194.313668929046     IErMin= 3 ErrMin= 3.41D-03
 ErrMax= 3.41D-03  0.00D+00 EMaxC= 1.00D-01 BMatC= 2.57D-03 BMatP= 1.20D-02
 IDIUse=3 WtCom= 9.66D-01 WtEn= 3.41D-02
 Coeff-Com: -0.847D-01 0.340D+00 0.745D+00
 Coeff-En:   0.000D+00 0.000D+00 0.100D+01
 Coeff:     -0.818D-01 0.328D+00 0.753D+00
 Gap=     0.345 Goal=   None    Shift=    0.000
 RMSDP=1.77D-04 MaxDP=9.93D-03 DE=-7.02D-02 OVMax= 1.46D-02

 Cycle   4  Pass 1  IDiag  1:
 E= -194.315003639614     Delta-E=       -0.001334710568 Rises=F Damp=F
 DIIS: error= 1.69D-03 at cycle   4 NSaved=   4.
 NSaved= 4 IEnMin= 4 EnMin= -194.315003639614     IErMin= 4 ErrMin= 1.69D-03
 ErrMax= 1.69D-03  0.00D+00 EMaxC= 1.00D-01 BMatC= 8.11D-04 BMatP= 2.57D-03
 IDIUse=3 WtCom= 9.83D-01 WtEn= 1.69D-02
 Coeff-Com: -0.302D-01 0.802D-01 0.393D+00 0.557D+00
 Coeff-En:   0.000D+00 0.000D+00 0.196D+00 0.804D+00
 Coeff:     -0.297D-01 0.789D-01 0.390D+00 0.561D+00
 Gap=     0.350 Goal=   None    Shift=    0.000
 RMSDP=6.89D-05 MaxDP=4.18D-03 DE=-1.33D-03 OVMax= 4.96D-03

 Cycle   5  Pass 1  IDiag  1:
 E= -194.315555514084     Delta-E=       -0.000551874470 Rises=F Damp=F
 DIIS: error= 2.38D-04 at cycle   5 NSaved=   5.
 NSaved= 5 IEnMin= 5 EnMin= -194.315555514084     IErMin= 5 ErrMin= 2.38D-04
 ErrMax= 2.38D-04  0.00D+00 EMaxC= 1.00D-01 BMatC= 8.89D-06 BMatP= 8.11D-04
 IDIUse=3 WtCom= 9.98D-01 WtEn= 2.38D-03
 Coeff-Com: -0.301D-02 0.467D-02 0.688D-01 0.153D+00 0.776D+00
 Coeff-En:   0.000D+00 0.000D+00 0.000D+00 0.000D+00 0.100D+01
 Coeff:     -0.300D-02 0.466D-02 0.687D-01 0.153D+00 0.777D+00
 Gap=     0.350 Goal=   None    Shift=    0.000
 RMSDP=1.22D-05 MaxDP=3.67D-04 DE=-5.52D-04 OVMax= 6.26D-04

 Cycle   6  Pass 1  IDiag  1:
 E= -194.315561746537     Delta-E=       -0.000006232454 Rises=F Damp=F
 DIIS: error= 4.69D-05 at cycle   6 NSaved=   6.
 NSaved= 6 IEnMin= 6 EnMin= -194.315561746537     IErMin= 6 ErrMin= 4.69D-05
 ErrMax= 4.69D-05  0.00D+00 EMaxC= 1.00D-01 BMatC= 6.02D-07 BMatP= 8.89D-06
 IDIUse=1 WtCom= 1.00D+00 WtEn= 0.00D+00
 Coeff-Com:  0.351D-03-0.178D-02 0.783D-02 0.337D-01 0.268D+00 0.692D+00
 Coeff:      0.351D-03-0.178D-02 0.783D-02 0.337D-01 0.268D+00 0.692D+00
 Gap=     0.350 Goal=   None    Shift=    0.000
 RMSDP=2.89D-06 MaxDP=1.73D-04 DE=-6.23D-06 OVMax= 1.96D-04

 Cycle   7  Pass 1  IDiag  1:
 E= -194.315562270989     Delta-E=       -0.000000524452 Rises=F Damp=F
 DIIS: error= 1.90D-05 at cycle   7 NSaved=   7.
 NSaved= 7 IEnMin= 7 EnMin= -194.315562270989     IErMin= 7 ErrMin= 1.90D-05
 ErrMax= 1.90D-05  0.00D+00 EMaxC= 1.00D-01 BMatC= 5.16D-08 BMatP= 6.02D-07
 IDIUse=1 WtCom= 1.00D+00 WtEn= 0.00D+00
 Coeff-Com:  0.580D-03-0.125D-02-0.791D-02-0.108D-01-0.327D-01 0.198D+00
 Coeff-Com:  0.854D+00
 Coeff:      0.580D-03-0.125D-02-0.791D-02-0.108D-01-0.327D-01 0.198D+00
 Coeff:      0.854D+00
 Gap=     0.350 Goal=   None    Shift=    0.000
 RMSDP=1.38D-06 MaxDP=4.75D-05 DE=-5.24D-07 OVMax= 6.62D-05

 Cycle   8  Pass 1  IDiag  1:
 E= -194.315562321893     Delta-E=       -0.000000050904 Rises=F Damp=F
 DIIS: error= 1.99D-06 at cycle   8 NSaved=   8.
 NSaved= 8 IEnMin= 8 EnMin= -194.315562321893     IErMin= 8 ErrMin= 1.99D-06
 ErrMax= 1.99D-06  0.00D+00 EMaxC= 1.00D-01 BMatC= 4.42D-10 BMatP= 5.16D-08
 IDIUse=1 WtCom= 1.00D+00 WtEn= 0.00D+00
 Coeff-Com:  0.360D-04-0.738D-04-0.976D-03-0.176D-02-0.838D-02 0.285D-02
 Coeff-Com:  0.753D-01 0.933D+00
 Coeff:      0.360D-04-0.738D-04-0.976D-03-0.176D-02-0.838D-02 0.285D-02
 Coeff:      0.753D-01 0.933D+00
 Gap=     0.350 Goal=   None    Shift=    0.000
 RMSDP=2.01D-07 MaxDP=6.25D-06 DE=-5.09D-08 OVMax= 1.06D-05

 Cycle   9  Pass 1  IDiag  1:
 E= -194.315562322492     Delta-E=       -0.000000000599 Rises=F Damp=F
 DIIS: error= 3.27D-07 at cycle   9 NSaved=   9.
 NSaved= 9 IEnMin= 9 EnMin= -194.315562322492     IErMin= 9 ErrMin= 3.27D-07
 ErrMax= 3.27D-07  0.00D+00 EMaxC= 1.00D-01 BMatC= 2.99D-11 BMatP= 4.42D-10
 IDIUse=1 WtCom= 1.00D+00 WtEn= 0.00D+00
 Coeff-Com: -0.223D-04 0.477D-04 0.209D-03 0.251D-03 0.685D-03-0.808D-02
 Coeff-Com: -0.312D-01 0.138D+00 0.900D+00
 Coeff:     -0.223D-04 0.477D-04 0.209D-03 0.251D-03 0.685D-03-0.808D-02
 Coeff:     -0.312D-01 0.138D+00 0.900D+00
 Gap=     0.350 Goal=   None    Shift=    0.000
 RMSDP=5.04D-08 MaxDP=1.28D-06 DE=-5.99D-10 OVMax= 2.53D-06

 Cycle  10  Pass 1  IDiag  1:
 E= -194.315562322530     Delta-E=       -0.000000000038 Rises=F Damp=F
 DIIS: error= 8.16D-08 at cycle  10 NSaved=  10.
 NSaved=10 IEnMin=10 EnMin= -194.315562322530     IErMin=10 ErrMin= 8.16D-08
 ErrMax= 8.16D-08  0.00D+00 EMaxC= 1.00D-01 BMatC= 1.82D-12 BMatP= 2.99D-11
 IDIUse=1 WtCom= 1.00D+00 WtEn= 0.00D+00
 Coeff-Com: -0.390D-05 0.897D-05 0.570D-04 0.856D-04 0.370D-03-0.147D-02
 Coeff-Com: -0.800D-02-0.223D-02 0.180D+00 0.831D+00
 Coeff:     -0.390D-05 0.897D-05 0.570D-04 0.856D-04 0.370D-03-0.147D-02
 Coeff:     -0.800D-02-0.223D-02 0.180D+00 0.831D+00
 Gap=     0.350 Goal=   None    Shift=    0.000
 RMSDP=8.60D-09 MaxDP=3.53D-07 DE=-3.75D-11 OVMax= 6.06D-07

 SCF Done:  E(RM062X) =  -194.315562323     A.U. after   10 cycles
            NFock= 10  Conv=0.86D-08     -V/T= 2.0039
 KE= 1.935635002583D+02 PE=-7.216205224356D+02 EE= 1.995822647637D+02
 Leave Link  502 at Mon Mar 11 19:44:16 2019, MaxMem=   671088640 cpu:             143.0 elap:               8.0
 (Enter /shared/centos7/gaussian/g16/l801.exe)
 DoSCS=F DFT=T ScalE2(SS,OS)=  1.000000  1.000000
 Range of M.O.s used for correlation:     1   208
 NBasis=   208 NAE=    17 NBE=    17 NFC=     0 NFV=     0
 NROrb=    208 NOA=    17 NOB=    17 NVA=   191 NVB=   191

 **** Warning!!: The largest alpha MO coefficient is  0.38070813D+02

 Leave Link  801 at Mon Mar 11 19:44:16 2019, MaxMem=   671088640 cpu:               0.4 elap:               0.0
 (Enter /shared/centos7/gaussian/g16/l1101.exe)
 Using compressed storage, NAtomX=    12.
 Will process     13 centers per pass.
 Leave Link 1101 at Mon Mar 11 19:44:16 2019, MaxMem=   671088640 cpu:               4.8 elap:               0.3
 (Enter /shared/centos7/gaussian/g16/l1102.exe)
 Symmetrizing basis deriv contribution to polar:
 IMax=3 JMax=2 DiffMx= 0.00D+00
 Leave Link 1102 at Mon Mar 11 19:44:16 2019, MaxMem=   671088640 cpu:               0.6 elap:               0.1
 (Enter /shared/centos7/gaussian/g16/l1110.exe)
 Forming Gx(P) for the SCF density, NAtomX=    12.
 Integral derivatives from FoFJK, PRISM(SPDF).
 Do as many integral derivatives as possible in FoFJK.
 G2DrvN: MDV=     671087640.
 G2DrvN: will do    13 centers at a time, making    1 passes.
 Calling FoFCou, ICntrl=  3107 FMM=F I1Cent=   0 AccDes= 0.00D+00.
 FoFJK:  IHMeth= 1 ICntrl=    3107 DoSepK=F KAlg= 0 I1Cent=           0 FoldK=F
 IRaf=         0 NMat=       1 IRICut=       1 DoRegI=T DoRafI=F ISym2E= 1 IDoP0=0 IntGTp=1.
 FoFCou: FMM=F IPFlag=           0 FMFlag=      100000 FMFlg1=           0
         NFxFlg=           0 DoJE=F BraDBF=F KetDBF=F FulRan=T
         wScrn=  0.000000 ICntrl=      3107 IOpCl=  0 I1Cent=           0 NGrid=           0
         NMat0=    1 NMatS0=      1 NMatT0=    0 NMatD0=    1 NMtDS0=    0 NMtDT0=    0
 Petite list used in FoFCou.
 End of G2Drv F.D. properties file   721 does not exist.
 End of G2Drv F.D. properties file   722 does not exist.
 End of G2Drv F.D. properties file   788 does not exist.
 Leave Link 1110 at Mon Mar 11 19:44:31 2019, MaxMem=   671088640 cpu:             285.3 elap:              14.3
 (Enter /shared/centos7/gaussian/g16/l1002.exe)
 Minotr:  Closed shell wavefunction.
          IDoAtm=111111111111
          Direct CPHF calculation.
          Differentiating once with respect to nuclear coordinates.
          Using symmetry in CPHF.
          Requested convergence is 1.0D-08 RMS, and 1.0D-07 maximum.
          Secondary convergence is 1.0D-12 RMS, and 1.0D-12 maximum.
          NewPWx=T KeepS1=F KeepF1=F KeepIn=T MapXYZ=F SortEE=F KeepMc=T.
         3654 words used for storage of precomputed grid.
 Keep R1 ints in memory in symmetry-blocked form, NReq=355212614.
 FoFCou: FMM=F IPFlag=           0 FMFlag=           0 FMFlg1=           0
         NFxFlg=           0 DoJE=F BraDBF=F KetDBF=F FulRan=T
         wScrn=  0.000000 ICntrl=       600 IOpCl=  0 I1Cent=           0 NGrid=           0
         NMat0=    1 NMatS0=  21736 NMatT0=    0 NMatD0=    1 NMtDS0=    0 NMtDT0=    0
 Petite list used in FoFCou.
          MDV=     671088640 using IRadAn=       1.
          Solving linear equations simultaneously, MaxMat=       0.
          There are    30 degrees of freedom in the 1st order CPHF.  IDoFFX=4 NUNeed=    30.
     27 vectors produced by pass  0 Test12= 1.08D-14 3.33D-09 XBig12= 5.83D-02 6.03D-02.
 AX will form    27 AO Fock derivatives at one time.
     27 vectors produced by pass  1 Test12= 1.08D-14 3.33D-09 XBig12= 2.36D-03 1.27D-02.
     27 vectors produced by pass  2 Test12= 1.08D-14 3.33D-09 XBig12= 1.17D-04 2.03D-03.
     27 vectors produced by pass  3 Test12= 1.08D-14 3.33D-09 XBig12= 1.03D-06 2.10D-04.
     27 vectors produced by pass  4 Test12= 1.08D-14 3.33D-09 XBig12= 7.45D-09 1.62D-05.
     27 vectors produced by pass  5 Test12= 1.08D-14 3.33D-09 XBig12= 4.62D-11 1.28D-06.
     15 vectors produced by pass  6 Test12= 1.08D-14 3.33D-09 XBig12= 2.00D-13 6.24D-08.
      1 vectors produced by pass  7 Test12= 1.08D-14 3.33D-09 XBig12= 8.13D-16 4.05D-09.
 InvSVY:  IOpt=1 It=  1 EMax= 2.78D-16
 Solved reduced A of dimension   178 with    30 vectors.
 FullF1:  Do perturbations      4 to      30.
 End of Minotr F.D. properties file   721 does not exist.
 End of Minotr F.D. properties file   722 does not exist.
 End of Minotr F.D. properties file   788 does not exist.
 Leave Link 1002 at Mon Mar 11 19:45:04 2019, MaxMem=   671088640 cpu:             658.6 elap:              33.1
 (Enter /shared/centos7/gaussian/g16/l601.exe)
 Copying SCF densities to generalized density rwf, IOpCl= 0 IROHF=0.

 **********************************************************************

            Population analysis using the SCF density.

 **********************************************************************

 Orbital symmetries:
       Occupied  (A') (A') (A') (A') (A') (A') (A') (A') (A") (A')
                 (A') (A") (A') (A') (A") (A') (A")
       Virtual   (A') (A') (A') (A") (A') (A') (A") (A') (A') (A")
                 (A') (A') (A") (A') (A") (A') (A') (A") (A') (A')
                 (A') (A") (A') (A') (A') (A') (A') (A") (A") (A')
                 (A') (A") (A') (A') (A") (A") (A') (A") (A') (A')
                 (A") (A') (A') (A') (A') (A') (A") (A') (A") (A')
                 (A') (A') (A") (A") (A') (A') (A") (A") (A') (A")
                 (A') (A') (A") (A") (A') (A') (A") (A') (A") (A')
                 (A') (A') (A") (A') (A') (A") (A') (A') (A") (A")
                 (A") (A') (A') (A') (A') (A') (A") (A') (A') (A')
                 (A") (A') (A") (A') (A') (A") (A") (A') (A') (A")
                 (A') (A') (A') (A') (A") (A') (A") (A") (A") (A')
                 (A') (A') (A") (A') (A") (A') (A") (A') (A") (A")
                 (A') (A') (A') (A") (A") (A') (A') (A") (A') (A")
                 (A') (A') (A") (A') (A') (A") (A') (A") (A') (A')
                 (A') (A") (A') (A') (A") (A') (A') (A") (A") (A')
                 (A") (A') (A') (A') (A') (A") (A") (A') (A") (A")
                 (A') (A') (A") (A') (A') (A') (A") (A") (A') (A')
                 (A') (A") (A') (A") (A') (A") (A') (A") (A") (A')
                 (A') (A') (A") (A') (A") (A') (A') (A') (A') (A')
                 (A')
 The electronic state is 1-A'.
 Alpha  occ. eigenvalues --  -19.62202 -10.57944 -10.57356 -10.52191  -1.16025
 Alpha  occ. eigenvalues --   -0.86131  -0.76609  -0.69404  -0.56380  -0.56068
 Alpha  occ. eigenvalues --   -0.52856  -0.48994  -0.44916  -0.42470  -0.41738
 Alpha  occ. eigenvalues --   -0.38932  -0.33087
 Alpha virt. eigenvalues --    0.01886   0.03050   0.04216   0.04357   0.05576
 Alpha virt. eigenvalues --    0.07100   0.07353   0.08626   0.09775   0.09970
 Alpha virt. eigenvalues --    0.13210   0.14348   0.18373   0.19233   0.19538
 Alpha virt. eigenvalues --    0.21274   0.22105   0.22553   0.24400   0.25307
 Alpha virt. eigenvalues --    0.26563   0.28552   0.28809   0.29443   0.30438
 Alpha virt. eigenvalues --    0.35366   0.37701   0.41805   0.44313   0.44501
 Alpha virt. eigenvalues --    0.47880   0.51038   0.51275   0.51582   0.54663
 Alpha virt. eigenvalues --    0.55917   0.56301   0.56816   0.57798   0.59170
 Alpha virt. eigenvalues --    0.60943   0.62572   0.64637   0.67266   0.68512
 Alpha virt. eigenvalues --    0.70120   0.74959   0.78102   0.81542   0.86493
 Alpha virt. eigenvalues --    0.87444   0.90188   0.90706   0.91950   0.97229
 Alpha virt. eigenvalues --    0.99977   1.05277   1.06086   1.07759   1.08789
 Alpha virt. eigenvalues --    1.11127   1.13968   1.14195   1.16602   1.17759
 Alpha virt. eigenvalues --    1.20277   1.21546   1.22557   1.25563   1.26281
 Alpha virt. eigenvalues --    1.28306   1.32262   1.33012   1.36629   1.39762
 Alpha virt. eigenvalues --    1.41109   1.41630   1.43374   1.44256   1.44824
 Alpha virt. eigenvalues --    1.48183   1.49007   1.51182   1.52096   1.57302
 Alpha virt. eigenvalues --    1.59602   1.60369   1.61703   1.74765   1.81312
 Alpha virt. eigenvalues --    2.03063   2.05789   2.10892   2.22058   2.37213
 Alpha virt. eigenvalues --    2.37603   2.46523   2.47063   2.48709   2.58338
 Alpha virt. eigenvalues --    2.61070   2.64431   2.70002   2.80312   2.85479
 Alpha virt. eigenvalues --    2.87947   2.96688   2.97731   3.03004   3.06524
 Alpha virt. eigenvalues --    3.08457   3.09230   3.10576   3.13850   3.14325
 Alpha virt. eigenvalues --    3.17146   3.17185   3.20627   3.26911   3.32810
 Alpha virt. eigenvalues --    3.35381   3.36009   3.37967   3.39260   3.41924
 Alpha virt. eigenvalues --    3.43901   3.50810   3.51689   3.55508   3.57366
 Alpha virt. eigenvalues --    3.60733   3.65963   3.66111   3.70853   3.76356
 Alpha virt. eigenvalues --    3.81109   3.82270   3.87010   3.88467   3.91980
 Alpha virt. eigenvalues --    3.95009   3.98816   4.02756   4.05839   4.08064
 Alpha virt. eigenvalues --    4.10503   4.14305   4.17678   4.20598   4.22164
 Alpha virt. eigenvalues --    4.22429   4.23958   4.25679   4.29093   4.31392
 Alpha virt. eigenvalues --    4.34286   4.40411   4.43182   4.48010   4.50096
 Alpha virt. eigenvalues --    4.51961   4.55863   4.57172   4.64920   4.91627
 Alpha virt. eigenvalues --    5.13088   5.21131   5.24770   5.31374   5.41949
 Alpha virt. eigenvalues --    5.50021   5.51824   5.56586   5.58947   5.59341
 Alpha virt. eigenvalues --    5.65830   5.66807   5.84010   5.87957   6.24397
 Alpha virt. eigenvalues --    6.47908   6.72468   7.19389   7.20272   7.32246
 Alpha virt. eigenvalues --    7.68704   7.76603  24.36534  24.43886  24.49310
 Alpha virt. eigenvalues --   50.17625
          Condensed to atoms (all electrons):
               1          2          3          4          5          6
     1  O    8.296472   0.094323  -0.094855   0.123210  -0.052685  -0.052685
     2  C    0.094323   5.080775   0.318969  -0.088757   0.445036   0.445036
     3  C   -0.094855   0.318969   5.082153  -0.030488  -0.046101  -0.046101
     4  C    0.123210  -0.088757  -0.030488   4.940076   0.002049   0.002049
     5  H   -0.052685   0.445036  -0.046101   0.002049   0.574496  -0.055389
     6  H   -0.052685   0.445036  -0.046101   0.002049  -0.055389   0.574496
     7  H   -0.002762  -0.029690   0.405502   0.000067  -0.008222   0.006689
     8  H    0.011818  -0.036073   0.416242   0.001015  -0.003922  -0.003922
     9  H   -0.002762  -0.029690   0.405502   0.000067   0.006689  -0.008222
    10  H   -0.048706  -0.003700  -0.003033   0.437650   0.008174  -0.003658
    11  H   -0.048706  -0.003700  -0.003033   0.437650  -0.003658   0.008174
    12  H   -0.055767   0.012261   0.002139   0.425877   0.000049   0.000049
               7          8          9         10         11         12
     1  O   -0.002762   0.011818  -0.002762  -0.048706  -0.048706  -0.055767
     2  C   -0.029690  -0.036073  -0.029690  -0.003700  -0.003700   0.012261
     3  C    0.405502   0.416242   0.405502  -0.003033  -0.003033   0.002139
     4  C    0.000067   0.001015   0.000067   0.437650   0.437650   0.425877
     5  H   -0.008222  -0.003922   0.006689   0.008174  -0.003658   0.000049
     6  H    0.006689  -0.003922  -0.008222  -0.003658   0.008174   0.000049
     7  H    0.544553  -0.027207  -0.030263  -0.000029  -0.000009   0.000010
     8  H   -0.027207   0.543365  -0.027207   0.000011   0.000011   0.000016
     9  H   -0.030263  -0.027207   0.544553  -0.000009  -0.000029   0.000010
    10  H   -0.000029   0.000011  -0.000009   0.579485  -0.053033  -0.025866
    11  H   -0.000009   0.000011  -0.000029  -0.053033   0.579485  -0.025866
    12  H    0.000010   0.000016   0.000010  -0.025866  -0.025866   0.539010
 Mulliken charges:
               1
     1  O   -0.166897
     2  C   -0.204790
     3  C   -0.406897
     4  C   -0.250464
     5  H    0.133484
     6  H    0.133484
     7  H    0.141361
     8  H    0.125852
     9  H    0.141361
    10  H    0.112714
    11  H    0.112714
    12  H    0.128078
 Sum of Mulliken charges =  -0.00000
 Mulliken charges with hydrogens summed into heavy atoms:
               1
     1  O   -0.166897
     2  C    0.062177
     3  C    0.001677
     4  C    0.103042
 APT charges:
               1
     1  O   -0.070423
     2  C   -0.574984
     3  C   -1.139702
     4  C   -1.172930
     5  H    0.333340
     6  H    0.333340
     7  H    0.331797
     8  H    0.471261
     9  H    0.331797
    10  H    0.336849
    11  H    0.336849
    12  H    0.482807
 Sum of APT charges =  -0.00000
 APT charges with hydrogens summed into heavy atoms:
               1
     1  O   -0.070423
     2  C    0.091697
     3  C   -0.004848
     4  C   -0.016426
 Electronic spatial extent (au):  <R**2>=            366.6244
 Charge=              0.0000 electrons
 Dipole moment (field-independent basis, Debye):
    X=             -0.9829    Y=              0.7742    Z=              0.0000  Tot=              1.2511
 Quadrupole moment (field-independent basis, Debye-Ang):
   XX=            -25.8521   YY=            -25.9120   ZZ=            -26.7051
   XY=              1.8454   XZ=             -0.0000   YZ=             -0.0000
 Traceless Quadrupole moment (field-independent basis, Debye-Ang):
   XX=              0.3043   YY=              0.2444   ZZ=             -0.5487
   XY=              1.8454   XZ=             -0.0000   YZ=             -0.0000
 Octapole moment (field-independent basis, Debye-Ang**2):
  XXX=             -0.6935  YYY=             -5.1724  ZZZ=              0.0000  XYY=             -2.2556
  XXY=             -2.3782  XXZ=              0.0000  XZZ=             -0.3080  YZZ=             -0.4878
  YYZ=              0.0000  XYZ=              0.0000
 Hexadecapole moment (field-independent basis, Debye-Ang**3):
 XXXX=           -237.3278 YYYY=           -206.0214 ZZZZ=            -48.7809 XXXY=            -78.1911
 XXXZ=             -0.0000 YYYX=            -72.2114 YYYZ=             -0.0000 ZZZX=              0.0000
 ZZZY=             -0.0000 XXYY=            -76.0319 XXZZ=            -44.4274 YYZZ=            -47.1145
 XXYZ=             -0.0000 YYXZ=             -0.0000 ZZXY=            -26.6845
 N-N= 1.341591950911D+02 E-N=-7.216205159288D+02  KE= 1.935635002583D+02
 Symmetry A'   KE= 1.829075064487D+02
 Symmetry A"   KE= 1.065599380953D+01
  Exact polarizability:   0.000   0.000   0.000   0.000   0.000   0.000
 Approx polarizability:  48.439   0.777  48.929  -0.000  -0.000  46.114
 No NMR shielding tensors so no spin-rotation constants.
 Leave Link  601 at Mon Mar 11 19:45:04 2019, MaxMem=   671088640 cpu:               4.4 elap:               0.3
 (Enter /shared/centos7/gaussian/g16/l701.exe)
 ... and contract with generalized density number  0.
 Compute integral second derivatives.
 Leave Link  701 at Mon Mar 11 19:45:04 2019, MaxMem=   671088640 cpu:               6.5 elap:               0.3
 (Enter /shared/centos7/gaussian/g16/l702.exe)
 L702 exits ... SP integral derivatives will be done elsewhere.
 Leave Link  702 at Mon Mar 11 19:45:04 2019, MaxMem=   671088640 cpu:               0.3 elap:               0.0
 (Enter /shared/centos7/gaussian/g16/l703.exe)
 Integral derivatives from FoFJK, PRISM(SPDF).
 Compute integral second derivatives, UseDBF=F ICtDFT=           0.
 Calling FoFJK, ICntrl=    100147 FMM=F ISym2X=1 I1Cent= 0 IOpClX= 0 NMat=1 NMatS=1 NMatT=0.
 FoFJK:  IHMeth= 1 ICntrl=  100147 DoSepK=F KAlg= 0 I1Cent=           0 FoldK=F
 IRaf=         0 NMat=       1 IRICut=       1 DoRegI=T DoRafI=F ISym2E= 1 IDoP0=0 IntGTp=1.
 FoFCou: FMM=F IPFlag=           0 FMFlag=      100000 FMFlg1=         800
         NFxFlg=           0 DoJE=F BraDBF=F KetDBF=F FulRan=T
         wScrn=  0.000000 ICntrl=    100147 IOpCl=  0 I1Cent=           0 NGrid=           0
         NMat0=    1 NMatS0=      1 NMatT0=    0 NMatD0=    1 NMtDS0=    0 NMtDT0=    0
 Petite list used in FoFCou.
 Leave Link  703 at Mon Mar 11 19:45:24 2019, MaxMem=   671088640 cpu:             389.2 elap:              19.5
 (Enter /shared/centos7/gaussian/g16/l716.exe)
 Dipole        =-3.86685639D-01 3.04585327D-01 1.10236239D-16
 Polarizability= 0.00000000D+00 0.00000000D+00 0.00000000D+00
                 0.00000000D+00 0.00000000D+00 0.00000000D+00
 ***** Axes restored to original set *****
 -------------------------------------------------------------------
 Center     Atomic                   Forces (Hartrees/Bohr)
 Number     Number              X              Y              Z
 -------------------------------------------------------------------
      1        8          -0.000000059   -0.000000047    0.000000000
      2        6           0.000000030    0.000000046    0.000000000
      3        6          -0.000000024    0.000000140    0.000000000
      4        6           0.000000005   -0.000000181    0.000000000
      5        1           0.000000094    0.000000023    0.000000004
      6        1           0.000000094    0.000000023   -0.000000004
      7        1          -0.000000093    0.000000174   -0.000000001
      8        1           0.000000050    0.000000249    0.000000000
      9        1          -0.000000093    0.000000174    0.000000001
     10        1           0.000000041   -0.000000181   -0.000000006
     11        1           0.000000041   -0.000000181    0.000000006
     12        1          -0.000000086   -0.000000238   -0.000000000
 -------------------------------------------------------------------
 Cartesian Forces:  Max     0.000000249 RMS     0.000000099
 Force constants in Cartesian coordinates: 
                1             2             3             4             5 
      1  0.528583D+00
      2 -0.274564D-01  0.355407D+00
      3  0.000000D+00  0.000000D+00  0.100312D+00
      4 -0.155023D+00  0.568410D-01  0.000000D+00  0.511539D+00
      5  0.995282D-01 -0.187224D+00  0.000000D+00  0.354629D-01  0.547241D+00
      6  0.000000D+00  0.000000D+00 -0.663429D-01  0.000000D+00  0.000000D+00
      7 -0.403868D-01 -0.673522D-02  0.000000D+00 -0.177773D+00 -0.558313D-01
      8  0.342488D-01  0.122851D-01  0.000000D+00 -0.716920D-01 -0.116092D+00
      9  0.000000D+00  0.000000D+00  0.201251D-02  0.000000D+00  0.000000D+00
     10 -0.234121D+00 -0.438101D-01  0.000000D+00 -0.505645D-01 -0.493300D-02
     11 -0.884720D-01 -0.122223D+00  0.000000D+00  0.284836D-01  0.905435D-02
     12  0.000000D+00  0.000000D+00 -0.634899D-01  0.000000D+00  0.000000D+00
     13 -0.859513D-02  0.240995D-01 -0.208044D-01 -0.543247D-01 -0.210732D-01
     14  0.128015D-01 -0.273169D-01  0.226033D-01 -0.193990D-01 -0.121224D+00
     15 -0.537184D-02  0.436425D-02  0.634089D-02  0.263530D-01  0.108112D+00
     16 -0.859513D-02  0.240995D-01  0.208044D-01 -0.543247D-01 -0.210732D-01
     17  0.128015D-01 -0.273169D-01 -0.226033D-01 -0.193990D-01 -0.121224D+00
     18  0.537184D-02 -0.436425D-02  0.634089D-02 -0.263530D-01 -0.108112D+00
     19  0.306778D-02  0.543259D-03  0.620154D-03 -0.465292D-02 -0.197060D-01
     20  0.593739D-03  0.133287D-02  0.933254D-03 -0.123385D-02 -0.111015D-01
     21 -0.492127D-03  0.553323D-03  0.917830D-04  0.111653D-03  0.526757D-03
     22 -0.757342D-02 -0.438663D-02  0.000000D+00 -0.157197D-01  0.246987D-01
     23 -0.380790D-02 -0.715989D-03  0.000000D+00 -0.100275D-01  0.116051D-01
     24  0.000000D+00  0.000000D+00  0.739247D-03  0.000000D+00  0.000000D+00
     25  0.306778D-02  0.543259D-03 -0.620154D-03 -0.465292D-02 -0.197060D-01
     26  0.593739D-03  0.133287D-02 -0.933254D-03 -0.123385D-02 -0.111015D-01
     27  0.492127D-03 -0.553323D-03  0.917828D-04 -0.111653D-03 -0.526757D-03
     28 -0.231532D-01 -0.246453D-01  0.282906D-01  0.433335D-02 -0.591193D-02
     29 -0.140411D-01 -0.101470D-01  0.114812D-01  0.218556D-02  0.757642D-04
     30  0.692422D-02  0.146834D-02  0.688216D-02 -0.141937D-02  0.752651D-04
     31 -0.231532D-01 -0.246453D-01 -0.282906D-01  0.433335D-02 -0.591193D-02
     32 -0.140411D-01 -0.101470D-01 -0.114812D-01  0.218556D-02  0.757636D-04
     33 -0.692422D-02 -0.146834D-02  0.688216D-02  0.141937D-02 -0.752655D-04
     34 -0.341174D-01  0.255525D-01  0.000000D+00 -0.317037D-02 -0.554330D-02
     35 -0.127490D-01  0.147339D-01  0.000000D+00 -0.217341D-02 -0.840598D-04
     36  0.000000D+00  0.000000D+00  0.139168D-03  0.000000D+00  0.000000D+00
                6             7             8             9            10 
      6  0.588249D+00
      7  0.000000D+00  0.516361D+00
      8  0.000000D+00 -0.390761D-01  0.570009D+00
      9 -0.830865D-01  0.000000D+00  0.000000D+00  0.583145D+00
     10  0.000000D+00 -0.197008D-02  0.264687D-02  0.000000D+00  0.532690D+00
     11  0.000000D+00  0.353258D-02 -0.417859D-02  0.000000D+00 -0.574319D-01
     12 -0.399219D-02  0.000000D+00  0.000000D+00 -0.504290D-03  0.000000D+00
     13  0.274761D-01 -0.385903D-02 -0.176198D-01  0.260922D-01  0.479088D-02
     14  0.104566D+00 -0.339110D-02 -0.711168D-02  0.118234D-01 -0.405345D-02
     15 -0.218120D+00 -0.804385D-04 -0.157582D-02  0.152204D-02  0.122622D-02
     16 -0.274761D-01 -0.385903D-02 -0.176198D-01 -0.260922D-01  0.479088D-02
     17 -0.104566D+00 -0.339110D-02 -0.711168D-02 -0.118234D-01 -0.405345D-02
     18 -0.218120D+00  0.804389D-04  0.157582D-02  0.152204D-02 -0.122622D-02
     19 -0.276158D-01 -0.486672D-01 -0.133495D-01 -0.195176D-01 -0.325307D-03
     20 -0.137557D-01 -0.152701D-01 -0.135911D+00 -0.125674D+00  0.226706D-03
     21  0.783095D-03 -0.210838D-01 -0.126474D+00 -0.229734D+00  0.000000D+00
     22  0.000000D+00 -0.189602D+00  0.133517D+00  0.000000D+00 -0.264099D-05
     23  0.000000D+00  0.136116D+00 -0.177252D+00  0.000000D+00 -0.865947D-03
     24 -0.248607D-02  0.000000D+00  0.000000D+00 -0.465438D-01  0.000000D+00
     25  0.276158D-01 -0.486672D-01 -0.133495D-01  0.195176D-01 -0.325308D-03
     26  0.137557D-01 -0.152701D-01 -0.135911D+00  0.125674D+00  0.226706D-03
     27  0.783095D-03  0.210838D-01  0.126474D+00 -0.229734D+00  0.000000D+00
     28  0.319830D-02 -0.307595D-03  0.265335D-03 -0.228010D-03 -0.531547D-01
     29 -0.168057D-02 -0.408637D-05  0.323597D-03 -0.250084D-03 -0.136461D-01
     30  0.116571D-02  0.102766D-03 -0.466886D-03  0.391258D-03  0.234353D-01
     31 -0.319830D-02 -0.307595D-03  0.265335D-03  0.228010D-03 -0.531547D-01
     32  0.168057D-02 -0.408668D-05  0.323597D-03  0.250084D-03 -0.136461D-01
     33  0.116571D-02 -0.102766D-03  0.466886D-03  0.391258D-03 -0.234353D-01
     34  0.000000D+00 -0.961963D-03  0.176334D-02  0.000000D+00 -0.148654D+00
     35  0.000000D+00 -0.675730D-03  0.626129D-03  0.000000D+00  0.139340D+00
     36  0.000000D+00  0.000000D+00  0.000000D+00  0.619232D-03  0.000000D+00
               11            12            13            14            15 
     11  0.591022D+00
     12  0.000000D+00  0.560043D+00
     13  0.376645D-02 -0.314407D-02  0.627999D-01
     14 -0.568490D-03 -0.295780D-03  0.126882D-01  0.143711D+00
     15 -0.480661D-03  0.117742D-02 -0.256007D-01 -0.123825D+00  0.230324D+00
     16  0.376645D-02  0.314407D-02  0.227683D-02  0.131265D-02  0.426814D-02
     17 -0.568491D-03  0.295780D-03  0.131265D-02  0.111694D-01  0.139637D-01
     18  0.480661D-03  0.117742D-02 -0.426814D-02 -0.139637D-01 -0.230160D-01
     19 -0.156405D-03 -0.660879D-04  0.143246D-02  0.827466D-03  0.359420D-03
     20  0.191072D-03  0.119534D-03  0.580174D-03  0.257616D-04  0.144070D-03
     21  0.253180D-03  0.182980D-03 -0.656669D-03  0.140534D-03  0.866867D-03
     22  0.166184D-02  0.000000D+00  0.786645D-03 -0.225969D-03  0.770809D-03
     23  0.815810D-03  0.000000D+00  0.869504D-03  0.409980D-03  0.258880D-03
     24  0.000000D+00  0.719653D-03 -0.111259D-03 -0.811221D-04 -0.803281D-04
     25 -0.156406D-03  0.660879D-04 -0.548774D-02 -0.238591D-02 -0.408885D-03
     26  0.191072D-03 -0.119535D-03 -0.305723D-02 -0.301027D-03 -0.658150D-03
     27 -0.253180D-03  0.182981D-03 -0.599731D-03 -0.325797D-04  0.155190D-02
     28 -0.107067D-01  0.203379D-01  0.588525D-03  0.106032D-02 -0.137116D-02
     29 -0.125772D+00  0.110787D+00 -0.101981D-02  0.878197D-03  0.327198D-04
     30  0.112316D+00 -0.222200D+00  0.129443D-02 -0.520584D-03 -0.256198D-03
     31 -0.107067D-01 -0.203379D-01 -0.439775D-03  0.609323D-03  0.151182D-03
     32 -0.125772D+00 -0.110787D+00 -0.347747D-03  0.148081D-03 -0.385981D-04
     33 -0.112316D+00 -0.222200D+00  0.108673D-03 -0.264675D-04 -0.641188D-03
     34  0.126419D+00  0.000000D+00  0.311229D-04  0.155954D-03 -0.295776D-03
     35 -0.222191D+00  0.000000D+00 -0.198682D-03  0.180384D-03 -0.297922D-03
     36  0.000000D+00 -0.510982D-01  0.213597D-03 -0.388085D-03  0.330346D-03
               16            17            18            19            20 
     16  0.627999D-01
     17  0.126882D-01  0.143711D+00
     18  0.256007D-01  0.123825D+00  0.230324D+00
     19 -0.548774D-02 -0.238591D-02  0.408885D-03  0.522194D-01
     20 -0.305723D-02 -0.301027D-03  0.658150D-03  0.192922D-01  0.145835D+00
     21  0.599731D-03  0.325797D-04  0.155190D-02  0.227892D-01  0.139045D+00
     22  0.786645D-03 -0.225969D-03 -0.770809D-03  0.298118D-02 -0.331969D-02
     23  0.869504D-03  0.409981D-03 -0.258880D-03  0.125396D-01 -0.122000D-01
     24  0.111259D-03  0.811223D-04 -0.803280D-04  0.205089D-01 -0.172678D-01
     25  0.143246D-02  0.827466D-03 -0.359420D-03 -0.819197D-03  0.207289D-02
     26  0.580174D-03  0.257616D-04 -0.144070D-03  0.207289D-02  0.121856D-01
     27  0.656669D-03 -0.140534D-03  0.866867D-03  0.220424D-02  0.157058D-01
     28 -0.439775D-03  0.609323D-03 -0.151182D-03  0.539925D-04 -0.400045D-04
     29 -0.347747D-03  0.148081D-03  0.385981D-04  0.265114D-05 -0.629137D-04
     30 -0.108673D-03  0.264675D-04 -0.641188D-03 -0.419446D-04  0.916996D-05
     31  0.588525D-03  0.106032D-02  0.137116D-02  0.160312D-03  0.183315D-03
     32 -0.101981D-02  0.878197D-03 -0.327198D-04  0.218157D-03 -0.318595D-04
     33 -0.129443D-02  0.520584D-03 -0.256198D-03  0.248711D-03  0.447363D-04
     34  0.311226D-04  0.155955D-03  0.295776D-03  0.373295D-04 -0.280991D-04
     35 -0.198682D-03  0.180384D-03  0.297922D-03  0.101557D-03  0.376528D-04
     36 -0.213597D-03  0.388085D-03  0.330346D-03  0.101867D-03  0.381448D-04
               21            22            23            24            25 
     21  0.245489D+00
     22  0.836660D-03  0.206216D+00
     23  0.161959D-02 -0.147989D+00  0.189242D+00
     24  0.107337D-02  0.000000D+00  0.000000D+00  0.456555D-01
     25 -0.220424D-02  0.298118D-02  0.125396D-01 -0.205089D-01  0.522194D-01
     26 -0.157058D-01 -0.331969D-02 -0.122000D-01  0.172678D-01  0.192922D-01
     27 -0.202506D-01 -0.836659D-03 -0.161959D-02  0.107337D-02 -0.227892D-01
     28  0.306206D-04 -0.130999D-03  0.432330D-04 -0.126156D-03  0.160312D-03
     29  0.928436D-05 -0.108855D-03  0.153459D-04 -0.285638D-04  0.218157D-03
     30 -0.102948D-04  0.128504D-03  0.322936D-04 -0.389426D-04 -0.248711D-03
     31  0.150976D-03 -0.130999D-03  0.432330D-04  0.126155D-03  0.539925D-04
     32  0.149556D-04 -0.108856D-03  0.153460D-04  0.285638D-04  0.265114D-05
     33 -0.224694D-04 -0.128505D-03 -0.322930D-04 -0.389426D-04  0.419446D-04
     34 -0.817335D-04 -0.592223D-03 -0.330664D-03  0.000000D+00  0.373300D-04
     35 -0.151493D-04 -0.192781D-03 -0.145308D-03  0.000000D+00  0.101556D-03
     36 -0.209415D-04  0.000000D+00  0.000000D+00  0.727653D-05 -0.101867D-03
               26            27            28            29            30 
     26  0.145835D+00
     27 -0.139045D+00  0.245489D+00
     28  0.183315D-03 -0.150976D-03  0.652291D-01
     29 -0.318595D-04 -0.149556D-04  0.266120D-01  0.135884D+00
     30 -0.447363D-04 -0.224694D-04 -0.310043D-01 -0.126627D+00  0.235508D+00
     31 -0.400045D-04 -0.306206D-04  0.235484D-02  0.294894D-02  0.186786D-02
     32 -0.629137D-04 -0.928436D-05  0.294894D-02  0.108915D-01  0.149890D-01
     33 -0.916996D-05 -0.102948D-04 -0.186786D-02 -0.149890D-01 -0.219802D-01
     34 -0.280992D-04  0.817333D-04  0.446618D-02 -0.279964D-02 -0.930074D-03
     35  0.376519D-04  0.151494D-04  0.958150D-02 -0.122029D-01 -0.125737D-02
     36 -0.381448D-04 -0.209414D-04 -0.169578D-01  0.212416D-01  0.120185D-02
               31            32            33            34            35 
     31  0.652291D-01
     32  0.266120D-01  0.135884D+00
     33  0.310043D-01  0.126627D+00  0.235508D+00
     34  0.446618D-02 -0.279964D-02  0.930073D-03  0.178427D+00
     35  0.958150D-02 -0.122029D-01  0.125737D-02 -0.142517D+00  0.231030D+00
     36  0.169578D-01 -0.212416D-01  0.120185D-02  0.000000D+00  0.000000D+00
               36 
     36  0.473091D-01
 FormGI is forming the generalized inverse of G from B-inverse, IUseBI=4.
 Leave Link  716 at Mon Mar 11 19:45:24 2019, MaxMem=   671088640 cpu:               0.4 elap:               0.0
 (Enter /shared/centos7/gaussian/g16/l103.exe)

 GradGradGradGradGradGradGradGradGradGradGradGradGradGradGradGradGradGrad
 Berny optimization.
 Red2BG is reusing G-inverse.
 Internal  Forces:  Max     0.000000029 RMS     0.000000009
 Search for a local minimum.
 Step number   1 out of a maximum of   55 on scan point     1 out of    37
 All quantities printed in internal units (Hartrees-Bohrs-Radians)
 RMS Force = .88170D-08 SwitMx=.10000D-02 MixMth= 2
 Mixed Optimization -- En-DIIS/RFO-DIIS
 Second derivative matrix not updated -- analytic derivatives used.
 ITU=  0
     Eigenvalues ---    0.00245   0.00610   0.04263   0.04382   0.04476
     Eigenvalues ---    0.05769   0.08142   0.08735   0.08793   0.12057
     Eigenvalues ---    0.12350   0.13091   0.13610   0.16349   0.18098
     Eigenvalues ---    0.18815   0.23118   0.25140   0.31289   0.31707
     Eigenvalues ---    0.32143   0.32519   0.33288   0.34473   0.34570
     Eigenvalues ---    0.34937   0.35262   0.40071   0.438431000.00000
     Eigenvalues --- 1000.000001000.000001000.000001000.000001000.00000
     Eigenvalues --- 1000.000001000.000001000.000001000.000001000.00000
     Eigenvalues --- 1000.000001000.000001000.000001000.000001000.00000
 RFO step:  Lambda= 0.00000000D+00 EMin= 2.45209232D-03
 Linear search not attempted -- first point.
 Iteration  1 RMS(Cart)=  0.00000023 RMS(Int)=  0.00000000
 Iteration  1 RMS(Cart)=  0.00000000 RMS(Int)=  0.00000000
 ITry= 1 IFail=0 DXMaxC= 5.63D-07 DCOld= 1.00D+10 DXMaxT= 3.00D-01 DXLimC= 3.00D+00 Rises=F
 ClnCor:  largest displacement from symmetrization is 9.83D-08 for atom    11.
 Variable       Old X    -DE/DX   Delta X   Delta X   Delta X     New X
                                 (Linear)    (Quad)   (Total)
    R1        2.65939  -0.00000   0.00000  -0.00000  -0.00000   2.65939
    R2        2.64968   0.00000   0.00000   0.00000   0.00000   2.64968
    R3        2.85657   0.00000   0.00000   0.00000   0.00000   2.85657
    R4        2.07476  -0.00000   0.00000  -0.00000  -0.00000   2.07476
    R5        2.07476  -0.00000   0.00000  -0.00000  -0.00000   2.07476
    R6        2.05756   0.00000   0.00000  -0.00000   0.00000   2.05756
    R7        2.05843   0.00000   0.00000   0.00000   0.00000   2.05843
    R8        2.05756   0.00000   0.00000  -0.00000   0.00000   2.05756
    R9        2.07082   0.00000   0.00000   0.00000   0.00000   2.07082
   R10        2.07082   0.00000   0.00000   0.00000   0.00000   2.07082
   R11        2.05457   0.00000   0.00000  -0.00000  -0.00000   2.05457
    A1        1.96337  -0.00000   0.00000  -0.00000  -0.00000   1.96337
    A2        1.89597   0.00000   0.00000   0.00000   0.00000   1.89597
    A3        1.91483  -0.00000   0.00000  -0.00000  -0.00000   1.91483
    A4        1.91483  -0.00000   0.00000  -0.00000  -0.00000   1.91483
    A5        1.93267  -0.00000   0.00000  -0.00000  -0.00000   1.93267
    A6        1.93267  -0.00000   0.00000  -0.00000  -0.00000   1.93267
    A7        1.87288   0.00000   0.00000  -0.00000  -0.00000   1.87288
    A8        1.92418   0.00000   0.00000   0.00000   0.00000   1.92418
    A9        1.92833  -0.00000   0.00000  -0.00000  -0.00000   1.92833
   A10        1.92418   0.00000   0.00000   0.00000   0.00000   1.92418
   A11        1.89713   0.00000   0.00000  -0.00000  -0.00000   1.89713
   A12        1.89214  -0.00000   0.00000   0.00000   0.00000   1.89214
   A13        1.89713   0.00000   0.00000  -0.00000  -0.00000   1.89713
   A14        1.94135  -0.00000   0.00000  -0.00000  -0.00000   1.94135
   A15        1.94135  -0.00000   0.00000  -0.00000  -0.00000   1.94135
   A16        1.88057   0.00000   0.00000   0.00000   0.00000   1.88057
   A17        1.89285   0.00000   0.00000  -0.00000   0.00000   1.89285
   A18        1.90358   0.00000   0.00000   0.00000   0.00000   1.90358
   A19        1.90358   0.00000   0.00000   0.00000   0.00000   1.90358
    D1        3.14159   0.00000   0.00000  -0.00000   0.00000   3.14159
    D2        1.02669  -0.00000   0.00000  -0.00000  -0.00000   1.02669
    D3       -1.02669   0.00000   0.00000   0.00000   0.00000  -1.02669
    D4       -1.05603   0.00000   0.00000   0.00000   0.00000  -1.05603
    D5        1.05603  -0.00000   0.00000  -0.00000  -0.00000   1.05603
    D6        3.14159  -0.00000   0.00000  -0.00000   0.00000   3.14159
    D7       -1.04424  -0.00000   0.00000  -0.00000  -0.00000  -1.04424
    D8        3.14159  -0.00000   0.00000  -0.00000   0.00000   3.14159
    D9        1.04424   0.00000   0.00000   0.00000   0.00000   1.04424
   D10        1.05966  -0.00000   0.00000  -0.00000  -0.00000   1.05966
   D11       -1.03769   0.00000   0.00000   0.00000   0.00000  -1.03769
   D12       -3.13504   0.00000   0.00000   0.00000   0.00000  -3.13504
   D13        3.13504  -0.00000   0.00000  -0.00000  -0.00000   3.13504
   D14        1.03769  -0.00000   0.00000  -0.00000  -0.00000   1.03769
   D15       -1.05966   0.00000   0.00000   0.00000   0.00000  -1.05966
         Item               Value     Threshold  Converged?
 Maximum Force            0.000000     0.000450     YES
 RMS     Force            0.000000     0.000300     YES
 Maximum Displacement     0.000001     0.001800     YES
 RMS     Displacement     0.000000     0.001200     YES
 Predicted change in Energy=-1.351857D-14
 Optimization completed.
    -- Stationary point found.
                           ----------------------------
                           !   Optimized Parameters   !
                           ! (Angstroms and Degrees)  !
 --------------------------                            --------------------------
 ! Name  Definition              Value          Derivative Info.                !
 --------------------------------------------------------------------------------
 ! R1    R(1,2)                  1.4073         -DE/DX =    0.0                 !
 ! R2    R(1,4)                  1.4021         -DE/DX =    0.0                 !
 ! R3    R(2,3)                  1.5116         -DE/DX =    0.0                 !
 ! R4    R(2,5)                  1.0979         -DE/DX =    0.0                 !
 ! R5    R(2,6)                  1.0979         -DE/DX =    0.0                 !
 ! R6    R(3,7)                  1.0888         -DE/DX =    0.0                 !
 ! R7    R(3,8)                  1.0893         -DE/DX =    0.0                 !
 ! R8    R(3,9)                  1.0888         -DE/DX =    0.0                 !
 ! R9    R(4,10)                 1.0958         -DE/DX =    0.0                 !
 ! R10   R(4,11)                 1.0958         -DE/DX =    0.0                 !
 ! R11   R(4,12)                 1.0872         -DE/DX =    0.0                 !
 ! A1    A(2,1,4)              112.4926         -DE/DX =    0.0                 !
 ! A2    A(1,2,3)              108.6312         -DE/DX =    0.0                 !
 ! A3    A(1,2,5)              109.7115         -DE/DX =    0.0                 !
 ! A4    A(1,2,6)              109.7115         -DE/DX =    0.0                 !
 ! A5    A(3,2,5)              110.734          -DE/DX =    0.0                 !
 ! A6    A(3,2,6)              110.734          -DE/DX =    0.0                 !
 ! A7    A(5,2,6)              107.3082         -DE/DX =    0.0                 !
 ! A8    A(2,3,7)              110.2472         -DE/DX =    0.0                 !
 ! A9    A(2,3,8)              110.4851         -DE/DX =    0.0                 !
 ! A10   A(2,3,9)              110.2472         -DE/DX =    0.0                 !
 ! A11   A(7,3,8)              108.6975         -DE/DX =    0.0                 !
 ! A12   A(7,3,9)              108.4116         -DE/DX =    0.0                 !
 ! A13   A(8,3,9)              108.6975         -DE/DX =    0.0                 !
 ! A14   A(1,4,10)             111.2311         -DE/DX =    0.0                 !
 ! A15   A(1,4,11)             111.2311         -DE/DX =    0.0                 !
 ! A16   A(1,4,12)             107.7487         -DE/DX =    0.0                 !
 ! A17   A(10,4,11)            108.4525         -DE/DX =    0.0                 !
 ! A18   A(10,4,12)            109.0673         -DE/DX =    0.0                 !
 ! A19   A(11,4,12)            109.0673         -DE/DX =    0.0                 !
 ! D1    D(4,1,2,3)            180.0            -DE/DX =    0.0                 !
 ! D2    D(4,1,2,5)             58.8248         -DE/DX =    0.0                 !
 ! D3    D(4,1,2,6)            -58.8248         -DE/DX =    0.0                 !
 ! D4    D(2,1,4,10)           -60.5062         -DE/DX =    0.0                 !
 ! D5    D(2,1,4,11)            60.5062         -DE/DX =    0.0                 !
 ! D6    D(2,1,4,12)           180.0            -DE/DX =    0.0                 !
 ! D7    D(1,2,3,7)            -59.8308         -DE/DX =    0.0                 !
 ! D8    D(1,2,3,8)            180.0            -DE/DX =    0.0                 !
 ! D9    D(1,2,3,9)             59.8308         -DE/DX =    0.0                 !
 ! D10   D(5,2,3,7)             60.714          -DE/DX =    0.0                 !
 ! D11   D(5,2,3,8)            -59.4552         -DE/DX =    0.0                 !
 ! D12   D(5,2,3,9)           -179.6244         -DE/DX =    0.0                 !
 ! D13   D(6,2,3,7)            179.6244         -DE/DX =    0.0                 !
 ! D14   D(6,2,3,8)             59.4552         -DE/DX =    0.0                 !
 ! D15   D(6,2,3,9)            -60.714          -DE/DX =    0.0                 !
 --------------------------------------------------------------------------------
 Lowest energy point so far.  Saving SCF results.
 Iteration  1 RMS(Cart)=  0.03018518 RMS(Int)=  0.01747673
 Iteration  2 RMS(Cart)=  0.00166056 RMS(Int)=  0.01745537
 Iteration  3 RMS(Cart)=  0.00007767 RMS(Int)=  0.01745535
 Iteration  4 RMS(Cart)=  0.00000407 RMS(Int)=  0.01745535
 Iteration  5 RMS(Cart)=  0.00000023 RMS(Int)=  0.01745535
 Iteration  1 RMS(Cart)=  0.01353204 RMS(Int)=  0.00797368
 Iteration  2 RMS(Cart)=  0.00616790 RMS(Int)=  0.00891796
 Iteration  3 RMS(Cart)=  0.00284046 RMS(Int)=  0.00987110
 Iteration  4 RMS(Cart)=  0.00131395 RMS(Int)=  0.01039106
 Iteration  5 RMS(Cart)=  0.00060904 RMS(Int)=  0.01064615
 Iteration  6 RMS(Cart)=  0.00028256 RMS(Int)=  0.01076727
 Iteration  7 RMS(Cart)=  0.00013115 RMS(Int)=  0.01082405
 Iteration  8 RMS(Cart)=  0.00006088 RMS(Int)=  0.01085054
 Iteration  9 RMS(Cart)=  0.00002827 RMS(Int)=  0.01086286
 Iteration 10 RMS(Cart)=  0.00001312 RMS(Int)=  0.01086858
 Iteration 11 RMS(Cart)=  0.00000609 RMS(Int)=  0.01087124
 Iteration 12 RMS(Cart)=  0.00000283 RMS(Int)=  0.01087248
 Iteration 13 RMS(Cart)=  0.00000131 RMS(Int)=  0.01087305
 Iteration 14 RMS(Cart)=  0.00000061 RMS(Int)=  0.01087332
 GradGradGradGradGradGradGradGradGradGradGradGradGradGradGradGradGradGrad

 Leave Link  103 at Mon Mar 11 19:45:24 2019, MaxMem=   671088640 cpu:               0.6 elap:               0.1
 (Enter /shared/centos7/gaussian/g16/l202.exe)
                          Input orientation:                          
 ---------------------------------------------------------------------
 Center     Atomic      Atomic             Coordinates (Angstroms)
 Number     Number       Type             X           Y           Z
 ---------------------------------------------------------------------
      1          8           0        0.508867   -0.506019   -0.054645
      2          6           0       -0.495461    0.479360   -0.024358
      3          6           0       -1.860376   -0.169413    0.011086
      4          6           0        1.798498    0.040370    0.014034
      5          1           0       -0.376619    1.113560   -0.912664
      6          1           0       -0.276080    1.158283    0.810763
      7          1           0       -1.998908   -0.803720   -0.863007
      8          1           0       -2.642635    0.588567    0.020007
      9          1           0       -1.961532   -0.785880    0.902866
     10          1           0        1.991547    0.709927   -0.831935
     11          1           0        1.941577    0.604606    0.942705
     12          1           0        2.508814   -0.782289   -0.014853
 ---------------------------------------------------------------------
                    Distance matrix (angstroms):
                    1          2          3          4          5
     1  O    0.000000
     2  C    1.407325   0.000000
     3  C    2.393937   1.511673   0.000000
     4  C    1.402286   2.335901   3.664884   0.000000
     5  H    2.035515   1.097917   2.168148   2.596467   0.000000
     6  H    2.033463   1.098404   2.216361   2.487645   1.726937
     7  H    2.651605   2.147087   1.088841   3.987729   2.512021
     8  H    3.337013   2.150408   1.089285   4.474843   2.506057
     9  H    2.664211   2.147078   1.088823   3.951017   3.068545
    10  H    2.069069   2.624986   4.039955   1.096010   2.403674
    11  H    2.069022   2.624891   3.990222   1.096021   3.012551
    12  H    2.019331   3.258453   4.412042   1.087268   3.567357
                    6          7          8          9         10
     6  H    0.000000
     7  H    3.101468   0.000000
     8  H    2.559386   1.769905   0.000000
     9  H    2.574685   1.766359   1.769871   0.000000
    10  H    2.835774   4.268000   4.713405   4.568787   0.000000
    11  H    2.289535   4.557566   4.676177   4.143586   1.778464
    12  H    3.493293   4.586871   5.330844   4.563575   1.778173
                   11         12
    11  H    0.000000
    12  H    1.778244   0.000000
 Stoichiometry    C3H8O
 Framework group  C1[X(C3H8O)]
 Deg. of freedom    30
 Full point group                 C1      NOp   1
 Omega: Change in point group or standard orientation.

 Old FWG=CS   [SG(C3H2O1),X(H6)]
 New FWG=C01  [X(C3H8O1)]
 RotChk:  IX=2 Diff= 1.06D+00
 Largest Abelian subgroup         C1      NOp   1
 Largest concise Abelian subgroup C1      NOp   1
                         Standard orientation:                         
 ---------------------------------------------------------------------
 Center     Atomic      Atomic             Coordinates (Angstroms)
 Number     Number       Type             X           Y           Z
 ---------------------------------------------------------------------
      1          8           0       -0.508867   -0.504831    0.038183
      2          6           0        0.490468    0.485876    0.018346
      3          6           0        1.858616   -0.155573   -0.024880
      4          6           0       -1.801269    0.035773   -0.023872
      5          1           0        0.368879    1.109609    0.913664
      6          1           0        0.267249    1.172875   -0.809119
      7          1           0        2.000782   -0.798798    0.842083
      8          1           0        2.637042    0.606395   -0.025769
      9          1           0        1.962429   -0.761625   -0.923468
     10          1           0       -1.997264    0.694954    0.829535
     11          1           0       -1.947657    0.609513   -0.946183
     12          1           0       -2.507417   -0.790728   -0.003767
 ---------------------------------------------------------------------
 Rotational constants (GHZ):          28.7598126           4.1612438           3.8996202
 Leave Link  202 at Mon Mar 11 19:45:24 2019, MaxMem=   671088640 cpu:               0.1 elap:               0.0
 (Enter /shared/centos7/gaussian/g16/l301.exe)
 Standard basis: 6-311+G(2df,2p) (5D, 7F)
 Ernie: Thresh=  0.10000D-02 Tol=  0.10000D-05 Strict=F.
 There are   228 symmetry adapted cartesian basis functions of A   symmetry.
 There are   208 symmetry adapted basis functions of A   symmetry.
   208 basis functions,   296 primitive gaussians,   228 cartesian basis functions
    17 alpha electrons       17 beta electrons
       nuclear repulsion energy       134.0376556655 Hartrees.
 IExCor= 4336 DFT=T Ex+Corr=M062X ExCW=0 ScaHFX=  0.540000
 ScaDFX=  1.000000  1.000000  1.000000  1.000000 ScalE2=  1.000000  1.000000
 IRadAn=      5 IRanWt=     -1 IRanGd=            0 ICorTp=0 IEmpDi=  4
 NAtoms=   12 NActive=   12 NUniq=   12 SFac= 1.00D+00 NAtFMM=   60 NAOKFM=F Big=F
 Integral buffers will be    131072 words long.
 Raffenetti 2 integral format.
 Two-electron integral symmetry is turned on.
 Leave Link  301 at Mon Mar 11 19:45:24 2019, MaxMem=   671088640 cpu:               0.8 elap:               0.1
 (Enter /shared/centos7/gaussian/g16/l302.exe)
 NPDir=0 NMtPBC=     1 NCelOv=     1 NCel=       1 NClECP=     1 NCelD=      1
         NCelK=      1 NCelE2=     1 NClLst=     1 CellRange=     0.0.
 One-electron integrals computed using PRISM.
 One-electron integral symmetry used in STVInt
 NBasis=   208 RedAO= T EigKep=  7.89D-05  NBF=   208
 NBsUse=   208 1.00D-06 EigRej= -1.00D+00 NBFU=   208
 Precomputing XC quadrature grid using
 IXCGrd= 4 IRadAn=           5 IRanWt=          -1 IRanGd=           0 AccXCQ= 0.00D+00.
 Generated NRdTot=       0 NPtTot=           0 NUsed=           0 NTot=          32
 NSgBfM=   228   228   228   228   228 MxSgAt=    12 MxSgA2=    12.
 Leave Link  302 at Mon Mar 11 19:45:24 2019, MaxMem=   671088640 cpu:               4.5 elap:               0.2
 (Enter /shared/centos7/gaussian/g16/l303.exe)
 DipDrv:  MaxL=1.
 Leave Link  303 at Mon Mar 11 19:45:25 2019, MaxMem=   671088640 cpu:               0.4 elap:               0.0
 (Enter /shared/centos7/gaussian/g16/l401.exe)
 Initial guess from the checkpoint file:  "/scratch/underkoffler.c/gaussian_scratch/Gau-2316.chk"
 B after Tr=     0.000000   -0.000000   -0.000000
         Rot=    0.926931   -0.000693   -0.001301    0.375229 Ang= -44.08 deg.
 Guess basis will be translated and rotated to current coordinates.
 JPrj=2 DoOrth=T DoCkMO=T.
 Generating alternative initial guess.
 ExpMin= 4.38D-02 ExpMax= 8.59D+03 ExpMxC= 1.30D+03 IAcc=2 IRadAn=         4 AccDes= 0.00D+00
 Harris functional with IExCor= 1009 and IRadAn=       4 diagonalized for initial guess.
 HarFok:  IExCor= 1009 AccDes= 0.00D+00 IRadAn=         4 IDoV= 1 UseB2=F ITyADJ=14
 ICtDFT=  3500011 ScaDFX=  1.000000  1.000000  1.000000  1.000000
 FoFCou: FMM=F IPFlag=           0 FMFlag=      100000 FMFlg1=           0
         NFxFlg=           0 DoJE=T BraDBF=F KetDBF=T FulRan=T
         wScrn=  0.000000 ICntrl=       500 IOpCl=  0 I1Cent=   200000004 NGrid=           0
         NMat0=    1 NMatS0=      1 NMatT0=    0 NMatD0=    1 NMtDS0=    0 NMtDT0=    0
 Petite list used in FoFCou.
 Harris En= -194.270333651103    
 Leave Link  401 at Mon Mar 11 19:45:25 2019, MaxMem=   671088640 cpu:               9.5 elap:               0.5
 (Enter /shared/centos7/gaussian/g16/l502.exe)
 Keep R1 ints in memory in canonical form, NReq=257412536.
 FoFCou: FMM=F IPFlag=           0 FMFlag=           0 FMFlg1=           0
         NFxFlg=           0 DoJE=F BraDBF=F KetDBF=F FulRan=T
         wScrn=  0.000000 ICntrl=       600 IOpCl=  0 I1Cent=           0 NGrid=           0
         NMat0=    1 NMatS0=  21736 NMatT0=    0 NMatD0=    1 NMtDS0=    0 NMtDT0=    0
 Symmetry not used in FoFCou.
 Two-electron integral symmetry not used.
 Closed shell SCF:
 Using DIIS extrapolation, IDIIS=  1040.
 NGot=   671088640 LenX=   434740204 LenY=   434687779
 Requested convergence on RMS density matrix=1.00D-08 within 128 cycles.
 Requested convergence on MAX density matrix=1.00D-06.
 Requested convergence on             energy=1.00D-06.
 No special actions if energy rises.

 Cycle   1  Pass 1  IDiag  1:
 E= -194.311732454087    
 DIIS: error= 2.61D-03 at cycle   1 NSaved=   1.
 NSaved= 1 IEnMin= 1 EnMin= -194.311732454087     IErMin= 1 ErrMin= 2.61D-03
 ErrMax= 2.61D-03  0.00D+00 EMaxC= 1.00D-01 BMatC= 1.91D-03 BMatP= 1.91D-03
 IDIUse=3 WtCom= 9.74D-01 WtEn= 2.61D-02
 Coeff-Com:  0.100D+01
 Coeff-En:   0.100D+01
 Coeff:      0.100D+01
 Gap=     0.627 Goal=   None    Shift=    0.000
 GapD=    0.627 DampG=2.000 DampE=1.000 DampFc=2.0000 IDamp=-1.
 RMSDP=2.73D-04 MaxDP=7.31D-03              OVMax= 1.35D-02

 Cycle   2  Pass 1  IDiag  1:
 E= -194.314248813377     Delta-E=       -0.002516359291 Rises=F Damp=F
 DIIS: error= 4.22D-04 at cycle   2 NSaved=   2.
 NSaved= 2 IEnMin= 2 EnMin= -194.314248813377     IErMin= 2 ErrMin= 4.22D-04
 ErrMax= 4.22D-04  0.00D+00 EMaxC= 1.00D-01 BMatC= 5.36D-05 BMatP= 1.91D-03
 IDIUse=3 WtCom= 9.96D-01 WtEn= 4.22D-03
 Coeff-Com: -0.129D+00 0.113D+01
 Coeff-En:   0.000D+00 0.100D+01
 Coeff:     -0.129D+00 0.113D+01
 Gap=     0.347 Goal=   None    Shift=    0.000
 RMSDP=4.91D-05 MaxDP=9.74D-04 DE=-2.52D-03 OVMax= 3.44D-03

 Cycle   3  Pass 1  IDiag  1:
 E= -194.314353519688     Delta-E=       -0.000104706311 Rises=F Damp=F
 DIIS: error= 1.17D-04 at cycle   3 NSaved=   3.
 NSaved= 3 IEnMin= 3 EnMin= -194.314353519688     IErMin= 3 ErrMin= 1.17D-04
 ErrMax= 1.17D-04  0.00D+00 EMaxC= 1.00D-01 BMatC= 5.85D-06 BMatP= 5.36D-05
 IDIUse=3 WtCom= 9.99D-01 WtEn= 1.17D-03
 Coeff-Com: -0.416D-01 0.254D+00 0.787D+00
 Coeff-En:   0.000D+00 0.000D+00 0.100D+01
 Coeff:     -0.416D-01 0.254D+00 0.788D+00
 Gap=     0.346 Goal=   None    Shift=    0.000
 RMSDP=1.28D-05 MaxDP=4.27D-04 DE=-1.05D-04 OVMax= 8.17D-04

 Cycle   4  Pass 1  IDiag  1:
 E= -194.314357889866     Delta-E=       -0.000004370178 Rises=F Damp=F
 DIIS: error= 8.13D-05 at cycle   4 NSaved=   4.
 NSaved= 4 IEnMin= 4 EnMin= -194.314357889866     IErMin= 4 ErrMin= 8.13D-05
 ErrMax= 8.13D-05  0.00D+00 EMaxC= 1.00D-01 BMatC= 2.16D-06 BMatP= 5.85D-06
 IDIUse=1 WtCom= 1.00D+00 WtEn= 0.00D+00
 Coeff-Com: -0.253D-02-0.306D-01 0.372D+00 0.661D+00
 Coeff:     -0.253D-02-0.306D-01 0.372D+00 0.661D+00
 Gap=     0.347 Goal=   None    Shift=    0.000
 RMSDP=4.88D-06 MaxDP=2.25D-04 DE=-4.37D-06 OVMax= 3.49D-04

 Cycle   5  Pass 1  IDiag  1:
 E= -194.314359536856     Delta-E=       -0.000001646990 Rises=F Damp=F
 DIIS: error= 2.21D-05 at cycle   5 NSaved=   5.
 NSaved= 5 IEnMin= 5 EnMin= -194.314359536856     IErMin= 5 ErrMin= 2.21D-05
 ErrMax= 2.21D-05  0.00D+00 EMaxC= 1.00D-01 BMatC= 1.22D-07 BMatP= 2.16D-06
[...]
           A4         108.33500 108.86384 109.26647 109.53664 109.65545
           A5         110.35639 110.43241 110.52024 110.60105 110.67927
           A6         110.53494 109.90509 109.54031 109.50486 109.74050
           A7         107.35215 107.90060 108.25727 108.35382 108.19565
           A8         110.42224 110.47270 110.48541 110.44940 110.41036
           A9         110.76870 110.69000 110.62064 110.57520 110.53014
           A10        110.00560 109.96101 109.94999 109.98563 110.06529
           A11        108.67002 108.77934 108.83712 108.85815 108.81536
           A12        108.27523 108.29273 108.31793 108.34730 108.37676
           A13        108.63518 108.58322 108.57012 108.56747 108.58642
           A14        111.43335 111.32588 111.22901 111.15882 111.13669
           A15        111.57824 111.66313 111.67235 111.59572 111.45855
           A16        107.46983 107.47207 107.51518 107.59064 107.67784
           A17        108.61353 108.58964 108.54747 108.51928 108.48655
           A18        108.82506 108.92254 109.01867 109.09040 109.13003
           A19        108.85183 108.80106 108.79725 108.83162 108.90320
           D1         120.23845 131.04559 141.53688 151.60802 161.32450
           D2          -1.65987   9.37852  20.06618  30.29564  40.08394
           D3        -118.82495-108.82486 -98.82493 -88.82494 -78.82484
           D4         -58.94880 -59.53773 -60.28774 -60.95791 -61.37976
           D5          62.65184  62.01603  61.15010  60.34128  59.76735
           D6        -178.09005-178.73709-179.57506 179.66107 179.14939
           D7         -61.92863 -62.40696 -62.53325 -62.25845 -61.67647
           D8         177.63828 177.04119 176.87960 177.18150 177.87203
           D9          57.52127  57.06807  56.97398  57.28514  57.92962
           D10         59.86578  59.17308  58.80319  58.81255  59.18172
           D11        -60.56730 -61.37878 -61.78396 -61.74751 -61.26977
           D12        179.31569 178.64810 178.31042 178.35614 178.78782
           D13        178.46475 178.10296 177.99867 178.15466 178.52597
           D14         58.03166  57.55111  57.41152  57.59461  58.07448
           D15        -62.08534 -62.42202 -62.49410 -62.30175 -61.86793
                          36        37
     Eigenvalues --    -0.31530  -0.31556
           R1           1.40778   1.40728
           R2           1.40239   1.40216
           R3           1.51238   1.51159
           R4           1.09728   1.09795
           R5           1.09775   1.09791
           R6           1.08875   1.08880
           R7           1.08933   1.08927
           R8           1.08890   1.08881
           R9           1.09556   1.09582
           R10          1.09599   1.09583
           R11          1.08726   1.08724
           A1         112.61208 112.50211
           A2         108.52734 108.62754
           A3         109.88142 109.71487
           A4         109.69236 109.70838
           A5         110.73497 110.74109
           A6         110.21124 110.73208
           A7         107.78791 107.30658
           A8         110.33487 110.24585
           A9         110.50102 110.48944
           A10        110.16220 110.24342
           A11        108.76024 108.69705
           A12        108.39921 108.41462
           A13        108.62787 108.69595
           A14        111.15794 111.23166
           A15        111.33029 111.23433
           A16        107.73450 107.74807
           A17        108.46128 108.44367
           A18        109.12514 109.07029
           A19        108.98781 109.07018
           D1         170.71471-179.99355
           D2          49.49945  58.82288
           D3         -68.82493 -58.82498
           D4         -61.16525 -60.49064
           D5          59.87607  60.51304
           D6         179.32203 180.01191
           D7         -60.86737 -59.86763
           D8         178.81812 179.96191
           D9          58.78039  59.79439
           D10         59.82117  60.68328
           D11        -60.49334 -59.48719
           D12        179.46893-179.65470
           D13        178.99462 179.59501
           D14         58.68012  59.42455
           D15        -61.35762 -60.74297
 Largest change from initial coordinates is atom    8       1.977 Angstoms.
 GradGradGradGradGradGradGradGradGradGradGradGradGradGradGradGradGradGrad

 Leave Link  103 at Mon Mar 11 20:20:59 2019, MaxMem=   671088640 cpu:               0.6 elap:               0.1
 (Enter /shared/centos7/gaussian/g16/l202.exe)
                          Input orientation:                          
 ---------------------------------------------------------------------
 Center     Atomic      Atomic             Coordinates (Angstroms)
 Number     Number       Type             X           Y           Z
 ---------------------------------------------------------------------
      1          8           0        0.634949    0.124700    0.484720
      2          6           0       -0.558563    0.166687   -0.259722
      3          6           0       -1.671411    0.654895    0.639242
      4          6           0        1.726185   -0.319658   -0.275409
      5          1           0       -0.785879   -0.833339   -0.651844
      6          1           0       -0.433882    0.834983   -1.121836
      7          1           0       -1.792934   -0.017076    1.487287
      8          1           0       -2.611980    0.699723    0.091667
      9          1           0       -1.440625    1.649083    1.018494
     10          1           0        1.558500   -1.333738   -0.655349
     11          1           0        1.912524    0.343484   -1.127684
     12          1           0        2.600808   -0.322392    0.370434
 ---------------------------------------------------------------------
                    Distance matrix (angstroms):
                    1          2          3          4          5
     1  O    0.000000
     2  C    1.407277   0.000000
     3  C    2.371557   1.511593   0.000000
     4  C    1.402158   2.335991   3.651027   0.000000
     5  H    2.056300   1.097945   2.160072   2.591531   0.000000
     6  H    2.056192   1.097909   2.159931   2.591433   1.768641
     7  H    2.630562   2.146970   1.088803   3.947512   2.501265
     8  H    3.320797   2.150378   1.089274   4.471416   2.497546
     9  H    2.629956   2.146944   1.088809   3.947001   3.062865
    10  H    2.068755   2.624834   4.007861   1.095824   2.397190
    11  H    2.068795   2.625050   4.007941   1.095834   2.982065
    12  H    2.019295   3.258515   4.390809   1.087238   3.574320
                    6          7          8          9         10
     6  H    0.000000
     7  H    3.062768   0.000000
     8  H    2.496997   1.769857   0.000000
     9  H    2.501460   1.766345   1.769849   0.000000
    10  H    2.981702   4.190059   4.699564   4.549036   0.000000
    11  H    2.397338   4.549560   4.699454   4.189782   1.778063
    12  H    3.574315   4.543737   5.319360   4.543113   1.778049
                   11         12
    11  H    0.000000
    12  H    1.778056   0.000000
 Stoichiometry    C3H8O
 Framework group  C1[X(C3H8O)]
 Deg. of freedom    30
 Full point group                 C1      NOp   1
 RotChk:  IX=0 Diff= 3.95D-15
 Largest Abelian subgroup         C1      NOp   1
 Largest concise Abelian subgroup C1      NOp   1
                         Standard orientation:                         
 ---------------------------------------------------------------------
 Center     Atomic      Atomic             Coordinates (Angstroms)
 Number     Number       Type             X           Y           Z
 ---------------------------------------------------------------------
      1          8           0       -0.503157   -0.498407    0.000060
      2          6           0        0.487883    0.500727    0.000034
      3          6           0        1.844877   -0.165216   -0.000021
      4          6           0       -1.800773    0.032855   -0.000034
      5          1           0        0.368786    1.140562    0.884292
      6          1           0        0.368793    1.140327   -0.884349
      7          1           0        1.957231   -0.791578    0.883460
      8          1           0        2.636693    0.582812   -0.000721
      9          1           0        1.956629   -0.792566   -0.882885
     10          1           0       -1.977437    0.648892    0.888853
     11          1           0       -1.977539    0.648462   -0.889211
     12          1           0       -2.499824   -0.799859    0.000208
 ---------------------------------------------------------------------
 Rotational constants (GHZ):          28.5223876           4.1909744           3.9230512
 Leave Link  202 at Mon Mar 11 20:20:59 2019, MaxMem=   671088640 cpu:               0.2 elap:               0.0
 (Enter /shared/centos7/gaussian/g16/l601.exe)
 Copying SCF densities to generalized density rwf, IOpCl= 0 IROHF=0.

 **********************************************************************

            Population analysis using the SCF density.

 **********************************************************************

 Orbital symmetries:
       Occupied  (A) (A) (A) (A) (A) (A) (A) (A) (A) (A) (A) (A)
                 (A) (A) (A) (A) (A)
       Virtual   (A) (A) (A) (A) (A) (A) (A) (A) (A) (A) (A) (A)
                 (A) (A) (A) (A) (A) (A) (A) (A) (A) (A) (A) (A)
                 (A) (A) (A) (A) (A) (A) (A) (A) (A) (A) (A) (A)
                 (A) (A) (A) (A) (A) (A) (A) (A) (A) (A) (A) (A)
                 (A) (A) (A) (A) (A) (A) (A) (A) (A) (A) (A) (A)
                 (A) (A) (A) (A) (A) (A) (A) (A) (A) (A) (A) (A)
                 (A) (A) (A) (A) (A) (A) (A) (A) (A) (A) (A) (A)
                 (A) (A) (A) (A) (A) (A) (A) (A) (A) (A) (A) (A)
                 (A) (A) (A) (A) (A) (A) (A) (A) (A) (A) (A) (A)
                 (A) (A) (A) (A) (A) (A) (A) (A) (A) (A) (A) (A)
                 (A) (A) (A) (A) (A) (A) (A) (A) (A) (A) (A) (A)
                 (A) (A) (A) (A) (A) (A) (A) (A) (A) (A) (A) (A)
                 (A) (A) (A) (A) (A) (A) (A) (A) (A) (A) (A) (A)
                 (A) (A) (A) (A) (A) (A) (A) (A) (A) (A) (A) (A)
                 (A) (A) (A) (A) (A) (A) (A) (A) (A) (A) (A) (A)
                 (A) (A) (A) (A) (A) (A) (A) (A) (A) (A) (A)
 The electronic state is 1-A.
 Alpha  occ. eigenvalues --  -19.62202 -10.57944 -10.57356 -10.52191  -1.16025
 Alpha  occ. eigenvalues --   -0.86132  -0.76609  -0.69403  -0.56379  -0.56069
 Alpha  occ. eigenvalues --   -0.52856  -0.48994  -0.44915  -0.42472  -0.41737
 Alpha  occ. eigenvalues --   -0.38931  -0.33086
 Alpha virt. eigenvalues --    0.01886   0.03050   0.04216   0.04357   0.05576
 Alpha virt. eigenvalues --    0.07100   0.07353   0.08626   0.09775   0.09969
 Alpha virt. eigenvalues --    0.13210   0.14347   0.18373   0.19233   0.19538
 Alpha virt. eigenvalues --    0.21274   0.22106   0.22552   0.24400   0.25307
 Alpha virt. eigenvalues --    0.26563   0.28553   0.28808   0.29443   0.30439
 Alpha virt. eigenvalues --    0.35367   0.37701   0.41806   0.44313   0.44500
 Alpha virt. eigenvalues --    0.47879   0.51037   0.51276   0.51583   0.54663
 Alpha virt. eigenvalues --    0.55918   0.56302   0.56816   0.57798   0.59171
 Alpha virt. eigenvalues --    0.60944   0.62572   0.64635   0.67267   0.68513
 Alpha virt. eigenvalues --    0.70121   0.74957   0.78103   0.81545   0.86491
 Alpha virt. eigenvalues --    0.87444   0.90187   0.90706   0.91949   0.97230
 Alpha virt. eigenvalues --    0.99978   1.05277   1.06086   1.07762   1.08790
 Alpha virt. eigenvalues --    1.11125   1.13971   1.14194   1.16604   1.17760
 Alpha virt. eigenvalues --    1.20276   1.21546   1.22557   1.25562   1.26281
 Alpha virt. eigenvalues --    1.28307   1.32263   1.33012   1.36630   1.39763
 Alpha virt. eigenvalues --    1.41107   1.41629   1.43376   1.44257   1.44824
 Alpha virt. eigenvalues --    1.48185   1.49007   1.51180   1.52095   1.57303
 Alpha virt. eigenvalues --    1.59601   1.60368   1.61704   1.74759   1.81313
 Alpha virt. eigenvalues --    2.03062   2.05788   2.10893   2.22061   2.37211
 Alpha virt. eigenvalues --    2.37600   2.46528   2.47063   2.48711   2.58340
 Alpha virt. eigenvalues --    2.61074   2.64428   2.70004   2.80314   2.85481
 Alpha virt. eigenvalues --    2.87948   2.96688   2.97731   3.03003   3.06526
 Alpha virt. eigenvalues --    3.08457   3.09233   3.10574   3.13851   3.14324
 Alpha virt. eigenvalues --    3.17144   3.17182   3.20627   3.26908   3.32814
 Alpha virt. eigenvalues --    3.35381   3.36012   3.37964   3.39261   3.41923
 Alpha virt. eigenvalues --    3.43905   3.50807   3.51691   3.55507   3.57366
 Alpha virt. eigenvalues --    3.60732   3.65966   3.66106   3.70853   3.76354
 Alpha virt. eigenvalues --    3.81108   3.82268   3.87012   3.88468   3.91982
 Alpha virt. eigenvalues --    3.95014   3.98821   4.02755   4.05843   4.08064
 Alpha virt. eigenvalues --    4.10504   4.14307   4.17675   4.20598   4.22165
 Alpha virt. eigenvalues --    4.22430   4.23956   4.25685   4.29097   4.31392
 Alpha virt. eigenvalues --    4.34282   4.40413   4.43183   4.48013   4.50094
 Alpha virt. eigenvalues --    4.51960   4.55867   4.57173   4.64917   4.91625
 Alpha virt. eigenvalues --    5.13089   5.21131   5.24766   5.31374   5.41951
 Alpha virt. eigenvalues --    5.50021   5.51823   5.56580   5.58949   5.59342
 Alpha virt. eigenvalues --    5.65833   5.66800   5.84008   5.87965   6.24401
 Alpha virt. eigenvalues --    6.47908   6.72470   7.19386   7.20266   7.32250
 Alpha virt. eigenvalues --    7.68714   7.76601  24.36532  24.43886  24.49317
 Alpha virt. eigenvalues --   50.17625
          Condensed to atoms (all electrons):
               1          2          3          4          5          6
     1  O    8.296478   0.094336  -0.094874   0.123205  -0.052679  -0.052702
     2  C    0.094336   5.080775   0.318920  -0.088715   0.445008   0.445082
     3  C   -0.094874   0.318920   5.082198  -0.030482  -0.046053  -0.046152
     4  C    0.123205  -0.088715  -0.030482   4.940036   0.002041   0.002060
     5  H   -0.052679   0.445008  -0.046053   0.002041   0.574483  -0.055390
     6  H   -0.052702   0.445082  -0.046152   0.002060  -0.055390   0.574508
     7  H   -0.002758  -0.029702   0.405504   0.000063  -0.008229   0.006691
     8  H    0.011820  -0.036065   0.416237   0.001015  -0.003916  -0.003927
     9  H   -0.002770  -0.029691   0.405517   0.000069   0.006687  -0.008216
    10  H   -0.048698  -0.003700  -0.003028   0.437634   0.008174  -0.003660
    11  H   -0.048705  -0.003692  -0.003041   0.437656  -0.003656   0.008174
    12  H   -0.055775   0.012254   0.002141   0.425887   0.000049   0.000048
               7          8          9         10         11         12
     1  O   -0.002758   0.011820  -0.002770  -0.048698  -0.048705  -0.055775
     2  C   -0.029702  -0.036065  -0.029691  -0.003700  -0.003692   0.012254
     3  C    0.405504   0.416237   0.405517  -0.003028  -0.003041   0.002141
     4  C    0.000063   0.001015   0.000069   0.437634   0.437656   0.425887
     5  H   -0.008229  -0.003916   0.006687   0.008174  -0.003656   0.000049
     6  H    0.006691  -0.003927  -0.008216  -0.003660   0.008174   0.000048
     7  H    0.544566  -0.027206  -0.030262  -0.000029  -0.000009   0.000010
     8  H   -0.027206   0.543359  -0.027210   0.000011   0.000011   0.000016
     9  H   -0.030262  -0.027210   0.544542  -0.000009  -0.000029   0.000010
    10  H   -0.000029   0.000011  -0.000009   0.579507  -0.053051  -0.025859
    11  H   -0.000009   0.000011  -0.000029  -0.053051   0.579478  -0.025862
    12  H    0.000010   0.000016   0.000010  -0.025859  -0.025862   0.539008
 Mulliken charges:
               1
     1  O   -0.166878
     2  C   -0.204810
     3  C   -0.406888
     4  C   -0.250469
     5  H    0.133480
     6  H    0.133484
     7  H    0.141361
     8  H    0.125854
     9  H    0.141362
    10  H    0.112706
    11  H    0.112724
    12  H    0.128073
 Sum of Mulliken charges =  -0.00000
 Mulliken charges with hydrogens summed into heavy atoms:
               1
     1  O   -0.166878
     2  C    0.062154
     3  C    0.001689
     4  C    0.103034
 Electronic spatial extent (au):  <R**2>=            366.6249
 Charge=             -0.0000 electrons
 Dipole moment (field-independent basis, Debye):
    X=             -0.1638    Y=              1.2402    Z=             -0.0002  Tot=              1.2510
 Quadrupole moment (field-independent basis, Debye-Ang):
   XX=            -24.0363   YY=            -27.7272   ZZ=            -26.7053
   XY=              0.0183   XZ=             -0.0002   YZ=              0.0003
 Traceless Quadrupole moment (field-independent basis, Debye-Ang):
   XX=              2.1200   YY=             -1.5709   ZZ=             -0.5491
   XY=              0.0183   XZ=             -0.0002   YZ=              0.0003
 Octapole moment (field-independent basis, Debye-Ang**2):
  XXX=             -6.9265  YYY=             -1.7309  ZZZ=              0.0007  XYY=             -0.4555
  XXY=             -1.6188  XXZ=             -0.0005  XZZ=             -0.5604  YZZ=             -0.1346
  YYZ=             -0.0003  XYZ=             -0.0004
 Hexadecapole moment (field-independent basis, Debye-Ang**3):
 XXXX=           -375.7947 YYYY=            -74.2808 ZZZZ=            -48.7810 XXXY=              8.7718
 XXXZ=             -0.0036 YYYX=              2.9664 YYYZ=              0.0022 ZZZX=              0.0033
 ZZZY=             -0.0004 XXYY=            -72.6684 XXZZ=            -72.4126 YYZZ=            -19.1304
 XXYZ=             -0.0031 YYXZ=             -0.0029 ZZXY=             -2.0368
 N-N= 1.341593537829D+02 E-N=-7.216209190701D+02  KE= 1.935635445105D+02
 No NMR shielding tensors so no spin-rotation constants.
 Leave Link  601 at Mon Mar 11 20:21:00 2019, MaxMem=   671088640 cpu:               5.0 elap:               0.3
 (Enter /shared/centos7/gaussian/g16/l9999.exe)
 1\1\GINC-C0215\Scan\RM062X\6-311+G(2df,2p)\C3H8O1\UNDERKOFFLER.C\11-Ma
 r-2019\0\\#p m062x/6-311+g(2df,2p) Opt=(CalcFC,ModRedun)\\Gaussian Inp
 ut Prepared from Scan Object\\0,1\O,0.6349492781,0.1247001273,0.484720
 4943\C,-0.5585631589,0.1666872703,-0.2597220217\C,-1.6714108954,0.6548
 949215,0.6392420514\C,1.7261849937,-0.3196583146,-0.2754092473\H,-0.78
 58786886,-0.833338697,-0.651844123\H,-0.4338824052,0.8349826956,-1.121
 8356023\H,-1.7929337099,-0.0170757998,1.4872870334\H,-2.6119803686,0.6
 997234009,0.0916670397\H,-1.4406248018,1.6490834472,1.018494116\H,1.55
 84996086,-1.3337381855,-0.6553493733\H,1.912524256,0.3434844827,-1.127
 6836386\H,2.6008079082,-0.3223923658,0.3704336241\\Version=EM64L-G16Re
 vA.03\State=1-A\HF=-194.3155623,-194.3152965,-194.3145526,-194.3135172
 ,-194.3124651,-194.3116807,-194.3113791,-194.3116123,-194.3122294,-194
 .3129262,-194.3134194,-194.3136568,-194.3135808,-194.3129674,-194.3117
 707,-194.3101617,-194.3084489,-194.307008,-194.3062851,-194.3067032,-1
 94.3080026,-194.3097105,-194.3114144,-194.3127535,-194.3135058,-194.31
 36726,-194.3134757,-194.3130135,-194.3123101,-194.3116518,-194.3113784
 ,-194.3116696,-194.3124665,-194.3135272,-194.3145586,-194.3152972,-194
 .315564\RMSD=8.595e-09,2.355e-09,2.840e-09,3.023e-09,2.529e-09,3.086e-
 09,3.502e-09,7.999e-09,7.477e-09,5.045e-09,6.316e-09,2.448e-09,5.819e-
 09,9.801e-09,9.494e-09,3.736e-09,3.910e-09,8.728e-09,4.108e-09,5.815e-
 09,6.036e-09,7.979e-09,5.947e-09,4.500e-09,6.614e-09,6.916e-09,9.607e-
 09,7.192e-09,4.900e-09,4.130e-09,2.636e-09,4.328e-09,3.223e-09,7.770e-
 09,4.466e-09,2.369e-09,2.846e-09\PG=C01 [X(C3H8O1)]\\@


 THERE IS MUCH PLEASURE TO BE GAINED FROM USELESS KNOWLEDGE

                                       -- BERTRAND RUSSELL
 Job cpu time:       0 days  9 hours 47 minutes 17.0 seconds.
 Elapsed time:       0 days  0 hours 36 minutes 44.1 seconds.
 File lengths (MBytes):  RWF=    272 Int=      0 D2E=      0 Chk=     32 Scr=     32
 Normal termination of Gaussian 16 at Mon Mar 11 20:21:00 2019.
