 Entering Gaussian System, Link 0=g16
 Input=XOBKSJJDNFUZPF-UHFFFAOYSA-N_36by-10.0_tor01_a1.com
 Output=XOBKSJJDNFUZPF-UHFFFAOYSA-N_36by-10.0_tor01_a1.log
 Initial command:
 /shared/centos7/gaussian/g16/l1.exe "/scratch/underkoffler.c/gaussian_scratch/Gau-8535.inp" -scrdir="/scratch/underkoffler.c/gaussian_scratch/"
 Entering Link 1 = /shared/centos7/gaussian/g16/l1.exe PID=      8536.
  
 Copyright (c) 1988,1990,1992,1993,1995,1998,2003,2009,2016,
            Gaussian, Inc.  All Rights Reserved.
  
 This is part of the Gaussian(R) 16 program.  It is based on
 the Gaussian(R) 09 system (copyright 2009, Gaussian, Inc.),
 the Gaussian(R) 03 system (copyright 2003, Gaussian, Inc.),
 the Gaussian(R) 98 system (copyright 1998, Gaussian, Inc.),
 the Gaussian(R) 94 system (copyright 1995, Gaussian, Inc.),
 the Gaussian 92(TM) system (copyright 1992, Gaussian, Inc.),
 the Gaussian 90(TM) system (copyright 1990, Gaussian, Inc.),
 the Gaussian 88(TM) system (copyright 1988, Gaussian, Inc.),
 the Gaussian 86(TM) system (copyright 1986, Carnegie Mellon
 University), and the Gaussian 82(TM) system (copyright 1983,
 Carnegie Mellon University). Gaussian is a federally registered
 trademark of Gaussian, Inc.
  
 This software contains proprietary and confidential information,
 including trade secrets, belonging to Gaussian, Inc.
  
 This software is provided under written license and may be
 used, copied, transmitted, or stored only in accord with that
 written license.
  
 The following legend is applicable only to US Government
 contracts under FAR:
  
                    RESTRICTED RIGHTS LEGEND
  
 Use, reproduction and disclosure by the US Government is
 subject to restrictions as set forth in subparagraphs (a)
 and (c) of the Commercial Computer Software - Restricted
 Rights clause in FAR 52.227-19.
  
 Gaussian, Inc.
 340 Quinnipiac St., Bldg. 40, Wallingford CT 06492
  
  
 ---------------------------------------------------------------
 Warning -- This program may not be used in any manner that
 competes with the business of Gaussian, Inc. or will provide
 assistance to any competitor of Gaussian, Inc.  The licensee
 of this program is prohibited from giving any competitor of
 Gaussian, Inc. access to this program.  By using this program,
 the user acknowledges that Gaussian, Inc. is engaged in the
 business of creating and licensing software in the field of
 computational chemistry and represents and warrants to the
 licensee that it is not a competitor of Gaussian, Inc. and that
 it will not use this program in any manner prohibited above.
 ---------------------------------------------------------------
  

 Cite this work as:
 Gaussian 16, Revision A.03,
 M. J. Frisch, G. W. Trucks, H. B. Schlegel, G. E. Scuseria, 
 M. A. Robb, J. R. Cheeseman, G. Scalmani, V. Barone, 
 G. A. Petersson, H. Nakatsuji, X. Li, M. Caricato, A. V. Marenich, 
 J. Bloino, B. G. Janesko, R. Gomperts, B. Mennucci, H. P. Hratchian, 
 J. V. Ortiz, A. F. Izmaylov, J. L. Sonnenberg, D. Williams-Young, 
 F. Ding, F. Lipparini, F. Egidi, J. Goings, B. Peng, A. Petrone, 
 T. Henderson, D. Ranasinghe, V. G. Zakrzewski, J. Gao, N. Rega, 
 G. Zheng, W. Liang, M. Hada, M. Ehara, K. Toyota, R. Fukuda, 
 J. Hasegawa, M. Ishida, T. Nakajima, Y. Honda, O. Kitao, H. Nakai, 
 T. Vreven, K. Throssell, J. A. Montgomery, Jr., J. E. Peralta, 
 F. Ogliaro, M. J. Bearpark, J. J. Heyd, E. N. Brothers, K. N. Kudin, 
 V. N. Staroverov, T. A. Keith, R. Kobayashi, J. Normand, 
 K. Raghavachari, A. P. Rendell, J. C. Burant, S. S. Iyengar, 
 J. Tomasi, M. Cossi, J. M. Millam, M. Klene, C. Adamo, R. Cammi, 
 J. W. Ochterski, R. L. Martin, K. Morokuma, O. Farkas, 
 J. B. Foresman, and D. J. Fox, Gaussian, Inc., Wallingford CT, 2016.
 
 ******************************************
 Gaussian 16:  EM64L-G16RevA.03 25-Dec-2016
                12-Mar-2019 
 ******************************************
 %nprocshared=20
 Will use up to   20 processors via shared memory.
 %mem=5GB
 ----------------------------------------------
 #p m062x/6-311+g(2df,2p) Opt=(CalcFC,ModRedun)
 ----------------------------------------------
 1/10=4,18=120,19=15,26=3,38=1/1,3;
 2/9=110,12=2,17=6,18=5,40=1/2;
 3/5=4,6=6,7=214,11=2,25=1,30=1,71=2,74=-55,140=1/1,2,3;
 4//1;
 5/5=2,38=5/2;
 8/6=4,10=90,11=11/1;
 11/6=1,8=1,9=11,15=111,16=1/1,2,10;
 10/6=1,13=1/2;
 6/7=2,8=2,9=2,10=2,28=1/1;
 7/10=1,18=20,25=1/1,2,3,16;
 1/10=4,18=20,19=15,26=3/3(2);
 2/9=110/2;
 99//99;
 2/9=110/2;
 3/5=4,6=6,7=214,11=2,25=1,30=1,71=1,74=-55/1,2,3;
 4/5=5,16=3,69=1/1;
 5/5=2,38=5/2;
 7//1,2,3,16;
 1/18=20,19=15,26=3/3(-5);
 2/9=110/2;
 6/7=2,8=2,9=2,10=2,19=2,28=1/1;
 99/9=1/99;
 Leave Link    1 at Tue Mar 12 00:33:34 2019, MaxMem=   671088640 cpu:              34.4 elap:               1.8
 (Enter /shared/centos7/gaussian/g16/l101.exe)
 ----------------------------------------
 Gaussian Input Prepared from Scan Object
 ----------------------------------------
 Symbolic Z-matrix:
 Charge =  0 Multiplicity = 1
 O                     0.50321  -0.4985    0. 
 C                    -0.48782   0.50067   0. 
 C                    -1.84491  -0.16517   0. 
 C                     1.80074   0.03294   0. 
 H                    -0.36872   1.14036  -0.88432 
 H                    -0.36872   1.14036   0.88432 
 H                    -1.95706  -0.79204  -0.88316 
 H                    -2.6366    0.58298   0. 
 H                    -1.95706  -0.79204   0.88316 
 H                     1.97736   0.64872  -0.88908 
 H                     1.97736   0.64872   0.88908 
 H                     2.49991  -0.79966   0. 
 
 The following ModRedundant input section has been read:
 B       4      10 B                                                           
 B       3       7 B                                                           
 B       2       5 B                                                           
 B       2       6 B                                                           
 B       3       9 B                                                           
 B       4      12 B                                                           
 B       1       4 B                                                           
 B       2       3 B                                                           
 B       1       2 B                                                           
 B       4      11 B                                                           
 B       3       8 B                                                           
 D       4       1       2       6 S  36 -10.00                                
 
 ITRead=  0  0  0  0  0  0  0  0  0  0  0  0
 MicOpt= -1 -1 -1 -1 -1 -1 -1 -1 -1 -1 -1 -1
 NAtoms=     12 NQM=       12 NQMF=       0 NMMI=      0 NMMIF=      0
                NMic=       0 NMicF=      0.
                    Isotopes and Nuclear Properties:
 (Nuclear quadrupole moments (NQMom) in fm**2, nuclear magnetic moments (NMagM)
  in nuclear magnetons)

  Atom         1           2           3           4           5           6           7           8           9          10
 IAtWgt=          16          12          12          12           1           1           1           1           1           1
 AtmWgt=  15.9949146  12.0000000  12.0000000  12.0000000   1.0078250   1.0078250   1.0078250   1.0078250   1.0078250   1.0078250
 NucSpn=           0           0           0           0           1           1           1           1           1           1
 AtZEff=  -0.0000000  -0.0000000  -0.0000000  -0.0000000  -0.0000000  -0.0000000  -0.0000000  -0.0000000  -0.0000000  -0.0000000
 NQMom=    0.0000000   0.0000000   0.0000000   0.0000000   0.0000000   0.0000000   0.0000000   0.0000000   0.0000000   0.0000000
 NMagM=    0.0000000   0.0000000   0.0000000   0.0000000   2.7928460   2.7928460   2.7928460   2.7928460   2.7928460   2.7928460
 AtZNuc=   8.0000000   6.0000000   6.0000000   6.0000000   1.0000000   1.0000000   1.0000000   1.0000000   1.0000000   1.0000000

  Atom        11          12
 IAtWgt=           1           1
 AtmWgt=   1.0078250   1.0078250
 NucSpn=           1           1
 AtZEff=  -0.0000000  -0.0000000
 NQMom=    0.0000000   0.0000000
 NMagM=    2.7928460   2.7928460
 AtZNuc=   1.0000000   1.0000000
 Leave Link  101 at Tue Mar 12 00:33:34 2019, MaxMem=   671088640 cpu:               5.1 elap:               0.3
 (Enter /shared/centos7/gaussian/g16/l103.exe)

 GradGradGradGradGradGradGradGradGradGradGradGradGradGradGradGradGradGrad
 Berny optimization.
 Initialization pass.
                           ----------------------------
                           !    Initial Parameters    !
                           ! (Angstroms and Degrees)  !
 --------------------------                            --------------------------
 ! Name  Definition              Value          Derivative Info.                !
 --------------------------------------------------------------------------------
 ! R1    R(1,2)                  1.4073         calculate D2E/DX2 analytically  !
 ! R2    R(1,4)                  1.4021         calculate D2E/DX2 analytically  !
 ! R3    R(2,3)                  1.5116         calculate D2E/DX2 analytically  !
 ! R4    R(2,5)                  1.0979         calculate D2E/DX2 analytically  !
 ! R5    R(2,6)                  1.0979         calculate D2E/DX2 analytically  !
 ! R6    R(3,7)                  1.0888         calculate D2E/DX2 analytically  !
 ! R7    R(3,8)                  1.0893         calculate D2E/DX2 analytically  !
 ! R8    R(3,9)                  1.0888         calculate D2E/DX2 analytically  !
 ! R9    R(4,10)                 1.0958         calculate D2E/DX2 analytically  !
 ! R10   R(4,11)                 1.0958         calculate D2E/DX2 analytically  !
 ! R11   R(4,12)                 1.0872         calculate D2E/DX2 analytically  !
 ! A1    A(2,1,4)              112.4926         calculate D2E/DX2 analytically  !
 ! A2    A(1,2,3)              108.6312         calculate D2E/DX2 analytically  !
 ! A3    A(1,2,5)              109.7115         calculate D2E/DX2 analytically  !
 ! A4    A(1,2,6)              109.7115         calculate D2E/DX2 analytically  !
 ! A5    A(3,2,5)              110.734          calculate D2E/DX2 analytically  !
 ! A6    A(3,2,6)              110.734          calculate D2E/DX2 analytically  !
 ! A7    A(5,2,6)              107.3082         calculate D2E/DX2 analytically  !
 ! A8    A(2,3,7)              110.2472         calculate D2E/DX2 analytically  !
 ! A9    A(2,3,8)              110.4851         calculate D2E/DX2 analytically  !
 ! A10   A(2,3,9)              110.2472         calculate D2E/DX2 analytically  !
 ! A11   A(7,3,8)              108.6975         calculate D2E/DX2 analytically  !
 ! A12   A(7,3,9)              108.4116         calculate D2E/DX2 analytically  !
 ! A13   A(8,3,9)              108.6975         calculate D2E/DX2 analytically  !
 ! A14   A(1,4,10)             111.2311         calculate D2E/DX2 analytically  !
 ! A15   A(1,4,11)             111.2311         calculate D2E/DX2 analytically  !
 ! A16   A(1,4,12)             107.7487         calculate D2E/DX2 analytically  !
 ! A17   A(10,4,11)            108.4525         calculate D2E/DX2 analytically  !
 ! A18   A(10,4,12)            109.0673         calculate D2E/DX2 analytically  !
 ! A19   A(11,4,12)            109.0673         calculate D2E/DX2 analytically  !
 ! D1    D(4,1,2,3)            180.0            calculate D2E/DX2 analytically  !
 ! D2    D(4,1,2,5)             58.8248         calculate D2E/DX2 analytically  !
 ! D3    D(4,1,2,6)            -58.8248         Scan                            !
 ! D4    D(2,1,4,10)           -60.5062         calculate D2E/DX2 analytically  !
 ! D5    D(2,1,4,11)            60.5062         calculate D2E/DX2 analytically  !
 ! D6    D(2,1,4,12)           180.0            calculate D2E/DX2 analytically  !
 ! D7    D(1,2,3,7)            -59.8308         calculate D2E/DX2 analytically  !
 ! D8    D(1,2,3,8)            180.0            calculate D2E/DX2 analytically  !
 ! D9    D(1,2,3,9)             59.8308         calculate D2E/DX2 analytically  !
 ! D10   D(5,2,3,7)             60.714          calculate D2E/DX2 analytically  !
 ! D11   D(5,2,3,8)            -59.4552         calculate D2E/DX2 analytically  !
 ! D12   D(5,2,3,9)           -179.6244         calculate D2E/DX2 analytically  !
 ! D13   D(6,2,3,7)            179.6244         calculate D2E/DX2 analytically  !
 ! D14   D(6,2,3,8)             59.4552         calculate D2E/DX2 analytically  !
 ! D15   D(6,2,3,9)            -60.714          calculate D2E/DX2 analytically  !
 --------------------------------------------------------------------------------
 Trust Radius=3.00D-01 FncErr=1.00D-07 GrdErr=1.00D-06 EigMax=2.50D+02 EigMin=1.00D-04
 Number of optimizations in scan=  37
 Number of steps in this run=     55 maximum allowed number of steps=    100.
 GradGradGradGradGradGradGradGradGradGradGradGradGradGradGradGradGradGrad

 Leave Link  103 at Tue Mar 12 00:33:34 2019, MaxMem=   671088640 cpu:               0.2 elap:               0.0
 (Enter /shared/centos7/gaussian/g16/l202.exe)
                          Input orientation:                          
 ---------------------------------------------------------------------
 Center     Atomic      Atomic             Coordinates (Angstroms)
 Number     Number       Type             X           Y           Z
 ---------------------------------------------------------------------
      1          8           0        0.503207   -0.498499    0.000000
      2          6           0       -0.487818    0.500666    0.000000
      3          6           0       -1.844906   -0.165175    0.000000
      4          6           0        1.800739    0.032944    0.000000
      5          1           0       -0.368719    1.140363   -0.884320
      6          1           0       -0.368719    1.140363    0.884320
      7          1           0       -1.957059   -0.792041   -0.883161
      8          1           0       -2.636602    0.582984    0.000000
      9          1           0       -1.957059   -0.792041    0.883161
     10          1           0        1.977358    0.648723   -0.889084
     11          1           0        1.977358    0.648723    0.889084
     12          1           0        2.499913   -0.799658    0.000000
 ---------------------------------------------------------------------
                    Distance matrix (angstroms):
                    1          2          3          4          5
     1  O    0.000000
     2  C    1.407289   0.000000
     3  C    2.371654   1.511633   0.000000
     4  C    1.402148   2.335863   3.651024   0.000000
     5  H    2.056246   1.097915   2.159995   2.591321   0.000000
     6  H    2.056246   1.097915   2.159995   2.591321   1.768639
     7  H    2.630409   2.147029   1.088812   3.947356   2.501402
     8  H    3.320844   2.150360   1.089276   4.471302   2.497196
     9  H    2.630409   2.147029   1.088812   3.947356   3.062841
    10  H    2.068746   2.624782   4.007818   1.095832   2.397042
    11  H    2.068746   2.624782   4.007818   1.095832   2.981735
    12  H    2.019289   3.258432   4.390902   1.087230   3.574178
                    6          7          8          9         10
     6  H    0.000000
     7  H    3.062841   0.000000
     8  H    2.497196   1.769871   0.000000
     9  H    2.501402   1.766322   1.769871   0.000000
    10  H    2.981735   4.189925   4.699300   4.549317   0.000000
    11  H    2.397042   4.549317   4.699300   4.189925   1.778167
    12  H    3.574178   4.543636   5.319350   4.543636   1.778016
                   11         12
    11  H    0.000000
    12  H    1.778016   0.000000
 Stoichiometry    C3H8O
 Framework group  CS[SG(C3H2O),X(H6)]
 Deg. of freedom    18
 Full point group                 CS      NOp   2
 Largest Abelian subgroup         CS      NOp   2
 Largest concise Abelian subgroup CS      NOp   2
                         Standard orientation:                         
 ---------------------------------------------------------------------
 Center     Atomic      Atomic             Coordinates (Angstroms)
 Number     Number       Type             X           Y           Z
 ---------------------------------------------------------------------
      1          8           0       -0.012524   -0.708207    0.000000
      2          6           0        0.000000    0.699027    0.000000
      3          6           0        1.436656    1.169190    0.000000
      4          6           0       -1.312732   -1.233068    0.000000
      5          1           0       -0.531722    1.074083    0.884320
      6          1           0       -0.531722    1.074083   -0.884320
      7          1           0        1.954449    0.798476    0.883161
      8          1           0        1.481583    2.257540    0.000000
      9          1           0        1.954449    0.798476   -0.883161
     10          1           0       -1.868962   -0.915283    0.889084
     11          1           0       -1.868962   -0.915283   -0.889084
     12          1           0       -1.232462   -2.317331    0.000000
 ---------------------------------------------------------------------
 Rotational constants (GHZ):          28.5218634           4.1909818           3.9230564
 Leave Link  202 at Tue Mar 12 00:33:34 2019, MaxMem=   671088640 cpu:               0.2 elap:               0.0
 (Enter /shared/centos7/gaussian/g16/l301.exe)
 Standard basis: 6-311+G(2df,2p) (5D, 7F)
 Ernie: Thresh=  0.10000D-02 Tol=  0.10000D-05 Strict=F.
 There are   149 symmetry adapted cartesian basis functions of A'  symmetry.
 There are    79 symmetry adapted cartesian basis functions of A"  symmetry.
 There are   133 symmetry adapted basis functions of A'  symmetry.
 There are    75 symmetry adapted basis functions of A"  symmetry.
   208 basis functions,   296 primitive gaussians,   228 cartesian basis functions
    17 alpha electrons       17 beta electrons
       nuclear repulsion energy       134.1591950911 Hartrees.
 IExCor= 4336 DFT=T Ex+Corr=M062X ExCW=0 ScaHFX=  0.540000
 ScaDFX=  1.000000  1.000000  1.000000  1.000000 ScalE2=  1.000000  1.000000
 IRadAn=      5 IRanWt=     -1 IRanGd=            0 ICorTp=0 IEmpDi=  4
 NAtoms=   12 NActive=   12 NUniq=    9 SFac= 1.78D+00 NAtFMM=   60 NAOKFM=F Big=F
 Integral buffers will be    131072 words long.
 Raffenetti 2 integral format.
 Two-electron integral symmetry is turned on.
 Leave Link  301 at Tue Mar 12 00:33:34 2019, MaxMem=   671088640 cpu:               0.8 elap:               0.1
 (Enter /shared/centos7/gaussian/g16/l302.exe)
 NPDir=0 NMtPBC=     1 NCelOv=     1 NCel=       1 NClECP=     1 NCelD=      1
         NCelK=      1 NCelE2=     1 NClLst=     1 CellRange=     0.0.
 One-electron integrals computed using PRISM.
 One-electron integral symmetry used in STVInt
 NBasis=   208 RedAO= T EigKep=  7.85D-05  NBF=   133    75
 NBsUse=   208 1.00D-06 EigRej= -1.00D+00 NBFU=   133    75
 Precomputing XC quadrature grid using
 IXCGrd= 4 IRadAn=           5 IRanWt=          -1 IRanGd=           0 AccXCQ= 0.00D+00.
 Generated NRdTot=       0 NPtTot=           0 NUsed=           0 NTot=          32
 NSgBfM=   228   228   228   228   228 MxSgAt=    12 MxSgA2=    12.
 Leave Link  302 at Tue Mar 12 00:33:34 2019, MaxMem=   671088640 cpu:               4.3 elap:               0.2
 (Enter /shared/centos7/gaussian/g16/l303.exe)
 DipDrv:  MaxL=1.
 Leave Link  303 at Tue Mar 12 00:33:35 2019, MaxMem=   671088640 cpu:               0.7 elap:               0.1
 (Enter /shared/centos7/gaussian/g16/l401.exe)
 ExpMin= 4.38D-02 ExpMax= 8.59D+03 ExpMxC= 1.30D+03 IAcc=3 IRadAn=         5 AccDes= 0.00D+00
 Harris functional with IExCor= 1009 and IRadAn=       5 diagonalized for initial guess.
 HarFok:  IExCor= 1009 AccDes= 0.00D+00 IRadAn=         5 IDoV= 1 UseB2=F ITyADJ=14
 ICtDFT=  3500011 ScaDFX=  1.000000  1.000000  1.000000  1.000000
 FoFCou: FMM=F IPFlag=           0 FMFlag=      100000 FMFlg1=           0
         NFxFlg=           0 DoJE=T BraDBF=F KetDBF=T FulRan=T
         wScrn=  0.000000 ICntrl=       500 IOpCl=  0 I1Cent=   200000004 NGrid=           0
         NMat0=    1 NMatS0=      1 NMatT0=    0 NMatD0=    1 NMtDS0=    0 NMtDT0=    0
 Petite list used in FoFCou.
 Harris En= -194.272795308625    
 JPrj=0 DoOrth=F DoCkMO=F.
 Initial guess orbital symmetries:
       Occupied  (A') (A') (A') (A') (A') (A') (A') (A') (A') (A")
                 (A') (A") (A') (A') (A") (A') (A")
       Virtual   (A') (A') (A') (A") (A') (A') (A') (A") (A') (A')
                 (A") (A") (A') (A") (A') (A') (A") (A') (A') (A')
                 (A') (A') (A') (A") (A') (A') (A') (A") (A') (A")
                 (A') (A') (A") (A') (A") (A') (A") (A') (A") (A')
                 (A') (A") (A') (A') (A') (A') (A") (A') (A") (A')
                 (A') (A") (A') (A") (A') (A') (A") (A") (A') (A")
                 (A') (A") (A') (A") (A') (A") (A') (A') (A') (A")
                 (A') (A') (A") (A') (A') (A") (A') (A") (A') (A")
                 (A") (A') (A') (A') (A') (A') (A") (A') (A') (A')
                 (A") (A') (A") (A') (A') (A") (A") (A') (A') (A")
                 (A') (A') (A') (A') (A") (A') (A") (A") (A") (A')
                 (A') (A') (A") (A') (A") (A') (A") (A') (A") (A")
                 (A') (A') (A') (A") (A") (A') (A") (A') (A') (A")
                 (A') (A') (A") (A') (A') (A") (A') (A") (A') (A')
                 (A') (A") (A') (A') (A") (A') (A') (A") (A") (A')
                 (A") (A') (A') (A') (A') (A") (A") (A') (A") (A")
                 (A') (A') (A") (A') (A') (A") (A') (A") (A') (A')
                 (A') (A') (A") (A') (A") (A') (A") (A") (A") (A')
                 (A') (A') (A") (A') (A") (A') (A') (A') (A') (A')
                 (A')
 The electronic state of the initial guess is 1-A'.
 Leave Link  401 at Tue Mar 12 00:33:35 2019, MaxMem=   671088640 cpu:               8.4 elap:               0.4
 (Enter /shared/centos7/gaussian/g16/l502.exe)
 Keep R1 ints in memory in symmetry-blocked form, NReq=355207208.
 FoFCou: FMM=F IPFlag=           0 FMFlag=           0 FMFlg1=           0
         NFxFlg=           0 DoJE=F BraDBF=F KetDBF=F FulRan=T
         wScrn=  0.000000 ICntrl=       600 IOpCl=  0 I1Cent=           0 NGrid=           0
         NMat0=    1 NMatS0=  21736 NMatT0=    0 NMatD0=    1 NMtDS0=    0 NMtDT0=    0
 Petite list used in FoFCou.
 Closed shell SCF:
 Using DIIS extrapolation, IDIIS=  1040.
 NGot=   671088640 LenX=   552009815 LenY=   551957390
 Requested convergence on RMS density matrix=1.00D-08 within 128 cycles.
 Requested convergence on MAX density matrix=1.00D-06.
 Requested convergence on             energy=1.00D-06.
 No special actions if energy rises.

 Cycle   1  Pass 1  IDiag  1:
 E= -194.165625638714    
 DIIS: error= 2.96D-02 at cycle   1 NSaved=   1.
 NSaved= 1 IEnMin= 1 EnMin= -194.165625638714     IErMin= 1 ErrMin= 2.96D-02
 ErrMax= 2.96D-02  0.00D+00 EMaxC= 1.00D-01 BMatC= 1.79D-01 BMatP= 1.79D-01
 IDIUse=3 WtCom= 7.04D-01 WtEn= 2.96D-01
 Coeff-Com:  0.100D+01
 Coeff-En:   0.100D+01
 Coeff:      0.100D+01
 Gap=     0.323 Goal=   None    Shift=    0.000
 GapD=    0.323 DampG=1.000 DampE=0.500 DampFc=0.5000 IDamp=-1.
 Damping current iteration by 5.00D-01
 RMSDP=2.33D-03 MaxDP=1.12D-01              OVMax= 1.50D-01

 Cycle   2  Pass 1  IDiag  1:
 E= -194.243422571748     Delta-E=       -0.077796933034 Rises=F Damp=T
 DIIS: error= 5.81D-03 at cycle   2 NSaved=   2.
 NSaved= 2 IEnMin= 2 EnMin= -194.243422571748     IErMin= 2 ErrMin= 5.81D-03
 ErrMax= 5.81D-03  0.00D+00 EMaxC= 1.00D-01 BMatC= 1.20D-02 BMatP= 1.79D-01
 IDIUse=3 WtCom= 9.42D-01 WtEn= 5.81D-02
 Coeff-Com: -0.133D+00 0.113D+01
 Coeff-En:   0.000D+00 0.100D+01
 Coeff:     -0.126D+00 0.113D+01
 Gap=     0.368 Goal=   None    Shift=    0.000
 RMSDP=6.03D-04 MaxDP=1.14D-02 DE=-7.78D-02 OVMax= 7.44D-02

 Cycle   3  Pass 1  IDiag  1:
 E= -194.313668929044     Delta-E=       -0.070246357296 Rises=F Damp=F
 DIIS: error= 3.41D-03 at cycle   3 NSaved=   3.
 NSaved= 3 IEnMin= 3 EnMin= -194.313668929044     IErMin= 3 ErrMin= 3.41D-03
 ErrMax= 3.41D-03  0.00D+00 EMaxC= 1.00D-01 BMatC= 2.57D-03 BMatP= 1.20D-02
 IDIUse=3 WtCom= 9.66D-01 WtEn= 3.41D-02
 Coeff-Com: -0.847D-01 0.340D+00 0.745D+00
 Coeff-En:   0.000D+00 0.000D+00 0.100D+01
 Coeff:     -0.818D-01 0.328D+00 0.753D+00
 Gap=     0.345 Goal=   None    Shift=    0.000
 RMSDP=1.77D-04 MaxDP=9.93D-03 DE=-7.02D-02 OVMax= 1.46D-02

 Cycle   4  Pass 1  IDiag  1:
 E= -194.315003639612     Delta-E=       -0.001334710568 Rises=F Damp=F
 DIIS: error= 1.69D-03 at cycle   4 NSaved=   4.
 NSaved= 4 IEnMin= 4 EnMin= -194.315003639612     IErMin= 4 ErrMin= 1.69D-03
 ErrMax= 1.69D-03  0.00D+00 EMaxC= 1.00D-01 BMatC= 8.11D-04 BMatP= 2.57D-03
 IDIUse=3 WtCom= 9.83D-01 WtEn= 1.69D-02
 Coeff-Com: -0.302D-01 0.802D-01 0.393D+00 0.557D+00
 Coeff-En:   0.000D+00 0.000D+00 0.196D+00 0.804D+00
 Coeff:     -0.297D-01 0.789D-01 0.390D+00 0.561D+00
 Gap=     0.350 Goal=   None    Shift=    0.000
 RMSDP=6.89D-05 MaxDP=4.18D-03 DE=-1.33D-03 OVMax= 4.96D-03

 Cycle   5  Pass 1  IDiag  1:
 E= -194.315555514081     Delta-E=       -0.000551874468 Rises=F Damp=F
 DIIS: error= 2.38D-04 at cycle   5 NSaved=   5.
 NSaved= 5 IEnMin= 5 EnMin= -194.315555514081     IErMin= 5 ErrMin= 2.38D-04
 ErrMax= 2.38D-04  0.00D+00 EMaxC= 1.00D-01 BMatC= 8.89D-06 BMatP= 8.11D-04
 IDIUse=3 WtCom= 9.98D-01 WtEn= 2.38D-03
 Coeff-Com: -0.301D-02 0.467D-02 0.688D-01 0.153D+00 0.776D+00
 Coeff-En:   0.000D+00 0.000D+00 0.000D+00 0.000D+00 0.100D+01
 Coeff:     -0.300D-02 0.466D-02 0.687D-01 0.153D+00 0.777D+00
 Gap=     0.350 Goal=   None    Shift=    0.000
 RMSDP=1.22D-05 MaxDP=3.67D-04 DE=-5.52D-04 OVMax= 6.26D-04

 Cycle   6  Pass 1  IDiag  1:
 E= -194.315561746539     Delta-E=       -0.000006232458 Rises=F Damp=F
 DIIS: error= 4.69D-05 at cycle   6 NSaved=   6.
 NSaved= 6 IEnMin= 6 EnMin= -194.315561746539     IErMin= 6 ErrMin= 4.69D-05
 ErrMax= 4.69D-05  0.00D+00 EMaxC= 1.00D-01 BMatC= 6.02D-07 BMatP= 8.89D-06
 IDIUse=1 WtCom= 1.00D+00 WtEn= 0.00D+00
 Coeff-Com:  0.351D-03-0.178D-02 0.783D-02 0.337D-01 0.268D+00 0.692D+00
 Coeff:      0.351D-03-0.178D-02 0.783D-02 0.337D-01 0.268D+00 0.692D+00
 Gap=     0.350 Goal=   None    Shift=    0.000
 RMSDP=2.89D-06 MaxDP=1.73D-04 DE=-6.23D-06 OVMax= 1.96D-04

 Cycle   7  Pass 1  IDiag  1:
 E= -194.315562270987     Delta-E=       -0.000000524449 Rises=F Damp=F
 DIIS: error= 1.90D-05 at cycle   7 NSaved=   7.
 NSaved= 7 IEnMin= 7 EnMin= -194.315562270987     IErMin= 7 ErrMin= 1.90D-05
 ErrMax= 1.90D-05  0.00D+00 EMaxC= 1.00D-01 BMatC= 5.16D-08 BMatP= 6.02D-07
 IDIUse=1 WtCom= 1.00D+00 WtEn= 0.00D+00
 Coeff-Com:  0.580D-03-0.125D-02-0.791D-02-0.108D-01-0.327D-01 0.198D+00
 Coeff-Com:  0.854D+00
 Coeff:      0.580D-03-0.125D-02-0.791D-02-0.108D-01-0.327D-01 0.198D+00
 Coeff:      0.854D+00
 Gap=     0.350 Goal=   None    Shift=    0.000
 RMSDP=1.38D-06 MaxDP=4.75D-05 DE=-5.24D-07 OVMax= 6.62D-05

 Cycle   8  Pass 1  IDiag  1:
 E= -194.315562321895     Delta-E=       -0.000000050907 Rises=F Damp=F
 DIIS: error= 1.99D-06 at cycle   8 NSaved=   8.
 NSaved= 8 IEnMin= 8 EnMin= -194.315562321895     IErMin= 8 ErrMin= 1.99D-06
 ErrMax= 1.99D-06  0.00D+00 EMaxC= 1.00D-01 BMatC= 4.42D-10 BMatP= 5.16D-08
 IDIUse=1 WtCom= 1.00D+00 WtEn= 0.00D+00
 Coeff-Com:  0.360D-04-0.738D-04-0.976D-03-0.176D-02-0.838D-02 0.285D-02
 Coeff-Com:  0.753D-01 0.933D+00
 Coeff:      0.360D-04-0.738D-04-0.976D-03-0.176D-02-0.838D-02 0.285D-02
 Coeff:      0.753D-01 0.933D+00
 Gap=     0.350 Goal=   None    Shift=    0.000
 RMSDP=2.01D-07 MaxDP=6.25D-06 DE=-5.09D-08 OVMax= 1.06D-05

 Cycle   9  Pass 1  IDiag  1:
 E= -194.315562322494     Delta-E=       -0.000000000599 Rises=F Damp=F
 DIIS: error= 3.27D-07 at cycle   9 NSaved=   9.
 NSaved= 9 IEnMin= 9 EnMin= -194.315562322494     IErMin= 9 ErrMin= 3.27D-07
 ErrMax= 3.27D-07  0.00D+00 EMaxC= 1.00D-01 BMatC= 2.99D-11 BMatP= 4.42D-10
 IDIUse=1 WtCom= 1.00D+00 WtEn= 0.00D+00
 Coeff-Com: -0.223D-04 0.477D-04 0.209D-03 0.251D-03 0.685D-03-0.808D-02
 Coeff-Com: -0.312D-01 0.138D+00 0.900D+00
 Coeff:     -0.223D-04 0.477D-04 0.209D-03 0.251D-03 0.685D-03-0.808D-02
 Coeff:     -0.312D-01 0.138D+00 0.900D+00
 Gap=     0.350 Goal=   None    Shift=    0.000
 RMSDP=5.04D-08 MaxDP=1.28D-06 DE=-5.99D-10 OVMax= 2.53D-06

 Cycle  10  Pass 1  IDiag  1:
 E= -194.315562322531     Delta-E=       -0.000000000037 Rises=F Damp=F
 DIIS: error= 8.16D-08 at cycle  10 NSaved=  10.
 NSaved=10 IEnMin=10 EnMin= -194.315562322531     IErMin=10 ErrMin= 8.16D-08
 ErrMax= 8.16D-08  0.00D+00 EMaxC= 1.00D-01 BMatC= 1.82D-12 BMatP= 2.99D-11
 IDIUse=1 WtCom= 1.00D+00 WtEn= 0.00D+00
 Coeff-Com: -0.390D-05 0.897D-05 0.570D-04 0.856D-04 0.370D-03-0.147D-02
 Coeff-Com: -0.800D-02-0.223D-02 0.180D+00 0.831D+00
 Coeff:     -0.390D-05 0.897D-05 0.570D-04 0.856D-04 0.370D-03-0.147D-02
 Coeff:     -0.800D-02-0.223D-02 0.180D+00 0.831D+00
 Gap=     0.350 Goal=   None    Shift=    0.000
 RMSDP=8.60D-09 MaxDP=3.53D-07 DE=-3.68D-11 OVMax= 6.06D-07

 SCF Done:  E(RM062X) =  -194.315562323     A.U. after   10 cycles
            NFock= 10  Conv=0.86D-08     -V/T= 2.0039
 KE= 1.935635002583D+02 PE=-7.216205224356D+02 EE= 1.995822647637D+02
 Leave Link  502 at Tue Mar 12 00:33:43 2019, MaxMem=   671088640 cpu:             134.3 elap:               7.7
 (Enter /shared/centos7/gaussian/g16/l801.exe)
 DoSCS=F DFT=T ScalE2(SS,OS)=  1.000000  1.000000
 Range of M.O.s used for correlation:     1   208
 NBasis=   208 NAE=    17 NBE=    17 NFC=     0 NFV=     0
 NROrb=    208 NOA=    17 NOB=    17 NVA=   191 NVB=   191

 **** Warning!!: The largest alpha MO coefficient is  0.38070813D+02

 Leave Link  801 at Tue Mar 12 00:33:43 2019, MaxMem=   671088640 cpu:               0.4 elap:               0.0
 (Enter /shared/centos7/gaussian/g16/l1101.exe)
 Using compressed storage, NAtomX=    12.
 Will process     13 centers per pass.
 Leave Link 1101 at Tue Mar 12 00:33:43 2019, MaxMem=   671088640 cpu:               5.0 elap:               0.3
 (Enter /shared/centos7/gaussian/g16/l1102.exe)
 Symmetrizing basis deriv contribution to polar:
 IMax=3 JMax=2 DiffMx= 0.00D+00
 Leave Link 1102 at Tue Mar 12 00:33:43 2019, MaxMem=   671088640 cpu:               0.6 elap:               0.1
 (Enter /shared/centos7/gaussian/g16/l1110.exe)
 Forming Gx(P) for the SCF density, NAtomX=    12.
 Integral derivatives from FoFJK, PRISM(SPDF).
 Do as many integral derivatives as possible in FoFJK.
 G2DrvN: MDV=     671087640.
 G2DrvN: will do    13 centers at a time, making    1 passes.
 Calling FoFCou, ICntrl=  3107 FMM=F I1Cent=   0 AccDes= 0.00D+00.
 FoFJK:  IHMeth= 1 ICntrl=    3107 DoSepK=F KAlg= 0 I1Cent=           0 FoldK=F
 IRaf=         0 NMat=       1 IRICut=       1 DoRegI=T DoRafI=F ISym2E= 1 IDoP0=0 IntGTp=1.
 FoFCou: FMM=F IPFlag=           0 FMFlag=      100000 FMFlg1=           0
         NFxFlg=           0 DoJE=F BraDBF=F KetDBF=F FulRan=T
         wScrn=  0.000000 ICntrl=      3107 IOpCl=  0 I1Cent=           0 NGrid=           0
         NMat0=    1 NMatS0=      1 NMatT0=    0 NMatD0=    1 NMtDS0=    0 NMtDT0=    0
 Petite list used in FoFCou.
 End of G2Drv F.D. properties file   721 does not exist.
 End of G2Drv F.D. properties file   722 does not exist.
 End of G2Drv F.D. properties file   788 does not exist.
 Leave Link 1110 at Tue Mar 12 00:33:57 2019, MaxMem=   671088640 cpu:             283.8 elap:              14.2
 (Enter /shared/centos7/gaussian/g16/l1002.exe)
 Minotr:  Closed shell wavefunction.
          IDoAtm=111111111111
          Direct CPHF calculation.
          Differentiating once with respect to nuclear coordinates.
          Using symmetry in CPHF.
          Requested convergence is 1.0D-08 RMS, and 1.0D-07 maximum.
          Secondary convergence is 1.0D-12 RMS, and 1.0D-12 maximum.
          NewPWx=T KeepS1=F KeepF1=F KeepIn=T MapXYZ=F SortEE=F KeepMc=T.
         3654 words used for storage of precomputed grid.
 Keep R1 ints in memory in symmetry-blocked form, NReq=355212614.
 FoFCou: FMM=F IPFlag=           0 FMFlag=           0 FMFlg1=           0
         NFxFlg=           0 DoJE=F BraDBF=F KetDBF=F FulRan=T
         wScrn=  0.000000 ICntrl=       600 IOpCl=  0 I1Cent=           0 NGrid=           0
         NMat0=    1 NMatS0=  21736 NMatT0=    0 NMatD0=    1 NMtDS0=    0 NMtDT0=    0
 Petite list used in FoFCou.
          MDV=     671088640 using IRadAn=       1.
          Solving linear equations simultaneously, MaxMat=       0.
          There are    30 degrees of freedom in the 1st order CPHF.  IDoFFX=4 NUNeed=    30.
     27 vectors produced by pass  0 Test12= 1.08D-14 3.33D-09 XBig12= 5.83D-02 6.03D-02.
 AX will form    27 AO Fock derivatives at one time.
     27 vectors produced by pass  1 Test12= 1.08D-14 3.33D-09 XBig12= 2.36D-03 1.27D-02.
     27 vectors produced by pass  2 Test12= 1.08D-14 3.33D-09 XBig12= 1.17D-04 2.03D-03.
     27 vectors produced by pass  3 Test12= 1.08D-14 3.33D-09 XBig12= 1.03D-06 2.10D-04.
     27 vectors produced by pass  4 Test12= 1.08D-14 3.33D-09 XBig12= 7.45D-09 1.62D-05.
     27 vectors produced by pass  5 Test12= 1.08D-14 3.33D-09 XBig12= 4.62D-11 1.28D-06.
     15 vectors produced by pass  6 Test12= 1.08D-14 3.33D-09 XBig12= 2.00D-13 6.24D-08.
      1 vectors produced by pass  7 Test12= 1.08D-14 3.33D-09 XBig12= 8.13D-16 4.05D-09.
 InvSVY:  IOpt=1 It=  1 EMax= 1.94D-16
 Solved reduced A of dimension   178 with    30 vectors.
 FullF1:  Do perturbations      4 to      30.
 End of Minotr F.D. properties file   721 does not exist.
 End of Minotr F.D. properties file   722 does not exist.
 End of Minotr F.D. properties file   788 does not exist.
 Leave Link 1002 at Tue Mar 12 00:34:30 2019, MaxMem=   671088640 cpu:             653.7 elap:              32.9
 (Enter /shared/centos7/gaussian/g16/l601.exe)
 Copying SCF densities to generalized density rwf, IOpCl= 0 IROHF=0.

 **********************************************************************

            Population analysis using the SCF density.

 **********************************************************************

 Orbital symmetries:
       Occupied  (A') (A') (A') (A') (A') (A') (A') (A') (A") (A')
                 (A') (A") (A') (A') (A") (A') (A")
       Virtual   (A') (A') (A') (A") (A') (A') (A") (A') (A') (A")
                 (A') (A') (A") (A') (A") (A') (A') (A") (A') (A')
                 (A') (A") (A') (A') (A') (A') (A') (A") (A") (A')
                 (A') (A") (A') (A') (A") (A") (A') (A") (A') (A')
                 (A") (A') (A') (A') (A') (A') (A") (A') (A") (A')
                 (A') (A') (A") (A") (A') (A') (A") (A") (A') (A")
                 (A') (A') (A") (A") (A') (A') (A") (A') (A") (A')
                 (A') (A') (A") (A') (A') (A") (A') (A') (A") (A")
                 (A") (A') (A') (A') (A') (A') (A") (A') (A') (A')
                 (A") (A') (A") (A') (A') (A") (A") (A') (A') (A")
                 (A') (A') (A') (A') (A") (A') (A") (A") (A") (A')
                 (A') (A') (A") (A') (A") (A') (A") (A') (A") (A")
                 (A') (A') (A') (A") (A") (A') (A') (A") (A') (A")
                 (A') (A') (A") (A') (A') (A") (A') (A") (A') (A')
                 (A') (A") (A') (A') (A") (A') (A') (A") (A") (A')
                 (A") (A') (A') (A') (A') (A") (A") (A') (A") (A")
                 (A') (A') (A") (A') (A') (A') (A") (A") (A') (A')
                 (A') (A") (A') (A") (A') (A") (A') (A") (A") (A')
                 (A') (A') (A") (A') (A") (A') (A') (A') (A') (A')
                 (A')
 The electronic state is 1-A'.
 Alpha  occ. eigenvalues --  -19.62202 -10.57944 -10.57356 -10.52191  -1.16025
 Alpha  occ. eigenvalues --   -0.86131  -0.76609  -0.69404  -0.56380  -0.56068
 Alpha  occ. eigenvalues --   -0.52856  -0.48994  -0.44916  -0.42470  -0.41738
 Alpha  occ. eigenvalues --   -0.38932  -0.33087
 Alpha virt. eigenvalues --    0.01886   0.03050   0.04216   0.04357   0.05576
 Alpha virt. eigenvalues --    0.07100   0.07353   0.08626   0.09775   0.09970
 Alpha virt. eigenvalues --    0.13210   0.14348   0.18373   0.19233   0.19538
 Alpha virt. eigenvalues --    0.21274   0.22105   0.22553   0.24400   0.25307
 Alpha virt. eigenvalues --    0.26563   0.28552   0.28809   0.29443   0.30438
 Alpha virt. eigenvalues --    0.35366   0.37701   0.41805   0.44313   0.44501
 Alpha virt. eigenvalues --    0.47880   0.51038   0.51275   0.51582   0.54663
 Alpha virt. eigenvalues --    0.55917   0.56301   0.56816   0.57798   0.59170
 Alpha virt. eigenvalues --    0.60943   0.62572   0.64637   0.67266   0.68512
 Alpha virt. eigenvalues --    0.70120   0.74959   0.78102   0.81542   0.86493
 Alpha virt. eigenvalues --    0.87444   0.90188   0.90706   0.91950   0.97229
 Alpha virt. eigenvalues --    0.99977   1.05277   1.06086   1.07759   1.08789
 Alpha virt. eigenvalues --    1.11127   1.13968   1.14195   1.16602   1.17759
 Alpha virt. eigenvalues --    1.20277   1.21546   1.22557   1.25563   1.26281
 Alpha virt. eigenvalues --    1.28306   1.32262   1.33012   1.36629   1.39762
 Alpha virt. eigenvalues --    1.41109   1.41630   1.43374   1.44256   1.44824
 Alpha virt. eigenvalues --    1.48183   1.49007   1.51182   1.52096   1.57302
 Alpha virt. eigenvalues --    1.59602   1.60369   1.61703   1.74765   1.81312
 Alpha virt. eigenvalues --    2.03063   2.05789   2.10892   2.22058   2.37213
 Alpha virt. eigenvalues --    2.37603   2.46523   2.47063   2.48709   2.58338
 Alpha virt. eigenvalues --    2.61070   2.64431   2.70002   2.80312   2.85479
 Alpha virt. eigenvalues --    2.87947   2.96688   2.97731   3.03004   3.06524
 Alpha virt. eigenvalues --    3.08457   3.09230   3.10576   3.13850   3.14325
 Alpha virt. eigenvalues --    3.17146   3.17185   3.20627   3.26911   3.32810
 Alpha virt. eigenvalues --    3.35381   3.36009   3.37967   3.39260   3.41924
 Alpha virt. eigenvalues --    3.43901   3.50810   3.51689   3.55508   3.57366
 Alpha virt. eigenvalues --    3.60733   3.65963   3.66111   3.70853   3.76356
 Alpha virt. eigenvalues --    3.81109   3.82270   3.87010   3.88467   3.91980
 Alpha virt. eigenvalues --    3.95009   3.98816   4.02756   4.05839   4.08064
 Alpha virt. eigenvalues --    4.10503   4.14305   4.17678   4.20598   4.22164
 Alpha virt. eigenvalues --    4.22429   4.23958   4.25679   4.29093   4.31392
 Alpha virt. eigenvalues --    4.34286   4.40411   4.43182   4.48010   4.50096
 Alpha virt. eigenvalues --    4.51961   4.55863   4.57172   4.64920   4.91627
 Alpha virt. eigenvalues --    5.13088   5.21131   5.24770   5.31374   5.41949
 Alpha virt. eigenvalues --    5.50021   5.51824   5.56586   5.58947   5.59341
 Alpha virt. eigenvalues --    5.65830   5.66807   5.84010   5.87957   6.24397
 Alpha virt. eigenvalues --    6.47908   6.72468   7.19389   7.20272   7.32246
 Alpha virt. eigenvalues --    7.68704   7.76603  24.36534  24.43886  24.49310
 Alpha virt. eigenvalues --   50.17625
          Condensed to atoms (all electrons):
               1          2          3          4          5          6
     1  O    8.296472   0.094323  -0.094855   0.123210  -0.052685  -0.052685
     2  C    0.094323   5.080775   0.318969  -0.088757   0.445036   0.445036
     3  C   -0.094855   0.318969   5.082153  -0.030488  -0.046101  -0.046101
     4  C    0.123210  -0.088757  -0.030488   4.940076   0.002049   0.002049
     5  H   -0.052685   0.445036  -0.046101   0.002049   0.574496  -0.055389
     6  H   -0.052685   0.445036  -0.046101   0.002049  -0.055389   0.574496
     7  H   -0.002762  -0.029690   0.405502   0.000067  -0.008222   0.006689
     8  H    0.011818  -0.036073   0.416242   0.001015  -0.003922  -0.003922
     9  H   -0.002762  -0.029690   0.405502   0.000067   0.006689  -0.008222
    10  H   -0.048706  -0.003700  -0.003033   0.437650   0.008174  -0.003658
    11  H   -0.048706  -0.003700  -0.003033   0.437650  -0.003658   0.008174
    12  H   -0.055767   0.012261   0.002139   0.425877   0.000049   0.000049
               7          8          9         10         11         12
     1  O   -0.002762   0.011818  -0.002762  -0.048706  -0.048706  -0.055767
     2  C   -0.029690  -0.036073  -0.029690  -0.003700  -0.003700   0.012261
     3  C    0.405502   0.416242   0.405502  -0.003033  -0.003033   0.002139
     4  C    0.000067   0.001015   0.000067   0.437650   0.437650   0.425877
     5  H   -0.008222  -0.003922   0.006689   0.008174  -0.003658   0.000049
     6  H    0.006689  -0.003922  -0.008222  -0.003658   0.008174   0.000049
     7  H    0.544553  -0.027207  -0.030263  -0.000029  -0.000009   0.000010
     8  H   -0.027207   0.543365  -0.027207   0.000011   0.000011   0.000016
     9  H   -0.030263  -0.027207   0.544553  -0.000009  -0.000029   0.000010
    10  H   -0.000029   0.000011  -0.000009   0.579485  -0.053033  -0.025866
    11  H   -0.000009   0.000011  -0.000029  -0.053033   0.579485  -0.025866
    12  H    0.000010   0.000016   0.000010  -0.025866  -0.025866   0.539010
 Mulliken charges:
               1
     1  O   -0.166897
     2  C   -0.204790
     3  C   -0.406897
     4  C   -0.250464
     5  H    0.133484
     6  H    0.133484
     7  H    0.141361
     8  H    0.125852
     9  H    0.141361
    10  H    0.112714
    11  H    0.112714
    12  H    0.128078
 Sum of Mulliken charges =  -0.00000
 Mulliken charges with hydrogens summed into heavy atoms:
               1
     1  O   -0.166897
     2  C    0.062177
     3  C    0.001677
     4  C    0.103042
 APT charges:
               1
     1  O   -0.070423
     2  C   -0.574984
     3  C   -1.139702
     4  C   -1.172930
     5  H    0.333340
     6  H    0.333340
     7  H    0.331797
     8  H    0.471261
     9  H    0.331797
    10  H    0.336849
    11  H    0.336849
    12  H    0.482807
 Sum of APT charges =  -0.00000
 APT charges with hydrogens summed into heavy atoms:
               1
     1  O   -0.070423
     2  C    0.091697
     3  C   -0.004848
     4  C   -0.016426
 Electronic spatial extent (au):  <R**2>=            366.6244
 Charge=              0.0000 electrons
 Dipole moment (field-independent basis, Debye):
    X=             -0.9829    Y=              0.7742    Z=              0.0000  Tot=              1.2511
 Quadrupole moment (field-independent basis, Debye-Ang):
   XX=            -25.8521   YY=            -25.9120   ZZ=            -26.7051
   XY=              1.8454   XZ=             -0.0000   YZ=             -0.0000
 Traceless Quadrupole moment (field-independent basis, Debye-Ang):
   XX=              0.3043   YY=              0.2444   ZZ=             -0.5487
   XY=              1.8454   XZ=             -0.0000   YZ=             -0.0000
 Octapole moment (field-independent basis, Debye-Ang**2):
  XXX=             -0.6935  YYY=             -5.1724  ZZZ=              0.0000  XYY=             -2.2556
  XXY=             -2.3782  XXZ=              0.0000  XZZ=             -0.3080  YZZ=             -0.4878
  YYZ=              0.0000  XYZ=              0.0000
 Hexadecapole moment (field-independent basis, Debye-Ang**3):
 XXXX=           -237.3278 YYYY=           -206.0214 ZZZZ=            -48.7809 XXXY=            -78.1911
 XXXZ=             -0.0000 YYYX=            -72.2114 YYYZ=             -0.0000 ZZZX=              0.0000
 ZZZY=             -0.0000 XXYY=            -76.0319 XXZZ=            -44.4274 YYZZ=            -47.1145
 XXYZ=             -0.0000 YYXZ=             -0.0000 ZZXY=            -26.6845
 N-N= 1.341591950911D+02 E-N=-7.216205159288D+02  KE= 1.935635002583D+02
 Symmetry A'   KE= 1.829075064487D+02
 Symmetry A"   KE= 1.065599380953D+01
  Exact polarizability:   0.000   0.000   0.000   0.000   0.000   0.000
 Approx polarizability:  48.439   0.777  48.929  -0.000   0.000  46.114
 No NMR shielding tensors so no spin-rotation constants.
 Leave Link  601 at Tue Mar 12 00:34:30 2019, MaxMem=   671088640 cpu:               4.3 elap:               0.2
 (Enter /shared/centos7/gaussian/g16/l701.exe)
 ... and contract with generalized density number  0.
 Compute integral second derivatives.
 Leave Link  701 at Tue Mar 12 00:34:31 2019, MaxMem=   671088640 cpu:               6.1 elap:               0.3
 (Enter /shared/centos7/gaussian/g16/l702.exe)
 L702 exits ... SP integral derivatives will be done elsewhere.
 Leave Link  702 at Tue Mar 12 00:34:31 2019, MaxMem=   671088640 cpu:               0.3 elap:               0.0
 (Enter /shared/centos7/gaussian/g16/l703.exe)
 Integral derivatives from FoFJK, PRISM(SPDF).
 Compute integral second derivatives, UseDBF=F ICtDFT=           0.
 Calling FoFJK, ICntrl=    100147 FMM=F ISym2X=1 I1Cent= 0 IOpClX= 0 NMat=1 NMatS=1 NMatT=0.
 FoFJK:  IHMeth= 1 ICntrl=  100147 DoSepK=F KAlg= 0 I1Cent=           0 FoldK=F
 IRaf=         0 NMat=       1 IRICut=       1 DoRegI=T DoRafI=F ISym2E= 1 IDoP0=0 IntGTp=1.
 FoFCou: FMM=F IPFlag=           0 FMFlag=      100000 FMFlg1=         800
         NFxFlg=           0 DoJE=F BraDBF=F KetDBF=F FulRan=T
         wScrn=  0.000000 ICntrl=    100147 IOpCl=  0 I1Cent=           0 NGrid=           0
         NMat0=    1 NMatS0=      1 NMatT0=    0 NMatD0=    1 NMtDS0=    0 NMtDT0=    0
 Petite list used in FoFCou.
 Leave Link  703 at Tue Mar 12 00:34:49 2019, MaxMem=   671088640 cpu:             364.7 elap:              18.3
 (Enter /shared/centos7/gaussian/g16/l716.exe)
 Dipole        =-3.86685639D-01 3.04585327D-01 3.04443954D-16
 Polarizability= 0.00000000D+00 0.00000000D+00 0.00000000D+00
                 0.00000000D+00 0.00000000D+00 0.00000000D+00
 ***** Axes restored to original set *****
 -------------------------------------------------------------------
 Center     Atomic                   Forces (Hartrees/Bohr)
 Number     Number              X              Y              Z
 -------------------------------------------------------------------
      1        8          -0.000000059   -0.000000047    0.000000000
      2        6           0.000000030    0.000000046    0.000000000
      3        6          -0.000000024    0.000000140    0.000000000
      4        6           0.000000005   -0.000000181    0.000000000
      5        1           0.000000094    0.000000023    0.000000004
      6        1           0.000000094    0.000000023   -0.000000004
      7        1          -0.000000093    0.000000174   -0.000000001
      8        1           0.000000050    0.000000249    0.000000000
      9        1          -0.000000093    0.000000174    0.000000001
     10        1           0.000000041   -0.000000181   -0.000000006
     11        1           0.000000041   -0.000000181    0.000000006
     12        1          -0.000000086   -0.000000238    0.000000000
 -------------------------------------------------------------------
 Cartesian Forces:  Max     0.000000249 RMS     0.000000099
 Force constants in Cartesian coordinates: 
                1             2             3             4             5 
      1  0.528583D+00
      2 -0.274564D-01  0.355407D+00
      3  0.000000D+00  0.000000D+00  0.100312D+00
      4 -0.155023D+00  0.568410D-01  0.000000D+00  0.511539D+00
      5  0.995282D-01 -0.187224D+00  0.000000D+00  0.354629D-01  0.547241D+00
      6  0.000000D+00  0.000000D+00 -0.663429D-01  0.000000D+00  0.000000D+00
      7 -0.403868D-01 -0.673522D-02  0.000000D+00 -0.177773D+00 -0.558313D-01
      8  0.342488D-01  0.122851D-01  0.000000D+00 -0.716920D-01 -0.116092D+00
      9  0.000000D+00  0.000000D+00  0.201251D-02  0.000000D+00  0.000000D+00
     10 -0.234121D+00 -0.438101D-01  0.000000D+00 -0.505645D-01 -0.493300D-02
     11 -0.884720D-01 -0.122223D+00  0.000000D+00  0.284836D-01  0.905435D-02
     12  0.000000D+00  0.000000D+00 -0.634899D-01  0.000000D+00  0.000000D+00
     13 -0.859513D-02  0.240995D-01 -0.208044D-01 -0.543247D-01 -0.210732D-01
     14  0.128015D-01 -0.273169D-01  0.226033D-01 -0.193990D-01 -0.121224D+00
     15 -0.537184D-02  0.436425D-02  0.634089D-02  0.263530D-01  0.108112D+00
     16 -0.859513D-02  0.240995D-01  0.208044D-01 -0.543247D-01 -0.210732D-01
     17  0.128015D-01 -0.273169D-01 -0.226033D-01 -0.193990D-01 -0.121224D+00
     18  0.537184D-02 -0.436425D-02  0.634089D-02 -0.263530D-01 -0.108112D+00
     19  0.306778D-02  0.543259D-03  0.620154D-03 -0.465292D-02 -0.197060D-01
     20  0.593739D-03  0.133287D-02  0.933254D-03 -0.123385D-02 -0.111015D-01
     21 -0.492127D-03  0.553323D-03  0.917830D-04  0.111653D-03  0.526757D-03
     22 -0.757342D-02 -0.438663D-02  0.000000D+00 -0.157197D-01  0.246987D-01
     23 -0.380790D-02 -0.715989D-03  0.000000D+00 -0.100275D-01  0.116051D-01
     24  0.000000D+00  0.000000D+00  0.739247D-03  0.000000D+00  0.000000D+00
     25  0.306778D-02  0.543259D-03 -0.620154D-03 -0.465292D-02 -0.197060D-01
     26  0.593739D-03  0.133287D-02 -0.933254D-03 -0.123385D-02 -0.111015D-01
     27  0.492127D-03 -0.553323D-03  0.917828D-04 -0.111653D-03 -0.526757D-03
     28 -0.231532D-01 -0.246453D-01  0.282906D-01  0.433335D-02 -0.591193D-02
     29 -0.140411D-01 -0.101470D-01  0.114812D-01  0.218556D-02  0.757642D-04
     30  0.692422D-02  0.146834D-02  0.688216D-02 -0.141937D-02  0.752651D-04
     31 -0.231532D-01 -0.246453D-01 -0.282906D-01  0.433335D-02 -0.591193D-02
     32 -0.140411D-01 -0.101470D-01 -0.114812D-01  0.218556D-02  0.757636D-04
     33 -0.692422D-02 -0.146834D-02  0.688216D-02  0.141937D-02 -0.752655D-04
     34 -0.341174D-01  0.255525D-01  0.000000D+00 -0.317037D-02 -0.554330D-02
     35 -0.127490D-01  0.147339D-01  0.000000D+00 -0.217341D-02 -0.840598D-04
     36  0.000000D+00  0.000000D+00  0.139168D-03  0.000000D+00  0.000000D+00
                6             7             8             9            10 
      6  0.588249D+00
      7  0.000000D+00  0.516361D+00
      8  0.000000D+00 -0.390761D-01  0.570009D+00
      9 -0.830865D-01  0.000000D+00  0.000000D+00  0.583145D+00
     10  0.000000D+00 -0.197008D-02  0.264687D-02  0.000000D+00  0.532690D+00
     11  0.000000D+00  0.353258D-02 -0.417859D-02  0.000000D+00 -0.574319D-01
     12 -0.399219D-02  0.000000D+00  0.000000D+00 -0.504290D-03  0.000000D+00
     13  0.274761D-01 -0.385903D-02 -0.176198D-01  0.260922D-01  0.479088D-02
     14  0.104566D+00 -0.339110D-02 -0.711168D-02  0.118234D-01 -0.405345D-02
     15 -0.218120D+00 -0.804385D-04 -0.157582D-02  0.152204D-02  0.122622D-02
     16 -0.274761D-01 -0.385903D-02 -0.176198D-01 -0.260922D-01  0.479088D-02
     17 -0.104566D+00 -0.339110D-02 -0.711168D-02 -0.118234D-01 -0.405345D-02
     18 -0.218120D+00  0.804389D-04  0.157582D-02  0.152204D-02 -0.122622D-02
     19 -0.276158D-01 -0.486672D-01 -0.133495D-01 -0.195176D-01 -0.325307D-03
     20 -0.137557D-01 -0.152701D-01 -0.135911D+00 -0.125674D+00  0.226706D-03
     21  0.783095D-03 -0.210838D-01 -0.126474D+00 -0.229734D+00  0.000000D+00
     22  0.000000D+00 -0.189602D+00  0.133517D+00  0.000000D+00 -0.264099D-05
     23  0.000000D+00  0.136116D+00 -0.177252D+00  0.000000D+00 -0.865947D-03
     24 -0.248607D-02  0.000000D+00  0.000000D+00 -0.465438D-01  0.000000D+00
     25  0.276158D-01 -0.486672D-01 -0.133495D-01  0.195176D-01 -0.325308D-03
     26  0.137557D-01 -0.152701D-01 -0.135911D+00  0.125674D+00  0.226706D-03
     27  0.783095D-03  0.210838D-01  0.126474D+00 -0.229734D+00  0.000000D+00
     28  0.319830D-02 -0.307595D-03  0.265335D-03 -0.228010D-03 -0.531547D-01
     29 -0.168057D-02 -0.408637D-05  0.323597D-03 -0.250084D-03 -0.136461D-01
     30  0.116571D-02  0.102766D-03 -0.466886D-03  0.391258D-03  0.234353D-01
     31 -0.319830D-02 -0.307595D-03  0.265335D-03  0.228010D-03 -0.531547D-01
     32  0.168057D-02 -0.408668D-05  0.323597D-03  0.250084D-03 -0.136461D-01
     33  0.116571D-02 -0.102766D-03  0.466886D-03  0.391258D-03 -0.234353D-01
     34  0.000000D+00 -0.961963D-03  0.176334D-02  0.000000D+00 -0.148654D+00
     35  0.000000D+00 -0.675730D-03  0.626129D-03  0.000000D+00  0.139340D+00
     36  0.000000D+00  0.000000D+00  0.000000D+00  0.619232D-03  0.000000D+00
               11            12            13            14            15 
     11  0.591022D+00
     12  0.000000D+00  0.560043D+00
     13  0.376645D-02 -0.314407D-02  0.627999D-01
     14 -0.568490D-03 -0.295780D-03  0.126882D-01  0.143711D+00
     15 -0.480661D-03  0.117742D-02 -0.256007D-01 -0.123825D+00  0.230324D+00
     16  0.376645D-02  0.314407D-02  0.227683D-02  0.131265D-02  0.426814D-02
     17 -0.568491D-03  0.295780D-03  0.131265D-02  0.111694D-01  0.139637D-01
     18  0.480661D-03  0.117742D-02 -0.426814D-02 -0.139637D-01 -0.230160D-01
     19 -0.156405D-03 -0.660879D-04  0.143246D-02  0.827466D-03  0.359420D-03
     20  0.191072D-03  0.119534D-03  0.580174D-03  0.257616D-04  0.144070D-03
     21  0.253180D-03  0.182980D-03 -0.656669D-03  0.140534D-03  0.866867D-03
     22  0.166184D-02  0.000000D+00  0.786645D-03 -0.225969D-03  0.770809D-03
     23  0.815810D-03  0.000000D+00  0.869504D-03  0.409980D-03  0.258880D-03
     24  0.000000D+00  0.719653D-03 -0.111259D-03 -0.811221D-04 -0.803281D-04
     25 -0.156406D-03  0.660879D-04 -0.548774D-02 -0.238591D-02 -0.408885D-03
     26  0.191072D-03 -0.119535D-03 -0.305723D-02 -0.301027D-03 -0.658150D-03
     27 -0.253180D-03  0.182981D-03 -0.599731D-03 -0.325797D-04  0.155190D-02
     28 -0.107067D-01  0.203379D-01  0.588525D-03  0.106032D-02 -0.137116D-02
     29 -0.125772D+00  0.110787D+00 -0.101981D-02  0.878197D-03  0.327198D-04
     30  0.112316D+00 -0.222200D+00  0.129443D-02 -0.520584D-03 -0.256198D-03
     31 -0.107067D-01 -0.203379D-01 -0.439775D-03  0.609323D-03  0.151182D-03
     32 -0.125772D+00 -0.110787D+00 -0.347747D-03  0.148081D-03 -0.385981D-04
     33 -0.112316D+00 -0.222200D+00  0.108673D-03 -0.264675D-04 -0.641188D-03
     34  0.126419D+00  0.000000D+00  0.311229D-04  0.155954D-03 -0.295776D-03
     35 -0.222191D+00  0.000000D+00 -0.198682D-03  0.180384D-03 -0.297922D-03
     36  0.000000D+00 -0.510982D-01  0.213597D-03 -0.388085D-03  0.330346D-03
               16            17            18            19            20 
     16  0.627999D-01
     17  0.126882D-01  0.143711D+00
     18  0.256007D-01  0.123825D+00  0.230324D+00
     19 -0.548774D-02 -0.238591D-02  0.408885D-03  0.522194D-01
     20 -0.305723D-02 -0.301027D-03  0.658150D-03  0.192922D-01  0.145835D+00
     21  0.599731D-03  0.325797D-04  0.155190D-02  0.227892D-01  0.139045D+00
     22  0.786645D-03 -0.225969D-03 -0.770809D-03  0.298118D-02 -0.331969D-02
     23  0.869504D-03  0.409981D-03 -0.258880D-03  0.125396D-01 -0.122000D-01
     24  0.111259D-03  0.811223D-04 -0.803280D-04  0.205089D-01 -0.172678D-01
     25  0.143246D-02  0.827466D-03 -0.359420D-03 -0.819197D-03  0.207289D-02
     26  0.580174D-03  0.257616D-04 -0.144070D-03  0.207289D-02  0.121856D-01
     27  0.656669D-03 -0.140534D-03  0.866867D-03  0.220424D-02  0.157058D-01
     28 -0.439775D-03  0.609323D-03 -0.151182D-03  0.539925D-04 -0.400045D-04
     29 -0.347747D-03  0.148081D-03  0.385981D-04  0.265114D-05 -0.629137D-04
     30 -0.108673D-03  0.264675D-04 -0.641188D-03 -0.419446D-04  0.916996D-05
     31  0.588525D-03  0.106032D-02  0.137116D-02  0.160312D-03  0.183315D-03
     32 -0.101981D-02  0.878197D-03 -0.327198D-04  0.218157D-03 -0.318595D-04
     33 -0.129443D-02  0.520584D-03 -0.256198D-03  0.248711D-03  0.447363D-04
     34  0.311226D-04  0.155955D-03  0.295776D-03  0.373295D-04 -0.280991D-04
     35 -0.198682D-03  0.180384D-03  0.297922D-03  0.101557D-03  0.376528D-04
     36 -0.213597D-03  0.388085D-03  0.330346D-03  0.101867D-03  0.381448D-04
               21            22            23            24            25 
     21  0.245489D+00
     22  0.836660D-03  0.206216D+00
     23  0.161959D-02 -0.147989D+00  0.189242D+00
     24  0.107337D-02  0.000000D+00  0.000000D+00  0.456555D-01
     25 -0.220424D-02  0.298118D-02  0.125396D-01 -0.205089D-01  0.522194D-01
     26 -0.157058D-01 -0.331969D-02 -0.122000D-01  0.172678D-01  0.192922D-01
     27 -0.202506D-01 -0.836659D-03 -0.161959D-02  0.107337D-02 -0.227892D-01
     28  0.306206D-04 -0.130999D-03  0.432330D-04 -0.126156D-03  0.160312D-03
     29  0.928436D-05 -0.108855D-03  0.153459D-04 -0.285638D-04  0.218157D-03
     30 -0.102948D-04  0.128504D-03  0.322936D-04 -0.389426D-04 -0.248711D-03
     31  0.150976D-03 -0.130999D-03  0.432330D-04  0.126155D-03  0.539925D-04
     32  0.149556D-04 -0.108856D-03  0.153460D-04  0.285638D-04  0.265114D-05
     33 -0.224694D-04 -0.128505D-03 -0.322930D-04 -0.389426D-04  0.419446D-04
     34 -0.817335D-04 -0.592223D-03 -0.330664D-03  0.000000D+00  0.373300D-04
     35 -0.151493D-04 -0.192781D-03 -0.145308D-03  0.000000D+00  0.101556D-03
     36 -0.209415D-04  0.000000D+00  0.000000D+00  0.727653D-05 -0.101867D-03
               26            27            28            29            30 
     26  0.145835D+00
     27 -0.139045D+00  0.245489D+00
     28  0.183315D-03 -0.150976D-03  0.652291D-01
     29 -0.318595D-04 -0.149556D-04  0.266120D-01  0.135884D+00
     30 -0.447363D-04 -0.224694D-04 -0.310043D-01 -0.126627D+00  0.235508D+00
     31 -0.400045D-04 -0.306206D-04  0.235484D-02  0.294894D-02  0.186786D-02
     32 -0.629137D-04 -0.928436D-05  0.294894D-02  0.108915D-01  0.149890D-01
     33 -0.916996D-05 -0.102948D-04 -0.186786D-02 -0.149890D-01 -0.219802D-01
     34 -0.280992D-04  0.817333D-04  0.446618D-02 -0.279964D-02 -0.930074D-03
     35  0.376519D-04  0.151494D-04  0.958150D-02 -0.122029D-01 -0.125737D-02
     36 -0.381448D-04 -0.209414D-04 -0.169578D-01  0.212416D-01  0.120185D-02
               31            32            33            34            35 
     31  0.652291D-01
     32  0.266120D-01  0.135884D+00
     33  0.310043D-01  0.126627D+00  0.235508D+00
     34  0.446618D-02 -0.279964D-02  0.930073D-03  0.178427D+00
     35  0.958150D-02 -0.122029D-01  0.125737D-02 -0.142517D+00  0.231030D+00
     36  0.169578D-01 -0.212416D-01  0.120185D-02  0.000000D+00  0.000000D+00
               36 
     36  0.473091D-01
 FormGI is forming the generalized inverse of G from B-inverse, IUseBI=4.
 Leave Link  716 at Tue Mar 12 00:34:49 2019, MaxMem=   671088640 cpu:               0.5 elap:               0.0
 (Enter /shared/centos7/gaussian/g16/l103.exe)

 GradGradGradGradGradGradGradGradGradGradGradGradGradGradGradGradGradGrad
 Berny optimization.
 Red2BG is reusing G-inverse.
 Internal  Forces:  Max     0.000000029 RMS     0.000000009
 Search for a local minimum.
 Step number   1 out of a maximum of   55 on scan point     1 out of    37
 All quantities printed in internal units (Hartrees-Bohrs-Radians)
 RMS Force = .88170D-08 SwitMx=.10000D-02 MixMth= 2
 Mixed Optimization -- En-DIIS/RFO-DIIS
 Second derivative matrix not updated -- analytic derivatives used.
 ITU=  0
     Eigenvalues ---    0.00245   0.00610   0.04263   0.04382   0.04476
     Eigenvalues ---    0.05769   0.08142   0.08735   0.08793   0.12057
     Eigenvalues ---    0.12350   0.13091   0.13610   0.16349   0.18098
     Eigenvalues ---    0.18815   0.23118   0.25140   0.31289   0.31707
     Eigenvalues ---    0.32143   0.32519   0.33288   0.34473   0.34570
     Eigenvalues ---    0.34937   0.35262   0.40071   0.438431000.00000
     Eigenvalues --- 1000.000001000.000001000.000001000.000001000.00000
     Eigenvalues --- 1000.000001000.000001000.000001000.000001000.00000
     Eigenvalues --- 1000.000001000.000001000.000001000.000001000.00000
 RFO step:  Lambda= 0.00000000D+00 EMin= 2.45209232D-03
 Linear search not attempted -- first point.
 Iteration  1 RMS(Cart)=  0.00000023 RMS(Int)=  0.00000000
 Iteration  1 RMS(Cart)=  0.00000000 RMS(Int)=  0.00000000
 ITry= 1 IFail=0 DXMaxC= 5.63D-07 DCOld= 1.00D+10 DXMaxT= 3.00D-01 DXLimC= 3.00D+00 Rises=F
 ClnCor:  largest displacement from symmetrization is 9.83D-08 for atom    11.
 Variable       Old X    -DE/DX   Delta X   Delta X   Delta X     New X
                                 (Linear)    (Quad)   (Total)
    R1        2.65939  -0.00000   0.00000  -0.00000  -0.00000   2.65939
    R2        2.64968   0.00000   0.00000   0.00000   0.00000   2.64968
    R3        2.85657   0.00000   0.00000   0.00000   0.00000   2.85657
    R4        2.07476  -0.00000   0.00000  -0.00000  -0.00000   2.07476
    R5        2.07476  -0.00000   0.00000  -0.00000  -0.00000   2.07476
    R6        2.05756   0.00000   0.00000  -0.00000   0.00000   2.05756
    R7        2.05843   0.00000   0.00000   0.00000   0.00000   2.05843
    R8        2.05756   0.00000   0.00000  -0.00000   0.00000   2.05756
    R9        2.07082   0.00000   0.00000   0.00000   0.00000   2.07082
   R10        2.07082   0.00000   0.00000   0.00000   0.00000   2.07082
   R11        2.05457   0.00000   0.00000  -0.00000  -0.00000   2.05457
    A1        1.96337  -0.00000   0.00000  -0.00000  -0.00000   1.96337
    A2        1.89597   0.00000   0.00000   0.00000   0.00000   1.89597
    A3        1.91483  -0.00000   0.00000  -0.00000  -0.00000   1.91483
    A4        1.91483  -0.00000   0.00000  -0.00000  -0.00000   1.91483
    A5        1.93267  -0.00000   0.00000  -0.00000  -0.00000   1.93267
    A6        1.93267  -0.00000   0.00000  -0.00000  -0.00000   1.93267
    A7        1.87288   0.00000   0.00000  -0.00000  -0.00000   1.87288
    A8        1.92418   0.00000   0.00000   0.00000   0.00000   1.92418
    A9        1.92833  -0.00000   0.00000  -0.00000  -0.00000   1.92833
   A10        1.92418   0.00000   0.00000   0.00000   0.00000   1.92418
   A11        1.89713   0.00000   0.00000  -0.00000  -0.00000   1.89713
   A12        1.89214  -0.00000   0.00000   0.00000   0.00000   1.89214
   A13        1.89713   0.00000   0.00000  -0.00000  -0.00000   1.89713
   A14        1.94135  -0.00000   0.00000  -0.00000  -0.00000   1.94135
   A15        1.94135  -0.00000   0.00000  -0.00000  -0.00000   1.94135
   A16        1.88057   0.00000   0.00000   0.00000   0.00000   1.88057
   A17        1.89285   0.00000   0.00000  -0.00000   0.00000   1.89285
   A18        1.90358   0.00000   0.00000   0.00000   0.00000   1.90358
   A19        1.90358   0.00000   0.00000   0.00000   0.00000   1.90358
    D1        3.14159  -0.00000   0.00000  -0.00000   0.00000   3.14159
    D2        1.02669  -0.00000   0.00000  -0.00000  -0.00000   1.02669
    D3       -1.02669   0.00000   0.00000   0.00000   0.00000  -1.02669
    D4       -1.05603   0.00000   0.00000   0.00000   0.00000  -1.05603
    D5        1.05603  -0.00000   0.00000  -0.00000  -0.00000   1.05603
    D6        3.14159  -0.00000   0.00000  -0.00000   0.00000   3.14159
    D7       -1.04424  -0.00000   0.00000  -0.00000  -0.00000  -1.04424
    D8        3.14159   0.00000   0.00000  -0.00000   0.00000   3.14159
    D9        1.04424   0.00000   0.00000   0.00000   0.00000   1.04424
   D10        1.05966  -0.00000   0.00000  -0.00000  -0.00000   1.05966
   D11       -1.03769   0.00000   0.00000   0.00000   0.00000  -1.03769
   D12       -3.13504   0.00000   0.00000   0.00000   0.00000  -3.13504
   D13        3.13504  -0.00000   0.00000  -0.00000  -0.00000   3.13504
   D14        1.03769  -0.00000   0.00000  -0.00000  -0.00000   1.03769
   D15       -1.05966   0.00000   0.00000   0.00000   0.00000  -1.05966
         Item               Value     Threshold  Converged?
 Maximum Force            0.000000     0.000450     YES
 RMS     Force            0.000000     0.000300     YES
 Maximum Displacement     0.000001     0.001800     YES
 RMS     Displacement     0.000000     0.001200     YES
 Predicted change in Energy=-1.351858D-14
 Optimization completed.
    -- Stationary point found.
                           ----------------------------
                           !   Optimized Parameters   !
                           ! (Angstroms and Degrees)  !
 --------------------------                            --------------------------
 ! Name  Definition              Value          Derivative Info.                !
 --------------------------------------------------------------------------------
 ! R1    R(1,2)                  1.4073         -DE/DX =    0.0                 !
 ! R2    R(1,4)                  1.4021         -DE/DX =    0.0                 !
 ! R3    R(2,3)                  1.5116         -DE/DX =    0.0                 !
 ! R4    R(2,5)                  1.0979         -DE/DX =    0.0                 !
 ! R5    R(2,6)                  1.0979         -DE/DX =    0.0                 !
 ! R6    R(3,7)                  1.0888         -DE/DX =    0.0                 !
 ! R7    R(3,8)                  1.0893         -DE/DX =    0.0                 !
 ! R8    R(3,9)                  1.0888         -DE/DX =    0.0                 !
 ! R9    R(4,10)                 1.0958         -DE/DX =    0.0                 !
 ! R10   R(4,11)                 1.0958         -DE/DX =    0.0                 !
 ! R11   R(4,12)                 1.0872         -DE/DX =    0.0                 !
 ! A1    A(2,1,4)              112.4926         -DE/DX =    0.0                 !
 ! A2    A(1,2,3)              108.6312         -DE/DX =    0.0                 !
 ! A3    A(1,2,5)              109.7115         -DE/DX =    0.0                 !
 ! A4    A(1,2,6)              109.7115         -DE/DX =    0.0                 !
 ! A5    A(3,2,5)              110.734          -DE/DX =    0.0                 !
 ! A6    A(3,2,6)              110.734          -DE/DX =    0.0                 !
 ! A7    A(5,2,6)              107.3082         -DE/DX =    0.0                 !
 ! A8    A(2,3,7)              110.2472         -DE/DX =    0.0                 !
 ! A9    A(2,3,8)              110.4851         -DE/DX =    0.0                 !
 ! A10   A(2,3,9)              110.2472         -DE/DX =    0.0                 !
 ! A11   A(7,3,8)              108.6975         -DE/DX =    0.0                 !
 ! A12   A(7,3,9)              108.4116         -DE/DX =    0.0                 !
 ! A13   A(8,3,9)              108.6975         -DE/DX =    0.0                 !
 ! A14   A(1,4,10)             111.2311         -DE/DX =    0.0                 !
 ! A15   A(1,4,11)             111.2311         -DE/DX =    0.0                 !
 ! A16   A(1,4,12)             107.7487         -DE/DX =    0.0                 !
 ! A17   A(10,4,11)            108.4525         -DE/DX =    0.0                 !
 ! A18   A(10,4,12)            109.0673         -DE/DX =    0.0                 !
 ! A19   A(11,4,12)            109.0673         -DE/DX =    0.0                 !
 ! D1    D(4,1,2,3)            180.0            -DE/DX =    0.0                 !
 ! D2    D(4,1,2,5)             58.8248         -DE/DX =    0.0                 !
 ! D3    D(4,1,2,6)            -58.8248         -DE/DX =    0.0                 !
 ! D4    D(2,1,4,10)           -60.5062         -DE/DX =    0.0                 !
 ! D5    D(2,1,4,11)            60.5062         -DE/DX =    0.0                 !
 ! D6    D(2,1,4,12)           180.0            -DE/DX =    0.0                 !
 ! D7    D(1,2,3,7)            -59.8308         -DE/DX =    0.0                 !
 ! D8    D(1,2,3,8)            180.0            -DE/DX =    0.0                 !
 ! D9    D(1,2,3,9)             59.8308         -DE/DX =    0.0                 !
 ! D10   D(5,2,3,7)             60.714          -DE/DX =    0.0                 !
 ! D11   D(5,2,3,8)            -59.4552         -DE/DX =    0.0                 !
 ! D12   D(5,2,3,9)           -179.6244         -DE/DX =    0.0                 !
 ! D13   D(6,2,3,7)            179.6244         -DE/DX =    0.0                 !
 ! D14   D(6,2,3,8)             59.4552         -DE/DX =    0.0                 !
 ! D15   D(6,2,3,9)            -60.714          -DE/DX =    0.0                 !
 --------------------------------------------------------------------------------
 Lowest energy point so far.  Saving SCF results.
 Iteration  1 RMS(Cart)=  0.03011465 RMS(Int)=  0.01724509
 Iteration  2 RMS(Cart)=  0.00164610 RMS(Int)=  0.01722150
 Iteration  3 RMS(Cart)=  0.00008533 RMS(Int)=  0.01722146
 Iteration  4 RMS(Cart)=  0.00000447 RMS(Int)=  0.01722146
 Iteration  5 RMS(Cart)=  0.00000027 RMS(Int)=  0.01722146
 Iteration  1 RMS(Cart)=  0.01328324 RMS(Int)=  0.00740754
 Iteration  2 RMS(Cart)=  0.00575476 RMS(Int)=  0.00825046
 Iteration  3 RMS(Cart)=  0.00245413 RMS(Int)=  0.00905049
 Iteration  4 RMS(Cart)=  0.00103928 RMS(Int)=  0.00944722
 Iteration  5 RMS(Cart)=  0.00043879 RMS(Int)=  0.00962351
 Iteration  6 RMS(Cart)=  0.00018502 RMS(Int)=  0.00969930
 Iteration  7 RMS(Cart)=  0.00007798 RMS(Int)=  0.00973150
 Iteration  8 RMS(Cart)=  0.00003285 RMS(Int)=  0.00974511
 Iteration  9 RMS(Cart)=  0.00001384 RMS(Int)=  0.00975085
 Iteration 10 RMS(Cart)=  0.00000583 RMS(Int)=  0.00975327
 Iteration 11 RMS(Cart)=  0.00000246 RMS(Int)=  0.00975429
 Iteration 12 RMS(Cart)=  0.00000103 RMS(Int)=  0.00975472
 Iteration 13 RMS(Cart)=  0.00000044 RMS(Int)=  0.00975490
 GradGradGradGradGradGradGradGradGradGradGradGradGradGradGradGradGradGrad

 Leave Link  103 at Tue Mar 12 00:34:49 2019, MaxMem=   671088640 cpu:               0.7 elap:               0.1
 (Enter /shared/centos7/gaussian/g16/l202.exe)
                          Input orientation:                          
 ---------------------------------------------------------------------
 Center     Atomic      Atomic             Coordinates (Angstroms)
 Number     Number       Type             X           Y           Z
 ---------------------------------------------------------------------
      1          8           0        0.495288   -0.485754    0.050904
      2          6           0       -0.479877    0.528583    0.023984
      3          6           0       -1.824660   -0.161073   -0.009264
      4          6           0        1.800396    0.023150   -0.012935
      5          1           0       -0.365051    1.173493   -0.857111
      6          1           0       -0.467015    1.125401    0.946021
      7          1           0       -1.907804   -0.781975   -0.899854
      8          1           0       -2.629408    0.572987   -0.018960
      9          1           0       -1.943430   -0.797634    0.866071
     10          1           0        1.961579    0.587549   -0.938480
     11          1           0        2.011259    0.682594    0.836690
     12          1           0        2.486414   -0.819969    0.012934
 ---------------------------------------------------------------------
                    Distance matrix (angstroms):
                    1          2          3          4          5
     1  O    0.000000
     2  C    1.407321   0.000000
     3  C    2.343330   1.511679   0.000000
     4  C    1.402272   2.335909   3.629736   0.000000
     5  H    2.077926   1.097917   2.151829   2.593277   0.000000
     6  H    2.079203   1.098412   2.100187   2.697352   1.806652
     7  H    2.601258   2.147094   1.088845   3.896871   2.491138
     8  H    3.299931   2.150418   1.089293   4.463802   2.488055
     9  H    2.590195   2.147079   1.088819   3.932248   3.057119
    10  H    2.069026   2.624980   3.969822   1.095974   2.400658
    11  H    2.068977   2.624876   4.017672   1.095989   2.959188
    12  H    2.019338   3.258466   4.361192   1.087263   3.586325
                    6          7          8          9         10
     6  H    0.000000
     7  H    3.020135   0.000000
     8  H    2.431521   1.769918   0.000000
     9  H    2.425749   1.766354   1.769873   0.000000
    10  H    3.120688   4.104779   4.682189   4.519317   0.000000
    11  H    2.519896   4.529858   4.720164   4.222737   1.778407
    12  H    3.657576   4.488183   5.302168   4.511304   1.778131
                   11         12
    11  H    0.000000
    12  H    1.778213   0.000000
 Stoichiometry    C3H8O
 Framework group  C1[X(C3H8O)]
 Deg. of freedom    30
 Full point group                 C1      NOp   1
 Omega: Change in point group or standard orientation.

 Old FWG=CS   [SG(C3H2O1),X(H6)]
 New FWG=C01  [X(C3H8O1)]
 RotChk:  IX=0 Diff= 1.07D+00
 Largest Abelian subgroup         C1      NOp   1
 Largest concise Abelian subgroup C1      NOp   1
                         Standard orientation:                         
 ---------------------------------------------------------------------
 Center     Atomic      Atomic             Coordinates (Angstroms)
 Number     Number       Type             X           Y           Z
 ---------------------------------------------------------------------
      1          8           0       -0.495656   -0.489129   -0.035748
      2          6           0        0.485431    0.519685   -0.017980
      3          6           0        1.826092   -0.177483    0.023945
      4          6           0       -1.797819    0.028058    0.021299
      5          1           0        0.373377    1.174217    0.856350
      6          1           0        0.477155    1.107128   -0.946071
      7          1           0        1.904543   -0.789741    0.920923
      8          1           0        2.635135    0.551899    0.027140
      9          1           0        1.942132   -0.823630   -0.844706
     10          1           0       -1.956754    0.602810    0.940842
     11          1           0       -2.003808    0.680024   -0.835264
     12          1           0       -2.488757   -0.811238    0.003190
 ---------------------------------------------------------------------
 Rotational constants (GHZ):          28.1052522           4.2333844           3.9585598
 Leave Link  202 at Tue Mar 12 00:34:49 2019, MaxMem=   671088640 cpu:               0.1 elap:               0.0
 (Enter /shared/centos7/gaussian/g16/l301.exe)
 Standard basis: 6-311+G(2df,2p) (5D, 7F)
 Ernie: Thresh=  0.10000D-02 Tol=  0.10000D-05 Strict=F.
 There are   228 symmetry adapted cartesian basis functions of A   symmetry.
 There are   208 symmetry adapted basis functions of A   symmetry.
   208 basis functions,   296 primitive gaussians,   228 cartesian basis functions
    17 alpha electrons       17 beta electrons
       nuclear repulsion energy       134.3382887484 Hartrees.
 IExCor= 4336 DFT=T Ex+Corr=M062X ExCW=0 ScaHFX=  0.540000
 ScaDFX=  1.000000  1.000000  1.000000  1.000000 ScalE2=  1.000000  1.000000
 IRadAn=      5 IRanWt=     -1 IRanGd=            0 ICorTp=0 IEmpDi=  4
 NAtoms=   12 NActive=   12 NUniq=   12 SFac= 1.00D+00 NAtFMM=   60 NAOKFM=F Big=F
 Integral buffers will be    131072 words long.
 Raffenetti 2 integral format.
 Two-electron integral symmetry is turned on.
 Leave Link  301 at Tue Mar 12 00:34:49 2019, MaxMem=   671088640 cpu:               0.9 elap:               0.1
 (Enter /shared/centos7/gaussian/g16/l302.exe)
 NPDir=0 NMtPBC=     1 NCelOv=     1 NCel=       1 NClECP=     1 NCelD=      1
         NCelK=      1 NCelE2=     1 NClLst=     1 CellRange=     0.0.
 One-electron integrals computed using PRISM.
 One-electron integral symmetry used in STVInt
 NBasis=   208 RedAO= T EigKep=  7.92D-05  NBF=   208
 NBsUse=   208 1.00D-06 EigRej= -1.00D+00 NBFU=   208
 Precomputing XC quadrature grid using
 IXCGrd= 4 IRadAn=           5 IRanWt=          -1 IRanGd=           0 AccXCQ= 0.00D+00.
 Generated NRdTot=       0 NPtTot=           0 NUsed=           0 NTot=          32
 NSgBfM=   228   228   228   228   228 MxSgAt=    12 MxSgA2=    12.
 Leave Link  302 at Tue Mar 12 00:34:50 2019, MaxMem=   671088640 cpu:               5.2 elap:               0.3
 (Enter /shared/centos7/gaussian/g16/l303.exe)
 DipDrv:  MaxL=1.
 Leave Link  303 at Tue Mar 12 00:34:50 2019, MaxMem=   671088640 cpu:               0.7 elap:               0.1
 (Enter /shared/centos7/gaussian/g16/l401.exe)
 Initial guess from the checkpoint file:  "/scratch/underkoffler.c/gaussian_scratch/Gau-8536.chk"
 B after Tr=    -0.000000   -0.000000   -0.000000
         Rot=    0.925653    0.000625    0.001524    0.378369 Ang=  44.47 deg.
 Guess basis will be translated and rotated to current coordinates.
 JPrj=2 DoOrth=T DoCkMO=T.
 Generating alternative initial guess.
 ExpMin= 4.38D-02 ExpMax= 8.59D+03 ExpMxC= 1.30D+03 IAcc=2 IRadAn=         4 AccDes= 0.00D+00
 Harris functional with IExCor= 1009 and IRadAn=       4 diagonalized for initial guess.
 HarFok:  IExCor= 1009 AccDes= 0.00D+00 IRadAn=         4 IDoV= 1 UseB2=F ITyADJ=14
 ICtDFT=  3500011 ScaDFX=  1.000000  1.000000  1.000000  1.000000
 FoFCou: FMM=F IPFlag=           0 FMFlag=      100000 FMFlg1=           0
         NFxFlg=           0 DoJE=T BraDBF=F KetDBF=T FulRan=T
         wScrn=  0.000000 ICntrl=       500 IOpCl=  0 I1Cent=   200000004 NGrid=           0
         NMat0=    1 NMatS0=      1 NMatT0=    0 NMatD0=    1 NMtDS0=    0 NMtDT0=    0
 Petite list used in FoFCou.
 Harris En= -194.271614202604    
 Leave Link  401 at Tue Mar 12 00:34:50 2019, MaxMem=   671088640 cpu:               9.1 elap:               0.5
 (Enter /shared/centos7/gaussian/g16/l502.exe)
 Keep R1 ints in memory in canonical form, NReq=257412536.
 FoFCou: FMM=F IPFlag=           0 FMFlag=           0 FMFlg1=           0
         NFxFlg=           0 DoJE=F BraDBF=F KetDBF=F FulRan=T
         wScrn=  0.000000 ICntrl=       600 IOpCl=  0 I1Cent=           0 NGrid=           0
         NMat0=    1 NMatS0=  21736 NMatT0=    0 NMatD0=    1 NMtDS0=    0 NMtDT0=    0
 Symmetry not used in FoFCou.
 Two-electron integral symmetry not used.
 Closed shell SCF:
 Using DIIS extrapolation, IDIIS=  1040.
 NGot=   671088640 LenX=   434740204 LenY=   434687779
 Requested convergence on RMS density matrix=1.00D-08 within 128 cycles.
 Requested convergence on MAX density matrix=1.00D-06.
 Requested convergence on             energy=1.00D-06.
 No special actions if energy rises.

 Cycle   1  Pass 1  IDiag  1:
 E= -194.311757425858    
 DIIS: error= 2.99D-03 at cycle   1 NSaved=   1.
 NSaved= 1 IEnMin= 1 EnMin= -194.311757425858     IErMin= 1 ErrMin= 2.99D-03
 ErrMax= 2.99D-03  0.00D+00 EMaxC= 1.00D-01 BMatC= 1.85D-03 BMatP= 1.85D-03
 IDIUse=3 WtCom= 9.70D-01 WtEn= 2.99D-02
 Coeff-Com:  0.100D+01
 Coeff-En:   0.100D+01
 Coeff:      0.100D+01
 Gap=     0.632 Goal=   None    Shift=    0.000
 GapD=    0.632 DampG=2.000 DampE=1.000 DampFc=2.0000 IDamp=-1.
 RMSDP=2.67D-04 MaxDP=7.08D-03              OVMax= 1.30D-02

 Cycle   2  Pass 1  IDiag  1:
 E= -194.314166509520     Delta-E=       -0.002409083662 Rises=F Damp=F
 DIIS: error= 4.71D-04 at cycle   2 NSaved=   2.
 NSaved= 2 IEnMin= 2 EnMin= -194.314166509520     IErMin= 2 ErrMin= 4.71D-04
 ErrMax= 4.71D-04  0.00D+00 EMaxC= 1.00D-01 BMatC= 4.91D-05 BMatP= 1.85D-03
 IDIUse=3 WtCom= 9.95D-01 WtEn= 4.71D-03
 Coeff-Com: -0.129D+00 0.113D+01
 Coeff-En:   0.000D+00 0.100D+01
 Coeff:     -0.128D+00 0.113D+01
 Gap=     0.352 Goal=   None    Shift=    0.000
 RMSDP=4.79D-05 MaxDP=8.90D-04 DE=-2.41D-03 OVMax= 3.29D-03

 Cycle   3  Pass 1  IDiag  1:
 E= -194.314266116463     Delta-E=       -0.000099606943 Rises=F Damp=F
 DIIS: error= 1.08D-04 at cycle   3 NSaved=   3.
 NSaved= 3 IEnMin= 3 EnMin= -194.314266116463     IErMin= 3 ErrMin= 1.08D-04
 ErrMax= 1.08D-04  0.00D+00 EMaxC= 1.00D-01 BMatC= 3.52D-06 BMatP= 4.91D-05
 IDIUse=3 WtCom= 9.99D-01 WtEn= 1.08D-03
 Coeff-Com: -0.315D-01 0.175D+00 0.856D+00
 Coeff-En:   0.000D+00 0.000D+00 0.100D+01
 Coeff:     -0.315D-01 0.175D+00 0.856D+00
 Gap=     0.352 Goal=   None    Shift=    0.000
 RMSDP=9.95D-06 MaxDP=3.53D-04 DE=-9.96D-05 OVMax= 6.62D-04

 Cycle   4  Pass 1  IDiag  1:
 E= -194.314269034786     Delta-E=       -0.000002918323 Rises=F Damp=F
 DIIS: error= 6.58D-05 at cycle   4 NSaved=   4.
 NSaved= 4 IEnMin= 4 EnMin= -194.314269034786     IErMin= 4 ErrMin= 6.58D-05
 ErrMax= 6.58D-05  0.00D+00 EMaxC= 1.00D-01 BMatC= 1.57D-06 BMatP= 3.52D-06
 IDIUse=1 WtCom= 1.00D+00 WtEn= 0.00D+00
 Coeff-Com: -0.123D-02-0.395D-01 0.398D+00 0.643D+00
 Coeff:     -0.123D-02-0.395D-01 0.398D+00 0.643D+00
 Gap=     0.352 Goal=   None    Shift=    0.000
 RMSDP=4.13D-06 MaxDP=2.21D-04 DE=-2.92D-06 OVMax= 3.23D-04

 Cycle   5  Pass 1  IDiag  1:
 E= -194.314270175933     Delta-E=       -0.000001141148 Rises=F Damp=F
 DIIS: error= 1.90D-05 at cycle   5 NSaved=   5.
 NSaved= 5 IEnMin= 5 EnMin= -194.314270175933     IErMin= 5 ErrMin= 1.90D-05
 ErrMax= 1.90D-05  0.00D+00 EMaxC= 1.00D-01 BMatC= 1.04D-07 BMatP= 1.57D-06
 IDIUse=1 WtCom= 1.00D+00 WtEn= 0.00D+00
[...]
           A4         110.18067 110.14534 110.07770 109.96534 109.83496
           A5         110.52466 110.43055 110.43269 110.50151 110.60609
           A6         110.37910 110.97868 111.43885 111.61619 111.57066
           A7         107.33004 106.80707 106.44066 106.34072 106.44503
           A8         109.99870 109.95737 109.94195 109.98495 110.06028
           A9         110.76588 110.68322 110.62213 110.57282 110.52603
           A10        110.42724 110.47758 110.48035 110.44584 110.41016
           A11        108.63344 108.57999 108.57328 108.56958 108.59047
           A12        108.27758 108.29517 108.32045 108.35187 108.38051
           A13        108.67427 108.78585 108.84336 108.85833 108.81717
           A14        111.58075 111.65730 111.65412 111.57455 111.44842
           A15        111.42610 111.33252 111.23732 111.16946 111.14364
           A16        107.47402 107.47071 107.52090 107.59647 107.68261
           A17        108.61484 108.58771 108.54820 108.51758 108.48291
           A18        108.85142 108.79250 108.78397 108.82251 108.89751
           A19        108.82477 108.93371 109.03580 109.10636 109.13794
           D1        -120.73869-131.25903-141.58720-151.57215-161.30981
           D2         118.33024 107.89067  97.57361  87.51883  77.66665
           D3           1.17512  -8.82491 -18.82494 -28.82492 -38.82495
           D4         -62.68555 -62.10402 -61.20451 -60.29267 -59.71861
           D5          58.91342  59.44786  60.22736  60.99709  61.42168
           D6         178.05275 178.66384 179.54396-179.59259-179.09076
           D7         -57.51053 -57.05421 -56.91361 -57.25513 -57.90680
           D8        -177.61907-177.01664-176.81892-177.15215-177.84840
           D9          61.94106  62.42459  62.58846  62.29145  61.70064
           D10         62.11425  62.75985  63.05446  62.87485  62.37422
           D11        -57.99430 -57.20259 -56.85085 -57.02217 -57.56739
           D12       -178.43416-177.76136-177.44347-177.57857-178.01835
           D13       -179.30632-178.99165-178.86148-179.00893-179.34018
           D14         60.58513  61.04592  61.23321  61.09405  60.71821
           D15        -59.85473 -59.51285 -59.35941 -59.46234 -59.73275
                          36        37
     Eigenvalues --    -0.31530  -0.31556
           R1           1.40784   1.40731
           R2           1.40214   1.40213
           R3           1.51110   1.51159
           R4           1.09820   1.09792
           R5           1.09769   1.09791
           R6           1.08890   1.08882
           R7           1.08928   1.08926
           R8           1.08874   1.08882
           R9           1.09606   1.09586
           R10          1.09558   1.09582
           R11          1.08725   1.08724
           A1         112.59805 112.50141
           A2         108.78093 108.62947
           A3         109.53316 109.70828
           A4         109.74990 109.70419
           A5         110.70777 110.74351
           A6         111.23298 110.73566
           A7         106.81337 107.30920
           A8         110.15530 110.24742
           A9         110.50262 110.49568
           A10        110.33404 110.23650
           A11        108.63470 108.69645
           A12        108.39895 108.41464
           A13        108.75997 108.69558
           A14        111.31899 111.23214
           A15        111.16386 111.23465
           A16        107.73929 107.74596
           A17        108.45606 108.44367
           A18        108.98767 109.06967
           A19        109.13139 109.07213
           D1        -170.73098-179.99652
           D2          68.14201  58.81976
           D3         -48.82491 -58.82492
           D4         -59.75308 -60.49026
           D5          61.27791  60.51397
           D6        -179.19524-179.98591
           D7         -58.76808 -59.83238
           D8        -178.81089 179.99287
           D9          60.87446  59.82627
           D10         61.63606  60.71313
           D11        -58.40675 -59.46162
           D12       -178.72140-179.62822
           D13       -179.76800 179.63199
           D14         60.18919  59.45724
           D15        -60.12546 -60.70936
 Largest change from initial coordinates is atom    8       1.977 Angstoms.
 GradGradGradGradGradGradGradGradGradGradGradGradGradGradGradGradGradGrad

 Leave Link  103 at Tue Mar 12 01:09:55 2019, MaxMem=   671088640 cpu:               0.4 elap:               0.0
 (Enter /shared/centos7/gaussian/g16/l202.exe)
                          Input orientation:                          
 ---------------------------------------------------------------------
 Center     Atomic      Atomic             Coordinates (Angstroms)
 Number     Number       Type             X           Y           Z
 ---------------------------------------------------------------------
      1          8           0        0.640329    0.109099   -0.476147
      2          6           0       -0.561020    0.176948    0.253693
      3          6           0       -1.655234    0.674905   -0.662629
      4          6           0        1.715162   -0.346122    0.300695
      5          1           0       -0.435573    0.850654    1.111493
      6          1           0       -0.809009   -0.815823    0.651571
      7          1           0       -1.404350    1.662117   -1.047342
      8          1           0       -2.601510    0.739029   -0.126955
      9          1           0       -1.777059   -0.002320   -1.506456
     10          1           0        1.901963    0.321235    1.149603
     11          1           0        1.526767   -1.354122    0.687037
     12          1           0        2.597227   -0.368245   -0.334564
 ---------------------------------------------------------------------
                    Distance matrix (angstroms):
                    1          2          3          4          5
     1  O    0.000000
     2  C    1.407306   0.000000
     3  C    2.371608   1.511592   0.000000
     4  C    1.402132   2.335983   3.651035   0.000000
     5  H    2.056227   1.097924   2.160085   2.591395   0.000000
     6  H    2.056163   1.097907   2.159974   2.591365   1.768652
     7  H    2.630369   2.147003   1.088822   3.947351   2.501513
     8  H    3.320884   2.150448   1.089265   4.471476   2.497498
     9  H    2.630155   2.146861   1.088816   3.947101   3.062810
    10  H    2.068764   2.624836   4.007858   1.095858   2.397043
    11  H    2.068764   2.625037   4.007952   1.095819   2.981943
    12  H    2.019245   3.258498   4.390810   1.087236   3.574167
                    6          7          8          9         10
     6  H    0.000000
     7  H    3.062829   0.000000
     8  H    2.497344   1.769858   0.000000
     9  H    2.501197   1.766366   1.769843   0.000000
    10  H    2.981662   4.190017   4.699513   4.549126   0.000000
    11  H    2.397264   4.549419   4.699632   4.189755   1.778078
    12  H    3.574246   4.543461   5.319401   4.543304   1.778068
                   11         12
    11  H    0.000000
    12  H    1.778063   0.000000
 Stoichiometry    C3H8O
 Framework group  C1[X(C3H8O)]
 Deg. of freedom    30
 Full point group                 C1      NOp   1
 RotChk:  IX=2 Diff= 1.16D-15
 Largest Abelian subgroup         C1      NOp   1
 Largest concise Abelian subgroup C1      NOp   1
                         Standard orientation:                         
 ---------------------------------------------------------------------
 Center     Atomic      Atomic             Coordinates (Angstroms)
 Number     Number       Type             X           Y           Z
 ---------------------------------------------------------------------
      1          8           0       -0.503181   -0.498419    0.000029
      2          6           0        0.487891    0.500723    0.000026
      3          6           0        1.844899   -0.165191   -0.000002
      4          6           0       -1.800760    0.032865   -0.000024
      5          1           0        0.368685    1.140478    0.884300
      6          1           0        0.368732    1.140315   -0.884352
      7          1           0        1.957038   -0.792059    0.883171
      8          1           0        2.636774    0.582761   -0.000132
      9          1           0        1.956779   -0.792066   -0.883195
     10          1           0       -1.977406    0.648898    0.888910
     11          1           0       -1.977534    0.648490   -0.889168
     12          1           0       -2.499800   -0.799856    0.000237
 ---------------------------------------------------------------------
 Rotational constants (GHZ):          28.5226166           4.1909444           3.9230342
 Leave Link  202 at Tue Mar 12 01:09:55 2019, MaxMem=   671088640 cpu:               0.2 elap:               0.0
 (Enter /shared/centos7/gaussian/g16/l601.exe)
 Copying SCF densities to generalized density rwf, IOpCl= 0 IROHF=0.

 **********************************************************************

            Population analysis using the SCF density.

 **********************************************************************

 Orbital symmetries:
       Occupied  (A) (A) (A) (A) (A) (A) (A) (A) (A) (A) (A) (A)
                 (A) (A) (A) (A) (A)
       Virtual   (A) (A) (A) (A) (A) (A) (A) (A) (A) (A) (A) (A)
                 (A) (A) (A) (A) (A) (A) (A) (A) (A) (A) (A) (A)
                 (A) (A) (A) (A) (A) (A) (A) (A) (A) (A) (A) (A)
                 (A) (A) (A) (A) (A) (A) (A) (A) (A) (A) (A) (A)
                 (A) (A) (A) (A) (A) (A) (A) (A) (A) (A) (A) (A)
                 (A) (A) (A) (A) (A) (A) (A) (A) (A) (A) (A) (A)
                 (A) (A) (A) (A) (A) (A) (A) (A) (A) (A) (A) (A)
                 (A) (A) (A) (A) (A) (A) (A) (A) (A) (A) (A) (A)
                 (A) (A) (A) (A) (A) (A) (A) (A) (A) (A) (A) (A)
                 (A) (A) (A) (A) (A) (A) (A) (A) (A) (A) (A) (A)
                 (A) (A) (A) (A) (A) (A) (A) (A) (A) (A) (A) (A)
                 (A) (A) (A) (A) (A) (A) (A) (A) (A) (A) (A) (A)
                 (A) (A) (A) (A) (A) (A) (A) (A) (A) (A) (A) (A)
                 (A) (A) (A) (A) (A) (A) (A) (A) (A) (A) (A) (A)
                 (A) (A) (A) (A) (A) (A) (A) (A) (A) (A) (A) (A)
                 (A) (A) (A) (A) (A) (A) (A) (A) (A) (A) (A)
 The electronic state is 1-A.
 Alpha  occ. eigenvalues --  -19.62202 -10.57944 -10.57356 -10.52192  -1.16025
 Alpha  occ. eigenvalues --   -0.86133  -0.76608  -0.69403  -0.56379  -0.56069
 Alpha  occ. eigenvalues --   -0.52856  -0.48994  -0.44916  -0.42472  -0.41737
 Alpha  occ. eigenvalues --   -0.38931  -0.33086
 Alpha virt. eigenvalues --    0.01886   0.03050   0.04216   0.04357   0.05576
 Alpha virt. eigenvalues --    0.07100   0.07353   0.08626   0.09775   0.09969
 Alpha virt. eigenvalues --    0.13210   0.14347   0.18373   0.19233   0.19538
 Alpha virt. eigenvalues --    0.21274   0.22106   0.22553   0.24400   0.25307
 Alpha virt. eigenvalues --    0.26563   0.28553   0.28808   0.29443   0.30439
 Alpha virt. eigenvalues --    0.35366   0.37701   0.41805   0.44313   0.44501
 Alpha virt. eigenvalues --    0.47880   0.51037   0.51276   0.51583   0.54663
 Alpha virt. eigenvalues --    0.55918   0.56301   0.56817   0.57798   0.59171
 Alpha virt. eigenvalues --    0.60944   0.62572   0.64635   0.67267   0.68513
 Alpha virt. eigenvalues --    0.70120   0.74958   0.78104   0.81544   0.86491
 Alpha virt. eigenvalues --    0.87443   0.90186   0.90705   0.91949   0.97230
 Alpha virt. eigenvalues --    0.99978   1.05278   1.06087   1.07762   1.08790
 Alpha virt. eigenvalues --    1.11124   1.13970   1.14194   1.16604   1.17759
 Alpha virt. eigenvalues --    1.20275   1.21545   1.22557   1.25562   1.26283
 Alpha virt. eigenvalues --    1.28308   1.32265   1.33012   1.36629   1.39762
 Alpha virt. eigenvalues --    1.41107   1.41629   1.43376   1.44258   1.44823
 Alpha virt. eigenvalues --    1.48185   1.49008   1.51178   1.52096   1.57302
 Alpha virt. eigenvalues --    1.59601   1.60368   1.61703   1.74760   1.81313
 Alpha virt. eigenvalues --    2.03060   2.05787   2.10891   2.22061   2.37209
 Alpha virt. eigenvalues --    2.37602   2.46529   2.47059   2.48712   2.58340
 Alpha virt. eigenvalues --    2.61075   2.64429   2.70005   2.80313   2.85481
 Alpha virt. eigenvalues --    2.87948   2.96687   2.97731   3.03004   3.06525
 Alpha virt. eigenvalues --    3.08457   3.09235   3.10573   3.13852   3.14323
 Alpha virt. eigenvalues --    3.17144   3.17182   3.20626   3.26908   3.32817
 Alpha virt. eigenvalues --    3.35383   3.36011   3.37966   3.39262   3.41925
 Alpha virt. eigenvalues --    3.43905   3.50808   3.51693   3.55504   3.57366
 Alpha virt. eigenvalues --    3.60731   3.65963   3.66105   3.70851   3.76354
 Alpha virt. eigenvalues --    3.81107   3.82268   3.87011   3.88468   3.91983
 Alpha virt. eigenvalues --    3.95012   3.98822   4.02757   4.05845   4.08062
 Alpha virt. eigenvalues --    4.10502   4.14305   4.17675   4.20598   4.22167
 Alpha virt. eigenvalues --    4.22432   4.23951   4.25683   4.29098   4.31391
 Alpha virt. eigenvalues --    4.34280   4.40412   4.43183   4.48011   4.50096
 Alpha virt. eigenvalues --    4.51962   4.55870   4.57177   4.64913   4.91625
 Alpha virt. eigenvalues --    5.13091   5.21131   5.24768   5.31375   5.41951
 Alpha virt. eigenvalues --    5.50020   5.51821   5.56579   5.58946   5.59341
 Alpha virt. eigenvalues --    5.65827   5.66802   5.84010   5.87964   6.24401
 Alpha virt. eigenvalues --    6.47909   6.72471   7.19387   7.20267   7.32249
 Alpha virt. eigenvalues --    7.68713   7.76601  24.36530  24.43888  24.49315
 Alpha virt. eigenvalues --   50.17625
          Condensed to atoms (all electrons):
               1          2          3          4          5          6
     1  O    8.296474   0.094357  -0.094862   0.123198  -0.052690  -0.052703
     2  C    0.094357   5.080754   0.318926  -0.088726   0.445030   0.445053
     3  C   -0.094862   0.318926   5.082190  -0.030482  -0.046082  -0.046118
     4  C    0.123198  -0.088726  -0.030482   4.940050   0.002043   0.002060
     5  H   -0.052690   0.445030  -0.046082   0.002043   0.574486  -0.055384
     6  H   -0.052703   0.445053  -0.046118   0.002060  -0.055384   0.574498
     7  H   -0.002763  -0.029689   0.405501   0.000066  -0.008220   0.006689
     8  H    0.011817  -0.036058   0.416239   0.001014  -0.003919  -0.003921
     9  H   -0.002765  -0.029710   0.405515   0.000066   0.006689  -0.008225
    10  H   -0.048703  -0.003695  -0.003033   0.437635   0.008177  -0.003660
    11  H   -0.048708  -0.003698  -0.003035   0.437660  -0.003657   0.008175
    12  H   -0.055782   0.012255   0.002141   0.425889   0.000049   0.000048
               7          8          9         10         11         12
     1  O   -0.002763   0.011817  -0.002765  -0.048703  -0.048708  -0.055782
     2  C   -0.029689  -0.036058  -0.029710  -0.003695  -0.003698   0.012255
     3  C    0.405501   0.416239   0.405515  -0.003033  -0.003035   0.002141
     4  C    0.000066   0.001014   0.000066   0.437635   0.437660   0.425889
     5  H   -0.008220  -0.003919   0.006689   0.008177  -0.003657   0.000049
     6  H    0.006689  -0.003921  -0.008225  -0.003660   0.008175   0.000048
     7  H    0.544555  -0.027206  -0.030260  -0.000029  -0.000009   0.000010
     8  H   -0.027206   0.543345  -0.027210   0.000011   0.000011   0.000016
     9  H   -0.030260  -0.027210   0.544565  -0.000009  -0.000029   0.000010
    10  H   -0.000029   0.000011  -0.000009   0.579526  -0.053053  -0.025859
    11  H   -0.000009   0.000011  -0.000029  -0.053053   0.579479  -0.025861
    12  H    0.000010   0.000016   0.000010  -0.025859  -0.025861   0.539011
 Mulliken charges:
               1
     1  O   -0.166870
     2  C   -0.204797
     3  C   -0.406898
     4  C   -0.250472
     5  H    0.133478
     6  H    0.133489
     7  H    0.141355
     8  H    0.125862
     9  H    0.141362
    10  H    0.112693
    11  H    0.112725
    12  H    0.128073
 Sum of Mulliken charges =  -0.00000
 Mulliken charges with hydrogens summed into heavy atoms:
               1
     1  O   -0.166870
     2  C    0.062170
     3  C    0.001681
     4  C    0.103019
 Electronic spatial extent (au):  <R**2>=            366.6256
 Charge=             -0.0000 electrons
 Dipole moment (field-independent basis, Debye):
    X=             -0.1635    Y=              1.2402    Z=             -0.0001  Tot=              1.2510
 Quadrupole moment (field-independent basis, Debye-Ang):
   XX=            -24.0362   YY=            -27.7274   ZZ=            -26.7053
   XY=              0.0183   XZ=              0.0001   YZ=              0.0000
 Traceless Quadrupole moment (field-independent basis, Debye-Ang):
   XX=              2.1201   YY=             -1.5711   ZZ=             -0.5490
   XY=              0.0183   XZ=              0.0001   YZ=              0.0000
 Octapole moment (field-independent basis, Debye-Ang**2):
  XXX=             -6.9236  YYY=             -1.7310  ZZZ=             -0.0005  XYY=             -0.4558
  XXY=             -1.6185  XXZ=              0.0004  XZZ=             -0.5603  YZZ=             -0.1345
  YYZ=              0.0005  XYZ=             -0.0001
 Hexadecapole moment (field-independent basis, Debye-Ang**3):
 XXXX=           -375.7931 YYYY=            -74.2801 ZZZZ=            -48.7813 XXXY=              8.7734
 XXXZ=              0.0002 YYYX=              2.9665 YYYZ=              0.0004 ZZZX=              0.0011
 ZZZY=             -0.0002 XXYY=            -72.6692 XXZZ=            -72.4134 YYZZ=            -19.1304
 XXYZ=             -0.0021 YYXZ=             -0.0007 ZZXY=             -2.0367
 N-N= 1.341592863587D+02 E-N=-7.216207771696D+02  KE= 1.935635366003D+02
 No NMR shielding tensors so no spin-rotation constants.
 Leave Link  601 at Tue Mar 12 01:09:56 2019, MaxMem=   671088640 cpu:               4.0 elap:               0.3
 (Enter /shared/centos7/gaussian/g16/l9999.exe)
 1\1\GINC-C0298\Scan\RM062X\6-311+G(2df,2p)\C3H8O1\UNDERKOFFLER.C\12-Ma
 r-2019\0\\#p m062x/6-311+g(2df,2p) Opt=(CalcFC,ModRedun)\\Gaussian Inp
 ut Prepared from Scan Object\\0,1\O,0.6403289368,0.1090985263,-0.47614
 65088\C,-0.5610203965,0.1769480247,0.2536932882\C,-1.6552341055,0.6749
 048406,-0.6626290705\C,1.715162077,-0.346121758,0.3006949879\H,-0.4355
 732639,0.8506540115,1.1114929309\H,-0.8090092437,-0.8158230838,0.65157
 10687\H,-1.4043502751,1.6621167285,-1.0473415555\H,-2.6015101598,0.739
 0285704,-0.126954511\H,-1.7770589544,-0.0023203215,-1.506456155\H,1.90
 1963463,0.3212345775,1.1496029788\H,1.5267671319,-1.3541224035,0.68703
 72418\H,2.5972268066,-0.3682447298,-0.3345643427\\Version=EM64L-G16Rev
 A.03\State=1-A\HF=-194.3155623,-194.3152972,-194.3145586,-194.3135271,
 -194.3124664,-194.3116696,-194.3113783,-194.3116517,-194.31231,-194.31
 30134,-194.3134757,-194.3136726,-194.3135058,-194.3127535,-194.3114145
 ,-194.3097106,-194.3080026,-194.306703,-194.306285,-194.307008,-194.30
 84488,-194.3101617,-194.3117707,-194.3129674,-194.3135808,-194.3136569
 ,-194.3134194,-194.3129262,-194.3122294,-194.3116123,-194.3113792,-194
 .3116807,-194.3124651,-194.3135173,-194.3145526,-194.3152965,-194.3155
 64\RMSD=8.595e-09,2.164e-09,1.806e-09,2.152e-09,1.756e-09,3.995e-09,2.
 703e-09,1.838e-09,2.168e-09,6.257e-09,6.197e-09,3.278e-09,7.048e-09,5.
 092e-09,5.850e-09,6.058e-09,6.798e-09,5.736e-09,5.478e-09,3.678e-09,9.
 161e-09,4.100e-09,4.613e-09,4.005e-09,5.524e-09,4.511e-09,3.790e-09,4.
 026e-09,5.586e-09,2.416e-09,3.178e-09,1.974e-09,8.497e-09,6.480e-09,6.
 616e-09,7.985e-09,6.755e-09\PG=C01 [X(C3H8O1)]\\@


 RESEARCH IS WHAT I AM DOING WHEN I DON'T KNOW WHAT I AM DOING.
     -- WERNER VON BRAUN
 Job cpu time:       0 days  9 hours 37 minutes 41.2 seconds.
 Elapsed time:       0 days  0 hours 36 minutes 12.2 seconds.
 File lengths (MBytes):  RWF=    272 Int=      0 D2E=      0 Chk=     32 Scr=     32
 Normal termination of Gaussian 16 at Tue Mar 12 01:09:56 2019.
