 Entering Gaussian System, Link 0=g16
 Input=XOBKSJJDNFUZPF-UHFFFAOYSA-N_36by10.0_tor12_a1_F.com
 Output=XOBKSJJDNFUZPF-UHFFFAOYSA-N_36by10.0_tor12_a1_F.log
 Initial command:
 /shared/centos7/gaussian/g16/l1.exe "/scratch/underkoffler.c/gaussian_scratch/Gau-23976.inp" -scrdir="/scratch/underkoffler.c/gaussian_scratch/"
 Entering Link 1 = /shared/centos7/gaussian/g16/l1.exe PID=     23977.
  
 Copyright (c) 1988,1990,1992,1993,1995,1998,2003,2009,2016,
            Gaussian, Inc.  All Rights Reserved.
  
 This is part of the Gaussian(R) 16 program.  It is based on
 the Gaussian(R) 09 system (copyright 2009, Gaussian, Inc.),
 the Gaussian(R) 03 system (copyright 2003, Gaussian, Inc.),
 the Gaussian(R) 98 system (copyright 1998, Gaussian, Inc.),
 the Gaussian(R) 94 system (copyright 1995, Gaussian, Inc.),
 the Gaussian 92(TM) system (copyright 1992, Gaussian, Inc.),
 the Gaussian 90(TM) system (copyright 1990, Gaussian, Inc.),
 the Gaussian 88(TM) system (copyright 1988, Gaussian, Inc.),
 the Gaussian 86(TM) system (copyright 1986, Carnegie Mellon
 University), and the Gaussian 82(TM) system (copyright 1983,
 Carnegie Mellon University). Gaussian is a federally registered
 trademark of Gaussian, Inc.
  
 This software contains proprietary and confidential information,
 including trade secrets, belonging to Gaussian, Inc.
  
 This software is provided under written license and may be
 used, copied, transmitted, or stored only in accord with that
 written license.
  
 The following legend is applicable only to US Government
 contracts under FAR:
  
                    RESTRICTED RIGHTS LEGEND
  
 Use, reproduction and disclosure by the US Government is
 subject to restrictions as set forth in subparagraphs (a)
 and (c) of the Commercial Computer Software - Restricted
 Rights clause in FAR 52.227-19.
  
 Gaussian, Inc.
 340 Quinnipiac St., Bldg. 40, Wallingford CT 06492
  
  
 ---------------------------------------------------------------
 Warning -- This program may not be used in any manner that
 competes with the business of Gaussian, Inc. or will provide
 assistance to any competitor of Gaussian, Inc.  The licensee
 of this program is prohibited from giving any competitor of
 Gaussian, Inc. access to this program.  By using this program,
 the user acknowledges that Gaussian, Inc. is engaged in the
 business of creating and licensing software in the field of
 computational chemistry and represents and warrants to the
 licensee that it is not a competitor of Gaussian, Inc. and that
 it will not use this program in any manner prohibited above.
 ---------------------------------------------------------------
  

 Cite this work as:
 Gaussian 16, Revision A.03,
 M. J. Frisch, G. W. Trucks, H. B. Schlegel, G. E. Scuseria, 
 M. A. Robb, J. R. Cheeseman, G. Scalmani, V. Barone, 
 G. A. Petersson, H. Nakatsuji, X. Li, M. Caricato, A. V. Marenich, 
 J. Bloino, B. G. Janesko, R. Gomperts, B. Mennucci, H. P. Hratchian, 
 J. V. Ortiz, A. F. Izmaylov, J. L. Sonnenberg, D. Williams-Young, 
 F. Ding, F. Lipparini, F. Egidi, J. Goings, B. Peng, A. Petrone, 
 T. Henderson, D. Ranasinghe, V. G. Zakrzewski, J. Gao, N. Rega, 
 G. Zheng, W. Liang, M. Hada, M. Ehara, K. Toyota, R. Fukuda, 
 J. Hasegawa, M. Ishida, T. Nakajima, Y. Honda, O. Kitao, H. Nakai, 
 T. Vreven, K. Throssell, J. A. Montgomery, Jr., J. E. Peralta, 
 F. Ogliaro, M. J. Bearpark, J. J. Heyd, E. N. Brothers, K. N. Kudin, 
 V. N. Staroverov, T. A. Keith, R. Kobayashi, J. Normand, 
 K. Raghavachari, A. P. Rendell, J. C. Burant, S. S. Iyengar, 
 J. Tomasi, M. Cossi, J. M. Millam, M. Klene, C. Adamo, R. Cammi, 
 J. W. Ochterski, R. L. Martin, K. Morokuma, O. Farkas, 
 J. B. Foresman, and D. J. Fox, Gaussian, Inc., Wallingford CT, 2016.
 
 ******************************************
 Gaussian 16:  EM64L-G16RevA.03 25-Dec-2016
                23-Apr-2019 
 ******************************************
 %nprocshared=20
 Will use up to   20 processors via shared memory.
 %mem=5GB
 ----------------------------------------------
 #p m062x/6-311+g(2df,2p) Opt=(CalcFC,ModRedun)
 ----------------------------------------------
 1/10=4,18=120,19=15,26=3,38=1/1,3;
 2/9=110,12=2,17=6,18=5,40=1/2;
 3/5=4,6=6,7=214,11=2,25=1,30=1,71=2,74=-55,140=1/1,2,3;
 4//1;
 5/5=2,38=5/2;
 8/6=4,10=90,11=11/1;
 11/6=1,8=1,9=11,15=111,16=1/1,2,10;
 10/6=1,13=1/2;
 6/7=2,8=2,9=2,10=2,28=1/1;
 7/10=1,18=20,25=1/1,2,3,16;
 1/10=4,18=20,19=15,26=3/3(2);
 2/9=110/2;
 99//99;
 2/9=110/2;
 3/5=4,6=6,7=214,11=2,25=1,30=1,71=1,74=-55/1,2,3;
 4/5=5,16=3,69=1/1;
 5/5=2,38=5/2;
 7//1,2,3,16;
 1/18=20,19=15,26=3/3(-5);
 2/9=110/2;
 6/7=2,8=2,9=2,10=2,19=2,28=1/1;
 99/9=1/99;
 Leave Link    1 at Tue Apr 23 21:46:48 2019, MaxMem=   671088640 cpu:              45.3 elap:               2.4
 (Enter /shared/centos7/gaussian/g16/l101.exe)
 ----------------------------------------
 Gaussian Input Prepared from Scan Object
 ----------------------------------------
 Symbolic Z-matrix:
 Charge =  0 Multiplicity = 1
 O                     0.50321  -0.4985    0. 
 C                    -0.48782   0.50067   0. 
 C                    -1.84491  -0.16517   0. 
 C                     1.80074   0.03294   0. 
 H                    -0.36872   1.14036  -0.88432 
 H                    -0.36872   1.14036   0.88432 
 H                    -1.95706  -0.79204  -0.88316 
 H                    -2.6366    0.58298   0. 
 H                    -1.95706  -0.79204   0.88316 
 H                     1.97736   0.64872  -0.88908 
 H                     1.97736   0.64872   0.88908 
 H                     2.49991  -0.79966   0. 
 
 The following ModRedundant input section has been read:
 B       2       6 B                                                           
 B       3       9 B                                                           
 B       1       4 B                                                           
 B       3       7 B                                                           
 B       2       5 B                                                           
 B       4      11 B                                                           
 B       2       3 B                                                           
 B       4      12 B                                                           
 B       4      10 B                                                           
 B       1       2 B                                                           
 B       3       8 B                                                           
 D       6       2       3       8 S  36 10.000                                
 D       2       1       4      12 F                                           
 D       4       1       2       3 F                                           
 
 ITRead=  0  0  0  0  0  0  0  0  0  0  0  0
 MicOpt= -1 -1 -1 -1 -1 -1 -1 -1 -1 -1 -1 -1
 NAtoms=     12 NQM=       12 NQMF=       0 NMMI=      0 NMMIF=      0
                NMic=       0 NMicF=      0.
                    Isotopes and Nuclear Properties:
 (Nuclear quadrupole moments (NQMom) in fm**2, nuclear magnetic moments (NMagM)
  in nuclear magnetons)

  Atom         1           2           3           4           5           6           7           8           9          10
 IAtWgt=          16          12          12          12           1           1           1           1           1           1
 AtmWgt=  15.9949146  12.0000000  12.0000000  12.0000000   1.0078250   1.0078250   1.0078250   1.0078250   1.0078250   1.0078250
 NucSpn=           0           0           0           0           1           1           1           1           1           1
 AtZEff=  -0.0000000  -0.0000000  -0.0000000  -0.0000000  -0.0000000  -0.0000000  -0.0000000  -0.0000000  -0.0000000  -0.0000000
 NQMom=    0.0000000   0.0000000   0.0000000   0.0000000   0.0000000   0.0000000   0.0000000   0.0000000   0.0000000   0.0000000
 NMagM=    0.0000000   0.0000000   0.0000000   0.0000000   2.7928460   2.7928460   2.7928460   2.7928460   2.7928460   2.7928460
 AtZNuc=   8.0000000   6.0000000   6.0000000   6.0000000   1.0000000   1.0000000   1.0000000   1.0000000   1.0000000   1.0000000

  Atom        11          12
 IAtWgt=           1           1
 AtmWgt=   1.0078250   1.0078250
 NucSpn=           1           1
 AtZEff=  -0.0000000  -0.0000000
 NQMom=    0.0000000   0.0000000
 NMagM=    2.7928460   2.7928460
 AtZNuc=   1.0000000   1.0000000
 Leave Link  101 at Tue Apr 23 21:46:49 2019, MaxMem=   671088640 cpu:               4.2 elap:               0.2
 (Enter /shared/centos7/gaussian/g16/l103.exe)

 GradGradGradGradGradGradGradGradGradGradGradGradGradGradGradGradGradGrad
 Berny optimization.
 Initialization pass.
                           ----------------------------
                           !    Initial Parameters    !
                           ! (Angstroms and Degrees)  !
 --------------------------                            --------------------------
 ! Name  Definition              Value          Derivative Info.                !
 --------------------------------------------------------------------------------
 ! R1    R(1,2)                  1.4073         calculate D2E/DX2 analytically  !
 ! R2    R(1,4)                  1.4021         calculate D2E/DX2 analytically  !
 ! R3    R(2,3)                  1.5116         calculate D2E/DX2 analytically  !
 ! R4    R(2,5)                  1.0979         calculate D2E/DX2 analytically  !
 ! R5    R(2,6)                  1.0979         calculate D2E/DX2 analytically  !
 ! R6    R(3,7)                  1.0888         calculate D2E/DX2 analytically  !
 ! R7    R(3,8)                  1.0893         calculate D2E/DX2 analytically  !
 ! R8    R(3,9)                  1.0888         calculate D2E/DX2 analytically  !
 ! R9    R(4,10)                 1.0958         calculate D2E/DX2 analytically  !
 ! R10   R(4,11)                 1.0958         calculate D2E/DX2 analytically  !
 ! R11   R(4,12)                 1.0872         calculate D2E/DX2 analytically  !
 ! A1    A(2,1,4)              112.4926         calculate D2E/DX2 analytically  !
 ! A2    A(1,2,3)              108.6312         calculate D2E/DX2 analytically  !
 ! A3    A(1,2,5)              109.7115         calculate D2E/DX2 analytically  !
 ! A4    A(1,2,6)              109.7115         calculate D2E/DX2 analytically  !
 ! A5    A(3,2,5)              110.734          calculate D2E/DX2 analytically  !
 ! A6    A(3,2,6)              110.734          calculate D2E/DX2 analytically  !
 ! A7    A(5,2,6)              107.3082         calculate D2E/DX2 analytically  !
 ! A8    A(2,3,7)              110.2472         calculate D2E/DX2 analytically  !
 ! A9    A(2,3,8)              110.4851         calculate D2E/DX2 analytically  !
 ! A10   A(2,3,9)              110.2472         calculate D2E/DX2 analytically  !
 ! A11   A(7,3,8)              108.6975         calculate D2E/DX2 analytically  !
 ! A12   A(7,3,9)              108.4116         calculate D2E/DX2 analytically  !
 ! A13   A(8,3,9)              108.6975         calculate D2E/DX2 analytically  !
 ! A14   A(1,4,10)             111.2311         calculate D2E/DX2 analytically  !
 ! A15   A(1,4,11)             111.2311         calculate D2E/DX2 analytically  !
 ! A16   A(1,4,12)             107.7487         calculate D2E/DX2 analytically  !
 ! A17   A(10,4,11)            108.4525         calculate D2E/DX2 analytically  !
 ! A18   A(10,4,12)            109.0673         calculate D2E/DX2 analytically  !
 ! A19   A(11,4,12)            109.0673         calculate D2E/DX2 analytically  !
 ! D1    D(4,1,2,3)            180.0            frozen, calculate D2E/DX2 analyt!
 ! D2    D(4,1,2,5)             58.8248         calculate D2E/DX2 analytically  !
 ! D3    D(4,1,2,6)            -58.8248         calculate D2E/DX2 analytically  !
 ! D4    D(2,1,4,10)           -60.5062         calculate D2E/DX2 analytically  !
 ! D5    D(2,1,4,11)            60.5062         calculate D2E/DX2 analytically  !
 ! D6    D(2,1,4,12)           180.0            frozen, calculate D2E/DX2 analyt!
 ! D7    D(1,2,3,7)            -59.8308         calculate D2E/DX2 analytically  !
 ! D8    D(1,2,3,8)            180.0            calculate D2E/DX2 analytically  !
 ! D9    D(1,2,3,9)             59.8308         calculate D2E/DX2 analytically  !
 ! D10   D(5,2,3,7)             60.714          calculate D2E/DX2 analytically  !
 ! D11   D(5,2,3,8)            -59.4552         calculate D2E/DX2 analytically  !
 ! D12   D(5,2,3,9)           -179.6244         calculate D2E/DX2 analytically  !
 ! D13   D(6,2,3,7)            179.6244         calculate D2E/DX2 analytically  !
 ! D14   D(6,2,3,8)             59.4552         Scan                            !
 ! D15   D(6,2,3,9)            -60.714          calculate D2E/DX2 analytically  !
 --------------------------------------------------------------------------------
 Trust Radius=3.00D-01 FncErr=1.00D-07 GrdErr=1.00D-06 EigMax=2.50D+02 EigMin=1.00D-04
 Number of optimizations in scan=  37
 Number of steps in this run=     55 maximum allowed number of steps=    100.
 GradGradGradGradGradGradGradGradGradGradGradGradGradGradGradGradGradGrad

 Leave Link  103 at Tue Apr 23 21:46:49 2019, MaxMem=   671088640 cpu:               0.2 elap:               0.0
 (Enter /shared/centos7/gaussian/g16/l202.exe)
                          Input orientation:                          
 ---------------------------------------------------------------------
 Center     Atomic      Atomic             Coordinates (Angstroms)
 Number     Number       Type             X           Y           Z
 ---------------------------------------------------------------------
      1          8           0        0.503207   -0.498499    0.000000
      2          6           0       -0.487818    0.500666    0.000000
      3          6           0       -1.844906   -0.165175    0.000000
      4          6           0        1.800739    0.032944    0.000000
      5          1           0       -0.368719    1.140363   -0.884320
      6          1           0       -0.368719    1.140363    0.884320
      7          1           0       -1.957059   -0.792041   -0.883161
      8          1           0       -2.636602    0.582984    0.000000
      9          1           0       -1.957059   -0.792041    0.883161
     10          1           0        1.977358    0.648723   -0.889084
     11          1           0        1.977358    0.648723    0.889084
     12          1           0        2.499913   -0.799658    0.000000
 ---------------------------------------------------------------------
                    Distance matrix (angstroms):
                    1          2          3          4          5
     1  O    0.000000
     2  C    1.407289   0.000000
     3  C    2.371654   1.511633   0.000000
     4  C    1.402148   2.335863   3.651024   0.000000
     5  H    2.056246   1.097915   2.159995   2.591321   0.000000
     6  H    2.056246   1.097915   2.159995   2.591321   1.768639
     7  H    2.630409   2.147029   1.088812   3.947356   2.501402
     8  H    3.320844   2.150360   1.089276   4.471302   2.497196
     9  H    2.630409   2.147029   1.088812   3.947356   3.062841
    10  H    2.068746   2.624782   4.007818   1.095832   2.397042
    11  H    2.068746   2.624782   4.007818   1.095832   2.981735
    12  H    2.019289   3.258432   4.390902   1.087230   3.574178
                    6          7          8          9         10
     6  H    0.000000
     7  H    3.062841   0.000000
     8  H    2.497196   1.769871   0.000000
     9  H    2.501402   1.766322   1.769871   0.000000
    10  H    2.981735   4.189925   4.699300   4.549317   0.000000
    11  H    2.397042   4.549317   4.699300   4.189925   1.778167
    12  H    3.574178   4.543636   5.319350   4.543636   1.778016
                   11         12
    11  H    0.000000
    12  H    1.778016   0.000000
 Stoichiometry    C3H8O
 Framework group  CS[SG(C3H2O),X(H6)]
 Deg. of freedom    18
 Full point group                 CS      NOp   2
 Largest Abelian subgroup         CS      NOp   2
 Largest concise Abelian subgroup CS      NOp   2
                         Standard orientation:                         
 ---------------------------------------------------------------------
 Center     Atomic      Atomic             Coordinates (Angstroms)
 Number     Number       Type             X           Y           Z
 ---------------------------------------------------------------------
      1          8           0       -0.012524   -0.708207    0.000000
      2          6           0        0.000000    0.699027    0.000000
      3          6           0        1.436656    1.169190    0.000000
      4          6           0       -1.312732   -1.233068    0.000000
      5          1           0       -0.531722    1.074083    0.884320
      6          1           0       -0.531722    1.074083   -0.884320
      7          1           0        1.954449    0.798476    0.883161
      8          1           0        1.481583    2.257540    0.000000
      9          1           0        1.954449    0.798476   -0.883161
     10          1           0       -1.868962   -0.915283    0.889084
     11          1           0       -1.868962   -0.915283   -0.889084
     12          1           0       -1.232462   -2.317331    0.000000
 ---------------------------------------------------------------------
 Rotational constants (GHZ):          28.5218634           4.1909818           3.9230564
 Leave Link  202 at Tue Apr 23 21:46:49 2019, MaxMem=   671088640 cpu:               0.2 elap:               0.0
 (Enter /shared/centos7/gaussian/g16/l301.exe)
 Standard basis: 6-311+G(2df,2p) (5D, 7F)
 Ernie: Thresh=  0.10000D-02 Tol=  0.10000D-05 Strict=F.
 There are   149 symmetry adapted cartesian basis functions of A'  symmetry.
 There are    79 symmetry adapted cartesian basis functions of A"  symmetry.
 There are   133 symmetry adapted basis functions of A'  symmetry.
 There are    75 symmetry adapted basis functions of A"  symmetry.
   208 basis functions,   296 primitive gaussians,   228 cartesian basis functions
    17 alpha electrons       17 beta electrons
       nuclear repulsion energy       134.1591950911 Hartrees.
 IExCor= 4336 DFT=T Ex+Corr=M062X ExCW=0 ScaHFX=  0.540000
 ScaDFX=  1.000000  1.000000  1.000000  1.000000 ScalE2=  1.000000  1.000000
 IRadAn=      5 IRanWt=     -1 IRanGd=            0 ICorTp=0 IEmpDi=  4
 NAtoms=   12 NActive=   12 NUniq=    9 SFac= 1.78D+00 NAtFMM=   60 NAOKFM=F Big=F
 Integral buffers will be    131072 words long.
 Raffenetti 2 integral format.
 Two-electron integral symmetry is turned on.
 Leave Link  301 at Tue Apr 23 21:46:49 2019, MaxMem=   671088640 cpu:               1.3 elap:               0.1
 (Enter /shared/centos7/gaussian/g16/l302.exe)
 NPDir=0 NMtPBC=     1 NCelOv=     1 NCel=       1 NClECP=     1 NCelD=      1
         NCelK=      1 NCelE2=     1 NClLst=     1 CellRange=     0.0.
 One-electron integrals computed using PRISM.
 One-electron integral symmetry used in STVInt
 NBasis=   208 RedAO= T EigKep=  7.85D-05  NBF=   133    75
 NBsUse=   208 1.00D-06 EigRej= -1.00D+00 NBFU=   133    75
 Precomputing XC quadrature grid using
 IXCGrd= 4 IRadAn=           5 IRanWt=          -1 IRanGd=           0 AccXCQ= 0.00D+00.
 Generated NRdTot=       0 NPtTot=           0 NUsed=           0 NTot=          32
 NSgBfM=   228   228   228   228   228 MxSgAt=    12 MxSgA2=    12.
 Leave Link  302 at Tue Apr 23 21:46:49 2019, MaxMem=   671088640 cpu:               5.3 elap:               0.3
 (Enter /shared/centos7/gaussian/g16/l303.exe)
 DipDrv:  MaxL=1.
 Leave Link  303 at Tue Apr 23 21:46:49 2019, MaxMem=   671088640 cpu:               0.6 elap:               0.1
 (Enter /shared/centos7/gaussian/g16/l401.exe)
 ExpMin= 4.38D-02 ExpMax= 8.59D+03 ExpMxC= 1.30D+03 IAcc=3 IRadAn=         5 AccDes= 0.00D+00
 Harris functional with IExCor= 1009 and IRadAn=       5 diagonalized for initial guess.
 HarFok:  IExCor= 1009 AccDes= 0.00D+00 IRadAn=         5 IDoV= 1 UseB2=F ITyADJ=14
 ICtDFT=  3500011 ScaDFX=  1.000000  1.000000  1.000000  1.000000
 FoFCou: FMM=F IPFlag=           0 FMFlag=      100000 FMFlg1=           0
         NFxFlg=           0 DoJE=T BraDBF=F KetDBF=T FulRan=T
         wScrn=  0.000000 ICntrl=       500 IOpCl=  0 I1Cent=   200000004 NGrid=           0
         NMat0=    1 NMatS0=      1 NMatT0=    0 NMatD0=    1 NMtDS0=    0 NMtDT0=    0
 Petite list used in FoFCou.
 Harris En= -194.272795308625    
 JPrj=0 DoOrth=F DoCkMO=F.
 Initial guess orbital symmetries:
       Occupied  (A') (A') (A') (A') (A') (A') (A') (A') (A') (A")
                 (A') (A") (A') (A') (A") (A') (A")
       Virtual   (A') (A') (A') (A") (A') (A') (A') (A") (A') (A')
                 (A") (A") (A') (A") (A') (A') (A") (A') (A') (A')
                 (A') (A') (A') (A") (A') (A') (A') (A") (A') (A")
                 (A') (A') (A") (A') (A") (A') (A") (A') (A") (A')
                 (A') (A") (A') (A') (A') (A') (A") (A') (A") (A')
                 (A') (A") (A') (A") (A') (A') (A") (A") (A') (A")
                 (A') (A") (A') (A") (A') (A") (A') (A') (A') (A")
                 (A') (A') (A") (A') (A') (A") (A') (A") (A') (A")
                 (A") (A') (A') (A') (A') (A') (A") (A') (A') (A')
                 (A") (A') (A") (A') (A') (A") (A") (A') (A') (A")
                 (A') (A') (A') (A') (A") (A') (A") (A") (A") (A')
                 (A') (A') (A") (A') (A") (A') (A") (A') (A") (A")
                 (A') (A') (A') (A") (A") (A') (A") (A') (A') (A")
                 (A') (A') (A") (A') (A') (A") (A') (A") (A') (A')
                 (A') (A") (A') (A') (A") (A') (A') (A") (A") (A')
                 (A") (A') (A') (A') (A') (A") (A") (A') (A") (A")
                 (A') (A') (A") (A') (A') (A") (A') (A") (A') (A')
                 (A') (A') (A") (A') (A") (A') (A") (A") (A") (A')
                 (A') (A') (A") (A') (A") (A') (A') (A') (A') (A')
                 (A')
 The electronic state of the initial guess is 1-A'.
 Leave Link  401 at Tue Apr 23 21:46:50 2019, MaxMem=   671088640 cpu:              13.5 elap:               0.7
 (Enter /shared/centos7/gaussian/g16/l502.exe)
 Keep R1 ints in memory in symmetry-blocked form, NReq=355207208.
 FoFCou: FMM=F IPFlag=           0 FMFlag=           0 FMFlg1=           0
         NFxFlg=           0 DoJE=F BraDBF=F KetDBF=F FulRan=T
         wScrn=  0.000000 ICntrl=       600 IOpCl=  0 I1Cent=           0 NGrid=           0
         NMat0=    1 NMatS0=  21736 NMatT0=    0 NMatD0=    1 NMtDS0=    0 NMtDT0=    0
 Petite list used in FoFCou.
 Closed shell SCF:
 Using DIIS extrapolation, IDIIS=  1040.
 NGot=   671088640 LenX=   552009815 LenY=   551957390
 Requested convergence on RMS density matrix=1.00D-08 within 128 cycles.
 Requested convergence on MAX density matrix=1.00D-06.
 Requested convergence on             energy=1.00D-06.
 No special actions if energy rises.

 Cycle   1  Pass 1  IDiag  1:
 E= -194.165625638713    
 DIIS: error= 2.96D-02 at cycle   1 NSaved=   1.
 NSaved= 1 IEnMin= 1 EnMin= -194.165625638713     IErMin= 1 ErrMin= 2.96D-02
 ErrMax= 2.96D-02  0.00D+00 EMaxC= 1.00D-01 BMatC= 1.79D-01 BMatP= 1.79D-01
 IDIUse=3 WtCom= 7.04D-01 WtEn= 2.96D-01
 Coeff-Com:  0.100D+01
 Coeff-En:   0.100D+01
 Coeff:      0.100D+01
 Gap=     0.323 Goal=   None    Shift=    0.000
 GapD=    0.323 DampG=1.000 DampE=0.500 DampFc=0.5000 IDamp=-1.
 Damping current iteration by 5.00D-01
 RMSDP=2.33D-03 MaxDP=1.12D-01              OVMax= 1.50D-01

 Cycle   2  Pass 1  IDiag  1:
 E= -194.243422571750     Delta-E=       -0.077796933037 Rises=F Damp=T
 DIIS: error= 5.81D-03 at cycle   2 NSaved=   2.
 NSaved= 2 IEnMin= 2 EnMin= -194.243422571750     IErMin= 2 ErrMin= 5.81D-03
 ErrMax= 5.81D-03  0.00D+00 EMaxC= 1.00D-01 BMatC= 1.20D-02 BMatP= 1.79D-01
 IDIUse=3 WtCom= 9.42D-01 WtEn= 5.81D-02
 Coeff-Com: -0.133D+00 0.113D+01
 Coeff-En:   0.000D+00 0.100D+01
 Coeff:     -0.126D+00 0.113D+01
 Gap=     0.368 Goal=   None    Shift=    0.000
 RMSDP=6.03D-04 MaxDP=1.14D-02 DE=-7.78D-02 OVMax= 7.44D-02

 Cycle   3  Pass 1  IDiag  1:
 E= -194.313668929043     Delta-E=       -0.070246357293 Rises=F Damp=F
 DIIS: error= 3.41D-03 at cycle   3 NSaved=   3.
 NSaved= 3 IEnMin= 3 EnMin= -194.313668929043     IErMin= 3 ErrMin= 3.41D-03
 ErrMax= 3.41D-03  0.00D+00 EMaxC= 1.00D-01 BMatC= 2.57D-03 BMatP= 1.20D-02
 IDIUse=3 WtCom= 9.66D-01 WtEn= 3.41D-02
 Coeff-Com: -0.847D-01 0.340D+00 0.745D+00
 Coeff-En:   0.000D+00 0.000D+00 0.100D+01
 Coeff:     -0.818D-01 0.328D+00 0.753D+00
 Gap=     0.345 Goal=   None    Shift=    0.000
 RMSDP=1.77D-04 MaxDP=9.93D-03 DE=-7.02D-02 OVMax= 1.46D-02

 Cycle   4  Pass 1  IDiag  1:
 E= -194.315003639612     Delta-E=       -0.001334710569 Rises=F Damp=F
 DIIS: error= 1.69D-03 at cycle   4 NSaved=   4.
 NSaved= 4 IEnMin= 4 EnMin= -194.315003639612     IErMin= 4 ErrMin= 1.69D-03
 ErrMax= 1.69D-03  0.00D+00 EMaxC= 1.00D-01 BMatC= 8.11D-04 BMatP= 2.57D-03
 IDIUse=3 WtCom= 9.83D-01 WtEn= 1.69D-02
 Coeff-Com: -0.302D-01 0.802D-01 0.393D+00 0.557D+00
 Coeff-En:   0.000D+00 0.000D+00 0.196D+00 0.804D+00
 Coeff:     -0.297D-01 0.789D-01 0.390D+00 0.561D+00
 Gap=     0.350 Goal=   None    Shift=    0.000
 RMSDP=6.89D-05 MaxDP=4.18D-03 DE=-1.33D-03 OVMax= 4.96D-03

 Cycle   5  Pass 1  IDiag  1:
 E= -194.315555514081     Delta-E=       -0.000551874469 Rises=F Damp=F
 DIIS: error= 2.38D-04 at cycle   5 NSaved=   5.
 NSaved= 5 IEnMin= 5 EnMin= -194.315555514081     IErMin= 5 ErrMin= 2.38D-04
 ErrMax= 2.38D-04  0.00D+00 EMaxC= 1.00D-01 BMatC= 8.89D-06 BMatP= 8.11D-04
 IDIUse=3 WtCom= 9.98D-01 WtEn= 2.38D-03
 Coeff-Com: -0.301D-02 0.467D-02 0.688D-01 0.153D+00 0.776D+00
 Coeff-En:   0.000D+00 0.000D+00 0.000D+00 0.000D+00 0.100D+01
 Coeff:     -0.300D-02 0.466D-02 0.687D-01 0.153D+00 0.777D+00
 Gap=     0.350 Goal=   None    Shift=    0.000
 RMSDP=1.22D-05 MaxDP=3.67D-04 DE=-5.52D-04 OVMax= 6.26D-04

 Cycle   6  Pass 1  IDiag  1:
 E= -194.315561746533     Delta-E=       -0.000006232452 Rises=F Damp=F
 DIIS: error= 4.69D-05 at cycle   6 NSaved=   6.
 NSaved= 6 IEnMin= 6 EnMin= -194.315561746533     IErMin= 6 ErrMin= 4.69D-05
 ErrMax= 4.69D-05  0.00D+00 EMaxC= 1.00D-01 BMatC= 6.02D-07 BMatP= 8.89D-06
 IDIUse=1 WtCom= 1.00D+00 WtEn= 0.00D+00
 Coeff-Com:  0.351D-03-0.178D-02 0.783D-02 0.337D-01 0.268D+00 0.692D+00
 Coeff:      0.351D-03-0.178D-02 0.783D-02 0.337D-01 0.268D+00 0.692D+00
 Gap=     0.350 Goal=   None    Shift=    0.000
 RMSDP=2.89D-06 MaxDP=1.73D-04 DE=-6.23D-06 OVMax= 1.96D-04

 Cycle   7  Pass 1  IDiag  1:
 E= -194.315562270988     Delta-E=       -0.000000524455 Rises=F Damp=F
 DIIS: error= 1.90D-05 at cycle   7 NSaved=   7.
 NSaved= 7 IEnMin= 7 EnMin= -194.315562270988     IErMin= 7 ErrMin= 1.90D-05
 ErrMax= 1.90D-05  0.00D+00 EMaxC= 1.00D-01 BMatC= 5.16D-08 BMatP= 6.02D-07
 IDIUse=1 WtCom= 1.00D+00 WtEn= 0.00D+00
 Coeff-Com:  0.580D-03-0.125D-02-0.791D-02-0.108D-01-0.327D-01 0.198D+00
 Coeff-Com:  0.854D+00
 Coeff:      0.580D-03-0.125D-02-0.791D-02-0.108D-01-0.327D-01 0.198D+00
 Coeff:      0.854D+00
 Gap=     0.350 Goal=   None    Shift=    0.000
 RMSDP=1.38D-06 MaxDP=4.75D-05 DE=-5.24D-07 OVMax= 6.62D-05

 Cycle   8  Pass 1  IDiag  1:
 E= -194.315562321894     Delta-E=       -0.000000050906 Rises=F Damp=F
 DIIS: error= 1.99D-06 at cycle   8 NSaved=   8.
 NSaved= 8 IEnMin= 8 EnMin= -194.315562321894     IErMin= 8 ErrMin= 1.99D-06
 ErrMax= 1.99D-06  0.00D+00 EMaxC= 1.00D-01 BMatC= 4.42D-10 BMatP= 5.16D-08
 IDIUse=1 WtCom= 1.00D+00 WtEn= 0.00D+00
 Coeff-Com:  0.360D-04-0.738D-04-0.976D-03-0.176D-02-0.838D-02 0.285D-02
 Coeff-Com:  0.753D-01 0.933D+00
 Coeff:      0.360D-04-0.738D-04-0.976D-03-0.176D-02-0.838D-02 0.285D-02
 Coeff:      0.753D-01 0.933D+00
 Gap=     0.350 Goal=   None    Shift=    0.000
 RMSDP=2.01D-07 MaxDP=6.25D-06 DE=-5.09D-08 OVMax= 1.06D-05

 Cycle   9  Pass 1  IDiag  1:
 E= -194.315562322491     Delta-E=       -0.000000000597 Rises=F Damp=F
 DIIS: error= 3.27D-07 at cycle   9 NSaved=   9.
 NSaved= 9 IEnMin= 9 EnMin= -194.315562322491     IErMin= 9 ErrMin= 3.27D-07
 ErrMax= 3.27D-07  0.00D+00 EMaxC= 1.00D-01 BMatC= 2.99D-11 BMatP= 4.42D-10
 IDIUse=1 WtCom= 1.00D+00 WtEn= 0.00D+00
 Coeff-Com: -0.223D-04 0.477D-04 0.209D-03 0.251D-03 0.685D-03-0.808D-02
 Coeff-Com: -0.312D-01 0.138D+00 0.900D+00
 Coeff:     -0.223D-04 0.477D-04 0.209D-03 0.251D-03 0.685D-03-0.808D-02
 Coeff:     -0.312D-01 0.138D+00 0.900D+00
 Gap=     0.350 Goal=   None    Shift=    0.000
 RMSDP=5.04D-08 MaxDP=1.28D-06 DE=-5.97D-10 OVMax= 2.53D-06

 Cycle  10  Pass 1  IDiag  1:
 E= -194.315562322529     Delta-E=       -0.000000000039 Rises=F Damp=F
 DIIS: error= 8.16D-08 at cycle  10 NSaved=  10.
 NSaved=10 IEnMin=10 EnMin= -194.315562322529     IErMin=10 ErrMin= 8.16D-08
 ErrMax= 8.16D-08  0.00D+00 EMaxC= 1.00D-01 BMatC= 1.82D-12 BMatP= 2.99D-11
 IDIUse=1 WtCom= 1.00D+00 WtEn= 0.00D+00
 Coeff-Com: -0.390D-05 0.897D-05 0.570D-04 0.856D-04 0.370D-03-0.147D-02
 Coeff-Com: -0.800D-02-0.223D-02 0.180D+00 0.831D+00
 Coeff:     -0.390D-05 0.897D-05 0.570D-04 0.856D-04 0.370D-03-0.147D-02
 Coeff:     -0.800D-02-0.223D-02 0.180D+00 0.831D+00
 Gap=     0.350 Goal=   None    Shift=    0.000
 RMSDP=8.60D-09 MaxDP=3.53D-07 DE=-3.87D-11 OVMax= 6.06D-07

 SCF Done:  E(RM062X) =  -194.315562323     A.U. after   10 cycles
            NFock= 10  Conv=0.86D-08     -V/T= 2.0039
 KE= 1.935635002583D+02 PE=-7.216205224356D+02 EE= 1.995822647637D+02
 Leave Link  502 at Tue Apr 23 21:47:03 2019, MaxMem=   671088640 cpu:             226.1 elap:              12.6
 (Enter /shared/centos7/gaussian/g16/l801.exe)
 DoSCS=F DFT=T ScalE2(SS,OS)=  1.000000  1.000000
 Range of M.O.s used for correlation:     1   208
 NBasis=   208 NAE=    17 NBE=    17 NFC=     0 NFV=     0
 NROrb=    208 NOA=    17 NOB=    17 NVA=   191 NVB=   191

 **** Warning!!: The largest alpha MO coefficient is  0.38070813D+02

 Leave Link  801 at Tue Apr 23 21:47:03 2019, MaxMem=   671088640 cpu:               0.6 elap:               0.1
 (Enter /shared/centos7/gaussian/g16/l1101.exe)
 Using compressed storage, NAtomX=    12.
 Will process     13 centers per pass.
 Leave Link 1101 at Tue Apr 23 21:47:03 2019, MaxMem=   671088640 cpu:               7.8 elap:               0.4
 (Enter /shared/centos7/gaussian/g16/l1102.exe)
 Symmetrizing basis deriv contribution to polar:
 IMax=3 JMax=2 DiffMx= 0.00D+00
 Leave Link 1102 at Tue Apr 23 21:47:03 2019, MaxMem=   671088640 cpu:               0.7 elap:               0.1
 (Enter /shared/centos7/gaussian/g16/l1110.exe)
 Forming Gx(P) for the SCF density, NAtomX=    12.
 Integral derivatives from FoFJK, PRISM(SPDF).
 Do as many integral derivatives as possible in FoFJK.
 G2DrvN: MDV=     671087640.
 G2DrvN: will do    13 centers at a time, making    1 passes.
 Calling FoFCou, ICntrl=  3107 FMM=F I1Cent=   0 AccDes= 0.00D+00.
 FoFJK:  IHMeth= 1 ICntrl=    3107 DoSepK=F KAlg= 0 I1Cent=           0 FoldK=F
 IRaf=         0 NMat=       1 IRICut=       1 DoRegI=T DoRafI=F ISym2E= 1 IDoP0=0 IntGTp=1.
 FoFCou: FMM=F IPFlag=           0 FMFlag=      100000 FMFlg1=           0
         NFxFlg=           0 DoJE=F BraDBF=F KetDBF=F FulRan=T
         wScrn=  0.000000 ICntrl=      3107 IOpCl=  0 I1Cent=           0 NGrid=           0
         NMat0=    1 NMatS0=      1 NMatT0=    0 NMatD0=    1 NMtDS0=    0 NMtDT0=    0
 Petite list used in FoFCou.
 End of G2Drv F.D. properties file   721 does not exist.
 End of G2Drv F.D. properties file   722 does not exist.
 End of G2Drv F.D. properties file   788 does not exist.
 Leave Link 1110 at Tue Apr 23 21:47:30 2019, MaxMem=   671088640 cpu:             527.8 elap:              26.4
 (Enter /shared/centos7/gaussian/g16/l1002.exe)
 Minotr:  Closed shell wavefunction.
          IDoAtm=111111111111
          Direct CPHF calculation.
          Differentiating once with respect to nuclear coordinates.
          Using symmetry in CPHF.
          Requested convergence is 1.0D-08 RMS, and 1.0D-07 maximum.
          Secondary convergence is 1.0D-12 RMS, and 1.0D-12 maximum.
          NewPWx=T KeepS1=F KeepF1=F KeepIn=T MapXYZ=F SortEE=F KeepMc=T.
         3654 words used for storage of precomputed grid.
 Keep R1 ints in memory in symmetry-blocked form, NReq=355212614.
 FoFCou: FMM=F IPFlag=           0 FMFlag=           0 FMFlg1=           0
         NFxFlg=           0 DoJE=F BraDBF=F KetDBF=F FulRan=T
         wScrn=  0.000000 ICntrl=       600 IOpCl=  0 I1Cent=           0 NGrid=           0
         NMat0=    1 NMatS0=  21736 NMatT0=    0 NMatD0=    1 NMtDS0=    0 NMtDT0=    0
 Petite list used in FoFCou.
          MDV=     671088640 using IRadAn=       1.
          Solving linear equations simultaneously, MaxMat=       0.
          There are    30 degrees of freedom in the 1st order CPHF.  IDoFFX=4 NUNeed=    30.
     27 vectors produced by pass  0 Test12= 1.08D-14 3.33D-09 XBig12= 5.83D-02 6.03D-02.
 AX will form    27 AO Fock derivatives at one time.
     27 vectors produced by pass  1 Test12= 1.08D-14 3.33D-09 XBig12= 2.36D-03 1.27D-02.
     27 vectors produced by pass  2 Test12= 1.08D-14 3.33D-09 XBig12= 1.17D-04 2.03D-03.
     27 vectors produced by pass  3 Test12= 1.08D-14 3.33D-09 XBig12= 1.03D-06 2.10D-04.
     27 vectors produced by pass  4 Test12= 1.08D-14 3.33D-09 XBig12= 7.45D-09 1.62D-05.
     27 vectors produced by pass  5 Test12= 1.08D-14 3.33D-09 XBig12= 4.62D-11 1.28D-06.
     15 vectors produced by pass  6 Test12= 1.08D-14 3.33D-09 XBig12= 2.00D-13 6.24D-08.
      1 vectors produced by pass  7 Test12= 1.08D-14 3.33D-09 XBig12= 8.13D-16 4.05D-09.
 InvSVY:  IOpt=1 It=  1 EMax= 1.94D-16
 Solved reduced A of dimension   178 with    30 vectors.
 FullF1:  Do perturbations      4 to      30.
 End of Minotr F.D. properties file   721 does not exist.
 End of Minotr F.D. properties file   722 does not exist.
 End of Minotr F.D. properties file   788 does not exist.
 Leave Link 1002 at Tue Apr 23 21:48:30 2019, MaxMem=   671088640 cpu:            1192.2 elap:              59.9
 (Enter /shared/centos7/gaussian/g16/l601.exe)
 Copying SCF densities to generalized density rwf, IOpCl= 0 IROHF=0.

 **********************************************************************

            Population analysis using the SCF density.

 **********************************************************************

 Orbital symmetries:
       Occupied  (A') (A') (A') (A') (A') (A') (A') (A') (A") (A')
                 (A') (A") (A') (A') (A") (A') (A")
       Virtual   (A') (A') (A') (A") (A') (A') (A") (A') (A') (A")
                 (A') (A') (A") (A') (A") (A') (A') (A") (A') (A')
                 (A') (A") (A') (A') (A') (A') (A') (A") (A") (A')
                 (A') (A") (A') (A') (A") (A") (A') (A") (A') (A')
                 (A") (A') (A') (A') (A') (A') (A") (A') (A") (A')
                 (A') (A') (A") (A") (A') (A') (A") (A") (A') (A")
                 (A') (A') (A") (A") (A') (A') (A") (A') (A") (A')
                 (A') (A') (A") (A') (A') (A") (A') (A') (A") (A")
                 (A") (A') (A') (A') (A') (A') (A") (A') (A') (A')
                 (A") (A') (A") (A') (A') (A") (A") (A') (A') (A")
                 (A') (A') (A') (A') (A") (A') (A") (A") (A") (A')
                 (A') (A') (A") (A') (A") (A') (A") (A') (A") (A")
                 (A') (A') (A') (A") (A") (A') (A') (A") (A') (A")
                 (A') (A') (A") (A') (A') (A") (A') (A") (A') (A')
                 (A') (A") (A') (A') (A") (A') (A') (A") (A") (A')
                 (A") (A') (A') (A') (A') (A") (A") (A') (A") (A")
                 (A') (A') (A") (A') (A') (A') (A") (A") (A') (A')
                 (A') (A") (A') (A") (A') (A") (A') (A") (A") (A')
                 (A') (A') (A") (A') (A") (A') (A') (A') (A') (A')
                 (A')
 The electronic state is 1-A'.
 Alpha  occ. eigenvalues --  -19.62202 -10.57944 -10.57356 -10.52191  -1.16025
 Alpha  occ. eigenvalues --   -0.86131  -0.76609  -0.69404  -0.56380  -0.56068
 Alpha  occ. eigenvalues --   -0.52856  -0.48994  -0.44916  -0.42470  -0.41738
 Alpha  occ. eigenvalues --   -0.38932  -0.33087
 Alpha virt. eigenvalues --    0.01886   0.03050   0.04216   0.04357   0.05576
 Alpha virt. eigenvalues --    0.07100   0.07353   0.08626   0.09775   0.09970
 Alpha virt. eigenvalues --    0.13210   0.14348   0.18373   0.19233   0.19538
 Alpha virt. eigenvalues --    0.21274   0.22105   0.22553   0.24400   0.25307
 Alpha virt. eigenvalues --    0.26563   0.28552   0.28809   0.29443   0.30438
 Alpha virt. eigenvalues --    0.35366   0.37701   0.41805   0.44313   0.44501
 Alpha virt. eigenvalues --    0.47880   0.51038   0.51275   0.51582   0.54663
 Alpha virt. eigenvalues --    0.55917   0.56301   0.56816   0.57798   0.59170
 Alpha virt. eigenvalues --    0.60943   0.62572   0.64637   0.67266   0.68512
 Alpha virt. eigenvalues --    0.70120   0.74959   0.78102   0.81542   0.86493
 Alpha virt. eigenvalues --    0.87444   0.90188   0.90706   0.91950   0.97229
 Alpha virt. eigenvalues --    0.99977   1.05277   1.06086   1.07759   1.08789
 Alpha virt. eigenvalues --    1.11127   1.13968   1.14195   1.16602   1.17759
 Alpha virt. eigenvalues --    1.20277   1.21546   1.22557   1.25563   1.26281
 Alpha virt. eigenvalues --    1.28306   1.32262   1.33012   1.36629   1.39762
 Alpha virt. eigenvalues --    1.41109   1.41630   1.43374   1.44256   1.44824
 Alpha virt. eigenvalues --    1.48183   1.49007   1.51182   1.52096   1.57302
 Alpha virt. eigenvalues --    1.59602   1.60369   1.61703   1.74765   1.81312
 Alpha virt. eigenvalues --    2.03063   2.05789   2.10892   2.22058   2.37213
 Alpha virt. eigenvalues --    2.37603   2.46523   2.47063   2.48709   2.58338
 Alpha virt. eigenvalues --    2.61070   2.64431   2.70002   2.80312   2.85479
 Alpha virt. eigenvalues --    2.87947   2.96688   2.97731   3.03004   3.06524
 Alpha virt. eigenvalues --    3.08457   3.09230   3.10576   3.13850   3.14325
 Alpha virt. eigenvalues --    3.17146   3.17185   3.20627   3.26911   3.32810
 Alpha virt. eigenvalues --    3.35381   3.36009   3.37967   3.39260   3.41924
 Alpha virt. eigenvalues --    3.43901   3.50810   3.51689   3.55508   3.57366
 Alpha virt. eigenvalues --    3.60733   3.65963   3.66111   3.70853   3.76356
 Alpha virt. eigenvalues --    3.81109   3.82270   3.87010   3.88467   3.91980
 Alpha virt. eigenvalues --    3.95009   3.98816   4.02756   4.05839   4.08064
 Alpha virt. eigenvalues --    4.10503   4.14305   4.17678   4.20598   4.22164
 Alpha virt. eigenvalues --    4.22429   4.23958   4.25679   4.29093   4.31392
 Alpha virt. eigenvalues --    4.34286   4.40411   4.43182   4.48010   4.50096
 Alpha virt. eigenvalues --    4.51961   4.55863   4.57172   4.64920   4.91627
 Alpha virt. eigenvalues --    5.13088   5.21131   5.24770   5.31374   5.41949
 Alpha virt. eigenvalues --    5.50021   5.51824   5.56586   5.58947   5.59341
 Alpha virt. eigenvalues --    5.65830   5.66807   5.84010   5.87957   6.24397
 Alpha virt. eigenvalues --    6.47908   6.72468   7.19389   7.20272   7.32246
 Alpha virt. eigenvalues --    7.68704   7.76603  24.36534  24.43886  24.49310
 Alpha virt. eigenvalues --   50.17625
          Condensed to atoms (all electrons):
               1          2          3          4          5          6
     1  O    8.296472   0.094323  -0.094855   0.123210  -0.052685  -0.052685
     2  C    0.094323   5.080775   0.318969  -0.088757   0.445036   0.445036
     3  C   -0.094855   0.318969   5.082153  -0.030488  -0.046101  -0.046101
     4  C    0.123210  -0.088757  -0.030488   4.940076   0.002049   0.002049
     5  H   -0.052685   0.445036  -0.046101   0.002049   0.574496  -0.055389
     6  H   -0.052685   0.445036  -0.046101   0.002049  -0.055389   0.574496
     7  H   -0.002762  -0.029690   0.405502   0.000067  -0.008222   0.006689
     8  H    0.011818  -0.036073   0.416242   0.001015  -0.003922  -0.003922
     9  H   -0.002762  -0.029690   0.405502   0.000067   0.006689  -0.008222
    10  H   -0.048706  -0.003700  -0.003033   0.437650   0.008174  -0.003658
    11  H   -0.048706  -0.003700  -0.003033   0.437650  -0.003658   0.008174
    12  H   -0.055767   0.012261   0.002139   0.425877   0.000049   0.000049
               7          8          9         10         11         12
     1  O   -0.002762   0.011818  -0.002762  -0.048706  -0.048706  -0.055767
     2  C   -0.029690  -0.036073  -0.029690  -0.003700  -0.003700   0.012261
     3  C    0.405502   0.416242   0.405502  -0.003033  -0.003033   0.002139
     4  C    0.000067   0.001015   0.000067   0.437650   0.437650   0.425877
     5  H   -0.008222  -0.003922   0.006689   0.008174  -0.003658   0.000049
     6  H    0.006689  -0.003922  -0.008222  -0.003658   0.008174   0.000049
     7  H    0.544553  -0.027207  -0.030263  -0.000029  -0.000009   0.000010
     8  H   -0.027207   0.543365  -0.027207   0.000011   0.000011   0.000016
     9  H   -0.030263  -0.027207   0.544553  -0.000009  -0.000029   0.000010
    10  H   -0.000029   0.000011  -0.000009   0.579485  -0.053033  -0.025866
    11  H   -0.000009   0.000011  -0.000029  -0.053033   0.579485  -0.025866
    12  H    0.000010   0.000016   0.000010  -0.025866  -0.025866   0.539010
 Mulliken charges:
               1
     1  O   -0.166897
     2  C   -0.204790
     3  C   -0.406897
     4  C   -0.250464
     5  H    0.133484
     6  H    0.133484
     7  H    0.141361
     8  H    0.125852
     9  H    0.141361
    10  H    0.112714
    11  H    0.112714
    12  H    0.128078
 Sum of Mulliken charges =  -0.00000
 Mulliken charges with hydrogens summed into heavy atoms:
               1
     1  O   -0.166897
     2  C    0.062177
     3  C    0.001677
     4  C    0.103042
 APT charges:
               1
     1  O   -0.070423
     2  C   -0.574984
     3  C   -1.139702
     4  C   -1.172930
     5  H    0.333340
     6  H    0.333340
     7  H    0.331797
     8  H    0.471261
     9  H    0.331797
    10  H    0.336849
    11  H    0.336849
    12  H    0.482807
 Sum of APT charges =  -0.00000
 APT charges with hydrogens summed into heavy atoms:
               1
     1  O   -0.070423
     2  C    0.091697
     3  C   -0.004848
     4  C   -0.016426
 Electronic spatial extent (au):  <R**2>=            366.6244
 Charge=              0.0000 electrons
 Dipole moment (field-independent basis, Debye):
    X=             -0.9829    Y=              0.7742    Z=              0.0000  Tot=              1.2511
 Quadrupole moment (field-independent basis, Debye-Ang):
   XX=            -25.8521   YY=            -25.9120   ZZ=            -26.7051
   XY=              1.8454   XZ=             -0.0000   YZ=             -0.0000
 Traceless Quadrupole moment (field-independent basis, Debye-Ang):
   XX=              0.3043   YY=              0.2444   ZZ=             -0.5487
   XY=              1.8454   XZ=             -0.0000   YZ=             -0.0000
 Octapole moment (field-independent basis, Debye-Ang**2):
  XXX=             -0.6935  YYY=             -5.1724  ZZZ=              0.0000  XYY=             -2.2556
  XXY=             -2.3782  XXZ=             -0.0000  XZZ=             -0.3080  YZZ=             -0.4878
  YYZ=              0.0000  XYZ=              0.0000
 Hexadecapole moment (field-independent basis, Debye-Ang**3):
 XXXX=           -237.3278 YYYY=           -206.0214 ZZZZ=            -48.7809 XXXY=            -78.1911
 XXXZ=             -0.0000 YYYX=            -72.2114 YYYZ=             -0.0000 ZZZX=              0.0000
 ZZZY=             -0.0000 XXYY=            -76.0319 XXZZ=            -44.4274 YYZZ=            -47.1145
 XXYZ=             -0.0000 YYXZ=             -0.0000 ZZXY=            -26.6845
 N-N= 1.341591950911D+02 E-N=-7.216205159288D+02  KE= 1.935635002583D+02
 Symmetry A'   KE= 1.829075064487D+02
 Symmetry A"   KE= 1.065599380953D+01
  Exact polarizability:   0.000   0.000   0.000   0.000   0.000   0.000
 Approx polarizability:  48.439   0.777  48.929  -0.000   0.000  46.114
 No NMR shielding tensors so no spin-rotation constants.
 Leave Link  601 at Tue Apr 23 21:48:30 2019, MaxMem=   671088640 cpu:               6.3 elap:               0.4
 (Enter /shared/centos7/gaussian/g16/l701.exe)
 ... and contract with generalized density number  0.
 Compute integral second derivatives.
 Leave Link  701 at Tue Apr 23 21:48:31 2019, MaxMem=   671088640 cpu:               7.5 elap:               0.4
 (Enter /shared/centos7/gaussian/g16/l702.exe)
 L702 exits ... SP integral derivatives will be done elsewhere.
 Leave Link  702 at Tue Apr 23 21:48:31 2019, MaxMem=   671088640 cpu:               0.6 elap:               0.1
 (Enter /shared/centos7/gaussian/g16/l703.exe)
 Integral derivatives from FoFJK, PRISM(SPDF).
 Compute integral second derivatives, UseDBF=F ICtDFT=           0.
 Calling FoFJK, ICntrl=    100147 FMM=F ISym2X=1 I1Cent= 0 IOpClX= 0 NMat=1 NMatS=1 NMatT=0.
 FoFJK:  IHMeth= 1 ICntrl=  100147 DoSepK=F KAlg= 0 I1Cent=           0 FoldK=F
 IRaf=         0 NMat=       1 IRICut=       1 DoRegI=T DoRafI=F ISym2E= 1 IDoP0=0 IntGTp=1.
 FoFCou: FMM=F IPFlag=           0 FMFlag=      100000 FMFlg1=         800
         NFxFlg=           0 DoJE=F BraDBF=F KetDBF=F FulRan=T
         wScrn=  0.000000 ICntrl=    100147 IOpCl=  0 I1Cent=           0 NGrid=           0
         NMat0=    1 NMatS0=      1 NMatT0=    0 NMatD0=    1 NMtDS0=    0 NMtDT0=    0
 Petite list used in FoFCou.
 Leave Link  703 at Tue Apr 23 21:49:05 2019, MaxMem=   671088640 cpu:             680.6 elap:              34.1
 (Enter /shared/centos7/gaussian/g16/l716.exe)
 Dipole        =-3.86685639D-01 3.04585327D-01 8.23451393D-17
 Polarizability= 0.00000000D+00 0.00000000D+00 0.00000000D+00
                 0.00000000D+00 0.00000000D+00 0.00000000D+00
 ***** Axes restored to original set *****
 -------------------------------------------------------------------
 Center     Atomic                   Forces (Hartrees/Bohr)
 Number     Number              X              Y              Z
 -------------------------------------------------------------------
      1        8          -0.000000059   -0.000000047    0.000000000
      2        6           0.000000030    0.000000046   -0.000000000
      3        6          -0.000000024    0.000000140    0.000000000
      4        6           0.000000005   -0.000000181    0.000000000
      5        1           0.000000094    0.000000023    0.000000004
      6        1           0.000000094    0.000000023   -0.000000004
      7        1          -0.000000093    0.000000174   -0.000000001
      8        1           0.000000050    0.000000249    0.000000000
      9        1          -0.000000093    0.000000174    0.000000001
     10        1           0.000000041   -0.000000181   -0.000000006
     11        1           0.000000041   -0.000000181    0.000000006
     12        1          -0.000000086   -0.000000238    0.000000000
 -------------------------------------------------------------------
 Cartesian Forces:  Max     0.000000249 RMS     0.000000099
 Force constants in Cartesian coordinates: 
                1             2             3             4             5 
      1  0.528583D+00
      2 -0.274564D-01  0.355407D+00
      3  0.000000D+00  0.000000D+00  0.100312D+00
      4 -0.155023D+00  0.568410D-01  0.000000D+00  0.511539D+00
      5  0.995282D-01 -0.187224D+00  0.000000D+00  0.354629D-01  0.547241D+00
      6  0.000000D+00  0.000000D+00 -0.663429D-01  0.000000D+00  0.000000D+00
      7 -0.403868D-01 -0.673522D-02  0.000000D+00 -0.177773D+00 -0.558313D-01
      8  0.342488D-01  0.122851D-01  0.000000D+00 -0.716920D-01 -0.116092D+00
      9  0.000000D+00  0.000000D+00  0.201251D-02  0.000000D+00  0.000000D+00
     10 -0.234121D+00 -0.438101D-01  0.000000D+00 -0.505645D-01 -0.493300D-02
     11 -0.884720D-01 -0.122223D+00  0.000000D+00  0.284836D-01  0.905435D-02
     12  0.000000D+00  0.000000D+00 -0.634899D-01  0.000000D+00  0.000000D+00
     13 -0.859513D-02  0.240995D-01 -0.208044D-01 -0.543247D-01 -0.210732D-01
     14  0.128015D-01 -0.273169D-01  0.226033D-01 -0.193990D-01 -0.121224D+00
     15 -0.537184D-02  0.436425D-02  0.634089D-02  0.263530D-01  0.108112D+00
     16 -0.859513D-02  0.240995D-01  0.208044D-01 -0.543247D-01 -0.210732D-01
     17  0.128015D-01 -0.273169D-01 -0.226033D-01 -0.193990D-01 -0.121224D+00
     18  0.537184D-02 -0.436425D-02  0.634089D-02 -0.263530D-01 -0.108112D+00
     19  0.306778D-02  0.543259D-03  0.620154D-03 -0.465292D-02 -0.197060D-01
     20  0.593739D-03  0.133287D-02  0.933254D-03 -0.123385D-02 -0.111015D-01
     21 -0.492127D-03  0.553323D-03  0.917830D-04  0.111653D-03  0.526757D-03
     22 -0.757342D-02 -0.438663D-02  0.000000D+00 -0.157197D-01  0.246987D-01
     23 -0.380790D-02 -0.715989D-03  0.000000D+00 -0.100275D-01  0.116051D-01
     24  0.000000D+00  0.000000D+00  0.739247D-03  0.000000D+00  0.000000D+00
     25  0.306778D-02  0.543259D-03 -0.620154D-03 -0.465292D-02 -0.197060D-01
     26  0.593739D-03  0.133287D-02 -0.933254D-03 -0.123385D-02 -0.111015D-01
     27  0.492127D-03 -0.553323D-03  0.917828D-04 -0.111653D-03 -0.526757D-03
     28 -0.231532D-01 -0.246453D-01  0.282906D-01  0.433335D-02 -0.591193D-02
     29 -0.140411D-01 -0.101470D-01  0.114812D-01  0.218556D-02  0.757642D-04
     30  0.692422D-02  0.146834D-02  0.688216D-02 -0.141937D-02  0.752651D-04
     31 -0.231532D-01 -0.246453D-01 -0.282906D-01  0.433335D-02 -0.591193D-02
     32 -0.140411D-01 -0.101470D-01 -0.114812D-01  0.218556D-02  0.757636D-04
     33 -0.692422D-02 -0.146834D-02  0.688216D-02  0.141937D-02 -0.752655D-04
     34 -0.341174D-01  0.255525D-01  0.000000D+00 -0.317037D-02 -0.554330D-02
     35 -0.127490D-01  0.147339D-01  0.000000D+00 -0.217341D-02 -0.840598D-04
     36  0.000000D+00  0.000000D+00  0.139168D-03  0.000000D+00  0.000000D+00
                6             7             8             9            10 
      6  0.588249D+00
      7  0.000000D+00  0.516361D+00
      8  0.000000D+00 -0.390761D-01  0.570009D+00
      9 -0.830865D-01  0.000000D+00  0.000000D+00  0.583145D+00
     10  0.000000D+00 -0.197008D-02  0.264687D-02  0.000000D+00  0.532690D+00
     11  0.000000D+00  0.353258D-02 -0.417859D-02  0.000000D+00 -0.574319D-01
     12 -0.399219D-02  0.000000D+00  0.000000D+00 -0.504290D-03  0.000000D+00
     13  0.274761D-01 -0.385903D-02 -0.176198D-01  0.260922D-01  0.479088D-02
     14  0.104566D+00 -0.339110D-02 -0.711168D-02  0.118234D-01 -0.405345D-02
     15 -0.218120D+00 -0.804385D-04 -0.157582D-02  0.152204D-02  0.122622D-02
     16 -0.274761D-01 -0.385903D-02 -0.176198D-01 -0.260922D-01  0.479088D-02
     17 -0.104566D+00 -0.339110D-02 -0.711168D-02 -0.118234D-01 -0.405345D-02
     18 -0.218120D+00  0.804389D-04  0.157582D-02  0.152204D-02 -0.122622D-02
     19 -0.276158D-01 -0.486672D-01 -0.133495D-01 -0.195176D-01 -0.325307D-03
     20 -0.137557D-01 -0.152701D-01 -0.135911D+00 -0.125674D+00  0.226706D-03
     21  0.783095D-03 -0.210838D-01 -0.126474D+00 -0.229734D+00  0.000000D+00
     22  0.000000D+00 -0.189602D+00  0.133517D+00  0.000000D+00 -0.264099D-05
     23  0.000000D+00  0.136116D+00 -0.177252D+00  0.000000D+00 -0.865947D-03
     24 -0.248607D-02  0.000000D+00  0.000000D+00 -0.465438D-01  0.000000D+00
     25  0.276158D-01 -0.486672D-01 -0.133495D-01  0.195176D-01 -0.325308D-03
     26  0.137557D-01 -0.152701D-01 -0.135911D+00  0.125674D+00  0.226706D-03
     27  0.783095D-03  0.210838D-01  0.126474D+00 -0.229734D+00  0.000000D+00
     28  0.319830D-02 -0.307595D-03  0.265335D-03 -0.228010D-03 -0.531547D-01
     29 -0.168057D-02 -0.408637D-05  0.323597D-03 -0.250084D-03 -0.136461D-01
     30  0.116571D-02  0.102766D-03 -0.466886D-03  0.391258D-03  0.234353D-01
     31 -0.319830D-02 -0.307595D-03  0.265335D-03  0.228010D-03 -0.531547D-01
     32  0.168057D-02 -0.408668D-05  0.323597D-03  0.250084D-03 -0.136461D-01
     33  0.116571D-02 -0.102766D-03  0.466886D-03  0.391258D-03 -0.234353D-01
     34  0.000000D+00 -0.961963D-03  0.176334D-02  0.000000D+00 -0.148654D+00
     35  0.000000D+00 -0.675730D-03  0.626129D-03  0.000000D+00  0.139340D+00
     36  0.000000D+00  0.000000D+00  0.000000D+00  0.619232D-03  0.000000D+00
               11            12            13            14            15 
     11  0.591022D+00
     12  0.000000D+00  0.560043D+00
     13  0.376645D-02 -0.314407D-02  0.627999D-01
     14 -0.568490D-03 -0.295780D-03  0.126882D-01  0.143711D+00
     15 -0.480661D-03  0.117742D-02 -0.256007D-01 -0.123825D+00  0.230324D+00
     16  0.376645D-02  0.314407D-02  0.227683D-02  0.131265D-02  0.426814D-02
     17 -0.568491D-03  0.295780D-03  0.131265D-02  0.111694D-01  0.139637D-01
     18  0.480661D-03  0.117742D-02 -0.426814D-02 -0.139637D-01 -0.230160D-01
     19 -0.156405D-03 -0.660879D-04  0.143246D-02  0.827466D-03  0.359420D-03
     20  0.191072D-03  0.119534D-03  0.580174D-03  0.257616D-04  0.144070D-03
     21  0.253180D-03  0.182980D-03 -0.656669D-03  0.140534D-03  0.866867D-03
     22  0.166184D-02  0.000000D+00  0.786645D-03 -0.225969D-03  0.770809D-03
     23  0.815810D-03  0.000000D+00  0.869504D-03  0.409980D-03  0.258880D-03
     24  0.000000D+00  0.719653D-03 -0.111259D-03 -0.811221D-04 -0.803281D-04
     25 -0.156406D-03  0.660879D-04 -0.548774D-02 -0.238591D-02 -0.408885D-03
     26  0.191072D-03 -0.119535D-03 -0.305723D-02 -0.301027D-03 -0.658150D-03
     27 -0.253180D-03  0.182981D-03 -0.599731D-03 -0.325797D-04  0.155190D-02
     28 -0.107067D-01  0.203379D-01  0.588525D-03  0.106032D-02 -0.137116D-02
     29 -0.125772D+00  0.110787D+00 -0.101981D-02  0.878197D-03  0.327198D-04
     30  0.112316D+00 -0.222200D+00  0.129443D-02 -0.520584D-03 -0.256198D-03
     31 -0.107067D-01 -0.203379D-01 -0.439775D-03  0.609323D-03  0.151182D-03
     32 -0.125772D+00 -0.110787D+00 -0.347747D-03  0.148081D-03 -0.385981D-04
     33 -0.112316D+00 -0.222200D+00  0.108673D-03 -0.264675D-04 -0.641188D-03
     34  0.126419D+00  0.000000D+00  0.311229D-04  0.155954D-03 -0.295776D-03
     35 -0.222191D+00  0.000000D+00 -0.198682D-03  0.180384D-03 -0.297922D-03
     36  0.000000D+00 -0.510982D-01  0.213597D-03 -0.388085D-03  0.330346D-03
               16            17            18            19            20 
     16  0.627999D-01
     17  0.126882D-01  0.143711D+00
     18  0.256007D-01  0.123825D+00  0.230324D+00
     19 -0.548774D-02 -0.238591D-02  0.408885D-03  0.522194D-01
     20 -0.305723D-02 -0.301027D-03  0.658150D-03  0.192922D-01  0.145835D+00
     21  0.599731D-03  0.325797D-04  0.155190D-02  0.227892D-01  0.139045D+00
     22  0.786645D-03 -0.225969D-03 -0.770809D-03  0.298118D-02 -0.331969D-02
     23  0.869504D-03  0.409981D-03 -0.258880D-03  0.125396D-01 -0.122000D-01
     24  0.111259D-03  0.811223D-04 -0.803280D-04  0.205089D-01 -0.172678D-01
     25  0.143246D-02  0.827466D-03 -0.359420D-03 -0.819197D-03  0.207289D-02
     26  0.580174D-03  0.257616D-04 -0.144070D-03  0.207289D-02  0.121856D-01
     27  0.656669D-03 -0.140534D-03  0.866867D-03  0.220424D-02  0.157058D-01
     28 -0.439775D-03  0.609323D-03 -0.151182D-03  0.539925D-04 -0.400045D-04
     29 -0.347747D-03  0.148081D-03  0.385981D-04  0.265114D-05 -0.629137D-04
     30 -0.108673D-03  0.264675D-04 -0.641188D-03 -0.419446D-04  0.916996D-05
     31  0.588525D-03  0.106032D-02  0.137116D-02  0.160312D-03  0.183315D-03
     32 -0.101981D-02  0.878197D-03 -0.327198D-04  0.218157D-03 -0.318595D-04
     33 -0.129443D-02  0.520584D-03 -0.256198D-03  0.248711D-03  0.447363D-04
     34  0.311226D-04  0.155955D-03  0.295776D-03  0.373295D-04 -0.280991D-04
     35 -0.198682D-03  0.180384D-03  0.297922D-03  0.101557D-03  0.376528D-04
     36 -0.213597D-03  0.388085D-03  0.330346D-03  0.101867D-03  0.381448D-04
               21            22            23            24            25 
     21  0.245489D+00
     22  0.836660D-03  0.206216D+00
     23  0.161959D-02 -0.147989D+00  0.189242D+00
     24  0.107337D-02  0.000000D+00  0.000000D+00  0.456555D-01
     25 -0.220424D-02  0.298118D-02  0.125396D-01 -0.205089D-01  0.522194D-01
     26 -0.157058D-01 -0.331969D-02 -0.122000D-01  0.172678D-01  0.192922D-01
     27 -0.202506D-01 -0.836659D-03 -0.161959D-02  0.107337D-02 -0.227892D-01
     28  0.306206D-04 -0.130999D-03  0.432330D-04 -0.126156D-03  0.160312D-03
     29  0.928436D-05 -0.108855D-03  0.153459D-04 -0.285638D-04  0.218157D-03
     30 -0.102948D-04  0.128504D-03  0.322936D-04 -0.389426D-04 -0.248711D-03
     31  0.150976D-03 -0.130999D-03  0.432330D-04  0.126155D-03  0.539925D-04
     32  0.149556D-04 -0.108856D-03  0.153460D-04  0.285638D-04  0.265114D-05
     33 -0.224694D-04 -0.128505D-03 -0.322930D-04 -0.389426D-04  0.419446D-04
     34 -0.817335D-04 -0.592223D-03 -0.330664D-03  0.000000D+00  0.373300D-04
     35 -0.151493D-04 -0.192781D-03 -0.145308D-03  0.000000D+00  0.101556D-03
     36 -0.209415D-04  0.000000D+00  0.000000D+00  0.727653D-05 -0.101867D-03
               26            27            28            29            30 
     26  0.145835D+00
     27 -0.139045D+00  0.245489D+00
     28  0.183315D-03 -0.150976D-03  0.652291D-01
     29 -0.318595D-04 -0.149556D-04  0.266120D-01  0.135884D+00
     30 -0.447363D-04 -0.224694D-04 -0.310043D-01 -0.126627D+00  0.235508D+00
     31 -0.400045D-04 -0.306206D-04  0.235484D-02  0.294894D-02  0.186786D-02
     32 -0.629137D-04 -0.928436D-05  0.294894D-02  0.108915D-01  0.149890D-01
     33 -0.916996D-05 -0.102948D-04 -0.186786D-02 -0.149890D-01 -0.219802D-01
     34 -0.280992D-04  0.817333D-04  0.446618D-02 -0.279964D-02 -0.930074D-03
     35  0.376519D-04  0.151494D-04  0.958150D-02 -0.122029D-01 -0.125737D-02
     36 -0.381448D-04 -0.209414D-04 -0.169578D-01  0.212416D-01  0.120185D-02
               31            32            33            34            35 
     31  0.652291D-01
     32  0.266120D-01  0.135884D+00
     33  0.310043D-01  0.126627D+00  0.235508D+00
     34  0.446618D-02 -0.279964D-02  0.930073D-03  0.178427D+00
     35  0.958150D-02 -0.122029D-01  0.125737D-02 -0.142517D+00  0.231030D+00
     36  0.169578D-01 -0.212416D-01  0.120185D-02  0.000000D+00  0.000000D+00
               36 
     36  0.473091D-01
 FormGI is forming the generalized inverse of G from B-inverse, IUseBI=4.
 Leave Link  716 at Tue Apr 23 21:49:05 2019, MaxMem=   671088640 cpu:               0.9 elap:               0.1
 (Enter /shared/centos7/gaussian/g16/l103.exe)

 GradGradGradGradGradGradGradGradGradGradGradGradGradGradGradGradGradGrad
 Berny optimization.
 Red2BG is reusing G-inverse.
 Internal  Forces:  Max     0.000000029 RMS     0.000000009
 Search for a local minimum.
 Step number   1 out of a maximum of   55 on scan point     1 out of    37
 All quantities printed in internal units (Hartrees-Bohrs-Radians)
 RMS Force = .90684D-08 SwitMx=.10000D-02 MixMth= 2
 Mixed Optimization -- En-DIIS/RFO-DIIS
 Second derivative matrix not updated -- analytic derivatives used.
 ITU=  0
     Eigenvalues ---    0.01610   0.04310   0.04375   0.04885   0.05378
     Eigenvalues ---    0.08792   0.10003   0.11442   0.12350   0.13186
     Eigenvalues ---    0.13673   0.15678   0.18098   0.18459   0.23176
     Eigenvalues ---    0.25215   0.31578   0.31676   0.32096   0.32445
     Eigenvalues ---    0.33323   0.34446   0.34573   0.34938   0.35268
     Eigenvalues ---    0.40009   0.438271000.000001000.000001000.00000
     Eigenvalues --- 1000.000001000.000001000.000001000.000001000.00000
     Eigenvalues --- 1000.000001000.000001000.000001000.000001000.00000
     Eigenvalues --- 1000.000001000.000001000.000001000.000001000.00000
 RFO step:  Lambda= 0.00000000D+00 EMin= 1.61039602D-02
 Linear search not attempted -- first point.
 Iteration  1 RMS(Cart)=  0.00000023 RMS(Int)=  0.00000000
 Iteration  1 RMS(Cart)=  0.00000000 RMS(Int)=  0.00000000
 ITry= 1 IFail=0 DXMaxC= 5.76D-07 DCOld= 1.00D+10 DXMaxT= 3.00D-01 DXLimC= 3.00D+00 Rises=F
 ClnCor:  largest displacement from symmetrization is 9.87D-08 for atom     9.
 Variable       Old X    -DE/DX   Delta X   Delta X   Delta X     New X
                                 (Linear)    (Quad)   (Total)
    R1        2.65939  -0.00000   0.00000  -0.00000  -0.00000   2.65939
    R2        2.64968   0.00000   0.00000   0.00000   0.00000   2.64968
    R3        2.85657   0.00000   0.00000   0.00000   0.00000   2.85657
    R4        2.07476  -0.00000   0.00000  -0.00000  -0.00000   2.07476
    R5        2.07476  -0.00000   0.00000  -0.00000  -0.00000   2.07476
    R6        2.05756   0.00000   0.00000  -0.00000  -0.00000   2.05756
    R7        2.05843   0.00000   0.00000   0.00000   0.00000   2.05843
    R8        2.05756   0.00000   0.00000  -0.00000  -0.00000   2.05756
    R9        2.07082   0.00000   0.00000   0.00000   0.00000   2.07082
   R10        2.07082   0.00000   0.00000   0.00000   0.00000   2.07082
   R11        2.05457   0.00000   0.00000  -0.00000  -0.00000   2.05457
    A1        1.96337  -0.00000   0.00000  -0.00000  -0.00000   1.96337
    A2        1.89597   0.00000   0.00000   0.00000   0.00000   1.89597
    A3        1.91483  -0.00000   0.00000  -0.00000  -0.00000   1.91483
    A4        1.91483  -0.00000   0.00000  -0.00000  -0.00000   1.91483
    A5        1.93267  -0.00000   0.00000  -0.00000  -0.00000   1.93267
    A6        1.93267  -0.00000   0.00000  -0.00000  -0.00000   1.93267
    A7        1.87288   0.00000   0.00000  -0.00000  -0.00000   1.87288
    A8        1.92418   0.00000   0.00000   0.00000   0.00000   1.92418
    A9        1.92833  -0.00000   0.00000  -0.00000  -0.00000   1.92833
   A10        1.92418   0.00000   0.00000   0.00000   0.00000   1.92418
   A11        1.89713   0.00000   0.00000  -0.00000   0.00000   1.89713
   A12        1.89214  -0.00000   0.00000   0.00000   0.00000   1.89214
   A13        1.89713   0.00000   0.00000  -0.00000   0.00000   1.89713
   A14        1.94135  -0.00000   0.00000  -0.00000  -0.00000   1.94135
   A15        1.94135  -0.00000   0.00000  -0.00000  -0.00000   1.94135
   A16        1.88057   0.00000   0.00000   0.00000   0.00000   1.88057
   A17        1.89285   0.00000   0.00000  -0.00000  -0.00000   1.89285
   A18        1.90358   0.00000   0.00000   0.00000   0.00000   1.90358
   A19        1.90358   0.00000   0.00000   0.00000   0.00000   1.90358
    D1        3.14159   0.00000   0.00000   0.00000   0.00000   3.14159
    D2        1.02669  -0.00000   0.00000  -0.00000  -0.00000   1.02669
    D3       -1.02669   0.00000   0.00000   0.00000   0.00000  -1.02669
    D4       -1.05603   0.00000   0.00000   0.00000   0.00000  -1.05603
    D5        1.05603  -0.00000   0.00000  -0.00000  -0.00000   1.05603
    D6        3.14159  -0.00000   0.00000   0.00000   0.00000   3.14159
    D7       -1.04424  -0.00000   0.00000  -0.00000  -0.00000  -1.04424
    D8        3.14159  -0.00000   0.00000   0.00000   0.00000   3.14159
    D9        1.04424   0.00000   0.00000   0.00000   0.00000   1.04424
   D10        1.05966  -0.00000   0.00000  -0.00000  -0.00000   1.05966
   D11       -1.03769   0.00000   0.00000   0.00000   0.00000  -1.03769
   D12       -3.13504   0.00000   0.00000   0.00000   0.00000  -3.13504
   D13        3.13504  -0.00000   0.00000  -0.00000  -0.00000   3.13504
   D14        1.03769  -0.00000   0.00000   0.00000  -0.00000   1.03769
   D15       -1.05966   0.00000   0.00000   0.00000   0.00000  -1.05966
         Item               Value     Threshold  Converged?
 Maximum Force            0.000000     0.000450     YES
 RMS     Force            0.000000     0.000300     YES
 Maximum Displacement     0.000001     0.001800     YES
 RMS     Displacement     0.000000     0.001200     YES
 Predicted change in Energy=-1.371389D-14
 Optimization completed.
    -- Stationary point found.
                           ----------------------------
                           !   Optimized Parameters   !
                           ! (Angstroms and Degrees)  !
 --------------------------                            --------------------------
 ! Name  Definition              Value          Derivative Info.                !
 --------------------------------------------------------------------------------
 ! R1    R(1,2)                  1.4073         -DE/DX =    0.0                 !
 ! R2    R(1,4)                  1.4021         -DE/DX =    0.0                 !
 ! R3    R(2,3)                  1.5116         -DE/DX =    0.0                 !
 ! R4    R(2,5)                  1.0979         -DE/DX =    0.0                 !
 ! R5    R(2,6)                  1.0979         -DE/DX =    0.0                 !
 ! R6    R(3,7)                  1.0888         -DE/DX =    0.0                 !
 ! R7    R(3,8)                  1.0893         -DE/DX =    0.0                 !
 ! R8    R(3,9)                  1.0888         -DE/DX =    0.0                 !
 ! R9    R(4,10)                 1.0958         -DE/DX =    0.0                 !
 ! R10   R(4,11)                 1.0958         -DE/DX =    0.0                 !
 ! R11   R(4,12)                 1.0872         -DE/DX =    0.0                 !
 ! A1    A(2,1,4)              112.4926         -DE/DX =    0.0                 !
 ! A2    A(1,2,3)              108.6312         -DE/DX =    0.0                 !
 ! A3    A(1,2,5)              109.7115         -DE/DX =    0.0                 !
 ! A4    A(1,2,6)              109.7115         -DE/DX =    0.0                 !
 ! A5    A(3,2,5)              110.734          -DE/DX =    0.0                 !
 ! A6    A(3,2,6)              110.734          -DE/DX =    0.0                 !
 ! A7    A(5,2,6)              107.3082         -DE/DX =    0.0                 !
 ! A8    A(2,3,7)              110.2472         -DE/DX =    0.0                 !
 ! A9    A(2,3,8)              110.4851         -DE/DX =    0.0                 !
 ! A10   A(2,3,9)              110.2472         -DE/DX =    0.0                 !
 ! A11   A(7,3,8)              108.6975         -DE/DX =    0.0                 !
 ! A12   A(7,3,9)              108.4116         -DE/DX =    0.0                 !
 ! A13   A(8,3,9)              108.6975         -DE/DX =    0.0                 !
 ! A14   A(1,4,10)             111.2311         -DE/DX =    0.0                 !
 ! A15   A(1,4,11)             111.2311         -DE/DX =    0.0                 !
 ! A16   A(1,4,12)             107.7487         -DE/DX =    0.0                 !
 ! A17   A(10,4,11)            108.4525         -DE/DX =    0.0                 !
 ! A18   A(10,4,12)            109.0673         -DE/DX =    0.0                 !
 ! A19   A(11,4,12)            109.0673         -DE/DX =    0.0                 !
 ! D1    D(4,1,2,3)            180.0            -DE/DX =    0.0                 !
 ! D2    D(4,1,2,5)             58.8248         -DE/DX =    0.0                 !
 ! D3    D(4,1,2,6)            -58.8248         -DE/DX =    0.0                 !
 ! D4    D(2,1,4,10)           -60.5062         -DE/DX =    0.0                 !
 ! D5    D(2,1,4,11)            60.5062         -DE/DX =    0.0                 !
 ! D6    D(2,1,4,12)           180.0            -DE/DX =    0.0                 !
 ! D7    D(1,2,3,7)            -59.8308         -DE/DX =    0.0                 !
 ! D8    D(1,2,3,8)            180.0            -DE/DX =    0.0                 !
 ! D9    D(1,2,3,9)             59.8308         -DE/DX =    0.0                 !
 ! D10   D(5,2,3,7)             60.714          -DE/DX =    0.0                 !
 ! D11   D(5,2,3,8)            -59.4552         -DE/DX =    0.0                 !
 ! D12   D(5,2,3,9)           -179.6244         -DE/DX =    0.0                 !
 ! D13   D(6,2,3,7)            179.6244         -DE/DX =    0.0                 !
 ! D14   D(6,2,3,8)             59.4552         -DE/DX =    0.0                 !
 ! D15   D(6,2,3,9)            -60.714          -DE/DX =    0.0                 !
 --------------------------------------------------------------------------------
 Lowest energy point so far.  Saving SCF results.
 Iteration  1 RMS(Cart)=  0.01237949 RMS(Int)=  0.02015356
 Iteration  2 RMS(Cart)=  0.00047359 RMS(Int)=  0.02015064
 Iteration  3 RMS(Cart)=  0.00001377 RMS(Int)=  0.02015064
 Iteration  4 RMS(Cart)=  0.00000032 RMS(Int)=  0.02015064
 Iteration  1 RMS(Cart)=  0.00800597 RMS(Int)=  0.01213902
 Iteration  2 RMS(Cart)=  0.00520379 RMS(Int)=  0.01350109
 Iteration  3 RMS(Cart)=  0.00334477 RMS(Int)=  0.01541028
 Iteration  4 RMS(Cart)=  0.00212426 RMS(Int)=  0.01683336
 Iteration  5 RMS(Cart)=  0.00133561 RMS(Int)=  0.01776861
 Iteration  6 RMS(Cart)=  0.00083313 RMS(Int)=  0.01835773
 Iteration  7 RMS(Cart)=  0.00051652 RMS(Int)=  0.01872215
 Iteration  8 RMS(Cart)=  0.00031873 RMS(Int)=  0.01894557
 Iteration  9 RMS(Cart)=  0.00019597 RMS(Int)=  0.01908192
 Iteration 10 RMS(Cart)=  0.00012015 RMS(Int)=  0.01916491
 Iteration 11 RMS(Cart)=  0.00007350 RMS(Int)=  0.01921536
 Iteration 12 RMS(Cart)=  0.00004489 RMS(Int)=  0.01924599
 Iteration 13 RMS(Cart)=  0.00002738 RMS(Int)=  0.01926459
 Iteration 14 RMS(Cart)=  0.00001668 RMS(Int)=  0.01927588
 Iteration 15 RMS(Cart)=  0.00001016 RMS(Int)=  0.01928273
 Iteration 16 RMS(Cart)=  0.00000618 RMS(Int)=  0.01928689
 Iteration 17 RMS(Cart)=  0.00000376 RMS(Int)=  0.01928941
 Iteration 18 RMS(Cart)=  0.00000228 RMS(Int)=  0.01929094
 Iteration 19 RMS(Cart)=  0.00000139 RMS(Int)=  0.01929187
 Iteration 20 RMS(Cart)=  0.00000084 RMS(Int)=  0.01929244
 GradGradGradGradGradGradGradGradGradGradGradGradGradGradGradGradGradGrad

 Leave Link  103 at Tue Apr 23 21:49:05 2019, MaxMem=   671088640 cpu:               1.0 elap:               0.1
 (Enter /shared/centos7/gaussian/g16/l202.exe)
                          Input orientation:                          
 ---------------------------------------------------------------------
 Center     Atomic      Atomic             Coordinates (Angstroms)
 Number     Number       Type             X           Y           Z
 ---------------------------------------------------------------------
      1          8           0        0.484500   -0.483667    0.008863
      2          6           0       -0.495521    0.526302    0.006208
      3          6           0       -1.840004   -0.164521    0.022043
      4          6           0        1.787748    0.033461   -0.005054
      5          1           0       -0.369296    1.158347   -0.882621
      6          1           0       -0.323700    1.113664    0.918052
      7          1           0       -1.918548   -0.785173   -0.869168
      8          1           0       -2.645692    0.563512   -0.068266
      9          1           0       -1.961734   -0.802306    0.896089
     10          1           0        1.964914    0.638896   -0.901118
     11          1           0        1.977265    0.655588    0.876946
     12          1           0        2.477761   -0.806750   -0.001974
 ---------------------------------------------------------------------
                    Distance matrix (angstroms):
                    1          2          3          4          5
     1  O    0.000000
     2  C    1.407297   0.000000
     3  C    2.346347   1.511662   0.000000
     4  C    1.402166   2.335880   3.633251   0.000000
     5  H    2.054244   1.097921   2.175173   2.586180   0.000000
     6  H    2.007804   1.098170   2.176182   2.545029   1.801804
     7  H    2.576137   2.123972   1.088869   3.892747   2.485484
     8  H    3.301611   2.151783   1.089643   4.465461   2.489775
     9  H    2.621595   2.169532   1.088827   3.945780   3.089309
    10  H    2.068778   2.624816   3.996888   1.095842   2.391382
    11  H    2.068772   2.624799   3.996871   1.095847   2.975767
    12  H    2.019305   3.258451   4.365333   1.087237   3.569717
                    6          7          8          9         10
     6  H    0.000000
     7  H    3.056678   0.000000
     8  H    2.582081   1.728911   0.000000
     9  H    2.520830   1.765868   1.806444   0.000000
    10  H    2.961848   4.136457   4.685832   4.552536   0.000000
    11  H    2.346479   4.505781   4.719495   4.200183   1.778185
    12  H    3.518895   4.481074   5.303941   4.529421   1.778023
                   11         12
    11  H    0.000000
    12  H    1.778041   0.000000
 Stoichiometry    C3H8O
 Framework group  C1[X(C3H8O)]
 Deg. of freedom    30
 Full point group                 C1      NOp   1
 Omega: Change in point group or standard orientation.

 Old FWG=CS   [SG(C3H2O1),X(H6)]
 New FWG=C01  [X(C3H8O1)]
 RotChk:  IX=2 Diff= 1.06D+00
 Largest Abelian subgroup         C1      NOp   1
 Largest concise Abelian subgroup C1      NOp   1
                         Standard orientation:                         
 ---------------------------------------------------------------------
 Center     Atomic      Atomic             Coordinates (Angstroms)
 Number     Number       Type             X           Y           Z
 ---------------------------------------------------------------------
      1          8           0       -0.489932   -0.491363    0.006946
      2          6           0        0.488590    0.519881   -0.012251
      3          6           0        1.834130   -0.169045   -0.007074
      4          6           0       -1.793975    0.023936    0.004241
      5          1           0        0.358729    1.173359    0.860407
      6          1           0        0.318682    1.084414   -0.938755
      7          1           0        1.910872   -0.767509    0.899340
      8          1           0        2.638467    0.562231    0.067755
      9          1           0        1.959459   -0.827906   -0.864827
     10          1           0       -1.974760    0.650912    0.884632
     11          1           0       -1.981721    0.623929   -0.893334
     12          1           0       -2.482739   -0.817163    0.019717
 ---------------------------------------------------------------------
 Rotational constants (GHZ):          28.2899333           4.2325793           3.9588292
 Leave Link  202 at Tue Apr 23 21:49:05 2019, MaxMem=   671088640 cpu:               0.2 elap:               0.0
 (Enter /shared/centos7/gaussian/g16/l301.exe)
 Standard basis: 6-311+G(2df,2p) (5D, 7F)
 Ernie: Thresh=  0.10000D-02 Tol=  0.10000D-05 Strict=F.
 There are   228 symmetry adapted cartesian basis functions of A   symmetry.
 There are   208 symmetry adapted basis functions of A   symmetry.
   208 basis functions,   296 primitive gaussians,   228 cartesian basis functions
    17 alpha electrons       17 beta electrons
       nuclear repulsion energy       134.4220290952 Hartrees.
 IExCor= 4336 DFT=T Ex+Corr=M062X ExCW=0 ScaHFX=  0.540000
 ScaDFX=  1.000000  1.000000  1.000000  1.000000 ScalE2=  1.000000  1.000000
 IRadAn=      5 IRanWt=     -1 IRanGd=            0 ICorTp=0 IEmpDi=  4
 NAtoms=   12 NActive=   12 NUniq=   12 SFac= 1.00D+00 NAtFMM=   60 NAOKFM=F Big=F
 Integral buffers will be    131072 words long.
 Raffenetti 2 integral format.
 Two-electron integral symmetry is turned on.
 Leave Link  301 at Tue Apr 23 21:49:05 2019, MaxMem=   671088640 cpu:               1.3 elap:               0.1
 (Enter /shared/centos7/gaussian/g16/l302.exe)
 NPDir=0 NMtPBC=     1 NCelOv=     1 NCel=       1 NClECP=     1 NCelD=      1
         NCelK=      1 NCelE2=     1 NClLst=     1 CellRange=     0.0.
 One-electron integrals computed using PRISM.
 One-electron integral symmetry used in STVInt
 NBasis=   208 RedAO= T EigKep=  8.03D-05  NBF=   208
 NBsUse=   208 1.00D-06 EigRej= -1.00D+00 NBFU=   208
 Precomputing XC quadrature grid using
 IXCGrd= 4 IRadAn=           5 IRanWt=          -1 IRanGd=           0 AccXCQ= 0.00D+00.
 Generated NRdTot=       0 NPtTot=           0 NUsed=           0 NTot=          32
 NSgBfM=   228   228   228   228   228 MxSgAt=    12 MxSgA2=    12.
 Leave Link  302 at Tue Apr 23 21:49:06 2019, MaxMem=   671088640 cpu:               5.3 elap:               0.3
 (Enter /shared/centos7/gaussian/g16/l303.exe)
 DipDrv:  MaxL=1.
 Leave Link  303 at Tue Apr 23 21:49:06 2019, MaxMem=   671088640 cpu:               0.8 elap:               0.1
 (Enter /shared/centos7/gaussian/g16/l401.exe)
 Initial guess from the checkpoint file:  "/scratch/underkoffler.c/gaussian_scratch/Gau-23977.chk"
 B after Tr=     0.000000   -0.000000   -0.000000
         Rot=    0.926686    0.010247    0.004157    0.375675 Ang=  44.15 deg.
 Guess basis will be translated and rotated to current coordinates.
 JPrj=2 DoOrth=T DoCkMO=T.
 Generating alternative initial guess.
 ExpMin= 4.38D-02 ExpMax= 8.59D+03 ExpMxC= 1.30D+03 IAcc=2 IRadAn=         4 AccDes= 0.00D+00
 Harris functional with IExCor= 1009 and IRadAn=       4 diagonalized for initial guess.
 HarFok:  IExCor= 1009 AccDes= 0.00D+00 IRadAn=         4 IDoV= 1 UseB2=F ITyADJ=14
 ICtDFT=  3500011 ScaDFX=  1.000000  1.000000  1.000000  1.000000
 FoFCou: FMM=F IPFlag=           0 FMFlag=      100000 FMFlg1=           0
         NFxFlg=           0 DoJE=T BraDBF=F KetDBF=T FulRan=T
         wScrn=  0.000000 ICntrl=       500 IOpCl=  0 I1Cent=   200000004 NGrid=           0
         NMat0=    1 NMatS0=      1 NMatT0=    0 NMatD0=    1 NMtDS0=    0 NMtDT0=    0
 Petite list used in FoFCou.
 Harris En= -194.270435325344    
 Leave Link  401 at Tue Apr 23 21:49:06 2019, MaxMem=   671088640 cpu:              14.0 elap:               0.7
 (Enter /shared/centos7/gaussian/g16/l502.exe)
 Keep R1 ints in memory in canonical form, NReq=257412536.
 FoFCou: FMM=F IPFlag=           0 FMFlag=           0 FMFlg1=           0
         NFxFlg=           0 DoJE=F BraDBF=F KetDBF=F FulRan=T
         wScrn=  0.000000 ICntrl=       600 IOpCl=  0 I1Cent=           0 NGrid=           0
         NMat0=    1 NMatS0=  21736 NMatT0=    0 NMatD0=    1 NMtDS0=    0 NMtDT0=    0
 Symmetry not used in FoFCou.
 Two-electron integral symmetry not used.
 Closed shell SCF:
 Using DIIS extrapolation, IDIIS=  1040.
 NGot=   671088640 LenX=   434740204 LenY=   434687779
 Requested convergence on RMS density matrix=1.00D-08 within 128 cycles.
 Requested convergence on MAX density matrix=1.00D-06.
 Requested convergence on             energy=1.00D-06.
 No special actions if energy rises.

 Cycle   1  Pass 1  IDiag  1:
 E= -194.313065169256    
 DIIS: error= 1.50D-03 at cycle   1 NSaved=   1.
 NSaved= 1 IEnMin= 1 EnMin= -194.313065169256     IErMin= 1 ErrMin= 1.50D-03
 ErrMax= 1.50D-03  0.00D+00 EMaxC= 1.00D-01 BMatC= 8.73D-04 BMatP= 8.73D-04
 IDIUse=3 WtCom= 9.85D-01 WtEn= 1.50D-02
 Coeff-Com:  0.100D+01
 Coeff-En:   0.100D+01
 Coeff:      0.100D+01
 Gap=     0.631 Goal=   None    Shift=    0.000
 GapD=    0.631 DampG=2.000 DampE=1.000 DampFc=2.0000 IDamp=-1.
 RMSDP=2.02D-04 MaxDP=5.74D-03              OVMax= 8.52D-03

 Cycle   2  Pass 1  IDiag  1:
 E= -194.314031089311     Delta-E=       -0.000965920055 Rises=F Damp=F
 DIIS: error= 2.16D-04 at cycle   2 NSaved=   2.
 NSaved= 2 IEnMin= 2 EnMin= -194.314031089311     IErMin= 2 ErrMin= 2.16D-04
 ErrMax= 2.16D-04  0.00D+00 EMaxC= 1.00D-01 BMatC= 2.05D-05 BMatP= 8.73D-04
 IDIUse=3 WtCom= 9.98D-01 WtEn= 2.16D-03
 Coeff-Com: -0.791D-01 0.108D+01
 Coeff-En:   0.000D+00 0.100D+01
 Coeff:     -0.789D-01 0.108D+01
 Gap=     0.350 Goal=   None    Shift=    0.000
 RMSDP=3.35D-05 MaxDP=7.53D-04 DE=-9.66D-04 OVMax= 2.15D-03

 Cycle   3  Pass 1  IDiag  1:
 E= -194.314066886135     Delta-E=       -0.000035796824 Rises=F Damp=F
 DIIS: error= 1.11D-04 at cycle   3 NSaved=   3.
 NSaved= 3 IEnMin= 3 EnMin= -194.314066886135     IErMin= 3 ErrMin= 1.11D-04
 ErrMax= 1.11D-04  0.00D+00 EMaxC= 1.00D-01 BMatC= 3.51D-06 BMatP= 2.05D-05
 IDIUse=3 WtCom= 9.99D-01 WtEn= 1.11D-03
 Coeff-Com: -0.358D-01 0.279D+00 0.757D+00
 Coeff-En:   0.000D+00 0.000D+00 0.100D+01
 Coeff:     -0.357D-01 0.278D+00 0.757D+00
 Gap=     0.350 Goal=   None    Shift=    0.000
 RMSDP=8.23D-06 MaxDP=3.71D-04 DE=-3.58D-05 OVMax= 4.58D-04

 Cycle   4  Pass 1  IDiag  1:
 E= -194.314069689645     Delta-E=       -0.000002803509 Rises=F Damp=F
 DIIS: error= 5.29D-05 at cycle   4 NSaved=   4.
 NSaved= 4 IEnMin= 4 EnMin= -194.314069689645     IErMin= 4 ErrMin= 5.29D-05
 ErrMax= 5.29D-05  0.00D+00 EMaxC= 1.00D-01 BMatC= 7.51D-07 BMatP= 3.51D-06
 IDIUse=1 WtCom= 1.00D+00 WtEn= 0.00D+00
 Coeff-Com: -0.447D-02-0.195D-01 0.296D+00 0.728D+00
[...]
           A4         109.22259 109.85947 110.34592 110.55830 110.48556
           A5         111.25207 111.04063 110.84650 110.70587 110.64575
           A6         111.24400 111.16456 111.02880 110.87680 110.74048
           A7         106.97403 106.39097 106.06356 106.05948 106.33868
           A8         111.97246 112.33645 112.38277 112.13043 111.63437
           A9         111.88076 111.66946 111.36898 111.02219 110.72331
           A10        108.58970 108.34460 108.31040 108.53909 108.97635
           A11        108.22556 108.95841 109.50407 109.73542 109.62957
           A12        108.04309 108.04810 108.11304 108.20218 108.29916
           A13        107.98428 107.29285 106.95327 107.03083 107.45302
           A14        111.24464 111.25850 111.26528 111.26442 111.25564
           A15        111.24193 111.20297 111.17662 111.16733 111.17684
           A16        107.72375 107.71956 107.72095 107.72709 107.73555
           A17        108.40576 108.42000 108.43506 108.44639 108.45186
           A18        109.09219 109.07740 109.06578 109.06175 109.06115
           A19        109.09128 109.12168 109.13658 109.13308 109.11854
           D1         179.99718 179.99708 179.99701 179.99692 179.99683
           D2          58.33326  58.44267  58.57309  58.68946  58.76345
           D3         -58.32524 -57.90922 -57.72542 -57.80466 -58.09921
           D4         -60.48341 -60.49599 -60.50535 -60.50692 -60.50751
           D5          60.48611  60.47443  60.47081  60.47669  60.48359
           D6         180.00000 180.00000 180.00000 180.00000 180.00000
           D7        -118.40413-106.47630 -95.38937 -85.38944 -76.35275
           D8         119.89582 130.75848 141.32143 151.46179 161.20487
           D9           0.81021  12.80635  23.97974  34.08608  43.22273
           D10          1.99391  13.98158  25.12460  35.17313  44.24364
           D11       -119.70614-108.78364 -98.16460 -87.97564 -78.19875
           D12        121.20825 133.26423 144.49371 154.64865 163.81912
           D13        121.15549 132.22065 142.74457 152.60416 161.89778
           D14         -0.54457   9.45543  19.45537  29.45539  39.45540
           D15       -119.63018-108.49671 -97.88631 -87.92032 -78.52674
                          36        37
     Eigenvalues --    -0.31528  -0.31556
           R1           1.40635   1.40727
           R2           1.40224   1.40215
           R3           1.51231   1.51155
           R4           1.09823   1.09792
           R5           1.09804   1.09794
           R6           1.08828   1.08882
           R7           1.08918   1.08929
           R8           1.08933   1.08881
           R9           1.09580   1.09584
           R10          1.09580   1.09583
           R11          1.08722   1.08724
           A1         112.48872 112.49330
           A2         108.82909 108.63675
           A3         109.68800 109.71343
           A4         110.17694 109.70228
           A5         110.64650 110.73250
           A6         110.69159 110.72590
           A7         106.79589 107.31949
           A8         110.96530 110.24960
           A9         110.53821 110.50805
           A10        109.57137 110.21947
           A11        109.25092 108.69038
           A12        108.38270 108.41474
           A13        108.05818 108.70402
           A14        111.24430 111.23161
           A15        111.19998 111.23167
           A16        107.74331 107.74934
           A17        108.45086 108.44387
           A18        109.06442 109.07115
           A19        109.09606 109.07064
           D1         179.99676 179.99667
           D2          58.81995  58.81877
           D3         -58.46763 -58.84033
           D4         -60.50530 -60.50074
           D5          60.49263  60.50132
           D6         180.00000 180.00000
           D7         -67.95099 -59.83613
           D8         170.67658 179.98730
           D9          51.69591  59.81323
           D10         52.63718  60.71359
           D11        -68.73524 -59.46297
           D12        172.28409-179.63705
           D13        170.82779 179.63195
           D14         49.45537  59.45538
           D15        -69.52530 -60.71869
 Largest change from initial coordinates is atom    8       1.977 Angstoms.
 GradGradGradGradGradGradGradGradGradGradGradGradGradGradGradGradGradGrad

 Leave Link  103 at Tue Apr 23 22:36:12 2019, MaxMem=   671088640 cpu:               0.6 elap:               0.1
 (Enter /shared/centos7/gaussian/g16/l202.exe)
                          Input orientation:                          
 ---------------------------------------------------------------------
 Center     Atomic      Atomic             Coordinates (Angstroms)
 Number     Number       Type             X           Y           Z
 ---------------------------------------------------------------------
      1          8           0        0.369040    0.291296   -0.718888
      2          6           0       -0.408502    0.033556    0.425408
      3          6           0       -1.846166   -0.157584   -0.000474
      4          6           0        1.724355    0.482481   -0.414604
      5          1           0       -0.319858    0.871099    1.129745
      6          1           0       -0.031639   -0.863121    0.934735
      7          1           0       -2.213883    0.738030   -0.498651
      8          1           0       -2.476735   -0.359752    0.864432
      9          1           0       -1.925386   -0.993691   -0.693407
     10          1           0        1.863544    1.336951    0.257230
     11          1           0        2.153406   -0.406386    0.061510
     12          1           0        2.249515    0.674474   -1.347036
 ---------------------------------------------------------------------
                    Distance matrix (angstroms):
                    1          2          3          4          5
     1  O    0.000000
     2  C    1.407272   0.000000
     3  C    2.371655   1.511552   0.000000
     4  C    1.402149   2.335858   3.651001   0.000000
     5  H    2.056257   1.097919   2.159908   2.591302   0.000000
     6  H    2.056134   1.097938   2.159840   2.591307   1.768790
     7  H    2.630506   2.146991   1.088816   3.947415   2.501342
     8  H    3.321023   2.150586   1.089289   4.471515   2.497499
     9  H    2.629873   2.146607   1.088809   3.946825   3.062523
    10  H    2.068755   2.624751   4.007743   1.095835   2.396987
    11  H    2.068755   2.624756   4.007783   1.095834   2.981631
    12  H    2.019302   3.258433   4.390917   1.087237   3.574183
                    6          7          8          9         10
     6  H    0.000000
     7  H    3.062755   0.000000
     8  H    2.497362   1.769806   0.000000
     9  H    2.500835   1.766357   1.769951   0.000000
    10  H    2.981786   4.189925   4.699523   4.548802   0.000000
    11  H    2.396987   4.549360   4.699475   4.189436   1.778075
    12  H    3.574120   4.543755   5.319553   4.543105   1.778067
                   11         12
    11  H    0.000000
    12  H    1.778060   0.000000
 Stoichiometry    C3H8O
 Framework group  C1[X(C3H8O)]
 Deg. of freedom    30
 Full point group                 C1      NOp   1
 RotChk:  IX=2 Diff= 1.52D-15
 Largest Abelian subgroup         C1      NOp   1
 Largest concise Abelian subgroup C1      NOp   1
                         Standard orientation:                         
 ---------------------------------------------------------------------
 Center     Atomic      Atomic             Coordinates (Angstroms)
 Number     Number       Type             X           Y           Z
 ---------------------------------------------------------------------
      1          8           0       -0.503200   -0.498512   -0.000018
      2          6           0        0.487840    0.500614   -0.000001
      3          6           0        1.844902   -0.165097    0.000027
      4          6           0       -1.800723    0.032950    0.000030
      5          1           0        0.368740    1.140369    0.884281
      6          1           0        0.368767    1.140097   -0.884508
      7          1           0        1.957159   -0.791893    0.883229
      8          1           0        2.636855    0.582808   -0.000186
      9          1           0        1.956511   -0.792064   -0.883128
     10          1           0       -1.977292    0.648780    0.889093
     11          1           0       -1.977335    0.648839   -0.888982
     12          1           0       -2.499923   -0.799638    0.000013
 ---------------------------------------------------------------------
 Rotational constants (GHZ):          28.5241147           4.1910223           3.9231445
 Leave Link  202 at Tue Apr 23 22:36:13 2019, MaxMem=   671088640 cpu:               0.2 elap:               0.0
 (Enter /shared/centos7/gaussian/g16/l601.exe)
 Copying SCF densities to generalized density rwf, IOpCl= 0 IROHF=0.

 **********************************************************************

            Population analysis using the SCF density.

 **********************************************************************

 Orbital symmetries:
       Occupied  (A) (A) (A) (A) (A) (A) (A) (A) (A) (A) (A) (A)
                 (A) (A) (A) (A) (A)
       Virtual   (A) (A) (A) (A) (A) (A) (A) (A) (A) (A) (A) (A)
                 (A) (A) (A) (A) (A) (A) (A) (A) (A) (A) (A) (A)
                 (A) (A) (A) (A) (A) (A) (A) (A) (A) (A) (A) (A)
                 (A) (A) (A) (A) (A) (A) (A) (A) (A) (A) (A) (A)
                 (A) (A) (A) (A) (A) (A) (A) (A) (A) (A) (A) (A)
                 (A) (A) (A) (A) (A) (A) (A) (A) (A) (A) (A) (A)
                 (A) (A) (A) (A) (A) (A) (A) (A) (A) (A) (A) (A)
                 (A) (A) (A) (A) (A) (A) (A) (A) (A) (A) (A) (A)
                 (A) (A) (A) (A) (A) (A) (A) (A) (A) (A) (A) (A)
                 (A) (A) (A) (A) (A) (A) (A) (A) (A) (A) (A) (A)
                 (A) (A) (A) (A) (A) (A) (A) (A) (A) (A) (A) (A)
                 (A) (A) (A) (A) (A) (A) (A) (A) (A) (A) (A) (A)
                 (A) (A) (A) (A) (A) (A) (A) (A) (A) (A) (A) (A)
                 (A) (A) (A) (A) (A) (A) (A) (A) (A) (A) (A) (A)
                 (A) (A) (A) (A) (A) (A) (A) (A) (A) (A) (A) (A)
                 (A) (A) (A) (A) (A) (A) (A) (A) (A) (A) (A)
 The electronic state is 1-A.
 Alpha  occ. eigenvalues --  -19.62203 -10.57943 -10.57356 -10.52191  -1.16026
 Alpha  occ. eigenvalues --   -0.86133  -0.76609  -0.69402  -0.56381  -0.56068
 Alpha  occ. eigenvalues --   -0.52857  -0.48994  -0.44915  -0.42472  -0.41737
 Alpha  occ. eigenvalues --   -0.38931  -0.33087
 Alpha virt. eigenvalues --    0.01886   0.03050   0.04217   0.04357   0.05576
 Alpha virt. eigenvalues --    0.07100   0.07353   0.08627   0.09774   0.09970
 Alpha virt. eigenvalues --    0.13211   0.14349   0.18373   0.19233   0.19537
 Alpha virt. eigenvalues --    0.21274   0.22106   0.22554   0.24401   0.25307
 Alpha virt. eigenvalues --    0.26562   0.28553   0.28808   0.29442   0.30439
 Alpha virt. eigenvalues --    0.35366   0.37700   0.41806   0.44312   0.44502
 Alpha virt. eigenvalues --    0.47882   0.51035   0.51277   0.51582   0.54663
 Alpha virt. eigenvalues --    0.55916   0.56301   0.56817   0.57799   0.59171
 Alpha virt. eigenvalues --    0.60943   0.62573   0.64637   0.67266   0.68514
 Alpha virt. eigenvalues --    0.70118   0.74958   0.78103   0.81549   0.86493
 Alpha virt. eigenvalues --    0.87442   0.90186   0.90704   0.91951   0.97228
 Alpha virt. eigenvalues --    0.99975   1.05278   1.06085   1.07760   1.08790
 Alpha virt. eigenvalues --    1.11125   1.13969   1.14191   1.16606   1.17761
 Alpha virt. eigenvalues --    1.20278   1.21545   1.22554   1.25565   1.26284
 Alpha virt. eigenvalues --    1.28309   1.32262   1.33012   1.36624   1.39760
 Alpha virt. eigenvalues --    1.41108   1.41629   1.43377   1.44258   1.44821
 Alpha virt. eigenvalues --    1.48184   1.49009   1.51182   1.52096   1.57299
 Alpha virt. eigenvalues --    1.59602   1.60363   1.61703   1.74766   1.81318
 Alpha virt. eigenvalues --    2.03060   2.05791   2.10897   2.22058   2.37215
 Alpha virt. eigenvalues --    2.37607   2.46527   2.47057   2.48711   2.58343
 Alpha virt. eigenvalues --    2.61076   2.64431   2.70011   2.80308   2.85492
 Alpha virt. eigenvalues --    2.87946   2.96686   2.97730   3.03006   3.06523
 Alpha virt. eigenvalues --    3.08454   3.09239   3.10574   3.13856   3.14322
 Alpha virt. eigenvalues --    3.17148   3.17182   3.20623   3.26905   3.32815
 Alpha virt. eigenvalues --    3.35386   3.36012   3.37969   3.39265   3.41925
 Alpha virt. eigenvalues --    3.43902   3.50810   3.51693   3.55502   3.57369
 Alpha virt. eigenvalues --    3.60732   3.65963   3.66112   3.70845   3.76355
 Alpha virt. eigenvalues --    3.81103   3.82268   3.87012   3.88468   3.91979
 Alpha virt. eigenvalues --    3.95017   3.98847   4.02755   4.05844   4.08061
 Alpha virt. eigenvalues --    4.10506   4.14306   4.17679   4.20597   4.22169
 Alpha virt. eigenvalues --    4.22435   4.23945   4.25675   4.29102   4.31393
 Alpha virt. eigenvalues --    4.34278   4.40410   4.43181   4.47994   4.50095
 Alpha virt. eigenvalues --    4.51973   4.55877   4.57191   4.64916   4.91625
 Alpha virt. eigenvalues --    5.13097   5.21130   5.24770   5.31374   5.41959
 Alpha virt. eigenvalues --    5.50019   5.51822   5.56584   5.58952   5.59340
 Alpha virt. eigenvalues --    5.65822   5.66807   5.84006   5.87963   6.24400
 Alpha virt. eigenvalues --    6.47911   6.72472   7.19391   7.20273   7.32248
 Alpha virt. eigenvalues --    7.68707   7.76603  24.36533  24.43885  24.49323
 Alpha virt. eigenvalues --   50.17626
          Condensed to atoms (all electrons):
               1          2          3          4          5          6
     1  O    8.296392   0.094410  -0.094865   0.123230  -0.052687  -0.052720
     2  C    0.094410   5.080740   0.318924  -0.088761   0.445015   0.445079
     3  C   -0.094865   0.318924   5.082246  -0.030495  -0.046111  -0.046136
     4  C    0.123230  -0.088761  -0.030495   4.940061   0.002059   0.002044
     5  H   -0.052687   0.445015  -0.046111   0.002059   0.574508  -0.055362
     6  H   -0.052720   0.445079  -0.046136   0.002044  -0.055362   0.574513
     7  H   -0.002761  -0.029690   0.405499   0.000065  -0.008222   0.006692
     8  H    0.011813  -0.036033   0.416227   0.001014  -0.003918  -0.003924
     9  H   -0.002762  -0.029745   0.405521   0.000068   0.006694  -0.008231
    10  H   -0.048697  -0.003716  -0.003028   0.437652   0.008174  -0.003658
    11  H   -0.048705  -0.003686  -0.003040   0.437641  -0.003660   0.008176
    12  H   -0.055768   0.012261   0.002143   0.425879   0.000049   0.000049
               7          8          9         10         11         12
     1  O   -0.002761   0.011813  -0.002762  -0.048697  -0.048705  -0.055768
     2  C   -0.029690  -0.036033  -0.029745  -0.003716  -0.003686   0.012261
     3  C    0.405499   0.416227   0.405521  -0.003028  -0.003040   0.002143
     4  C    0.000065   0.001014   0.000068   0.437652   0.437641   0.425879
     5  H   -0.008222  -0.003918   0.006694   0.008174  -0.003660   0.000049
     6  H    0.006692  -0.003924  -0.008231  -0.003658   0.008176   0.000049
     7  H    0.544571  -0.027216  -0.030260  -0.000029  -0.000009   0.000010
     8  H   -0.027216   0.543330  -0.027199   0.000011   0.000011   0.000016
     9  H   -0.030260  -0.027199   0.544585  -0.000009  -0.000029   0.000010
    10  H   -0.000029   0.000011  -0.000009   0.579494  -0.053052  -0.025859
    11  H   -0.000009   0.000011  -0.000029  -0.053052   0.579500  -0.025860
    12  H    0.000010   0.000016   0.000010  -0.025859  -0.025860   0.538994
 Mulliken charges:
               1
     1  O   -0.166881
     2  C   -0.204798
     3  C   -0.406883
     4  C   -0.250458
     5  H    0.133460
     6  H    0.133479
     7  H    0.141350
     8  H    0.125870
     9  H    0.141357
    10  H    0.112715
    11  H    0.112712
    12  H    0.128077
 Sum of Mulliken charges =  -0.00000
 Mulliken charges with hydrogens summed into heavy atoms:
               1
     1  O   -0.166881
     2  C    0.062141
     3  C    0.001694
     4  C    0.103046
 Electronic spatial extent (au):  <R**2>=            366.6174
 Charge=              0.0000 electrons
 Dipole moment (field-independent basis, Debye):
    X=             -0.1636    Y=              1.2403    Z=              0.0001  Tot=              1.2511
 Quadrupole moment (field-independent basis, Debye-Ang):
   XX=            -24.0359   YY=            -27.7285   ZZ=            -26.7050
   XY=              0.0186   XZ=              0.0005   YZ=              0.0001
 Traceless Quadrupole moment (field-independent basis, Debye-Ang):
   XX=              2.1206   YY=             -1.5720   ZZ=             -0.5485
   XY=              0.0186   XZ=              0.0005   YZ=              0.0001
 Octapole moment (field-independent basis, Debye-Ang**2):
  XXX=             -6.9246  YYY=             -1.7315  ZZZ=              0.0001  XYY=             -0.4560
  XXY=             -1.6168  XXZ=              0.0021  XZZ=             -0.5604  YZZ=             -0.1344
  YYZ=              0.0002  XYZ=             -0.0004
 Hexadecapole moment (field-independent basis, Debye-Ang**3):
 XXXX=           -375.7747 YYYY=            -74.2775 ZZZZ=            -48.7818 XXXY=              8.7787
 XXXZ=              0.0061 YYYX=              2.9665 YYYZ=              0.0011 ZZZX=              0.0011
 ZZZY=              0.0001 XXYY=            -72.6684 XXZZ=            -72.4131 YYZZ=            -19.1299
 XXYZ=             -0.0020 YYXZ=              0.0004 ZZXY=             -2.0359
 N-N= 1.341607552749D+02 E-N=-7.216236723643D+02  KE= 1.935636115991D+02
 No NMR shielding tensors so no spin-rotation constants.
 Leave Link  601 at Tue Apr 23 22:36:13 2019, MaxMem=   671088640 cpu:               4.5 elap:               0.3
 (Enter /shared/centos7/gaussian/g16/l9999.exe)
 1\1\GINC-C0225\Scan\RM062X\6-311+G(2df,2p)\C3H8O1\UNDERKOFFLER.C\23-Ap
 r-2019\0\\#p m062x/6-311+g(2df,2p) Opt=(CalcFC,ModRedun)\\Gaussian Inp
 ut Prepared from Scan Object\\0,1\O,0.369039586,0.2912960725,-0.718887
 7853\C,-0.4085019254,0.0335558969,0.4254084189\C,-1.8461661996,-0.1575
 844628,-0.0004744134\C,1.7243552488,0.4824805052,-0.4146040832\H,-0.31
 98577606,0.8710988449,1.1297451668\H,-0.0316385354,-0.8631207561,0.934
 734849\H,-2.2138825232,0.7380300171,-0.4986513404\H,-2.4767347803,-0.3
 597515782,0.8644320961\H,-1.9253863977,-0.9936908773,-0.6934069277\H,1
 .8635444476,1.3369512726,0.2572303389\H,2.1534061675,-0.4063856039,0.0
 61510482\H,2.2495146932,0.6744736655,-1.3470364489\\Version=EM64L-G16R
 evA.03\State=1-A\HF=-194.3155623,-194.3152846,-194.3145044,-194.313388
 6,-194.3121927,-194.3112379,-194.3108269,-194.311115,-194.3120161,-194
 .3132382,-194.314419,-194.3152569,-194.3155639,-194.3152783,-194.31446
 59,-194.3133117,-194.312102,-194.3111771,-194.310824,-194.3111573,-194
 .3120731,-194.3132872,-194.3144532,-194.3152753,-194.3155639,-194.3152
 569,-194.3144236,-194.3132553,-194.3120429,-194.3111343,-194.3108252,-
 194.3112182,-194.3121676,-194.31337,-194.3144962,-194.315283,-194.3155
 64\RMSD=8.595e-09,3.778e-09,4.668e-09,5.385e-09,6.164e-09,6.918e-09,7.
 319e-09,4.570e-09,8.591e-09,3.535e-09,3.134e-09,2.785e-09,2.994e-09,4.
 025e-09,2.910e-09,5.162e-09,5.898e-09,6.625e-09,3.719e-09,6.142e-09,3.
 388e-09,4.301e-09,3.902e-09,3.390e-09,3.402e-09,4.004e-09,4.411e-09,4.
 765e-09,5.310e-09,6.193e-09,6.488e-09,5.621e-09,3.949e-09,3.019e-09,2.
 551e-09,2.655e-09,3.259e-09\PG=C01 [X(C3H8O1)]\\@


 IT IS BY LOGIC THAT WE PROVE, BUT BY INTUITION THAT WE DISCOVER.
     -- J.H.POINCARE (1854-1912)
 Job cpu time:       0 days 13 hours 31 minutes 29.6 seconds.
 Elapsed time:       0 days  0 hours 48 minutes 50.5 seconds.
 File lengths (MBytes):  RWF=    272 Int=      0 D2E=      0 Chk=     32 Scr=     32
 Normal termination of Gaussian 16 at Tue Apr 23 22:36:13 2019.
