 Entering Gaussian System, Link 0=g16
 Input=XOBKSJJDNFUZPF-UHFFFAOYSA-N_GeoFreq_c2_a1.com
 Output=XOBKSJJDNFUZPF-UHFFFAOYSA-N_GeoFreq_c2_a1.log
 Initial command:
 /shared/centos7/gaussian/g16/l1.exe "/scratch/underkoffler.c/gaussian_scratch/Gau-9690.inp" -scrdir="/scratch/underkoffler.c/gaussian_scratch/"
 Entering Link 1 = /shared/centos7/gaussian/g16/l1.exe PID=      9691.
  
 Copyright (c) 1988,1990,1992,1993,1995,1998,2003,2009,2016,
            Gaussian, Inc.  All Rights Reserved.
  
 This is part of the Gaussian(R) 16 program.  It is based on
 the Gaussian(R) 09 system (copyright 2009, Gaussian, Inc.),
 the Gaussian(R) 03 system (copyright 2003, Gaussian, Inc.),
 the Gaussian(R) 98 system (copyright 1998, Gaussian, Inc.),
 the Gaussian(R) 94 system (copyright 1995, Gaussian, Inc.),
 the Gaussian 92(TM) system (copyright 1992, Gaussian, Inc.),
 the Gaussian 90(TM) system (copyright 1990, Gaussian, Inc.),
 the Gaussian 88(TM) system (copyright 1988, Gaussian, Inc.),
 the Gaussian 86(TM) system (copyright 1986, Carnegie Mellon
 University), and the Gaussian 82(TM) system (copyright 1983,
 Carnegie Mellon University). Gaussian is a federally registered
 trademark of Gaussian, Inc.
  
 This software contains proprietary and confidential information,
 including trade secrets, belonging to Gaussian, Inc.
  
 This software is provided under written license and may be
 used, copied, transmitted, or stored only in accord with that
 written license.
  
 The following legend is applicable only to US Government
 contracts under FAR:
  
                    RESTRICTED RIGHTS LEGEND
  
 Use, reproduction and disclosure by the US Government is
 subject to restrictions as set forth in subparagraphs (a)
 and (c) of the Commercial Computer Software - Restricted
 Rights clause in FAR 52.227-19.
  
 Gaussian, Inc.
 340 Quinnipiac St., Bldg. 40, Wallingford CT 06492
  
  
 ---------------------------------------------------------------
 Warning -- This program may not be used in any manner that
 competes with the business of Gaussian, Inc. or will provide
 assistance to any competitor of Gaussian, Inc.  The licensee
 of this program is prohibited from giving any competitor of
 Gaussian, Inc. access to this program.  By using this program,
 the user acknowledges that Gaussian, Inc. is engaged in the
 business of creating and licensing software in the field of
 computational chemistry and represents and warrants to the
 licensee that it is not a competitor of Gaussian, Inc. and that
 it will not use this program in any manner prohibited above.
 ---------------------------------------------------------------
  

 Cite this work as:
 Gaussian 16, Revision A.03,
 M. J. Frisch, G. W. Trucks, H. B. Schlegel, G. E. Scuseria, 
 M. A. Robb, J. R. Cheeseman, G. Scalmani, V. Barone, 
 G. A. Petersson, H. Nakatsuji, X. Li, M. Caricato, A. V. Marenich, 
 J. Bloino, B. G. Janesko, R. Gomperts, B. Mennucci, H. P. Hratchian, 
 J. V. Ortiz, A. F. Izmaylov, J. L. Sonnenberg, D. Williams-Young, 
 F. Ding, F. Lipparini, F. Egidi, J. Goings, B. Peng, A. Petrone, 
 T. Henderson, D. Ranasinghe, V. G. Zakrzewski, J. Gao, N. Rega, 
 G. Zheng, W. Liang, M. Hada, M. Ehara, K. Toyota, R. Fukuda, 
 J. Hasegawa, M. Ishida, T. Nakajima, Y. Honda, O. Kitao, H. Nakai, 
 T. Vreven, K. Throssell, J. A. Montgomery, Jr., J. E. Peralta, 
 F. Ogliaro, M. J. Bearpark, J. J. Heyd, E. N. Brothers, K. N. Kudin, 
 V. N. Staroverov, T. A. Keith, R. Kobayashi, J. Normand, 
 K. Raghavachari, A. P. Rendell, J. C. Burant, S. S. Iyengar, 
 J. Tomasi, M. Cossi, J. M. Millam, M. Klene, C. Adamo, R. Cammi, 
 J. W. Ochterski, R. L. Martin, K. Morokuma, O. Farkas, 
 J. B. Foresman, and D. J. Fox, Gaussian, Inc., Wallingford CT, 2016.
 
 ******************************************
 Gaussian 16:  EM64L-G16RevA.03 25-Dec-2016
                 9-Apr-2019 
 ******************************************
 %nprocshared=20
 Will use up to   20 processors via shared memory.
 %mem=5GB
 ----------------------------------------------------------------------
 #p m062x/6-311+g(2df,2p) opt=(calcfc,verytight,gdiis,maxcycles=900) fr
 eq iop(7/33=1,2/16=3)
 ----------------------------------------------------------------------

 Warning!  Use of Opt=GDIIS is deprecated since it is seldom a good choice.

 1/6=900,7=1,10=4,18=20,19=11,26=3,38=1/1,3;
 2/9=110,12=2,16=3,17=6,18=5,40=1/2;
 3/5=4,6=6,7=214,11=2,25=1,30=1,71=2,74=-55,140=1/1,2,3;
 4//1;
 5/5=2,38=5/2;
 8/6=4,10=90,11=11/1;
 11/6=1,8=1,9=11,15=111,16=1/1,2,10;
 10/6=1,13=1/2;
 6/7=2,8=2,9=2,10=2,28=1/1;
 7/10=1,18=20,25=1,33=1/1,2,3,16;
 1/6=900,7=1,10=4,18=20,19=11,26=3/3(2);
 2/9=110,16=3/2;
 99//99;
 2/9=110,16=3/2;
 3/5=4,6=6,7=214,11=2,25=1,30=1,71=1,74=-55/1,2,3;
 4/5=5,16=3,69=1/1;
 5/5=2,38=5/2;
 7/33=1/1,2,3,16;
 1/6=900,7=1,18=20,19=11,26=3/3(-5);
 2/9=110,16=3/2;
 6/7=2,8=2,9=2,10=2,19=2,28=1/1;
 99/9=1/99;
 Leave Link    1 at Tue Apr  9 01:23:28 2019, MaxMem=   671088640 cpu:              24.8 elap:               1.3
 (Enter /shared/centos7/gaussian/g16/l101.exe)
 ------------------------------
 Gaussian input prepared by ASE
 ------------------------------
 Symbolic Z-matrix:
 Charge =  0 Multiplicity = 1
 O                    -0.67744   0.23507  -0.96198 
 C                     0.50636   0.68809  -0.43093 
 C                     1.29933  -0.34146   0.30263 
 C                    -1.57722  -0.18729  -0.01038 
 H                     1.10644   1.08681  -1.28878 
 H                     0.31579   1.56339   0.23483 
 H                     2.26341  -0.56353  -0.22007 
 H                     0.74652  -1.29078   0.39629 
 H                     1.55935  -0.00171   1.33728 
 H                    -2.53951   0.37872  -0.11304 
 H                    -1.19402  -0.03175   1.03097 
 H                    -1.80658  -1.26169  -0.13938 
 
 ITRead=  0  0  0  0  0  0  0  0  0  0  0  0
 MicOpt= -1 -1 -1 -1 -1 -1 -1 -1 -1 -1 -1 -1
 NAtoms=     12 NQM=       12 NQMF=       0 NMMI=      0 NMMIF=      0
                NMic=       0 NMicF=      0.
                    Isotopes and Nuclear Properties:
 (Nuclear quadrupole moments (NQMom) in fm**2, nuclear magnetic moments (NMagM)
  in nuclear magnetons)

  Atom         1           2           3           4           5           6           7           8           9          10
 IAtWgt=          16          12          12          12           1           1           1           1           1           1
 AtmWgt=  15.9949146  12.0000000  12.0000000  12.0000000   1.0078250   1.0078250   1.0078250   1.0078250   1.0078250   1.0078250
 NucSpn=           0           0           0           0           1           1           1           1           1           1
 AtZEff=  -0.0000000  -0.0000000  -0.0000000  -0.0000000  -0.0000000  -0.0000000  -0.0000000  -0.0000000  -0.0000000  -0.0000000
 NQMom=    0.0000000   0.0000000   0.0000000   0.0000000   0.0000000   0.0000000   0.0000000   0.0000000   0.0000000   0.0000000
 NMagM=    0.0000000   0.0000000   0.0000000   0.0000000   2.7928460   2.7928460   2.7928460   2.7928460   2.7928460   2.7928460
 AtZNuc=   8.0000000   6.0000000   6.0000000   6.0000000   1.0000000   1.0000000   1.0000000   1.0000000   1.0000000   1.0000000

  Atom        11          12
 IAtWgt=           1           1
 AtmWgt=   1.0078250   1.0078250
 NucSpn=           1           1
 AtZEff=  -0.0000000  -0.0000000
 NQMom=    0.0000000   0.0000000
 NMagM=    2.7928460   2.7928460
 AtZNuc=   1.0000000   1.0000000
 Leave Link  101 at Tue Apr  9 01:23:29 2019, MaxMem=   671088640 cpu:               4.7 elap:               0.3
 (Enter /shared/centos7/gaussian/g16/l103.exe)

 GradGradGradGradGradGradGradGradGradGradGradGradGradGradGradGradGradGrad
 Berny optimization.
 Initialization pass.
                           ----------------------------
                           !    Initial Parameters    !
                           ! (Angstroms and Degrees)  !
 --------------------------                            --------------------------
 ! Name  Definition              Value          Derivative Info.                !
 --------------------------------------------------------------------------------
 ! R1    R(1,2)                  1.3743         calculate D2E/DX2 analytically  !
 ! R2    R(1,4)                  1.3761         calculate D2E/DX2 analytically  !
 ! R3    R(2,3)                  1.4923         calculate D2E/DX2 analytically  !
 ! R4    R(2,5)                  1.1203         calculate D2E/DX2 analytically  !
 ! R5    R(2,6)                  1.1161         calculate D2E/DX2 analytically  !
 ! R6    R(3,7)                  1.1189         calculate D2E/DX2 analytically  !
 ! R7    R(3,8)                  1.1025         calculate D2E/DX2 analytically  !
 ! R8    R(3,9)                  1.1196         calculate D2E/DX2 analytically  !
 ! R9    R(4,10)                 1.1211         calculate D2E/DX2 analytically  !
 ! R10   R(4,11)                 1.1205         calculate D2E/DX2 analytically  !
 ! R11   R(4,12)                 1.1062         calculate D2E/DX2 analytically  !
 ! A1    A(2,1,4)              113.4036         calculate D2E/DX2 analytically  !
 ! A2    A(1,2,3)              114.8511         calculate D2E/DX2 analytically  !
 ! A3    A(1,2,5)              106.4299         calculate D2E/DX2 analytically  !
 ! A4    A(1,2,6)              109.9953         calculate D2E/DX2 analytically  !
 ! A5    A(3,2,5)              109.7149         calculate D2E/DX2 analytically  !
 ! A6    A(3,2,6)              109.7896         calculate D2E/DX2 analytically  !
 ! A7    A(5,2,6)              105.6113         calculate D2E/DX2 analytically  !
 ! A8    A(2,3,7)              111.4161         calculate D2E/DX2 analytically  !
 ! A9    A(2,3,8)              111.6764         calculate D2E/DX2 analytically  !
 ! A10   A(2,3,9)              111.6118         calculate D2E/DX2 analytically  !
 ! A11   A(7,3,8)              107.5063         calculate D2E/DX2 analytically  !
 ! A12   A(7,3,9)              106.9671         calculate D2E/DX2 analytically  !
 ! A13   A(8,3,9)              107.4113         calculate D2E/DX2 analytically  !
 ! A14   A(1,4,10)             110.058          calculate D2E/DX2 analytically  !
 ! A15   A(1,4,11)             112.1161         calculate D2E/DX2 analytically  !
 ! A16   A(1,4,12)             110.674          calculate D2E/DX2 analytically  !
 ! A17   A(10,4,11)            107.973          calculate D2E/DX2 analytically  !
 ! A18   A(10,4,12)            107.5602         calculate D2E/DX2 analytically  !
 ! A19   A(11,4,12)            108.3081         calculate D2E/DX2 analytically  !
 ! D1    D(4,1,2,3)             63.5309         calculate D2E/DX2 analytically  !
 ! D2    D(4,1,2,5)           -174.857          calculate D2E/DX2 analytically  !
 ! D3    D(4,1,2,6)            -60.9117         calculate D2E/DX2 analytically  !
 ! D4    D(2,1,4,10)           123.2052         calculate D2E/DX2 analytically  !
 ! D5    D(2,1,4,11)             3.0091         calculate D2E/DX2 analytically  !
 ! D6    D(2,1,4,12)          -118.0393         calculate D2E/DX2 analytically  !
 ! D7    D(1,2,3,7)            113.9417         calculate D2E/DX2 analytically  !
 ! D8    D(1,2,3,8)             -6.2972         calculate D2E/DX2 analytically  !
 ! D9    D(1,2,3,9)           -126.5498         calculate D2E/DX2 analytically  !
 ! D10   D(5,2,3,7)             -5.8654         calculate D2E/DX2 analytically  !
 ! D11   D(5,2,3,8)           -126.1043         calculate D2E/DX2 analytically  !
 ! D12   D(5,2,3,9)            113.6431         calculate D2E/DX2 analytically  !
 ! D13   D(6,2,3,7)           -121.5074         calculate D2E/DX2 analytically  !
 ! D14   D(6,2,3,8)            118.2537         calculate D2E/DX2 analytically  !
 ! D15   D(6,2,3,9)             -1.9989         calculate D2E/DX2 analytically  !
 --------------------------------------------------------------------------------
 Trust Radius=3.00D-01 FncErr=1.00D-07 GrdErr=1.00D-06 EigMax=2.50D+02 EigMin=1.00D-04
 Number of steps in this run=    100 maximum allowed number of steps=    100.
 GradGradGradGradGradGradGradGradGradGradGradGradGradGradGradGradGradGrad

 Leave Link  103 at Tue Apr  9 01:23:29 2019, MaxMem=   671088640 cpu:               0.1 elap:               0.0
 (Enter /shared/centos7/gaussian/g16/l202.exe)
                          Input orientation:                          
 ---------------------------------------------------------------------
 Center     Atomic      Atomic             Coordinates (Angstroms)
 Number     Number       Type             X           Y           Z
 ---------------------------------------------------------------------
      1          8           0       -0.677442    0.235066   -0.961980
      2          6           0        0.506356    0.688086   -0.430933
      3          6           0        1.299329   -0.341463    0.302632
      4          6           0       -1.577217   -0.187286   -0.010380
      5          1           0        1.106437    1.086807   -1.288780
      6          1           0        0.315789    1.563386    0.234828
      7          1           0        2.263405   -0.563532   -0.220067
      8          1           0        0.746517   -1.290783    0.396290
      9          1           0        1.559345   -0.001709    1.337279
     10          1           0       -2.539511    0.378717   -0.113036
     11          1           0       -1.194019   -0.031752    1.030974
     12          1           0       -1.806577   -1.261690   -0.139383
 ---------------------------------------------------------------------
                    Distance matrix (angstroms):
                    1          2          3          4          5
     1  O    0.000000
     2  C    1.374269   0.000000
     3  C    2.416454   1.492279   0.000000
     4  C    1.376052   2.298786   2.897630   0.000000
     5  H    2.003618   1.120257   2.147034   3.234133   0.000000
     6  H    2.045310   1.116111   2.144854   2.590067   1.781470
     7  H    3.136364   2.167541   1.118916   3.864700   2.281304
     8  H    2.490134   2.158216   1.102533   2.604385   2.936313
     9  H    3.216499   2.170524   1.119614   3.418865   2.878572
    10  H    2.051498   3.077999   3.927866   1.121119   3.895729
    11  H    2.076032   2.355126   2.615949   1.120468   3.453192
    12  H    2.047411   3.039127   3.269380   1.106161   3.914359
                    6          7          8          9         10
     6  H    0.000000
     7  H    2.919576   0.000000
     8  H    2.890999   1.791574   0.000000
     9  H    2.282839   1.799075   1.791050   0.000000
    10  H    3.110818   4.895640   3.720836   4.364488   0.000000
    11  H    2.336201   3.715061   2.398679   2.770513   1.813171
    12  H    3.553242   4.130217   2.608847   3.885552   1.796892
                   11         12
    11  H    0.000000
    12  H    1.804912   0.000000
 Stoichiometry    C3H8O
 Framework group  C1[X(C3H8O)]
 Deg. of freedom    30
 Full point group                 C1      NOp   1
 Largest Abelian subgroup         C1      NOp   1
 Largest concise Abelian subgroup C1      NOp   1
                         Standard orientation:                         
 ---------------------------------------------------------------------
 Center     Atomic      Atomic             Coordinates (Angstroms)
 Number     Number       Type             X           Y           Z
 ---------------------------------------------------------------------
      1          8           0        0.667431   -0.585981   -0.347678
      2          6           0       -0.581800   -0.635086    0.222959
      3          6           0       -1.459153    0.531572   -0.086970
      4          6           0        1.431733    0.467158    0.099826
      5          1           0       -1.061908   -1.577565   -0.146103
      6          1           0       -0.491747   -0.756955    1.328736
      7          1           0       -2.340521    0.227067   -0.705387
      8          1           0       -0.916404    1.312411   -0.644906
      9          1           0       -1.861474    1.004048    0.844931
     10          1           0        2.394193    0.087573    0.531674
     11          1           0        0.908037    1.061767    0.892057
     12          1           0        1.685694    1.147636   -0.734468
 ---------------------------------------------------------------------
 Rotational constants (GHZ):          15.6315838           5.6284361           4.7390322
 Leave Link  202 at Tue Apr  9 01:23:29 2019, MaxMem=   671088640 cpu:               0.1 elap:               0.0
 (Enter /shared/centos7/gaussian/g16/l301.exe)
 Standard basis: 6-311+G(2df,2p) (5D, 7F)
 Ernie: Thresh=  0.10000D-02 Tol=  0.10000D-05 Strict=F.
 There are   228 symmetry adapted cartesian basis functions of A   symmetry.
 There are   208 symmetry adapted basis functions of A   symmetry.
   208 basis functions,   296 primitive gaussians,   228 cartesian basis functions
    17 alpha electrons       17 beta electrons
       nuclear repulsion energy       137.1372326491 Hartrees.
 IExCor= 4336 DFT=T Ex+Corr=M062X ExCW=0 ScaHFX=  0.540000
 ScaDFX=  1.000000  1.000000  1.000000  1.000000 ScalE2=  1.000000  1.000000
 IRadAn=      5 IRanWt=     -1 IRanGd=            0 ICorTp=0 IEmpDi=  4
 NAtoms=   12 NActive=   12 NUniq=   12 SFac= 1.00D+00 NAtFMM=   60 NAOKFM=F Big=F
 Integral buffers will be    131072 words long.
 Raffenetti 2 integral format.
 Two-electron integral symmetry is turned on.
 Leave Link  301 at Tue Apr  9 01:23:29 2019, MaxMem=   671088640 cpu:               0.7 elap:               0.0
 (Enter /shared/centos7/gaussian/g16/l302.exe)
 NPDir=0 NMtPBC=     1 NCelOv=     1 NCel=       1 NClECP=     1 NCelD=      1
         NCelK=      1 NCelE2=     1 NClLst=     1 CellRange=     0.0.
 One-electron integrals computed using PRISM.
 One-electron integral symmetry used in STVInt
 NBasis=   208 RedAO= T EigKep=  7.69D-05  NBF=   208
 NBsUse=   208 1.00D-06 EigRej= -1.00D+00 NBFU=   208
 Precomputing XC quadrature grid using
 IXCGrd= 4 IRadAn=           5 IRanWt=          -1 IRanGd=           0 AccXCQ= 0.00D+00.
 Generated NRdTot=       0 NPtTot=           0 NUsed=           0 NTot=          32
 NSgBfM=   228   228   228   228   228 MxSgAt=    12 MxSgA2=    12.
 Leave Link  302 at Tue Apr  9 01:23:29 2019, MaxMem=   671088640 cpu:               3.6 elap:               0.2
 (Enter /shared/centos7/gaussian/g16/l303.exe)
 DipDrv:  MaxL=1.
 Leave Link  303 at Tue Apr  9 01:23:29 2019, MaxMem=   671088640 cpu:               0.4 elap:               0.0
 (Enter /shared/centos7/gaussian/g16/l401.exe)
 ExpMin= 4.38D-02 ExpMax= 8.59D+03 ExpMxC= 1.30D+03 IAcc=3 IRadAn=         5 AccDes= 0.00D+00
 Harris functional with IExCor= 1009 and IRadAn=       5 diagonalized for initial guess.
 HarFok:  IExCor= 1009 AccDes= 0.00D+00 IRadAn=         5 IDoV= 1 UseB2=F ITyADJ=14
 ICtDFT=  3500011 ScaDFX=  1.000000  1.000000  1.000000  1.000000
 FoFCou: FMM=F IPFlag=           0 FMFlag=      100000 FMFlg1=           0
         NFxFlg=           0 DoJE=T BraDBF=F KetDBF=T FulRan=T
         wScrn=  0.000000 ICntrl=       500 IOpCl=  0 I1Cent=   200000004 NGrid=           0
         NMat0=    1 NMatS0=      1 NMatT0=    0 NMatD0=    1 NMtDS0=    0 NMtDT0=    0
 Petite list used in FoFCou.
 Harris En= -194.249959824663    
 JPrj=0 DoOrth=F DoCkMO=F.
 Leave Link  401 at Tue Apr  9 01:23:30 2019, MaxMem=   671088640 cpu:              13.4 elap:               0.7
 (Enter /shared/centos7/gaussian/g16/l502.exe)
 Keep R1 ints in memory in canonical form, NReq=257412536.
 FoFCou: FMM=F IPFlag=           0 FMFlag=           0 FMFlg1=           0
         NFxFlg=           0 DoJE=F BraDBF=F KetDBF=F FulRan=T
         wScrn=  0.000000 ICntrl=       600 IOpCl=  0 I1Cent=           0 NGrid=           0
         NMat0=    1 NMatS0=  21736 NMatT0=    0 NMatD0=    1 NMtDS0=    0 NMtDT0=    0
 Symmetry not used in FoFCou.
 Two-electron integral symmetry not used.
 Closed shell SCF:
 Using DIIS extrapolation, IDIIS=  1040.
 NGot=   671088640 LenX=   434740204 LenY=   434687779
 Requested convergence on RMS density matrix=1.00D-08 within 128 cycles.
 Requested convergence on MAX density matrix=1.00D-06.
 Requested convergence on             energy=1.00D-06.
 No special actions if energy rises.

 Cycle   1  Pass 1  IDiag  1:
 E= -194.152618351973    
 DIIS: error= 2.20D-02 at cycle   1 NSaved=   1.
 NSaved= 1 IEnMin= 1 EnMin= -194.152618351973     IErMin= 1 ErrMin= 2.20D-02
 ErrMax= 2.20D-02  0.00D+00 EMaxC= 1.00D-01 BMatC= 1.77D-01 BMatP= 1.77D-01
 IDIUse=3 WtCom= 7.80D-01 WtEn= 2.20D-01
 Coeff-Com:  0.100D+01
 Coeff-En:   0.100D+01
 Coeff:      0.100D+01
 Gap=     0.311 Goal=   None    Shift=    0.000
 GapD=    0.311 DampG=1.000 DampE=0.500 DampFc=0.5000 IDamp=-1.
 Damping current iteration by 5.00D-01
 RMSDP=2.55D-03 MaxDP=1.10D-01              OVMax= 1.38D-01

 Cycle   2  Pass 1  IDiag  1:
 E= -194.227849547950     Delta-E=       -0.075231195977 Rises=F Damp=T
 DIIS: error= 5.14D-03 at cycle   2 NSaved=   2.
 NSaved= 2 IEnMin= 2 EnMin= -194.227849547950     IErMin= 2 ErrMin= 5.14D-03
 ErrMax= 5.14D-03  0.00D+00 EMaxC= 1.00D-01 BMatC= 1.20D-02 BMatP= 1.77D-01
 IDIUse=3 WtCom= 9.49D-01 WtEn= 5.14D-02
 Coeff-Com: -0.113D+00 0.111D+01
 Coeff-En:   0.000D+00 0.100D+01
 Coeff:     -0.107D+00 0.111D+01
 Gap=     0.359 Goal=   None    Shift=    0.000
 RMSDP=8.22D-04 MaxDP=3.36D-02 DE=-7.52D-02 OVMax= 7.53D-02

 Cycle   3  Pass 1  IDiag  1:
 E= -194.298008205270     Delta-E=       -0.070158657319 Rises=F Damp=F
 DIIS: error= 3.26D-03 at cycle   3 NSaved=   3.
 NSaved= 3 IEnMin= 3 EnMin= -194.298008205270     IErMin= 3 ErrMin= 3.26D-03
 ErrMax= 3.26D-03  0.00D+00 EMaxC= 1.00D-01 BMatC= 2.26D-03 BMatP= 1.20D-02
 IDIUse=3 WtCom= 9.67D-01 WtEn= 3.26D-02
 Coeff-Com: -0.811D-01 0.310D+00 0.771D+00
 Coeff-En:   0.000D+00 0.000D+00 0.100D+01
 Coeff:     -0.784D-01 0.300D+00 0.778D+00
 Gap=     0.337 Goal=   None    Shift=    0.000
 RMSDP=1.63D-04 MaxDP=8.60D-03 DE=-7.02D-02 OVMax= 1.24D-02

 Cycle   4  Pass 1  IDiag  1:
 E= -194.299376625274     Delta-E=       -0.001368420004 Rises=F Damp=F
 DIIS: error= 1.17D-03 at cycle   4 NSaved=   4.
 NSaved= 4 IEnMin= 4 EnMin= -194.299376625274     IErMin= 4 ErrMin= 1.17D-03
 ErrMax= 1.17D-03  0.00D+00 EMaxC= 1.00D-01 BMatC= 5.05D-04 BMatP= 2.26D-03
 IDIUse=3 WtCom= 9.88D-01 WtEn= 1.17D-02
 Coeff-Com: -0.295D-01 0.811D-01 0.370D+00 0.579D+00
 Coeff-En:   0.000D+00 0.000D+00 0.702D-01 0.930D+00
 Coeff:     -0.292D-01 0.802D-01 0.366D+00 0.583D+00
 Gap=     0.341 Goal=   None    Shift=    0.000
 RMSDP=6.58D-05 MaxDP=3.57D-03 DE=-1.37D-03 OVMax= 4.39D-03

 Cycle   5  Pass 1  IDiag  1:
 E= -194.299713606521     Delta-E=       -0.000336981247 Rises=F Damp=F
 DIIS: error= 3.01D-04 at cycle   5 NSaved=   5.
 NSaved= 5 IEnMin= 5 EnMin= -194.299713606521     IErMin= 5 ErrMin= 3.01D-04
 ErrMax= 3.01D-04  0.00D+00 EMaxC= 1.00D-01 BMatC= 2.01D-05 BMatP= 5.05D-04
 IDIUse=3 WtCom= 9.97D-01 WtEn= 3.01D-03
 Coeff-Com: -0.478D-02 0.788D-02 0.844D-01 0.227D+00 0.685D+00
 Coeff-En:   0.000D+00 0.000D+00 0.000D+00 0.000D+00 0.100D+01
 Coeff:     -0.477D-02 0.786D-02 0.842D-01 0.227D+00 0.686D+00
 Gap=     0.341 Goal=   None    Shift=    0.000
 RMSDP=1.47D-05 MaxDP=5.24D-04 DE=-3.37D-04 OVMax= 6.95D-04

 Cycle   6  Pass 1  IDiag  1:
 E= -194.299727606673     Delta-E=       -0.000014000152 Rises=F Damp=F
 DIIS: error= 3.12D-05 at cycle   6 NSaved=   6.
 NSaved= 6 IEnMin= 6 EnMin= -194.299727606673     IErMin= 6 ErrMin= 3.12D-05
 ErrMax= 3.12D-05  0.00D+00 EMaxC= 1.00D-01 BMatC= 3.44D-07 BMatP= 2.01D-05
 IDIUse=1 WtCom= 1.00D+00 WtEn= 0.00D+00
 Coeff-Com:  0.429D-03-0.177D-02 0.333D-02 0.292D-01 0.142D+00 0.826D+00
 Coeff:      0.429D-03-0.177D-02 0.333D-02 0.292D-01 0.142D+00 0.826D+00
 Gap=     0.341 Goal=   None    Shift=    0.000
 RMSDP=3.39D-06 MaxDP=1.20D-04 DE=-1.40D-05 OVMax= 1.56D-04

 Cycle   7  Pass 1  IDiag  1:
 E= -194.299727907360     Delta-E=       -0.000000300687 Rises=F Damp=F
 DIIS: error= 1.74D-05 at cycle   7 NSaved=   7.
 NSaved= 7 IEnMin= 7 EnMin= -194.299727907360     IErMin= 7 ErrMin= 1.74D-05
 ErrMax= 1.74D-05  0.00D+00 EMaxC= 1.00D-01 BMatC= 6.62D-08 BMatP= 3.44D-07
 IDIUse=1 WtCom= 1.00D+00 WtEn= 0.00D+00
 Coeff-Com:  0.670D-03-0.150D-02-0.750D-02-0.115D-01-0.195D-01 0.307D+00
 Coeff-Com:  0.732D+00
 Coeff:      0.670D-03-0.150D-02-0.750D-02-0.115D-01-0.195D-01 0.307D+00
 Coeff:      0.732D+00
 Gap=     0.341 Goal=   None    Shift=    0.000
 RMSDP=1.26D-06 MaxDP=6.04D-05 DE=-3.01D-07 OVMax= 5.18D-05

 Cycle   8  Pass 1  IDiag  1:
 E= -194.299727966702     Delta-E=       -0.000000059342 Rises=F Damp=F
 DIIS: error= 2.56D-06 at cycle   8 NSaved=   8.
 NSaved= 8 IEnMin= 8 EnMin= -194.299727966702     IErMin= 8 ErrMin= 2.56D-06
 ErrMax= 2.56D-06  0.00D+00 EMaxC= 1.00D-01 BMatC= 2.22D-09 BMatP= 6.62D-08
 IDIUse=1 WtCom= 1.00D+00 WtEn= 0.00D+00
 Coeff-Com:  0.135D-03-0.276D-03-0.218D-02-0.457D-02-0.140D-01 0.318D-01
 Coeff-Com:  0.191D+00 0.798D+00
 Coeff:      0.135D-03-0.276D-03-0.218D-02-0.457D-02-0.140D-01 0.318D-01
 Coeff:      0.191D+00 0.798D+00
 Gap=     0.341 Goal=   None    Shift=    0.000
 RMSDP=2.59D-07 MaxDP=6.53D-06 DE=-5.93D-08 OVMax= 1.33D-05

 Cycle   9  Pass 1  IDiag  1:
 E= -194.299727969066     Delta-E=       -0.000000002364 Rises=F Damp=F
 DIIS: error= 5.51D-07 at cycle   9 NSaved=   9.
 NSaved= 9 IEnMin= 9 EnMin= -194.299727969066     IErMin= 9 ErrMin= 5.51D-07
 ErrMax= 5.51D-07  0.00D+00 EMaxC= 1.00D-01 BMatC= 5.49D-11 BMatP= 2.22D-09
 IDIUse=1 WtCom= 1.00D+00 WtEn= 0.00D+00
 Coeff-Com: -0.221D-04 0.470D-04 0.130D-03 0.117D-03-0.314D-04-0.100D-01
 Coeff-Com: -0.167D-01 0.858D-01 0.941D+00
 Coeff:     -0.221D-04 0.470D-04 0.130D-03 0.117D-03-0.314D-04-0.100D-01
 Coeff:     -0.167D-01 0.858D-01 0.941D+00
 Gap=     0.341 Goal=   None    Shift=    0.000
 RMSDP=6.57D-08 MaxDP=1.50D-06 DE=-2.36D-09 OVMax= 3.01D-06

 Cycle  10  Pass 1  IDiag  1:
 E= -194.299727969134     Delta-E=       -0.000000000068 Rises=F Damp=F
 DIIS: error= 9.61D-08 at cycle  10 NSaved=  10.
 NSaved=10 IEnMin=10 EnMin= -194.299727969134     IErMin=10 ErrMin= 9.61D-08
 ErrMax= 9.61D-08  0.00D+00 EMaxC= 1.00D-01 BMatC= 3.24D-12 BMatP= 5.49D-11
 IDIUse=1 WtCom= 1.00D+00 WtEn= 0.00D+00
 Coeff-Com: -0.813D-05 0.174D-04 0.843D-04 0.129D-03 0.341D-03-0.334D-02
 Coeff-Com: -0.907D-02-0.302D-02 0.214D+00 0.801D+00
 Coeff:     -0.813D-05 0.174D-04 0.843D-04 0.129D-03 0.341D-03-0.334D-02
 Coeff:     -0.907D-02-0.302D-02 0.214D+00 0.801D+00
 Gap=     0.341 Goal=   None    Shift=    0.000
 RMSDP=1.15D-08 MaxDP=3.42D-07 DE=-6.76D-11 OVMax= 7.52D-07

 Cycle  11  Pass 1  IDiag  1:
 E= -194.299727969135     Delta-E=       -0.000000000000 Rises=F Damp=F
 DIIS: error= 4.00D-08 at cycle  11 NSaved=  11.
 NSaved=11 IEnMin=11 EnMin= -194.299727969135     IErMin=11 ErrMin= 4.00D-08
 ErrMax= 4.00D-08  0.00D+00 EMaxC= 1.00D-01 BMatC= 5.32D-13 BMatP= 3.24D-12
 IDIUse=1 WtCom= 1.00D+00 WtEn= 0.00D+00
 Coeff-Com: -0.375D-06 0.112D-05 0.142D-04 0.266D-04 0.104D-03-0.209D-03
 Coeff-Com: -0.151D-02-0.827D-02-0.102D-01 0.277D+00 0.743D+00
 Coeff:     -0.375D-06 0.112D-05 0.142D-04 0.266D-04 0.104D-03-0.209D-03
 Coeff:     -0.151D-02-0.827D-02-0.102D-01 0.277D+00 0.743D+00
 Gap=     0.341 Goal=   None    Shift=    0.000
 RMSDP=3.41D-09 MaxDP=1.64D-07 DE=-4.55D-13 OVMax= 2.32D-07

 SCF Done:  E(RM062X) =  -194.299727969     A.U. after   11 cycles
            NFock= 11  Conv=0.34D-08     -V/T= 2.0040
 KE= 1.935243181332D+02 PE=-7.274467211991D+02 EE= 2.024854424477D+02
 Leave Link  502 at Tue Apr  9 01:23:44 2019, MaxMem=   671088640 cpu:             206.5 elap:              14.0
 (Enter /shared/centos7/gaussian/g16/l801.exe)
 DoSCS=F DFT=T ScalE2(SS,OS)=  1.000000  1.000000
 Range of M.O.s used for correlation:     1   208
 NBasis=   208 NAE=    17 NBE=    17 NFC=     0 NFV=     0
 NROrb=    208 NOA=    17 NOB=    17 NVA=   191 NVB=   191

 **** Warning!!: The largest alpha MO coefficient is  0.35168711D+02

 Leave Link  801 at Tue Apr  9 01:23:44 2019, MaxMem=   671088640 cpu:               0.6 elap:               0.0
 (Enter /shared/centos7/gaussian/g16/l1101.exe)
 Using compressed storage, NAtomX=    12.
 Will process     13 centers per pass.
 Leave Link 1101 at Tue Apr  9 01:23:44 2019, MaxMem=   671088640 cpu:               4.7 elap:               0.3
 (Enter /shared/centos7/gaussian/g16/l1102.exe)
 Symmetrizing basis deriv contribution to polar:
 IMax=3 JMax=2 DiffMx= 0.00D+00
 Leave Link 1102 at Tue Apr  9 01:23:44 2019, MaxMem=   671088640 cpu:               0.7 elap:               0.1
 (Enter /shared/centos7/gaussian/g16/l1110.exe)
 Forming Gx(P) for the SCF density, NAtomX=    12.
 Integral derivatives from FoFJK, PRISM(SPDF).
 Do as many integral derivatives as possible in FoFJK.
 G2DrvN: MDV=     671087640.
 G2DrvN: will do    13 centers at a time, making    1 passes.
 Calling FoFCou, ICntrl=  3107 FMM=F I1Cent=   0 AccDes= 0.00D+00.
 FoFJK:  IHMeth= 1 ICntrl=    3107 DoSepK=F KAlg= 0 I1Cent=           0 FoldK=F
 IRaf=         0 NMat=       1 IRICut=       1 DoRegI=T DoRafI=F ISym2E= 0 IDoP0=0 IntGTp=1.
 FoFCou: FMM=F IPFlag=           0 FMFlag=      100000 FMFlg1=           0
         NFxFlg=           0 DoJE=F BraDBF=F KetDBF=F FulRan=T
         wScrn=  0.000000 ICntrl=      3107 IOpCl=  0 I1Cent=           0 NGrid=           0
         NMat0=    1 NMatS0=      1 NMatT0=    0 NMatD0=    1 NMtDS0=    0 NMtDT0=    0
 Symmetry not used in FoFCou.
 End of G2Drv F.D. properties file   721 does not exist.
 End of G2Drv F.D. properties file   722 does not exist.
 End of G2Drv F.D. properties file   788 does not exist.
 Leave Link 1110 at Tue Apr  9 01:24:13 2019, MaxMem=   671088640 cpu:             572.4 elap:              28.6
 (Enter /shared/centos7/gaussian/g16/l1002.exe)
 Minotr:  Closed shell wavefunction.
          IDoAtm=111111111111
          Direct CPHF calculation.
          Differentiating once with respect to nuclear coordinates.
          Requested convergence is 1.0D-08 RMS, and 1.0D-07 maximum.
          Secondary convergence is 1.0D-12 RMS, and 1.0D-12 maximum.
          NewPWx=T KeepS1=F KeepF1=F KeepIn=T MapXYZ=F SortEE=F KeepMc=T.
         3640 words used for storage of precomputed grid.
 Keep R1 ints in memory in canonical form, NReq=257354618.
 FoFCou: FMM=F IPFlag=           0 FMFlag=           0 FMFlg1=           0
         NFxFlg=           0 DoJE=F BraDBF=F KetDBF=F FulRan=T
         wScrn=  0.000000 ICntrl=       600 IOpCl=  0 I1Cent=           0 NGrid=           0
         NMat0=    1 NMatS0=  21736 NMatT0=    0 NMatD0=    1 NMtDS0=    0 NMtDT0=    0
 Symmetry not used in FoFCou.
 Two-electron integral symmetry not used.
          MDV=     671088640 using IRadAn=       1.
          Solving linear equations simultaneously, MaxMat=       0.
          There are    39 degrees of freedom in the 1st order CPHF.  IDoFFX=6 NUNeed=     0.
     33 vectors produced by pass  0 Test12= 8.33D-15 2.56D-09 XBig12= 6.78D-02 5.21D-02.
 AX will form    33 AO Fock derivatives at one time.
     33 vectors produced by pass  1 Test12= 8.33D-15 2.56D-09 XBig12= 2.69D-03 9.18D-03.
     33 vectors produced by pass  2 Test12= 8.33D-15 2.56D-09 XBig12= 6.67D-05 1.52D-03.
     33 vectors produced by pass  3 Test12= 8.33D-15 2.56D-09 XBig12= 5.33D-07 1.19D-04.
     33 vectors produced by pass  4 Test12= 8.33D-15 2.56D-09 XBig12= 2.69D-09 6.52D-06.
     33 vectors produced by pass  5 Test12= 8.33D-15 2.56D-09 XBig12= 1.35D-11 4.14D-07.
     14 vectors produced by pass  6 Test12= 8.33D-15 2.56D-09 XBig12= 5.30D-14 2.61D-08.
 InvSVY:  IOpt=1 It=  1 EMax= 1.11D-15
 Solved reduced A of dimension   212 with    33 vectors.
 End of Minotr F.D. properties file   721 does not exist.
 End of Minotr F.D. properties file   722 does not exist.
 End of Minotr F.D. properties file   788 does not exist.
 Leave Link 1002 at Tue Apr  9 01:24:51 2019, MaxMem=   671088640 cpu:             759.6 elap:              38.0
 (Enter /shared/centos7/gaussian/g16/l601.exe)
 Copying SCF densities to generalized density rwf, IOpCl= 0 IROHF=0.

 **********************************************************************

            Population analysis using the SCF density.

 **********************************************************************

 Orbital symmetries:
       Occupied  (A) (A) (A) (A) (A) (A) (A) (A) (A) (A) (A) (A)
                 (A) (A) (A) (A) (A)
       Virtual   (A) (A) (A) (A) (A) (A) (A) (A) (A) (A) (A) (A)
                 (A) (A) (A) (A) (A) (A) (A) (A) (A) (A) (A) (A)
                 (A) (A) (A) (A) (A) (A) (A) (A) (A) (A) (A) (A)
                 (A) (A) (A) (A) (A) (A) (A) (A) (A) (A) (A) (A)
                 (A) (A) (A) (A) (A) (A) (A) (A) (A) (A) (A) (A)
                 (A) (A) (A) (A) (A) (A) (A) (A) (A) (A) (A) (A)
                 (A) (A) (A) (A) (A) (A) (A) (A) (A) (A) (A) (A)
                 (A) (A) (A) (A) (A) (A) (A) (A) (A) (A) (A) (A)
                 (A) (A) (A) (A) (A) (A) (A) (A) (A) (A) (A) (A)
                 (A) (A) (A) (A) (A) (A) (A) (A) (A) (A) (A) (A)
                 (A) (A) (A) (A) (A) (A) (A) (A) (A) (A) (A) (A)
                 (A) (A) (A) (A) (A) (A) (A) (A) (A) (A) (A) (A)
                 (A) (A) (A) (A) (A) (A) (A) (A) (A) (A) (A) (A)
                 (A) (A) (A) (A) (A) (A) (A) (A) (A) (A) (A) (A)
                 (A) (A) (A) (A) (A) (A) (A) (A) (A) (A) (A) (A)
                 (A) (A) (A) (A) (A) (A) (A) (A) (A) (A) (A)
 The electronic state is 1-A.
 Alpha  occ. eigenvalues --  -19.62129 -10.58087 -10.57924 -10.52921  -1.17832
 Alpha  occ. eigenvalues --   -0.85909  -0.78189  -0.67803  -0.57063  -0.56611
 Alpha  occ. eigenvalues --   -0.53425  -0.47955  -0.45383  -0.43963  -0.41398
 Alpha  occ. eigenvalues --   -0.37362  -0.32449
 Alpha virt. eigenvalues --    0.01616   0.03374   0.03441   0.04313   0.06269
 Alpha virt. eigenvalues --    0.07069   0.07285   0.08006   0.08524   0.10375
 Alpha virt. eigenvalues --    0.11626   0.13444   0.14536   0.18316   0.19861
 Alpha virt. eigenvalues --    0.22229   0.22920   0.24342   0.24955   0.25686
 Alpha virt. eigenvalues --    0.26251   0.27767   0.31294   0.31555   0.32743
 Alpha virt. eigenvalues --    0.33746   0.36720   0.42397   0.43377   0.45409
 Alpha virt. eigenvalues --    0.46505   0.47851   0.48270   0.51751   0.54755
 Alpha virt. eigenvalues --    0.56254   0.56895   0.57790   0.58430   0.60449
 Alpha virt. eigenvalues --    0.61558   0.62429   0.64252   0.65532   0.67741
 Alpha virt. eigenvalues --    0.68869   0.70162   0.76697   0.81649   0.86178
 Alpha virt. eigenvalues --    0.88652   0.91994   0.95008   0.97550   1.00364
 Alpha virt. eigenvalues --    1.02445   1.04222   1.04913   1.07994   1.08884
 Alpha virt. eigenvalues --    1.11931   1.12943   1.15167   1.17763   1.18487
 Alpha virt. eigenvalues --    1.19432   1.22341   1.25619   1.26822   1.28198
 Alpha virt. eigenvalues --    1.29858   1.30869   1.33383   1.36162   1.36529
 Alpha virt. eigenvalues --    1.40931   1.41474   1.42007   1.44293   1.45554
 Alpha virt. eigenvalues --    1.46521   1.48276   1.52175   1.52586   1.54843
 Alpha virt. eigenvalues --    1.57761   1.58021   1.60642   1.65340   1.78686
 Alpha virt. eigenvalues --    2.03112   2.11117   2.13092   2.23125   2.33052
 Alpha virt. eigenvalues --    2.41670   2.47901   2.49814   2.52043   2.54927
 Alpha virt. eigenvalues --    2.68717   2.71801   2.72818   2.79259   2.87370
 Alpha virt. eigenvalues --    2.92665   2.96438   2.97907   3.02881   3.08334
 Alpha virt. eigenvalues --    3.09462   3.11636   3.13090   3.13750   3.14569
 Alpha virt. eigenvalues --    3.18950   3.20950   3.23969   3.24941   3.30776
 Alpha virt. eigenvalues --    3.33612   3.34934   3.37615   3.39037   3.41823
 Alpha virt. eigenvalues --    3.42982   3.45466   3.53662   3.57806   3.59727
 Alpha virt. eigenvalues --    3.61917   3.69151   3.71404   3.74147   3.75160
 Alpha virt. eigenvalues --    3.78292   3.82634   3.84809   3.85220   3.89051
 Alpha virt. eigenvalues --    3.92093   3.94170   3.97699   4.00716   4.05815
 Alpha virt. eigenvalues --    4.12323   4.12891   4.14908   4.17829   4.20370
 Alpha virt. eigenvalues --    4.23171   4.25589   4.28285   4.31704   4.32929
 Alpha virt. eigenvalues --    4.34492   4.38108   4.39099   4.42395   4.44764
 Alpha virt. eigenvalues --    4.48033   4.61280   4.65591   4.66212   4.90811
 Alpha virt. eigenvalues --    4.97559   5.21627   5.27543   5.33544   5.38034
 Alpha virt. eigenvalues --    5.46513   5.48693   5.52985   5.53617   5.55737
 Alpha virt. eigenvalues --    5.59595   5.70696   5.88378   6.01204   6.24742
 Alpha virt. eigenvalues --    6.51238   6.81888   7.18335   7.25659   7.36816
 Alpha virt. eigenvalues --    7.67035   7.75751  24.23749  24.41995  24.52205
 Alpha virt. eigenvalues --   50.21753
          Condensed to atoms (all electrons):
               1          2          3          4          5          6
     1  O    8.267353   0.108203  -0.069183   0.092868  -0.065887  -0.038621
     2  C    0.108203   5.333231   0.060060  -0.089187   0.456345   0.478403
     3  C   -0.069183   0.060060   5.248800   0.011291  -0.044225  -0.090086
     4  C    0.092868  -0.089187   0.011291   5.004754   0.008278  -0.007346
     5  H   -0.065887   0.456345  -0.044225   0.008278   0.554882  -0.031505
     6  H   -0.038621   0.478403  -0.090086  -0.007346  -0.031505   0.554326
     7  H    0.001770  -0.029348   0.410456   0.000360  -0.014798   0.006582
     8  H   -0.008101  -0.040780   0.407809   0.011730   0.003918   0.003394
     9  H    0.008006  -0.048602   0.427786  -0.006026   0.005792  -0.012935
    10  H   -0.067445   0.003864   0.000937   0.435260  -0.000083   0.003254
    11  H   -0.034827   0.006737   0.002490   0.398694  -0.000055  -0.000299
    12  H   -0.060466   0.002943  -0.004627   0.443420  -0.000370  -0.001591
               7          8          9         10         11         12
     1  O    0.001770  -0.008101   0.008006  -0.067445  -0.034827  -0.060466
     2  C   -0.029348  -0.040780  -0.048602   0.003864   0.006737   0.002943
     3  C    0.410456   0.407809   0.427786   0.000937   0.002490  -0.004627
     4  C    0.000360   0.011730  -0.006026   0.435260   0.398694   0.443420
     5  H   -0.014798   0.003918   0.005792  -0.000083  -0.000055  -0.000370
     6  H    0.006582   0.003394  -0.012935   0.003254  -0.000299  -0.001591
     7  H    0.547027  -0.024442  -0.027323  -0.000013   0.000359   0.000097
     8  H   -0.024442   0.545184  -0.032607   0.000237  -0.006031  -0.002670
     9  H   -0.027323  -0.032607   0.553198   0.000122  -0.002177   0.000139
    10  H   -0.000013   0.000237   0.000122   0.566555  -0.028754  -0.034647
    11  H    0.000359  -0.006031  -0.002177  -0.028754   0.590467  -0.038897
    12  H    0.000097  -0.002670   0.000139  -0.034647  -0.038897   0.558921
 Mulliken charges:
               1
     1  O   -0.133669
     2  C   -0.241870
     3  C   -0.361509
     4  C   -0.304097
     5  H    0.127707
     6  H    0.136425
     7  H    0.129273
     8  H    0.142359
     9  H    0.134628
    10  H    0.120713
    11  H    0.112293
    12  H    0.137748
 Sum of Mulliken charges =  -0.00000
 Mulliken charges with hydrogens summed into heavy atoms:
               1
     1  O   -0.133669
     2  C    0.022261
     3  C    0.044751
     4  C    0.066657
 APT charges:
               1
     1  O   -0.073625
     2  C   -0.688627
     3  C   -1.089450
     4  C   -1.092664
     5  H    0.419484
     6  H    0.339275
     7  H    0.444644
     8  H    0.266044
     9  H    0.383284
    10  H    0.452721
    11  H    0.249653
    12  H    0.389261
 Sum of APT charges =  -0.00000
 APT charges with hydrogens summed into heavy atoms:
               1
     1  O   -0.073625
     2  C    0.070132
     3  C    0.004522
     4  C   -0.001030
 Electronic spatial extent (au):  <R**2>=            324.4669
 Charge=             -0.0000 electrons
 Dipole moment (field-independent basis, Debye):
    X=             -0.5421    Y=              0.9460    Z=              0.8035  Tot=              1.3544
 Quadrupole moment (field-independent basis, Debye-Ang):
   XX=            -25.7820   YY=            -27.4298   ZZ=            -27.3399
   XY=              1.9056   XZ=              0.6657   YZ=             -0.6162
 Traceless Quadrupole moment (field-independent basis, Debye-Ang):
   XX=              1.0686   YY=             -0.5792   ZZ=             -0.4893
   XY=              1.9056   XZ=              0.6657   YZ=             -0.6162
 Octapole moment (field-independent basis, Debye-Ang**2):
  XXX=              5.3126  YYY=             -2.6235  ZZZ=             -0.5473  XYY=             -0.2493
  XXY=             -0.9001  XXZ=             -0.5846  XZZ=              0.2721  YZZ=              0.2176
  YYZ=             -0.6824  XYZ=             -1.6130
 Hexadecapole moment (field-independent basis, Debye-Ang**3):
 XXXX=           -273.5467 YYYY=           -107.2106 ZZZZ=            -58.9991 XXXY=              0.7976
 XXXZ=              2.4593 YYYX=              2.2899 YYYZ=              0.6907 ZZZX=             -2.1725
 ZZZY=              0.2471 XXYY=            -65.7027 XXZZ=            -55.3898 YYZZ=            -26.7941
 XXYZ=              0.4336 YYXZ=             -0.1970 ZZXY=              0.0860
 N-N= 1.371372326491D+02 E-N=-7.274467195382D+02  KE= 1.935243181332D+02
  Exact polarizability:   0.000   0.000   0.000   0.000   0.000   0.000
 Approx polarizability:  50.044   1.546  47.234  -0.520   0.317  48.214
 No NMR shielding tensors so no spin-rotation constants.
 Leave Link  601 at Tue Apr  9 01:24:51 2019, MaxMem=   671088640 cpu:               3.2 elap:               0.2
 (Enter /shared/centos7/gaussian/g16/l701.exe)
 SCFChk:  SCF convergence  3.41D-09 required  1.00D-08
 ... and contract with generalized density number  0.
 Compute integral second derivatives.
 Entering OneElI...
 Calculate overlap and kinetic energy integrals
    NBasis = 228  MinDer = 2  MaxDer = 2
 Requested accuracy = 0.1000D-12
 PrmmSu-InSpLW:  IPartL=    0 NPrtUS=   20 NPrtUL=    1 DoSpLW=F IThBeg=    0 IThEnd=   19 NThAct=   20.
 PrsmSu:  NPrtUS=  20 ThrOK=T IAlg=1 NPAlg=1 LenDen=           0 ISkipM=0 DoSpLW=F IThBeg=    0 IThEnd=   19.
 Prism:   IPart=     0 DynPar=F LinDyn=F Incr=           1.
 PRISM was handed    33484117 working-precision words and  2628 shell-pairs
 PRISM was handed    33484117 working-precision words and  2628 shell-pairs
 PRISM was handed    33484117 working-precision words and  2628 shell-pairs
 PRISM was handed    33484117 working-precision words and  2628 shell-pairs
 PRISM was handed    33484117 working-precision words and  2628 shell-pairs
 PRISM was handed    33484117 working-precision words and  2628 shell-pairs
 PRISM was handed    33484117 working-precision words and  2628 shell-pairs
 PRISM was handed    33484117 working-precision words and  2628 shell-pairs
 PRISM was handed    33484117 working-precision words and  2628 shell-pairs
 PRISM was handed    33484117 working-precision words and  2628 shell-pairs
 PRISM was handed    33484117 working-precision words and  2628 shell-pairs
 PRISM was handed    33484117 working-precision words and  2628 shell-pairs
 PRISM was handed    33484117 working-precision words and  2628 shell-pairs
 PRISM was handed    33484117 working-precision words and  2628 shell-pairs
 PRISM was handed    33484117 working-precision words and  2628 shell-pairs
 PRISM was handed    33484117 working-precision words and  2628 shell-pairs
 PRISM was handed    33484117 working-precision words and  2628 shell-pairs
 PRISM was handed    33484117 working-precision words and  2628 shell-pairs
 PRISM was handed    33484117 working-precision words and  2628 shell-pairs
 PRISM was handed    33484117 working-precision words and  2628 shell-pairs
 IPart= 16 NShTot=         113 NBatch=          26 AvBLen=         4.3
 IPart=  0 NShTot=         160 NBatch=          51 AvBLen=         3.1
 IPart= 17 NShTot=         112 NBatch=          26 AvBLen=         4.3
 IPart= 18 NShTot=         111 NBatch=          26 AvBLen=         4.3
 IPart=  5 NShTot=         141 NBatch=          38 AvBLen=         3.7
 IPart=  6 NShTot=         140 NBatch=          37 AvBLen=         3.8
 IPart=  3 NShTot=         150 NBatch=          43 AvBLen=         3.5
 IPart=  1 NShTot=         159 NBatch=          50 AvBLen=         3.2
 IPart=  7 NShTot=         139 NBatch=          36 AvBLen=         3.9
 IPart= 19 NShTot=         111 NBatch=          26 AvBLen=         4.3
 IPart=  8 NShTot=         133 NBatch=          35 AvBLen=         3.8
 IPart= 11 NShTot=         128 NBatch=          30 AvBLen=         4.3
 IPart= 10 NShTot=         128 NBatch=          30 AvBLen=         4.3
 IPart= 12 NShTot=         122 NBatch=          30 AvBLen=         4.1
 IPart=  4 NShTot=         142 NBatch=          39 AvBLen=         3.6
 IPart=  2 NShTot=         151 NBatch=          44 AvBLen=         3.4
 IPart=  9 NShTot=         130 NBatch=          32 AvBLen=         4.1
 IPart= 15 NShTot=         119 NBatch=          29 AvBLen=         4.1
 IPart= 13 NShTot=         120 NBatch=          30 AvBLen=         4.0
 IPart= 14 NShTot=         119 NBatch=          29 AvBLen=         4.1
 PrSmSu:  NxtVal=             21.
 Entering OneElI...
 Calculate potential energy integrals
    NBasis = 228  MinDer = 2  MaxDer = 2
 Requested accuracy = 0.1000D-12
 PrmmSu-InSpLW:  IPartL=    0 NPrtUS=   20 NPrtUL=    1 DoSpLW=F IThBeg=    0 IThEnd=   19 NThAct=   20.
 PrsmSu:  NPrtUS=  20 ThrOK=T IAlg=1 NPAlg=1 LenDen=           0 ISkipM=0 DoSpLW=F IThBeg=    0 IThEnd=   19.
 Prism:   IPart=     0 DynPar=F LinDyn=F Incr=          15.
 PRISM was handed    33492092 working-precision words and  2562 shell-pairs
 PRISM was handed    33492092 working-precision words and  2562 shell-pairs
 PRISM was handed    33492092 working-precision words and  2562 shell-pairs
 PRISM was handed    33492092 working-precision words and  2562 shell-pairs
 PRISM was handed    33492092 working-precision words and  2562 shell-pairs
 PRISM was handed    33492092 working-precision words and  2562 shell-pairs
 PRISM was handed    33492092 working-precision words and  2562 shell-pairs
 PRISM was handed    33492092 working-precision words and  2562 shell-pairs
 PRISM was handed    33492092 working-precision words and  2562 shell-pairs
 PRISM was handed    33492092 working-precision words and  2562 shell-pairs
 PRISM was handed    33492092 working-precision words and  2562 shell-pairs
 PRISM was handed    33492092 working-precision words and  2562 shell-pairs
 PRISM was handed    33492092 working-precision words and  2562 shell-pairs
 PRISM was handed    33492092 working-precision words and  2562 shell-pairs
 PRISM was handed    33492092 working-precision words and  2562 shell-pairs
 PRISM was handed    33492092 working-precision words and  2562 shell-pairs
 PRISM was handed    33492092 working-precision words and  2562 shell-pairs
 PRISM was handed    33492092 working-precision words and  2562 shell-pairs
 PRISM was handed    33492092 working-precision words and  2562 shell-pairs
 PRISM was handed    33492092 working-precision words and  2562 shell-pairs
 IPart= 16 NShTot=        1332 NBatch=         111 AvBLen=        12.0
 IPart= 18 NShTot=        1308 NBatch=         109 AvBLen=        12.0
 IPart= 17 NShTot=        1320 NBatch=         110 AvBLen=        12.0
 IPart=  0 NShTot=        1908 NBatch=         159 AvBLen=        12.0
 IPart=  5 NShTot=        1656 NBatch=         138 AvBLen=        12.0
 IPart= 12 NShTot=        1428 NBatch=         119 AvBLen=        12.0
 IPart=  9 NShTot=        1524 NBatch=         127 AvBLen=        12.0
 IPart=  3 NShTot=        1752 NBatch=         146 AvBLen=        12.0
 IPart= 13 NShTot=        1416 NBatch=         118 AvBLen=        12.0
 IPart=  2 NShTot=        1788 NBatch=         149 AvBLen=        12.0
 IPart=  7 NShTot=        1620 NBatch=         135 AvBLen=        12.0
 IPart=  8 NShTot=        1548 NBatch=         129 AvBLen=        12.0
 IPart=  4 NShTot=        1668 NBatch=         139 AvBLen=        12.0
 IPart= 14 NShTot=        1392 NBatch=         116 AvBLen=        12.0
 IPart=  6 NShTot=        1620 NBatch=         135 AvBLen=        12.0
 IPart= 11 NShTot=        1464 NBatch=         122 AvBLen=        12.0
 IPart= 10 NShTot=        1476 NBatch=         123 AvBLen=        12.0
 IPart= 15 NShTot=        1392 NBatch=         116 AvBLen=        12.0
 IPart= 19 NShTot=        1308 NBatch=         109 AvBLen=        12.0
 IPart=  1 NShTot=        1824 NBatch=         152 AvBLen=        12.0
 PrSmSu:  NxtVal=            301.
 Polarizability after L701:
                1             2             3 
      1  0.000000D+00
      2  0.000000D+00  0.000000D+00
      3  0.000000D+00  0.000000D+00  0.000000D+00
 Dipole Derivatives after L701:
                 1             2             3             4             5 
      1   0.609420D-01  0.359724D+00  0.146566D+00 -0.326078D+00 -0.816021D+00
      2   0.260588D+00 -0.118744D+00 -0.110934D+00 -0.627253D+00 -0.798173D+00
      3   0.190446D-01 -0.465036D-01 -0.163072D+00  0.466280D-01  0.104669D+00
                 6             7             8             9            10 
      1   0.196295D+00 -0.149361D+01  0.746399D+00 -0.252250D+00 -0.148390D+01
      2   0.225756D+00  0.847071D-01 -0.923047D+00 -0.975447D-01 -0.501515D-01
      3  -0.941630D+00 -0.286073D-01 -0.146675D+00 -0.851697D+00 -0.550101D-02
                11            12            13            14            15 
      1  -0.635554D+00 -0.229231D+00  0.395178D+00  0.357624D+00  0.157760D+00
      2  -0.928890D+00  0.577992D-01  0.314974D+00  0.696542D+00  0.246060D+00
      3   0.763630D-01 -0.865203D+00  0.240054D-01  0.501531D-01  0.166731D+00
                16            17            18            19            20 
      1   0.167143D+00 -0.883317D-02 -0.181757D+00  0.935457D+00  0.290882D+00
      2  -0.654476D-02  0.179701D+00 -0.308138D+00 -0.743312D-01  0.123815D+00
      3  -0.815457D-02 -0.315795D-01  0.670982D+00  0.255434D+00  0.110831D+00
                21            22            23            24            25 
      1   0.576536D+00 -0.885515D-03 -0.268895D+00  0.144293D+00  0.392200D+00
      2  -0.312644D-01  0.280615D+00  0.529485D+00 -0.264727D+00 -0.154683D+00
      3   0.274659D+00 -0.151090D+00 -0.225175D+00  0.269533D+00 -0.120384D+00
                26            27            28            29            30 
      1  -0.363607D+00 -0.649804D+00  0.101489D+01 -0.363282D+00  0.383952D+00
      2   0.289800D+00  0.342409D+00  0.392535D-01  0.165307D+00  0.119968D-01
      3   0.149993D+00  0.467853D+00  0.207801D+00 -0.841532D-01  0.177965D+00
                31            32            33            34            35 
      1   0.196377D-01  0.242332D+00  0.225174D+00  0.319022D+00  0.459231D+00
      2  -0.195188D+00  0.354905D+00  0.279832D+00  0.128013D+00  0.429299D+00
      3  -0.196282D+00  0.213091D+00  0.374416D+00 -0.428947D-01 -0.171014D+00
                36 
      1  -0.517534D+00
      2  -0.351245D+00
      3   0.419461D+00
 Hessian after L701:
                1             2             3             4             5 
      1  0.405567D+01
      2 -0.284713D+01  0.928224D+01
      3  0.123668D+01 -0.130643D+01  0.116067D+02
      4 -0.762264D+00  0.623709D+00 -0.260505D+01  0.100359D+02
      5  0.514879D+00 -0.693788D+01 -0.277024D-02 -0.141872D+00  0.148321D+02
      6 -0.252538D+01 -0.580565D-01 -0.583136D+01  0.178902D+01  0.256707D+00
      7  0.608079D+00 -0.594473D+00  0.147737D+00 -0.311702D+01 -0.202491D+01
      8 -0.497058D+00  0.757800D-01 -0.883696D-01 -0.204164D+01 -0.265329D+01
      9  0.172738D-01 -0.271128D-01 -0.368873D+00  0.477549D+00 -0.403867D+00
     10 -0.410124D+01  0.329958D+01  0.125513D+01  0.188980D+00  0.331674D+00
     11  0.329032D+01 -0.271397D+01  0.161267D+01  0.277082D+00  0.231294D-01
     12  0.125261D+01  0.162684D+01 -0.627541D+01  0.469158D-02  0.474255D-01
     13 -0.532636D-01  0.578956D-01  0.993555D-01 -0.291402D+01  0.109247D+01
     14  0.743604D-01  0.216789D+00  0.701069D-01  0.109478D+01 -0.171063D+01
     15  0.125001D+00  0.814111D-01  0.554616D-01  0.323689D+00  0.560166D+00
     16 -0.112339D+00  0.394901D-01  0.518988D-01 -0.366578D+01  0.572812D-03
     17  0.184221D-01  0.293788D-01 -0.690286D-01 -0.134559D-02 -0.354954D+01
     18  0.298712D-01 -0.971800D-01  0.310092D+00 -0.338068D-01 -0.454859D+00
     19  0.107121D+00 -0.341684D-01  0.206550D-01  0.339696D-01  0.294204D-01
     20 -0.130622D-01 -0.300690D-01  0.680903D-03  0.490056D-01  0.185537D-02
     21  0.339771D-01 -0.633147D-02 -0.326784D-01  0.630764D-01  0.210468D-02
     22 -0.146861D-01 -0.956807D-02 -0.186306D-02  0.509542D-01  0.466844D-01
     23 -0.796781D-01  0.372458D-01 -0.170970D-01 -0.323678D-01  0.136079D-01
     24  0.219710D-01 -0.257283D-01 -0.327781D-01  0.669534D-02  0.161332D-01
     25  0.687262D-01 -0.621075D-01 -0.655889D-01 -0.325569D-02  0.587331D-01
     26 -0.765561D-01 -0.122954D-01  0.397168D-01  0.227469D-01  0.178606D-01
     27 -0.869251D-01  0.474572D-01 -0.220407D-02 -0.140572D-01 -0.308695D-02
     28  0.184333D+00 -0.229423D+00  0.996565D-01  0.118991D+00  0.369285D-01
     29 -0.220708D+00 -0.424806D-01 -0.959922D-01  0.195442D-01 -0.303430D-01
     30  0.866608D-01 -0.955638D-01  0.151186D+00  0.221873D-01  0.480184D-02
     31  0.270229D-01 -0.148621D+00 -0.117258D+00 -0.283651D-01 -0.121722D-01
     32 -0.906717D-01  0.469431D-01  0.104048D+00  0.373554D-01 -0.198355D-01
     33 -0.786787D-01  0.102851D+00  0.178407D+00  0.233600D-01  0.171715D-01
     34 -0.715870D-02 -0.951875D-01 -0.121347D+00  0.619317D-01  0.675859D-01
     35 -0.731152D-01  0.483188D-01 -0.247532D+00  0.929986D-01  0.129383D-01
     36 -0.113066D+00 -0.242151D+00  0.241494D+00 -0.573530D-01 -0.399278D-01
                6             7             8             9            10 
      6  0.152266D+02
      7  0.425066D+00  0.907656D+01
      8 -0.384534D+00  0.154341D+01  0.104589D+02
      9 -0.486094D+01 -0.280446D+00 -0.224461D-01  0.120416D+02
     10  0.928674D-01  0.359625D+00  0.698656D-02  0.931811D-01  0.108522D+02
     11  0.767116D-01 -0.113810D+00 -0.279973D+00  0.200296D-02 -0.288960D+01
     12 -0.243774D+00  0.873518D-01 -0.107114D-01 -0.266697D+00 -0.102916D+01
     13  0.335353D+00  0.437006D-01  0.646473D-01  0.643701D-02  0.815846D-01
     14  0.564558D+00  0.489243D-01 -0.244805D-02  0.562893D-01  0.128217D+00
     15 -0.338437D+01 -0.942641D-03  0.574368D-01  0.601857D-01  0.250538D-01
     16 -0.107123D+00  0.117763D+00  0.886043D-01 -0.808394D-01  0.161257D-01
     17 -0.487030D+00  0.110620D+00  0.533977D-02  0.158051D+00  0.112620D-01
     18 -0.950480D+00 -0.106267D+00  0.177871D+00  0.577533D-01 -0.465902D-01
     19  0.265494D-01 -0.156468D+01  0.457737D+00  0.105335D+01  0.444312D-01
     20  0.187089D-01  0.415399D+00 -0.296335D+01  0.266432D+00  0.842668D-02
     21  0.411694D-01  0.101297D+01  0.285130D+00 -0.236452D+01  0.212546D-01
     22 -0.325053D-01 -0.285778D+01  0.736838D+00 -0.496780D+00  0.512565D-01
     23  0.348471D-01  0.932576D+00 -0.199899D+01 -0.919909D+00 -0.115125D+00
     24  0.101559D-01 -0.607678D+00 -0.884915D+00 -0.269333D+01  0.670413D-01
     25  0.190327D-01 -0.275765D+01 -0.421834D+00 -0.792686D+00  0.218718D-01
     26 -0.997658D-02 -0.390814D+00 -0.261074D+01  0.882961D+00 -0.119042D-01
     27  0.864524D-01 -0.716701D+00  0.854405D+00 -0.156505D+01 -0.236443D-01
     28  0.213442D-01  0.472803D-01  0.371006D-02  0.111982D-01 -0.129235D+01
     29 -0.638525D-02 -0.127364D-01 -0.160153D-01 -0.110016D-02 -0.532998D+00
     30 -0.420341D-01  0.164292D-01  0.120127D-02 -0.124335D-01  0.843019D+00
     31 -0.132733D-01  0.484867D-02  0.283326D-01  0.111250D-01 -0.307940D+01
     32  0.186567D-01  0.555504D-01 -0.142084D-01  0.171670D-01 -0.700999D+00
     33 -0.249621D-01  0.602328D-01  0.338981D-01 -0.223225D-01 -0.796923D+00
     34 -0.309570D-01  0.392880D-01  0.302676D-01 -0.193631D-01 -0.314313D+01
     35 -0.242068D-01  0.302651D-01 -0.104765D-02 -0.846836D-02  0.464476D+00
     36 -0.264524D-01 -0.377493D-01 -0.189658D-01 -0.536713D-02 -0.501224D+00
               11            12            13            14            15 
     11  0.107672D+02
     12 -0.136275D+01  0.139465D+02
     13  0.104846D+00  0.181338D-01  0.282332D+01
     14  0.483571D-01  0.151219D-01 -0.135869D+01  0.130584D+01
     15  0.181128D-01 -0.473379D-01 -0.394455D+00 -0.689891D+00  0.336669D+01
     16  0.121166D-02 -0.160478D-01  0.485601D-01 -0.250790D-01 -0.557017D-01
     17 -0.306221D-01 -0.656028D-02 -0.273329D-01  0.378608D-01 -0.841392D-01
     18 -0.693844D-02  0.152686D-01 -0.464983D-01 -0.622126D-01 -0.544626D-01
     19 -0.550208D-02  0.131421D-01 -0.958799D-02  0.432266D-01 -0.183916D-01
     20 -0.182374D-01  0.196060D-02  0.459382D-01 -0.408978D-01  0.209891D-01
     21 -0.346173D-02 -0.122464D-01 -0.170642D-01  0.153775D-01  0.200769D-01
     22 -0.630276D-01  0.280350D-01 -0.126233D-01  0.949847D-02  0.426541D-03
     23 -0.682311D-02 -0.296473D-01  0.181135D-01  0.686189D-01 -0.473604D-02
     24 -0.405350D-01 -0.540952D-01 -0.446241D-02 -0.210633D-01 -0.143593D-01
     25 -0.191305D-01 -0.127711D-01 -0.155132D-01 -0.314871D-01 -0.114938D-01
     26 -0.411181D-02  0.526390D-02 -0.104906D-01  0.613419D-01  0.312206D-01
     27  0.162042D-01 -0.128222D-02 -0.189677D-02  0.443492D-01 -0.110696D-02
     28 -0.571364D+00  0.866297D+00  0.978958D-02  0.125123D-01  0.535278D-02
     29 -0.308381D+01 -0.232518D+00 -0.123920D-02 -0.261147D-02  0.185431D-03
     30 -0.243352D+00 -0.283760D+01  0.343135D-02  0.420463D-02 -0.103100D-03
     31 -0.538122D+00 -0.633808D+00 -0.237699D-02 -0.213142D-03 -0.274250D-03
     32 -0.248007D+01  0.113135D+01  0.100863D-01  0.114703D-01  0.601746D-02
     33  0.108897D+01 -0.208218D+01  0.737354D-02  0.108984D-01  0.169024D-02
     34  0.527096D+00 -0.578473D+00  0.435756D-03  0.394650D-02  0.173589D-02
     35 -0.222111D+01 -0.118578D+01  0.375077D-02  0.631413D-02  0.322705D-02
     36 -0.115764D+01 -0.214117D+01 -0.570711D-02 -0.773809D-02 -0.236686D-02
               16            17            18            19            20 
     16  0.357133D+01
     17 -0.142242D+00  0.353366D+01
     18  0.177735D+00  0.522765D+00  0.554193D+00
     19  0.195990D-01 -0.245681D-01  0.646096D-01  0.132488D+01
     20 -0.154056D-01 -0.118947D-01 -0.186651D-01 -0.408293D+00  0.304486D+01
     21  0.400016D-01 -0.230686D-01  0.419963D-01 -0.113486D+01 -0.224805D+00
     22 -0.137382D-01 -0.364790D-02  0.230454D-02 -0.348186D-01 -0.651638D-01
     23 -0.339583D-02  0.209109D-01 -0.488866D-01 -0.618603D-01 -0.163902D-02
     24  0.270623D-02 -0.300938D-01  0.273901D-01 -0.144465D-01 -0.197729D-01
     25 -0.100464D-01  0.456837D-01 -0.943710D-02  0.560112D-01 -0.223593D-01
     26  0.420293D-01 -0.294259D-01  0.985149D-02 -0.105298D-01  0.204225D-01
     27 -0.105422D-01  0.153470D-01  0.143472D-01 -0.198875D-01 -0.481594D-01
     28  0.366675D-01  0.166499D-01 -0.306721D-01  0.980819D-02  0.168818D-02
     29  0.908322D-02 -0.734525D-02 -0.580036D-03 -0.235998D-02 -0.993349D-03
     30 -0.653848D-02 -0.154946D-02 -0.104288D-01  0.377928D-02  0.992390D-03
     31 -0.498227D-02 -0.508407D-03 -0.920088D-03  0.408333D-02  0.932574D-03
     32  0.831369D-02  0.281258D-02 -0.173350D-01  0.927293D-02 -0.379572D-03
     33  0.262722D-02  0.413565D-02 -0.129128D-01  0.124466D-01  0.363844D-02
     34 -0.315606D-02 -0.299290D-02 -0.329086D-03  0.918569D-02  0.289382D-02
     35 -0.318297D-02 -0.114086D-02 -0.383162D-02  0.762467D-02  0.323129D-03
     36  0.182372D-02  0.117054D-02  0.724330D-02 -0.694673D-02 -0.199985D-02
               21            22            23            24            25 
     21  0.230526D+01
     22  0.170577D-01  0.284879D+01
     23  0.554983D-02 -0.630904D+00  0.178220D+01
     24  0.584743D-01  0.427243D+00  0.955903D+00  0.277908D+01
     25 -0.480026D-01  0.162663D-01 -0.164785D-01  0.111875D+00  0.261423D+01
     26 -0.573126D-01 -0.213185D-01  0.838000D-01  0.449781D-01  0.464128D+00
     27 -0.576744D-01  0.792486D-01  0.264882D-01 -0.785360D-01  0.811344D+00
     28  0.539843D-02  0.336365D-02 -0.127433D-01  0.871352D-02  0.969947D-02
     29 -0.147850D-02 -0.125053D-02  0.211030D-02 -0.323366D-02 -0.320225D-02
     30  0.775398D-03  0.240097D-02 -0.477842D-02  0.265310D-03  0.127752D-02
     31  0.344708D-02 -0.234294D-01  0.675998D-02 -0.234388D-01 -0.815602D-02
     32  0.531728D-02  0.120966D-02  0.356826D-02  0.543652D-02  0.394074D-02
     33  0.376277D-02 -0.237821D-01 -0.464792D-02  0.621688D-03  0.467888D-02
     34  0.274706D-02 -0.135485D-01 -0.489609D-02  0.378042D-02  0.781471D-02
     35  0.297866D-02  0.649439D-03 -0.460427D-02  0.289205D-02  0.411376D-02
     36 -0.439668D-02 -0.178591D-02  0.691470D-02 -0.289046D-02 -0.822910D-02
               26            27            28            29            30 
     26  0.247980D+01
     27 -0.945837D+00  0.160735D+01
     28 -0.572597D-02 -0.784600D-02  0.875637D+00
     29  0.283385D-03  0.236811D-02  0.621182D+00  0.316751D+01
     30 -0.112548D-02 -0.314370D-02 -0.946947D+00  0.267771D+00  0.271747D+01
     31  0.575587D-03 -0.130928D-02 -0.546266D-01  0.710003D-01  0.431577D-01
     32 -0.282204D-02 -0.466549D-02  0.798960D-01  0.117195D-01 -0.253265D-01
     33 -0.263037D-02 -0.540129D-02  0.180042D-01 -0.539254D-02  0.652316D-01
     34 -0.213977D-02 -0.778377D-02  0.514090D-01  0.536853D-01 -0.688566D-01
     35 -0.411705D-02 -0.487016D-02  0.466897D-01  0.197708D-02  0.927251D-01
     36  0.289031D-02  0.624815D-02 -0.504993D-01  0.763565D-01 -0.291838D-01
               31            32            33            34            35 
     31  0.311881D+01
     32  0.597352D+00  0.233332D+01
     33  0.644196D+00 -0.125913D+01  0.202787D+01
     34  0.465733D-01 -0.113062D-01  0.126465D+00  0.295035D+01
     35 -0.531705D-02  0.107489D+00  0.102325D-01 -0.568953D+00  0.205466D+01
     36  0.883555D-01  0.184592D-01 -0.129801D+00  0.692381D+00  0.136263D+01
               36 
     36  0.208664D+01
 Leave Link  701 at Tue Apr  9 01:24:52 2019, MaxMem=   671088640 cpu:               6.2 elap:               0.3
 (Enter /shared/centos7/gaussian/g16/l702.exe)
 L702 exits ... SP integral derivatives will be done elsewhere.
 Leave Link  702 at Tue Apr  9 01:24:52 2019, MaxMem=   671088640 cpu:               0.6 elap:               0.0
 (Enter /shared/centos7/gaussian/g16/l703.exe)
 Integral derivatives from FoFJK, PRISM(SPDF).
 Compute integral second derivatives, UseDBF=F ICtDFT=           0.
 ICntrl=    100147.
 Calling FoFJK, ICntrl=    100147 FMM=F ISym2X=0 I1Cent= 0 IOpClX= 0 NMat=1 NMatS=1 NMatT=0.
 FoFJK:  IHMeth= 1 ICntrl=  100147 DoSepK=F KAlg= 0 I1Cent=           0 FoldK=F
 IRaf=         0 NMat=       1 IRICut=       1 DoRegI=T DoRafI=F ISym2E= 0 IDoP0=0 IntGTp=1.
 FoFCou: FMM=F IPFlag=           0 FMFlag=      100000 FMFlg1=         800
         NFxFlg=           0 DoJE=F BraDBF=F KetDBF=F FulRan=T
         wScrn=  0.000000 ICntrl=    100147 IOpCl=  0 I1Cent=           0 NGrid=           0
         NMat0=    1 NMatS0=      1 NMatT0=    0 NMatD0=    1 NMtDS0=    0 NMtDT0=    0
 Symmetry not used in FoFCou.
 FoFCou:  KetSym=F NOpSet=  1 NOpAb=1 NOp=  1.
 FoFCou:  CnvScl= 1.00D+00 Thresh= 1.00D-08 IAcrcy=      12.
 PrismS was handed   670852885 working-precision words and  2608 shell-pairs
 FoFCou: LinMIO=F DoNuc=F BraDBF=F KetDBF=F HaveP=T PDBF=F HaveZ=T HaveW=F
         NIJTC =      15 NIJTAt=       0 NIJTCD=       0 NIJTT =      15
         IJTBeg=       1 IJTEnd=      15 KLTBeg=       1 KLTEnd=      15
         IPTBeg=       1 IPTEnd=      15 IPTBCv=       1 IPTECv=      15
         IZTBeg=       1 IZTEnd=      15 IZTBCv=       1 IZTECv=      15
         IWTBeg=      16 IWTEnd=      15 IWTBCv=      16 IWTECv=      15
         INTBeg=       1 INTEnd=       0 IFTBCv=       1 IFTECv=      15
 NCel replicated for PrismC:     1
 CoulSu-InSpLW:  IPartL=    0 NPrtUS=   20 NPrtUL=    1 DoSpLW=F IThBeg=    0 IThEnd=   19 NThAct=   20.
 CoulSu:  IncDef=  1024 NBBP=        3402136 NTPThr=   100 NPartT=   20 Incr=        1024 LDynOK=F GPUOK=T.
 CoulSu:  NPrtUS=  20 ThrOK=T IAlg=1 NPAlg=1 LenDen=           0 LWGrdD=           0 DoCopy=F ISkipM=0
          DoSpLW=F IThBeg=    0 IThEnd=   19.
 Enter PrismC:  IPart=  0 JobTyp=22 DoJE=F Cont=F.
 PrismC:  IPart=     0 DynPar=T LinDyn=F Incr=        1024 UseFst=F UseS4=T ISplat=2.
 PrismC was handed    33494061 working-precision words and  2608 shell-pairs
 Enter PrismC:  IPart=  8 JobTyp=22 DoJE=F Cont=F.
 Enter PrismC:  IPart= 18 JobTyp=22 DoJE=F Cont=F.
 PrismC:  IPart=     8 DynPar=T LinDyn=F Incr=        1024 UseFst=F UseS4=T ISplat=2.
 Enter PrismC:  IPart= 14 JobTyp=22 DoJE=F Cont=F.
 PrismC:  IPart=    18 DynPar=T LinDyn=F Incr=        1024 UseFst=F UseS4=T ISplat=2.
 PrismC was handed    33494061 working-precision words and  2608 shell-pairs
 PrismC:  IPart=    14 DynPar=T LinDyn=F Incr=        1024 UseFst=F UseS4=T ISplat=2.
 PrismC was handed    33494061 working-precision words and  2608 shell-pairs
 PrismC was handed    33494061 working-precision words and  2608 shell-pairs
 Enter PrismC:  IPart=  9 JobTyp=22 DoJE=F Cont=F.
 PrismC:  IPart=     9 DynPar=T LinDyn=F Incr=        1024 UseFst=F UseS4=T ISplat=2.
 PrismC was handed    33494061 working-precision words and  2608 shell-pairs
 Enter PrismC:  IPart=  7 JobTyp=22 DoJE=F Cont=F.
 Enter PrismC:  IPart=  6 JobTyp=22 DoJE=F Cont=F.
 PrismC:  IPart=     7 DynPar=T LinDyn=F Incr=        1024 UseFst=F UseS4=T ISplat=2.
 PrismC was handed    33494061 working-precision words and  2608 shell-pairs
 PrismC:  IPart=     6 DynPar=T LinDyn=F Incr=        1024 UseFst=F UseS4=T ISplat=2.
 PrismC was handed    33494061 working-precision words and  2608 shell-pairs
 Enter PrismC:  IPart= 16 JobTyp=22 DoJE=F Cont=F.
 PrismC:  IPart=    16 DynPar=T LinDyn=F Incr=        1024 UseFst=F UseS4=T ISplat=2.
 PrismC was handed    33494061 working-precision words and  2608 shell-pairs
 Enter PrismC:  IPart=  5 JobTyp=22 DoJE=F Cont=F.
 Enter PrismC:  IPart= 13 JobTyp=22 DoJE=F Cont=F.
 PrismC:  IPart=     5 DynPar=T LinDyn=F Incr=        1024 UseFst=F UseS4=T ISplat=2.
 PrismC was handed    33494061 working-precision words and  2608 shell-pairs
 PrismC:  IPart=    13 DynPar=T LinDyn=F Incr=        1024 UseFst=F UseS4=T ISplat=2.
 Enter PrismC:  IPart= 11 JobTyp=22 DoJE=F Cont=F.
 PrismC was handed    33494061 working-precision words and  2608 shell-pairs
 PrismC:  IPart=    11 DynPar=T LinDyn=F Incr=        1024 UseFst=F UseS4=T ISplat=2.
 PrismC was handed    33494061 working-precision words and  2608 shell-pairs
 Enter PrismC:  IPart= 17 JobTyp=22 DoJE=F Cont=F.
 PrismC:  IPart=    17 DynPar=T LinDyn=F Incr=        1024 UseFst=F UseS4=T ISplat=2.
 PrismC was handed    33494061 working-precision words and  2608 shell-pairs
 Enter PrismC:  IPart=  3 JobTyp=22 DoJE=F Cont=F.
 Enter PrismC:  IPart= 12 JobTyp=22 DoJE=F Cont=F.
 PrismC:  IPart=     3 DynPar=T LinDyn=F Incr=        1024 UseFst=F UseS4=T ISplat=2.
 Enter PrismC:  IPart=  2 JobTyp=22 DoJE=F Cont=F.
 PrismC was handed    33494061 working-precision words and  2608 shell-pairs
 PrismC:  IPart=    12 DynPar=T LinDyn=F Incr=        1024 UseFst=F UseS4=T ISplat=2.
 PrismC was handed    33494061 working-precision words and  2608 shell-pairs
 Enter PrismC:  IPart= 19 JobTyp=22 DoJE=F Cont=F.
 PrismC:  IPart=     2 DynPar=T LinDyn=F Incr=        1024 UseFst=F UseS4=T ISplat=2.
 PrismC was handed    33494061 working-precision words and  2608 shell-pairs
 PrismC:  IPart=    19 DynPar=T LinDyn=F Incr=        1024 UseFst=F UseS4=T ISplat=2.
 PrismC was handed    33494061 working-precision words and  2608 shell-pairs
 Enter PrismC:  IPart= 15 JobTyp=22 DoJE=F Cont=F.
 PrismC:  IPart=    15 DynPar=T LinDyn=F Incr=        1024 UseFst=F UseS4=T ISplat=2.
 PrismC was handed    33494061 working-precision words and  2608 shell-pairs
 Enter PrismC:  IPart=  4 JobTyp=22 DoJE=F Cont=F.
 Enter PrismC:  IPart=  1 JobTyp=22 DoJE=F Cont=F.
 PrismC:  IPart=     4 DynPar=T LinDyn=F Incr=        1024 UseFst=F UseS4=T ISplat=2.
 Enter PrismC:  IPart= 10 JobTyp=22 DoJE=F Cont=F.
 PrismC was handed    33494061 working-precision words and  2608 shell-pairs
 PrismC:  IPart=     1 DynPar=T LinDyn=F Incr=        1024 UseFst=F UseS4=T ISplat=2.
 PrismC was handed    33494061 working-precision words and  2608 shell-pairs
 PrismC:  IPart=    10 DynPar=T LinDyn=F Incr=        1024 UseFst=F UseS4=T ISplat=2.
 PrismC was handed    33494061 working-precision words and  2608 shell-pairs
 IPart= 19 NShTot=      137166 NShNF=      137166 NShFF=           0 MinMC=       7
           NShCPU=      137166 NBCPU=        6171 AvBCPU=        22.2
           NShGPU=           0 NBGPU=           0 AvBGPU=         0.0
 IPart=  4 NShTot=      118623 NShNF=      118623 NShFF=           0 MinMC=       7
           NShCPU=      118623 NBCPU=        5556 AvBCPU=        21.4
           NShGPU=           0 NBGPU=           0 AvBGPU=         0.0
 IPart= 15 NShTot=      139721 NShNF=      139721 NShFF=           0 MinMC=       7
           NShCPU=      139721 NBCPU=        6063 AvBCPU=        23.0
           NShGPU=           0 NBGPU=           0 AvBGPU=         0.0
 IPart=  3 NShTot=      126071 NShNF=      126071 NShFF=           0 MinMC=       7
           NShCPU=      126071 NBCPU=        5448 AvBCPU=        23.1
           NShGPU=           0 NBGPU=           0 AvBGPU=         0.0
 IPart=  0 NShTot=      126527 NShNF=      126527 NShFF=           0 MinMC=       7
           NShCPU=      126527 NBCPU=        5845 AvBCPU=        21.6
           NShGPU=           0 NBGPU=           0 AvBGPU=         0.0
 IPart= 16 NShTot=      125961 NShNF=      125961 NShFF=           0 MinMC=       7
           NShCPU=      125961 NBCPU=        5677 AvBCPU=        22.2
           NShGPU=           0 NBGPU=           0 AvBGPU=         0.0
 IPart=  6 NShTot=      122014 NShNF=      122014 NShFF=           0 MinMC=       7
           NShCPU=      122014 NBCPU=        5869 AvBCPU=        20.8
           NShGPU=           0 NBGPU=           0 AvBGPU=         0.0
 IPart= 13 NShTot=      123614 NShNF=      123614 NShFF=           0 MinMC=       7
           NShCPU=      123614 NBCPU=        5702 AvBCPU=        21.7
           NShGPU=           0 NBGPU=           0 AvBGPU=         0.0
 IPart=  2 NShTot=      135714 NShNF=      135714 NShFF=           0 MinMC=       7
           NShCPU=      135714 NBCPU=        5538 AvBCPU=        24.5
           NShGPU=           0 NBGPU=           0 AvBGPU=         0.0
 IPart= 17 NShTot=      132280 NShNF=      132280 NShFF=           0 MinMC=       7
           NShCPU=      132280 NBCPU=        6017 AvBCPU=        22.0
           NShGPU=           0 NBGPU=           0 AvBGPU=         0.0
 IPart=  5 NShTot=      130547 NShNF=      130547 NShFF=           0 MinMC=       7
           NShCPU=      130547 NBCPU=        5696 AvBCPU=        22.9
           NShGPU=           0 NBGPU=           0 AvBGPU=         0.0
 IPart=  1 NShTot=      141196 NShNF=      141196 NShFF=           0 MinMC=       7
           NShCPU=      141196 NBCPU=        6018 AvBCPU=        23.5
           NShGPU=           0 NBGPU=           0 AvBGPU=         0.0
 IPart= 10 NShTot=      126871 NShNF=      126871 NShFF=           0 MinMC=       7
           NShCPU=      126871 NBCPU=        5773 AvBCPU=        22.0
           NShGPU=           0 NBGPU=           0 AvBGPU=         0.0
 IPart=  9 NShTot=      134126 NShNF=      134126 NShFF=           0 MinMC=       7
           NShCPU=      134126 NBCPU=        5663 AvBCPU=        23.7
           NShGPU=           0 NBGPU=           0 AvBGPU=         0.0
 IPart= 14 NShTot=      132069 NShNF=      132069 NShFF=           0 MinMC=       7
           NShCPU=      132069 NBCPU=        5572 AvBCPU=        23.7
           NShGPU=           0 NBGPU=           0 AvBGPU=         0.0
 IPart= 11 NShTot=      121908 NShNF=      121908 NShFF=           0 MinMC=       7
           NShCPU=      121908 NBCPU=        5380 AvBCPU=        22.7
           NShGPU=           0 NBGPU=           0 AvBGPU=         0.0
 IPart= 12 NShTot=      121733 NShNF=      121733 NShFF=           0 MinMC=       7
           NShCPU=      121733 NBCPU=        5312 AvBCPU=        22.9
           NShGPU=           0 NBGPU=           0 AvBGPU=         0.0
 IPart=  8 NShTot=      127254 NShNF=      127254 NShFF=           0 MinMC=       7
           NShCPU=      127254 NBCPU=        5644 AvBCPU=        22.5
           NShGPU=           0 NBGPU=           0 AvBGPU=         0.0
 IPart=  7 NShTot=      119630 NShNF=      119630 NShFF=           0 MinMC=       7
           NShCPU=      119630 NBCPU=        5295 AvBCPU=        22.6
           NShGPU=           0 NBGPU=           0 AvBGPU=         0.0
 IPart= 18 NShTot=      128332 NShNF=      128332 NShFF=           0 MinMC=       7
           NShCPU=      128332 NBCPU=        5789 AvBCPU=        22.2
           NShGPU=           0 NBGPU=           0 AvBGPU=         0.0
 CoulSu:  NxtVal=        3587073 LenVP=       33494062 MinMC=       7.
 ReadGW:  IGet=0 IStart=           1 Next=           1 LGW=           0.
 Remaining memory in FofDFT      639.95 Mw
 CkSvGd:  ISavGI=        -1 IRadAn=       5 IRASav=       5 ISavGd=        -1.
 CalDSu-InSpLW:  IPartL=    0 NPrtUS=   20 NPrtUL=    1 DoSpLW=F IThBeg=    0 IThEnd=   19 NThAct=   20.
 CalDSu:  NPrtUS=  20 ThrOK=T IAlg=1 NPAlg=2 DoDPD=T LenP=       26106 LenD1P=             0 GPUOK=F
          ISkipM=0 DoSpLW=F IThBeg=    0 IThEnd=   19.
 IPart=  0 IRanGd=          0 ScrnBf=T ScrnGd=T RCrit=4.00D+00 DoMicB=T.
 IPart= 13        13721 of        16520 points in      18 batches and       68 microbatches, Max-NSigAt=      12 Max-NSgAt2=      12
 IPart=  6        11184 of        12266 points in      12 batches and       72 microbatches, Max-NSigAt=      12 Max-NSgAt2=      12
 IPart=  4        14864 of        18782 points in      22 batches and       75 microbatches, Max-NSigAt=      12 Max-NSgAt2=      12
 IPart= 19        13350 of        16070 points in      17 batches and       90 microbatches, Max-NSigAt=      12 Max-NSgAt2=      12
 IPart=  8        12671 of        14954 points in      16 batches and       88 microbatches, Max-NSigAt=      12 Max-NSgAt2=      12
 IPart= 10        11170 of        12090 points in      12 batches and       67 microbatches, Max-NSigAt=      12 Max-NSgAt2=      12
 IPart=  3        11918 of        13154 points in      14 batches and       73 microbatches, Max-NSigAt=      12 Max-NSgAt2=      12
 IPart= 14        11045 of        12344 points in      13 batches and       65 microbatches, Max-NSigAt=      12 Max-NSgAt2=      12
 IPart=  5        11947 of        13458 points in      13 batches and       82 microbatches, Max-NSigAt=      12 Max-NSgAt2=      12
 IPart= 12        11450 of        12452 points in      12 batches and       72 microbatches, Max-NSigAt=      12 Max-NSgAt2=      12
 IPart= 11        11144 of        11854 points in      12 batches and       54 microbatches, Max-NSigAt=      12 Max-NSgAt2=      12
 IPart=  7        13024 of        14954 points in      16 batches and       74 microbatches, Max-NSigAt=      12 Max-NSgAt2=      12
 IPart=  2        12264 of        13042 points in      12 batches and       66 microbatches, Max-NSigAt=      12 Max-NSgAt2=      12
 IPart= 15        12357 of        13182 points in      12 batches and       68 microbatches, Max-NSigAt=      12 Max-NSgAt2=      12
 IPart= 16        11754 of        12468 points in      12 batches and       71 microbatches, Max-NSigAt=      12 Max-NSgAt2=      12
 IPart=  1        11260 of        12228 points in      12 batches and       74 microbatches, Max-NSigAt=      12 Max-NSgAt2=      12
 IPart=  9        12049 of        13450 points in      14 batches and       67 microbatches, Max-NSigAt=      12 Max-NSgAt2=      12
 IPart= 18        12141 of        13676 points in      13 batches and       77 microbatches, Max-NSigAt=      12 Max-NSgAt2=      12
 IPart=  0        13070 of        14756 points in      15 batches and       61 microbatches, Max-NSigAt=      12 Max-NSgAt2=      12
 IPart= 17        11685 of        12444 points in      12 batches and       67 microbatches, Max-NSigAt=      12 Max-NSgAt2=      12
 Polarizability after L703:
                1             2             3 
      1  0.000000D+00
      2  0.000000D+00  0.000000D+00
      3  0.000000D+00  0.000000D+00  0.000000D+00
 Dipole Derivatives after L703:
                 1             2             3             4             5 
      1   0.609420D-01  0.359724D+00  0.146566D+00 -0.326078D+00 -0.816021D+00
      2   0.260588D+00 -0.118744D+00 -0.110934D+00 -0.627253D+00 -0.798173D+00
      3   0.190446D-01 -0.465036D-01 -0.163072D+00  0.466280D-01  0.104669D+00
                 6             7             8             9            10 
      1   0.196295D+00 -0.149361D+01  0.746399D+00 -0.252250D+00 -0.148390D+01
      2   0.225756D+00  0.847071D-01 -0.923047D+00 -0.975447D-01 -0.501515D-01
      3  -0.941630D+00 -0.286073D-01 -0.146675D+00 -0.851697D+00 -0.550101D-02
                11            12            13            14            15 
      1  -0.635554D+00 -0.229231D+00  0.395178D+00  0.357624D+00  0.157760D+00
      2  -0.928890D+00  0.577992D-01  0.314974D+00  0.696542D+00  0.246060D+00
      3   0.763630D-01 -0.865203D+00  0.240054D-01  0.501531D-01  0.166731D+00
                16            17            18            19            20 
      1   0.167143D+00 -0.883317D-02 -0.181757D+00  0.935457D+00  0.290882D+00
      2  -0.654476D-02  0.179701D+00 -0.308138D+00 -0.743312D-01  0.123815D+00
      3  -0.815457D-02 -0.315795D-01  0.670982D+00  0.255434D+00  0.110831D+00
                21            22            23            24            25 
      1   0.576536D+00 -0.885515D-03 -0.268895D+00  0.144293D+00  0.392200D+00
      2  -0.312644D-01  0.280615D+00  0.529485D+00 -0.264727D+00 -0.154683D+00
      3   0.274659D+00 -0.151090D+00 -0.225175D+00  0.269533D+00 -0.120384D+00
                26            27            28            29            30 
      1  -0.363607D+00 -0.649804D+00  0.101489D+01 -0.363282D+00  0.383952D+00
      2   0.289800D+00  0.342409D+00  0.392535D-01  0.165307D+00  0.119968D-01
      3   0.149993D+00  0.467853D+00  0.207801D+00 -0.841532D-01  0.177965D+00
                31            32            33            34            35 
      1   0.196377D-01  0.242332D+00  0.225174D+00  0.319022D+00  0.459231D+00
      2  -0.195188D+00  0.354905D+00  0.279832D+00  0.128013D+00  0.429299D+00
      3  -0.196282D+00  0.213091D+00  0.374416D+00 -0.428947D-01 -0.171014D+00
                36 
      1  -0.517534D+00
      2  -0.351245D+00
      3   0.419461D+00
 Hessian after L703:
                1             2             3             4             5 
      1  0.528526D+00
      2  0.167269D+00  0.328405D+00
      3 -0.969383D-01  0.108999D+00  0.207951D+00
      4 -0.263800D+00 -0.301709D-01  0.916770D-01  0.573145D+00
      5  0.633211D-02 -0.754098D-01 -0.210095D-01  0.181419D-01  0.562929D+00
      6  0.114525D+00 -0.505951D-03 -0.114504D+00 -0.629610D-02  0.621608D-02
      7 -0.363106D-01  0.267568D-01  0.217415D-02 -0.124506D+00  0.742175D-01
      8  0.626104D-02  0.150694D-02 -0.248705D-02  0.785079D-01 -0.187340D+00
      9  0.151976D-01 -0.152979D-01  0.682374D-02 -0.232856D-01  0.376192D-01
     10 -0.151576D+00 -0.852269D-01 -0.189388D-01 -0.414386D-01 -0.377164D-01
     11 -0.118186D+00 -0.211183D+00 -0.621417D-01 -0.203593D-01 -0.135523D-01
     12 -0.442659D-01 -0.801310D-01 -0.954543D-01  0.184972D-02  0.151924D-01
     13 -0.283829D-01 -0.317651D-01 -0.889784D-02 -0.828815D-01 -0.639289D-01
     14 -0.587387D-02 -0.582074D-03  0.638388D-03 -0.700919D-01 -0.198672D+00
[...]
    D3       -0.95461  -0.00000   0.00000  -0.00000  -0.00000  -0.95461
    D4       -1.22027   0.00000   0.00000   0.00000   0.00000  -1.22027
    D5        2.98164  -0.00000   0.00000   0.00000   0.00000   2.98164
    D6        0.90501   0.00000   0.00000   0.00000   0.00000   0.90501
    D7        0.93607  -0.00000   0.00000  -0.00000  -0.00000   0.93607
    D8       -1.17381  -0.00000   0.00000  -0.00000  -0.00000  -1.17381
    D9        3.02188  -0.00000   0.00000  -0.00000  -0.00000   3.02188
   D10       -1.12342   0.00000   0.00000   0.00000   0.00000  -1.12342
   D11        3.04989   0.00000   0.00000   0.00000   0.00000   3.04989
   D12        0.96240   0.00000   0.00000   0.00000   0.00000   0.96240
   D13        3.08815  -0.00000   0.00000  -0.00000  -0.00000   3.08815
   D14        0.97827  -0.00000   0.00000  -0.00000  -0.00000   0.97827
   D15       -1.10922  -0.00000   0.00000  -0.00000  -0.00000  -1.10922
         Item               Value     Threshold  Converged?
 Maximum Force            0.000000     0.000002     YES
 RMS     Force            0.000000     0.000001     YES
 Maximum Displacement     0.000000     0.000006     YES
 RMS     Displacement     0.000000     0.000004     YES
 Predicted change in Energy=-2.746924D-14
 Optimization completed.
    -- Stationary point found.
                           ----------------------------
                           !   Optimized Parameters   !
                           ! (Angstroms and Degrees)  !
 --------------------------                            --------------------------
 ! Name  Definition              Value          Derivative Info.                !
 --------------------------------------------------------------------------------
 ! R1    R(1,2)                  1.4096         -DE/DX =    0.0                 !
 ! R2    R(1,4)                  1.4037         -DE/DX =    0.0                 !
 ! R3    R(2,3)                  1.5205         -DE/DX =    0.0                 !
 ! R4    R(2,5)                  1.0893         -DE/DX =    0.0                 !
 ! R5    R(2,6)                  1.0977         -DE/DX =    0.0                 !
 ! R6    R(3,7)                  1.0896         -DE/DX =    0.0                 !
 ! R7    R(3,8)                  1.0893         -DE/DX =    0.0                 !
 ! R8    R(3,9)                  1.0898         -DE/DX =    0.0                 !
 ! R9    R(4,10)                 1.0937         -DE/DX =    0.0                 !
 ! R10   R(4,11)                 1.0874         -DE/DX =    0.0                 !
 ! R11   R(4,12)                 1.0963         -DE/DX =    0.0                 !
 ! A1    A(2,1,4)              113.8852         -DE/DX =    0.0                 !
 ! A2    A(1,2,3)              113.513          -DE/DX =    0.0                 !
 ! A3    A(1,2,5)              105.5282         -DE/DX =    0.0                 !
 ! A4    A(1,2,6)              109.548          -DE/DX =    0.0                 !
 ! A5    A(3,2,5)              110.0401         -DE/DX =    0.0                 !
 ! A6    A(3,2,6)              110.2188         -DE/DX =    0.0                 !
 ! A7    A(5,2,6)              107.749          -DE/DX =    0.0                 !
 ! A8    A(2,3,7)              110.1374         -DE/DX =    0.0                 !
 ! A9    A(2,3,8)              111.9152         -DE/DX =    0.0                 !
 ! A10   A(2,3,9)              109.9122         -DE/DX =    0.0                 !
 ! A11   A(7,3,8)              108.5809         -DE/DX =    0.0                 !
 ! A12   A(7,3,9)              108.5144         -DE/DX =    0.0                 !
 ! A13   A(8,3,9)              107.6857         -DE/DX =    0.0                 !
 ! A14   A(1,4,10)             112.1549         -DE/DX =    0.0                 !
 ! A15   A(1,4,11)             107.3363         -DE/DX =    0.0                 !
 ! A16   A(1,4,12)             111.0624         -DE/DX =    0.0                 !
 ! A17   A(10,4,11)            108.6381         -DE/DX =    0.0                 !
 ! A18   A(10,4,12)            108.6341         -DE/DX =    0.0                 !
 ! A19   A(11,4,12)            108.9375         -DE/DX =    0.0                 !
 ! D1    D(4,1,2,3)             68.9768         -DE/DX =    0.0                 !
 ! D2    D(4,1,2,5)           -170.4424         -DE/DX =    0.0                 !
 ! D3    D(4,1,2,6)            -54.695          -DE/DX =    0.0                 !
 ! D4    D(2,1,4,10)           -69.9163         -DE/DX =    0.0                 !
 ! D5    D(2,1,4,11)           170.8356         -DE/DX =    0.0                 !
 ! D6    D(2,1,4,12)            51.8532         -DE/DX =    0.0                 !
 ! D7    D(1,2,3,7)             53.6327         -DE/DX =    0.0                 !
 ! D8    D(1,2,3,8)            -67.2542         -DE/DX =    0.0                 !
 ! D9    D(1,2,3,9)            173.1412         -DE/DX =    0.0                 !
 ! D10   D(5,2,3,7)            -64.3672         -DE/DX =    0.0                 !
 ! D11   D(5,2,3,8)            174.7458         -DE/DX =    0.0                 !
 ! D12   D(5,2,3,9)             55.1413         -DE/DX =    0.0                 !
 ! D13   D(6,2,3,7)            176.9378         -DE/DX =    0.0                 !
 ! D14   D(6,2,3,8)             56.0508         -DE/DX =    0.0                 !
 ! D15   D(6,2,3,9)            -63.5537         -DE/DX =    0.0                 !
 --------------------------------------------------------------------------------
 GradGradGradGradGradGradGradGradGradGradGradGradGradGradGradGradGradGrad

 Leave Link  103 at Tue Apr  9 01:34:28 2019, MaxMem=   671088640 cpu:               0.2 elap:               0.0
 (Enter /shared/centos7/gaussian/g16/l9999.exe)

 ----------------------------------------------------------------------

 Electric dipole moment (input orientation):
 (Debye = 10**-18 statcoulomb cm , SI units = C m)
                  (au)            (Debye)         (10**-30 SI)
   Tot        0.547271D+00      0.139103D+01      0.463996D+01
   x          0.136778D+00      0.347655D+00      0.115965D+01
   y         -0.307288D+00     -0.781048D+00     -0.260529D+01
   z          0.431708D+00      0.109729D+01      0.366018D+01

 Dipole polarizability, Alpha (input orientation).
 (esu units = cm**3 , SI units = C**2 m**2 J**-1)
 Alpha(0;0):
               (au)            (10**-24 esu)      (10**-40 SI)
   iso        0.428705D+02      0.635276D+01      0.706840D+01
   aniso      0.856889D+01      0.126978D+01      0.141282D+01
   xx         0.484765D+02      0.718348D+01      0.799269D+01
   yx        -0.177877D-01     -0.263586D-02     -0.293279D-02
   yy         0.409472D+02      0.606774D+01      0.675128D+01
   zx         0.180031D+00      0.266779D-01      0.296831D-01
   zy         0.314351D+00      0.465820D-01      0.518295D-01
   zz         0.391880D+02      0.580706D+01      0.646122D+01

 ----------------------------------------------------------------------

 Dipole orientation:
     8         -0.77607671          0.46401174         -2.08554645
     6          1.19152271          1.30500574         -0.49922526
     6          2.32222805         -0.77677065          1.12689399
     6         -2.98211142         -0.22857398         -0.78558319
     1          2.62607421          2.07283290         -1.76025905
     1          0.50493841          2.85527764          0.69599649
     1          2.90979995         -2.35820628         -0.05361375
     1          0.98431722         -1.46755864          2.53040396
     1          3.97162074         -0.06333665          2.13275779
     1         -2.73141238         -1.96667258          0.30420667
     1         -4.44860451         -0.54030740         -2.19086469
     1         -3.59221653          1.27678426          0.50029349

 Electric dipole moment (dipole orientation):
 (Debye = 10**-18 statcoulomb cm , SI units = C m)
                  (au)            (Debye)         (10**-30 SI)
   Tot        0.547271D+00      0.139103D+01      0.463996D+01
   x          0.000000D+00      0.000000D+00      0.000000D+00
   y          0.000000D+00      0.000000D+00      0.000000D+00
   z          0.547271D+00      0.139103D+01      0.463996D+01

 Dipole polarizability, Alpha (dipole orientation).
 (esu units = cm**3 , SI units = C**2 m**2 J**-1)
 Alpha(0;0):
               (au)            (10**-24 esu)      (10**-40 SI)
   iso        0.428705D+02      0.635276D+01      0.706840D+01
   aniso      0.856889D+01      0.126978D+01      0.141282D+01
   xx         0.477481D+02      0.707554D+01      0.787260D+01
   yx         0.845816D+00      0.125337D+00      0.139456D+00
   yy         0.407432D+02      0.603752D+01      0.671765D+01
   zx         0.236157D+01      0.349949D+00      0.389370D+00
   zy        -0.492883D+00     -0.730378D-01     -0.812655D-01
   zz         0.401203D+02      0.594521D+01      0.661494D+01

 ----------------------------------------------------------------------

 Test job not archived.
 1\1\GINC-C0210\Freq\RM062X\6-311+G(2df,2p)\C3H8O1\UNDERKOFFLER.C\09-Ap
 r-2019\0\\#P Geom=AllCheck Guess=TCheck SCRF=Check Test GenChk RM062X/
 6-311+G(2df,2p) Freq\\Gaussian input prepared by ASE\\0,1\O,-0.6529042
 964,0.7897257336,-0.6300684696\C,0.596659226,0.7666665761,0.0217742698
 \C,1.302751762,-0.5770332211,-0.0675231132\C,-1.6363484092,0.009983641
 3,-0.0014447058\H,1.1943796462,1.5356136524,-0.4662096695\H,0.46845260
 13,1.0588139451,1.072135442\H,1.3810451361,-0.8912475241,-1.1079068199
 \H,0.7764270544,-1.3507197455,0.490044593\H,2.3077432261,-0.4964370106
 ,0.3461994178\H,-1.4363397649,-1.0610758773,-0.0961226285\H,-2.5840825
 657,0.2307648545,-0.4867310931\H,-1.7153720599,0.25879133,1.0632990865
 \\Version=EM64L-G16RevA.03\State=1-A\HF=-194.3136774\RMSD=2.017e-09\RM
 SF=2.077e-07\ZeroPoint=0.1092152\Thermal=0.1146923\Dipole=0.1367778,-0
 .3072878,0.4317083\DipoleDeriv=-1.1802465,-0.1137717,-0.019528,-0.1675
 031,-0.5734607,0.0554372,-0.0470807,0.0759654,-0.5656179,0.8390822,-0.
 0457791,0.1252566,-0.1175294,0.3761436,0.0328116,0.2387864,0.0617218,0
 .4058486,-0.0522641,0.0601016,-0.0078855,0.132017,-0.0940869,0.0076123
 ,-0.0165364,-0.0261217,0.0590526,0.5677601,0.1425651,-0.126531,0.24312
 16,0.4335897,-0.0393724,-0.2491817,-0.0631208,0.3816807,-0.0595138,-0.
 0592411,0.0203843,-0.0652998,-0.0647768,0.0474223,0.0459167,0.078336,0
 .0256821,-0.0262974,0.0406865,0.0670303,0.0338254,-0.0002603,-0.053994
 1,-0.0394272,-0.0910955,-0.1693689,0.0709664,0.0080165,-0.0060735,0.02
 46745,0.0178508,-0.0276603,0.0279311,-0.0652471,-0.0947404,0.0222904,-
 0.0750962,0.0625572,-0.0373792,-0.0537285,0.0456835,0.0592243,0.059221
 7,0.0110096,-0.1080223,0.0059213,-0.0628957,-0.019319,0.0589477,-0.019
 1619,-0.0729083,-0.0077848,0.0478618,0.0146303,0.0639392,0.0198024,-0.
 0343335,-0.1689963,-0.0026949,0.0498822,-0.022551,0.0288727,-0.1107189
 ,-0.0000511,-0.0432963,0.0358213,0.0567716,0.029396,-0.0821341,0.02168
 25,0.035315,0.0223337,-0.0272909,-0.0288209,-0.0280959,0.0120061,-0.07
 54794,0.0855276,-0.0210065,-0.1655959\Polar=48.4764981,-0.0177877,40.9
 471648,0.1800311,0.3143509,39.1879615\Quadrupole=1.5459178,-0.7292865,
 -0.8166313,1.0172359,-0.518626,0.6060049\PG=C01 [X(C3H8O1)]\NImag=0\\0
 .48937072,0.11545394,0.21193928,0.03295608,-0.10235247,0.26492453,-0.2
 0285870,-0.01402061,-0.05566632,0.51704811,0.00649049,-0.07487432,0.02
 202289,0.06124159,0.54378743,-0.08756595,0.00748897,-0.12457698,-0.053
 73861,-0.02322530,0.58650075,-0.03373252,0.03192311,-0.00660618,-0.094
 62780,0.03614279,0.00820281,0.55550313,0.00387430,0.00472805,0.0028345
 7,0.04226943,-0.18620754,-0.01038083,0.04423108,0.50706768,-0.01687817
 ,0.01680862,0.00153078,0.01111584,-0.01372338,-0.08400028,0.00698395,-
 0.00585440,0.58285345,-0.16406575,-0.06180017,0.03266833,-0.04642693,-
 0.02477122,0.01426945,0.00087117,0.00131318,-0.00013351,0.57067554,-0.
 07969536,-0.12952529,0.05396630,-0.00907639,-0.00339253,-0.00389395,0.
 00425009,0.00423298,-0.00035579,-0.03308032,0.54787525,0.06701951,0.06
 648116,-0.12139242,-0.00897078,-0.01181012,0.00610631,-0.00207876,-0.0
 0027379,-0.00058755,0.05220650,0.01256115,0.56066047,-0.03324702,-0.02
 353618,0.01182043,-0.11856851,-0.09631873,0.06386506,0.00948060,0.0125
 1510,-0.00771150,-0.00303690,0.00090566,-0.00490766,0.14775919,-0.0023
 0175,0.00243158,-0.00149093,-0.10209083,-0.18262381,0.08586960,-0.0139
 9873,-0.02280457,0.01525077,0.00138292,0.00139501,-0.00099329,0.108498
 40,0.19662138,-0.01587807,-0.01344131,0.00844874,0.07330909,0.09007679
 ,-0.11331656,-0.00176431,-0.00310008,0.00224760,-0.00195300,-0.0003351
 8,-0.00128319,-0.06782351,-0.09408079,0.11381826,-0.01274229,-0.009726
 62,-0.03891128,-0.05660379,0.00751729,0.04296548,-0.00035716,0.0040653
 5,0.01540229,0.00453929,0.00180855,-0.00619387,-0.00106672,0.00530660,
 0.01592213,0.06607800,-0.00221771,0.00335714,0.00060205,0.00817211,-0.
 06917360,-0.05853170,0.00630278,-0.00947347,-0.02979304,0.00051217,-0.
 00015583,-0.00169340,-0.00289980,0.00717274,0.02137618,-0.01186293,0.0
 7133397,-0.01530515,-0.00357148,-0.02196990,0.03828421,-0.06047927,-0.
 26861540,0.00171321,0.00008759,-0.00066241,0.00326834,0.00244862,0.001
 16330,0.00346016,-0.00368392,-0.01314085,-0.03007278,0.06736400,0.2999
 5646,0.00185074,-0.00152035,-0.00010736,-0.00258012,0.00588712,0.01609
 824,-0.04803579,0.00333717,0.01803553,-0.00037450,-0.00014801,0.000295
 19,0.00024924,-0.00063996,-0.00066530,-0.00083851,0.00324444,0.0000354
 5,0.04739524,-0.00198773,0.00313130,0.00185934,0.00175893,-0.01019882,
 -0.03244189,0.00433275,-0.06819769,-0.07044011,0.00027705,0.00016505,-
 0.00012536,-0.00072912,0.00103906,0.00015037,0.00333370,-0.00509442,0.
 00028850,-0.00687727,0.07403948,0.00109438,0.00074963,0.00143669,-0.00
 061547,-0.00080892,-0.00212398,0.01848037,-0.07184785,-0.29601207,0.00
 008077,-0.00031189,-0.00003434,0.00015460,-0.00051865,0.00054769,-0.00
 051844,-0.00025878,0.00150043,-0.02037212,0.07988035,0.31933354,0.0009
 8052,-0.00173125,0.00039229,0.00973695,0.01202893,-0.00964816,-0.11181
 463,-0.09328718,0.06897931,-0.00115663,-0.00063723,-0.00035243,-0.0008
 7837,0.00346456,-0.00000336,0.00047270,-0.00114695,-0.00022308,-0.0016
 2995,-0.00021219,0.00019834,0.12074270,0.00083222,0.00215617,-0.000595
 90,-0.01819015,-0.02218117,0.01551287,-0.09235215,-0.17999844,0.097165
 32,-0.00070410,-0.00056177,0.00030043,0.00378337,-0.00435192,-0.001009
 65,-0.00015810,0.00128135,-0.00034350,0.00565045,0.00720781,-0.0045571
 1,0.10137189,0.19692786,-0.00064980,0.00021404,-0.00011824,-0.00271780
 ,-0.00297982,0.00159750,0.06908825,0.09755428,-0.12093309,0.00059882,0
 .00139174,0.00031071,0.00058998,-0.00100123,0.00129591,-0.00086057,0.0
 0012729,0.00046311,0.01578347,0.02241505,-0.01442097,-0.07581827,-0.10
 666065,0.12552513,-0.00218418,0.00352428,0.00049899,-0.01273876,-0.005
 17443,-0.00575595,-0.27654340,-0.01917499,-0.09463714,0.00111215,0.000
 63656,-0.00069385,0.00068238,0.00017315,-0.00024566,0.00018052,0.00009
 600,0.00065351,0.00383561,0.00005741,0.00133814,-0.01413057,-0.0008232
 7,-0.00575046,0.29958415,0.00653772,-0.00639136,0.00013693,0.02565280,
 0.00654784,0.01263361,-0.02032261,-0.04829638,-0.00942669,-0.00144084,
 -0.00202585,0.00064965,-0.00089423,0.00098978,0.00062732,-0.00072054,0
 .00083915,-0.00087895,-0.00875416,-0.00176904,-0.00237056,-0.02088341,
 -0.00172421,-0.00997041,0.02065312,0.05053573,-0.00019746,0.00010870,0
 .00135123,0.00276954,0.00032686,-0.00088808,-0.09480789,-0.00872461,-0
 .08518581,0.00052212,0.00042665,0.00004597,-0.00006128,0.00023148,0.00
 008304,-0.00022095,0.00042593,-0.00014688,-0.02905533,-0.00157177,-0.0
 1002701,0.01666388,0.00038393,0.00654247,0.10437895,0.00880287,0.08837
 506,-0.00030697,-0.03360371,0.00199007,0.00372547,-0.00217447,0.000565
 08,-0.00031631,0.00131616,-0.00039691,-0.06494270,0.05948416,0.0050906
 5,-0.00034703,0.00024784,-0.00014851,-0.00043714,-0.00001298,-0.000177
 27,-0.00003661,0.00016692,0.00017375,-0.00248652,0.00032667,-0.0002307
 2,0.00034255,-0.00016149,0.00012650,0.06829534,-0.01273593,-0.02304545
 ,0.00745023,0.00420546,-0.00053498,0.00203307,-0.00012186,-0.00047616,
 0.00041867,0.05514960,-0.28506368,-0.02918613,-0.00046879,0.00013429,-
 0.00008622,-0.00031447,-0.00004746,-0.00042061,-0.00010658,-0.00015328
 ,-0.00004027,0.00092702,0.00094061,-0.00056208,-0.00000588,0.00072692,
 -0.00028432,-0.05296846,0.31972117,0.00161659,0.02267996,0.00157039,-0
 .00114584,-0.00040777,-0.00028163,-0.00000795,-0.00043806,0.00056373,0
 .00550856,-0.03063839,-0.05564981,0.00008714,0.00008547,0.00014979,0.0
 0059708,-0.00002716,-0.00001287,0.00014021,-0.00007596,-0.00024980,-0.
 00042391,0.00013253,-0.00000007,0.00010651,0.00006393,-0.00022954,-0.0
 1008012,0.02424179,0.05413589,-0.03087179,-0.00214222,-0.00881623,-0.0
 0002499,-0.00212673,0.00459027,0.00003076,-0.00032169,-0.00018983,-0.2
 4530441,0.05177063,-0.10590335,-0.00121924,-0.00001193,-0.00049208,0.0
 0012516,-0.00002549,-0.00017722,-0.00000577,0.00001641,0.00003624,0.00
 008990,0.00008591,-0.00001055,-0.00005043,0.00015528,-0.00004443,-0.00
 437783,0.00282801,-0.00376774,0.27776475,-0.02549668,0.00233027,-0.009
 82148,-0.00221026,-0.00209419,0.00256668,-0.00016365,-0.00048953,0.000
 37639,0.05974312,-0.06346773,0.03012444,-0.00107695,0.00005298,-0.0002
 2371,0.00015358,-0.00002536,0.00013028,-0.00000361,0.00002772,-0.00002
 357,0.00015004,0.00048780,-0.00041332,0.00010707,0.00039467,-0.0001538
 9,0.02677577,-0.00553667,0.01532347,-0.04995832,0.06605302,0.01994095,
 -0.00186863,0.00872650,0.00154672,0.00104584,-0.00150580,0.00024719,0.
 00016965,0.00020952,-0.11523601,0.02737160,-0.11104512,0.00049396,0.00
 015563,0.00054276,0.00013962,0.00025989,0.00058022,-0.00005604,0.00000
 060,0.00001341,0.00002026,-0.00015802,-0.00004249,-0.00001057,-0.00012
 941,0.00003514,0.00444708,-0.00167695,0.00258398,0.11452088,-0.0330942
 7,0.11223065,-0.01219276,-0.00282024,0.02978118,0.00391908,0.00125738,
 0.00615229,-0.00045807,-0.00013791,-0.00056986,-0.05189034,0.00378167,
 0.00448883,0.00019237,-0.00003028,-0.00025744,0.00064993,-0.00016165,-
 0.00145937,0.00017042,-0.00013686,-0.00005058,0.00007390,0.00017727,-0
 .00002234,-0.00009004,0.00017835,-0.00007365,0.00088775,0.00361188,0.0
 0736945,0.00384389,-0.00802011,-0.02605402,0.05489388,-0.00875352,0.00
 376262,0.02538847,0.00228792,0.00094570,0.00236887,-0.00022361,-0.0000
 8492,-0.00042636,0.00341862,-0.06947561,-0.06603475,0.00022127,-0.0000
 5651,0.00004627,0.00059757,-0.00001421,-0.00094125,-0.00006924,-0.0001
 9716,0.00010763,-0.00004424,-0.00018410,-0.00011489,-0.00006902,0.0001
 7274,0.00002816,0.00060358,-0.00666532,-0.03093980,-0.00026985,0.00226
 702,0.00792406,0.00230050,0.06952975,0.01384710,0.00670282,-0.01993132
 ,-0.00417057,-0.00003780,0.00110415,0.00054929,-0.00002647,-0.00002387
 ,0.00819963,-0.06263086,-0.27829433,0.00003262,0.00017587,0.00060681,0
 .00175128,0.00014872,0.00088478,-0.00013193,0.00006087,0.00003641,0.00
 021514,-0.00017024,-0.00021996,0.00011751,-0.00013829,0.00004440,-0.00
 135960,-0.00188719,-0.00258004,0.00025402,-0.00479101,-0.01232877,-0.0
 1930449,0.06259358,0.31070174\\-0.00000022,-0.00000015,0.00000003,-0.0
 0000017,0.00000006,-0.00000023,0.00000006,0.00000015,-0.00000017,0.000
 00007,-0.00000016,0.00000025,-0.00000026,0.00000010,-0.00000035,0.0000
 0007,0.00000017,-0.00000016,-0.00000008,0.00000006,-0.00000014,0.00000
 025,0.00000014,0.,0.00000015,0.00000031,-0.00000034,0.00000010,-0.0000
 0019,0.00000037,-0.00000011,-0.00000038,0.00000044,0.00000014,-0.00000
 011,0.00000029\\\@


 THE SOLUTION TO A PROBLEM CHANGES THE PROBLEM.

                                 -- JOHN PEERS
           PAUL DICKSON'S "THE OFFICIAL RULES"
 Job cpu time:       0 days  0 hours 38 minutes 43.6 seconds.
 Elapsed time:       0 days  0 hours  1 minutes 56.8 seconds.
 File lengths (MBytes):  RWF=   1312 Int=      0 D2E=      0 Chk=     32 Scr=     32
 Normal termination of Gaussian 16 at Tue Apr  9 01:34:28 2019.
