 Entering Gaussian System, Link 0=g16
 Input=ZMAYDFGNKOVZRH-UHFFFAOYSA-N_36by10.0_tor02_a1.com
 Output=ZMAYDFGNKOVZRH-UHFFFAOYSA-N_36by10.0_tor02_a1.log
 Initial command:
 /shared/centos7/gaussian/g16/l1.exe "/scratch/underkoffler.c/gaussian_scratch/Gau-45810.inp" -scrdir="/scratch/underkoffler.c/gaussian_scratch/"
 Entering Link 1 = /shared/centos7/gaussian/g16/l1.exe PID=     45811.
  
 Copyright (c) 1988,1990,1992,1993,1995,1998,2003,2009,2016,
            Gaussian, Inc.  All Rights Reserved.
  
 This is part of the Gaussian(R) 16 program.  It is based on
 the Gaussian(R) 09 system (copyright 2009, Gaussian, Inc.),
 the Gaussian(R) 03 system (copyright 2003, Gaussian, Inc.),
 the Gaussian(R) 98 system (copyright 1998, Gaussian, Inc.),
 the Gaussian(R) 94 system (copyright 1995, Gaussian, Inc.),
 the Gaussian 92(TM) system (copyright 1992, Gaussian, Inc.),
 the Gaussian 90(TM) system (copyright 1990, Gaussian, Inc.),
 the Gaussian 88(TM) system (copyright 1988, Gaussian, Inc.),
 the Gaussian 86(TM) system (copyright 1986, Carnegie Mellon
 University), and the Gaussian 82(TM) system (copyright 1983,
 Carnegie Mellon University). Gaussian is a federally registered
 trademark of Gaussian, Inc.
  
 This software contains proprietary and confidential information,
 including trade secrets, belonging to Gaussian, Inc.
  
 This software is provided under written license and may be
 used, copied, transmitted, or stored only in accord with that
 written license.
  
 The following legend is applicable only to US Government
 contracts under FAR:
  
                    RESTRICTED RIGHTS LEGEND
  
 Use, reproduction and disclosure by the US Government is
 subject to restrictions as set forth in subparagraphs (a)
 and (c) of the Commercial Computer Software - Restricted
 Rights clause in FAR 52.227-19.
  
 Gaussian, Inc.
 340 Quinnipiac St., Bldg. 40, Wallingford CT 06492
  
  
 ---------------------------------------------------------------
 Warning -- This program may not be used in any manner that
 competes with the business of Gaussian, Inc. or will provide
 assistance to any competitor of Gaussian, Inc.  The licensee
 of this program is prohibited from giving any competitor of
 Gaussian, Inc. access to this program.  By using this program,
 the user acknowledges that Gaussian, Inc. is engaged in the
 business of creating and licensing software in the field of
 computational chemistry and represents and warrants to the
 licensee that it is not a competitor of Gaussian, Inc. and that
 it will not use this program in any manner prohibited above.
 ---------------------------------------------------------------
  

 Cite this work as:
 Gaussian 16, Revision A.03,
 M. J. Frisch, G. W. Trucks, H. B. Schlegel, G. E. Scuseria, 
 M. A. Robb, J. R. Cheeseman, G. Scalmani, V. Barone, 
 G. A. Petersson, H. Nakatsuji, X. Li, M. Caricato, A. V. Marenich, 
 J. Bloino, B. G. Janesko, R. Gomperts, B. Mennucci, H. P. Hratchian, 
 J. V. Ortiz, A. F. Izmaylov, J. L. Sonnenberg, D. Williams-Young, 
 F. Ding, F. Lipparini, F. Egidi, J. Goings, B. Peng, A. Petrone, 
 T. Henderson, D. Ranasinghe, V. G. Zakrzewski, J. Gao, N. Rega, 
 G. Zheng, W. Liang, M. Hada, M. Ehara, K. Toyota, R. Fukuda, 
 J. Hasegawa, M. Ishida, T. Nakajima, Y. Honda, O. Kitao, H. Nakai, 
 T. Vreven, K. Throssell, J. A. Montgomery, Jr., J. E. Peralta, 
 F. Ogliaro, M. J. Bearpark, J. J. Heyd, E. N. Brothers, K. N. Kudin, 
 V. N. Staroverov, T. A. Keith, R. Kobayashi, J. Normand, 
 K. Raghavachari, A. P. Rendell, J. C. Burant, S. S. Iyengar, 
 J. Tomasi, M. Cossi, J. M. Millam, M. Klene, C. Adamo, R. Cammi, 
 J. W. Ochterski, R. L. Martin, K. Morokuma, O. Farkas, 
 J. B. Foresman, and D. J. Fox, Gaussian, Inc., Wallingford CT, 2016.
 
 ******************************************
 Gaussian 16:  EM64L-G16RevA.03 25-Dec-2016
                11-Mar-2019 
 ******************************************
 %nprocshared=20
 Will use up to   20 processors via shared memory.
 %mem=5GB
 ----------------------------------------------
 #p m062x/6-311+g(2df,2p) Opt=(CalcFC,ModRedun)
 ----------------------------------------------
 1/10=4,18=120,19=15,26=3,38=1/1,3;
 2/9=110,12=2,17=6,18=5,40=1/2;
 3/5=4,6=6,7=214,11=2,25=1,30=1,71=2,74=-55,140=1/1,2,3;
 4//1;
 5/5=2,38=5/2;
 8/6=4,10=90,11=11/1;
 11/6=1,8=1,9=11,15=111,16=1/1,2,10;
 10/6=1,13=1/2;
 6/7=2,8=2,9=2,10=2,28=1/1;
 7/10=1,18=20,25=1/1,2,3,16;
 1/10=4,18=20,19=15,26=3/3(2);
 2/9=110/2;
 99//99;
 2/9=110/2;
 3/5=4,6=6,7=214,11=2,25=1,30=1,71=1,74=-55/1,2,3;
 4/5=5,16=3,69=1/1;
 5/5=2,38=5/2;
 7//1,2,3,16;
 1/18=20,19=15,26=3/3(-5);
 2/9=110/2;
 6/7=2,8=2,9=2,10=2,19=2,28=1/1;
 99/9=1/99;
 Leave Link    1 at Mon Mar 11 19:44:38 2019, MaxMem=   671088640 cpu:              36.0 elap:               1.9
 (Enter /shared/centos7/gaussian/g16/l101.exe)
 ----------------------------------------
 Gaussian Input Prepared from Scan Object
 ----------------------------------------
 Symbolic Z-matrix:
 Charge =  0 Multiplicity = 2
 O                     0.4492   -0.50575  -0.0517 
 C                    -0.55741   0.47241   0.02296 
 C                     1.7369    0.04718   0.00962 
 C                    -1.88361  -0.17764  -0.01482 
 H                    -0.43079   1.05844   0.95119 
 H                    -0.45082   1.1908   -0.80487 
 H                     1.89236   0.58702   0.95038 
 H                     2.44975  -0.77095  -0.0534 
 H                     1.91139   0.73917  -0.82175 
 H                    -1.96557  -1.22573   0.22439 
 H                    -2.77517   0.41559  -0.13902 
 
 The following ModRedundant input section has been read:
 B       4      11 B                                                           
 B       3       8 B                                                           
 B       1       2 B                                                           
 B       2       5 B                                                           
 B       1       3 B                                                           
 B       4      10 B                                                           
 B       2       4 B                                                           
 B       2       6 B                                                           
 B       3       7 B                                                           
 B       3       9 B                                                           
 D       2       1       3       9 S  36 10.000                                
 
 ITRead=  0  0  0  0  0  0  0  0  0  0  0
 MicOpt= -1 -1 -1 -1 -1 -1 -1 -1 -1 -1 -1
 NAtoms=     11 NQM=       11 NQMF=       0 NMMI=      0 NMMIF=      0
                NMic=       0 NMicF=      0.
                    Isotopes and Nuclear Properties:
 (Nuclear quadrupole moments (NQMom) in fm**2, nuclear magnetic moments (NMagM)
  in nuclear magnetons)

  Atom         1           2           3           4           5           6           7           8           9          10
 IAtWgt=          16          12          12          12           1           1           1           1           1           1
 AtmWgt=  15.9949146  12.0000000  12.0000000  12.0000000   1.0078250   1.0078250   1.0078250   1.0078250   1.0078250   1.0078250
 NucSpn=           0           0           0           0           1           1           1           1           1           1
 AtZEff=  -0.0000000  -0.0000000  -0.0000000  -0.0000000  -0.0000000  -0.0000000  -0.0000000  -0.0000000  -0.0000000  -0.0000000
 NQMom=    0.0000000   0.0000000   0.0000000   0.0000000   0.0000000   0.0000000   0.0000000   0.0000000   0.0000000   0.0000000
 NMagM=    0.0000000   0.0000000   0.0000000   0.0000000   2.7928460   2.7928460   2.7928460   2.7928460   2.7928460   2.7928460
 AtZNuc=   8.0000000   6.0000000   6.0000000   6.0000000   1.0000000   1.0000000   1.0000000   1.0000000   1.0000000   1.0000000

  Atom        11
 IAtWgt=           1
 AtmWgt=   1.0078250
 NucSpn=           1
 AtZEff=  -0.0000000
 NQMom=    0.0000000
 NMagM=    2.7928460
 AtZNuc=   1.0000000
 Leave Link  101 at Mon Mar 11 19:44:38 2019, MaxMem=   671088640 cpu:               5.4 elap:               0.3
 (Enter /shared/centos7/gaussian/g16/l103.exe)

 GradGradGradGradGradGradGradGradGradGradGradGradGradGradGradGradGradGrad
 Berny optimization.
 Initialization pass.
                           ----------------------------
                           !    Initial Parameters    !
                           ! (Angstroms and Degrees)  !
 --------------------------                            --------------------------
 ! Name  Definition              Value          Derivative Info.                !
 --------------------------------------------------------------------------------
 ! R1    R(1,2)                  1.4056         calculate D2E/DX2 analytically  !
 ! R2    R(1,3)                  1.4027         calculate D2E/DX2 analytically  !
 ! R3    R(2,4)                  1.4774         calculate D2E/DX2 analytically  !
 ! R4    R(2,5)                  1.105          calculate D2E/DX2 analytically  !
 ! R5    R(2,6)                  1.1012         calculate D2E/DX2 analytically  !
 ! R6    R(3,7)                  1.0957         calculate D2E/DX2 analytically  !
 ! R7    R(3,8)                  1.087          calculate D2E/DX2 analytically  !
 ! R8    R(3,9)                  1.0957         calculate D2E/DX2 analytically  !
 ! R9    R(4,10)                 1.0782         calculate D2E/DX2 analytically  !
 ! R10   R(4,11)                 1.0781         calculate D2E/DX2 analytically  !
 ! A1    A(2,1,3)              112.3824         calculate D2E/DX2 analytically  !
 ! A2    A(1,2,4)              109.5906         calculate D2E/DX2 analytically  !
 ! A3    A(1,2,5)              109.3675         calculate D2E/DX2 analytically  !
 ! A4    A(1,2,6)              110.1653         calculate D2E/DX2 analytically  !
 ! A5    A(4,2,5)              110.9576         calculate D2E/DX2 analytically  !
 ! A6    A(4,2,6)              110.7739         calculate D2E/DX2 analytically  !
 ! A7    A(5,2,6)              105.9264         calculate D2E/DX2 analytically  !
 ! A8    A(1,3,7)              111.2213         calculate D2E/DX2 analytically  !
 ! A9    A(1,3,8)              107.6266         calculate D2E/DX2 analytically  !
 ! A10   A(1,3,9)              111.2216         calculate D2E/DX2 analytically  !
 ! A11   A(7,3,8)              109.1211         calculate D2E/DX2 analytically  !
 ! A12   A(7,3,9)              108.525          calculate D2E/DX2 analytically  !
 ! A13   A(8,3,9)              109.0832         calculate D2E/DX2 analytically  !
 ! A14   A(2,4,10)             119.3591         calculate D2E/DX2 analytically  !
 ! A15   A(2,4,11)             120.2106         calculate D2E/DX2 analytically  !
 ! A16   A(10,4,11)            119.8424         calculate D2E/DX2 analytically  !
 ! D1    D(3,1,2,4)           -178.6721         calculate D2E/DX2 analytically  !
 ! D2    D(3,1,2,5)            -56.8333         calculate D2E/DX2 analytically  !
 ! D3    D(3,1,2,6)             59.2035         calculate D2E/DX2 analytically  !
 ! D4    D(2,1,3,7)             60.4812         calculate D2E/DX2 analytically  !
 ! D5    D(2,1,3,8)            179.9585         calculate D2E/DX2 analytically  !
 ! D6    D(2,1,3,9)            -60.6102         Scan                            !
 ! D7    D(1,2,4,10)            19.3631         calculate D2E/DX2 analytically  !
 ! D8    D(1,2,4,11)          -169.441          calculate D2E/DX2 analytically  !
 ! D9    D(5,2,4,10)          -101.5177         calculate D2E/DX2 analytically  !
 ! D10   D(5,2,4,11)            69.6782         calculate D2E/DX2 analytically  !
 ! D11   D(6,2,4,10)           141.1231         calculate D2E/DX2 analytically  !
 ! D12   D(6,2,4,11)           -47.681          calculate D2E/DX2 analytically  !
 --------------------------------------------------------------------------------
 Trust Radius=3.00D-01 FncErr=1.00D-07 GrdErr=1.00D-06 EigMax=2.50D+02 EigMin=1.00D-04
 Number of optimizations in scan=  37
 Number of steps in this run=     48 maximum allowed number of steps=    100.
 GradGradGradGradGradGradGradGradGradGradGradGradGradGradGradGradGradGrad

 Leave Link  103 at Mon Mar 11 19:44:38 2019, MaxMem=   671088640 cpu:               0.2 elap:               0.0
 (Enter /shared/centos7/gaussian/g16/l202.exe)
                          Input orientation:                          
 ---------------------------------------------------------------------
 Center     Atomic      Atomic             Coordinates (Angstroms)
 Number     Number       Type             X           Y           Z
 ---------------------------------------------------------------------
      1          8           0        0.449201   -0.505754   -0.051703
      2          6           0       -0.557413    0.472410    0.022957
      3          6           0        1.736903    0.047180    0.009619
      4          6           0       -1.883611   -0.177642   -0.014822
      5          1           0       -0.430794    1.058443    0.951191
      6          1           0       -0.450825    1.190800   -0.804873
      7          1           0        1.892356    0.587017    0.950385
      8          1           0        2.449754   -0.770953   -0.053404
      9          1           0        1.911389    0.739170   -0.821749
     10          1           0       -1.965574   -1.225730    0.224394
     11          1           0       -2.775171    0.415588   -0.139021
 ---------------------------------------------------------------------
                    Distance matrix (angstroms):
                    1          2          3          4          5
     1  O    0.000000
     2  C    1.405578   0.000000
     3  C    1.402738   2.333428   0.000000
     4  C    2.356062   1.477429   3.627570   0.000000
     5  H    2.055942   1.105027   2.570627   2.138169   0.000000
     6  H    2.062912   1.101248   2.599504   2.133000   1.761158
     7  H    2.069063   2.621950   1.095733   3.971681   2.370499
     8  H    2.018055   3.254970   1.086954   4.373964   3.557169
     9  H    2.069009   2.622913   1.095659   3.986690   2.954838
    10  H    2.534903   2.215214   3.921067   1.078161   2.846266
    11  H    3.354560   2.224391   4.529529   1.078066   2.664194
                    6          7          8          9         10
     6  H    0.000000
     7  H    2.989310   0.000000
     8  H    3.581416   1.778304   0.000000
     9  H    2.405059   1.778755   1.777825   0.000000
    10  H    3.032074   4.323972   4.447371   4.470580   0.000000
    11  H    2.539074   4.796040   5.358642   4.747069   1.865863
                   11
    11  H    0.000000
 Stoichiometry    C3H7O(2)
 Framework group  C1[X(C3H7O)]
 Deg. of freedom    27
 Full point group                 C1      NOp   1
 Largest Abelian subgroup         C1      NOp   1
 Largest concise Abelian subgroup C1      NOp   1
                         Standard orientation:                         
 ---------------------------------------------------------------------
 Center     Atomic      Atomic             Coordinates (Angstroms)
 Number     Number       Type             X           Y           Z
 ---------------------------------------------------------------------
      1          8           0        0.449200   -0.505754   -0.051698
      2          6           0       -0.557413    0.472411    0.022963
      3          6           0        1.736903    0.047179    0.009624
      4          6           0       -1.883612   -0.177640   -0.014817
      5          1           0       -0.430793    1.058444    0.951196
      6          1           0       -0.450825    1.190801   -0.804867
      7          1           0        1.892355    0.587016    0.950390
      8          1           0        2.449753   -0.770954   -0.053398
      9          1           0        1.911389    0.739169   -0.821744
     10          1           0       -1.965575   -1.225728    0.224400
     11          1           0       -2.775171    0.415590   -0.139016
 ---------------------------------------------------------------------
 Rotational constants (GHZ):          31.3443342           4.4178772           4.0764904
 Leave Link  202 at Mon Mar 11 19:44:38 2019, MaxMem=   671088640 cpu:               0.2 elap:               0.0
 (Enter /shared/centos7/gaussian/g16/l301.exe)
 Standard basis: 6-311+G(2df,2p) (5D, 7F)
 Ernie: Thresh=  0.10000D-02 Tol=  0.10000D-05 Strict=F.
 There are   219 symmetry adapted cartesian basis functions of A   symmetry.
 There are   199 symmetry adapted basis functions of A   symmetry.
   199 basis functions,   285 primitive gaussians,   219 cartesian basis functions
    17 alpha electrons       16 beta electrons
       nuclear repulsion energy       126.4067652562 Hartrees.
 IExCor= 4336 DFT=T Ex+Corr=M062X ExCW=0 ScaHFX=  0.540000
 ScaDFX=  1.000000  1.000000  1.000000  1.000000 ScalE2=  1.000000  1.000000
 IRadAn=      5 IRanWt=     -1 IRanGd=            0 ICorTp=0 IEmpDi=  4
 NAtoms=   11 NActive=   11 NUniq=   11 SFac= 1.00D+00 NAtFMM=   60 NAOKFM=F Big=F
 Integral buffers will be    131072 words long.
 Raffenetti 2 integral format.
 Two-electron integral symmetry is turned on.
 Leave Link  301 at Mon Mar 11 19:44:38 2019, MaxMem=   671088640 cpu:               0.9 elap:               0.1
 (Enter /shared/centos7/gaussian/g16/l302.exe)
 NPDir=0 NMtPBC=     1 NCelOv=     1 NCel=       1 NClECP=     1 NCelD=      1
         NCelK=      1 NCelE2=     1 NClLst=     1 CellRange=     0.0.
 One-electron integrals computed using PRISM.
 One-electron integral symmetry used in STVInt
 NBasis=   199 RedAO= T EigKep=  8.53D-05  NBF=   199
 NBsUse=   199 1.00D-06 EigRej= -1.00D+00 NBFU=   199
 Precomputing XC quadrature grid using
 IXCGrd= 4 IRadAn=           5 IRanWt=          -1 IRanGd=           0 AccXCQ= 0.00D+00.
 Generated NRdTot=       0 NPtTot=           0 NUsed=           0 NTot=          32
 NSgBfM=   219   219   219   219   219 MxSgAt=    11 MxSgA2=    11.
 Leave Link  302 at Mon Mar 11 19:44:38 2019, MaxMem=   671088640 cpu:               4.7 elap:               0.3
 (Enter /shared/centos7/gaussian/g16/l303.exe)
 DipDrv:  MaxL=1.
 Leave Link  303 at Mon Mar 11 19:44:38 2019, MaxMem=   671088640 cpu:               0.5 elap:               0.0
 (Enter /shared/centos7/gaussian/g16/l401.exe)
 ExpMin= 4.38D-02 ExpMax= 8.59D+03 ExpMxC= 1.30D+03 IAcc=3 IRadAn=         5 AccDes= 0.00D+00
 Harris functional with IExCor= 1009 and IRadAn=       5 diagonalized for initial guess.
 HarFok:  IExCor= 1009 AccDes= 0.00D+00 IRadAn=         5 IDoV= 1 UseB2=F ITyADJ=14
 ICtDFT=  3500011 ScaDFX=  1.000000  1.000000  1.000000  1.000000
 FoFCou: FMM=F IPFlag=           0 FMFlag=      100000 FMFlg1=           0
         NFxFlg=           0 DoJE=T BraDBF=F KetDBF=T FulRan=T
         wScrn=  0.000000 ICntrl=       500 IOpCl=  0 I1Cent=   200000004 NGrid=           0
         NMat0=    1 NMatS0=      1 NMatT0=    0 NMatD0=    1 NMtDS0=    0 NMtDT0=    0
 Petite list used in FoFCou.
 Harris En= -193.557517109826    
 JPrj=0 DoOrth=F DoCkMO=F.
 Initial guess <Sx>= 0.0000 <Sy>= 0.0000 <Sz>= 0.5000 <S**2>= 0.7500 S= 0.5000
 Leave Link  401 at Mon Mar 11 19:44:39 2019, MaxMem=   671088640 cpu:              12.0 elap:               0.7
 (Enter /shared/centos7/gaussian/g16/l502.exe)
 Keep R1 and R2 ints in memory in canonical form, NReq=416958841.
 FoFCou: FMM=F IPFlag=           0 FMFlag=           0 FMFlg1=           0
         NFxFlg=           0 DoJE=F BraDBF=F KetDBF=F FulRan=T
         wScrn=  0.000000 ICntrl=       600 IOpCl=  0 I1Cent=           0 NGrid=           0
         NMat0=    1 NMatS0=  19900 NMatT0=    0 NMatD0=    1 NMtDS0=    0 NMtDT0=    0
 Symmetry not used in FoFCou.
 Two-electron integral symmetry not used.
 UHF open shell SCF:
 Using DIIS extrapolation, IDIIS=  1040.
 NGot=   671088640 LenX=   274956345 LenY=   274907943
 Requested convergence on RMS density matrix=1.00D-08 within 128 cycles.
 Requested convergence on MAX density matrix=1.00D-06.
 Requested convergence on             energy=1.00D-06.
 No special actions if energy rises.

 Cycle   1  Pass 1  IDiag  1:
 E= -193.523128716377    
 DIIS: error= 2.20D-02 at cycle   1 NSaved=   1.
 NSaved= 1 IEnMin= 1 EnMin= -193.523128716377     IErMin= 1 ErrMin= 2.20D-02
 ErrMax= 2.20D-02  0.00D+00 EMaxC= 1.00D-01 BMatC= 5.72D-01 BMatP= 5.72D-01
 IDIUse=3 WtCom= 7.80D-01 WtEn= 2.20D-01
 Coeff-Com:  0.100D+01
 Coeff-En:   0.100D+01
 Coeff:      0.100D+01
 Gap=     0.279 Goal=   None    Shift=    0.000
 Gap=     0.335 Goal=   None    Shift=    0.000
 GapD=    0.279 DampG=1.000 DampE=0.500 DampFc=0.5000 IDamp=-1.
 Damping current iteration by 5.00D-01
 RMSDP=2.24D-03 MaxDP=9.37D-02              OVMax= 1.40D-01

 Cycle   2  Pass 1  IDiag  1:
 E= -193.585031827506     Delta-E=       -0.061903111129 Rises=F Damp=T
 DIIS: error= 4.97D-03 at cycle   2 NSaved=   2.
 NSaved= 2 IEnMin= 2 EnMin= -193.585031827506     IErMin= 2 ErrMin= 4.97D-03
 ErrMax= 4.97D-03  0.00D+00 EMaxC= 1.00D-01 BMatC= 4.82D-02 BMatP= 5.72D-01
 IDIUse=3 WtCom= 9.50D-01 WtEn= 4.97D-02
 Coeff-Com: -0.169D+00 0.117D+01
 Coeff-En:   0.000D+00 0.100D+01
 Coeff:     -0.161D+00 0.116D+01
 Gap=     0.281 Goal=   None    Shift=    0.000
 Gap=     0.372 Goal=   None    Shift=    0.000
 RMSDP=6.76D-04 MaxDP=3.01D-02 DE=-6.19D-02 OVMax= 7.53D-02

 Cycle   3  Pass 1  IDiag  1:
 E= -193.640776266372     Delta-E=       -0.055744438866 Rises=F Damp=F
 DIIS: error= 2.99D-03 at cycle   3 NSaved=   3.
 NSaved= 3 IEnMin= 3 EnMin= -193.640776266372     IErMin= 3 ErrMin= 2.99D-03
 ErrMax= 2.99D-03  0.00D+00 EMaxC= 1.00D-01 BMatC= 1.15D-02 BMatP= 4.82D-02
 IDIUse=3 WtCom= 9.70D-01 WtEn= 2.99D-02
 Coeff-Com: -0.110D+00 0.378D+00 0.732D+00
 Coeff-En:   0.000D+00 0.000D+00 0.100D+01
 Coeff:     -0.106D+00 0.366D+00 0.740D+00
 Gap=     0.283 Goal=   None    Shift=    0.000
 Gap=     0.302 Goal=   None    Shift=    0.000
 RMSDP=1.95D-04 MaxDP=1.07D-02 DE=-5.57D-02 OVMax= 1.81D-02

 Cycle   4  Pass 1  IDiag  1:
 E= -193.642488723782     Delta-E=       -0.001712457410 Rises=F Damp=F
 DIIS: error= 1.58D-03 at cycle   4 NSaved=   4.
 NSaved= 4 IEnMin= 4 EnMin= -193.642488723782     IErMin= 4 ErrMin= 1.58D-03
 ErrMax= 1.58D-03  0.00D+00 EMaxC= 1.00D-01 BMatC= 3.20D-03 BMatP= 1.15D-02
 IDIUse=3 WtCom= 9.84D-01 WtEn= 1.58D-02
 Coeff-Com: -0.362D-01 0.782D-01 0.378D+00 0.580D+00
 Coeff-En:   0.000D+00 0.000D+00 0.114D+00 0.886D+00
 Coeff:     -0.357D-01 0.769D-01 0.373D+00 0.585D+00
 Gap=     0.281 Goal=   None    Shift=    0.000
 Gap=     0.310 Goal=   None    Shift=    0.000
 RMSDP=7.68D-05 MaxDP=4.01D-03 DE=-1.71D-03 OVMax= 7.36D-03

 Cycle   5  Pass 1  IDiag  1:
 E= -193.643086052420     Delta-E=       -0.000597328637 Rises=F Damp=F
 DIIS: error= 4.09D-04 at cycle   5 NSaved=   5.
 NSaved= 5 IEnMin= 5 EnMin= -193.643086052420     IErMin= 5 ErrMin= 4.09D-04
 ErrMax= 4.09D-04  0.00D+00 EMaxC= 1.00D-01 BMatC= 6.91D-05 BMatP= 3.20D-03
 IDIUse=3 WtCom= 9.96D-01 WtEn= 4.09D-03
 Coeff-Com:  0.559D-02-0.220D-01-0.188D-01 0.607D-01 0.974D+00
 Coeff-En:   0.000D+00 0.000D+00 0.000D+00 0.000D+00 0.100D+01
 Coeff:      0.557D-02-0.219D-01-0.187D-01 0.605D-01 0.975D+00
 Gap=     0.282 Goal=   None    Shift=    0.000
 Gap=     0.310 Goal=   None    Shift=    0.000
 RMSDP=2.85D-05 MaxDP=1.13D-03 DE=-5.97D-04 OVMax= 4.26D-03

 Cycle   6  Pass 1  IDiag  1:
 E= -193.643122779193     Delta-E=       -0.000036726773 Rises=F Damp=F
 DIIS: error= 1.39D-04 at cycle   6 NSaved=   6.
 NSaved= 6 IEnMin= 6 EnMin= -193.643122779193     IErMin= 6 ErrMin= 1.39D-04
 ErrMax= 1.39D-04  0.00D+00 EMaxC= 1.00D-01 BMatC= 9.03D-06 BMatP= 6.91D-05
 IDIUse=3 WtCom= 9.99D-01 WtEn= 1.39D-03
 Coeff-Com:  0.505D-02-0.111D-01-0.550D-01-0.822D-01 0.675D-02 0.114D+01
 Coeff-En:   0.000D+00 0.000D+00 0.000D+00 0.000D+00 0.000D+00 0.100D+01
 Coeff:      0.504D-02-0.111D-01-0.549D-01-0.821D-01 0.674D-02 0.114D+01
 Gap=     0.283 Goal=   None    Shift=    0.000
 Gap=     0.310 Goal=   None    Shift=    0.000
 RMSDP=1.57D-05 MaxDP=7.73D-04 DE=-3.67D-05 OVMax= 2.23D-03

 Cycle   7  Pass 1  IDiag  1:
 E= -193.643129034602     Delta-E=       -0.000006255409 Rises=F Damp=F
 DIIS: error= 5.09D-05 at cycle   7 NSaved=   7.
 NSaved= 7 IEnMin= 7 EnMin= -193.643129034602     IErMin= 7 ErrMin= 5.09D-05
 ErrMax= 5.09D-05  0.00D+00 EMaxC= 1.00D-01 BMatC= 1.93D-06 BMatP= 9.03D-06
 IDIUse=1 WtCom= 1.00D+00 WtEn= 0.00D+00
 Coeff-Com:  0.119D-02-0.181D-02-0.186D-01-0.374D-01-0.850D-01 0.454D+00
 Coeff-Com:  0.688D+00
 Coeff:      0.119D-02-0.181D-02-0.186D-01-0.374D-01-0.850D-01 0.454D+00
 Coeff:      0.688D+00
 Gap=     0.283 Goal=   None    Shift=    0.000
 Gap=     0.310 Goal=   None    Shift=    0.000
 RMSDP=3.38D-06 MaxDP=2.15D-04 DE=-6.26D-06 OVMax= 3.42D-04

 Cycle   8  Pass 1  IDiag  1:
 E= -193.643129582077     Delta-E=       -0.000000547475 Rises=F Damp=F
 DIIS: error= 1.39D-05 at cycle   8 NSaved=   8.
 NSaved= 8 IEnMin= 8 EnMin= -193.643129582077     IErMin= 8 ErrMin= 1.39D-05
 ErrMax= 1.39D-05  0.00D+00 EMaxC= 1.00D-01 BMatC= 8.45D-08 BMatP= 1.93D-06
 IDIUse=1 WtCom= 1.00D+00 WtEn= 0.00D+00
 Coeff-Com: -0.593D-03 0.130D-02 0.541D-02 0.621D-02-0.414D-02-0.102D+00
 Coeff-Com:  0.405D-01 0.105D+01
 Coeff:     -0.593D-03 0.130D-02 0.541D-02 0.621D-02-0.414D-02-0.102D+00
 Coeff:      0.405D-01 0.105D+01
 Gap=     0.283 Goal=   None    Shift=    0.000
 Gap=     0.310 Goal=   None    Shift=    0.000
 RMSDP=1.40D-06 MaxDP=5.42D-05 DE=-5.47D-07 OVMax= 8.87D-05

 Cycle   9  Pass 1  IDiag  1:
 E= -193.643129619349     Delta-E=       -0.000000037272 Rises=F Damp=F
 DIIS: error= 3.45D-06 at cycle   9 NSaved=   9.
 NSaved= 9 IEnMin= 9 EnMin= -193.643129619349     IErMin= 9 ErrMin= 3.45D-06
 ErrMax= 3.45D-06  0.00D+00 EMaxC= 1.00D-01 BMatC= 5.99D-09 BMatP= 8.45D-08
 IDIUse=1 WtCom= 1.00D+00 WtEn= 0.00D+00
 Coeff-Com: -0.156D-03 0.314D-03 0.191D-02 0.313D-02 0.455D-02-0.442D-01
 Coeff-Com: -0.399D-01 0.167D+00 0.907D+00
 Coeff:     -0.156D-03 0.314D-03 0.191D-02 0.313D-02 0.455D-02-0.442D-01
 Coeff:     -0.399D-01 0.167D+00 0.907D+00
 Gap=     0.283 Goal=   None    Shift=    0.000
 Gap=     0.310 Goal=   None    Shift=    0.000
 RMSDP=3.33D-07 MaxDP=1.23D-05 DE=-3.73D-08 OVMax= 2.36D-05

 Cycle  10  Pass 1  IDiag  1:
 E= -193.643129621849     Delta-E=       -0.000000002500 Rises=F Damp=F
 DIIS: error= 1.48D-06 at cycle  10 NSaved=  10.
 NSaved=10 IEnMin=10 EnMin= -193.643129621849     IErMin=10 ErrMin= 1.48D-06
 ErrMax= 1.48D-06  0.00D+00 EMaxC= 1.00D-01 BMatC= 9.84D-10 BMatP= 5.99D-09
 IDIUse=1 WtCom= 1.00D+00 WtEn= 0.00D+00
 Coeff-Com:  0.184D-04-0.431D-04-0.236D-04 0.242D-03 0.136D-02-0.149D-02
 Coeff-Com: -0.142D-01-0.555D-01 0.247D+00 0.823D+00
 Coeff:      0.184D-04-0.431D-04-0.236D-04 0.242D-03 0.136D-02-0.149D-02
 Coeff:     -0.142D-01-0.555D-01 0.247D+00 0.823D+00
 Gap=     0.283 Goal=   None    Shift=    0.000
 Gap=     0.310 Goal=   None    Shift=    0.000
 RMSDP=1.31D-07 MaxDP=5.75D-06 DE=-2.50D-09 OVMax= 7.55D-06

 Cycle  11  Pass 1  IDiag  1:
 E= -193.643129622189     Delta-E=       -0.000000000339 Rises=F Damp=F
 DIIS: error= 4.32D-07 at cycle  11 NSaved=  11.
 NSaved=11 IEnMin=11 EnMin= -193.643129622189     IErMin=11 ErrMin= 4.32D-07
 ErrMax= 4.32D-07  0.00D+00 EMaxC= 1.00D-01 BMatC= 1.10D-10 BMatP= 9.84D-10
 IDIUse=1 WtCom= 1.00D+00 WtEn= 0.00D+00
 Coeff-Com:  0.263D-04-0.554D-04-0.260D-03-0.327D-03-0.201D-03 0.545D-02
 Coeff-Com:  0.752D-03-0.384D-01-0.419D-01 0.235D+00 0.840D+00
 Coeff:      0.263D-04-0.554D-04-0.260D-03-0.327D-03-0.201D-03 0.545D-02
 Coeff:      0.752D-03-0.384D-01-0.419D-01 0.235D+00 0.840D+00
 Gap=     0.283 Goal=   None    Shift=    0.000
 Gap=     0.310 Goal=   None    Shift=    0.000
 RMSDP=5.95D-08 MaxDP=3.75D-06 DE=-3.39D-10 OVMax= 4.09D-06

 Cycle  12  Pass 1  IDiag  1:
 E= -193.643129622233     Delta-E=       -0.000000000045 Rises=F Damp=F
 DIIS: error= 8.10D-08 at cycle  12 NSaved=  12.
 NSaved=12 IEnMin=12 EnMin= -193.643129622233     IErMin=12 ErrMin= 8.10D-08
 ErrMax= 8.10D-08  0.00D+00 EMaxC= 1.00D-01 BMatC= 4.50D-12 BMatP= 1.10D-10
 IDIUse=1 WtCom= 1.00D+00 WtEn= 0.00D+00
 Coeff-Com: -0.257D-05 0.519D-05 0.105D-04-0.117D-05-0.493D-04-0.880D-04
 Coeff-Com:  0.813D-03 0.499D-02-0.163D-01-0.717D-01-0.354D-01 0.112D+01
 Coeff:     -0.257D-05 0.519D-05 0.105D-04-0.117D-05-0.493D-04-0.880D-04
 Coeff:      0.813D-03 0.499D-02-0.163D-01-0.717D-01-0.354D-01 0.112D+01
 Gap=     0.283 Goal=   None    Shift=    0.000
 Gap=     0.310 Goal=   None    Shift=    0.000
 RMSDP=2.60D-08 MaxDP=1.94D-06 DE=-4.46D-11 OVMax= 1.22D-06

 Cycle  13  Pass 1  IDiag  1:
 E= -193.643129622236     Delta-E=       -0.000000000002 Rises=F Damp=F
 DIIS: error= 2.51D-08 at cycle  13 NSaved=  13.
 NSaved=13 IEnMin=13 EnMin= -193.643129622236     IErMin=13 ErrMin= 2.51D-08
 ErrMax= 2.51D-08  0.00D+00 EMaxC= 1.00D-01 BMatC= 3.17D-13 BMatP= 4.50D-12
 IDIUse=1 WtCom= 1.00D+00 WtEn= 0.00D+00
 Coeff-Com: -0.136D-05 0.287D-05 0.122D-04 0.149D-04 0.698D-05-0.276D-03
 Coeff-Com:  0.553D-04 0.207D-02 0.168D-02-0.121D-01-0.524D-01-0.421D-02
 Coeff-Com:  0.107D+01
 Coeff:     -0.136D-05 0.287D-05 0.122D-04 0.149D-04 0.698D-05-0.276D-03
 Coeff:      0.553D-04 0.207D-02 0.168D-02-0.121D-01-0.524D-01-0.421D-02
 Coeff:      0.107D+01
 Gap=     0.283 Goal=   None    Shift=    0.000
 Gap=     0.310 Goal=   None    Shift=    0.000
 RMSDP=7.39D-09 MaxDP=5.63D-07 DE=-2.44D-12 OVMax= 3.50D-07

 SCF Done:  E(UM062X) =  -193.643129622     A.U. after   13 cycles
            NFock= 13  Conv=0.74D-08     -V/T= 2.0037
 <Sx>= 0.0000 <Sy>= 0.0000 <Sz>= 0.5000 <S**2>= 0.7552 S= 0.5026
 <L.S>= 0.000000000000E+00
 KE= 1.929230357451D+02 PE=-7.047346325244D+02 EE= 1.917617019009D+02
 Annihilation of the first spin contaminant:
 S**2 before annihilation     0.7552,   after     0.7500
 Leave Link  502 at Mon Mar 11 19:45:06 2019, MaxMem=   671088640 cpu:             373.8 elap:              26.5
 (Enter /shared/centos7/gaussian/g16/l801.exe)
 DoSCS=F DFT=T ScalE2(SS,OS)=  1.000000  1.000000
 Range of M.O.s used for correlation:     1   199
 NBasis=   199 NAE=    17 NBE=    16 NFC=     0 NFV=     0
 NROrb=    199 NOA=    17 NOB=    16 NVA=   182 NVB=   183

 **** Warning!!: The largest alpha MO coefficient is  0.40093006D+02


 **** Warning!!: The largest beta MO coefficient is  0.43532518D+02

 Leave Link  801 at Mon Mar 11 19:45:06 2019, MaxMem=   671088640 cpu:               0.5 elap:               0.0
 (Enter /shared/centos7/gaussian/g16/l1101.exe)
 Using compressed storage, NAtomX=    11.
 Will process     12 centers per pass.
 Leave Link 1101 at Mon Mar 11 19:45:06 2019, MaxMem=   671088640 cpu:               4.9 elap:               0.3
 (Enter /shared/centos7/gaussian/g16/l1102.exe)
 Symmetrizing basis deriv contribution to polar:
 IMax=3 JMax=2 DiffMx= 0.00D+00
 Leave Link 1102 at Mon Mar 11 19:45:06 2019, MaxMem=   671088640 cpu:               0.5 elap:               0.0
 (Enter /shared/centos7/gaussian/g16/l1110.exe)
 Forming Gx(P) for the SCF density, NAtomX=    11.
 Integral derivatives from FoFJK, PRISM(SPDF).
 Do as many integral derivatives as possible in FoFJK.
 G2DrvN: MDV=     671087712.
 G2DrvN: will do    12 centers at a time, making    1 passes.
 Calling FoFCou, ICntrl=  3107 FMM=F I1Cent=   0 AccDes= 0.00D+00.
 FoFJK:  IHMeth= 1 ICntrl=    3107 DoSepK=F KAlg= 0 I1Cent=           0 FoldK=F
 IRaf=         0 NMat=       1 IRICut=       1 DoRegI=T DoRafI=F ISym2E= 0 IDoP0=0 IntGTp=1.
 FoFCou: FMM=F IPFlag=           0 FMFlag=      100000 FMFlg1=           0
         NFxFlg=           0 DoJE=F BraDBF=F KetDBF=F FulRan=T
         wScrn=  0.000000 ICntrl=      3107 IOpCl=  1 I1Cent=           0 NGrid=           0
         NMat0=    1 NMatS0=      1 NMatT0=    0 NMatD0=    1 NMtDS0=    0 NMtDT0=    0
 Symmetry not used in FoFCou.
 End of G2Drv F.D. properties file   721 does not exist.
 End of G2Drv F.D. properties file   722 does not exist.
 End of G2Drv F.D. properties file   788 does not exist.
 Leave Link 1110 at Mon Mar 11 19:45:42 2019, MaxMem=   671088640 cpu:             724.3 elap:              36.2
 (Enter /shared/centos7/gaussian/g16/l1002.exe)
 Minotr:  UHF open shell wavefunction.
          IDoAtm=11111111111
          Direct CPHF calculation.
          Differentiating once with respect to nuclear coordinates.
          Requested convergence is 1.0D-08 RMS, and 1.0D-07 maximum.
          Secondary convergence is 1.0D-12 RMS, and 1.0D-12 maximum.
          NewPWx=T KeepS1=F KeepF1=F KeepIn=T MapXYZ=F SortEE=F KeepMc=T.
         3349 words used for storage of precomputed grid.
 Keep R1 and R2 ints in memory in canonical form, NReq=416899978.
 FoFCou: FMM=F IPFlag=           0 FMFlag=           0 FMFlg1=           0
         NFxFlg=           0 DoJE=F BraDBF=F KetDBF=F FulRan=T
         wScrn=  0.000000 ICntrl=       600 IOpCl=  0 I1Cent=           0 NGrid=           0
         NMat0=    1 NMatS0=  19900 NMatT0=    0 NMatD0=    1 NMtDS0=    0 NMtDT0=    0
 Symmetry not used in FoFCou.
 Two-electron integral symmetry not used.
          MDV=     671088640 using IRadAn=       1.
          Solving linear equations simultaneously, MaxMat=       0.
          There are    36 degrees of freedom in the 1st order CPHF.  IDoFFX=6 NUNeed=     0.
     30 vectors produced by pass  0 Test12= 1.67D-14 2.78D-09 XBig12= 1.34D-01 9.03D-02.
 AX will form    30 AO Fock derivatives at one time.
     30 vectors produced by pass  1 Test12= 1.67D-14 2.78D-09 XBig12= 5.30D-03 1.45D-02.
     30 vectors produced by pass  2 Test12= 1.67D-14 2.78D-09 XBig12= 1.97D-04 2.57D-03.
     30 vectors produced by pass  3 Test12= 1.67D-14 2.78D-09 XBig12= 2.45D-06 2.64D-04.
     30 vectors produced by pass  4 Test12= 1.67D-14 2.78D-09 XBig12= 3.15D-08 3.05D-05.
     30 vectors produced by pass  5 Test12= 1.67D-14 2.78D-09 XBig12= 3.53D-10 1.93D-06.
     28 vectors produced by pass  6 Test12= 1.67D-14 2.78D-09 XBig12= 2.87D-12 1.71D-07.
     11 vectors produced by pass  7 Test12= 1.67D-14 2.78D-09 XBig12= 2.15D-14 1.47D-08.
 InvSVY:  IOpt=1 It=  1 EMax= 1.55D-15
 Solved reduced A of dimension   219 with    30 vectors.
 End of Minotr F.D. properties file   721 does not exist.
 End of Minotr F.D. properties file   722 does not exist.
 End of Minotr F.D. properties file   788 does not exist.
 Leave Link 1002 at Mon Mar 11 19:46:29 2019, MaxMem=   671088640 cpu:             925.1 elap:              46.3
 (Enter /shared/centos7/gaussian/g16/l601.exe)
 Copying SCF densities to generalized density rwf, IOpCl= 1 IROHF=0.

 **********************************************************************

            Population analysis using the SCF density.

 **********************************************************************

 Orbital symmetries:
 Alpha Orbitals:
       Occupied  (A) (A) (A) (A) (A) (A) (A) (A) (A) (A) (A) (A)
                 (A) (A) (A) (A) (A)
       Virtual   (A) (A) (A) (A) (A) (A) (A) (A) (A) (A) (A) (A)
                 (A) (A) (A) (A) (A) (A) (A) (A) (A) (A) (A) (A)
                 (A) (A) (A) (A) (A) (A) (A) (A) (A) (A) (A) (A)
                 (A) (A) (A) (A) (A) (A) (A) (A) (A) (A) (A) (A)
                 (A) (A) (A) (A) (A) (A) (A) (A) (A) (A) (A) (A)
                 (A) (A) (A) (A) (A) (A) (A) (A) (A) (A) (A) (A)
                 (A) (A) (A) (A) (A) (A) (A) (A) (A) (A) (A) (A)
                 (A) (A) (A) (A) (A) (A) (A) (A) (A) (A) (A) (A)
                 (A) (A) (A) (A) (A) (A) (A) (A) (A) (A) (A) (A)
                 (A) (A) (A) (A) (A) (A) (A) (A) (A) (A) (A) (A)
                 (A) (A) (A) (A) (A) (A) (A) (A) (A) (A) (A) (A)
                 (A) (A) (A) (A) (A) (A) (A) (A) (A) (A) (A) (A)
                 (A) (A) (A) (A) (A) (A) (A) (A) (A) (A) (A) (A)
                 (A) (A) (A) (A) (A) (A) (A) (A) (A) (A) (A) (A)
                 (A) (A) (A) (A) (A) (A) (A) (A) (A) (A) (A) (A)
                 (A) (A)
 Beta  Orbitals:
       Occupied  (A) (A) (A) (A) (A) (A) (A) (A) (A) (A) (A) (A)
                 (A) (A) (A) (A)
       Virtual   (A) (A) (A) (A) (A) (A) (A) (A) (A) (A) (A) (A)
                 (A) (A) (A) (A) (A) (A) (A) (A) (A) (A) (A) (A)
                 (A) (A) (A) (A) (A) (A) (A) (A) (A) (A) (A) (A)
                 (A) (A) (A) (A) (A) (A) (A) (A) (A) (A) (A) (A)
                 (A) (A) (A) (A) (A) (A) (A) (A) (A) (A) (A) (A)
                 (A) (A) (A) (A) (A) (A) (A) (A) (A) (A) (A) (A)
                 (A) (A) (A) (A) (A) (A) (A) (A) (A) (A) (A) (A)
                 (A) (A) (A) (A) (A) (A) (A) (A) (A) (A) (A) (A)
                 (A) (A) (A) (A) (A) (A) (A) (A) (A) (A) (A) (A)
                 (A) (A) (A) (A) (A) (A) (A) (A) (A) (A) (A) (A)
                 (A) (A) (A) (A) (A) (A) (A) (A) (A) (A) (A) (A)
                 (A) (A) (A) (A) (A) (A) (A) (A) (A) (A) (A) (A)
                 (A) (A) (A) (A) (A) (A) (A) (A) (A) (A) (A) (A)
                 (A) (A) (A) (A) (A) (A) (A) (A) (A) (A) (A) (A)
                 (A) (A) (A) (A) (A) (A) (A) (A) (A) (A) (A) (A)
                 (A) (A) (A)
 The electronic state is 2-A.
 Alpha  occ. eigenvalues --  -19.62685 -10.58860 -10.57680 -10.54131  -1.16581
 Alpha  occ. eigenvalues --   -0.86554  -0.76575  -0.69355  -0.57125  -0.56362
 Alpha  occ. eigenvalues --   -0.53731  -0.48362  -0.46505  -0.44398  -0.39845
 Alpha  occ. eigenvalues --   -0.34039  -0.26303
 Alpha virt. eigenvalues --    0.01990   0.03410   0.04254   0.04800   0.05530
 Alpha virt. eigenvalues --    0.06661   0.08278   0.08834   0.11074   0.11266
 Alpha virt. eigenvalues --    0.13156   0.15104   0.18921   0.19132   0.21237
 Alpha virt. eigenvalues --    0.21947   0.22193   0.22802   0.25471   0.26512
 Alpha virt. eigenvalues --    0.27070   0.28083   0.29499   0.31557   0.35374
 Alpha virt. eigenvalues --    0.37280   0.44186   0.44514   0.48027   0.49234
 Alpha virt. eigenvalues --    0.50592   0.53097   0.53843   0.54576   0.56969
 Alpha virt. eigenvalues --    0.57991   0.58457   0.59642   0.60434   0.60988
 Alpha virt. eigenvalues --    0.62308   0.64338   0.66257   0.67121   0.69267
 Alpha virt. eigenvalues --    0.75306   0.84618   0.85445   0.88150   0.88886
 Alpha virt. eigenvalues --    0.92393   0.95296   0.96488   0.99052   1.01831
 Alpha virt. eigenvalues --    1.05418   1.06552   1.07999   1.08724   1.12136
 Alpha virt. eigenvalues --    1.16322   1.17986   1.19223   1.20577   1.21674
 Alpha virt. eigenvalues --    1.25849   1.28583   1.29402   1.32469   1.33209
 Alpha virt. eigenvalues --    1.35594   1.39751   1.41808   1.42413   1.44667
 Alpha virt. eigenvalues --    1.45526   1.46708   1.47400   1.51886   1.53411
 Alpha virt. eigenvalues --    1.53983   1.59020   1.60833   1.75531   1.77279
 Alpha virt. eigenvalues --    1.99927   2.09171   2.11845   2.22615   2.35154
 Alpha virt. eigenvalues --    2.39893   2.44099   2.46521   2.49275   2.60331
 Alpha virt. eigenvalues --    2.62591   2.71294   2.74305   2.79835   2.80810
 Alpha virt. eigenvalues --    2.88756   2.94437   2.96459   2.97429   3.03073
 Alpha virt. eigenvalues --    3.05877   3.07054   3.08063   3.11628   3.13515
 Alpha virt. eigenvalues --    3.14743   3.16043   3.21199   3.22539   3.24119
 Alpha virt. eigenvalues --    3.25915   3.31346   3.34555   3.38493   3.40427
 Alpha virt. eigenvalues --    3.41836   3.44955   3.47376   3.50062   3.54125
 Alpha virt. eigenvalues --    3.57813   3.61744   3.65043   3.67426   3.72007
 Alpha virt. eigenvalues --    3.79012   3.86549   3.86752   3.88594   3.89443
 Alpha virt. eigenvalues --    3.97011   4.02313   4.06230   4.07716   4.09394
 Alpha virt. eigenvalues --    4.14081   4.15663   4.16759   4.19119   4.22017
 Alpha virt. eigenvalues --    4.24112   4.27402   4.29355   4.34922   4.38401
 Alpha virt. eigenvalues --    4.42146   4.44263   4.50310   4.53772   4.64833
 Alpha virt. eigenvalues --    4.89362   4.92089   5.18106   5.20375   5.24057
 Alpha virt. eigenvalues --    5.31772   5.46221   5.49303   5.51052   5.52308
 Alpha virt. eigenvalues --    5.58060   5.63129   5.66808   5.82849   5.87076
 Alpha virt. eigenvalues --    6.23517   6.48910   6.71933   7.18276   7.21073
 Alpha virt. eigenvalues --    7.31403   7.66641   7.76756  24.27153  24.43656
 Alpha virt. eigenvalues --   24.50847  50.16776
  Beta  occ. eigenvalues --  -19.62681 -10.58929 -10.57680 -10.53437  -1.16536
  Beta  occ. eigenvalues --   -0.85001  -0.75545  -0.67229  -0.56710  -0.55762
  Beta  occ. eigenvalues --   -0.53332  -0.47381  -0.45583  -0.43721  -0.39653
  Beta  occ. eigenvalues --   -0.33614
  Beta virt. eigenvalues --   -0.02569   0.01714   0.03030   0.04054   0.04785
  Beta virt. eigenvalues --    0.05600   0.06785   0.08408   0.08612   0.09620
  Beta virt. eigenvalues --    0.12221   0.13210   0.14218   0.18831   0.19412
  Beta virt. eigenvalues --    0.21187   0.21993   0.22504   0.23042   0.25473
  Beta virt. eigenvalues --    0.26168   0.27081   0.28578   0.29825   0.31853
  Beta virt. eigenvalues --    0.35215   0.37453   0.44130   0.44325   0.48293
  Beta virt. eigenvalues --    0.50258   0.51442   0.53435   0.53886   0.55068
  Beta virt. eigenvalues --    0.57181   0.58436   0.58610   0.60210   0.60893
  Beta virt. eigenvalues --    0.61752   0.63145   0.64778   0.66230   0.67148
  Beta virt. eigenvalues --    0.68466   0.75477   0.84349   0.84952   0.87925
  Beta virt. eigenvalues --    0.88835   0.92471   0.95075   0.95895   0.98986
  Beta virt. eigenvalues --    1.00020   1.05425   1.06574   1.07989   1.08657
  Beta virt. eigenvalues --    1.13011   1.16172   1.17969   1.19423   1.20343
  Beta virt. eigenvalues --    1.21692   1.25951   1.28826   1.29632   1.32315
  Beta virt. eigenvalues --    1.33279   1.35615   1.40158   1.41820   1.42562
  Beta virt. eigenvalues --    1.44866   1.45726   1.47277   1.47623   1.51905
  Beta virt. eigenvalues --    1.53643   1.55402   1.59341   1.61305   1.75559
  Beta virt. eigenvalues --    1.77374   2.00136   2.09329   2.11912   2.22921
  Beta virt. eigenvalues --    2.35264   2.40109   2.44269   2.47327   2.49529
  Beta virt. eigenvalues --    2.61436   2.62962   2.72445   2.78433   2.82819
  Beta virt. eigenvalues --    2.85377   2.91808   2.96944   2.98754   3.00755
  Beta virt. eigenvalues --    3.05988   3.07649   3.08385   3.09223   3.13359
  Beta virt. eigenvalues --    3.15314   3.16938   3.17885   3.22402   3.26453
  Beta virt. eigenvalues --    3.27637   3.30491   3.33546   3.34933   3.39557
  Beta virt. eigenvalues --    3.42580   3.44323   3.45927   3.50560   3.51592
  Beta virt. eigenvalues --    3.56601   3.59243   3.61979   3.65445   3.68868
  Beta virt. eigenvalues --    3.72548   3.79485   3.86629   3.88681   3.88761
  Beta virt. eigenvalues --    3.90998   3.98215   4.02762   4.07478   4.09517
  Beta virt. eigenvalues --    4.11071   4.16707   4.17163   4.17759   4.21013
  Beta virt. eigenvalues --    4.23251   4.26803   4.28986   4.30549   4.36475
  Beta virt. eigenvalues --    4.39409   4.42914   4.44704   4.50853   4.55186
  Beta virt. eigenvalues --    4.69936   4.91078   4.94236   5.20327   5.21584
  Beta virt. eigenvalues --    5.24304   5.32215   5.48549   5.50701   5.54402
  Beta virt. eigenvalues --    5.55392   5.60216   5.63158   5.67610   5.82924
  Beta virt. eigenvalues --    5.87125   6.23775   6.48986   6.71983   7.18293
  Beta virt. eigenvalues --    7.21114   7.31439   7.66696   7.76796  24.28221
  Beta virt. eigenvalues --   24.43657  24.51420  50.16770
          Condensed to atoms (all electrons):
               1          2          3          4          5          6
     1  O    8.279936   0.113455   0.127005  -0.104007  -0.058698  -0.047377
     2  C    0.113455   5.003905  -0.097703   0.345234   0.434252   0.453212
     3  C    0.127005  -0.097703   4.933792  -0.019755   0.003129   0.002519
     4  C   -0.104007   0.345234  -0.019755   5.438354  -0.055595  -0.068215
     5  H   -0.058698   0.434252   0.003129  -0.055595   0.606623  -0.064552
     6  H   -0.047377   0.453212   0.002519  -0.068215  -0.064552   0.583009
     7  H   -0.047002  -0.004133   0.435908  -0.002638   0.008909  -0.003594
     8  H   -0.055608   0.013043   0.424853   0.002640   0.000051   0.000054
     9  H   -0.047575  -0.004243   0.436942  -0.002276  -0.003972   0.007850
    10  H   -0.002369  -0.017662   0.002530   0.398239   0.001141   0.003756
    11  H    0.008648  -0.032729   0.000241   0.407833  -0.001554  -0.002116
               7          8          9         10         11
     1  O   -0.047002  -0.055608  -0.047575  -0.002369   0.008648
     2  C   -0.004133   0.013043  -0.004243  -0.017662  -0.032729
     3  C    0.435908   0.424853   0.436942   0.002530   0.000241
     4  C   -0.002638   0.002640  -0.002276   0.398239   0.407833
     5  H    0.008909   0.000051  -0.003972   0.001141  -0.001554
     6  H   -0.003594   0.000054   0.007850   0.003756  -0.002116
     7  H    0.578968  -0.025629  -0.053137  -0.000017  -0.000008
     8  H   -0.025629   0.536501  -0.025368   0.000007   0.000011
     9  H   -0.053137  -0.025368   0.579352  -0.000034   0.000017
    10  H   -0.000017   0.000007  -0.000034   0.457429  -0.021253
    11  H   -0.000008   0.000011   0.000017  -0.021253   0.476809
          Atomic-Atomic Spin Densities.
               1          2          3          4          5          6
     1  O    0.003168   0.009376   0.000128  -0.006883  -0.010465   0.005993
     2  C    0.009376  -0.045664   0.000607  -0.067518   0.036352   0.015221
     3  C    0.000128   0.000607   0.005619  -0.000719  -0.003211   0.001719
     4  C   -0.006883  -0.067518  -0.000719   1.201686  -0.043866  -0.030699
     5  H   -0.010465   0.036352  -0.003211  -0.043866   0.086566  -0.020480
     6  H    0.005993   0.015221   0.001719  -0.030699  -0.020480   0.055106
     7  H   -0.000530   0.002029   0.000193  -0.001099   0.000381  -0.000086
     8  H    0.000143   0.000024  -0.000785   0.000060   0.000004  -0.000005
     9  H    0.000043  -0.000889   0.000277   0.000306  -0.000189   0.000354
    10  H    0.001825   0.005180   0.000814  -0.007914   0.000059  -0.000016
    11  H   -0.000146   0.005004  -0.000017  -0.003387  -0.000608   0.001001
               7          8          9         10         11
     1  O   -0.000530   0.000143   0.000043   0.001825  -0.000146
     2  C    0.002029   0.000024  -0.000889   0.005180   0.005004
     3  C    0.000193  -0.000785   0.000277   0.000814  -0.000017
     4  C   -0.001099   0.000060   0.000306  -0.007914  -0.003387
     5  H    0.000381   0.000004  -0.000189   0.000059  -0.000608
     6  H   -0.000086  -0.000005   0.000354  -0.000016   0.001001
     7  H   -0.001645   0.000128  -0.000152   0.000024  -0.000000
     8  H    0.000128  -0.000077   0.000164  -0.000001  -0.000001
     9  H   -0.000152   0.000164  -0.000318  -0.000008   0.000000
    10  H    0.000024  -0.000001  -0.000008  -0.042074   0.004226
    11  H   -0.000000  -0.000001   0.000000   0.004226  -0.046285
 Mulliken charges and spin densities:
               1          2
     1  O   -0.166410   0.002651
     2  C   -0.206631  -0.040278
     3  C   -0.249460   0.004625
     4  C   -0.339814   1.039967
     5  H    0.130265   0.044544
     6  H    0.135454   0.028107
     7  H    0.112373  -0.000759
     8  H    0.129447  -0.000346
     9  H    0.112443  -0.000413
    10  H    0.178233  -0.037885
    11  H    0.164101  -0.040214
 Sum of Mulliken charges =  -0.00000   1.00000
 Mulliken charges and spin densities with hydrogens summed into heavy atoms:
               1          2
     1  O   -0.166410   0.002651
     2  C    0.059088   0.032373
     3  C    0.104803   0.003107
     4  C    0.002519   0.961869
 APT charges:
               1
     1  O   -0.073990
     2  C   -0.604815
     3  C   -1.156812
     4  C   -0.907282
     5  H    0.326441
     6  H    0.335405
     7  H    0.332543
     8  H    0.479804
     9  H    0.335724
    10  H    0.375633
    11  H    0.557350
 Sum of APT charges =  -0.00000
 APT charges with hydrogens summed into heavy atoms:
               1
     1  O   -0.073990
     2  C    0.057031
     3  C   -0.008742
     4  C    0.025701
 Electronic spatial extent (au):  <R**2>=            344.9742
 Charge=             -0.0000 electrons
 Dipole moment (field-independent basis, Debye):
    X=              0.3827    Y=              1.3656    Z=              0.2232  Tot=              1.4357
 Quadrupole moment (field-independent basis, Debye-Ang):
   XX=            -23.2856   YY=            -26.5040   ZZ=            -27.1997
   XY=             -0.2120   XZ=             -0.0903   YZ=             -0.4765
 Traceless Quadrupole moment (field-independent basis, Debye-Ang):
   XX=              2.3775   YY=             -0.8409   ZZ=             -1.5366
   XY=             -0.2120   XZ=             -0.0903   YZ=             -0.4765
 Octapole moment (field-independent basis, Debye-Ang**2):
  XXX=              6.2351  YYY=             -2.4915  ZZZ=              0.2990  XYY=              0.0151
  XXY=             -1.1742  XXZ=             -0.3316  XZZ=              3.4490  YZZ=              1.0249
  YYZ=              0.1373  XYZ=              0.7552
 Hexadecapole moment (field-independent basis, Debye-Ang**3):
 XXXX=           -349.9344 YYYY=            -70.5194 ZZZZ=            -44.5493 XXXY=            -10.0657
 XXXZ=              0.7641 YYYX=             -0.8235 YYYZ=             -1.2368 ZZZX=             -0.2270
 ZZZY=             -0.2561 XXYY=            -68.1923 XXZZ=            -73.7573 YYZZ=            -18.8389
 XXYZ=             -1.6381 YYXZ=             -1.0125 ZZXY=             -0.2867
 N-N= 1.264067652562D+02 E-N=-7.047346315044D+02  KE= 1.929230357451D+02
  Exact polarizability:   0.000   0.000   0.000   0.000   0.000   0.000
 Approx polarizability:  48.712   0.549  46.239   0.256   0.142  43.452
                          Isotropic Fermi Contact Couplings
        Atom                 a.u.       MegaHertz       Gauss      10(-4) cm-1
     1  O(17)              0.00650      -3.93922      -1.40561      -1.31398
     2  C(13)             -0.03746     -42.11593     -15.02801     -14.04836
     3  C(13)             -0.00124      -1.39485      -0.49772      -0.46527
     4  C(13)              0.17166     192.98041      68.86021      64.37133
     5  H(1)               0.02664     119.08217      42.49148      39.72154
     6  H(1)               0.01627      72.72892      25.95149      24.25976
     7  H(1)               0.00013       0.58875       0.21008       0.19638
     8  H(1)              -0.00010      -0.46068      -0.16438      -0.15367
     9  H(1)               0.00003       0.13462       0.04803       0.04490
    10  H(1)              -0.01610     -71.96814     -25.68002     -24.00599
    11  H(1)              -0.01616     -72.25507     -25.78240     -24.10170
 --------------------------------------------------------
       Center         ----  Spin Dipole Couplings  ----
                      3XX-RR        3YY-RR        3ZZ-RR
 --------------------------------------------------------
     1   Atom        0.020337     -0.003440     -0.016897
     2   Atom        0.004804     -0.012219      0.007415
     3   Atom        0.004048     -0.003430     -0.000618
     4   Atom       -0.545844     -0.495476      1.041320
     5   Atom        0.005556     -0.000180     -0.005376
     6   Atom        0.003971      0.002799     -0.006771
     7   Atom        0.004506     -0.002452     -0.002054
     8   Atom        0.003075     -0.001452     -0.001623
     9   Atom        0.004006     -0.002065     -0.001941
    10   Atom       -0.072366      0.072051      0.000315
    11   Atom        0.028791     -0.023962     -0.004829
 --------------------------------------------------------
                        XY            XZ            YZ
 --------------------------------------------------------
     1   Atom       -0.011846      0.002116      0.003571
     2   Atom        0.005249      0.007801     -0.000960
     3   Atom        0.000088      0.001617      0.001047
     4   Atom       -0.023501     -0.108203      0.290546
     5   Atom        0.010818      0.005866      0.008109
     6   Atom        0.013265     -0.006379     -0.005704
     7   Atom        0.000384      0.001166      0.000553
     8   Atom       -0.000979      0.000046      0.000156
     9   Atom        0.001128     -0.001285     -0.000278
    10   Atom        0.008933     -0.006953     -0.018332
    11   Atom       -0.070090      0.009428      0.003321
 --------------------------------------------------------


 ---------------------------------------------------------------------------------
              Anisotropic Spin Dipole Couplings in Principal Axis System
 ---------------------------------------------------------------------------------

       Atom             a.u.   MegaHertz   Gauss  10(-4) cm-1        Axes

              Baa    -0.0186     1.343     0.479     0.448 -0.1540 -0.3398  0.9278
     1 O(17)  Bbb    -0.0067     0.484     0.173     0.161  0.3479  0.8602  0.3728
              Bcc     0.0252    -1.826    -0.652    -0.609  0.9248 -0.3802  0.0142
 
              Baa    -0.0142    -1.905    -0.680    -0.635 -0.3226  0.9333  0.1579
     2 C(13)  Bbb    -0.0001    -0.014    -0.005    -0.005  0.6733  0.3436 -0.6547
              Bcc     0.0143     1.919     0.685     0.640  0.6652  0.1049  0.7392
 
              Baa    -0.0038    -0.510    -0.182    -0.170  0.0592  0.9390 -0.3389
     3 C(13)  Bbb    -0.0008    -0.103    -0.037    -0.035 -0.3047  0.3403  0.8896
              Bcc     0.0046     0.614     0.219     0.205  0.9506  0.0506  0.3063
 
              Baa    -0.5553   -74.512   -26.588   -24.855  0.8758  0.4819 -0.0283
     4 C(13)  Bbb    -0.5466   -73.345   -26.171   -24.465 -0.4780  0.8576 -0.1895
              Bcc     1.1018   147.858    52.759    49.320 -0.0670  0.1795  0.9815
 
              Baa    -0.0116    -6.192    -2.210    -2.065  0.1859 -0.6796  0.7096
     5 H(1)   Bbb    -0.0063    -3.353    -1.196    -1.118  0.6841 -0.4289 -0.5899
              Bcc     0.0179     9.545     3.406     3.184  0.7053  0.5951  0.3853
 
              Baa    -0.0100    -5.361    -1.913    -1.788  0.7105 -0.5261  0.4673
     6 H(1)   Bbb    -0.0094    -5.018    -1.791    -1.674 -0.1430  0.5423  0.8279
              Bcc     0.0195    10.379     3.704     3.462  0.6890  0.6550 -0.3101
 
              Baa    -0.0029    -1.527    -0.545    -0.509  0.0572  0.7831 -0.6192
     7 H(1)   Bbb    -0.0019    -1.001    -0.357    -0.334 -0.1770  0.6184  0.7657
              Bcc     0.0047     2.528     0.902     0.843  0.9825  0.0658  0.1740
 
              Baa    -0.0018    -0.961    -0.343    -0.321  0.1518  0.7244 -0.6725
     8 H(1)   Bbb    -0.0015    -0.788    -0.281    -0.263  0.1342  0.6590  0.7401
              Bcc     0.0033     1.749     0.624     0.583  0.9793 -0.2026  0.0028
 
              Baa    -0.0023    -1.223    -0.436    -0.408 -0.0610  0.8790  0.4729
     9 H(1)   Bbb    -0.0022    -1.166    -0.416    -0.389  0.2589 -0.4436  0.8580
              Bcc     0.0045     2.389     0.852     0.797  0.9640  0.1747 -0.2005
 
              Baa    -0.0734   -39.158   -13.972   -13.062  0.9954 -0.0509  0.0812
    10 H(1)   Bbb    -0.0038    -2.020    -0.721    -0.674 -0.0666  0.2418  0.9680
              Bcc     0.0772    41.178    14.693    13.735  0.0689  0.9690 -0.2373
 
              Baa    -0.0734   -39.180   -13.980   -13.069  0.5689  0.8139 -0.1176
    11 H(1)   Bbb    -0.0043    -2.288    -0.816    -0.763  0.0084  0.1372  0.9905
              Bcc     0.0777    41.468    14.797    13.832  0.8223 -0.5645  0.0712
 

 ---------------------------------------------------------------------------------

 No NMR shielding tensors so no spin-rotation constants.
 Leave Link  601 at Mon Mar 11 19:46:29 2019, MaxMem=   671088640 cpu:               8.0 elap:               0.4
 (Enter /shared/centos7/gaussian/g16/l701.exe)
 ... and contract with generalized density number  0.
 Compute integral second derivatives.
 Leave Link  701 at Mon Mar 11 19:46:29 2019, MaxMem=   671088640 cpu:               6.4 elap:               0.3
 (Enter /shared/centos7/gaussian/g16/l702.exe)
 L702 exits ... SP integral derivatives will be done elsewhere.
 Leave Link  702 at Mon Mar 11 19:46:30 2019, MaxMem=   671088640 cpu:               0.3 elap:               0.0
 (Enter /shared/centos7/gaussian/g16/l703.exe)
 Integral derivatives from FoFJK, PRISM(SPDF).
 Compute integral second derivatives, UseDBF=F ICtDFT=           0.
 Calling FoFJK, ICntrl=    100147 FMM=F ISym2X=0 I1Cent= 0 IOpClX= 1 NMat=1 NMatS=1 NMatT=0.
 FoFJK:  IHMeth= 1 ICntrl=  100147 DoSepK=F KAlg= 0 I1Cent=           0 FoldK=F
 IRaf=         0 NMat=       1 IRICut=       1 DoRegI=T DoRafI=F ISym2E= 0 IDoP0=0 IntGTp=1.
 FoFCou: FMM=F IPFlag=           0 FMFlag=      100000 FMFlg1=         800
         NFxFlg=           0 DoJE=F BraDBF=F KetDBF=F FulRan=T
         wScrn=  0.000000 ICntrl=    100147 IOpCl=  1 I1Cent=           0 NGrid=           0
         NMat0=    1 NMatS0=      1 NMatT0=    0 NMatD0=    1 NMtDS0=    0 NMtDT0=    0
 Symmetry not used in FoFCou.
 Leave Link  703 at Mon Mar 11 19:47:10 2019, MaxMem=   671088640 cpu:             801.7 elap:              40.1
 (Enter /shared/centos7/gaussian/g16/l716.exe)
 Dipole        = 1.50575728D-01 5.37267211D-01 8.78052396D-02
 Polarizability= 0.00000000D+00 0.00000000D+00 0.00000000D+00
                 0.00000000D+00 0.00000000D+00 0.00000000D+00
 ***** Axes restored to original set *****
 -------------------------------------------------------------------
 Center     Atomic                   Forces (Hartrees/Bohr)
 Number     Number              X              Y              Z
 -------------------------------------------------------------------
      1        8           0.000000470    0.000000411   -0.000001014
      2        6          -0.000000154   -0.000000440    0.000000401
      3        6           0.000000027    0.000001152   -0.000000007
      4        6           0.000000251   -0.000001236   -0.000000692
      5        1          -0.000000720   -0.000001771    0.000001358
      6        1          -0.000000611    0.000000994    0.000001564
      7        1          -0.000000374   -0.000000192    0.000000859
      8        1           0.000000645    0.000001775   -0.000001222
      9        1          -0.000000290    0.000002618    0.000001100
     10        1           0.000000925   -0.000001671   -0.000002440
     11        1          -0.000000170   -0.000001640    0.000000093
 -------------------------------------------------------------------
 Cartesian Forces:  Max     0.000002618 RMS     0.000001114
 Force constants in Cartesian coordinates: 
                1             2             3             4             5 
      1  0.533314D+00
      2 -0.255438D-01  0.352710D+00
      3  0.162624D-02  0.220223D-01  0.100453D+00
      4 -0.159008D+00  0.582754D-01  0.518479D-02  0.525428D+00
      5  0.102081D+00 -0.182003D+00 -0.770506D-02  0.256084D-01  0.525966D+00
      6  0.110432D-01 -0.750425D-02 -0.632140D-01 -0.832929D-04 -0.208008D-01
      7 -0.231888D+00 -0.451769D-01 -0.523437D-02 -0.502396D-01 -0.537308D-02
      8 -0.906474D-01 -0.124119D+00 -0.618332D-02  0.284429D-01  0.904563D-02
      9 -0.946276D-02 -0.569429D-02 -0.637821D-01  0.226867D-02  0.154272D-02
     10 -0.432533D-01 -0.809745D-02 -0.139654D-02 -0.209816D+00 -0.588716D-01
     11  0.329047D-01  0.131482D-01  0.904379D-03 -0.794811D-01 -0.123701D+00
     12 -0.588548D-03 -0.236912D-05  0.153472D-02 -0.699711D-02  0.770124D-02
     13 -0.910524D-02  0.233171D-01  0.224938D-01 -0.499325D-01 -0.199009D-01
     14  0.128259D-01 -0.255145D-01 -0.247445D-01 -0.116160D-01 -0.983171D-01
     15  0.612987D-02 -0.724803D-02  0.302344D-02 -0.220226D-01 -0.923530D-01
     16 -0.888274D-02  0.250420D-01 -0.192163D-01 -0.535590D-01 -0.199811D-01
     17  0.124984D-01 -0.277981D-01  0.185926D-01 -0.149330D-01 -0.133825D+00
     18 -0.492948D-02  0.112755D-02  0.812924D-02  0.222313D-01  0.113282D+00
     19 -0.220792D-01 -0.223208D-01 -0.303848D-01  0.445632D-02 -0.527553D-02
     20 -0.133834D-01 -0.958532D-02 -0.135290D-01  0.211427D-02 -0.120591D-03
     21 -0.824652D-02 -0.326659D-02  0.515919D-02  0.160464D-02 -0.190212D-03
     22 -0.341717D-01  0.244665D-01  0.180870D-02 -0.323597D-02 -0.532089D-02
     23 -0.135722D-01  0.147616D-01  0.112677D-02 -0.244856D-02 -0.134034D-03
     24 -0.158660D-02  0.142495D-02  0.249030D-03 -0.223846D-03 -0.756469D-04
     25 -0.227622D-01 -0.272419D-01  0.255866D-01  0.441598D-02 -0.594181D-02
     26 -0.147015D-01 -0.116463D-01  0.101555D-01  0.227037D-02  0.100465D-03
     27  0.515026D-02 -0.415558D-03  0.826870D-02 -0.113686D-02 -0.163501D-03
     28  0.343783D-02  0.765724D-03 -0.190005D-04  0.116043D-02 -0.254113D-01
     29  0.646372D-03  0.131946D-02 -0.404069D-03  0.244053D-02 -0.804072D-02
     30  0.146891D-04  0.445583D-03 -0.503221D-03 -0.271278D-03 -0.308620D-02
     31 -0.560175D-02 -0.348579D-02 -0.449084D-03 -0.966997D-02  0.183869D-01
     32 -0.310779D-02 -0.127324D-02 -0.235472D-03 -0.106732D-01  0.110295D-01
     33  0.849676D-03 -0.889284D-03  0.681772D-03 -0.554357D-03  0.184876D-02
                6             7             8             9            10 
      6  0.503980D+00
      7 -0.439165D-03  0.534790D+00
      8  0.119813D-02 -0.588991D-01  0.590212D+00
      9 -0.384014D-02 -0.564705D-02  0.176273D-02  0.560356D+00
     10 -0.723932D-02 -0.298231D-02  0.320394D-02  0.976035D-04  0.585555D+00
     11  0.681664D-02  0.196622D-02 -0.441967D-02 -0.479598D-03 -0.322265D-01
     12 -0.434798D-01 -0.388289D-03  0.756659D-04  0.124985D-04  0.410683D-01
     13 -0.354690D-01  0.463509D-02  0.370977D-02  0.351477D-02 -0.830784D-02
     14 -0.937207D-01 -0.397040D-02 -0.550402D-03  0.746697D-04 -0.998978D-02
     15 -0.212110D+00 -0.167866D-02  0.381606D-03  0.128802D-02 -0.525364D-02
     16  0.286303D-01  0.486048D-02  0.408160D-02 -0.266844D-02 -0.313914D-02
     17  0.111637D+00 -0.391177D-02 -0.412242D-03 -0.592784D-03 -0.752217D-02
     18 -0.188305D+00  0.781753D-03 -0.572169D-03  0.115995D-02  0.671780D-03
     19 -0.341729D-02 -0.521547D-01 -0.680520D-02 -0.172991D-01 -0.389723D-03
     20  0.160777D-02 -0.949922D-02 -0.107580D+00 -0.101250D+00  0.576717D-04
     21  0.140141D-02 -0.206107D-01 -0.102881D+00 -0.241279D+00 -0.140052D-04
     22 -0.432667D-03 -0.153590D+00  0.127600D+00  0.990661D-02 -0.994653D-03
     23 -0.280538D-04  0.140692D+00 -0.217398D+00 -0.129269D-01 -0.625711D-03
     24  0.138747D-03  0.109868D-01 -0.129898D-01 -0.519555D-01 -0.197916D-04
     25  0.260035D-02 -0.533099D-01 -0.122157D-01  0.191311D-01 -0.367119D-03
     26 -0.178536D-02 -0.154018D-01 -0.146200D+00  0.117618D+00 -0.186884D-04
     27  0.117084D-02  0.219977D-01  0.119347D+00 -0.202508D+00  0.112838D-03
     28  0.670568D-02 -0.258073D-03 -0.146059D-04  0.436082D-04 -0.556086D-01
     29  0.436011D-02  0.236492D-03  0.439927D-03 -0.712710D-04 -0.236386D-01
     30  0.433730D-02 -0.399601D-04 -0.117916D-03 -0.496441D-04  0.106368D-02
     31 -0.189872D-02  0.137187D-03  0.154362D-02  0.115027D-03 -0.260696D+00
     32 -0.178021D-02 -0.662031D-03  0.981891D-03  0.170742D-04  0.137729D+00
     33 -0.785604D-04  0.271958D-03 -0.214398D-04  0.597302D-03 -0.290909D-01
               11            12            13            14            15 
     11  0.619962D+00
     12 -0.108576D+00  0.693706D-01
     13 -0.173416D-01 -0.192215D-01  0.602803D-01
     14 -0.835984D-02 -0.110120D-01  0.106097D-01  0.122043D+00
     15 -0.121360D-02  0.287580D-02  0.260406D-01  0.111597D+00  0.231974D+00
     16 -0.218245D-01  0.172197D-01  0.360984D-02  0.164348D-02 -0.414386D-02
     17 -0.115449D-01  0.938774D-02  0.899925D-03  0.101339D-01 -0.111467D-01
     18 -0.216310D-02  0.376032D-02  0.372175D-02  0.164392D-01 -0.256395D-01
     19  0.931742D-04  0.337300D-03  0.614921D-03  0.919519D-03  0.138042D-02
     20  0.202146D-03  0.247585D-03 -0.881028D-03  0.816269D-03  0.331905D-04
     21  0.506755D-03  0.284967D-03 -0.133591D-02  0.594224D-03 -0.205887D-03
     22  0.173543D-02 -0.710988D-04  0.709720D-04  0.105387D-03  0.280380D-03
     23  0.715336D-03 -0.638455D-04 -0.163938D-03  0.123029D-03  0.303196D-03
     24 -0.146829D-04  0.404507D-03 -0.151452D-03  0.403760D-03  0.376068D-03
     25  0.147792D-03 -0.240269D-03 -0.465127D-03  0.577965D-03 -0.817429D-04
     26  0.363234D-03 -0.243836D-03 -0.374244D-03  0.132760D-03  0.108234D-03
     27 -0.512996D-03  0.215552D-03 -0.138714D-03  0.115392D-03 -0.675555D-03
     28 -0.205884D-01  0.762593D-03 -0.129071D-02 -0.582214D-03 -0.731418D-04
     29 -0.338165D+00  0.732858D-01 -0.410107D-03 -0.289844D-03  0.370314D-04
     30  0.784993D-01 -0.223654D-01 -0.246247D-03  0.322408D-03 -0.113784D-02
     31  0.134615D+00 -0.318811D-01 -0.109765D-03 -0.523480D-03 -0.577561D-03
     32 -0.148200D+00  0.292001D-01  0.535355D-03 -0.217486D-03 -0.498538D-03
     33  0.262330D-01 -0.126137D-01  0.791952D-03 -0.690542D-04  0.231841D-03
               16            17            18            19            20 
     16  0.601882D-01
     17  0.132148D-01  0.162130D+00
     18 -0.216170D-01 -0.127320D+00  0.202011D+00
     19 -0.455047D-03  0.543078D-03  0.233058D-03  0.634579D-01
     20 -0.371696D-03  0.136922D-03  0.633491D-05  0.216517D-01  0.115570D+00
     21  0.374183D-04  0.268637D-04 -0.666928D-03  0.288816D-01  0.117013D+00
     22 -0.192833D-05  0.159772D-03 -0.259885D-03  0.419413D-02 -0.240803D-02
     23 -0.230209D-03  0.207399D-03 -0.301098D-03  0.827614D-02 -0.102177D-01
     24  0.170927D-03 -0.381550D-03  0.257139D-03  0.181692D-01 -0.219558D-01
     25  0.605098D-03  0.113401D-02 -0.123767D-02  0.227839D-02  0.274047D-02
     26 -0.114923D-02  0.863496D-03  0.146995D-03  0.279408D-02  0.107823D-01
     27  0.123929D-02 -0.317974D-03 -0.313269D-03  0.211637D-02  0.178723D-01
     28 -0.376096D-02 -0.182272D-02 -0.251303D-03  0.131872D-03  0.581904D-04
     29 -0.129876D-02 -0.236759D-03 -0.117668D-02  0.763709D-04 -0.153642D-04
     30  0.724365D-03  0.853378D-03 -0.832699D-03 -0.632839D-04 -0.633137D-04
     31  0.535219D-03 -0.260344D-03  0.655681D-03 -0.548916D-04 -0.789648D-04
     32  0.873649D-03  0.346004D-03  0.531517D-03  0.474220D-04  0.118650D-04
     33 -0.376429D-03 -0.738001D-03  0.440484D-03  0.465769D-04  0.182505D-04
               21            22            23            24            25 
     21  0.257325D+00
     22  0.731159D-03  0.183611D+00
     23  0.401739D-03 -0.143216D+00  0.225715D+00
     24 -0.318720D-03 -0.109069D-01  0.139156D-01  0.482121D-01
     25 -0.110886D-02  0.456968D-02  0.113229D-01 -0.164238D-01  0.649652D-01
     26 -0.121759D-01 -0.269348D-02 -0.136308D-01  0.196764D-01  0.291924D-01
     27 -0.216301D-01 -0.111095D-02 -0.244317D-02  0.262790D-02 -0.281096D-01
     28  0.140151D-03  0.376676D-04  0.126475D-03 -0.161490D-04  0.145022D-03
     29 -0.716770D-05 -0.794501D-04 -0.153512D-04 -0.695333D-05  0.205831D-03
     30 -0.209281D-04  0.312314D-04  0.161965D-04  0.130888D-04 -0.280687D-04
     31 -0.789992D-04 -0.489664D-03 -0.160769D-03  0.163166D-05 -0.749911D-04
     32 -0.220757D-04 -0.349710D-03 -0.126934D-03  0.379841D-05  0.781095D-04
     33 -0.491388D-04  0.233851D-04  0.000000D+00 -0.435843D-05 -0.879946D-04
               26            27            28            29            30 
     26  0.159236D+00
     27 -0.133530D+00  0.212903D+00
     28  0.187775D-03 -0.206826D-03  0.498427D-01
     29 -0.126873D-04  0.107441D-04  0.255406D-01  0.352063D+00
     30  0.301851D-04 -0.285111D-04 -0.213991D-02 -0.784485D-01  0.191446D-01
     31 -0.105600D-03  0.864801D-04  0.616280D-02 -0.371936D-02  0.954784D-03
     32  0.116408D-04  0.373572D-04  0.217404D-01 -0.704695D-02  0.154881D-02
     33  0.000000D+00 -0.302458D-04 -0.494570D-02  0.242088D-02  0.144329D-02
               31            32            33 
     31  0.269862D+00
     32 -0.146211D+00  0.144484D+00
     33  0.330718D-01 -0.288024D-01  0.938128D-02
 FormGI is forming the generalized inverse of G from B-inverse, IUseBI=4.
 Force constants in internal coordinates: 
                1             2             3             4             5 
      1  0.374500D+00
      2  0.266266D-02  0.383230D+00
      3  0.210681D-01  0.167931D-02  0.328687D+00
      4  0.185455D-01 -0.178119D-03  0.144445D-01  0.304543D+00
      5  0.179890D-01 -0.101228D-04  0.100693D-01  0.656478D-02  0.313396D+00
      6 -0.358861D-03  0.183270D-01 -0.261416D-03  0.400900D-03  0.492584D-03
      7 -0.187190D-02  0.107455D-01  0.225893D-03 -0.583724D-04 -0.354366D-04
      8 -0.283440D-03  0.182902D-01 -0.282091D-03  0.500168D-03  0.383547D-03
      9  0.184863D-03 -0.585697D-03  0.205737D-02  0.258551D-04 -0.209672D-03
     10  0.709935D-03 -0.318143D-03  0.177201D-02  0.352751D-03  0.556250D-03
     11  0.489206D-01  0.496480D-01  0.928830D-02 -0.289162D-02 -0.222981D-02
     12  0.226210D-01  0.119776D-01  0.232092D-01 -0.516305D-02 -0.409807D-02
     13  0.147415D-01 -0.816740D-02 -0.167559D-01  0.331440D-02 -0.614043D-03
     14  0.130640D-01 -0.798204D-02 -0.146020D-01 -0.705536D-03  0.184052D-02
     15 -0.233596D-01  0.161979D-02  0.858891D-02  0.323202D-02 -0.595246D-02
     16 -0.225303D-01  0.122554D-02  0.826483D-02 -0.571269D-02  0.373037D-02
     17 -0.505925D-02  0.569297D-03 -0.104963D-01  0.548636D-02  0.537749D-02
     18 -0.810492D-02  0.275395D-01  0.100488D-03  0.254632D-02 -0.495631D-03
     19  0.803062D-02  0.272296D-01  0.107791D-02  0.888629D-04  0.580707D-04
     20 -0.813474D-02  0.275974D-01 -0.768810D-04 -0.459766D-03  0.257332D-02
     21  0.282376D-02 -0.274269D-01 -0.472922D-03 -0.131428D-02 -0.286627D-03
     22  0.294942D-02 -0.291493D-01 -0.181039D-03 -0.597566D-03 -0.624061D-03
     23  0.278488D-02 -0.274548D-01 -0.466571D-03 -0.326420D-03 -0.128446D-02
     24 -0.482018D-02 -0.438420D-03  0.943379D-02  0.326767D-03  0.132266D-02
     25  0.617929D-02  0.607233D-03  0.562513D-02  0.712566D-03 -0.278575D-03
     26 -0.138275D-02 -0.175168D-03 -0.148366D-01 -0.976307D-03 -0.107973D-02
     27 -0.501995D-04 -0.379258D-03  0.567791D-03 -0.443691D-02  0.433426D-02
     28 -0.518785D-02  0.402280D-02  0.152459D-01 -0.160504D-02 -0.602023D-02
     29  0.470942D-02 -0.458474D-02 -0.154971D-01  0.654650D-02  0.117233D-02
     30 -0.364714D-02  0.404189D-03 -0.122686D-03 -0.464460D-04  0.675481D-03
     31  0.896744D-04  0.305121D-04  0.326933D-04 -0.108180D-03  0.719824D-04
     32  0.376120D-02 -0.366332D-03  0.917617D-04 -0.719758D-03  0.420345D-04
     33  0.126105D-03 -0.550392D-04 -0.105067D-02  0.312581D-02 -0.222525D-02
     34 -0.180774D-03 -0.118637D-03 -0.711722D-03  0.350750D-02 -0.258485D-02
     35 -0.181650D-01  0.121224D-02 -0.941871D-03  0.307142D-03  0.507492D-02
     36 -0.184719D-01  0.114864D-02 -0.602918D-03  0.688833D-03  0.471532D-02
     37  0.168544D-01 -0.127567D-02  0.151672D-02 -0.493225D-02 -0.212248D-03
     38  0.165475D-01 -0.133926D-02  0.185567D-02 -0.455056D-02 -0.571847D-03
                6             7             8             9            10 
      6  0.328073D+00
      7  0.316652D-02  0.350437D+00
      8  0.430137D-02  0.319044D-02  0.328387D+00
      9 -0.230642D-04  0.491299D-04 -0.263384D-04  0.371615D+00
     10  0.980302D-04  0.882179D-04  0.106062D-03  0.457663D-03  0.371473D+00
     11 -0.270703D-02  0.488546D-02 -0.230286D-02  0.493061D-04  0.919631D-03
     12 -0.292796D-03  0.103492D-02 -0.381384D-03 -0.488135D-02  0.516883D-02
     13  0.175749D-02 -0.453764D-03 -0.877361D-04  0.108136D-02 -0.169754D-02
     14 -0.125505D-03 -0.436630D-03  0.183033D-02  0.697436D-03 -0.161787D-02
     15 -0.123429D-02 -0.958271D-04 -0.814114D-04  0.119455D-02 -0.953490D-03
     16 -0.535358D-04 -0.123644D-03 -0.125228D-02  0.336747D-02 -0.132155D-02
     17 -0.125064D-04  0.179878D-04  0.230621D-04 -0.127743D-02  0.161142D-03
     18  0.208477D-02 -0.496841D-02 -0.554584D-02 -0.143931D-03  0.362309D-05
     19 -0.530337D-02  0.336575D-02 -0.527002D-02  0.218888D-03  0.271389D-03
     20 -0.551893D-02 -0.503295D-02  0.198058D-02 -0.294102D-03  0.944937D-04
     21  0.642391D-02  0.588048D-02 -0.549456D-02  0.543314D-04 -0.130554D-03
     22  0.772909D-02 -0.460560D-02  0.771992D-02  0.689513D-04 -0.105844D-03
     23 -0.548369D-02  0.589062D-02  0.655294D-02  0.105650D-03 -0.139059D-03
     24 -0.261428D-03 -0.738619D-04 -0.464837D-03  0.596033D-02 -0.104119D-01
     25  0.208402D-03  0.271311D-03  0.319470D-03 -0.957355D-02  0.587457D-02
     26  0.584767D-04 -0.194555D-03  0.141067D-03  0.376508D-02  0.465977D-02
     27  0.435379D-03 -0.101518D-04 -0.308402D-03  0.858705D-03 -0.142252D-03
     28 -0.157112D-03  0.239131D-03 -0.707090D-03 -0.734225D-04  0.877860D-03
     29  0.776290D-03 -0.251671D-03  0.314292D-03 -0.591546D-03 -0.835943D-03
     30  0.506900D-03 -0.635020D-02  0.701137D-02 -0.371895D-04 -0.447477D-04
     31  0.625500D-02  0.354504D-04 -0.623943D-02  0.820061D-04 -0.323273D-04
     32 -0.698016D-02  0.639526D-02 -0.373841D-03  0.176147D-03  0.226534D-04
     33  0.496919D-03 -0.741807D-05 -0.537767D-03 -0.114653D-02 -0.580465D-03
     34  0.542276D-03 -0.342467D-05 -0.557816D-03  0.328541D-03  0.730799D-03
     35 -0.711418D-03 -0.609144D-04 -0.124360D-03 -0.492109D-04 -0.125256D-02
     36 -0.666061D-03 -0.569210D-04 -0.144409D-03  0.142586D-02  0.587010D-04
     37  0.109497D-03  0.542934D-04  0.683809D-03 -0.132535D-02 -0.268325D-04
     38  0.154855D-03  0.582868D-04  0.663760D-03  0.149724D-03  0.128443D-02
               11            12            13            14            15 
     11  0.280924D+00
     12  0.196000D-01  0.164012D+00
     13 -0.634276D-02 -0.594857D-01  0.729204D-01
     14 -0.731868D-02 -0.585585D-01  0.567423D-02  0.721719D-01
     15 -0.475002D-02 -0.361506D-01 -0.261216D-01  0.178123D-01  0.673878D-01
     16 -0.454684D-02 -0.411152D-01  0.192660D-01 -0.253021D-01 -0.300738D-02
     17  0.239374D-02  0.232640D-01 -0.878749D-02 -0.815642D-02 -0.188966D-01
     18 -0.515743D-02 -0.200602D-03 -0.143295D-02  0.156932D-02  0.619062D-03
     19  0.188760D-01  0.373987D-02 -0.100525D-02 -0.839043D-03 -0.122226D-02
     20 -0.534423D-02  0.195773D-03  0.145385D-02 -0.163958D-02 -0.283442D-03
     21 -0.455633D-02 -0.174772D-02  0.793130D-03  0.381530D-03  0.447750D-03
     22  0.821610D-03 -0.219099D-03 -0.218749D-03 -0.214167D-03  0.184791D-03
     23 -0.469483D-02 -0.184805D-02  0.443273D-03  0.773447D-03  0.261351D-03
     24 -0.125448D-02 -0.175294D-01  0.391278D-02  0.216227D-02  0.490828D-02
     25  0.393720D-02  0.183302D-01 -0.467352D-02 -0.326565D-02 -0.500796D-02
     26 -0.264538D-02 -0.785761D-03  0.801197D-03  0.108325D-02  0.376018D-04
     27 -0.572341D-03 -0.123140D-02  0.390603D-02 -0.371384D-02 -0.197890D-01
     28  0.195291D-02  0.202644D-01 -0.196947D-01 -0.152401D-01  0.239618D-01
     29 -0.301213D-02 -0.195645D-01  0.152499D-01  0.193799D-01 -0.387289D-02
     30 -0.279007D-02 -0.188220D-03 -0.280814D-03  0.550332D-04  0.429048D-03
     31  0.439034D-03 -0.100726D-03 -0.778339D-03  0.913397D-03  0.573154D-03
     32  0.338405D-02  0.942768D-04 -0.164483D-04  0.376227D-03 -0.371881D-04
     33  0.349154D-03  0.338587D-03  0.186463D-01 -0.186404D-01 -0.293925D-02
     34  0.388049D-03  0.353811D-03  0.190247D-01 -0.186898D-01 -0.338993D-02
     35 -0.158691D-02 -0.101692D-01 -0.164397D-01  0.140058D-02  0.101453D-01
     36 -0.154802D-02 -0.101540D-01 -0.160613D-01  0.135113D-02  0.969466D-02
     37  0.126831D-02  0.938925D-02 -0.129899D-02  0.162549D-01 -0.667296D-02
     38  0.130721D-02  0.940448D-02 -0.920564D-03  0.162054D-01 -0.712364D-02
               16            17            18            19            20 
     16  0.705785D-01
     17 -0.197163D-01  0.319344D-01
     18 -0.190861D-03 -0.364277D-03  0.140729D+00
     19 -0.137814D-02  0.537496D-03 -0.308952D-01  0.136869D+00
     20  0.638842D-03 -0.386841D-03 -0.327412D-01 -0.309391D-01  0.141325D+00
     21  0.248817D-03 -0.317118D-04 -0.372693D-01 -0.376819D-01 -0.140491D-02
     22  0.161917D-03  0.314710D-03 -0.404811D-01 -0.442004D-03 -0.406340D-01
     23  0.527224D-03 -0.649123D-04 -0.133829D-02 -0.376242D-01 -0.375453D-01
     24  0.106691D-01 -0.343335D-02 -0.574244D-05 -0.739191D-03  0.205850D-04
     25 -0.902907D-02  0.286684D-02 -0.176052D-03  0.129383D-02 -0.233616D-03
     26 -0.163118D-02  0.584353D-03  0.171485D-03 -0.544396D-03  0.218155D-03
     27  0.208825D-01 -0.185203D-03  0.879119D-03 -0.245862D-05 -0.886115D-03
     28  0.334059D-02 -0.143881D-01  0.604323D-03  0.219300D-03 -0.185983D-03
     29 -0.237420D-01  0.144499D-01  0.227841D-03 -0.193413D-03 -0.745190D-03
     30  0.699164D-04 -0.827840D-04  0.171768D-02 -0.215253D-01  0.209909D-01
     31 -0.599891D-03  0.184771D-05  0.191100D-01  0.152050D-04 -0.192182D-01
     32 -0.444433D-03  0.326864D-04 -0.209545D-01  0.215555D-01 -0.189616D-02
     33  0.293283D-02 -0.330954D-03 -0.110470D-02 -0.633146D-04  0.110662D-02
     34  0.286881D-02 -0.151181D-03 -0.116601D-02 -0.370278D-04  0.116427D-02
     35  0.789699D-02  0.747926D-02  0.419391D-03 -0.485507D-03 -0.656453D-03
     36  0.783296D-02  0.765904D-02  0.358084D-03 -0.459220D-03 -0.598804D-03
     37 -0.100644D-01 -0.793178D-02  0.603779D-03  0.477110D-03 -0.400415D-03
     38 -0.101284D-01 -0.775200D-02  0.542473D-03  0.503396D-03 -0.342766D-03
               21            22            23            24            25 
     21  0.705602D-01
     22  0.434561D-02  0.730565D-01
     23  0.375847D-02  0.435285D-02  0.707096D-01
     24  0.296682D-03  0.112219D-03  0.327707D-03  0.707205D-01
     25 -0.368711D-03 -0.110439D-03 -0.414382D-03 -0.376493D-01  0.714615D-01
     26  0.722896D-04 -0.240279D-05  0.819812D-04 -0.325684D-01 -0.334427D-01
     27 -0.433359D-03 -0.286907D-04  0.472773D-03  0.196953D-02 -0.128895D-02
     28 -0.483618D-03 -0.786155D-04 -0.946338D-04 -0.594027D-03  0.117494D-02
     29  0.156141D-03  0.525307D-04  0.525568D-03 -0.123823D-02  0.633206D-04
     30 -0.208235D-01  0.186508D-01 -0.227897D-03  0.418683D-04 -0.196628D-03
     31  0.200171D-01  0.232261D-04 -0.199578D-01 -0.615207D-04  0.595179D-04
     32  0.232001D-03 -0.186625D-01  0.209623D-01 -0.111327D-03  0.225784D-03
     33  0.222688D-03  0.167960D-04 -0.176895D-03 -0.781088D-03  0.893233D-04
     34  0.231540D-03  0.121200D-04 -0.203954D-03  0.149098D-03 -0.214778D-03
     35  0.954436D-04  0.315565D-03  0.319103D-03  0.272443D-02 -0.292939D-02
     36  0.104296D-03  0.310889D-03  0.292044D-03  0.365462D-02 -0.323349D-02
     37 -0.301358D-03 -0.291852D-03 -0.946845D-04 -0.278258D-02  0.231326D-02
     38 -0.292506D-03 -0.296528D-03 -0.121743D-03 -0.185239D-02  0.200916D-02
               26            27            28            29            30 
     26  0.652045D-01
     27 -0.681685D-03  0.172995D-01
     28 -0.623430D-03 -0.546772D-02  0.244812D-01
     29  0.116595D-02 -0.554352D-02 -0.130351D-01  0.243382D-01
     30  0.162000D-03 -0.339333D-03 -0.107114D-03 -0.338753D-03  0.277225D-01
     31  0.994233D-05 -0.356461D-03 -0.207507D-03 -0.135849D-03 -0.101793D-01
     32 -0.102857D-03 -0.297967D-03 -0.294597D-03 -0.499562D-04 -0.116569D-01
     33  0.535556D-03 -0.577618D-02  0.268525D-02  0.247174D-02 -0.124030D-03
     34  0.325828D-03 -0.584242D-02  0.231243D-02  0.250760D-02 -0.556346D-04
     35  0.282116D-04  0.289412D-02 -0.148920D-02 -0.119365D-02  0.746931D-04
     36 -0.181516D-03  0.282788D-02 -0.186203D-02 -0.115779D-02  0.143089D-03
     37  0.303708D-03  0.239336D-02 -0.727227D-03 -0.179129D-02 -0.134814D-03
     38  0.939806D-04  0.232711D-02 -0.110005D-02 -0.175542D-02 -0.664185D-04
               31            32            33            34            35 
     31  0.254528D-01
     32 -0.101346D-01  0.278351D-01
     33 -0.537261D-03 -0.146747D-03  0.150413D-01
     34 -0.477436D-03 -0.698777D-04  0.139267D-01  0.158902D-01
     35  0.132656D-03 -0.164396D-03 -0.658723D-02 -0.789459D-02  0.141250D-01
     36  0.192481D-03 -0.875268D-04 -0.770185D-02 -0.593106D-02  0.128176D-01
[...]
 Alpha virt. eigenvalues --    0.92394   0.95296   0.96488   0.99052   1.01830
 Alpha virt. eigenvalues --    1.05417   1.06552   1.08000   1.08723   1.12135
 Alpha virt. eigenvalues --    1.16320   1.17986   1.19223   1.20580   1.21673
 Alpha virt. eigenvalues --    1.25850   1.28583   1.29402   1.32470   1.33208
 Alpha virt. eigenvalues --    1.35595   1.39752   1.41808   1.42412   1.44667
 Alpha virt. eigenvalues --    1.45526   1.46706   1.47399   1.51888   1.53410
 Alpha virt. eigenvalues --    1.53983   1.59020   1.60832   1.75531   1.77275
 Alpha virt. eigenvalues --    1.99923   2.09170   2.11845   2.22615   2.35153
 Alpha virt. eigenvalues --    2.39894   2.44097   2.46523   2.49277   2.60331
 Alpha virt. eigenvalues --    2.62592   2.71295   2.74304   2.79834   2.80807
 Alpha virt. eigenvalues --    2.88757   2.94438   2.96459   2.97430   3.03071
 Alpha virt. eigenvalues --    3.05874   3.07055   3.08063   3.11630   3.13514
 Alpha virt. eigenvalues --    3.14740   3.16043   3.21196   3.22538   3.24118
 Alpha virt. eigenvalues --    3.25914   3.31343   3.34554   3.38493   3.40432
 Alpha virt. eigenvalues --    3.41838   3.44958   3.47377   3.50062   3.54126
 Alpha virt. eigenvalues --    3.57808   3.61736   3.65046   3.67426   3.72006
 Alpha virt. eigenvalues --    3.79011   3.86551   3.86753   3.88596   3.89443
 Alpha virt. eigenvalues --    3.97011   4.02316   4.06232   4.07714   4.09391
 Alpha virt. eigenvalues --    4.14080   4.15661   4.16757   4.19116   4.22016
 Alpha virt. eigenvalues --    4.24110   4.27402   4.29356   4.34919   4.38399
 Alpha virt. eigenvalues --    4.42145   4.44266   4.50309   4.53775   4.64833
 Alpha virt. eigenvalues --    4.89362   4.92091   5.18107   5.20375   5.24057
 Alpha virt. eigenvalues --    5.31772   5.46220   5.49304   5.51049   5.52306
 Alpha virt. eigenvalues --    5.58056   5.63123   5.66806   5.82848   5.87074
 Alpha virt. eigenvalues --    6.23515   6.48908   6.71930   7.18273   7.21071
 Alpha virt. eigenvalues --    7.31403   7.66643   7.76755  24.27151  24.43656
 Alpha virt. eigenvalues --   24.50843  50.16775
  Beta  occ. eigenvalues --  -19.62680 -10.58929 -10.57680 -10.53437  -1.16536
  Beta  occ. eigenvalues --   -0.85001  -0.75544  -0.67229  -0.56710  -0.55762
  Beta  occ. eigenvalues --   -0.53332  -0.47381  -0.45583  -0.43722  -0.39653
  Beta  occ. eigenvalues --   -0.33614
  Beta virt. eigenvalues --   -0.02569   0.01714   0.03030   0.04054   0.04785
  Beta virt. eigenvalues --    0.05599   0.06785   0.08408   0.08612   0.09620
  Beta virt. eigenvalues --    0.12221   0.13209   0.14218   0.18832   0.19413
  Beta virt. eigenvalues --    0.21186   0.21993   0.22504   0.23041   0.25473
  Beta virt. eigenvalues --    0.26167   0.27082   0.28578   0.29825   0.31853
  Beta virt. eigenvalues --    0.35215   0.37453   0.44130   0.44325   0.48292
  Beta virt. eigenvalues --    0.50257   0.51443   0.53433   0.53887   0.55068
  Beta virt. eigenvalues --    0.57182   0.58438   0.58608   0.60210   0.60893
  Beta virt. eigenvalues --    0.61752   0.63145   0.64778   0.66229   0.67148
  Beta virt. eigenvalues --    0.68466   0.75476   0.84350   0.84953   0.87923
  Beta virt. eigenvalues --    0.88833   0.92473   0.95077   0.95894   0.98986
  Beta virt. eigenvalues --    1.00019   1.05424   1.06575   1.07990   1.08656
  Beta virt. eigenvalues --    1.13011   1.16171   1.17969   1.19423   1.20345
  Beta virt. eigenvalues --    1.21691   1.25952   1.28826   1.29632   1.32316
  Beta virt. eigenvalues --    1.33278   1.35616   1.40159   1.41820   1.42562
  Beta virt. eigenvalues --    1.44866   1.45725   1.47276   1.47621   1.51906
  Beta virt. eigenvalues --    1.53642   1.55402   1.59340   1.61304   1.75559
  Beta virt. eigenvalues --    1.77370   2.00132   2.09327   2.11911   2.22921
  Beta virt. eigenvalues --    2.35263   2.40110   2.44267   2.47329   2.49531
  Beta virt. eigenvalues --    2.61436   2.62964   2.72446   2.78433   2.82817
  Beta virt. eigenvalues --    2.85376   2.91809   2.96943   2.98753   3.00757
  Beta virt. eigenvalues --    3.05986   3.07646   3.08386   3.09223   3.13358
  Beta virt. eigenvalues --    3.15314   3.16936   3.17886   3.22399   3.26451
  Beta virt. eigenvalues --    3.27636   3.30494   3.33543   3.34931   3.39557
  Beta virt. eigenvalues --    3.42583   3.44325   3.45929   3.50557   3.51595
  Beta virt. eigenvalues --    3.56601   3.59243   3.61968   3.65448   3.68868
  Beta virt. eigenvalues --    3.72546   3.79484   3.86629   3.88683   3.88764
  Beta virt. eigenvalues --    3.90998   3.98215   4.02764   4.07479   4.09514
  Beta virt. eigenvalues --    4.11068   4.16705   4.17162   4.17758   4.21011
  Beta virt. eigenvalues --    4.23250   4.26802   4.28987   4.30550   4.36474
  Beta virt. eigenvalues --    4.39405   4.42914   4.44708   4.50852   4.55189
  Beta virt. eigenvalues --    4.69937   4.91078   4.94239   5.20326   5.21585
  Beta virt. eigenvalues --    5.24303   5.32214   5.48546   5.50701   5.54400
  Beta virt. eigenvalues --    5.55390   5.60213   5.63153   5.67608   5.82923
  Beta virt. eigenvalues --    5.87123   6.23774   6.48984   6.71980   7.18291
  Beta virt. eigenvalues --    7.21113   7.31439   7.66698   7.76795  24.28219
  Beta virt. eigenvalues --   24.43657  24.51416  50.16768
          Condensed to atoms (all electrons):
               1          2          3          4          5          6
     1  O    8.279939   0.113471   0.126990  -0.103996  -0.058704  -0.047369
     2  C    0.113471   5.003908  -0.097700   0.345222   0.434241   0.453214
     3  C    0.126990  -0.097700   4.933789  -0.019751   0.003148   0.002509
     4  C   -0.103996   0.345222  -0.019751   5.438359  -0.055610  -0.068207
     5  H   -0.058704   0.434241   0.003148  -0.055610   0.606646  -0.064550
     6  H   -0.047369   0.453214   0.002509  -0.068207  -0.064550   0.582980
     7  H   -0.047004  -0.004157   0.435917  -0.002631   0.008913  -0.003590
     8  H   -0.055613   0.013043   0.424855   0.002640   0.000051   0.000053
     9  H   -0.047585  -0.004218   0.436934  -0.002283  -0.003976   0.007848
    10  H   -0.002368  -0.017669   0.002532   0.398245   0.001144   0.003755
    11  H    0.008647  -0.032726   0.000240   0.407833  -0.001555  -0.002115
               7          8          9         10         11
     1  O   -0.047004  -0.055613  -0.047585  -0.002368   0.008647
     2  C   -0.004157   0.013043  -0.004218  -0.017669  -0.032726
     3  C    0.435917   0.424855   0.436934   0.002532   0.000240
     4  C   -0.002631   0.002640  -0.002283   0.398245   0.407833
     5  H    0.008913   0.000051  -0.003976   0.001144  -0.001555
     6  H   -0.003590   0.000053   0.007848   0.003755  -0.002115
     7  H    0.578980  -0.025628  -0.053139  -0.000016  -0.000008
     8  H   -0.025628   0.536498  -0.025365   0.000007   0.000011
     9  H   -0.053139  -0.025365   0.579362  -0.000034   0.000017
    10  H   -0.000016   0.000007  -0.000034   0.457415  -0.021252
    11  H   -0.000008   0.000011   0.000017  -0.021252   0.476802
          Atomic-Atomic Spin Densities.
               1          2          3          4          5          6
     1  O    0.003165   0.009373   0.000125  -0.006872  -0.010466   0.005994
     2  C    0.009373  -0.045677   0.000609  -0.067520   0.036348   0.015227
     3  C    0.000125   0.000609   0.005620  -0.000719  -0.003198   0.001709
     4  C   -0.006872  -0.067520  -0.000719   1.201685  -0.043878  -0.030693
     5  H   -0.010466   0.036348  -0.003198  -0.043878   0.086578  -0.020483
     6  H    0.005994   0.015227   0.001709  -0.030693  -0.020483   0.055113
     7  H   -0.000528   0.002027   0.000192  -0.001097   0.000380  -0.000086
     8  H    0.000142   0.000025  -0.000785   0.000060   0.000004  -0.000006
     9  H    0.000041  -0.000888   0.000278   0.000304  -0.000190   0.000355
    10  H    0.001825   0.005179   0.000814  -0.007913   0.000059  -0.000016
    11  H   -0.000146   0.005003  -0.000017  -0.003384  -0.000607   0.001000
               7          8          9         10         11
     1  O   -0.000528   0.000142   0.000041   0.001825  -0.000146
     2  C    0.002027   0.000025  -0.000888   0.005179   0.005003
     3  C    0.000192  -0.000785   0.000278   0.000814  -0.000017
     4  C   -0.001097   0.000060   0.000304  -0.007913  -0.003384
     5  H    0.000380   0.000004  -0.000190   0.000059  -0.000607
     6  H   -0.000086  -0.000006   0.000355  -0.000016   0.001000
     7  H   -0.001646   0.000128  -0.000152   0.000024  -0.000000
     8  H    0.000128  -0.000077   0.000164  -0.000001  -0.000001
     9  H   -0.000152   0.000164  -0.000318  -0.000008   0.000000
    10  H    0.000024  -0.000001  -0.000008  -0.042075   0.004226
    11  H   -0.000000  -0.000001   0.000000   0.004226  -0.046287
 Mulliken charges and spin densities:
               1          2
     1  O   -0.166409   0.002654
     2  C   -0.206630  -0.040295
     3  C   -0.249462   0.004627
     4  C   -0.339820   1.039972
     5  H    0.130252   0.044549
     6  H    0.135471   0.028113
     7  H    0.112365  -0.000759
     8  H    0.129448  -0.000346
     9  H    0.112439  -0.000413
    10  H    0.178241  -0.037887
    11  H    0.164105  -0.040214
 Sum of Mulliken charges =  -0.00000   1.00000
 Mulliken charges and spin densities with hydrogens summed into heavy atoms:
               1          2
     1  O   -0.166409   0.002654
     2  C    0.059093   0.032367
     3  C    0.104790   0.003109
     4  C    0.002526   0.961870
 Electronic spatial extent (au):  <R**2>=            344.9790
 Charge=             -0.0000 electrons
 Dipole moment (field-independent basis, Debye):
    X=              0.3826    Y=              1.3655    Z=              0.2233  Tot=              1.4356
 Quadrupole moment (field-independent basis, Debye-Ang):
   XX=            -23.2857   YY=            -26.5038   ZZ=            -27.1999
   XY=             -0.2122   XZ=             -0.0898   YZ=             -0.4766
 Traceless Quadrupole moment (field-independent basis, Debye-Ang):
   XX=              2.3774   YY=             -0.8406   ZZ=             -1.5368
   XY=             -0.2122   XZ=             -0.0898   YZ=             -0.4766
 Octapole moment (field-independent basis, Debye-Ang**2):
  XXX=              6.2335  YYY=             -2.4917  ZZZ=              0.2976  XYY=              0.0153
  XXY=             -1.1743  XXZ=             -0.3314  XZZ=              3.4490  YZZ=              1.0250
  YYZ=              0.1369  XYZ=              0.7545
 Hexadecapole moment (field-independent basis, Debye-Ang**3):
 XXXX=           -349.9392 YYYY=            -70.5192 ZZZZ=            -44.5493 XXXY=            -10.0682
 XXXZ=              0.7618 YYYX=             -0.8235 YYYZ=             -1.2367 ZZZX=             -0.2252
 ZZZY=             -0.2559 XXYY=            -68.1935 XXZZ=            -73.7599 YYZZ=            -18.8390
 XXYZ=             -1.6372 YYXZ=             -1.0124 ZZXY=             -0.2870
 N-N= 1.264059650232D+02 E-N=-7.047330176182D+02  KE= 1.929229701474D+02
                          Isotropic Fermi Contact Couplings
        Atom                 a.u.       MegaHertz       Gauss      10(-4) cm-1
     1  O(17)              0.00649      -3.93260      -1.40325      -1.31178
     2  C(13)             -0.03747     -42.11845     -15.02891     -14.04920
     3  C(13)             -0.00124      -1.39508      -0.49780      -0.46535
     4  C(13)              0.17164     192.95908      68.85260      64.36422
     5  H(1)               0.02664     119.08529      42.49259      39.72258
     6  H(1)               0.01628      72.74882      25.95859      24.26639
     7  H(1)               0.00013       0.58881       0.21010       0.19641
     8  H(1)              -0.00010      -0.46068      -0.16438      -0.15367
     9  H(1)               0.00003       0.13426       0.04791       0.04479
    10  H(1)              -0.01610     -71.97436     -25.68224     -24.00806
    11  H(1)              -0.01617     -72.25727     -25.78319     -24.10243
 --------------------------------------------------------
       Center         ----  Spin Dipole Couplings  ----
                      3XX-RR        3YY-RR        3ZZ-RR
 --------------------------------------------------------
     1   Atom        0.020330     -0.003435     -0.016895
     2   Atom        0.004805     -0.012219      0.007414
     3   Atom        0.004046     -0.003430     -0.000617
     4   Atom       -0.545887     -0.495544      1.041431
     5   Atom        0.005557     -0.000178     -0.005379
     6   Atom        0.003969      0.002799     -0.006768
     7   Atom        0.004506     -0.002452     -0.002054
     8   Atom        0.003075     -0.001452     -0.001623
     9   Atom        0.004005     -0.002065     -0.001941
    10   Atom       -0.072371      0.072059      0.000311
    11   Atom        0.028804     -0.023974     -0.004829
 --------------------------------------------------------
                        XY            XZ            YZ
 --------------------------------------------------------
     1   Atom       -0.011842      0.002110      0.003574
     2   Atom        0.005249      0.007796     -0.000963
     3   Atom        0.000088      0.001615      0.001047
     4   Atom       -0.023439     -0.107932      0.290381
     5   Atom        0.010821      0.005864      0.008106
     6   Atom        0.013263     -0.006381     -0.005707
     7   Atom        0.000384      0.001166      0.000553
     8   Atom       -0.000979      0.000046      0.000155
     9   Atom        0.001128     -0.001284     -0.000278
    10   Atom        0.008921     -0.006937     -0.018319
    11   Atom       -0.070086      0.009421      0.003328
 --------------------------------------------------------


 ---------------------------------------------------------------------------------
              Anisotropic Spin Dipole Couplings in Principal Axis System
 ---------------------------------------------------------------------------------

       Atom             a.u.   MegaHertz   Gauss  10(-4) cm-1        Axes

              Baa    -0.0186     1.343     0.479     0.448 -0.1538 -0.3398  0.9278
     1 O(17)  Bbb    -0.0067     0.483     0.172     0.161  0.3480  0.8602  0.3728
              Bcc     0.0252    -1.826    -0.651    -0.609  0.9248 -0.3803  0.0141
 
              Baa    -0.0142    -1.905    -0.680    -0.635 -0.3226  0.9333  0.1580
     2 C(13)  Bbb    -0.0001    -0.013    -0.005    -0.004  0.6733  0.3436 -0.6547
              Bcc     0.0143     1.918     0.684     0.640  0.6653  0.1049  0.7392
 
              Baa    -0.0038    -0.510    -0.182    -0.170  0.0592  0.9390 -0.3387
     3 C(13)  Bbb    -0.0008    -0.103    -0.037    -0.034 -0.3046  0.3402  0.8897
              Bcc     0.0046     0.613     0.219     0.205  0.9506  0.0505  0.3061
 
              Baa    -0.5553   -74.513   -26.588   -24.855  0.8758  0.4818 -0.0284
     4 C(13)  Bbb    -0.5466   -73.346   -26.172   -24.465 -0.4780  0.8577 -0.1893
              Bcc     1.1019   147.859    52.760    49.320 -0.0668  0.1794  0.9815
 
              Baa    -0.0116    -6.192    -2.209    -2.065  0.1860 -0.6796  0.7096
     5 H(1)   Bbb    -0.0063    -3.353    -1.197    -1.119  0.6841 -0.4289 -0.5900
              Bcc     0.0179     9.545     3.406     3.184  0.7053  0.5952  0.3851
 
              Baa    -0.0100    -5.360    -1.913    -1.788  0.7106 -0.5263  0.4670
     6 H(1)   Bbb    -0.0094    -5.018    -1.791    -1.674 -0.1426  0.5422  0.8281
              Bcc     0.0195    10.379     3.703     3.462  0.6890  0.6550 -0.3102
 
              Baa    -0.0029    -1.527    -0.545    -0.509  0.0572  0.7831 -0.6193
     7 H(1)   Bbb    -0.0019    -1.002    -0.357    -0.334 -0.1770  0.6184  0.7657
              Bcc     0.0047     2.528     0.902     0.843  0.9825  0.0658  0.1740
 
              Baa    -0.0018    -0.961    -0.343    -0.321  0.1518  0.7245 -0.6724
     8 H(1)   Bbb    -0.0015    -0.788    -0.281    -0.263  0.1342  0.6588  0.7402
              Bcc     0.0033     1.749     0.624     0.583  0.9793 -0.2026  0.0028
 
              Baa    -0.0023    -1.223    -0.436    -0.408 -0.0612  0.8794  0.4722
     9 H(1)   Bbb    -0.0022    -1.165    -0.416    -0.389  0.2588 -0.4429  0.8584
              Bcc     0.0045     2.389     0.852     0.797  0.9640  0.1747 -0.2005
 
              Baa    -0.0734   -39.158   -13.973   -13.062  0.9954 -0.0508  0.0811
    10 H(1)   Bbb    -0.0038    -2.019    -0.721    -0.674 -0.0665  0.2416  0.9681
              Bcc     0.0772    41.177    14.693    13.735  0.0688  0.9690 -0.2372
 
              Baa    -0.0734   -39.181   -13.981   -13.069  0.5688  0.8140 -0.1176
    11 H(1)   Bbb    -0.0043    -2.288    -0.816    -0.763  0.0085  0.1372  0.9905
              Bcc     0.0777    41.468    14.797    13.832  0.8224 -0.5644  0.0711
 

 ---------------------------------------------------------------------------------

 No NMR shielding tensors so no spin-rotation constants.
 Leave Link  601 at Mon Mar 11 20:33:40 2019, MaxMem=   671088640 cpu:               6.8 elap:               0.4
 (Enter /shared/centos7/gaussian/g16/l9999.exe)
 1\1\GINC-C0262\Scan\UM062X\6-311+G(2df,2p)\C3H7O1(2)\UNDERKOFFLER.C\11
 -Mar-2019\0\\#p m062x/6-311+g(2df,2p) Opt=(CalcFC,ModRedun)\\Gaussian 
 Input Prepared from Scan Object\\0,2\O,0.3327069277,0.4707429952,0.694
 2584874\C,-0.493574694,-0.068178032,-0.3070234802\C,1.6857973333,0.476
 5468027,0.3244619126\C,-1.9032388502,-0.0147334383,0.1320494223\H,-0.3
 499476557,0.4983880623,-1.2448194386\H,-0.1930805797,-1.103775518,-0.5
 305700546\H,1.8483400549,1.0798424328,-0.5757046181\H,2.250196927,0.90
 64293631,1.1479371045\H,2.0489309166,-0.5392869396,0.1329474457\H,-2.1
 845856323,0.6589197023,0.9254413291\H,-2.6653297474,-0.5343664304,-0.4
 260041102\\Version=EM64L-G16RevA.03\State=2-A\HF=-193.6431296,-193.642
 8835,-193.6421978,-193.6412448,-193.6402807,-193.6395675,-193.6392924,
 -193.6395252,-193.6402014,-193.6411448,-193.6421052,-193.6428261,-193.
 6431264,-193.6429343,-193.6422927,-193.6413567,-193.6403683,-193.63960
 43,-193.6392931,-193.6395327,-193.6402429,-193.6412111,-193.6421656,-1
 93.6428586,-193.6431287,-193.6429145,-193.6422588,-193.6413155,-193.64
 03289,-193.6395795,-193.6392921,-193.6395561,-193.6402826,-193.6412552
 ,-193.6422037,-193.6428826,-193.6431296\S2=0.755228,0.755232,0.755237,
 0.755244,0.755249,0.755249,0.755246,0.755243,0.75524,0.755236,0.755232
 ,0.755229,0.755228,0.755231,0.755237,0.755245,0.75525,0.755249,0.75524
 6,0.755243,0.755241,0.755236,0.755233,0.75523,0.755228,0.75523,0.75523
 6,0.755244,0.755249,0.755249,0.755246,0.755243,0.75524,0.755236,0.7552
 32,0.755229,0.755228\S2-1=0.,0.,0.,0.,0.,0.,0.,0.,0.,0.,0.,0.,0.,0.,0.
 ,0.,0.,0.,0.,0.,0.,0.,0.,0.,0.,0.,0.,0.,0.,0.,0.,0.,0.,0.,0.,0.,0.\S2A
 =0.750021,0.750021,0.750021,0.750022,0.750022,0.750022,0.750022,0.7500
 22,0.750021,0.750021,0.750021,0.750021,0.750021,0.750021,0.750021,0.75
 0022,0.750022,0.750022,0.750022,0.750022,0.750021,0.750021,0.750021,0.
 750021,0.750021,0.750021,0.750021,0.750022,0.750022,0.750022,0.750022,
 0.750022,0.750021,0.750021,0.750021,0.750021,0.750021\RMSD=7.395e-09,9
 .467e-09,8.028e-09,5.130e-09,5.729e-09,2.648e-09,3.749e-09,7.349e-09,6
 .879e-09,4.748e-09,6.399e-09,9.034e-09,9.396e-09,3.155e-09,3.807e-09,4
 .294e-09,2.373e-09,5.102e-09,4.709e-09,4.704e-09,8.779e-09,6.444e-09,5
 .253e-09,6.787e-09,9.426e-09,7.406e-09,7.171e-09,8.737e-09,8.843e-09,5
 .092e-09,7.383e-09,6.515e-09,3.927e-09,5.442e-09,4.105e-09,3.070e-09,2
 .020e-09\PG=C01 [X(C3H7O1)]\\@


 WE STILL HAVE JUDGEMENT HERE,
 THAT WE TEACH BUT BLOODY INSTRUCTIONS,
 WHICH, BEING TAUGHT,
 RETURN TO PLAGUE THE INVENTOR.
           MACBETH ACT I, SCENE VII
 Job cpu time:       0 days 12 hours 14 minutes  9.7 seconds.
 Elapsed time:       0 days  0 hours 48 minutes 54.0 seconds.
 File lengths (MBytes):  RWF=   1328 Int=      0 D2E=      0 Chk=     32 Scr=     32
 Normal termination of Gaussian 16 at Mon Mar 11 20:33:41 2019.
