 Entering Gaussian System, Link 0=g16
 Input=ZMAYDFGNKOVZRH-UHFFFAOYSA-N_12by30.0_tor01_a2.com
 Output=ZMAYDFGNKOVZRH-UHFFFAOYSA-N_12by30.0_tor01_a2.log
 Initial command:
 /shared/centos7/gaussian/g16/l1.exe "/scratch/underkoffler.c/gaussian_scratch/Gau-26226.inp" -scrdir="/scratch/underkoffler.c/gaussian_scratch/"
 Entering Link 1 = /shared/centos7/gaussian/g16/l1.exe PID=     26227.
  
 Copyright (c) 1988,1990,1992,1993,1995,1998,2003,2009,2016,
            Gaussian, Inc.  All Rights Reserved.
  
 This is part of the Gaussian(R) 16 program.  It is based on
 the Gaussian(R) 09 system (copyright 2009, Gaussian, Inc.),
 the Gaussian(R) 03 system (copyright 2003, Gaussian, Inc.),
 the Gaussian(R) 98 system (copyright 1998, Gaussian, Inc.),
 the Gaussian(R) 94 system (copyright 1995, Gaussian, Inc.),
 the Gaussian 92(TM) system (copyright 1992, Gaussian, Inc.),
 the Gaussian 90(TM) system (copyright 1990, Gaussian, Inc.),
 the Gaussian 88(TM) system (copyright 1988, Gaussian, Inc.),
 the Gaussian 86(TM) system (copyright 1986, Carnegie Mellon
 University), and the Gaussian 82(TM) system (copyright 1983,
 Carnegie Mellon University). Gaussian is a federally registered
 trademark of Gaussian, Inc.
  
 This software contains proprietary and confidential information,
 including trade secrets, belonging to Gaussian, Inc.
  
 This software is provided under written license and may be
 used, copied, transmitted, or stored only in accord with that
 written license.
  
 The following legend is applicable only to US Government
 contracts under FAR:
  
                    RESTRICTED RIGHTS LEGEND
  
 Use, reproduction and disclosure by the US Government is
 subject to restrictions as set forth in subparagraphs (a)
 and (c) of the Commercial Computer Software - Restricted
 Rights clause in FAR 52.227-19.
  
 Gaussian, Inc.
 340 Quinnipiac St., Bldg. 40, Wallingford CT 06492
  
  
 ---------------------------------------------------------------
 Warning -- This program may not be used in any manner that
 competes with the business of Gaussian, Inc. or will provide
 assistance to any competitor of Gaussian, Inc.  The licensee
 of this program is prohibited from giving any competitor of
 Gaussian, Inc. access to this program.  By using this program,
 the user acknowledges that Gaussian, Inc. is engaged in the
 business of creating and licensing software in the field of
 computational chemistry and represents and warrants to the
 licensee that it is not a competitor of Gaussian, Inc. and that
 it will not use this program in any manner prohibited above.
 ---------------------------------------------------------------
  

 Cite this work as:
 Gaussian 16, Revision A.03,
 M. J. Frisch, G. W. Trucks, H. B. Schlegel, G. E. Scuseria, 
 M. A. Robb, J. R. Cheeseman, G. Scalmani, V. Barone, 
 G. A. Petersson, H. Nakatsuji, X. Li, M. Caricato, A. V. Marenich, 
 J. Bloino, B. G. Janesko, R. Gomperts, B. Mennucci, H. P. Hratchian, 
 J. V. Ortiz, A. F. Izmaylov, J. L. Sonnenberg, D. Williams-Young, 
 F. Ding, F. Lipparini, F. Egidi, J. Goings, B. Peng, A. Petrone, 
 T. Henderson, D. Ranasinghe, V. G. Zakrzewski, J. Gao, N. Rega, 
 G. Zheng, W. Liang, M. Hada, M. Ehara, K. Toyota, R. Fukuda, 
 J. Hasegawa, M. Ishida, T. Nakajima, Y. Honda, O. Kitao, H. Nakai, 
 T. Vreven, K. Throssell, J. A. Montgomery, Jr., J. E. Peralta, 
 F. Ogliaro, M. J. Bearpark, J. J. Heyd, E. N. Brothers, K. N. Kudin, 
 V. N. Staroverov, T. A. Keith, R. Kobayashi, J. Normand, 
 K. Raghavachari, A. P. Rendell, J. C. Burant, S. S. Iyengar, 
 J. Tomasi, M. Cossi, J. M. Millam, M. Klene, C. Adamo, R. Cammi, 
 J. W. Ochterski, R. L. Martin, K. Morokuma, O. Farkas, 
 J. B. Foresman, and D. J. Fox, Gaussian, Inc., Wallingford CT, 2016.
 
 ******************************************
 Gaussian 16:  EM64L-G16RevA.03 25-Dec-2016
                29-Mar-2019 
 ******************************************
 %nprocshared=20
 Will use up to   20 processors via shared memory.
 %mem=5GB
 ----------------------------------------------
 #p m062x/6-311+g(2df,2p) Opt=(CalcFC,ModRedun)
 ----------------------------------------------
 1/10=4,18=120,19=15,26=3,38=1/1,3;
 2/9=110,12=2,17=6,18=5,40=1/2;
 3/5=4,6=6,7=214,11=2,25=1,30=1,71=2,74=-55,140=1/1,2,3;
 4//1;
 5/5=2,38=5/2;
 8/6=4,10=90,11=11/1;
 11/6=1,8=1,9=11,15=111,16=1/1,2,10;
 10/6=1,13=1/2;
 6/7=2,8=2,9=2,10=2,28=1/1;
 7/10=1,18=20,25=1/1,2,3,16;
 1/10=4,18=20,19=15,26=3/3(2);
 2/9=110/2;
 99//99;
 2/9=110/2;
 3/5=4,6=6,7=214,11=2,25=1,30=1,71=1,74=-55/1,2,3;
 4/5=5,16=3,69=1/1;
 5/5=2,38=5/2;
 7//1,2,3,16;
 1/18=20,19=15,26=3/3(-5);
 2/9=110/2;
 6/7=2,8=2,9=2,10=2,19=2,28=1/1;
 99/9=1/99;
 Leave Link    1 at Fri Mar 29 10:55:29 2019, MaxMem=   671088640 cpu:              26.1 elap:               1.4
 (Enter /shared/centos7/gaussian/g16/l101.exe)
 ----------------------------------------
 Gaussian Input Prepared from Scan Object
 ----------------------------------------
 Symbolic Z-matrix:
 Charge =  0 Multiplicity = 2
 O                     0.60834   0.54094  -0.39841 
 C                    -0.6588    0.60318   0.21672 
 C                     1.43365  -0.4584    0.14692 
 C                    -1.51317  -0.57357  -0.08809 
 H                    -0.54711   0.72457   1.30261 
 H                    -1.11724   1.52408  -0.16152 
 H                     1.00694  -1.45618   0.00727 
 H                     2.39061  -0.40372  -0.3658 
 H                     1.5907   -0.29386   1.21896 
 H                    -1.47771  -1.00608  -1.07728 
 H                    -2.30232  -0.87455   0.5834 
 
 The following ModRedundant input section has been read:
 B       3       8 B                                                           
 B       4      11 B                                                           
 B       4      10 B                                                           
 B       2       5 B                                                           
 B       1       2 B                                                           
 B       2       6 B                                                           
 B       1       3 B                                                           
 B       2       4 B                                                           
 B       3       7 B                                                           
 B       3       9 B                                                           
 D       3       1       2       6 S  12 30.000                                
 
 ITRead=  0  0  0  0  0  0  0  0  0  0  0
 MicOpt= -1 -1 -1 -1 -1 -1 -1 -1 -1 -1 -1
 NAtoms=     11 NQM=       11 NQMF=       0 NMMI=      0 NMMIF=      0
                NMic=       0 NMicF=      0.
                    Isotopes and Nuclear Properties:
 (Nuclear quadrupole moments (NQMom) in fm**2, nuclear magnetic moments (NMagM)
  in nuclear magnetons)

  Atom         1           2           3           4           5           6           7           8           9          10
 IAtWgt=          16          12          12          12           1           1           1           1           1           1
 AtmWgt=  15.9949146  12.0000000  12.0000000  12.0000000   1.0078250   1.0078250   1.0078250   1.0078250   1.0078250   1.0078250
 NucSpn=           0           0           0           0           1           1           1           1           1           1
 AtZEff=  -0.0000000  -0.0000000  -0.0000000  -0.0000000  -0.0000000  -0.0000000  -0.0000000  -0.0000000  -0.0000000  -0.0000000
 NQMom=    0.0000000   0.0000000   0.0000000   0.0000000   0.0000000   0.0000000   0.0000000   0.0000000   0.0000000   0.0000000
 NMagM=    0.0000000   0.0000000   0.0000000   0.0000000   2.7928460   2.7928460   2.7928460   2.7928460   2.7928460   2.7928460
 AtZNuc=   8.0000000   6.0000000   6.0000000   6.0000000   1.0000000   1.0000000   1.0000000   1.0000000   1.0000000   1.0000000

  Atom        11
 IAtWgt=           1
 AtmWgt=   1.0078250
 NucSpn=           1
 AtZEff=  -0.0000000
 NQMom=    0.0000000
 NMagM=    2.7928460
 AtZNuc=   1.0000000
 Leave Link  101 at Fri Mar 29 10:55:29 2019, MaxMem=   671088640 cpu:               6.2 elap:               0.3
 (Enter /shared/centos7/gaussian/g16/l103.exe)

 GradGradGradGradGradGradGradGradGradGradGradGradGradGradGradGradGradGrad
 Berny optimization.
 Initialization pass.
                           ----------------------------
                           !    Initial Parameters    !
                           ! (Angstroms and Degrees)  !
 --------------------------                            --------------------------
 ! Name  Definition              Value          Derivative Info.                !
 --------------------------------------------------------------------------------
 ! R1    R(1,2)                  1.4099         calculate D2E/DX2 analytically  !
 ! R2    R(1,3)                  1.4061         calculate D2E/DX2 analytically  !
 ! R3    R(2,4)                  1.4858         calculate D2E/DX2 analytically  !
 ! R4    R(2,5)                  1.0983         calculate D2E/DX2 analytically  !
 ! R5    R(2,6)                  1.096          calculate D2E/DX2 analytically  !
 ! R6    R(3,7)                  1.0941         calculate D2E/DX2 analytically  !
 ! R7    R(3,8)                  1.087          calculate D2E/DX2 analytically  !
 ! R8    R(3,9)                  1.0959         calculate D2E/DX2 analytically  !
 ! R9    R(4,10)                 1.0802         calculate D2E/DX2 analytically  !
 ! R10   R(4,11)                 1.079          calculate D2E/DX2 analytically  !
 ! A1    A(2,1,3)              112.9339         calculate D2E/DX2 analytically  !
 ! A2    A(1,2,4)              113.0989         calculate D2E/DX2 analytically  !
 ! A3    A(1,2,5)              110.171          calculate D2E/DX2 analytically  !
 ! A4    A(1,2,6)              105.2149         calculate D2E/DX2 analytically  !
 ! A5    A(4,2,5)              110.4158         calculate D2E/DX2 analytically  !
 ! A6    A(4,2,6)              110.7401         calculate D2E/DX2 analytically  !
 ! A7    A(5,2,6)              106.9097         calculate D2E/DX2 analytically  !
 ! A8    A(1,3,7)              111.6979         calculate D2E/DX2 analytically  !
 ! A9    A(1,3,8)              107.3395         calculate D2E/DX2 analytically  !
 ! A10   A(1,3,9)              110.9027         calculate D2E/DX2 analytically  !
 ! A11   A(7,3,8)              109.2082         calculate D2E/DX2 analytically  !
 ! A12   A(7,3,9)              108.5213         calculate D2E/DX2 analytically  !
 ! A13   A(8,3,9)              109.1282         calculate D2E/DX2 analytically  !
 ! A14   A(2,4,10)             119.0846         calculate D2E/DX2 analytically  !
 ! A15   A(2,4,11)             120.9173         calculate D2E/DX2 analytically  !
 ! A16   A(10,4,11)            118.831          calculate D2E/DX2 analytically  !
 ! D1    D(3,1,2,4)            -69.3541         calculate D2E/DX2 analytically  !
 ! D2    D(3,1,2,5)             54.7497         calculate D2E/DX2 analytically  !
 ! D3    D(3,1,2,6)            169.6498         Scan                            !
 ! D4    D(2,1,3,7)             62.2353         calculate D2E/DX2 analytically  !
 ! D5    D(2,1,3,8)           -178.0828         calculate D2E/DX2 analytically  !
 ! D6    D(2,1,3,9)            -58.9583         calculate D2E/DX2 analytically  !
 ! D7    D(1,2,4,10)           -37.536          calculate D2E/DX2 analytically  !
 ! D8    D(1,2,4,11)           154.9536         calculate D2E/DX2 analytically  !
 ! D9    D(5,2,4,10)          -161.5059         calculate D2E/DX2 analytically  !
 ! D10   D(5,2,4,11)            30.9838         calculate D2E/DX2 analytically  !
 ! D11   D(6,2,4,10)            80.2773         calculate D2E/DX2 analytically  !
 ! D12   D(6,2,4,11)           -87.2331         calculate D2E/DX2 analytically  !
 --------------------------------------------------------------------------------
 Trust Radius=3.00D-01 FncErr=1.00D-07 GrdErr=1.00D-06 EigMax=2.50D+02 EigMin=1.00D-04
 Number of optimizations in scan=  13
 Number of steps in this run=     48 maximum allowed number of steps=    100.
 GradGradGradGradGradGradGradGradGradGradGradGradGradGradGradGradGradGrad

 Leave Link  103 at Fri Mar 29 10:55:29 2019, MaxMem=   671088640 cpu:               0.2 elap:               0.0
 (Enter /shared/centos7/gaussian/g16/l202.exe)
                          Input orientation:                          
 ---------------------------------------------------------------------
 Center     Atomic      Atomic             Coordinates (Angstroms)
 Number     Number       Type             X           Y           Z
 ---------------------------------------------------------------------
      1          8           0        0.608336    0.540941   -0.398409
      2          6           0       -0.658799    0.603185    0.216721
      3          6           0        1.433647   -0.458403    0.146917
      4          6           0       -1.513174   -0.573573   -0.088093
      5          1           0       -0.547107    0.724574    1.302608
      6          1           0       -1.117237    1.524077   -0.161522
      7          1           0        1.006937   -1.456184    0.007271
      8          1           0        2.390610   -0.403722   -0.365801
      9          1           0        1.590698   -0.293863    1.218964
     10          1           0       -1.477706   -1.006077   -1.077277
     11          1           0       -2.302320   -0.874546    0.583399
 ---------------------------------------------------------------------
                    Distance matrix (angstroms):
                    1          2          3          4          5
     1  O    0.000000
     2  C    1.409926   0.000000
     3  C    1.406132   2.347375   0.000000
     4  C    2.416452   1.485808   2.958419   0.000000
     5  H    2.064517   1.098344   2.580395   2.133664   0.000000
     6  H    2.000069   1.096027   3.245361   2.135952   1.762932
     7  H    2.076528   2.656981   1.094143   2.671901   2.974669
     8  H    2.017412   3.263753   1.087036   3.917333   3.561855
     9  H    2.068292   2.620959   1.095913   3.379447   2.369477
    10  H    2.684343   2.221433   3.205397   1.080186   3.086263
    11  H    3.382229   2.240380   3.784328   1.078999   2.480971
                    6          7          8          9         10
     6  H    0.000000
     7  H    3.663682   0.000000
     8  H    4.007883   1.778035   0.000000
     9  H    3.541689   1.777630   1.778597   0.000000
    10  H    2.714816   2.748143   3.979057   3.898087   0.000000
    11  H    2.777178   3.409019   4.811054   3.987070   1.858799
                   11
    11  H    0.000000
 Stoichiometry    C3H7O(2)
 Framework group  C1[X(C3H7O)]
 Deg. of freedom    27
 Full point group                 C1      NOp   1
 Largest Abelian subgroup         C1      NOp   1
 Largest concise Abelian subgroup C1      NOp   1
                         Standard orientation:                         
 ---------------------------------------------------------------------
 Center     Atomic      Atomic             Coordinates (Angstroms)
 Number     Number       Type             X           Y           Z
 ---------------------------------------------------------------------
      1          8           0       -0.608635   -0.541164   -0.399024
      2          6           0        0.657674   -0.604651    0.217679
      3          6           0       -1.434232    0.457901    0.146379
      4          6           0        1.512939    0.572096   -0.084671
      5          1           0        0.544520   -0.727241    1.303280
      6          1           0        1.116215   -1.525301   -0.161028
      7          1           0       -1.006922    1.455661    0.008436
      8          1           0       -2.390551    0.404213   -0.367643
      9          1           0       -1.592746    0.292194    1.218032
     10          1           0        1.478939    1.005752   -1.073402
     11          1           0        2.301339    0.871963    0.588192
 ---------------------------------------------------------------------
 Rotational constants (GHZ):          16.4260518           5.6173046           4.8460793
 Leave Link  202 at Fri Mar 29 10:55:29 2019, MaxMem=   671088640 cpu:               0.3 elap:               0.0
 (Enter /shared/centos7/gaussian/g16/l301.exe)
 Standard basis: 6-311+G(2df,2p) (5D, 7F)
 Ernie: Thresh=  0.10000D-02 Tol=  0.10000D-05 Strict=F.
 There are   219 symmetry adapted cartesian basis functions of A   symmetry.
 There are   199 symmetry adapted basis functions of A   symmetry.
   199 basis functions,   285 primitive gaussians,   219 cartesian basis functions
    17 alpha electrons       16 beta electrons
       nuclear repulsion energy       127.7968479525 Hartrees.
 IExCor= 4336 DFT=T Ex+Corr=M062X ExCW=0 ScaHFX=  0.540000
 ScaDFX=  1.000000  1.000000  1.000000  1.000000 ScalE2=  1.000000  1.000000
 IRadAn=      5 IRanWt=     -1 IRanGd=            0 ICorTp=0 IEmpDi=  4
 NAtoms=   11 NActive=   11 NUniq=   11 SFac= 1.00D+00 NAtFMM=   60 NAOKFM=F Big=F
 Integral buffers will be    131072 words long.
 Raffenetti 2 integral format.
 Two-electron integral symmetry is turned on.
 Leave Link  301 at Fri Mar 29 10:55:29 2019, MaxMem=   671088640 cpu:               1.1 elap:               0.1
 (Enter /shared/centos7/gaussian/g16/l302.exe)
 NPDir=0 NMtPBC=     1 NCelOv=     1 NCel=       1 NClECP=     1 NCelD=      1
         NCelK=      1 NCelE2=     1 NClLst=     1 CellRange=     0.0.
 One-electron integrals computed using PRISM.
 One-electron integral symmetry used in STVInt
 NBasis=   199 RedAO= T EigKep=  9.86D-05  NBF=   199
 NBsUse=   199 1.00D-06 EigRej= -1.00D+00 NBFU=   199
 Precomputing XC quadrature grid using
 IXCGrd= 4 IRadAn=           5 IRanWt=          -1 IRanGd=           0 AccXCQ= 0.00D+00.
 Generated NRdTot=       0 NPtTot=           0 NUsed=           0 NTot=          32
 NSgBfM=   219   219   219   219   219 MxSgAt=    11 MxSgA2=    11.
 Leave Link  302 at Fri Mar 29 10:55:30 2019, MaxMem=   671088640 cpu:               6.2 elap:               0.3
 (Enter /shared/centos7/gaussian/g16/l303.exe)
 DipDrv:  MaxL=1.
 Leave Link  303 at Fri Mar 29 10:55:30 2019, MaxMem=   671088640 cpu:               0.6 elap:               0.1
 (Enter /shared/centos7/gaussian/g16/l401.exe)
 ExpMin= 4.38D-02 ExpMax= 8.59D+03 ExpMxC= 1.30D+03 IAcc=3 IRadAn=         5 AccDes= 0.00D+00
 Harris functional with IExCor= 1009 and IRadAn=       5 diagonalized for initial guess.
 HarFok:  IExCor= 1009 AccDes= 0.00D+00 IRadAn=         5 IDoV= 1 UseB2=F ITyADJ=14
 ICtDFT=  3500011 ScaDFX=  1.000000  1.000000  1.000000  1.000000
 FoFCou: FMM=F IPFlag=           0 FMFlag=      100000 FMFlg1=           0
         NFxFlg=           0 DoJE=T BraDBF=F KetDBF=T FulRan=T
         wScrn=  0.000000 ICntrl=       500 IOpCl=  0 I1Cent=   200000004 NGrid=           0
         NMat0=    1 NMatS0=      1 NMatT0=    0 NMatD0=    1 NMtDS0=    0 NMtDT0=    0
 Petite list used in FoFCou.
 Harris En= -193.557305701038    
 JPrj=0 DoOrth=F DoCkMO=F.
 Initial guess <Sx>= 0.0000 <Sy>= 0.0000 <Sz>= 0.5000 <S**2>= 0.7500 S= 0.5000
 Leave Link  401 at Fri Mar 29 10:55:31 2019, MaxMem=   671088640 cpu:              14.9 elap:               0.8
 (Enter /shared/centos7/gaussian/g16/l502.exe)
 Keep R1 and R2 ints in memory in canonical form, NReq=416958841.
 FoFCou: FMM=F IPFlag=           0 FMFlag=           0 FMFlg1=           0
         NFxFlg=           0 DoJE=F BraDBF=F KetDBF=F FulRan=T
         wScrn=  0.000000 ICntrl=       600 IOpCl=  0 I1Cent=           0 NGrid=           0
         NMat0=    1 NMatS0=  19900 NMatT0=    0 NMatD0=    1 NMtDS0=    0 NMtDT0=    0
 Symmetry not used in FoFCou.
 Two-electron integral symmetry not used.
 UHF open shell SCF:
 Using DIIS extrapolation, IDIIS=  1040.
 NGot=   671088640 LenX=   274956345 LenY=   274907943
 Requested convergence on RMS density matrix=1.00D-08 within 128 cycles.
 Requested convergence on MAX density matrix=1.00D-06.
 Requested convergence on             energy=1.00D-06.
 No special actions if energy rises.

 Cycle   1  Pass 1  IDiag  1:
 E= -193.526562251268    
 DIIS: error= 2.05D-02 at cycle   1 NSaved=   1.
 NSaved= 1 IEnMin= 1 EnMin= -193.526562251268     IErMin= 1 ErrMin= 2.05D-02
 ErrMax= 2.05D-02  0.00D+00 EMaxC= 1.00D-01 BMatC= 5.64D-01 BMatP= 5.64D-01
 IDIUse=3 WtCom= 7.95D-01 WtEn= 2.05D-01
 Coeff-Com:  0.100D+01
 Coeff-En:   0.100D+01
 Coeff:      0.100D+01
 Gap=     0.295 Goal=   None    Shift=    0.000
 Gap=     0.317 Goal=   None    Shift=    0.000
 GapD=    0.295 DampG=1.000 DampE=0.500 DampFc=0.5000 IDamp=-1.
 Damping current iteration by 5.00D-01
 RMSDP=2.59D-03 MaxDP=9.11D-02              OVMax= 1.31D-01

 Cycle   2  Pass 1  IDiag  1:
 E= -193.586910301111     Delta-E=       -0.060348049843 Rises=F Damp=T
 DIIS: error= 4.74D-03 at cycle   2 NSaved=   2.
 NSaved= 2 IEnMin= 2 EnMin= -193.586910301111     IErMin= 2 ErrMin= 4.74D-03
 ErrMax= 4.74D-03  0.00D+00 EMaxC= 1.00D-01 BMatC= 4.90D-02 BMatP= 5.64D-01
 IDIUse=3 WtCom= 9.53D-01 WtEn= 4.74D-02
 Coeff-Com: -0.173D+00 0.117D+01
 Coeff-En:   0.000D+00 0.100D+01
 Coeff:     -0.165D+00 0.117D+01
 Gap=     0.294 Goal=   None    Shift=    0.000
 Gap=     0.326 Goal=   None    Shift=    0.000
 RMSDP=9.50D-04 MaxDP=4.84D-02 DE=-6.03D-02 OVMax= 6.79D-02

 Cycle   3  Pass 1  IDiag  1:
 E= -193.641256603943     Delta-E=       -0.054346302833 Rises=F Damp=F
 DIIS: error= 2.74D-03 at cycle   3 NSaved=   3.
 NSaved= 3 IEnMin= 3 EnMin= -193.641256603943     IErMin= 3 ErrMin= 2.74D-03
 ErrMax= 2.74D-03  0.00D+00 EMaxC= 1.00D-01 BMatC= 1.06D-02 BMatP= 4.90D-02
 IDIUse=3 WtCom= 9.73D-01 WtEn= 2.74D-02
 Coeff-Com: -0.111D+00 0.369D+00 0.742D+00
 Coeff-En:   0.000D+00 0.000D+00 0.100D+01
 Coeff:     -0.108D+00 0.359D+00 0.749D+00
 Gap=     0.295 Goal=   None    Shift=    0.000
 Gap=     0.295 Goal=   None    Shift=    0.000
 RMSDP=1.91D-04 MaxDP=1.01D-02 DE=-5.43D-02 OVMax= 1.45D-02

 Cycle   4  Pass 1  IDiag  1:
 E= -193.642891240226     Delta-E=       -0.001634636283 Rises=F Damp=F
 DIIS: error= 1.19D-03 at cycle   4 NSaved=   4.
 NSaved= 4 IEnMin= 4 EnMin= -193.642891240226     IErMin= 4 ErrMin= 1.19D-03
 ErrMax= 1.19D-03  0.00D+00 EMaxC= 1.00D-01 BMatC= 2.60D-03 BMatP= 1.06D-02
 IDIUse=3 WtCom= 9.88D-01 WtEn= 1.19D-02
 Coeff-Com: -0.384D-01 0.893D-01 0.370D+00 0.579D+00
 Coeff-En:   0.000D+00 0.000D+00 0.686D-01 0.931D+00
 Coeff:     -0.379D-01 0.882D-01 0.366D+00 0.583D+00
 Gap=     0.292 Goal=   None    Shift=    0.000
 Gap=     0.302 Goal=   None    Shift=    0.000
 RMSDP=7.71D-05 MaxDP=3.74D-03 DE=-1.63D-03 OVMax= 5.43D-03

 Cycle   5  Pass 1  IDiag  1:
 E= -193.643365286430     Delta-E=       -0.000474046204 Rises=F Damp=F
 DIIS: error= 2.51D-04 at cycle   5 NSaved=   5.
 NSaved= 5 IEnMin= 5 EnMin= -193.643365286430     IErMin= 5 ErrMin= 2.51D-04
 ErrMax= 2.51D-04  0.00D+00 EMaxC= 1.00D-01 BMatC= 1.04D-04 BMatP= 2.60D-03
 IDIUse=3 WtCom= 9.97D-01 WtEn= 2.51D-03
 Coeff-Com:  0.239D-03-0.110D-01 0.294D-01 0.160D+00 0.822D+00
 Coeff-En:   0.000D+00 0.000D+00 0.000D+00 0.000D+00 0.100D+01
 Coeff:      0.239D-03-0.110D-01 0.293D-01 0.159D+00 0.822D+00
 Gap=     0.294 Goal=   None    Shift=    0.000
 Gap=     0.302 Goal=   None    Shift=    0.000
 RMSDP=2.75D-05 MaxDP=9.07D-04 DE=-4.74D-04 OVMax= 2.38D-03

 Cycle   6  Pass 1  IDiag  1:
 E= -193.643399959603     Delta-E=       -0.000034673173 Rises=F Damp=F
 DIIS: error= 9.46D-05 at cycle   6 NSaved=   6.
 NSaved= 6 IEnMin= 6 EnMin= -193.643399959603     IErMin= 6 ErrMin= 9.46D-05
 ErrMax= 9.46D-05  0.00D+00 EMaxC= 1.00D-01 BMatC= 8.95D-06 BMatP= 1.04D-04
 IDIUse=1 WtCom= 1.00D+00 WtEn= 0.00D+00
 Coeff-Com:  0.564D-02-0.121D-01-0.577D-01-0.100D+00-0.748D-01 0.124D+01
 Coeff:      0.564D-02-0.121D-01-0.577D-01-0.100D+00-0.748D-01 0.124D+01
 Gap=     0.294 Goal=   None    Shift=    0.000
 Gap=     0.303 Goal=   None    Shift=    0.000
 RMSDP=1.56D-05 MaxDP=8.24D-04 DE=-3.47D-05 OVMax= 1.66D-03

 Cycle   7  Pass 1  IDiag  1:
 E= -193.643406806981     Delta-E=       -0.000006847378 Rises=F Damp=F
 DIIS: error= 2.56D-05 at cycle   7 NSaved=   7.
 NSaved= 7 IEnMin= 7 EnMin= -193.643406806981     IErMin= 7 ErrMin= 2.56D-05
 ErrMax= 2.56D-05  0.00D+00 EMaxC= 1.00D-01 BMatC= 8.35D-07 BMatP= 8.95D-06
 IDIUse=1 WtCom= 1.00D+00 WtEn= 0.00D+00
 Coeff-Com:  0.968D-03-0.150D-02-0.141D-01-0.338D-01-0.748D-01 0.288D+00
 Coeff-Com:  0.835D+00
 Coeff:      0.968D-03-0.150D-02-0.141D-01-0.338D-01-0.748D-01 0.288D+00
 Coeff:      0.835D+00
 Gap=     0.294 Goal=   None    Shift=    0.000
 Gap=     0.303 Goal=   None    Shift=    0.000
 RMSDP=3.96D-06 MaxDP=2.36D-04 DE=-6.85D-06 OVMax= 2.53D-04

 Cycle   8  Pass 1  IDiag  1:
 E= -193.643407115158     Delta-E=       -0.000000308178 Rises=F Damp=F
 DIIS: error= 8.28D-06 at cycle   8 NSaved=   8.
 NSaved= 8 IEnMin= 8 EnMin= -193.643407115158     IErMin= 8 ErrMin= 8.28D-06
 ErrMax= 8.28D-06  0.00D+00 EMaxC= 1.00D-01 BMatC= 1.08D-07 BMatP= 8.35D-07
 IDIUse=1 WtCom= 1.00D+00 WtEn= 0.00D+00
 Coeff-Com: -0.455D-03 0.109D-02 0.313D-02 0.236D-02-0.915D-02-0.698D-01
 Coeff-Com:  0.205D+00 0.868D+00
 Coeff:     -0.455D-03 0.109D-02 0.313D-02 0.236D-02-0.915D-02-0.698D-01
 Coeff:      0.205D+00 0.868D+00
 Gap=     0.294 Goal=   None    Shift=    0.000
 Gap=     0.303 Goal=   None    Shift=    0.000
 RMSDP=1.60D-06 MaxDP=6.87D-05 DE=-3.08D-07 OVMax= 9.33D-05

 Cycle   9  Pass 1  IDiag  1:
 E= -193.643407152751     Delta-E=       -0.000000037593 Rises=F Damp=F
 DIIS: error= 3.79D-06 at cycle   9 NSaved=   9.
 NSaved= 9 IEnMin= 9 EnMin= -193.643407152751     IErMin= 9 ErrMin= 3.79D-06
 ErrMax= 3.79D-06  0.00D+00 EMaxC= 1.00D-01 BMatC= 1.16D-08 BMatP= 1.08D-07
 IDIUse=1 WtCom= 1.00D+00 WtEn= 0.00D+00
 Coeff-Com: -0.217D-03 0.442D-03 0.236D-02 0.424D-02 0.720D-02-0.500D-01
 Coeff-Com: -0.517D-01 0.223D+00 0.864D+00
 Coeff:     -0.217D-03 0.442D-03 0.236D-02 0.424D-02 0.720D-02-0.500D-01
 Coeff:     -0.517D-01 0.223D+00 0.864D+00
 Gap=     0.294 Goal=   None    Shift=    0.000
 Gap=     0.303 Goal=   None    Shift=    0.000
 RMSDP=4.36D-07 MaxDP=1.44D-05 DE=-3.76D-08 OVMax= 2.62D-05

 Cycle  10  Pass 1  IDiag  1:
 E= -193.643407157011     Delta-E=       -0.000000004259 Rises=F Damp=F
 DIIS: error= 6.82D-07 at cycle  10 NSaved=  10.
 NSaved=10 IEnMin=10 EnMin= -193.643407157011     IErMin=10 ErrMin= 6.82D-07
 ErrMax= 6.82D-07  0.00D+00 EMaxC= 1.00D-01 BMatC= 4.89D-10 BMatP= 1.16D-08
 IDIUse=1 WtCom= 1.00D+00 WtEn= 0.00D+00
 Coeff-Com:  0.199D-04-0.462D-04-0.514D-04 0.145D-03 0.869D-03 0.973D-03
 Coeff-Com: -0.169D-01-0.375D-01 0.608D-01 0.992D+00
 Coeff:      0.199D-04-0.462D-04-0.514D-04 0.145D-03 0.869D-03 0.973D-03
 Coeff:     -0.169D-01-0.375D-01 0.608D-01 0.992D+00
 Gap=     0.294 Goal=   None    Shift=    0.000
 Gap=     0.303 Goal=   None    Shift=    0.000
 RMSDP=1.48D-07 MaxDP=5.11D-06 DE=-4.26D-09 OVMax= 9.61D-06

 Cycle  11  Pass 1  IDiag  1:
 E= -193.643407157259     Delta-E=       -0.000000000248 Rises=F Damp=F
 DIIS: error= 3.29D-07 at cycle  11 NSaved=  11.
 NSaved=11 IEnMin=11 EnMin= -193.643407157259     IErMin=11 ErrMin= 3.29D-07
 ErrMax= 3.29D-07  0.00D+00 EMaxC= 1.00D-01 BMatC= 1.15D-10 BMatP= 4.89D-10
 IDIUse=1 WtCom= 1.00D+00 WtEn= 0.00D+00
 Coeff-Com:  0.262D-04-0.552D-04-0.227D-03-0.307D-03-0.331D-03 0.478D-02
 Coeff-Com: -0.154D-02-0.323D-01-0.561D-01 0.349D+00 0.737D+00
 Coeff:      0.262D-04-0.552D-04-0.227D-03-0.307D-03-0.331D-03 0.478D-02
 Coeff:     -0.154D-02-0.323D-01-0.561D-01 0.349D+00 0.737D+00
 Gap=     0.294 Goal=   None    Shift=    0.000
 Gap=     0.303 Goal=   None    Shift=    0.000
 RMSDP=3.62D-08 MaxDP=1.12D-06 DE=-2.48D-10 OVMax= 2.63D-06

 Cycle  12  Pass 1  IDiag  1:
 E= -193.643407157301     Delta-E=       -0.000000000042 Rises=F Damp=F
 DIIS: error= 1.08D-07 at cycle  12 NSaved=  12.
 NSaved=12 IEnMin=12 EnMin= -193.643407157301     IErMin=12 ErrMin= 1.08D-07
 ErrMax= 1.08D-07  0.00D+00 EMaxC= 1.00D-01 BMatC= 8.16D-12 BMatP= 1.15D-10
 IDIUse=1 WtCom= 1.00D+00 WtEn= 0.00D+00
 Coeff-Com:  0.119D-05-0.259D-05-0.277D-04-0.581D-04-0.138D-03 0.574D-03
 Coeff-Com:  0.189D-02 0.122D-03-0.167D-01-0.804D-01 0.928D-01 0.100D+01
 Coeff:      0.119D-05-0.259D-05-0.277D-04-0.581D-04-0.138D-03 0.574D-03
 Coeff:      0.189D-02 0.122D-03-0.167D-01-0.804D-01 0.928D-01 0.100D+01
 Gap=     0.294 Goal=   None    Shift=    0.000
 Gap=     0.303 Goal=   None    Shift=    0.000
 RMSDP=1.92D-08 MaxDP=6.78D-07 DE=-4.18D-11 OVMax= 1.42D-06

 Cycle  13  Pass 1  IDiag  1:
 E= -193.643407157304     Delta-E=       -0.000000000003 Rises=F Damp=F
 DIIS: error= 3.48D-08 at cycle  13 NSaved=  13.
 NSaved=13 IEnMin=13 EnMin= -193.643407157304     IErMin=13 ErrMin= 3.48D-08
 ErrMax= 3.48D-08  0.00D+00 EMaxC= 1.00D-01 BMatC= 6.08D-13 BMatP= 8.16D-12
 IDIUse=1 WtCom= 1.00D+00 WtEn= 0.00D+00
 Coeff-Com: -0.218D-05 0.452D-05 0.169D-04 0.214D-04 0.238D-04-0.376D-03
 Coeff-Com:  0.274D-03 0.264D-02 0.423D-02-0.339D-01-0.667D-01 0.466D-01
 Coeff-Com:  0.105D+01
 Coeff:     -0.218D-05 0.452D-05 0.169D-04 0.214D-04 0.238D-04-0.376D-03
 Coeff:      0.274D-03 0.264D-02 0.423D-02-0.339D-01-0.667D-01 0.466D-01
 Coeff:      0.105D+01
 Gap=     0.294 Goal=   None    Shift=    0.000
 Gap=     0.303 Goal=   None    Shift=    0.000
 RMSDP=6.61D-09 MaxDP=3.01D-07 DE=-2.79D-12 OVMax= 4.52D-07

 SCF Done:  E(UM062X) =  -193.643407157     A.U. after   13 cycles
            NFock= 13  Conv=0.66D-08     -V/T= 2.0037
 <Sx>= 0.0000 <Sy>= 0.0000 <Sz>= 0.5000 <S**2>= 0.7552 S= 0.5026
 <L.S>= 0.000000000000E+00
 KE= 1.929234471292D+02 PE=-7.075463194579D+02 EE= 1.931826172189D+02
 Annihilation of the first spin contaminant:
 S**2 before annihilation     0.7552,   after     0.7500
 Leave Link  502 at Fri Mar 29 10:56:07 2019, MaxMem=   671088640 cpu:             532.4 elap:              36.1
 (Enter /shared/centos7/gaussian/g16/l801.exe)
 DoSCS=F DFT=T ScalE2(SS,OS)=  1.000000  1.000000
 Range of M.O.s used for correlation:     1   199
 NBasis=   199 NAE=    17 NBE=    16 NFC=     0 NFV=     0
 NROrb=    199 NOA=    17 NOB=    16 NVA=   182 NVB=   183

 **** Warning!!: The largest alpha MO coefficient is  0.31497615D+02


 **** Warning!!: The largest beta MO coefficient is  0.34899937D+02

 Leave Link  801 at Fri Mar 29 10:56:07 2019, MaxMem=   671088640 cpu:               0.6 elap:               0.1
 (Enter /shared/centos7/gaussian/g16/l1101.exe)
 Using compressed storage, NAtomX=    11.
 Will process     12 centers per pass.
 Leave Link 1101 at Fri Mar 29 10:56:07 2019, MaxMem=   671088640 cpu:               5.8 elap:               0.3
 (Enter /shared/centos7/gaussian/g16/l1102.exe)
 Symmetrizing basis deriv contribution to polar:
 IMax=3 JMax=2 DiffMx= 0.00D+00
 Leave Link 1102 at Fri Mar 29 10:56:07 2019, MaxMem=   671088640 cpu:               0.5 elap:               0.1
 (Enter /shared/centos7/gaussian/g16/l1110.exe)
 Forming Gx(P) for the SCF density, NAtomX=    11.
 Integral derivatives from FoFJK, PRISM(SPDF).
 Do as many integral derivatives as possible in FoFJK.
 G2DrvN: MDV=     671087712.
 G2DrvN: will do    12 centers at a time, making    1 passes.
 Calling FoFCou, ICntrl=  3107 FMM=F I1Cent=   0 AccDes= 0.00D+00.
 FoFJK:  IHMeth= 1 ICntrl=    3107 DoSepK=F KAlg= 0 I1Cent=           0 FoldK=F
 IRaf=         0 NMat=       1 IRICut=       1 DoRegI=T DoRafI=F ISym2E= 0 IDoP0=0 IntGTp=1.
 FoFCou: FMM=F IPFlag=           0 FMFlag=      100000 FMFlg1=           0
         NFxFlg=           0 DoJE=F BraDBF=F KetDBF=F FulRan=T
         wScrn=  0.000000 ICntrl=      3107 IOpCl=  1 I1Cent=           0 NGrid=           0
         NMat0=    1 NMatS0=      1 NMatT0=    0 NMatD0=    1 NMtDS0=    0 NMtDT0=    0
 Symmetry not used in FoFCou.
 End of G2Drv F.D. properties file   721 does not exist.
 End of G2Drv F.D. properties file   722 does not exist.
 End of G2Drv F.D. properties file   788 does not exist.
 Leave Link 1110 at Fri Mar 29 10:57:08 2019, MaxMem=   671088640 cpu:            1218.7 elap:              61.0
 (Enter /shared/centos7/gaussian/g16/l1002.exe)
 Minotr:  UHF open shell wavefunction.
          IDoAtm=11111111111
          Direct CPHF calculation.
          Differentiating once with respect to nuclear coordinates.
          Requested convergence is 1.0D-08 RMS, and 1.0D-07 maximum.
          Secondary convergence is 1.0D-12 RMS, and 1.0D-12 maximum.
          NewPWx=T KeepS1=F KeepF1=F KeepIn=T MapXYZ=F SortEE=F KeepMc=T.
         3335 words used for storage of precomputed grid.
 Keep R1 and R2 ints in memory in canonical form, NReq=416899964.
 FoFCou: FMM=F IPFlag=           0 FMFlag=           0 FMFlg1=           0
         NFxFlg=           0 DoJE=F BraDBF=F KetDBF=F FulRan=T
         wScrn=  0.000000 ICntrl=       600 IOpCl=  0 I1Cent=           0 NGrid=           0
         NMat0=    1 NMatS0=  19900 NMatT0=    0 NMatD0=    1 NMtDS0=    0 NMtDT0=    0
 Symmetry not used in FoFCou.
 Two-electron integral symmetry not used.
          MDV=     671088640 using IRadAn=       1.
          Solving linear equations simultaneously, MaxMat=       0.
          There are    36 degrees of freedom in the 1st order CPHF.  IDoFFX=6 NUNeed=     0.
     30 vectors produced by pass  0 Test12= 1.67D-14 2.78D-09 XBig12= 1.39D-01 8.74D-02.
 AX will form    30 AO Fock derivatives at one time.
     30 vectors produced by pass  1 Test12= 1.67D-14 2.78D-09 XBig12= 5.12D-03 1.58D-02.
     30 vectors produced by pass  2 Test12= 1.67D-14 2.78D-09 XBig12= 1.64D-04 2.41D-03.
     30 vectors produced by pass  3 Test12= 1.67D-14 2.78D-09 XBig12= 2.40D-06 2.85D-04.
     30 vectors produced by pass  4 Test12= 1.67D-14 2.78D-09 XBig12= 3.70D-08 2.01D-05.
     30 vectors produced by pass  5 Test12= 1.67D-14 2.78D-09 XBig12= 3.89D-10 1.88D-06.
     29 vectors produced by pass  6 Test12= 1.67D-14 2.78D-09 XBig12= 3.09D-12 1.99D-07.
     11 vectors produced by pass  7 Test12= 1.67D-14 2.78D-09 XBig12= 2.25D-14 1.54D-08.
 InvSVY:  IOpt=1 It=  1 EMax= 2.00D-15
 Solved reduced A of dimension   220 with    30 vectors.
 End of Minotr F.D. properties file   721 does not exist.
 End of Minotr F.D. properties file   722 does not exist.
 End of Minotr F.D. properties file   788 does not exist.
 Leave Link 1002 at Fri Mar 29 10:58:27 2019, MaxMem=   671088640 cpu:            1580.6 elap:              79.1
 (Enter /shared/centos7/gaussian/g16/l601.exe)
 Copying SCF densities to generalized density rwf, IOpCl= 1 IROHF=0.

 **********************************************************************

            Population analysis using the SCF density.

 **********************************************************************

 Orbital symmetries:
 Alpha Orbitals:
       Occupied  (A) (A) (A) (A) (A) (A) (A) (A) (A) (A) (A) (A)
                 (A) (A) (A) (A) (A)
       Virtual   (A) (A) (A) (A) (A) (A) (A) (A) (A) (A) (A) (A)
                 (A) (A) (A) (A) (A) (A) (A) (A) (A) (A) (A) (A)
                 (A) (A) (A) (A) (A) (A) (A) (A) (A) (A) (A) (A)
                 (A) (A) (A) (A) (A) (A) (A) (A) (A) (A) (A) (A)
                 (A) (A) (A) (A) (A) (A) (A) (A) (A) (A) (A) (A)
                 (A) (A) (A) (A) (A) (A) (A) (A) (A) (A) (A) (A)
                 (A) (A) (A) (A) (A) (A) (A) (A) (A) (A) (A) (A)
                 (A) (A) (A) (A) (A) (A) (A) (A) (A) (A) (A) (A)
                 (A) (A) (A) (A) (A) (A) (A) (A) (A) (A) (A) (A)
                 (A) (A) (A) (A) (A) (A) (A) (A) (A) (A) (A) (A)
                 (A) (A) (A) (A) (A) (A) (A) (A) (A) (A) (A) (A)
                 (A) (A) (A) (A) (A) (A) (A) (A) (A) (A) (A) (A)
                 (A) (A) (A) (A) (A) (A) (A) (A) (A) (A) (A) (A)
                 (A) (A) (A) (A) (A) (A) (A) (A) (A) (A) (A) (A)
                 (A) (A) (A) (A) (A) (A) (A) (A) (A) (A) (A) (A)
                 (A) (A)
 Beta  Orbitals:
       Occupied  (A) (A) (A) (A) (A) (A) (A) (A) (A) (A) (A) (A)
                 (A) (A) (A) (A)
       Virtual   (A) (A) (A) (A) (A) (A) (A) (A) (A) (A) (A) (A)
                 (A) (A) (A) (A) (A) (A) (A) (A) (A) (A) (A) (A)
                 (A) (A) (A) (A) (A) (A) (A) (A) (A) (A) (A) (A)
                 (A) (A) (A) (A) (A) (A) (A) (A) (A) (A) (A) (A)
                 (A) (A) (A) (A) (A) (A) (A) (A) (A) (A) (A) (A)
                 (A) (A) (A) (A) (A) (A) (A) (A) (A) (A) (A) (A)
                 (A) (A) (A) (A) (A) (A) (A) (A) (A) (A) (A) (A)
                 (A) (A) (A) (A) (A) (A) (A) (A) (A) (A) (A) (A)
                 (A) (A) (A) (A) (A) (A) (A) (A) (A) (A) (A) (A)
                 (A) (A) (A) (A) (A) (A) (A) (A) (A) (A) (A) (A)
                 (A) (A) (A) (A) (A) (A) (A) (A) (A) (A) (A) (A)
                 (A) (A) (A) (A) (A) (A) (A) (A) (A) (A) (A) (A)
                 (A) (A) (A) (A) (A) (A) (A) (A) (A) (A) (A) (A)
                 (A) (A) (A) (A) (A) (A) (A) (A) (A) (A) (A) (A)
                 (A) (A) (A) (A) (A) (A) (A) (A) (A) (A) (A) (A)
                 (A) (A) (A)
 The electronic state is 2-A.
 Alpha  occ. eigenvalues --  -19.62410 -10.58716 -10.57306 -10.54625  -1.16145
 Alpha  occ. eigenvalues --   -0.86011  -0.77752  -0.68546  -0.57047  -0.55981
 Alpha  occ. eigenvalues --   -0.53589  -0.48850  -0.45960  -0.44925  -0.39150
 Alpha  occ. eigenvalues --   -0.33711  -0.27291
 Alpha virt. eigenvalues --    0.02134   0.03548   0.03731   0.04611   0.06456
 Alpha virt. eigenvalues --    0.07220   0.07344   0.08658   0.09768   0.11165
 Alpha virt. eigenvalues --    0.11909   0.14799   0.17734   0.19167   0.20940
 Alpha virt. eigenvalues --    0.22707   0.23060   0.24414   0.24998   0.26726
 Alpha virt. eigenvalues --    0.27434   0.30024   0.30964   0.31981   0.33092
 Alpha virt. eigenvalues --    0.36007   0.43381   0.43906   0.44992   0.49646
 Alpha virt. eigenvalues --    0.50605   0.52364   0.53175   0.55543   0.55822
 Alpha virt. eigenvalues --    0.56508   0.58671   0.60622   0.60907   0.62045
 Alpha virt. eigenvalues --    0.62530   0.64679   0.66115   0.67076   0.68484
 Alpha virt. eigenvalues --    0.77835   0.82868   0.84852   0.86440   0.90837
 Alpha virt. eigenvalues --    0.92883   0.94252   0.97747   1.00179   1.01115
 Alpha virt. eigenvalues --    1.05021   1.08118   1.09045   1.11693   1.14539
 Alpha virt. eigenvalues --    1.15853   1.18023   1.19383   1.20629   1.22969
 Alpha virt. eigenvalues --    1.26731   1.28347   1.31379   1.32740   1.33720
 Alpha virt. eigenvalues --    1.37524   1.39154   1.40106   1.42058   1.44848
 Alpha virt. eigenvalues --    1.46775   1.47613   1.48999   1.50412   1.53645
 Alpha virt. eigenvalues --    1.57842   1.60586   1.63253   1.67068   1.73350
 Alpha virt. eigenvalues --    1.99523   2.05936   2.11548   2.25249   2.32347
 Alpha virt. eigenvalues --    2.40381   2.43383   2.46808   2.55581   2.56602
 Alpha virt. eigenvalues --    2.61208   2.64430   2.76158   2.81828   2.86464
 Alpha virt. eigenvalues --    2.90019   2.92647   2.97332   2.98892   3.01625
 Alpha virt. eigenvalues --    3.05909   3.07584   3.10087   3.10883   3.13346
 Alpha virt. eigenvalues --    3.16124   3.17325   3.18355   3.23835   3.24867
 Alpha virt. eigenvalues --    3.27939   3.29510   3.34438   3.37249   3.38693
 Alpha virt. eigenvalues --    3.41577   3.46501   3.49808   3.52874   3.59597
 Alpha virt. eigenvalues --    3.60726   3.63606   3.67521   3.70539   3.73386
 Alpha virt. eigenvalues --    3.78594   3.79769   3.86856   3.87251   3.90427
 Alpha virt. eigenvalues --    3.91765   3.98915   4.03594   4.09220   4.11147
 Alpha virt. eigenvalues --    4.13336   4.17230   4.19720   4.21416   4.24843
 Alpha virt. eigenvalues --    4.25439   4.28831   4.30369   4.33011   4.37572
 Alpha virt. eigenvalues --    4.41662   4.44477   4.48701   4.53973   4.65105
 Alpha virt. eigenvalues --    4.88921   4.91257   5.13918   5.23670   5.26837
 Alpha virt. eigenvalues --    5.30384   5.43557   5.49372   5.51083   5.54242
 Alpha virt. eigenvalues --    5.54772   5.61510   5.69913   5.81865   5.89079
 Alpha virt. eigenvalues --    6.23579   6.46101   6.70184   7.19063   7.20367
 Alpha virt. eigenvalues --    7.31922   7.66759   7.74587  24.22563  24.43178
 Alpha virt. eigenvalues --   24.49192  50.15512
  Beta  occ. eigenvalues --  -19.62384 -10.58780 -10.57295 -10.53943  -1.16019
  Beta  occ. eigenvalues --   -0.84434  -0.76350  -0.66781  -0.56554  -0.55224
  Beta  occ. eigenvalues --   -0.53167  -0.47972  -0.45257  -0.44174  -0.38804
  Beta  occ. eigenvalues --   -0.33463
  Beta virt. eigenvalues --   -0.03155   0.01560   0.03472   0.03571   0.04326
  Beta virt. eigenvalues --    0.06552   0.07171   0.07355   0.08418   0.09877
  Beta virt. eigenvalues --    0.10899   0.11936   0.13892   0.17825   0.19347
  Beta virt. eigenvalues --    0.21130   0.22728   0.23167   0.24499   0.25466
  Beta virt. eigenvalues --    0.26927   0.27774   0.30353   0.31341   0.31936
  Beta virt. eigenvalues --    0.32748   0.36372   0.43746   0.44198   0.45035
  Beta virt. eigenvalues --    0.49828   0.51340   0.52786   0.54194   0.55748
  Beta virt. eigenvalues --    0.56065   0.58081   0.59059   0.61134   0.61196
  Beta virt. eigenvalues --    0.62259   0.63418   0.65174   0.66391   0.66737
  Beta virt. eigenvalues --    0.68786   0.77842   0.83168   0.84725   0.86347
  Beta virt. eigenvalues --    0.90813   0.92534   0.94025   0.97985   0.99643
  Beta virt. eigenvalues --    1.00952   1.04979   1.08676   1.09037   1.11706
  Beta virt. eigenvalues --    1.14420   1.16005   1.17846   1.19625   1.20756
  Beta virt. eigenvalues --    1.23450   1.26900   1.28810   1.31927   1.32882
  Beta virt. eigenvalues --    1.33857   1.37793   1.39498   1.40246   1.42201
  Beta virt. eigenvalues --    1.45078   1.46909   1.48131   1.49927   1.50795
  Beta virt. eigenvalues --    1.54114   1.58879   1.60579   1.63513   1.67104
  Beta virt. eigenvalues --    1.73720   2.00090   2.06160   2.11657   2.25391
  Beta virt. eigenvalues --    2.32528   2.40408   2.44007   2.47168   2.56208
  Beta virt. eigenvalues --    2.57474   2.61981   2.66022   2.81123   2.85745
  Beta virt. eigenvalues --    2.90360   2.92682   2.96860   2.97754   3.02679
  Beta virt. eigenvalues --    3.03988   3.07890   3.09307   3.11386   3.12312
  Beta virt. eigenvalues --    3.14582   3.17021   3.20540   3.22215   3.25187
  Beta virt. eigenvalues --    3.28639   3.29474   3.34293   3.35583   3.39195
  Beta virt. eigenvalues --    3.40047   3.43481   3.48433   3.51654   3.55242
  Beta virt. eigenvalues --    3.60273   3.61809   3.66125   3.68152   3.72475
  Beta virt. eigenvalues --    3.74370   3.79831   3.81215   3.87092   3.87488
  Beta virt. eigenvalues --    3.91203   3.92065   4.00138   4.05701   4.11361
  Beta virt. eigenvalues --    4.12385   4.15985   4.20015   4.21518   4.22656
  Beta virt. eigenvalues --    4.26236   4.26878   4.30229   4.31923   4.34641
  Beta virt. eigenvalues --    4.38238   4.41953   4.45310   4.49271   4.55268
  Beta virt. eigenvalues --    4.70292   4.91007   4.93182   5.17464   5.23736
  Beta virt. eigenvalues --    5.26927   5.31795   5.45933   5.51143   5.54049
  Beta virt. eigenvalues --    5.54967   5.58251   5.62227   5.70133   5.82000
  Beta virt. eigenvalues --    5.89395   6.23658   6.46121   6.70236   7.19154
  Beta virt. eigenvalues --    7.20452   7.32016   7.66841   7.74695  24.23649
  Beta virt. eigenvalues --   24.43201  24.49719  50.15493
          Condensed to atoms (all electrons):
               1          2          3          4          5          6
     1  O    8.219720   0.197202   0.131575  -0.137641  -0.030184  -0.070026
     2  C    0.197202   5.146754  -0.119204   0.113081   0.475203   0.430553
     3  C    0.131575  -0.119204   4.959774   0.015180  -0.004120   0.005855
     4  C   -0.137641   0.113081   0.015180   5.697234  -0.093078  -0.036441
     5  H   -0.030184   0.475203  -0.004120  -0.093078   0.536778  -0.034680
     6  H   -0.070026   0.430553   0.005855  -0.036441  -0.034680   0.566581
     7  H   -0.039955  -0.022537   0.424478   0.021176  -0.002325  -0.000504
     8  H   -0.055494   0.006970   0.432167   0.002280  -0.000331   0.000070
     9  H   -0.052635   0.008481   0.432087  -0.009767   0.006489   0.000506
    10  H    0.004829  -0.027313   0.000742   0.391837   0.004683  -0.002134
    11  H    0.007461  -0.022591  -0.001014   0.390932  -0.001137   0.000631
               7          8          9         10         11
     1  O   -0.039955  -0.055494  -0.052635   0.004829   0.007461
     2  C   -0.022537   0.006970   0.008481  -0.027313  -0.022591
     3  C    0.424478   0.432167   0.432087   0.000742  -0.001014
     4  C    0.021176   0.002280  -0.009767   0.391837   0.390932
     5  H   -0.002325  -0.000331   0.006489   0.004683  -0.001137
     6  H   -0.000504   0.000070   0.000506  -0.002134   0.000631
     7  H    0.580173  -0.027883  -0.052745  -0.002000  -0.001164
     8  H   -0.027883   0.537782  -0.025750  -0.000146   0.000040
     9  H   -0.052745  -0.025750   0.580095   0.000309   0.000239
    10  H   -0.002000  -0.000146   0.000309   0.468980  -0.020230
    11  H   -0.001164   0.000040   0.000239  -0.020230   0.482073
          Atomic-Atomic Spin Densities.
               1          2          3          4          5          6
     1  O    0.035465   0.006618  -0.007791  -0.029653   0.009254  -0.017831
     2  C    0.006618  -0.046288   0.009033  -0.053421   0.009988   0.021850
     3  C   -0.007791   0.009033   0.039226  -0.014784  -0.000184   0.001027
     4  C   -0.029653  -0.053421  -0.014784   1.236322  -0.022893  -0.029100
     5  H    0.009254   0.009988  -0.000184  -0.022893   0.026355  -0.012759
     6  H   -0.017831   0.021850   0.001027  -0.029100  -0.012759   0.081936
     7  H    0.002000   0.006636   0.006899  -0.012992   0.000044   0.000061
     8  H    0.000205  -0.001324  -0.004984   0.003463  -0.000172   0.000163
     9  H   -0.000779  -0.002057  -0.001264   0.002185  -0.000235   0.000011
    10  H    0.002584   0.004108   0.001625  -0.013599   0.000334  -0.001505
    11  H   -0.000025   0.010830   0.000164  -0.011509   0.000940  -0.000860
               7          8          9         10         11
     1  O    0.002000   0.000205  -0.000779   0.002584  -0.000025
     2  C    0.006636  -0.001324  -0.002057   0.004108   0.010830
     3  C    0.006899  -0.004984  -0.001264   0.001625   0.000164
     4  C   -0.012992   0.003463   0.002185  -0.013599  -0.011509
     5  H    0.000044  -0.000172  -0.000235   0.000334   0.000940
     6  H    0.000061   0.000163   0.000011  -0.001505  -0.000860
     7  H   -0.018343   0.000309   0.000609   0.000635   0.000322
     8  H    0.000309   0.001569   0.000597  -0.000085  -0.000018
     9  H    0.000609   0.000597  -0.001231  -0.000055  -0.000008
    10  H    0.000635  -0.000085  -0.000055  -0.048306   0.006184
    11  H    0.000322  -0.000018  -0.000008   0.006184  -0.044294
 Mulliken charges and spin densities:
               1          2
     1  O   -0.174852   0.000048
     2  C   -0.186599  -0.034026
     3  C   -0.277521   0.028967
     4  C   -0.354794   1.054018
     5  H    0.142703   0.010672
     6  H    0.139590   0.042995
     7  H    0.123286  -0.013819
     8  H    0.130296  -0.000276
     9  H    0.112690  -0.002225
    10  H    0.180442  -0.048081
    11  H    0.164760  -0.038273
 Sum of Mulliken charges =  -0.00000   1.00000
 Mulliken charges and spin densities with hydrogens summed into heavy atoms:
               1          2
     1  O   -0.174852   0.000048
     2  C    0.095693   0.019642
     3  C    0.088751   0.012646
     4  C   -0.009592   0.967664
 APT charges:
               1
     1  O   -0.129499
     2  C   -0.702804
     3  C   -1.049405
     4  C   -0.821929
     5  H    0.334943
     6  H    0.422958
     7  H    0.277384
     8  H    0.486541
     9  H    0.324635
    10  H    0.352553
    11  H    0.504623
 Sum of APT charges =  -0.00000
 APT charges with hydrogens summed into heavy atoms:
               1
     1  O   -0.129499
     2  C    0.055097
     3  C    0.039155
     4  C    0.035247
 Electronic spatial extent (au):  <R**2>=            312.2217
 Charge=             -0.0000 electrons
 Dipole moment (field-independent basis, Debye):
    X=              0.4714    Y=              0.6912    Z=              0.9595  Tot=              1.2730
 Quadrupole moment (field-independent basis, Debye-Ang):
   XX=            -24.4871   YY=            -26.8519   ZZ=            -26.3795
   XY=             -1.4885   XZ=             -0.2787   YZ=             -1.1165
 Traceless Quadrupole moment (field-independent basis, Debye-Ang):
   XX=              1.4191   YY=             -0.9457   ZZ=             -0.4733
   XY=             -1.4885   XZ=             -0.2787   YZ=             -1.1165
 Octapole moment (field-independent basis, Debye-Ang**2):
  XXX=             -7.6331  YYY=             -3.7890  ZZZ=             -0.4865  XYY=              0.7099
  XXY=              1.2404  XXZ=              0.4861  XZZ=             -0.3071  YZZ=             -0.2641
  YYZ=             -1.1289  XYZ=              0.5465
 Hexadecapole moment (field-independent basis, Debye-Ang**3):
 XXXX=           -266.5303 YYYY=            -99.4468 ZZZZ=            -56.3997 XXXY=              2.1227
 XXXZ=              9.5474 YYYX=             -3.4250 YYYZ=             -0.0276 ZZZX=             -0.3467
 ZZZY=             -1.7041 XXYY=            -61.7811 XXZZ=            -53.4172 YYZZ=            -26.0500
 XXYZ=              0.8566 YYXZ=             -1.0488 ZZXY=              1.0734
 N-N= 1.277968479525D+02 E-N=-7.075463186950D+02  KE= 1.929234471292D+02
  Exact polarizability:   0.000   0.000   0.000   0.000   0.000   0.000
 Approx polarizability:  47.750  -0.226  45.823   0.628   0.013  45.253
                          Isotropic Fermi Contact Couplings
        Atom                 a.u.       MegaHertz       Gauss      10(-4) cm-1
     1  O(17)              0.02809     -17.02898      -6.07636      -5.68026
     2  C(13)             -0.03480     -39.11970     -13.95888     -13.04893
     3  C(13)              0.00263       2.95666       1.05501       0.98624
     4  C(13)              0.17219     193.57042      69.07074      64.56814
     5  H(1)               0.00746      33.32325      11.89057      11.11544
     6  H(1)               0.02685     120.02950      42.82951      40.03753
     7  H(1)               0.00043       1.91415       0.68302       0.63849
     8  H(1)              -0.00017      -0.74122      -0.26448      -0.24724
     9  H(1)              -0.00020      -0.87373      -0.31177      -0.29145
    10  H(1)              -0.01514     -67.67633     -24.14860     -22.57439
    11  H(1)              -0.01607     -71.81589     -25.62569     -23.95520
 --------------------------------------------------------
       Center         ----  Spin Dipole Couplings  ----
                      3XX-RR        3YY-RR        3ZZ-RR
 --------------------------------------------------------
     1   Atom        0.041876     -0.021477     -0.020399
     2   Atom       -0.007652      0.009085     -0.001433
     3   Atom        0.003286      0.011196     -0.014482
     4   Atom        0.141761      0.158481     -0.300241
     5   Atom       -0.003320      0.002915      0.000405
     6   Atom       -0.004096      0.016579     -0.012483
     7   Atom        0.016941     -0.005534     -0.011406
     8   Atom        0.005269     -0.002215     -0.003055
     9   Atom        0.005063     -0.003672     -0.001392
    10   Atom       -0.042204     -0.017908      0.060112
    11   Atom        0.036855     -0.031545     -0.005309
 --------------------------------------------------------
                        XY            XZ            YZ
 --------------------------------------------------------
     1   Atom        0.012497      0.028401      0.009369
     2   Atom        0.010090      0.001341      0.012460
     3   Atom        0.006436     -0.000748     -0.000426
     4   Atom       -0.696287     -0.404574      0.412845
     5   Atom        0.007619     -0.009144     -0.011834
     6   Atom        0.004632     -0.001392     -0.000014
     7   Atom       -0.003237      0.000252     -0.000691
     8   Atom        0.000591      0.001635      0.000142
     9   Atom        0.001685     -0.004136     -0.000845
    10   Atom       -0.032271     -0.009617     -0.038961
    11   Atom       -0.000492      0.051553      0.041882
 --------------------------------------------------------


 ---------------------------------------------------------------------------------
              Anisotropic Spin Dipole Couplings in Principal Axis System
 ---------------------------------------------------------------------------------

       Atom             a.u.   MegaHertz   Gauss  10(-4) cm-1        Axes

              Baa    -0.0333     2.412     0.861     0.805 -0.2604 -0.4146  0.8720
     1 O(17)  Bbb    -0.0225     1.627     0.580     0.543 -0.3176  0.8897  0.3281
              Bcc     0.0558    -4.039    -1.441    -1.347  0.9118  0.1915  0.3633
 
              Baa    -0.0145    -1.941    -0.692    -0.647  0.7143 -0.5410  0.4439
     2 C(13)  Bbb    -0.0059    -0.798    -0.285    -0.266 -0.6242 -0.2058  0.7537
              Bcc     0.0204     2.738     0.977     0.913  0.3164  0.8155  0.4847
 
              Baa    -0.0145    -1.948    -0.695    -0.650  0.0396  0.0067  0.9992
     3 C(13)  Bbb    -0.0003    -0.040    -0.014    -0.013  0.8716 -0.4892 -0.0313
              Bcc     0.0148     1.988     0.709     0.663  0.4886  0.8722 -0.0252
 
              Baa    -0.5470   -73.405   -26.193   -24.485  0.5749  0.7537 -0.3184
     4 C(13)  Bbb    -0.5402   -72.495   -25.868   -24.182  0.4991 -0.0146  0.8664
              Bcc     1.0873   145.900    52.061    48.667 -0.6484  0.6570  0.3846
 
              Baa    -0.0114    -6.079    -2.169    -2.028  0.5421  0.3451  0.7662
     5 H(1)   Bbb    -0.0082    -4.395    -1.568    -1.466  0.7045 -0.6836 -0.1906
              Bcc     0.0196    10.475     3.738     3.494  0.4580  0.6432 -0.6137
 
              Baa    -0.0127    -6.791    -2.423    -2.265  0.1732 -0.0269  0.9845
     6 H(1)   Bbb    -0.0048    -2.585    -0.922    -0.862  0.9623 -0.2082 -0.1750
              Bcc     0.0176     9.376     3.345     3.127  0.2097  0.9777 -0.0102
 
              Baa    -0.0115    -6.129    -2.187    -2.044  0.0046  0.1177  0.9930
     7 H(1)   Bbb    -0.0059    -3.156    -1.126    -1.053  0.1405  0.9831 -0.1172
              Bcc     0.0174     9.285     3.313     3.097  0.9901 -0.1401  0.0120
 
              Baa    -0.0034    -1.795    -0.641    -0.599 -0.1843 -0.0266  0.9825
     8 H(1)   Bbb    -0.0023    -1.206    -0.430    -0.402 -0.0808  0.9967  0.0119
              Bcc     0.0056     3.002     1.071     1.001  0.9796  0.0772  0.1858
 
              Baa    -0.0040    -2.131    -0.760    -0.711 -0.1352  0.9852  0.1052
     9 H(1)   Bbb    -0.0034    -1.819    -0.649    -0.607  0.4439 -0.0346  0.8954
              Bcc     0.0074     3.950     1.409     1.317  0.8858  0.1678 -0.4327
 
              Baa    -0.0719   -38.366   -13.690   -12.798  0.7490  0.6187  0.2372
    10 H(1)   Bbb    -0.0044    -2.368    -0.845    -0.790 -0.6618  0.6813  0.3126
              Bcc     0.0763    40.735    14.535    13.588  0.0319 -0.3911  0.9198
 
              Baa    -0.0727   -38.781   -13.838   -12.936  0.3152  0.6789 -0.6632
    11 H(1)   Bbb    -0.0042    -2.220    -0.792    -0.740 -0.5571  0.6981  0.4499
              Bcc     0.0768    41.001    14.630    13.677  0.7683  0.2277  0.5982
 

 ---------------------------------------------------------------------------------

 No NMR shielding tensors so no spin-rotation constants.
 Leave Link  601 at Fri Mar 29 10:58:28 2019, MaxMem=   671088640 cpu:               9.3 elap:               0.5
 (Enter /shared/centos7/gaussian/g16/l701.exe)
 ... and contract with generalized density number  0.
 Compute integral second derivatives.
 Leave Link  701 at Fri Mar 29 10:58:28 2019, MaxMem=   671088640 cpu:               8.3 elap:               0.4
 (Enter /shared/centos7/gaussian/g16/l702.exe)
 L702 exits ... SP integral derivatives will be done elsewhere.
 Leave Link  702 at Fri Mar 29 10:58:28 2019, MaxMem=   671088640 cpu:               0.4 elap:               0.0
 (Enter /shared/centos7/gaussian/g16/l703.exe)
 Integral derivatives from FoFJK, PRISM(SPDF).
 Compute integral second derivatives, UseDBF=F ICtDFT=           0.
 Calling FoFJK, ICntrl=    100147 FMM=F ISym2X=0 I1Cent= 0 IOpClX= 1 NMat=1 NMatS=1 NMatT=0.
 FoFJK:  IHMeth= 1 ICntrl=  100147 DoSepK=F KAlg= 0 I1Cent=           0 FoldK=F
 IRaf=         0 NMat=       1 IRICut=       1 DoRegI=T DoRafI=F ISym2E= 0 IDoP0=0 IntGTp=1.
 FoFCou: FMM=F IPFlag=           0 FMFlag=      100000 FMFlg1=         800
         NFxFlg=           0 DoJE=F BraDBF=F KetDBF=F FulRan=T
         wScrn=  0.000000 ICntrl=    100147 IOpCl=  1 I1Cent=           0 NGrid=           0
         NMat0=    1 NMatS0=      1 NMatT0=    0 NMatD0=    1 NMtDS0=    0 NMtDT0=    0
 Symmetry not used in FoFCou.
 Leave Link  703 at Fri Mar 29 10:59:35 2019, MaxMem=   671088640 cpu:            1336.2 elap:              66.8
 (Enter /shared/centos7/gaussian/g16/l716.exe)
 Dipole        = 1.85458931D-01 2.71953361D-01 3.77494406D-01
 Polarizability= 0.00000000D+00 0.00000000D+00 0.00000000D+00
                 0.00000000D+00 0.00000000D+00 0.00000000D+00
 ***** Axes restored to original set *****
 -------------------------------------------------------------------
 Center     Atomic                   Forces (Hartrees/Bohr)
 Number     Number              X              Y              Z
 -------------------------------------------------------------------
      1        8           0.000000284    0.000000119    0.000000516
      2        6          -0.000000063   -0.000000015   -0.000000086
      3        6           0.000000010   -0.000000098    0.000000670
      4        6           0.000000080    0.000000142   -0.000000875
      5        1          -0.000000549   -0.000000297   -0.000000007
      6        1           0.000000206    0.000000119   -0.000000085
      7        1           0.000000011    0.000000011    0.000000181
      8        1           0.000000234    0.000000050    0.000001150
      9        1          -0.000000552   -0.000000340    0.000000785
     10        1           0.000000577    0.000000373   -0.000000938
     11        1          -0.000000237   -0.000000064   -0.000001311
 -------------------------------------------------------------------
 Cartesian Forces:  Max     0.000001311 RMS     0.000000482
 Force constants in Cartesian coordinates: 
                1             2             3             4             5 
      1  0.449744D+00
      2 -0.129816D+00  0.278292D+00
      3 -0.562884D-01 -0.103459D+00  0.232603D+00
      4 -0.202642D+00  0.221255D-01  0.551462D-01  0.475803D+00
      5 -0.426743D-03 -0.734326D-01  0.155217D-01 -0.246890D-01  0.519325D+00
      6  0.823941D-01  0.421233D-04 -0.115047D+00  0.242336D-01 -0.888909D-02
      7 -0.137347D+00  0.589138D-01 -0.173490D-01 -0.408770D-01  0.336344D-01
      8  0.843903D-01 -0.166560D+00  0.574420D-01  0.122442D-01 -0.571139D-02
      9 -0.469202D-01  0.723207D-01 -0.107930D+00  0.867964D-02 -0.136837D-01
     10 -0.377452D-01 -0.275709D-01  0.365092D-02 -0.106067D+00 -0.771103D-01
     11 -0.105191D-01 -0.249910D-03  0.510626D-02 -0.811704D-01 -0.165762D+00
     12  0.216459D-01  0.171488D-01  0.554384D-02 -0.113199D-01 -0.430390D-01
     13 -0.117936D-01  0.599342D-02  0.392423D-01 -0.567083D-01 -0.234191D-02
     14  0.205926D-02  0.178637D-02 -0.121202D-02 -0.433254D-02 -0.504408D-01
     15  0.148198D-01 -0.176430D-02 -0.190698D-01 -0.343769D-01 -0.247269D-01
     16 -0.292480D-01  0.313259D-01 -0.861322D-02 -0.776297D-01  0.722764D-01
     17  0.587526D-02 -0.676146D-03  0.149506D-03  0.930672D-01 -0.219819D+00
     18  0.134739D-01 -0.146310D-01  0.556342D-02 -0.419379D-01  0.765843D-01
     19  0.657671D-02  0.274206D-01  0.353517D-03  0.433622D-02  0.936771D-03
     20  0.552391D-02 -0.335278D-01  0.504342D-02 -0.482251D-02  0.532644D-03
     21  0.334710D-02  0.197384D-01  0.329443D-02  0.840919D-03 -0.851707D-03
     22 -0.244569D-01  0.525206D-02  0.765388D-02  0.477145D-03  0.278458D-02
     23  0.312218D-01 -0.285551D-02 -0.123089D-01  0.164604D-02 -0.314829D-02
     24 -0.170618D-01  0.657874D-03  0.809382D-02 -0.152862D-02  0.160120D-02
     25 -0.105138D-01  0.704448D-02 -0.242114D-01  0.351833D-02 -0.969122D-03
     26  0.135970D-01 -0.164729D-02  0.321490D-01 -0.311733D-02  0.784585D-03
     27 -0.116239D-01  0.107971D-01 -0.155343D-01  0.343012D-02 -0.470811D-03
     28  0.230546D-02  0.208794D-02  0.325300D-03  0.330347D-02 -0.537381D-02
     29  0.130423D-02  0.198794D-02  0.233865D-02  0.266384D-02 -0.524120D-02
     30 -0.104140D-02  0.763728D-03  0.888033D-03  0.202971D-02  0.798445D-03
     31 -0.487980D-02 -0.277676D-02  0.899046D-04 -0.351428D-02  0.127876D-02
     32 -0.320980D-02 -0.311674D-02 -0.771051D-03 -0.136150D-01  0.291242D-02
     33 -0.274507D-02 -0.161486D-02  0.159512D-02 -0.519687D-02 -0.284453D-02
                6             7             8             9            10 
      6  0.565353D+00
      7 -0.117937D-01  0.585995D+00
      8 -0.470955D-02  0.343348D-01  0.527777D+00
      9  0.380293D-02 -0.475838D-01  0.188121D-01  0.564350D+00
     10 -0.981080D-02 -0.110272D-02 -0.225440D-02  0.964601D-03  0.370084D+00
     11 -0.401655D-01  0.172028D-02  0.190321D-02  0.442900D-04  0.206449D+00
     12 -0.938631D-01 -0.144237D-02  0.320219D-02 -0.224296D-03 -0.162716D+00
     13 -0.389144D-01  0.424508D-02 -0.316049D-02  0.533844D-02  0.116075D-02
     14 -0.232483D-01 -0.616651D-03  0.406046D-04 -0.248507D-02 -0.421463D-02
     15 -0.281950D+00 -0.254228D-02  0.257279D-02  0.162308D-02 -0.235256D-02
     16 -0.330950D-01 -0.388697D-02 -0.659869D-03  0.467968D-02  0.723132D-02
     17  0.780982D-01 -0.643308D-03  0.183882D-02 -0.134623D-02 -0.803906D-03
     18 -0.826235D-01  0.170236D-02 -0.824144D-04 -0.112872D-02  0.272845D-02
     19  0.790218D-03 -0.981091D-01 -0.993518D-01 -0.148996D-01 -0.139962D-02
     20  0.212565D-02 -0.947320D-01 -0.248173D+00 -0.351783D-01 -0.531955D-04
     21  0.483387D-04 -0.160743D-01 -0.368485D-01 -0.586395D-01 -0.280435D-03
     22 -0.325391D-02 -0.254025D+00 -0.171198D-01  0.113673D+00  0.114744D-03
     23  0.262516D-02 -0.259762D-01 -0.503389D-01  0.124270D-01 -0.434145D-03
     24 -0.795851D-03  0.122089D+00  0.781849D-02 -0.117557D+00 -0.525658D-04
     25 -0.551013D-02 -0.555992D-01 -0.740361D-02 -0.244302D-01 -0.234159D-03
     26  0.333254D-02 -0.706519D-02 -0.601138D-01 -0.512748D-01  0.335327D-03
     27  0.129771D-02 -0.270557D-01 -0.474933D-01 -0.284456D+00 -0.491212D-03
     28 -0.142583D-01 -0.183341D-03  0.768563D-04 -0.146324D-03 -0.359822D-01
     29 -0.250019D-01 -0.302842D-03  0.231897D-03 -0.652882D-04 -0.157131D-01
     30 -0.204544D-02  0.113505D-03 -0.760404D-03  0.674452D-04  0.214830D-01
     31  0.921842D-02  0.890206D-03 -0.109607D-02  0.644600D-03 -0.196060D+00
     32  0.157907D-01  0.732961D-03 -0.894293D-03  0.429312D-03 -0.786302D-01
     33  0.582263D-02 -0.635079D-04  0.466419D-04  0.913239D-04  0.146876D+00
               11            12            13            14            15 
     11  0.336825D+00
     12  0.123632D+00  0.554595D+00
     13 -0.249466D-02 -0.179537D-01  0.645324D-01
     14 -0.746777D-02 -0.285437D-01  0.571739D-02  0.549675D-01
     15 -0.222103D-02 -0.600912D-02  0.274616D-01  0.286914D-01  0.314932D+00
     16 -0.153418D-01  0.463309D-02 -0.235145D-03  0.424680D-02 -0.303667D-02
     17 -0.269066D-01  0.611052D-02 -0.132472D-02  0.344757D-02 -0.198181D-03
     18 -0.581605D-02  0.507254D-02 -0.128458D-01  0.264355D-01 -0.118042D-01
     19 -0.324518D-03 -0.738646D-03 -0.345583D-03  0.903862D-04  0.430927D-04
     20  0.534397D-03 -0.937937D-03  0.462431D-03 -0.126610D-03 -0.469580D-03
     21  0.159912D-03 -0.252128D-04 -0.491018D-03 -0.336622D-04 -0.214532D-03
     22  0.431467D-03  0.191437D-03  0.757182D-04 -0.328672D-04  0.172218D-03
     23  0.191084D-03 -0.382575D-03 -0.107235D-03 -0.101058D-03 -0.177836D-05
     24  0.361332D-04  0.214071D-03 -0.216366D-03  0.225411D-03  0.555182D-03
     25 -0.207017D-03  0.637809D-03  0.487756D-03 -0.930913D-04  0.135954D-02
     26 -0.243057D-03 -0.607126D-03 -0.537237D-03  0.277292D-03 -0.120653D-02
     27 -0.867108D-04 -0.229148D-03 -0.175647D-02  0.237828D-03  0.567061D-03
     28 -0.164057D-01  0.176500D-01 -0.160273D-02 -0.332159D-02 -0.144117D-02
     29 -0.815159D-01 -0.113151D+00 -0.271590D-02 -0.312494D-02  0.189603D-03
     30 -0.120204D+00 -0.299104D+00 -0.114698D-03 -0.113165D-02  0.730677D-03
     31 -0.821380D-01  0.149412D+00  0.183632D-03  0.497522D-03 -0.106681D-03
     32 -0.573091D-01  0.365679D-01  0.508896D-03  0.741839D-03 -0.865481D-03
     33  0.395151D-01 -0.165970D+00  0.250181D-03  0.106437D-02  0.639494D-03
               16            17            18            19            20 
     16  0.106115D+00
     17 -0.947824D-01  0.243344D+00
     18  0.364242D-01 -0.822573D-01  0.839128D-01
     19 -0.262369D-03 -0.272873D-03 -0.260435D-04  0.100032D+00
     20  0.517516D-03  0.000000D+00 -0.805706D-04  0.987823D-01  0.283991D+00
     21 -0.417847D-04  0.340645D-04  0.539310D-05  0.200881D-01  0.319202D-01
     22 -0.108010D-02  0.697262D-04  0.452648D-03 -0.979340D-02 -0.178677D-02
     23  0.142114D-02 -0.196508D-03 -0.275805D-03 -0.245437D-01  0.209717D-03
     24 -0.498681D-03  0.182917D-03  0.551980D-03 -0.582033D-02 -0.669469D-03
     25  0.139705D-03  0.000000D+00  0.246448D-03 -0.519418D-03 -0.421599D-02
     26 -0.211577D-03 -0.147565D-05 -0.634332D-04 -0.286280D-02 -0.377491D-02
     27 -0.826700D-04  0.104019D-03  0.543392D-03  0.695252D-03 -0.204856D-02
     28 -0.254559D-03 -0.695574D-03 -0.221868D-03 -0.473664D-03  0.299889D-04
     29  0.373600D-03  0.310487D-03  0.498866D-03  0.295086D-04  0.112818D-03
     30 -0.238883D-03 -0.438655D-03 -0.309450D-03 -0.234033D-03  0.255082D-03
     31 -0.888720D-03 -0.489784D-03  0.359242D-05 -0.416554D-04  0.294308D-03
     32  0.834311D-03 -0.134268D-02 -0.312048D-03  0.961882D-04  0.221385D-03
     33 -0.130116D-03 -0.438837D-03  0.216350D-03 -0.251487D-03  0.400747D-04
               21            22            23            24            25 
     21  0.566592D-01
     22  0.681508D-02  0.282670D+00
     23  0.148173D-01  0.108829D-01  0.552869D-01
     24  0.323140D-02 -0.123890D+00 -0.129628D-01  0.118951D+00
     25 -0.139346D-01  0.609682D-02  0.568443D-02  0.270096D-01  0.566401D-01
     26 -0.287321D-01 -0.312249D-03  0.838651D-03  0.316693D-02  0.135748D-03
     27 -0.406698D-02 -0.177846D-02 -0.411870D-02 -0.132082D-01  0.387722D-01
     28 -0.313088D-03 -0.331774D-04  0.869485D-04  0.234695D-04  0.130528D-03
     29 -0.461386D-04 -0.453531D-04  0.247940D-04  0.673371D-05  0.121253D-03
     30 -0.127993D-03 -0.805381D-05  0.140539D-03  0.479292D-05  0.509355D-04
     31  0.440000D-04 -0.459698D-04  0.118101D-03 -0.537732D-04 -0.146684D-03
     32 -0.157665D-03 -0.123683D-03  0.891692D-04 -0.634023D-04 -0.974229D-04
     33 -0.164583D-03 -0.282176D-04  0.406226D-04 -0.418550D-04  0.968604D-05
               26            27            28            29            30 
     26  0.638171D-01
     27  0.431101D-01  0.315089D+00
     28 -0.167234D-04  0.496507D-04  0.296142D-01
     29 -0.852271D-04  0.560992D-04  0.146445D-01  0.813073D-01
     30  0.101942D-03  0.580781D-05 -0.195848D-01  0.127084D+00  0.308948D+00
     31  0.550160D-04 -0.158844D-03  0.317605D-02 -0.359762D-03 -0.245527D-02
     32  0.148118D-03 -0.871907D-04  0.888712D-02  0.599196D-02 -0.660954D-02
     33  0.234200D-04 -0.863854D-05  0.179172D-01  0.808957D-02 -0.905815D-02
               31            32            33 
     31  0.201327D+00
     32  0.846167D-01  0.525579D-01
     33 -0.156638D+00 -0.439215D-01  0.166878D+00
 FormGI is forming the generalized inverse of G from B-inverse, IUseBI=4.
 Force constants in internal coordinates: 
                1             2             3             4             5 
      1  0.367487D+00
      2  0.805915D-02  0.376052D+00
      3  0.301153D-01  0.323030D-03  0.309317D+00
      4  0.172313D-01  0.253210D-03  0.814051D-02  0.321095D+00
      5  0.124312D-01 -0.141410D-02  0.151213D-01  0.457286D-02  0.325193D+00
      6 -0.265099D-02  0.168746D-01  0.231802D-04  0.429804D-03  0.203091D-03
      7 -0.163835D-02  0.106116D-01 -0.236693D-03 -0.997194D-04  0.190748D-03
      8 -0.916035D-04  0.182496D-01  0.494757D-03  0.409498D-03 -0.622392D-04
      9  0.135261D-02  0.396155D-05  0.312693D-02 -0.437075D-03  0.165035D-03
     10  0.129646D-02 -0.115853D-02  0.150380D-02  0.707052D-03  0.171476D-03
     11  0.577747D-01  0.516664D-01  0.247684D-02 -0.342269D-02  0.441310D-02
     12  0.262280D-01 -0.570365D-03  0.182156D-01 -0.410973D-02 -0.552653D-02
     13  0.121248D-01 -0.604908D-02 -0.138550D-01  0.129641D-02 -0.420899D-03
     14  0.141080D-01  0.454836D-02 -0.169450D-01 -0.341927D-03  0.421426D-02
     15 -0.228763D-01  0.354572D-02  0.106627D-01  0.484671D-02 -0.451548D-02
     16 -0.253517D-01 -0.236373D-02  0.100122D-01 -0.563557D-02  0.316145D-02
     17 -0.419735D-02  0.897816D-03 -0.109666D-01  0.407740D-02  0.407546D-02
     18 -0.383486D-02  0.274440D-01  0.263359D-02 -0.405441D-03 -0.174970D-03
     19  0.711924D-02  0.275359D-01 -0.629449D-03 -0.885602D-04  0.123604D-02
     20 -0.982713D-02  0.280508D-01 -0.255763D-03  0.277158D-02 -0.482188D-03
     21  0.168504D-02 -0.279141D-01 -0.993414D-03 -0.359589D-03 -0.371625D-03
     22  0.254230D-02 -0.291528D-01 -0.619988D-03 -0.642365D-03 -0.687918D-04
     23  0.258959D-02 -0.275236D-01 -0.194480D-03 -0.133790D-02 -0.135731D-03
     24 -0.481454D-02  0.129341D-02  0.788313D-02  0.240355D-02 -0.461069D-03
     25  0.682827D-02 -0.122421D-02  0.632157D-02 -0.109903D-02  0.159164D-02
     26 -0.215165D-02 -0.861270D-04 -0.137817D-01 -0.127243D-02 -0.104800D-02
     27 -0.299108D-02 -0.111190D-02 -0.220031D-02 -0.515626D-02  0.506443D-02
     28 -0.450663D-02 -0.150224D-02  0.145363D-01 -0.822747D-03 -0.522434D-02
     29  0.380328D-02 -0.885662D-03 -0.137539D-01  0.435376D-02  0.156261D-02
     30 -0.278526D-02  0.386269D-03  0.439381D-03  0.742614D-03 -0.413510D-03
     31  0.155946D-02 -0.224799D-03  0.365348D-03  0.794887D-05 -0.185439D-03
     32  0.344773D-02 -0.783522D-03 -0.401047D-03 -0.884875D-04  0.130405D-03
     33  0.595753D-03 -0.327665D-02  0.279407D-02  0.260138D-02 -0.410119D-02
     34  0.161960D-02 -0.318241D-02  0.227901D-02  0.258272D-02 -0.440132D-02
     35 -0.171301D-01  0.237273D-02 -0.582209D-03  0.216673D-03  0.397449D-02
     36 -0.161062D-01  0.246697D-02 -0.109726D-02  0.198020D-03  0.367436D-02
     37  0.183292D-01  0.507317D-03  0.286169D-04 -0.435984D-02 -0.209881D-03
     38  0.193531D-01  0.601557D-03 -0.486436D-03 -0.437850D-02 -0.510008D-03
                6             7             8             9            10 
      6  0.331996D+00
      7  0.323797D-02  0.350143D+00
      8  0.414083D-02  0.308060D-02  0.327663D+00
      9  0.169173D-03  0.180379D-04 -0.351507D-04  0.366152D+00
     10  0.293173D-03  0.250098D-04  0.138861D-03  0.580158D-03  0.368777D+00
     11 -0.507825D-02  0.480669D-02 -0.221808D-02  0.207334D-03 -0.493904D-03
     12 -0.962910D-03 -0.170128D-03 -0.663593D-03 -0.373454D-02  0.518510D-02
     13  0.502842D-03 -0.202162D-03  0.178699D-02 -0.426675D-04 -0.158424D-02
     14  0.561321D-03  0.708613D-03  0.658718D-04  0.806307D-03 -0.180679D-02
     15 -0.649025D-03  0.687728D-04 -0.574504D-03  0.394148D-02 -0.179136D-02
     16  0.780927D-03 -0.438770D-03 -0.654929D-04  0.127648D-03 -0.366853D-03
     17 -0.121395D-03  0.653021D-04 -0.501319D-03 -0.116362D-02  0.117552D-03
     18  0.104174D-02 -0.515329D-02 -0.543630D-02  0.444876D-03 -0.154431D-03
     19 -0.496285D-02  0.355468D-02 -0.523122D-02  0.115508D-03  0.119151D-03
     20 -0.517646D-02 -0.491312D-02  0.189384D-02 -0.138993D-03  0.220483D-03
     21  0.667114D-02  0.592111D-02 -0.559580D-02 -0.220637D-03 -0.605862D-04
     22  0.767319D-02 -0.463620D-02  0.793487D-02 -0.211575D-03 -0.135395D-04
     23 -0.540522D-02  0.578556D-02  0.640914D-02  0.495504D-05 -0.115134D-03
     24 -0.282219D-03  0.201237D-04 -0.181273D-03  0.592902D-02 -0.975306D-02
     25  0.349016D-03  0.663087D-04  0.199215D-03 -0.100347D-01  0.463421D-02
     26 -0.467178D-04 -0.773533D-04 -0.224797D-04  0.435765D-02  0.531482D-02
     27  0.185147D-02 -0.192210D-04 -0.660639D-03 -0.160409D-02  0.589643D-03
     28  0.679468D-03 -0.208102D-03 -0.534813D-03  0.794722D-03  0.829164D-03
     29  0.107282D-02  0.149305D-03 -0.243095D-03 -0.152105D-03 -0.738968D-03
     30  0.301123D-03 -0.662369D-02  0.716971D-02 -0.265035D-04  0.558541D-05
     31  0.593128D-02 -0.127271D-03 -0.620154D-02  0.373304D-04 -0.834124D-04
     32 -0.660904D-02  0.626069D-02 -0.545453D-03  0.346794D-04 -0.245140D-04
     33 -0.289000D-03 -0.268100D-03  0.610789D-03  0.151545D-02  0.631320D-03
     34 -0.387672D-03 -0.306252D-03  0.638438D-03 -0.396152D-03 -0.103325D-02
     35  0.256196D-03  0.699571D-04 -0.807403D-03  0.130525D-02  0.264749D-03
     36  0.157524D-03  0.318048D-04 -0.779754D-03 -0.606348D-03 -0.139982D-02
     37  0.326578D-03  0.220259D-03  0.216254D-03  0.185972D-03  0.147620D-02
     38  0.227905D-03  0.182106D-03  0.243903D-03 -0.172563D-02 -0.188373D-03
               11            12            13            14            15 
     11  0.295915D+00
     12  0.126300D-01  0.168044D+00
     13 -0.821707D-02 -0.605115D-01  0.763550D-01
     14  0.737179D-02 -0.596690D-01  0.633599D-02  0.724630D-01
     15  0.294580D-02 -0.422789D-01 -0.298774D-01  0.201771D-01  0.740527D-01
     16 -0.152079D-01 -0.354577D-01  0.189881D-01 -0.278698D-01 -0.483912D-02
     17 -0.266309D-03  0.217810D-01 -0.595864D-02 -0.727968D-02 -0.198282D-01
     18 -0.168895D-02  0.179749D-02  0.501734D-03 -0.582647D-03  0.692735D-04
     19  0.178643D-01 -0.231670D-02  0.328697D-03  0.309535D-02  0.188231D-03
     20 -0.606992D-02  0.218997D-02 -0.157451D-02 -0.102839D-02 -0.661406D-03
     21 -0.575483D-02 -0.293169D-03  0.217115D-03 -0.870455D-03 -0.121960D-03
     22  0.313396D-03 -0.801334D-03 -0.118468D-04 -0.341640D-04  0.282439D-03
     23 -0.477153D-02 -0.652373D-03  0.572546D-03 -0.581481D-03  0.250276D-03
     24  0.453617D-03 -0.179252D-01  0.133007D-02  0.523919D-02  0.134687D-01
     25 -0.683257D-03  0.185436D-01 -0.277547D-02 -0.579163D-02 -0.108351D-01
     26  0.975187D-04 -0.757281D-03  0.145079D-02  0.673172D-03 -0.248438D-02
     27 -0.823411D-02 -0.787161D-02  0.790824D-02 -0.763612D-03 -0.197180D-01
     28 -0.139813D-02  0.135703D-01 -0.172563D-01 -0.131794D-01  0.235669D-01
     29 -0.165705D-02 -0.212260D-01  0.150854D-01  0.198190D-01 -0.285852D-02
     30 -0.273910D-02  0.133818D-02 -0.392064D-03 -0.786942D-03  0.339157D-04
     31  0.579109D-03  0.559214D-03  0.377154D-03 -0.226733D-03  0.447628D-04
     32  0.224870D-02 -0.399141D-03  0.374663D-03  0.373355D-03  0.862135D-04
     33 -0.237185D-02  0.505172D-03  0.173266D-01 -0.181019D-01 -0.271667D-02
     34 -0.168932D-02  0.141809D-02  0.171073D-01 -0.188489D-01 -0.325089D-02
     35 -0.313467D-02 -0.114087D-01 -0.155197D-01  0.206892D-02  0.109807D-01
     36 -0.245214D-02 -0.104958D-01 -0.157389D-01  0.132187D-02  0.104465D-01
     37  0.485496D-02  0.104025D-01 -0.121011D-02  0.158219D-01 -0.804066D-02
     38  0.553749D-02  0.113154D-01 -0.142934D-02  0.150748D-01 -0.857488D-02
               16            17            18            19            20 
     16  0.682545D-01
     17 -0.184225D-01  0.311056D-01
     18 -0.198252D-02  0.634724D-04  0.140629D+00
     19 -0.531663D-03 -0.569881D-03 -0.308899D-01  0.136454D+00
     20  0.518371D-03  0.462959D-03 -0.330445D-01 -0.304845D-01  0.141267D+00
     21  0.108645D-02 -0.196475D-04 -0.369815D-01 -0.379661D-01 -0.130362D-02
     22  0.631364D-03 -0.381377D-04 -0.403626D-01 -0.471233D-03 -0.407943D-01
     23  0.324501D-03  0.958627D-04 -0.152973D-02 -0.371773D-01 -0.372129D-01
     24  0.118558D-02 -0.308360D-02  0.446518D-03 -0.703415D-04 -0.606484D-03
     25 -0.201510D-02  0.239854D-02  0.727537D-04  0.248709D-03  0.412544D-03
     26  0.673732D-03  0.707955D-03 -0.597620D-03 -0.166319D-03  0.198817D-03
     27  0.229577D-01 -0.807663D-03 -0.266959D-02  0.125869D-02  0.428809D-03
     28  0.514673D-02 -0.153978D-01 -0.878925D-03  0.596103D-04 -0.368323D-04
     29 -0.221818D-01  0.141563D-01 -0.878539D-03  0.119496D-02 -0.784616D-03
     30 -0.423883D-03  0.129668D-03  0.128060D-02 -0.214833D-01  0.209986D-01
     31 -0.592612D-03 -0.219624D-03  0.187464D-01  0.659970D-03 -0.193555D-01
     32 -0.228395D-03 -0.187661D-03 -0.208291D-01  0.215810D-01 -0.256925D-02
     33  0.193273D-02  0.620198D-03  0.612295D-03 -0.105580D-02 -0.425255D-03
     34  0.266336D-02  0.423726D-03  0.109960D-02 -0.109787D-02 -0.473444D-03
     35  0.680722D-02  0.757890D-02 -0.142272D-02  0.741085D-04  0.535838D-03
     36  0.753785D-02  0.738242D-02 -0.935414D-03  0.320330D-04  0.487648D-03
     37 -0.100235D-01 -0.695037D-02 -0.304705D-03  0.994228D-03  0.543369D-04
     38 -0.929283D-02 -0.714684D-02  0.182597D-03  0.952152D-03  0.614776D-05
               21            22            23            24            25 
     21  0.704268D-01
     22  0.415511D-02  0.729885D-01
     23  0.369421D-02  0.441947D-02  0.703098D-01
     24 -0.217658D-04  0.556002D-04  0.200271D-03  0.714188D-01
     25 -0.120693D-03 -0.333242D-03 -0.290120D-03 -0.368126D-01  0.711179D-01
     26  0.183416D-03  0.296371D-03  0.935325D-04 -0.335253D-01 -0.336213D-01
     27  0.399993D-03  0.795651D-03 -0.180779D-03 -0.404123D-02  0.246739D-02
     28  0.191225D-03  0.569898D-03  0.106805D-03  0.150112D-02 -0.273713D-03
     29 -0.191959D-03  0.501762D-03  0.178839D-03  0.131902D-02 -0.186276D-02
     30 -0.206676D-01  0.190309D-01 -0.338171D-03 -0.439320D-04 -0.123955D-03
     31  0.198203D-01  0.164111D-03 -0.203507D-01  0.146395D-03 -0.710544D-04
     32  0.354548D-03 -0.180245D-01  0.209845D-01  0.000000D+00 -0.356951D-04
     33  0.322421D-03  0.714434D-04  0.485761D-03  0.173094D-02 -0.382592D-03
     34  0.831060D-04 -0.653355D-04  0.453492D-03 -0.393109D-04  0.457911D-03
     35  0.346487D-03  0.460831D-03  0.228119D-04  0.287620D-02 -0.210021D-02
     36  0.107171D-03  0.324052D-03 -0.945650D-05  0.110595D-02 -0.125970D-02
     37 -0.232080D-03 -0.646805D-04 -0.456491D-03 -0.252334D-02  0.300920D-02
     38 -0.471395D-03 -0.201459D-03 -0.488759D-03 -0.429359D-02  0.384971D-02
               26            27            28            29            30 
     26  0.655898D-01
     27  0.152132D-02  0.204633D-01
     28 -0.118191D-02 -0.510968D-02  0.225424D-01
     29  0.682569D-03 -0.273614D-02 -0.105076D-01  0.236027D-01
     30  0.146794D-03 -0.920020D-03 -0.194866D-03 -0.646335D-03  0.277458D-01
     31 -0.845028D-04 -0.119418D-02 -0.437804D-03 -0.636619D-03 -0.104947D-01
     32  0.406565D-04 -0.399683D-03 -0.292837D-03 -0.136807D-03 -0.120610D-01
     33 -0.796238D-03 -0.664765D-02  0.339605D-02  0.265156D-02  0.308718D-03
     34 -0.771382D-03 -0.654524D-02  0.329938D-02  0.182611D-02  0.401530D-03
     35 -0.242881D-03  0.384944D-02 -0.196733D-02  0.657885D-03 -0.187594D-03
     36 -0.218024D-03  0.395186D-02 -0.206399D-02 -0.167568D-03 -0.947818D-04
     37  0.223937D-04  0.289949D-02 -0.945744D-03 -0.120370D-02 -0.104405D-03
     38  0.472500D-04  0.300191D-02 -0.104241D-02 -0.202915D-02 -0.115925D-04
               31            32            33            34            35 
     31  0.252040D-01
     32 -0.101113D-01  0.270638D-01
     33  0.391322D-03  0.927456D-04  0.161835D-01
     34  0.449729D-03  0.588245D-04  0.133639D-01  0.153235D-01
     35 -0.549786D-03 -0.171295D-03 -0.485897D-02 -0.765409D-02  0.155156D-01
     36 -0.491379D-03 -0.205216D-03 -0.767858D-02 -0.569455D-02  0.127204D-01
     37  0.648521D-04  0.149805D-03 -0.512638D-02 -0.779891D-02 -0.504398D-02
[...]
                 (A) (A) (A)
 The electronic state is 2-A.
 Alpha  occ. eigenvalues --  -19.62410 -10.58716 -10.57306 -10.54625  -1.16145
 Alpha  occ. eigenvalues --   -0.86011  -0.77752  -0.68546  -0.57047  -0.55981
 Alpha  occ. eigenvalues --   -0.53589  -0.48850  -0.45960  -0.44925  -0.39150
 Alpha  occ. eigenvalues --   -0.33711  -0.27290
 Alpha virt. eigenvalues --    0.02134   0.03548   0.03731   0.04611   0.06456
 Alpha virt. eigenvalues --    0.07220   0.07344   0.08658   0.09768   0.11165
 Alpha virt. eigenvalues --    0.11909   0.14799   0.17733   0.19167   0.20940
 Alpha virt. eigenvalues --    0.22707   0.23059   0.24414   0.24997   0.26725
 Alpha virt. eigenvalues --    0.27434   0.30024   0.30964   0.31982   0.33092
 Alpha virt. eigenvalues --    0.36008   0.43380   0.43906   0.44992   0.49646
 Alpha virt. eigenvalues --    0.50605   0.52364   0.53175   0.55543   0.55822
 Alpha virt. eigenvalues --    0.56508   0.58670   0.60621   0.60907   0.62045
 Alpha virt. eigenvalues --    0.62530   0.64679   0.66115   0.67076   0.68482
 Alpha virt. eigenvalues --    0.77835   0.82868   0.84854   0.86440   0.90836
 Alpha virt. eigenvalues --    0.92882   0.94250   0.97747   1.00179   1.01117
 Alpha virt. eigenvalues --    1.05021   1.08117   1.09045   1.11694   1.14539
 Alpha virt. eigenvalues --    1.15853   1.18023   1.19384   1.20629   1.22968
 Alpha virt. eigenvalues --    1.26731   1.28346   1.31379   1.32740   1.33720
 Alpha virt. eigenvalues --    1.37522   1.39154   1.40106   1.42059   1.44848
 Alpha virt. eigenvalues --    1.46775   1.47614   1.48999   1.50411   1.53644
 Alpha virt. eigenvalues --    1.57843   1.60585   1.63252   1.67067   1.73349
 Alpha virt. eigenvalues --    1.99521   2.05935   2.11548   2.25248   2.32346
 Alpha virt. eigenvalues --    2.40380   2.43382   2.46809   2.55581   2.56604
 Alpha virt. eigenvalues --    2.61209   2.64434   2.76157   2.81827   2.86464
 Alpha virt. eigenvalues --    2.90018   2.92648   2.97331   2.98890   3.01625
 Alpha virt. eigenvalues --    3.05909   3.07583   3.10087   3.10883   3.13347
 Alpha virt. eigenvalues --    3.16124   3.17325   3.18354   3.23828   3.24865
 Alpha virt. eigenvalues --    3.27939   3.29509   3.34436   3.37250   3.38692
 Alpha virt. eigenvalues --    3.41578   3.46503   3.49808   3.52873   3.59596
 Alpha virt. eigenvalues --    3.60725   3.63603   3.67520   3.70537   3.73385
 Alpha virt. eigenvalues --    3.78593   3.79771   3.86856   3.87252   3.90428
 Alpha virt. eigenvalues --    3.91764   3.98914   4.03595   4.09219   4.11147
 Alpha virt. eigenvalues --    4.13338   4.17228   4.19720   4.21414   4.24842
 Alpha virt. eigenvalues --    4.25437   4.28828   4.30367   4.33012   4.37571
 Alpha virt. eigenvalues --    4.41662   4.44477   4.48702   4.53972   4.65106
 Alpha virt. eigenvalues --    4.88924   4.91257   5.13918   5.23669   5.26837
 Alpha virt. eigenvalues --    5.30383   5.43557   5.49375   5.51082   5.54241
 Alpha virt. eigenvalues --    5.54772   5.61508   5.69913   5.81863   5.89079
 Alpha virt. eigenvalues --    6.23578   6.46100   6.70182   7.19061   7.20366
 Alpha virt. eigenvalues --    7.31922   7.66760   7.74586  24.22565  24.43177
 Alpha virt. eigenvalues --   24.49189  50.15511
  Beta  occ. eigenvalues --  -19.62384 -10.58780 -10.57295 -10.53943  -1.16018
  Beta  occ. eigenvalues --   -0.84434  -0.76350  -0.66782  -0.56554  -0.55224
  Beta  occ. eigenvalues --   -0.53167  -0.47972  -0.45257  -0.44174  -0.38804
  Beta  occ. eigenvalues --   -0.33463
  Beta virt. eigenvalues --   -0.03155   0.01560   0.03472   0.03571   0.04326
  Beta virt. eigenvalues --    0.06552   0.07171   0.07355   0.08418   0.09877
  Beta virt. eigenvalues --    0.10899   0.11936   0.13892   0.17825   0.19347
  Beta virt. eigenvalues --    0.21130   0.22728   0.23167   0.24499   0.25466
  Beta virt. eigenvalues --    0.26926   0.27774   0.30353   0.31341   0.31936
  Beta virt. eigenvalues --    0.32748   0.36372   0.43746   0.44198   0.45035
  Beta virt. eigenvalues --    0.49828   0.51341   0.52785   0.54193   0.55748
  Beta virt. eigenvalues --    0.56065   0.58080   0.59058   0.61134   0.61196
  Beta virt. eigenvalues --    0.62260   0.63418   0.65175   0.66391   0.66737
  Beta virt. eigenvalues --    0.68783   0.77841   0.83168   0.84726   0.86347
  Beta virt. eigenvalues --    0.90812   0.92534   0.94025   0.97985   0.99643
  Beta virt. eigenvalues --    1.00953   1.04979   1.08674   1.09036   1.11706
  Beta virt. eigenvalues --    1.14420   1.16006   1.17846   1.19626   1.20756
  Beta virt. eigenvalues --    1.23450   1.26900   1.28809   1.31928   1.32882
  Beta virt. eigenvalues --    1.33857   1.37792   1.39497   1.40245   1.42201
  Beta virt. eigenvalues --    1.45079   1.46909   1.48132   1.49927   1.50795
  Beta virt. eigenvalues --    1.54113   1.58879   1.60579   1.63513   1.67103
  Beta virt. eigenvalues --    1.73719   2.00088   2.06159   2.11657   2.25391
  Beta virt. eigenvalues --    2.32526   2.40408   2.44007   2.47169   2.56208
  Beta virt. eigenvalues --    2.57476   2.61982   2.66026   2.81122   2.85744
  Beta virt. eigenvalues --    2.90359   2.92682   2.96860   2.97754   3.02679
  Beta virt. eigenvalues --    3.03987   3.07889   3.09307   3.11385   3.12311
  Beta virt. eigenvalues --    3.14583   3.17021   3.20539   3.22214   3.25186
  Beta virt. eigenvalues --    3.28630   3.29475   3.34291   3.35581   3.39196
  Beta virt. eigenvalues --    3.40048   3.43482   3.48435   3.51655   3.55241
  Beta virt. eigenvalues --    3.60271   3.61810   3.66124   3.68151   3.72473
  Beta virt. eigenvalues --    3.74369   3.79829   3.81218   3.87092   3.87488
  Beta virt. eigenvalues --    3.91204   3.92064   4.00137   4.05703   4.11361
  Beta virt. eigenvalues --    4.12385   4.15987   4.20014   4.21517   4.22654
  Beta virt. eigenvalues --    4.26235   4.26876   4.30229   4.31920   4.34642
  Beta virt. eigenvalues --    4.38236   4.41952   4.45309   4.49272   4.55268
  Beta virt. eigenvalues --    4.70292   4.91008   4.93186   5.17465   5.23735
  Beta virt. eigenvalues --    5.26927   5.31794   5.45932   5.51142   5.54051
  Beta virt. eigenvalues --    5.54968   5.58251   5.62226   5.70132   5.81999
  Beta virt. eigenvalues --    5.89396   6.23657   6.46120   6.70235   7.19153
  Beta virt. eigenvalues --    7.20451   7.32016   7.66842   7.74695  24.23650
  Beta virt. eigenvalues --   24.43201  24.49717  50.15492
          Condensed to atoms (all electrons):
               1          2          3          4          5          6
     1  O    8.219715   0.197200   0.131567  -0.137612  -0.030186  -0.070028
     2  C    0.197200   5.146756  -0.119195   0.113057   0.475202   0.430556
     3  C    0.131567  -0.119195   4.959770   0.015182  -0.004117   0.005854
     4  C   -0.137612   0.113057   0.015182   5.697234  -0.093083  -0.036445
     5  H   -0.030186   0.475202  -0.004117  -0.093083   0.536789  -0.034684
     6  H   -0.070028   0.430556   0.005854  -0.036445  -0.034684   0.566584
     7  H   -0.039956  -0.022540   0.424478   0.021181  -0.002325  -0.000504
     8  H   -0.055494   0.006970   0.432167   0.002278  -0.000331   0.000070
     9  H   -0.052635   0.008482   0.432088  -0.009766   0.006489   0.000506
    10  H    0.007458  -0.022588  -0.001014   0.390935  -0.001137   0.000631
    11  H    0.004831  -0.027317   0.000743   0.391841   0.004683  -0.002131
               7          8          9         10         11
     1  O   -0.039956  -0.055494  -0.052635   0.007458   0.004831
     2  C   -0.022540   0.006970   0.008482  -0.022588  -0.027317
     3  C    0.424478   0.432167   0.432088  -0.001014   0.000743
     4  C    0.021181   0.002278  -0.009766   0.390935   0.391841
     5  H   -0.002325  -0.000331   0.006489  -0.001137   0.004683
     6  H   -0.000504   0.000070   0.000506   0.000631  -0.002131
     7  H    0.580173  -0.027882  -0.052745  -0.001163  -0.002001
     8  H   -0.027882   0.537785  -0.025752   0.000040  -0.000146
     9  H   -0.052745  -0.025752   0.580093   0.000239   0.000309
    10  H   -0.001163   0.000040   0.000239   0.482065  -0.020231
    11  H   -0.002001  -0.000146   0.000309  -0.020231   0.468976
          Atomic-Atomic Spin Densities.
               1          2          3          4          5          6
     1  O    0.035452   0.006618  -0.007790  -0.029642   0.009256  -0.017829
     2  C    0.006618  -0.046295   0.009033  -0.053421   0.009991   0.021851
     3  C   -0.007790   0.009033   0.039217  -0.014784  -0.000183   0.001027
     4  C   -0.029642  -0.053421  -0.014784   1.236305  -0.022902  -0.029103
     5  H    0.009256   0.009991  -0.000183  -0.022902   0.026371  -0.012765
     6  H   -0.017829   0.021851   0.001027  -0.029103  -0.012765   0.081942
     7  H    0.001999   0.006634   0.006895  -0.012985   0.000044   0.000061
     8  H    0.000205  -0.001324  -0.004983   0.003462  -0.000172   0.000163
     9  H   -0.000779  -0.002056  -0.001262   0.002184  -0.000235   0.000011
    10  H   -0.000025   0.010826   0.000164  -0.011502   0.000940  -0.000859
    11  H    0.002583   0.004108   0.001625  -0.013595   0.000334  -0.001504
               7          8          9         10         11
     1  O    0.001999   0.000205  -0.000779  -0.000025   0.002583
     2  C    0.006634  -0.001324  -0.002056   0.010826   0.004108
     3  C    0.006895  -0.004983  -0.001262   0.000164   0.001625
     4  C   -0.012985   0.003462   0.002184  -0.011502  -0.013595
     5  H    0.000044  -0.000172  -0.000235   0.000940   0.000334
     6  H    0.000061   0.000163   0.000011  -0.000859  -0.001504
     7  H   -0.018337   0.000309   0.000609   0.000322   0.000635
     8  H    0.000309   0.001569   0.000597  -0.000018  -0.000085
     9  H    0.000609   0.000597  -0.001231  -0.000008  -0.000055
    10  H    0.000322  -0.000018  -0.000008  -0.044297   0.006183
    11  H    0.000635  -0.000085  -0.000055   0.006183  -0.048309
 Mulliken charges and spin densities:
               1          2
     1  O   -0.174862   0.000049
     2  C   -0.186582  -0.034033
     3  C   -0.277523   0.028958
     4  C   -0.354803   1.054018
     5  H    0.142699   0.010680
     6  H    0.139592   0.042996
     7  H    0.123284  -0.013814
     8  H    0.130296  -0.000276
     9  H    0.112692  -0.002225
    10  H    0.164765  -0.038273
    11  H    0.180443  -0.048080
 Sum of Mulliken charges =  -0.00000   1.00000
 Mulliken charges and spin densities with hydrogens summed into heavy atoms:
               1          2
     1  O   -0.174862   0.000049
     2  C    0.095708   0.019643
     3  C    0.088748   0.012644
     4  C   -0.009595   0.967664
 Electronic spatial extent (au):  <R**2>=            312.2281
 Charge=             -0.0000 electrons
 Dipole moment (field-independent basis, Debye):
    X=              0.4713    Y=              0.6913    Z=              0.9595  Tot=              1.2731
 Quadrupole moment (field-independent basis, Debye-Ang):
   XX=            -24.4872   YY=            -26.8516   ZZ=            -26.3797
   XY=             -1.4884   XZ=             -0.2785   YZ=             -1.1167
 Traceless Quadrupole moment (field-independent basis, Debye-Ang):
   XX=              1.4189   YY=             -0.9454   ZZ=             -0.4735
   XY=             -1.4884   XZ=             -0.2785   YZ=             -1.1167
 Octapole moment (field-independent basis, Debye-Ang**2):
  XXX=             -7.6338  YYY=             -3.7884  ZZZ=             -0.4861  XYY=              0.7100
  XXY=              1.2405  XXZ=              0.4870  XZZ=             -0.3078  YZZ=             -0.2642
  YYZ=             -1.1295  XYZ=              0.5464
 Hexadecapole moment (field-independent basis, Debye-Ang**3):
 XXXX=           -266.5403 YYYY=            -99.4460 ZZZZ=            -56.3988 XXXY=              2.1230
 XXXZ=              9.5499 YYYX=             -3.4243 YYYZ=             -0.0284 ZZZX=             -0.3457
 ZZZY=             -1.7043 XXYY=            -61.7832 XXZZ=            -53.4196 YYZZ=            -26.0494
 XXYZ=              0.8565 YYXZ=             -1.0494 ZZXY=              1.0732
 N-N= 1.277959981286D+02 E-N=-7.075446005761D+02  KE= 1.929234235052D+02
                          Isotropic Fermi Contact Couplings
        Atom                 a.u.       MegaHertz       Gauss      10(-4) cm-1
     1  O(17)              0.02808     -17.02351      -6.07441      -5.67843
     2  C(13)             -0.03480     -39.12049     -13.95916     -13.04919
     3  C(13)              0.00263       2.95469       1.05431       0.98558
     4  C(13)              0.17216     193.54192      69.06057      64.55864
     5  H(1)               0.00746      33.34222      11.89733      11.12177
     6  H(1)               0.02685     120.03612      42.83187      40.03974
     7  H(1)               0.00043       1.91357       0.68281       0.63830
     8  H(1)              -0.00017      -0.74108      -0.26444      -0.24720
     9  H(1)              -0.00020      -0.87349      -0.31168      -0.29136
    10  H(1)              -0.01607     -71.81867     -25.62669     -23.95613
    11  H(1)              -0.01514     -67.68639     -24.15219     -22.57775
 --------------------------------------------------------
       Center         ----  Spin Dipole Couplings  ----
                      3XX-RR        3YY-RR        3ZZ-RR
 --------------------------------------------------------
     1   Atom        0.041866     -0.021472     -0.020394
     2   Atom       -0.007650      0.009077     -0.001426
     3   Atom        0.003286      0.011192     -0.014479
     4   Atom        0.141640      0.158362     -0.300002
     5   Atom       -0.003319      0.002914      0.000405
     6   Atom       -0.004097      0.016579     -0.012483
     7   Atom        0.016937     -0.005533     -0.011404
     8   Atom        0.005269     -0.002215     -0.003054
     9   Atom        0.005063     -0.003671     -0.001392
    10   Atom        0.036860     -0.031557     -0.005303
    11   Atom       -0.042207     -0.017889      0.060097
 --------------------------------------------------------
                        XY            XZ            YZ
 --------------------------------------------------------
     1   Atom        0.012486      0.028390      0.009366
     2   Atom        0.010087      0.001338      0.012462
     3   Atom        0.006433     -0.000748     -0.000426
     4   Atom       -0.696175     -0.404750      0.413023
     5   Atom        0.007619     -0.009144     -0.011834
     6   Atom        0.004633     -0.001391     -0.000014
     7   Atom       -0.003237      0.000252     -0.000690
     8   Atom        0.000591      0.001635      0.000142
     9   Atom        0.001684     -0.004135     -0.000845
    10   Atom       -0.000494      0.051549      0.041884
    11   Atom       -0.032279     -0.009604     -0.038975
 --------------------------------------------------------


 ---------------------------------------------------------------------------------
              Anisotropic Spin Dipole Couplings in Principal Axis System
 ---------------------------------------------------------------------------------

       Atom             a.u.   MegaHertz   Gauss  10(-4) cm-1        Axes

              Baa    -0.0333     2.411     0.860     0.804 -0.2604 -0.4147  0.8719
     1 O(17)  Bbb    -0.0225     1.626     0.580     0.542 -0.3175  0.8896  0.3283
              Bcc     0.0558    -4.037    -1.441    -1.347  0.9118  0.1914  0.3633
 
              Baa    -0.0145    -1.941    -0.692    -0.647  0.7142 -0.5411  0.4440
     2 C(13)  Bbb    -0.0059    -0.797    -0.284    -0.266 -0.6244 -0.2059  0.7535
              Bcc     0.0204     2.738     0.977     0.913  0.3163  0.8154  0.4849
 
              Baa    -0.0145    -1.947    -0.695    -0.650  0.0396  0.0066  0.9992
     3 C(13)  Bbb    -0.0003    -0.040    -0.014    -0.013  0.8716 -0.4892 -0.0313
              Bcc     0.0148     1.987     0.709     0.663  0.4886  0.8722 -0.0251
 
              Baa    -0.5470   -73.406   -26.193   -24.486  0.5749  0.7538 -0.3183
     4 C(13)  Bbb    -0.5402   -72.496   -25.868   -24.182  0.4991 -0.0148  0.8664
              Bcc     1.0873   145.902    52.062    48.668 -0.6483  0.6570  0.3848
 
              Baa    -0.0114    -6.079    -2.169    -2.028  0.5421  0.3450  0.7662
     5 H(1)   Bbb    -0.0082    -4.396    -1.568    -1.466  0.7045 -0.6836 -0.1906
              Bcc     0.0196    10.474     3.738     3.494  0.4580  0.6432 -0.6137
 
              Baa    -0.0127    -6.791    -2.423    -2.265  0.1732 -0.0269  0.9845
     6 H(1)   Bbb    -0.0048    -2.586    -0.923    -0.862  0.9623 -0.2082 -0.1750
              Bcc     0.0176     9.376     3.346     3.128  0.2097  0.9777 -0.0101
 
              Baa    -0.0115    -6.128    -2.186    -2.044  0.0046  0.1177  0.9930
     7 H(1)   Bbb    -0.0059    -3.155    -1.126    -1.053  0.1406  0.9831 -0.1172
              Bcc     0.0174     9.283     3.312     3.096  0.9901 -0.1401  0.0120
 
              Baa    -0.0034    -1.795    -0.641    -0.599 -0.1843 -0.0267  0.9825
     8 H(1)   Bbb    -0.0023    -1.206    -0.430    -0.402 -0.0808  0.9967  0.0119
              Bcc     0.0056     3.001     1.071     1.001  0.9796  0.0772  0.1858
 
              Baa    -0.0040    -2.130    -0.760    -0.711 -0.1352  0.9852  0.1052
     9 H(1)   Bbb    -0.0034    -1.819    -0.649    -0.607  0.4439 -0.0347  0.8954
              Bcc     0.0074     3.949     1.409     1.317  0.8858  0.1677 -0.4327
 
              Baa    -0.0727   -38.783   -13.839   -12.936  0.3151  0.6790 -0.6631
    10 H(1)   Bbb    -0.0042    -2.219    -0.792    -0.740 -0.5571  0.6980  0.4500
              Bcc     0.0768    41.002    14.630    13.677  0.7683  0.2276  0.5982
 
              Baa    -0.0719   -38.368   -13.691   -12.798  0.7490  0.6187  0.2372
    11 H(1)   Bbb    -0.0044    -2.367    -0.845    -0.790 -0.6618  0.6813  0.3130
              Bcc     0.0763    40.735    14.535    13.588  0.0320 -0.3913  0.9197
 

 ---------------------------------------------------------------------------------

 No NMR shielding tensors so no spin-rotation constants.
 Leave Link  601 at Fri Mar 29 12:00:34 2019, MaxMem=   671088640 cpu:               9.0 elap:               0.5
 (Enter /shared/centos7/gaussian/g16/l9999.exe)
 1\1\GINC-C0160\Scan\UM062X\6-311+G(2df,2p)\C3H7O1(2)\UNDERKOFFLER.C\29
 -Mar-2019\0\\#p m062x/6-311+g(2df,2p) Opt=(CalcFC,ModRedun)\\Gaussian 
 Input Prepared from Scan Object\\0,2\O,0.5168400892,-1.0547467308,-0.1
 049238868\C,-0.7522121312,-0.5344469989,-0.4316041324\C,1.4606076292,-
 0.0542079379,0.1873628891\C,-1.4447432495,0.0844131367,0.7281645152\H,
 -0.6651902602,0.1868182601,-1.2553541813\H,-1.323227728,-1.3881048332,
 -0.8143140292\H,1.1677692811,0.535157017,1.0614578837\H,2.4061675969,-
 0.5503028392,0.3909619685\H,1.5871444243,0.6245610789,-0.6636872502\H,
 -2.1932190279,0.8480991431,0.5839733306\H,-1.346050624,-0.3708322957,1
 .7027398929\\Version=EM64L-G16RevA.03\State=2-A\HF=-193.6434072,-193.6
 404066,-193.6361286,-193.6371547,-193.6425518,-193.642747,-193.639616,
 -193.6405431,-193.6430015,-193.6421701,-193.6395279,-193.6409993,-193.
 6434072\S2=0.755155,0.755191,0.755371,0.755349,0.755151,0.755143,0.755
 233,0.755313,0.755232,0.755243,0.755335,0.755176,0.755156\S2-1=0.,0.,0
 .,0.,0.,0.,0.,0.,0.,0.,0.,0.,0.\S2A=0.750021,0.750021,0.750023,0.75002
 3,0.75002,0.75002,0.750021,0.750022,0.750021,0.750021,0.750022,0.75002
 1,0.750021\RMSD=6.611e-09,3.201e-09,7.485e-09,8.436e-09,9.252e-09,6.07
 8e-09,8.883e-09,5.006e-09,2.505e-09,8.052e-09,3.227e-09,3.253e-09,5.14
 0e-09\PG=C01 [X(C3H7O1)]\\@


 THERE IS NO CURE FOR BIRTH AND DEATH SAVE TO ENJOY THE INTERVAL.

                               -- GEORGE SANTAYANA
 Job cpu time:       0 days 17 hours  2 minutes 49.5 seconds.
 Elapsed time:       0 days  1 hours  4 minutes 54.5 seconds.
 File lengths (MBytes):  RWF=   1328 Int=      0 D2E=      0 Chk=     32 Scr=     32
 Normal termination of Gaussian 16 at Fri Mar 29 12:00:34 2019.
