 Entering Gaussian System, Link 0=g16
 Input=ZMAYDFGNKOVZRH-UHFFFAOYSA-N_GeoFreq_a2.com
 Output=ZMAYDFGNKOVZRH-UHFFFAOYSA-N_GeoFreq_a2.log
 Initial command:
 /shared/centos7/gaussian/g16/l1.exe "/scratch/underkoffler.c/gaussian_scratch/Gau-6921.inp" -scrdir="/scratch/underkoffler.c/gaussian_scratch/"
 Entering Link 1 = /shared/centos7/gaussian/g16/l1.exe PID=      6922.
  
 Copyright (c) 1988,1990,1992,1993,1995,1998,2003,2009,2016,
            Gaussian, Inc.  All Rights Reserved.
  
 This is part of the Gaussian(R) 16 program.  It is based on
 the Gaussian(R) 09 system (copyright 2009, Gaussian, Inc.),
 the Gaussian(R) 03 system (copyright 2003, Gaussian, Inc.),
 the Gaussian(R) 98 system (copyright 1998, Gaussian, Inc.),
 the Gaussian(R) 94 system (copyright 1995, Gaussian, Inc.),
 the Gaussian 92(TM) system (copyright 1992, Gaussian, Inc.),
 the Gaussian 90(TM) system (copyright 1990, Gaussian, Inc.),
 the Gaussian 88(TM) system (copyright 1988, Gaussian, Inc.),
 the Gaussian 86(TM) system (copyright 1986, Carnegie Mellon
 University), and the Gaussian 82(TM) system (copyright 1983,
 Carnegie Mellon University). Gaussian is a federally registered
 trademark of Gaussian, Inc.
  
 This software contains proprietary and confidential information,
 including trade secrets, belonging to Gaussian, Inc.
  
 This software is provided under written license and may be
 used, copied, transmitted, or stored only in accord with that
 written license.
  
 The following legend is applicable only to US Government
 contracts under FAR:
  
                    RESTRICTED RIGHTS LEGEND
  
 Use, reproduction and disclosure by the US Government is
 subject to restrictions as set forth in subparagraphs (a)
 and (c) of the Commercial Computer Software - Restricted
 Rights clause in FAR 52.227-19.
  
 Gaussian, Inc.
 340 Quinnipiac St., Bldg. 40, Wallingford CT 06492
  
  
 ---------------------------------------------------------------
 Warning -- This program may not be used in any manner that
 competes with the business of Gaussian, Inc. or will provide
 assistance to any competitor of Gaussian, Inc.  The licensee
 of this program is prohibited from giving any competitor of
 Gaussian, Inc. access to this program.  By using this program,
 the user acknowledges that Gaussian, Inc. is engaged in the
 business of creating and licensing software in the field of
 computational chemistry and represents and warrants to the
 licensee that it is not a competitor of Gaussian, Inc. and that
 it will not use this program in any manner prohibited above.
 ---------------------------------------------------------------
  

 Cite this work as:
 Gaussian 16, Revision A.03,
 M. J. Frisch, G. W. Trucks, H. B. Schlegel, G. E. Scuseria, 
 M. A. Robb, J. R. Cheeseman, G. Scalmani, V. Barone, 
 G. A. Petersson, H. Nakatsuji, X. Li, M. Caricato, A. V. Marenich, 
 J. Bloino, B. G. Janesko, R. Gomperts, B. Mennucci, H. P. Hratchian, 
 J. V. Ortiz, A. F. Izmaylov, J. L. Sonnenberg, D. Williams-Young, 
 F. Ding, F. Lipparini, F. Egidi, J. Goings, B. Peng, A. Petrone, 
 T. Henderson, D. Ranasinghe, V. G. Zakrzewski, J. Gao, N. Rega, 
 G. Zheng, W. Liang, M. Hada, M. Ehara, K. Toyota, R. Fukuda, 
 J. Hasegawa, M. Ishida, T. Nakajima, Y. Honda, O. Kitao, H. Nakai, 
 T. Vreven, K. Throssell, J. A. Montgomery, Jr., J. E. Peralta, 
 F. Ogliaro, M. J. Bearpark, J. J. Heyd, E. N. Brothers, K. N. Kudin, 
 V. N. Staroverov, T. A. Keith, R. Kobayashi, J. Normand, 
 K. Raghavachari, A. P. Rendell, J. C. Burant, S. S. Iyengar, 
 J. Tomasi, M. Cossi, J. M. Millam, M. Klene, C. Adamo, R. Cammi, 
 J. W. Ochterski, R. L. Martin, K. Morokuma, O. Farkas, 
 J. B. Foresman, and D. J. Fox, Gaussian, Inc., Wallingford CT, 2016.
 
 ******************************************
 Gaussian 16:  EM64L-G16RevA.03 25-Dec-2016
                13-Mar-2019 
 ******************************************
 %nprocshared=20
 Will use up to   20 processors via shared memory.
 %mem=5GB
 ----------------------------------------------------------------------
 #p m062x/6-311+g(2df,2p) opt=(calcfc,verytight,gdiis,maxcycles=900) fr
 eq iop(7/33=1,2/16=3)
 ----------------------------------------------------------------------

 Warning!  Use of Opt=GDIIS is deprecated since it is seldom a good choice.

 1/6=900,7=1,10=4,18=20,19=11,26=3,38=1/1,3;
 2/9=110,12=2,16=3,17=6,18=5,40=1/2;
 3/5=4,6=6,7=214,11=2,25=1,30=1,71=2,74=-55,140=1/1,2,3;
 4//1;
 5/5=2,38=5/2;
 8/6=4,10=90,11=11/1;
 11/6=1,8=1,9=11,15=111,16=1/1,2,10;
 10/6=1,13=1/2;
 6/7=2,8=2,9=2,10=2,28=1/1;
 7/10=1,18=20,25=1,33=1/1,2,3,16;
 1/6=900,7=1,10=4,18=20,19=11,26=3/3(2);
 2/9=110,16=3/2;
 99//99;
 2/9=110,16=3/2;
 3/5=4,6=6,7=214,11=2,25=1,30=1,71=1,74=-55/1,2,3;
 4/5=5,16=3,69=1/1;
 5/5=2,38=5/2;
 7/33=1/1,2,3,16;
 1/6=900,7=1,18=20,19=11,26=3/3(-5);
 2/9=110,16=3/2;
 6/7=2,8=2,9=2,10=2,19=2,28=1/1;
 99/9=1/99;
 Leave Link    1 at Wed Mar 13 04:19:20 2019, MaxMem=   671088640 cpu:              27.9 elap:               1.5
 (Enter /shared/centos7/gaussian/g16/l101.exe)
 ------------------------------
 Gaussian input prepared by ASE
 ------------------------------
 Symbolic Z-matrix:
 Charge =  0 Multiplicity = 2
 O                     0.61005   0.54469  -0.39555 
 C                    -0.65886   0.60605   0.21613 
 C                     1.43187  -0.45978   0.14565 
 C                    -1.50986  -0.57412  -0.08497 
 H                    -0.54988   0.73208   1.3018 
 H                    -1.11849   1.52425  -0.16704 
 H                     1.00551  -1.45612  -0.00451 
 H                     2.3915   -0.40119  -0.36162 
 H                     1.58348  -0.30442   1.21988 
 H                    -1.47389  -1.00937  -1.07293 
 H                    -2.29755  -0.87567   0.58795 
 
 ITRead=  0  0  0  0  0  0  0  0  0  0  0
 MicOpt= -1 -1 -1 -1 -1 -1 -1 -1 -1 -1 -1
 NAtoms=     11 NQM=       11 NQMF=       0 NMMI=      0 NMMIF=      0
                NMic=       0 NMicF=      0.
                    Isotopes and Nuclear Properties:
 (Nuclear quadrupole moments (NQMom) in fm**2, nuclear magnetic moments (NMagM)
  in nuclear magnetons)

  Atom         1           2           3           4           5           6           7           8           9          10
 IAtWgt=          16          12          12          12           1           1           1           1           1           1
 AtmWgt=  15.9949146  12.0000000  12.0000000  12.0000000   1.0078250   1.0078250   1.0078250   1.0078250   1.0078250   1.0078250
 NucSpn=           0           0           0           0           1           1           1           1           1           1
 AtZEff=  -0.0000000  -0.0000000  -0.0000000  -0.0000000  -0.0000000  -0.0000000  -0.0000000  -0.0000000  -0.0000000  -0.0000000
 NQMom=    0.0000000   0.0000000   0.0000000   0.0000000   0.0000000   0.0000000   0.0000000   0.0000000   0.0000000   0.0000000
 NMagM=    0.0000000   0.0000000   0.0000000   0.0000000   2.7928460   2.7928460   2.7928460   2.7928460   2.7928460   2.7928460
 AtZNuc=   8.0000000   6.0000000   6.0000000   6.0000000   1.0000000   1.0000000   1.0000000   1.0000000   1.0000000   1.0000000

  Atom        11
 IAtWgt=           1
 AtmWgt=   1.0078250
 NucSpn=           1
 AtZEff=  -0.0000000
 NQMom=    0.0000000
 NMagM=    2.7928460
 AtZNuc=   1.0000000
 Leave Link  101 at Wed Mar 13 04:19:20 2019, MaxMem=   671088640 cpu:               4.9 elap:               0.3
 (Enter /shared/centos7/gaussian/g16/l103.exe)

 GradGradGradGradGradGradGradGradGradGradGradGradGradGradGradGradGradGrad
 Berny optimization.
 Initialization pass.
                           ----------------------------
                           !    Initial Parameters    !
                           ! (Angstroms and Degrees)  !
 --------------------------                            --------------------------
 ! Name  Definition              Value          Derivative Info.                !
 --------------------------------------------------------------------------------
 ! R1    R(1,2)                  1.41           calculate D2E/DX2 analytically  !
 ! R2    R(1,3)                  1.4061         calculate D2E/DX2 analytically  !
 ! R3    R(2,4)                  1.4858         calculate D2E/DX2 analytically  !
 ! R4    R(2,5)                  1.0984         calculate D2E/DX2 analytically  !
 ! R5    R(2,6)                  1.096          calculate D2E/DX2 analytically  !
 ! R6    R(3,7)                  1.0941         calculate D2E/DX2 analytically  !
 ! R7    R(3,8)                  1.087          calculate D2E/DX2 analytically  !
 ! R8    R(3,9)                  1.0959         calculate D2E/DX2 analytically  !
 ! R9    R(4,10)                 1.0802         calculate D2E/DX2 analytically  !
 ! R10   R(4,11)                 1.079          calculate D2E/DX2 analytically  !
 ! A1    A(2,1,3)              112.9598         calculate D2E/DX2 analytically  !
 ! A2    A(1,2,4)              113.1392         calculate D2E/DX2 analytically  !
 ! A3    A(1,2,5)              110.1515         calculate D2E/DX2 analytically  !
 ! A4    A(1,2,6)              105.2007         calculate D2E/DX2 analytically  !
 ! A5    A(4,2,5)              110.3814         calculate D2E/DX2 analytically  !
 ! A6    A(4,2,6)              110.7567         calculate D2E/DX2 analytically  !
 ! A7    A(5,2,6)              106.921          calculate D2E/DX2 analytically  !
 ! A8    A(1,3,7)              111.7122         calculate D2E/DX2 analytically  !
 ! A9    A(1,3,8)              107.3277         calculate D2E/DX2 analytically  !
 ! A10   A(1,3,9)              110.9059         calculate D2E/DX2 analytically  !
 ! A11   A(7,3,8)              109.2118         calculate D2E/DX2 analytically  !
 ! A12   A(7,3,9)              108.5138         calculate D2E/DX2 analytically  !
 ! A13   A(8,3,9)              109.1261         calculate D2E/DX2 analytically  !
 ! A14   A(2,4,10)             119.0992         calculate D2E/DX2 analytically  !
 ! A15   A(2,4,11)             120.9123         calculate D2E/DX2 analytically  !
 ! A16   A(10,4,11)            118.8231         calculate D2E/DX2 analytically  !
 ! D1    D(3,1,2,4)            -68.6721         calculate D2E/DX2 analytically  !
 ! D2    D(3,1,2,5)             55.4013         calculate D2E/DX2 analytically  !
 ! D3    D(3,1,2,6)            170.2977         calculate D2E/DX2 analytically  !
 ! D4    D(2,1,3,7)             62.4362         calculate D2E/DX2 analytically  !
 ! D5    D(2,1,3,8)           -177.8768         calculate D2E/DX2 analytically  !
 ! D6    D(2,1,3,9)            -58.7601         calculate D2E/DX2 analytically  !
 ! D7    D(1,2,4,10)           -37.7401         calculate D2E/DX2 analytically  !
 ! D8    D(1,2,4,11)           154.7417         calculate D2E/DX2 analytically  !
 ! D9    D(5,2,4,10)          -161.6877         calculate D2E/DX2 analytically  !
 ! D10   D(5,2,4,11)            30.7941         calculate D2E/DX2 analytically  !
 ! D11   D(6,2,4,10)            80.0928         calculate D2E/DX2 analytically  !
 ! D12   D(6,2,4,11)           -87.4254         calculate D2E/DX2 analytically  !
 --------------------------------------------------------------------------------
 Trust Radius=3.00D-01 FncErr=1.00D-07 GrdErr=1.00D-06 EigMax=2.50D+02 EigMin=1.00D-04
 Number of steps in this run=    100 maximum allowed number of steps=    100.
 GradGradGradGradGradGradGradGradGradGradGradGradGradGradGradGradGradGrad

 Leave Link  103 at Wed Mar 13 04:19:20 2019, MaxMem=   671088640 cpu:               0.2 elap:               0.0
 (Enter /shared/centos7/gaussian/g16/l202.exe)
                          Input orientation:                          
 ---------------------------------------------------------------------
 Center     Atomic      Atomic             Coordinates (Angstroms)
 Number     Number       Type             X           Y           Z
 ---------------------------------------------------------------------
      1          8           0        0.610050    0.544694   -0.395551
      2          6           0       -0.658859    0.606049    0.216132
      3          6           0        1.431870   -0.459782    0.145649
      4          6           0       -1.509858   -0.574119   -0.084965
      5          1           0       -0.549879    0.732079    1.301795
      6          1           0       -1.118489    1.524252   -0.167044
      7          1           0        1.005508   -1.456121   -0.004509
      8          1           0        2.391501   -0.401191   -0.361624
      9          1           0        1.583476   -0.304416    1.219878
     10          1           0       -1.473889   -1.009370   -1.072932
     11          1           0       -2.297545   -0.875668    0.587948
 ---------------------------------------------------------------------
                    Distance matrix (angstroms):
                    1          2          3          4          5
     1  O    0.000000
     2  C    1.409982   0.000000
     3  C    1.406150   2.347789   0.000000
     4  C    2.417068   1.485818   2.952968   0.000000
     5  H    2.064348   1.098374   2.585447   2.133264   0.000000
     6  H    1.999899   1.095984   3.246305   2.136134   1.763049
     7  H    2.076671   2.659200   1.094086   2.666733   2.985612
     8  H    2.017280   3.263898   1.087037   3.914977   3.564124
     9  H    2.068371   2.620023   1.095943   3.368096   2.373233
    10  H    2.686403   2.221607   3.198503   1.080193   3.086384
    11  H    3.382131   2.240318   3.778508   1.078978   2.479670
                    6          7          8          9         10
     6  H    0.000000
     7  H    3.663387   0.000000
     8  H    4.008144   1.778028   0.000000
     9  H    3.545165   1.777525   1.778600   0.000000
    10  H    2.714071   2.736517   3.977069   3.886054   0.000000
    11  H    2.778453   3.405597   4.807699   3.973410   1.858711
                   11
    11  H    0.000000
 Stoichiometry    C3H7O(2)
 Framework group  C1[X(C3H7O)]
 Deg. of freedom    27
 Full point group                 C1      NOp   1
 Largest Abelian subgroup         C1      NOp   1
 Largest concise Abelian subgroup C1      NOp   1
                         Standard orientation:                         
 ---------------------------------------------------------------------
 Center     Atomic      Atomic             Coordinates (Angstroms)
 Number     Number       Type             X           Y           Z
 ---------------------------------------------------------------------
      1          8           0       -0.610050   -0.544694   -0.395551
      2          6           0        0.658859   -0.606049    0.216132
      3          6           0       -1.431870    0.459782    0.145649
      4          6           0        1.509858    0.574119   -0.084965
      5          1           0        0.549879   -0.732079    1.301795
      6          1           0        1.118489   -1.524252   -0.167044
      7          1           0       -1.005508    1.456121   -0.004509
      8          1           0       -2.391501    0.401192   -0.361624
      9          1           0       -1.583476    0.304416    1.219878
     10          1           0        1.473889    1.009370   -1.072932
     11          1           0        2.297545    0.875668    0.587948
 ---------------------------------------------------------------------
 Rotational constants (GHZ):          16.3748994           5.6330200           4.8481461
 Leave Link  202 at Wed Mar 13 04:19:20 2019, MaxMem=   671088640 cpu:               0.2 elap:               0.0
 (Enter /shared/centos7/gaussian/g16/l301.exe)
 Standard basis: 6-311+G(2df,2p) (5D, 7F)
 Ernie: Thresh=  0.10000D-02 Tol=  0.10000D-05 Strict=F.
 There are   219 symmetry adapted cartesian basis functions of A   symmetry.
 There are   199 symmetry adapted basis functions of A   symmetry.
   199 basis functions,   285 primitive gaussians,   219 cartesian basis functions
    17 alpha electrons       16 beta electrons
       nuclear repulsion energy       127.8098353784 Hartrees.
 IExCor= 4336 DFT=T Ex+Corr=M062X ExCW=0 ScaHFX=  0.540000
 ScaDFX=  1.000000  1.000000  1.000000  1.000000 ScalE2=  1.000000  1.000000
 IRadAn=      5 IRanWt=     -1 IRanGd=            0 ICorTp=0 IEmpDi=  4
 NAtoms=   11 NActive=   11 NUniq=   11 SFac= 1.00D+00 NAtFMM=   60 NAOKFM=F Big=F
 Integral buffers will be    131072 words long.
 Raffenetti 2 integral format.
 Two-electron integral symmetry is turned on.
 Leave Link  301 at Wed Mar 13 04:19:20 2019, MaxMem=   671088640 cpu:               1.1 elap:               0.1
 (Enter /shared/centos7/gaussian/g16/l302.exe)
 NPDir=0 NMtPBC=     1 NCelOv=     1 NCel=       1 NClECP=     1 NCelD=      1
         NCelK=      1 NCelE2=     1 NClLst=     1 CellRange=     0.0.
 One-electron integrals computed using PRISM.
 One-electron integral symmetry used in STVInt
 NBasis=   199 RedAO= T EigKep=  9.85D-05  NBF=   199
 NBsUse=   199 1.00D-06 EigRej= -1.00D+00 NBFU=   199
 Precomputing XC quadrature grid using
 IXCGrd= 4 IRadAn=           5 IRanWt=          -1 IRanGd=           0 AccXCQ= 0.00D+00.
 Generated NRdTot=       0 NPtTot=           0 NUsed=           0 NTot=          32
 NSgBfM=   219   219   219   219   219 MxSgAt=    11 MxSgA2=    11.
 Leave Link  302 at Wed Mar 13 04:19:20 2019, MaxMem=   671088640 cpu:               5.2 elap:               0.3
 (Enter /shared/centos7/gaussian/g16/l303.exe)
 DipDrv:  MaxL=1.
 Leave Link  303 at Wed Mar 13 04:19:20 2019, MaxMem=   671088640 cpu:               0.5 elap:               0.0
 (Enter /shared/centos7/gaussian/g16/l401.exe)
 ExpMin= 4.38D-02 ExpMax= 8.59D+03 ExpMxC= 1.30D+03 IAcc=3 IRadAn=         5 AccDes= 0.00D+00
 Harris functional with IExCor= 1009 and IRadAn=       5 diagonalized for initial guess.
 HarFok:  IExCor= 1009 AccDes= 0.00D+00 IRadAn=         5 IDoV= 1 UseB2=F ITyADJ=14
 ICtDFT=  3500011 ScaDFX=  1.000000  1.000000  1.000000  1.000000
 FoFCou: FMM=F IPFlag=           0 FMFlag=      100000 FMFlg1=           0
         NFxFlg=           0 DoJE=T BraDBF=F KetDBF=T FulRan=T
         wScrn=  0.000000 ICntrl=       500 IOpCl=  0 I1Cent=   200000004 NGrid=           0
         NMat0=    1 NMatS0=      1 NMatT0=    0 NMatD0=    1 NMtDS0=    0 NMtDT0=    0
 Petite list used in FoFCou.
 Harris En= -193.557303460399    
 JPrj=0 DoOrth=F DoCkMO=F.
 Initial guess <Sx>= 0.0000 <Sy>= 0.0000 <Sz>= 0.5000 <S**2>= 0.7500 S= 0.5000
 Leave Link  401 at Wed Mar 13 04:19:21 2019, MaxMem=   671088640 cpu:              14.2 elap:               0.7
 (Enter /shared/centos7/gaussian/g16/l502.exe)
 Keep R1 and R2 ints in memory in canonical form, NReq=416958841.
 FoFCou: FMM=F IPFlag=           0 FMFlag=           0 FMFlg1=           0
         NFxFlg=           0 DoJE=F BraDBF=F KetDBF=F FulRan=T
         wScrn=  0.000000 ICntrl=       600 IOpCl=  0 I1Cent=           0 NGrid=           0
         NMat0=    1 NMatS0=  19900 NMatT0=    0 NMatD0=    1 NMtDS0=    0 NMtDT0=    0
 Symmetry not used in FoFCou.
 Two-electron integral symmetry not used.
 UHF open shell SCF:
 Using DIIS extrapolation, IDIIS=  1040.
 NGot=   671088640 LenX=   274956345 LenY=   274907943
 Requested convergence on RMS density matrix=1.00D-08 within 128 cycles.
 Requested convergence on MAX density matrix=1.00D-06.
 Requested convergence on             energy=1.00D-06.
 No special actions if energy rises.

 Cycle   1  Pass 1  IDiag  1:
 E= -193.526578579249    
 DIIS: error= 2.05D-02 at cycle   1 NSaved=   1.
 NSaved= 1 IEnMin= 1 EnMin= -193.526578579249     IErMin= 1 ErrMin= 2.05D-02
 ErrMax= 2.05D-02  0.00D+00 EMaxC= 1.00D-01 BMatC= 5.64D-01 BMatP= 5.64D-01
 IDIUse=3 WtCom= 7.95D-01 WtEn= 2.05D-01
 Coeff-Com:  0.100D+01
 Coeff-En:   0.100D+01
 Coeff:      0.100D+01
 Gap=     0.295 Goal=   None    Shift=    0.000
 Gap=     0.317 Goal=   None    Shift=    0.000
 GapD=    0.295 DampG=1.000 DampE=0.500 DampFc=0.5000 IDamp=-1.
 Damping current iteration by 5.00D-01
 RMSDP=2.60D-03 MaxDP=9.22D-02              OVMax= 1.31D-01

 Cycle   2  Pass 1  IDiag  1:
 E= -193.586915552689     Delta-E=       -0.060336973439 Rises=F Damp=T
 DIIS: error= 4.76D-03 at cycle   2 NSaved=   2.
 NSaved= 2 IEnMin= 2 EnMin= -193.586915552689     IErMin= 2 ErrMin= 4.76D-03
 ErrMax= 4.76D-03  0.00D+00 EMaxC= 1.00D-01 BMatC= 4.90D-02 BMatP= 5.64D-01
 IDIUse=3 WtCom= 9.52D-01 WtEn= 4.76D-02
 Coeff-Com: -0.174D+00 0.117D+01
 Coeff-En:   0.000D+00 0.100D+01
 Coeff:     -0.165D+00 0.117D+01
 Gap=     0.294 Goal=   None    Shift=    0.000
 Gap=     0.326 Goal=   None    Shift=    0.000
 RMSDP=9.54D-04 MaxDP=4.90D-02 DE=-6.03D-02 OVMax= 6.78D-02

 Cycle   3  Pass 1  IDiag  1:
 E= -193.641254408087     Delta-E=       -0.054338855398 Rises=F Damp=F
 DIIS: error= 2.72D-03 at cycle   3 NSaved=   3.
 NSaved= 3 IEnMin= 3 EnMin= -193.641254408087     IErMin= 3 ErrMin= 2.72D-03
 ErrMax= 2.72D-03  0.00D+00 EMaxC= 1.00D-01 BMatC= 1.06D-02 BMatP= 4.90D-02
 IDIUse=3 WtCom= 9.73D-01 WtEn= 2.72D-02
 Coeff-Com: -0.111D+00 0.369D+00 0.742D+00
 Coeff-En:   0.000D+00 0.000D+00 0.100D+01
 Coeff:     -0.108D+00 0.359D+00 0.749D+00
 Gap=     0.295 Goal=   None    Shift=    0.000
 Gap=     0.295 Goal=   None    Shift=    0.000
 RMSDP=1.91D-04 MaxDP=1.01D-02 DE=-5.43D-02 OVMax= 1.45D-02

 Cycle   4  Pass 1  IDiag  1:
 E= -193.642889895551     Delta-E=       -0.001635487464 Rises=F Damp=F
 DIIS: error= 1.20D-03 at cycle   4 NSaved=   4.
 NSaved= 4 IEnMin= 4 EnMin= -193.642889895551     IErMin= 4 ErrMin= 1.20D-03
 ErrMax= 1.20D-03  0.00D+00 EMaxC= 1.00D-01 BMatC= 2.59D-03 BMatP= 1.06D-02
 IDIUse=3 WtCom= 9.88D-01 WtEn= 1.20D-02
 Coeff-Com: -0.384D-01 0.893D-01 0.370D+00 0.579D+00
 Coeff-En:   0.000D+00 0.000D+00 0.679D-01 0.932D+00
 Coeff:     -0.379D-01 0.882D-01 0.366D+00 0.583D+00
 Gap=     0.292 Goal=   None    Shift=    0.000
 Gap=     0.302 Goal=   None    Shift=    0.000
 RMSDP=7.70D-05 MaxDP=3.74D-03 DE=-1.64D-03 OVMax= 5.46D-03

 Cycle   5  Pass 1  IDiag  1:
 E= -193.643363364717     Delta-E=       -0.000473469166 Rises=F Damp=F
 DIIS: error= 2.52D-04 at cycle   5 NSaved=   5.
 NSaved= 5 IEnMin= 5 EnMin= -193.643363364717     IErMin= 5 ErrMin= 2.52D-04
 ErrMax= 2.52D-04  0.00D+00 EMaxC= 1.00D-01 BMatC= 1.04D-04 BMatP= 2.59D-03
 IDIUse=3 WtCom= 9.97D-01 WtEn= 2.52D-03
 Coeff-Com:  0.233D-03-0.110D-01 0.295D-01 0.160D+00 0.821D+00
 Coeff-En:   0.000D+00 0.000D+00 0.000D+00 0.000D+00 0.100D+01
 Coeff:      0.232D-03-0.110D-01 0.294D-01 0.160D+00 0.822D+00
 Gap=     0.294 Goal=   None    Shift=    0.000
 Gap=     0.302 Goal=   None    Shift=    0.000
 RMSDP=2.75D-05 MaxDP=9.07D-04 DE=-4.73D-04 OVMax= 2.39D-03

 Cycle   6  Pass 1  IDiag  1:
 E= -193.643398191677     Delta-E=       -0.000034826960 Rises=F Damp=F
 DIIS: error= 9.46D-05 at cycle   6 NSaved=   6.
 NSaved= 6 IEnMin= 6 EnMin= -193.643398191677     IErMin= 6 ErrMin= 9.46D-05
 ErrMax= 9.46D-05  0.00D+00 EMaxC= 1.00D-01 BMatC= 8.97D-06 BMatP= 1.04D-04
 IDIUse=1 WtCom= 1.00D+00 WtEn= 0.00D+00
 Coeff-Com:  0.565D-02-0.121D-01-0.578D-01-0.101D+00-0.753D-01 0.124D+01
 Coeff:      0.565D-02-0.121D-01-0.578D-01-0.101D+00-0.753D-01 0.124D+01
 Gap=     0.294 Goal=   None    Shift=    0.000
 Gap=     0.303 Goal=   None    Shift=    0.000
 RMSDP=1.57D-05 MaxDP=8.25D-04 DE=-3.48D-05 OVMax= 1.66D-03

 Cycle   7  Pass 1  IDiag  1:
 E= -193.643405071675     Delta-E=       -0.000006879998 Rises=F Damp=F
 DIIS: error= 2.56D-05 at cycle   7 NSaved=   7.
 NSaved= 7 IEnMin= 7 EnMin= -193.643405071675     IErMin= 7 ErrMin= 2.56D-05
 ErrMax= 2.56D-05  0.00D+00 EMaxC= 1.00D-01 BMatC= 8.31D-07 BMatP= 8.97D-06
 IDIUse=1 WtCom= 1.00D+00 WtEn= 0.00D+00
 Coeff-Com:  0.964D-03-0.149D-02-0.140D-01-0.338D-01-0.746D-01 0.287D+00
 Coeff-Com:  0.836D+00
 Coeff:      0.964D-03-0.149D-02-0.140D-01-0.338D-01-0.746D-01 0.287D+00
 Coeff:      0.836D+00
 Gap=     0.294 Goal=   None    Shift=    0.000
 Gap=     0.303 Goal=   None    Shift=    0.000
 RMSDP=3.97D-06 MaxDP=2.36D-04 DE=-6.88D-06 OVMax= 2.53D-04

 Cycle   8  Pass 1  IDiag  1:
 E= -193.643405379613     Delta-E=       -0.000000307938 Rises=F Damp=F
 DIIS: error= 8.33D-06 at cycle   8 NSaved=   8.
 NSaved= 8 IEnMin= 8 EnMin= -193.643405379613     IErMin= 8 ErrMin= 8.33D-06
 ErrMax= 8.33D-06  0.00D+00 EMaxC= 1.00D-01 BMatC= 1.08D-07 BMatP= 8.31D-07
 IDIUse=1 WtCom= 1.00D+00 WtEn= 0.00D+00
 Coeff-Com: -0.457D-03 0.109D-02 0.315D-02 0.240D-02-0.901D-02-0.703D-01
 Coeff-Com:  0.205D+00 0.868D+00
 Coeff:     -0.457D-03 0.109D-02 0.315D-02 0.240D-02-0.901D-02-0.703D-01
 Coeff:      0.205D+00 0.868D+00
 Gap=     0.294 Goal=   None    Shift=    0.000
 Gap=     0.303 Goal=   None    Shift=    0.000
 RMSDP=1.61D-06 MaxDP=6.87D-05 DE=-3.08D-07 OVMax= 9.32D-05

 Cycle   9  Pass 1  IDiag  1:
 E= -193.643405417224     Delta-E=       -0.000000037611 Rises=F Damp=F
 DIIS: error= 3.79D-06 at cycle   9 NSaved=   9.
 NSaved= 9 IEnMin= 9 EnMin= -193.643405417224     IErMin= 9 ErrMin= 3.79D-06
 ErrMax= 3.79D-06  0.00D+00 EMaxC= 1.00D-01 BMatC= 1.16D-08 BMatP= 1.08D-07
 IDIUse=1 WtCom= 1.00D+00 WtEn= 0.00D+00
 Coeff-Com: -0.217D-03 0.442D-03 0.236D-02 0.425D-02 0.720D-02-0.500D-01
 Coeff-Com: -0.516D-01 0.224D+00 0.864D+00
 Coeff:     -0.217D-03 0.442D-03 0.236D-02 0.425D-02 0.720D-02-0.500D-01
 Coeff:     -0.516D-01 0.224D+00 0.864D+00
 Gap=     0.294 Goal=   None    Shift=    0.000
 Gap=     0.303 Goal=   None    Shift=    0.000
 RMSDP=4.37D-07 MaxDP=1.44D-05 DE=-3.76D-08 OVMax= 2.66D-05

 Cycle  10  Pass 1  IDiag  1:
 E= -193.643405421488     Delta-E=       -0.000000004264 Rises=F Damp=F
 DIIS: error= 6.87D-07 at cycle  10 NSaved=  10.
 NSaved=10 IEnMin=10 EnMin= -193.643405421488     IErMin=10 ErrMin= 6.87D-07
 ErrMax= 6.87D-07  0.00D+00 EMaxC= 1.00D-01 BMatC= 4.90D-10 BMatP= 1.16D-08
 IDIUse=1 WtCom= 1.00D+00 WtEn= 0.00D+00
 Coeff-Com:  0.202D-04-0.467D-04-0.533D-04 0.142D-03 0.865D-03 0.101D-02
 Coeff-Com: -0.170D-01-0.377D-01 0.605D-01 0.992D+00
 Coeff:      0.202D-04-0.467D-04-0.533D-04 0.142D-03 0.865D-03 0.101D-02
 Coeff:     -0.170D-01-0.377D-01 0.605D-01 0.992D+00
 Gap=     0.294 Goal=   None    Shift=    0.000
 Gap=     0.303 Goal=   None    Shift=    0.000
 RMSDP=1.48D-07 MaxDP=5.11D-06 DE=-4.26D-09 OVMax= 9.80D-06

 Cycle  11  Pass 1  IDiag  1:
 E= -193.643405421741     Delta-E=       -0.000000000253 Rises=F Damp=F
 DIIS: error= 3.25D-07 at cycle  11 NSaved=  11.
 NSaved=11 IEnMin=11 EnMin= -193.643405421741     IErMin=11 ErrMin= 3.25D-07
 ErrMax= 3.25D-07  0.00D+00 EMaxC= 1.00D-01 BMatC= 1.15D-10 BMatP= 4.90D-10
 IDIUse=1 WtCom= 1.00D+00 WtEn= 0.00D+00
 Coeff-Com:  0.262D-04-0.553D-04-0.227D-03-0.307D-03-0.331D-03 0.478D-02
 Coeff-Com: -0.155D-02-0.323D-01-0.561D-01 0.349D+00 0.737D+00
 Coeff:      0.262D-04-0.553D-04-0.227D-03-0.307D-03-0.331D-03 0.478D-02
 Coeff:     -0.155D-02-0.323D-01-0.561D-01 0.349D+00 0.737D+00
 Gap=     0.294 Goal=   None    Shift=    0.000
 Gap=     0.303 Goal=   None    Shift=    0.000
 RMSDP=3.59D-08 MaxDP=1.12D-06 DE=-2.53D-10 OVMax= 2.70D-06

 Cycle  12  Pass 1  IDiag  1:
 E= -193.643405421782     Delta-E=       -0.000000000041 Rises=F Damp=F
 DIIS: error= 1.06D-07 at cycle  12 NSaved=  12.
 NSaved=12 IEnMin=12 EnMin= -193.643405421782     IErMin=12 ErrMin= 1.06D-07
 ErrMax= 1.06D-07  0.00D+00 EMaxC= 1.00D-01 BMatC= 8.19D-12 BMatP= 1.15D-10
 IDIUse=1 WtCom= 1.00D+00 WtEn= 0.00D+00
 Coeff-Com:  0.121D-05-0.263D-05-0.279D-04-0.583D-04-0.138D-03 0.576D-03
 Coeff-Com:  0.190D-02 0.930D-04-0.168D-01-0.800D-01 0.939D-01 0.100D+01
 Coeff:      0.121D-05-0.263D-05-0.279D-04-0.583D-04-0.138D-03 0.576D-03
 Coeff:      0.190D-02 0.930D-04-0.168D-01-0.800D-01 0.939D-01 0.100D+01
 Gap=     0.294 Goal=   None    Shift=    0.000
 Gap=     0.303 Goal=   None    Shift=    0.000
 RMSDP=1.90D-08 MaxDP=6.61D-07 DE=-4.10D-11 OVMax= 1.47D-06

 Cycle  13  Pass 1  IDiag  1:
 E= -193.643405421785     Delta-E=       -0.000000000003 Rises=F Damp=F
 DIIS: error= 3.40D-08 at cycle  13 NSaved=  13.
 NSaved=13 IEnMin=13 EnMin= -193.643405421785     IErMin=13 ErrMin= 3.40D-08
 ErrMax= 3.40D-08  0.00D+00 EMaxC= 1.00D-01 BMatC= 6.06D-13 BMatP= 8.19D-12
 IDIUse=1 WtCom= 1.00D+00 WtEn= 0.00D+00
 Coeff-Com: -0.218D-05 0.451D-05 0.168D-04 0.214D-04 0.239D-04-0.376D-03
 Coeff-Com:  0.280D-03 0.263D-02 0.417D-02-0.339D-01-0.663D-01 0.475D-01
 Coeff-Com:  0.105D+01
 Coeff:     -0.218D-05 0.451D-05 0.168D-04 0.214D-04 0.239D-04-0.376D-03
 Coeff:      0.280D-03 0.263D-02 0.417D-02-0.339D-01-0.663D-01 0.475D-01
 Coeff:      0.105D+01
 Gap=     0.294 Goal=   None    Shift=    0.000
 Gap=     0.303 Goal=   None    Shift=    0.000
 RMSDP=6.50D-09 MaxDP=2.93D-07 DE=-3.30D-12 OVMax= 4.75D-07

 SCF Done:  E(UM062X) =  -193.643405422     A.U. after   13 cycles
            NFock= 13  Conv=0.65D-08     -V/T= 2.0037
 <Sx>= 0.0000 <Sy>= 0.0000 <Sz>= 0.5000 <S**2>= 0.7552 S= 0.5026
 <L.S>= 0.000000000000E+00
 KE= 1.929233842561D+02 PE=-7.075722205012D+02 EE= 1.931955954450D+02
 Annihilation of the first spin contaminant:
 S**2 before annihilation     0.7552,   after     0.7500
 Leave Link  502 at Wed Mar 13 04:19:47 2019, MaxMem=   671088640 cpu:             375.0 elap:              26.2
 (Enter /shared/centos7/gaussian/g16/l801.exe)
 DoSCS=F DFT=T ScalE2(SS,OS)=  1.000000  1.000000
 Range of M.O.s used for correlation:     1   199
 NBasis=   199 NAE=    17 NBE=    16 NFC=     0 NFV=     0
 NROrb=    199 NOA=    17 NOB=    16 NVA=   182 NVB=   183

 **** Warning!!: The largest alpha MO coefficient is  0.31616915D+02


 **** Warning!!: The largest beta MO coefficient is  0.35054835D+02

 Leave Link  801 at Wed Mar 13 04:19:47 2019, MaxMem=   671088640 cpu:               0.3 elap:               0.0
 (Enter /shared/centos7/gaussian/g16/l1101.exe)
 Using compressed storage, NAtomX=    11.
 Will process     12 centers per pass.
 Leave Link 1101 at Wed Mar 13 04:19:48 2019, MaxMem=   671088640 cpu:               4.9 elap:               0.3
 (Enter /shared/centos7/gaussian/g16/l1102.exe)
 Symmetrizing basis deriv contribution to polar:
 IMax=3 JMax=2 DiffMx= 0.00D+00
 Leave Link 1102 at Wed Mar 13 04:19:48 2019, MaxMem=   671088640 cpu:               0.4 elap:               0.0
 (Enter /shared/centos7/gaussian/g16/l1110.exe)
 Forming Gx(P) for the SCF density, NAtomX=    11.
 Integral derivatives from FoFJK, PRISM(SPDF).
 Do as many integral derivatives as possible in FoFJK.
 G2DrvN: MDV=     671087712.
 G2DrvN: will do    12 centers at a time, making    1 passes.
 Calling FoFCou, ICntrl=  3107 FMM=F I1Cent=   0 AccDes= 0.00D+00.
 FoFJK:  IHMeth= 1 ICntrl=    3107 DoSepK=F KAlg= 0 I1Cent=           0 FoldK=F
 IRaf=         0 NMat=       1 IRICut=       1 DoRegI=T DoRafI=F ISym2E= 0 IDoP0=0 IntGTp=1.
 FoFCou: FMM=F IPFlag=           0 FMFlag=      100000 FMFlg1=           0
         NFxFlg=           0 DoJE=F BraDBF=F KetDBF=F FulRan=T
         wScrn=  0.000000 ICntrl=      3107 IOpCl=  1 I1Cent=           0 NGrid=           0
         NMat0=    1 NMatS0=      1 NMatT0=    0 NMatD0=    1 NMtDS0=    0 NMtDT0=    0
 Symmetry not used in FoFCou.
 End of G2Drv F.D. properties file   721 does not exist.
 End of G2Drv F.D. properties file   722 does not exist.
 End of G2Drv F.D. properties file   788 does not exist.
 Leave Link 1110 at Wed Mar 13 04:20:25 2019, MaxMem=   671088640 cpu:             748.6 elap:              37.5
 (Enter /shared/centos7/gaussian/g16/l1002.exe)
 Minotr:  UHF open shell wavefunction.
          IDoAtm=11111111111
          Direct CPHF calculation.
          Differentiating once with respect to nuclear coordinates.
          Requested convergence is 1.0D-08 RMS, and 1.0D-07 maximum.
          Secondary convergence is 1.0D-12 RMS, and 1.0D-12 maximum.
          NewPWx=T KeepS1=F KeepF1=F KeepIn=T MapXYZ=F SortEE=F KeepMc=T.
         3335 words used for storage of precomputed grid.
 Keep R1 and R2 ints in memory in canonical form, NReq=416899964.
 FoFCou: FMM=F IPFlag=           0 FMFlag=           0 FMFlg1=           0
         NFxFlg=           0 DoJE=F BraDBF=F KetDBF=F FulRan=T
         wScrn=  0.000000 ICntrl=       600 IOpCl=  0 I1Cent=           0 NGrid=           0
         NMat0=    1 NMatS0=  19900 NMatT0=    0 NMatD0=    1 NMtDS0=    0 NMtDT0=    0
 Symmetry not used in FoFCou.
 Two-electron integral symmetry not used.
          MDV=     671088640 using IRadAn=       1.
          Solving linear equations simultaneously, MaxMat=       0.
          There are    36 degrees of freedom in the 1st order CPHF.  IDoFFX=6 NUNeed=     0.
     30 vectors produced by pass  0 Test12= 1.67D-14 2.78D-09 XBig12= 1.39D-01 8.82D-02.
 AX will form    30 AO Fock derivatives at one time.
     30 vectors produced by pass  1 Test12= 1.67D-14 2.78D-09 XBig12= 5.11D-03 1.57D-02.
     30 vectors produced by pass  2 Test12= 1.67D-14 2.78D-09 XBig12= 1.64D-04 2.41D-03.
     30 vectors produced by pass  3 Test12= 1.67D-14 2.78D-09 XBig12= 2.40D-06 2.86D-04.
     30 vectors produced by pass  4 Test12= 1.67D-14 2.78D-09 XBig12= 3.70D-08 2.03D-05.
     30 vectors produced by pass  5 Test12= 1.67D-14 2.78D-09 XBig12= 3.89D-10 1.87D-06.
     29 vectors produced by pass  6 Test12= 1.67D-14 2.78D-09 XBig12= 3.12D-12 2.03D-07.
     11 vectors produced by pass  7 Test12= 1.67D-14 2.78D-09 XBig12= 2.28D-14 1.57D-08.
 InvSVY:  IOpt=1 It=  1 EMax= 1.67D-15
 Solved reduced A of dimension   220 with    30 vectors.
 End of Minotr F.D. properties file   721 does not exist.
 End of Minotr F.D. properties file   722 does not exist.
 End of Minotr F.D. properties file   788 does not exist.
 Leave Link 1002 at Wed Mar 13 04:21:16 2019, MaxMem=   671088640 cpu:            1011.3 elap:              50.6
 (Enter /shared/centos7/gaussian/g16/l601.exe)
 Copying SCF densities to generalized density rwf, IOpCl= 1 IROHF=0.

 **********************************************************************

            Population analysis using the SCF density.

 **********************************************************************

 Orbital symmetries:
 Alpha Orbitals:
       Occupied  (A) (A) (A) (A) (A) (A) (A) (A) (A) (A) (A) (A)
                 (A) (A) (A) (A) (A)
       Virtual   (A) (A) (A) (A) (A) (A) (A) (A) (A) (A) (A) (A)
                 (A) (A) (A) (A) (A) (A) (A) (A) (A) (A) (A) (A)
                 (A) (A) (A) (A) (A) (A) (A) (A) (A) (A) (A) (A)
                 (A) (A) (A) (A) (A) (A) (A) (A) (A) (A) (A) (A)
                 (A) (A) (A) (A) (A) (A) (A) (A) (A) (A) (A) (A)
                 (A) (A) (A) (A) (A) (A) (A) (A) (A) (A) (A) (A)
                 (A) (A) (A) (A) (A) (A) (A) (A) (A) (A) (A) (A)
                 (A) (A) (A) (A) (A) (A) (A) (A) (A) (A) (A) (A)
                 (A) (A) (A) (A) (A) (A) (A) (A) (A) (A) (A) (A)
                 (A) (A) (A) (A) (A) (A) (A) (A) (A) (A) (A) (A)
                 (A) (A) (A) (A) (A) (A) (A) (A) (A) (A) (A) (A)
                 (A) (A) (A) (A) (A) (A) (A) (A) (A) (A) (A) (A)
                 (A) (A) (A) (A) (A) (A) (A) (A) (A) (A) (A) (A)
                 (A) (A) (A) (A) (A) (A) (A) (A) (A) (A) (A) (A)
                 (A) (A) (A) (A) (A) (A) (A) (A) (A) (A) (A) (A)
                 (A) (A)
 Beta  Orbitals:
       Occupied  (A) (A) (A) (A) (A) (A) (A) (A) (A) (A) (A) (A)
                 (A) (A) (A) (A)
       Virtual   (A) (A) (A) (A) (A) (A) (A) (A) (A) (A) (A) (A)
                 (A) (A) (A) (A) (A) (A) (A) (A) (A) (A) (A) (A)
                 (A) (A) (A) (A) (A) (A) (A) (A) (A) (A) (A) (A)
                 (A) (A) (A) (A) (A) (A) (A) (A) (A) (A) (A) (A)
                 (A) (A) (A) (A) (A) (A) (A) (A) (A) (A) (A) (A)
                 (A) (A) (A) (A) (A) (A) (A) (A) (A) (A) (A) (A)
                 (A) (A) (A) (A) (A) (A) (A) (A) (A) (A) (A) (A)
                 (A) (A) (A) (A) (A) (A) (A) (A) (A) (A) (A) (A)
                 (A) (A) (A) (A) (A) (A) (A) (A) (A) (A) (A) (A)
                 (A) (A) (A) (A) (A) (A) (A) (A) (A) (A) (A) (A)
                 (A) (A) (A) (A) (A) (A) (A) (A) (A) (A) (A) (A)
                 (A) (A) (A) (A) (A) (A) (A) (A) (A) (A) (A) (A)
                 (A) (A) (A) (A) (A) (A) (A) (A) (A) (A) (A) (A)
                 (A) (A) (A) (A) (A) (A) (A) (A) (A) (A) (A) (A)
                 (A) (A) (A) (A) (A) (A) (A) (A) (A) (A) (A) (A)
                 (A) (A) (A)
 The electronic state is 2-A.
 Alpha  occ. eigenvalues --  -19.62410 -10.58715 -10.57303 -10.54633  -1.16141
 Alpha  occ. eigenvalues --   -0.86010  -0.77766  -0.68532  -0.57053  -0.55980
 Alpha  occ. eigenvalues --   -0.53585  -0.48861  -0.45950  -0.44930  -0.39145
 Alpha  occ. eigenvalues --   -0.33707  -0.27302
 Alpha virt. eigenvalues --    0.02136   0.03544   0.03731   0.04609   0.06451
 Alpha virt. eigenvalues --    0.07220   0.07348   0.08667   0.09760   0.11171
 Alpha virt. eigenvalues --    0.11917   0.14798   0.17729   0.19178   0.20937
 Alpha virt. eigenvalues --    0.22744   0.23030   0.24415   0.24976   0.26759
 Alpha virt. eigenvalues --    0.27418   0.30020   0.30961   0.31959   0.33090
 Alpha virt. eigenvalues --    0.35978   0.43394   0.43874   0.44933   0.49592
 Alpha virt. eigenvalues --    0.50600   0.52365   0.53216   0.55555   0.55843
 Alpha virt. eigenvalues --    0.56502   0.58683   0.60639   0.60914   0.62056
 Alpha virt. eigenvalues --    0.62593   0.64687   0.66134   0.67083   0.68493
 Alpha virt. eigenvalues --    0.77819   0.82810   0.84875   0.86478   0.90847
 Alpha virt. eigenvalues --    0.92890   0.94147   0.97756   1.00121   1.01163
 Alpha virt. eigenvalues --    1.05027   1.08197   1.09064   1.11758   1.14578
 Alpha virt. eigenvalues --    1.15869   1.18014   1.19352   1.20700   1.23019
 Alpha virt. eigenvalues --    1.26657   1.28285   1.31350   1.32704   1.33776
 Alpha virt. eigenvalues --    1.37485   1.39102   1.40157   1.42043   1.44935
 Alpha virt. eigenvalues --    1.46775   1.47683   1.49000   1.50426   1.53618
 Alpha virt. eigenvalues --    1.57858   1.60645   1.63287   1.67036   1.73337
 Alpha virt. eigenvalues --    1.99578   2.05935   2.11526   2.25303   2.32325
 Alpha virt. eigenvalues --    2.40271   2.43407   2.46802   2.55693   2.56648
 Alpha virt. eigenvalues --    2.61162   2.64611   2.76213   2.81870   2.86450
 Alpha virt. eigenvalues --    2.90059   2.92587   2.97324   2.98846   3.01613
 Alpha virt. eigenvalues --    3.05945   3.07625   3.10021   3.10884   3.13406
 Alpha virt. eigenvalues --    3.16171   3.17222   3.18320   3.23846   3.25024
 Alpha virt. eigenvalues --    3.27968   3.29556   3.34580   3.37267   3.38680
 Alpha virt. eigenvalues --    3.41484   3.46414   3.49834   3.52939   3.59630
 Alpha virt. eigenvalues --    3.60786   3.63600   3.67499   3.70508   3.73316
 Alpha virt. eigenvalues --    3.78528   3.79747   3.86857   3.87243   3.90469
 Alpha virt. eigenvalues --    3.91853   3.98859   4.03675   4.09291   4.11073
 Alpha virt. eigenvalues --    4.13340   4.17169   4.19732   4.21436   4.24855
 Alpha virt. eigenvalues --    4.25520   4.28834   4.30331   4.32979   4.37570
 Alpha virt. eigenvalues --    4.41745   4.44653   4.48706   4.53820   4.65093
 Alpha virt. eigenvalues --    4.89002   4.91229   5.13937   5.23644   5.26816
 Alpha virt. eigenvalues --    5.30368   5.43615   5.49355   5.51055   5.54282
 Alpha virt. eigenvalues --    5.54718   5.61531   5.69933   5.81788   5.89101
 Alpha virt. eigenvalues --    6.23621   6.46113   6.70146   7.19083   7.20359
 Alpha virt. eigenvalues --    7.31861   7.66831   7.74569  24.22573  24.43187
 Alpha virt. eigenvalues --   24.49183  50.15510
  Beta  occ. eigenvalues --  -19.62383 -10.58779 -10.57291 -10.53950  -1.16013
  Beta  occ. eigenvalues --   -0.84431  -0.76361  -0.66771  -0.56558  -0.55221
  Beta  occ. eigenvalues --   -0.53161  -0.47983  -0.45251  -0.44180  -0.38796
  Beta  occ. eigenvalues --   -0.33460
  Beta virt. eigenvalues --   -0.03156   0.01558   0.03473   0.03570   0.04324
  Beta virt. eigenvalues --    0.06548   0.07173   0.07359   0.08421   0.09867
  Beta virt. eigenvalues --    0.10913   0.11947   0.13891   0.17827   0.19353
  Beta virt. eigenvalues --    0.21137   0.22728   0.23169   0.24504   0.25446
  Beta virt. eigenvalues --    0.26960   0.27750   0.30361   0.31340   0.31915
  Beta virt. eigenvalues --    0.32747   0.36338   0.43746   0.44193   0.44975
  Beta virt. eigenvalues --    0.49772   0.51333   0.52784   0.54235   0.55731
  Beta virt. eigenvalues --    0.56024   0.58192   0.59062   0.61158   0.61208
  Beta virt. eigenvalues --    0.62284   0.63447   0.65206   0.66408   0.66739
  Beta virt. eigenvalues --    0.68800   0.77831   0.83115   0.84751   0.86389
  Beta virt. eigenvalues --    0.90819   0.92550   0.93918   0.98018   0.99601
  Beta virt. eigenvalues --    1.00957   1.04985   1.08602   1.09194   1.11774
  Beta virt. eigenvalues --    1.14471   1.16015   1.17836   1.19609   1.20823
  Beta virt. eigenvalues --    1.23505   1.26840   1.28742   1.31910   1.32834
  Beta virt. eigenvalues --    1.33915   1.37767   1.39424   1.40311   1.42183
  Beta virt. eigenvalues --    1.45172   1.46911   1.48230   1.49924   1.50797
  Beta virt. eigenvalues --    1.54080   1.58909   1.60630   1.63556   1.67076
  Beta virt. eigenvalues --    1.73698   2.00147   2.06163   2.11634   2.25446
  Beta virt. eigenvalues --    2.32508   2.40302   2.44037   2.47167   2.56320
  Beta virt. eigenvalues --    2.57517   2.61933   2.66229   2.81155   2.85782
  Beta virt. eigenvalues --    2.90356   2.92725   2.96789   2.97751   3.02684
  Beta virt. eigenvalues --    3.03955   3.07891   3.09356   3.11359   3.12272
  Beta virt. eigenvalues --    3.14612   3.17075   3.20449   3.22159   3.25380
  Beta virt. eigenvalues --    3.28613   3.29517   3.34363   3.35745   3.39219
  Beta virt. eigenvalues --    3.39998   3.43431   3.48333   3.51629   3.55355
  Beta virt. eigenvalues --    3.60312   3.61846   3.66154   3.68088   3.72452
  Beta virt. eigenvalues --    3.74331   3.79754   3.81166   3.87090   3.87488
  Beta virt. eigenvalues --    3.91245   3.92154   4.00091   4.05801   4.11341
  Beta virt. eigenvalues --    4.12449   4.15967   4.19932   4.21551   4.22642
  Beta virt. eigenvalues --    4.26321   4.26897   4.30238   4.31889   4.34592
  Beta virt. eigenvalues --    4.38284   4.42020   4.45462   4.49282   4.55129
  Beta virt. eigenvalues --    4.70274   4.91054   4.93190   5.17480   5.23713
  Beta virt. eigenvalues --    5.26907   5.31787   5.45968   5.51145   5.54060
  Beta virt. eigenvalues --    5.54882   5.58276   5.62265   5.70148   5.81926
  Beta virt. eigenvalues --    5.89412   6.23702   6.46133   6.70198   7.19177
  Beta virt. eigenvalues --    7.20445   7.31956   7.66913   7.74678  24.23659
  Beta virt. eigenvalues --   24.43210  24.49711  50.15491
          Condensed to atoms (all electrons):
               1          2          3          4          5          6
     1  O    8.220721   0.195521   0.131551  -0.136538  -0.030299  -0.070147
     2  C    0.195521   5.147360  -0.118001   0.112374   0.476107   0.430642
     3  C    0.131551  -0.118001   4.959545   0.014808  -0.004501   0.005842
     4  C   -0.136538   0.112374   0.014808   5.697000  -0.093310  -0.036115
     5  H   -0.030299   0.476107  -0.004501  -0.093310   0.536103  -0.034644
     6  H   -0.070147   0.430642   0.005842  -0.036115  -0.034644   0.566191
     7  H   -0.039843  -0.023096   0.425089   0.020956  -0.002232  -0.000495
     8  H   -0.055496   0.006903   0.432185   0.002369  -0.000330   0.000075
     9  H   -0.052590   0.009450   0.431380  -0.010041   0.006409   0.000478
    10  H    0.004988  -0.027035   0.000623   0.391373   0.004689  -0.002140
    11  H    0.007411  -0.022355  -0.001082   0.390965  -0.001173   0.000615
               7          8          9         10         11
     1  O   -0.039843  -0.055496  -0.052590   0.004988   0.007411
     2  C   -0.023096   0.006903   0.009450  -0.027035  -0.022355
     3  C    0.425089   0.432185   0.431380   0.000623  -0.001082
     4  C    0.020956   0.002369  -0.010041   0.391373   0.390965
     5  H   -0.002232  -0.000330   0.006409   0.004689  -0.001173
     6  H   -0.000495   0.000075   0.000478  -0.002140   0.000615
     7  H    0.580136  -0.027999  -0.052684  -0.002052  -0.001149
     8  H   -0.027999   0.537712  -0.025638  -0.000148   0.000041
     9  H   -0.052684  -0.025638   0.579982   0.000325   0.000238
    10  H   -0.002052  -0.000148   0.000325   0.469228  -0.020173
    11  H   -0.001149   0.000041   0.000238  -0.020173   0.481825
          Atomic-Atomic Spin Densities.
               1          2          3          4          5          6
     1  O    0.035989   0.006711  -0.007930  -0.030138   0.009264  -0.017935
     2  C    0.006711  -0.046096   0.009185  -0.053626   0.010058   0.021721
     3  C   -0.007930   0.009185   0.039186  -0.014703  -0.000233   0.001044
     4  C   -0.030138  -0.053626  -0.014703   1.236869  -0.022825  -0.028862
     5  H    0.009264   0.010058  -0.000233  -0.022825   0.025995  -0.012625
     6  H   -0.017935   0.021721   0.001044  -0.028862  -0.012625   0.081668
     7  H    0.002038   0.006787   0.006843  -0.013308   0.000051   0.000053
     8  H    0.000209  -0.001394  -0.005037   0.003568  -0.000175   0.000169
     9  H   -0.000776  -0.002032  -0.001157   0.002073  -0.000225   0.000009
    10  H    0.002576   0.004111   0.001653  -0.013585   0.000329  -0.001501
    11  H   -0.000018   0.010880   0.000156  -0.011591   0.000940  -0.000860
               7          8          9         10         11
     1  O    0.002038   0.000209  -0.000776   0.002576  -0.000018
     2  C    0.006787  -0.001394  -0.002032   0.004111   0.010880
     3  C    0.006843  -0.005037  -0.001157   0.001653   0.000156
     4  C   -0.013308   0.003568   0.002073  -0.013585  -0.011591
     5  H    0.000051  -0.000175  -0.000225   0.000329   0.000940
     6  H    0.000053   0.000169   0.000009  -0.001501  -0.000860
     7  H   -0.018030   0.000272   0.000591   0.000665   0.000321
     8  H    0.000272   0.001689   0.000589  -0.000088  -0.000018
     9  H    0.000591   0.000589  -0.001343  -0.000055  -0.000006
    10  H    0.000665  -0.000088  -0.000055  -0.048338   0.006179
    11  H    0.000321  -0.000018  -0.000006   0.006179  -0.044269
 Mulliken charges and spin densities:
               1          2
     1  O   -0.175280  -0.000011
     2  C   -0.187870  -0.033696
     3  C   -0.277440   0.029006
     4  C   -0.353840   1.053870
     5  H    0.143183   0.010553
     6  H    0.139699   0.042880
     7  H    0.123370  -0.013715
     8  H    0.130328  -0.000217
     9  H    0.112692  -0.002331
    10  H    0.180321  -0.048053
    11  H    0.164838  -0.038286
 Sum of Mulliken charges =  -0.00000   1.00000
 Mulliken charges and spin densities with hydrogens summed into heavy atoms:
               1          2
     1  O   -0.175280  -0.000011
     2  C    0.095011   0.019738
     3  C    0.088950   0.012743
     4  C   -0.008681   0.967531
 APT charges:
               1
     1  O   -0.130105
     2  C   -0.704703
     3  C   -1.048208
     4  C   -0.820677
     5  H    0.335851
     6  H    0.423192
     7  H    0.277635
     8  H    0.486660
     9  H    0.323810
    10  H    0.352151
    11  H    0.504393
 Sum of APT charges =  -0.00000
 APT charges with hydrogens summed into heavy atoms:
               1
     1  O   -0.130105
     2  C    0.054340
     3  C    0.039898
     4  C    0.035867
 Electronic spatial extent (au):  <R**2>=            311.9979
 Charge=             -0.0000 electrons
 Dipole moment (field-independent basis, Debye):
    X=              0.4788    Y=              0.7001    Z=              0.9504  Tot=              1.2739
 Quadrupole moment (field-independent basis, Debye-Ang):
   XX=            -24.4964   YY=            -26.8535   ZZ=            -26.3739
   XY=             -1.4966   XZ=             -0.2759   YZ=             -1.1131
 Traceless Quadrupole moment (field-independent basis, Debye-Ang):
   XX=              1.4115   YY=             -0.9456   ZZ=             -0.4660
   XY=             -1.4966   XZ=             -0.2759   YZ=             -1.1131
 Octapole moment (field-independent basis, Debye-Ang**2):
  XXX=             -7.6385  YYY=             -3.7824  ZZZ=             -0.4712  XYY=              0.7346
  XXY=              1.2308  XXZ=              0.4995  XZZ=             -0.3024  YZZ=             -0.2657
  YYZ=             -1.1391  XYZ=              0.5467
 Hexadecapole moment (field-independent basis, Debye-Ang**3):
 XXXX=           -265.8757 YYYY=            -99.8638 ZZZZ=            -56.2618 XXXY=              2.1292
 XXXZ=              9.5195 YYYX=             -3.4035 YYYZ=             -0.0502 ZZZX=             -0.3505
 ZZZY=             -1.6903 XXYY=            -61.7288 XXZZ=            -53.3415 YYZZ=            -26.0763
 XXYZ=              0.9007 YYXZ=             -1.0488 ZZXY=              1.0585
 N-N= 1.278098353784D+02 E-N=-7.075722197445D+02  KE= 1.929233842561D+02
  Exact polarizability:   0.000   0.000   0.000   0.000   0.000   0.000
 Approx polarizability:  47.744  -0.227  45.839   0.640   0.020  45.243
                          Isotropic Fermi Contact Couplings
        Atom                 a.u.       MegaHertz       Gauss      10(-4) cm-1
     1  O(17)              0.02823     -17.11479      -6.10698      -5.70888
     2  C(13)             -0.03478     -39.09665     -13.95066     -13.04124
     3  C(13)              0.00271       3.04973       1.08822       1.01728
     4  C(13)              0.17221     193.59313      69.07884      64.57572
     5  H(1)               0.00738      33.00618      11.77743      11.00968
     6  H(1)               0.02681     119.83350      42.75957      39.97215
     7  H(1)               0.00045       1.99623       0.71231       0.66587
     8  H(1)              -0.00016      -0.69585      -0.24830      -0.23211
     9  H(1)              -0.00020      -0.90817      -0.32406      -0.30293
    10  H(1)              -0.01514     -67.67759     -24.14905     -22.57482
    11  H(1)              -0.01607     -71.84303     -25.63538     -23.96426
 --------------------------------------------------------
       Center         ----  Spin Dipole Couplings  ----
                      3XX-RR        3YY-RR        3ZZ-RR
 --------------------------------------------------------
     1   Atom        0.042398     -0.021537     -0.020862
     2   Atom       -0.007689      0.009067     -0.001378
     3   Atom        0.003321      0.011247     -0.014568
     4   Atom        0.146238      0.152262     -0.298500
     5   Atom       -0.003412      0.003031      0.000381
     6   Atom       -0.004120      0.016598     -0.012478
     7   Atom        0.017003     -0.005561     -0.011441
     8   Atom        0.005295     -0.002215     -0.003081
     9   Atom        0.005121     -0.003724     -0.001397
    10   Atom       -0.041995     -0.018001      0.059996
    11   Atom        0.036927     -0.031683     -0.005245
 --------------------------------------------------------
                        XY            XZ            YZ
 --------------------------------------------------------
     1   Atom        0.013030      0.028415      0.009490
     2   Atom        0.010118      0.001418      0.012467
     3   Atom        0.006515     -0.000777     -0.000532
     4   Atom       -0.695505     -0.407418      0.412559
     5   Atom        0.007594     -0.009089     -0.011884
     6   Atom        0.004583     -0.001397      0.000064
     7   Atom       -0.003259      0.000360     -0.000788
     8   Atom        0.000598      0.001620      0.000138
     9   Atom        0.001681     -0.004198     -0.000859
    10   Atom       -0.032345     -0.009493     -0.039114
    11   Atom       -0.000313      0.051387      0.042023
 --------------------------------------------------------


 ---------------------------------------------------------------------------------
              Anisotropic Spin Dipole Couplings in Principal Axis System
 ---------------------------------------------------------------------------------

       Atom             a.u.   MegaHertz   Gauss  10(-4) cm-1        Axes

              Baa    -0.0336     2.434     0.869     0.812 -0.2569 -0.4097  0.8753
     1 O(17)  Bbb    -0.0228     1.647     0.588     0.549 -0.3191  0.8909  0.3233
              Bcc     0.0564    -4.081    -1.456    -1.361  0.9122  0.1963  0.3596
 
              Baa    -0.0145    -1.939    -0.692    -0.647  0.7178 -0.5411  0.4382
     2 C(13)  Bbb    -0.0060    -0.805    -0.287    -0.268 -0.6197 -0.2097  0.7563
              Bcc     0.0204     2.744     0.979     0.915  0.3173  0.8144  0.4858
 
              Baa    -0.0146    -1.960    -0.699    -0.654  0.0395  0.0106  0.9992
     3 C(13)  Bbb    -0.0003    -0.044    -0.016    -0.015  0.8705 -0.4912 -0.0292
              Bcc     0.0149     2.004     0.715     0.668  0.4905  0.8710 -0.0286
 
              Baa    -0.5471   -73.411   -26.195   -24.487  0.5717  0.7563 -0.3181
     4 C(13)  Bbb    -0.5403   -72.501   -25.870   -24.184  0.5000 -0.0138  0.8659
              Bcc     1.0873   145.912    52.065    48.671 -0.6505  0.6541  0.3860
 
              Baa    -0.0114    -6.088    -2.172    -2.031  0.5429  0.3447  0.7658
     5 H(1)   Bbb    -0.0082    -4.394    -1.568    -1.466  0.7062 -0.6809 -0.1941
              Bcc     0.0196    10.482     3.740     3.496  0.4545  0.6462 -0.6130
 
              Baa    -0.0127    -6.791    -2.423    -2.265  0.1754 -0.0296  0.9841
     6 H(1)   Bbb    -0.0048    -2.582    -0.921    -0.861  0.9624 -0.2052 -0.1777
              Bcc     0.0176     9.373     3.345     3.127  0.2072  0.9783 -0.0075
 
              Baa    -0.0115    -6.160    -2.198    -2.055  0.0025  0.1320  0.9913
     7 H(1)   Bbb    -0.0059    -3.162    -1.128    -1.055  0.1415  0.9812 -0.1310
              Bcc     0.0175     9.322     3.326     3.109  0.9899 -0.1406  0.0162
 
              Baa    -0.0034    -1.805    -0.644    -0.602 -0.1820 -0.0227  0.9830
     8 H(1)   Bbb    -0.0023    -1.207    -0.431    -0.403 -0.0806  0.9967  0.0081
              Bcc     0.0056     3.012     1.075     1.005  0.9800  0.0777  0.1832
 
              Baa    -0.0040    -2.157    -0.770    -0.720 -0.1254  0.9847  0.1207
     9 H(1)   Bbb    -0.0035    -1.841    -0.657    -0.614  0.4475 -0.0525  0.8927
              Bcc     0.0075     3.998     1.427     1.334  0.8855  0.1659 -0.4341
 
              Baa    -0.0719   -38.364   -13.689   -12.797  0.7470  0.6209  0.2379
    10 H(1)   Bbb    -0.0045    -2.375    -0.847    -0.792 -0.6640  0.6786  0.3140
              Bcc     0.0764    40.738    14.536    13.589  0.0336 -0.3925  0.9191
 
              Baa    -0.0727   -38.786   -13.840   -12.938  0.3124  0.6810 -0.6623
    11 H(1)   Bbb    -0.0042    -2.219    -0.792    -0.740 -0.5592  0.6954  0.4513
              Bcc     0.0769    41.005    14.632    13.678  0.7679  0.2293  0.5981
 

 ---------------------------------------------------------------------------------

 No NMR shielding tensors so no spin-rotation constants.
 Leave Link  601 at Wed Mar 13 04:21:16 2019, MaxMem=   671088640 cpu:               7.1 elap:               0.4
 (Enter /shared/centos7/gaussian/g16/l701.exe)
 SCFChk:  SCF convergence  6.50D-09 required  1.00D-08
 ... and contract with generalized density number  0.
 Compute integral second derivatives.
 Entering OneElI...
 Calculate overlap and kinetic energy integrals
    NBasis = 219  MinDer = 2  MaxDer = 2
 Requested accuracy = 0.1000D-12
 PrmmSu-InSpLW:  IPartL=    0 NPrtUS=   20 NPrtUL=    1 DoSpLW=F IThBeg=    0 IThEnd=   19 NThAct=   20.
 PrsmSu:  NPrtUS=  20 ThrOK=T IAlg=1 NPAlg=1 LenDen=           0 ISkipM=0 DoSpLW=F IThBeg=    0 IThEnd=   19.
 Prism:   IPart=     0 DynPar=F LinDyn=F Incr=           1.
 PRISM was handed    33491684 working-precision words and  2278 shell-pairs
 PRISM was handed    33491684 working-precision words and  2278 shell-pairs
 PRISM was handed    33491684 working-precision words and  2278 shell-pairs
 PRISM was handed    33491684 working-precision words and  2278 shell-pairs
 PRISM was handed    33491684 working-precision words and  2278 shell-pairs
 PRISM was handed    33491684 working-precision words and  2278 shell-pairs
 PRISM was handed    33491684 working-precision words and  2278 shell-pairs
 PRISM was handed    33491684 working-precision words and  2278 shell-pairs
 PRISM was handed    33491684 working-precision words and  2278 shell-pairs
 PRISM was handed    33491684 working-precision words and  2278 shell-pairs
 PRISM was handed    33491684 working-precision words and  2278 shell-pairs
 PRISM was handed    33491684 working-precision words and  2278 shell-pairs
 PRISM was handed    33491684 working-precision words and  2278 shell-pairs
 PRISM was handed    33491684 working-precision words and  2278 shell-pairs
 PRISM was handed    33491684 working-precision words and  2278 shell-pairs
 PRISM was handed    33491684 working-precision words and  2278 shell-pairs
 PRISM was handed    33491684 working-precision words and  2278 shell-pairs
 PRISM was handed    33491684 working-precision words and  2278 shell-pairs
 PRISM was handed    33491684 working-precision words and  2278 shell-pairs
 PRISM was handed    33491684 working-precision words and  2278 shell-pairs
 IPart= 16 NShTot=          94 NBatch=          26 AvBLen=         3.6
 IPart= 19 NShTot=          91 NBatch=          26 AvBLen=         3.5
 IPart=  0 NShTot=         143 NBatch=          53 AvBLen=         2.7
 IPart= 17 NShTot=          94 NBatch=          26 AvBLen=         3.6
 IPart= 18 NShTot=          91 NBatch=          26 AvBLen=         3.5
 IPart=  1 NShTot=         139 NBatch=          49 AvBLen=         2.8
 IPart=  8 NShTot=         113 NBatch=          31 AvBLen=         3.6
 IPart=  7 NShTot=         119 NBatch=          32 AvBLen=         3.7
 IPart=  6 NShTot=         123 NBatch=          36 AvBLen=         3.4
 IPart=  3 NShTot=         135 NBatch=          46 AvBLen=         2.9
 IPart=  4 NShTot=         129 NBatch=          40 AvBLen=         3.2
 IPart=  9 NShTot=         113 NBatch=          31 AvBLen=         3.6
 IPart=  5 NShTot=         126 NBatch=          38 AvBLen=         3.3
 IPart= 12 NShTot=         104 NBatch=          29 AvBLen=         3.6
 IPart=  2 NShTot=         136 NBatch=          46 AvBLen=         3.0
 IPart= 11 NShTot=         110 NBatch=          29 AvBLen=         3.8
 IPart= 14 NShTot=         103 NBatch=          28 AvBLen=         3.7
 IPart= 13 NShTot=         103 NBatch=          28 AvBLen=         3.7
 IPart= 15 NShTot=         102 NBatch=          28 AvBLen=         3.6
 IPart= 10 NShTot=         110 NBatch=          29 AvBLen=         3.8
 PrSmSu:  NxtVal=             21.
 Entering OneElI...
 Calculate potential energy integrals
    NBasis = 219  MinDer = 2  MaxDer = 2
 Requested accuracy = 0.1000D-12
 PrmmSu-InSpLW:  IPartL=    0 NPrtUS=   20 NPrtUL=    1 DoSpLW=F IThBeg=    0 IThEnd=   19 NThAct=   20.
 PrsmSu:  NPrtUS=  20 ThrOK=T IAlg=1 NPAlg=1 LenDen=           0 ISkipM=0 DoSpLW=F IThBeg=    0 IThEnd=   19.
 Prism:   IPart=     0 DynPar=F LinDyn=F Incr=          12.
 PRISM was handed    33498969 working-precision words and  2221 shell-pairs
 PRISM was handed    33498969 working-precision words and  2221 shell-pairs
 PRISM was handed    33498969 working-precision words and  2221 shell-pairs
 PRISM was handed    33498969 working-precision words and  2221 shell-pairs
 PRISM was handed    33498969 working-precision words and  2221 shell-pairs
 PRISM was handed    33498969 working-precision words and  2221 shell-pairs
 PRISM was handed    33498969 working-precision words and  2221 shell-pairs
 PRISM was handed    33498969 working-precision words and  2221 shell-pairs
 PRISM was handed    33498969 working-precision words and  2221 shell-pairs
 PRISM was handed    33498969 working-precision words and  2221 shell-pairs
 PRISM was handed    33498969 working-precision words and  2221 shell-pairs
 PRISM was handed    33498969 working-precision words and  2221 shell-pairs
 PRISM was handed    33498969 working-precision words and  2221 shell-pairs
 PRISM was handed    33498969 working-precision words and  2221 shell-pairs
 PRISM was handed    33498969 working-precision words and  2221 shell-pairs
 PRISM was handed    33498969 working-precision words and  2221 shell-pairs
 PRISM was handed    33498969 working-precision words and  2221 shell-pairs
 PRISM was handed    33498969 working-precision words and  2221 shell-pairs
 PRISM was handed    33498969 working-precision words and  2221 shell-pairs
 PRISM was handed    33498969 working-precision words and  2221 shell-pairs
 IPart= 18 NShTot=        1034 NBatch=          94 AvBLen=        11.0
 IPart= 19 NShTot=        1012 NBatch=          92 AvBLen=        11.0
 IPart= 16 NShTot=        1034 NBatch=          94 AvBLen=        11.0
 IPart= 17 NShTot=        1034 NBatch=          94 AvBLen=        11.0
 IPart= 11 NShTot=        1144 NBatch=         104 AvBLen=        11.0
 IPart=  0 NShTot=        1551 NBatch=         141 AvBLen=        11.0
 IPart=  3 NShTot=        1430 NBatch=         130 AvBLen=        11.0
 IPart=  1 NShTot=        1507 NBatch=         137 AvBLen=        11.0
 IPart=  6 NShTot=        1287 NBatch=         117 AvBLen=        11.0
 IPart=  7 NShTot=        1265 NBatch=         115 AvBLen=        11.0
 IPart=  5 NShTot=        1298 NBatch=         118 AvBLen=        11.0
 IPart=  4 NShTot=        1320 NBatch=         120 AvBLen=        11.0
 IPart= 15 NShTot=        1100 NBatch=         100 AvBLen=        11.0
 IPart=  2 NShTot=        1441 NBatch=         131 AvBLen=        11.0
 IPart=  9 NShTot=        1177 NBatch=         107 AvBLen=        11.0
 IPart= 12 NShTot=        1133 NBatch=         103 AvBLen=        11.0
 IPart= 10 NShTot=        1155 NBatch=         105 AvBLen=        11.0
 IPart= 14 NShTot=        1122 NBatch=         102 AvBLen=        11.0
 IPart= 13 NShTot=        1133 NBatch=         103 AvBLen=        11.0
 IPart=  8 NShTot=        1254 NBatch=         114 AvBLen=        11.0
 PrSmSu:  NxtVal=            241.
 Polarizability after L701:
                1             2             3 
      1  0.000000D+00
      2  0.000000D+00  0.000000D+00
      3  0.000000D+00  0.000000D+00  0.000000D+00
 Dipole Derivatives after L701:
                 1             2             3             4             5 
      1  -0.295637D-02 -0.241217D+00 -0.114595D+00 -0.481179D+00  0.578321D+00
      2  -0.170952D+00 -0.169728D+00 -0.555801D-01  0.436988D+00 -0.737491D+00
      3  -0.860913D-02 -0.369139D-02 -0.217630D+00 -0.302643D-01  0.668776D-01
                 6             7             8             9            10 
      1  -0.170997D+00 -0.138520D+01  0.537690D+00  0.265998D+00 -0.102050D+01
      2   0.151759D+00  0.133171D-01 -0.885747D+00  0.188402D-01 -0.368312D+00
      3  -0.895439D+00  0.920469D-02  0.352496D-01 -0.873674D+00 -0.189672D+00
                11            12            13            14            15 
      1  -0.883663D+00 -0.115924D-01  0.135402D+00 -0.172863D-01  0.223932D+00
      2  -0.636768D+00  0.137445D+00  0.276656D-01  0.188303D+00 -0.300001D+00
      3   0.104708D+00 -0.804761D+00 -0.332857D-01 -0.616155D-01  0.683848D+00
                16            17            18            19            20 
      1   0.413609D+00 -0.353838D+00 -0.157712D+00  0.116513D-01 -0.369560D+00
      2  -0.290485D+00  0.672317D+00  0.249179D+00  0.237367D+00  0.671168D+00
      3  -0.165657D-01  0.627686D-01  0.183649D+00 -0.467237D-01 -0.119918D-01
                21            22            23            24            25 
      1  -0.724844D-02  0.110313D+01  0.252480D-01  0.514737D+00  0.199757D+00
      2  -0.689060D-01 -0.158373D+00  0.138742D+00 -0.517593D-01 -0.304068D-01
      3   0.150086D+00  0.150357D+00  0.384571D-01  0.218105D+00 -0.844269D-01
                26            27            28            29            30 
      1   0.319795D-01 -0.638499D+00  0.753139D-01  0.342151D+00 -0.640016D+00
      2   0.154740D+00  0.891628D-01 -0.237044D-01  0.357118D+00 -0.436723D+00
      3  -0.684344D-01  0.616932D+00  0.349838D-01 -0.236524D+00  0.624022D+00
                31            32            33 
      1   0.950972D+00  0.350175D+00  0.735994D+00
      2   0.326896D+00  0.247345D+00  0.266584D+00
      3   0.215002D+00  0.741963D-01  0.314861D+00
 Hessian after L701:
                1             2             3             4             5 
      1  0.328931D+01
      2  0.289314D+01  0.902044D+01
      3 -0.108703D+01 -0.147731D+01  0.105622D+02
      4 -0.460824D+00 -0.551014D+00  0.278863D+01  0.979873D+01
      5 -0.447905D+00 -0.663985D+01 -0.632490D-02 -0.474426D+00  0.143858D+02
      6  0.270585D+01 -0.568463D-01 -0.541961D+01 -0.187020D+01  0.374845D+00
      7 -0.358808D+01 -0.321261D+01 -0.154686D+01  0.365697D+00 -0.220753D+00
      8 -0.320235D+01 -0.287654D+01  0.190701D+01 -0.206162D+00 -0.391212D-01
      9 -0.152993D+01  0.191499D+01 -0.553031D+01  0.455690D-01  0.832496D-02
     10  0.576113D+00  0.464220D+00 -0.206924D+00 -0.331658D+01  0.236243D+01
     11  0.385949D+00  0.125141D+00 -0.752365D-01  0.235933D+01 -0.231340D+01
     12 -0.759864D-01 -0.219396D-01 -0.224431D+00 -0.486010D+00 -0.555270D+00
     13 -0.111140D+00 -0.253477D-01 -0.543383D-01 -0.365172D+01  0.948886D-02
     14 -0.168750D-01  0.976948D-02 -0.625899D-01  0.276918D-01 -0.353510D+01
     15 -0.107260D-01 -0.764102D-01  0.275734D+00 -0.122140D+00 -0.448711D+00
     16 -0.652986D-01 -0.450282D-01 -0.837110D-01 -0.292449D+01 -0.104851D+01
     17 -0.669830D-01  0.219506D+00  0.533927D-01 -0.101874D+01 -0.176830D+01
     18 -0.118805D+00  0.732206D-01  0.633175D-01 -0.340032D+00  0.592392D+00
     19  0.344271D-02  0.185261D+00  0.628371D-01 -0.292886D-02  0.170558D-01
     20  0.131890D+00  0.283495D+00 -0.183955D+00 -0.931169D-02  0.113967D-01
     21  0.348401D-01 -0.157912D+00 -0.240272D-01  0.165610D-02 -0.424050D-02
     22  0.155334D+00  0.406149D-01  0.112331D+00  0.135630D+00 -0.465911D-01
     23  0.743359D-01 -0.372357D-01 -0.312652D-01 -0.484634D-01 -0.284875D-01
     24  0.147897D+00 -0.525632D-01  0.479735D-01  0.450418D-01 -0.104755D-01
     25  0.481067D-01  0.110757D+00 -0.390508D-01  0.475586D-01 -0.295264D-01
     26  0.779038D-01 -0.956653D-01 -0.129959D+00 -0.249065D-01 -0.400228D-01
     27 -0.818310D-01 -0.129513D+00  0.303051D+00 -0.721780D-01  0.166914D-01
     28  0.418639D-01  0.766316D-01 -0.132176D-01  0.259231D-01 -0.603472D-01
     29  0.104910D+00  0.132470D-01 -0.232441D-01 -0.467190D-02 -0.389948D-01
     30 -0.682319D-01 -0.509550D-01 -0.406762D-01 -0.613908D-02  0.473813D-01
     31  0.111172D+00  0.633813D-01  0.673283D-01 -0.169927D-01 -0.609164D-01
     32  0.659857D-01 -0.223044D-01  0.294841D-01 -0.493228D-01  0.612808D-02
     33  0.839551D-01  0.352417D-01 -0.131873D-01  0.157936D-01 -0.146128D-01
                6             7             8             9            10 
      6  0.148015D+02
      7 -0.151933D-01  0.106098D+02
      8  0.384522D-01  0.272063D+01  0.110470D+02
      9 -0.159689D+00  0.121100D+01 -0.154221D+01  0.132975D+02
     10 -0.462692D+00  0.344654D+00  0.887805D-01 -0.328111D-01  0.708073D+01
     11 -0.529458D+00  0.938358D-02 -0.249941D+00  0.426060D-02 -0.301891D+01
     12 -0.495205D+01 -0.390642D-01  0.577558D-02 -0.264084D+00 -0.503776D+00
     13 -0.232391D-01  0.611604D-02 -0.171658D-01  0.174714D-01  0.131170D+00
     14 -0.482139D+00 -0.266703D-01 -0.161487D-01 -0.158103D-01 -0.771117D-01
     15 -0.101183D+01  0.486492D-01 -0.183173D-01  0.142613D-01  0.591845D-01
     16 -0.368394D+00  0.824343D-01 -0.885261D-01 -0.195253D-01  0.344628D-01
     17  0.605525D+00 -0.111778D+00  0.299104D-01  0.145467D-01 -0.119943D+00
     18 -0.330710D+01 -0.256489D-01  0.181461D-01 -0.435863D-01 -0.605278D-02
     19 -0.888640D-02 -0.324116D+01  0.647970D+00 -0.486711D-01  0.583728D-01
     20  0.139940D-01  0.835387D+00 -0.114925D+01 -0.241742D+00 -0.131916D+00
     21 -0.190380D-02 -0.575521D-01 -0.221489D+00 -0.342187D+01  0.821902D-02
     22  0.336186D-01 -0.135856D+01 -0.306524D-01  0.931125D+00  0.564213D-01
     23 -0.106336D-01 -0.656529D-01 -0.333211D+01 -0.326209D-01  0.306530D-02
     24 -0.379351D-01  0.881120D+00 -0.126664D-01 -0.291213D+01  0.154455D-01
     25 -0.404147D-01 -0.329377D+01  0.467064D-01 -0.562728D+00  0.413928D-02
     26  0.553271D-02  0.352685D-01 -0.339086D+01 -0.101759D+00  0.624682D-02
     27 -0.597221D-02 -0.421969D+00 -0.157283D+00 -0.967877D+00 -0.258255D-01
     28  0.542207D-01  0.316094D-01  0.207700D-01 -0.236882D-01 -0.315969D+01
     29  0.666320D-01  0.268714D-01 -0.122508D-01 -0.106675D-01 -0.866526D-01
     30  0.372197D-01 -0.533181D-01 -0.280513D-01 -0.404188D-02  0.150039D+00
     31 -0.467322D-02  0.411935D-01  0.199953D-01  0.121908D-01 -0.180979D+01
     32 -0.259044D-01  0.992513D-02 -0.107286D-01  0.269502D-02  0.509793D+00
     33  0.573334D-01  0.188359D-01  0.106408D-01 -0.819899D-02  0.100519D+01
               11            12            13            14            15 
     11  0.794823D+01
     12  0.911809D+00  0.881687D+01
     13 -0.549857D-01  0.456528D-01  0.354149D+01
     14 -0.445045D-02  0.135524D+00  0.677718D-01  0.349883D+01
     15  0.146482D+00  0.654145D-01 -0.221858D-01  0.544200D+00  0.701933D+00
     16 -0.127950D+00 -0.145398D-01  0.554648D-01  0.326750D-01  0.552443D-01
     17  0.480249D-01  0.591344D-01  0.260425D-01  0.423366D-01 -0.714008D-01
     18  0.597538D-01  0.689512D-01  0.588679D-01 -0.911431D-01 -0.592360D-01
     19 -0.676353D-01  0.350783D-03 -0.191066D-02  0.362356D-02 -0.314644D-02
     20 -0.950705D-02  0.251440D-02  0.669672D-04  0.300625D-02 -0.123991D-01
     21 -0.938214D-03 -0.726535D-01 -0.507081D-03  0.431450D-03  0.255593D-02
     22 -0.603024D-03  0.101413D-01  0.384218D-02 -0.406103D-02  0.151584D-01
     23 -0.161139D-01  0.241584D-02 -0.104194D-02 -0.119720D-02 -0.207521D-02
     24 -0.119160D-02 -0.134328D-01  0.327356D-02 -0.214385D-02  0.660769D-02
     25 -0.218742D-02 -0.737519D-02  0.306424D-01 -0.290834D-01  0.187497D-01
     26 -0.632661D-02 -0.370726D-02 -0.226902D-01 -0.909641D-02 -0.545433D-02
     27  0.407122D-02  0.265130D-02 -0.914997D-02  0.768585D-02 -0.348552D-01
     28  0.158410D-02  0.983365D-02 -0.108810D-01  0.936351D-02 -0.184470D-01
     29 -0.268799D+01 -0.972281D+00  0.890761D-02  0.783545D-02 -0.437574D-01
     30 -0.931585D+00 -0.125727D+01 -0.166175D-01 -0.347846D-01  0.494543D-01
     31  0.516027D+00  0.106077D+01  0.693177D-02  0.126758D-01 -0.203413D-01
     32 -0.283366D+01  0.436025D+00  0.895355D-02  0.421644D-02 -0.121572D-01
     33  0.412033D+00 -0.216997D+01  0.772155D-03  0.769253D-03 -0.100390D-01
               16            17            18            19            20 
     16  0.281014D+01
     17  0.129251D+01  0.138094D+01
     18  0.433235D+00 -0.673402D+00  0.327992D+01
     19 -0.295981D-02  0.215538D-02  0.181773D-03  0.314747D+01
     20 -0.669183D-02  0.101043D-01  0.421850D-02 -0.638580D+00  0.869360D+00
     21  0.899626D-03 -0.121170D-02 -0.120250D-02 -0.551603D-01  0.257373D+00
     22  0.101741D-01 -0.132052D-01 -0.403167D-02 -0.425323D-01 -0.792589D-01
     23 -0.167714D-02  0.843861D-03  0.111291D-02 -0.945020D-01  0.187441D-02
     24  0.464286D-02 -0.444099D-02 -0.256158D-02 -0.110636D-01 -0.144940D-01
     25  0.932658D-02 -0.116663D-01 -0.678209D-02  0.947486D-01 -0.898629D-01
     26 -0.665249D-02  0.196120D-02  0.346698D-02 -0.574358D-01 -0.129571D-01
     27 -0.138863D-01  0.144865D-01  0.453041D-02  0.632956D-01  0.169530D+00
     28 -0.134789D-02 -0.167031D-02  0.663683D-03 -0.752103D-02 -0.263664D-02
     29 -0.487775D-02  0.135737D-01  0.182964D-02  0.129899D-02 -0.496507D-02
     30  0.655862D-02 -0.151376D-01 -0.343064D-02  0.289822D-03  0.111713D-01
     31 -0.790696D-02  0.232800D-01  0.840431D-02 -0.502588D-02 -0.908674D-02
     32  0.472565D-02  0.211007D-01  0.104051D-01  0.788118D-03 -0.255692D-02
     33 -0.523636D-03  0.185078D-01  0.398521D-03 -0.272512D-04 -0.621237D-02
               21            22            23            24            25 
     21  0.349533D+01
     22 -0.319306D-01  0.991609D+00
     23 -0.350977D-01  0.121281D+00  0.336395D+01
     24  0.576105D-01 -0.101223D+01  0.943006D-01  0.292466D+01
     25  0.950523D-01  0.323927D-01  0.114494D-01 -0.795127D-01  0.301128D+01
     26  0.163086D+00  0.298076D-02  0.504418D-01  0.565698D-03 -0.140910D-01
     27 -0.337824D-01 -0.501032D-01  0.143231D-01 -0.681445D-01  0.629752D+00
     28  0.268090D-02  0.411691D-02  0.607947D-03  0.721374D-03  0.447428D-02
     29 -0.622031D-03  0.623514D-02 -0.105720D-02  0.168975D-02  0.440792D-02
     30 -0.644356D-03 -0.111844D-01 -0.690613D-03 -0.433889D-02 -0.999602D-02
     31  0.180212D-02  0.115675D-01  0.597777D-03  0.466917D-02  0.111005D-01
     32  0.620060D-03  0.325978D-02 -0.906090D-03  0.141934D-02  0.309663D-02
     33  0.585206D-03  0.711024D-02  0.230797D-03  0.168971D-02  0.230552D-02
               26            27            28            29            30 
     26  0.350578D+01
     27  0.701411D-01  0.794870D+00
     28  0.117352D-02 -0.719922D-02  0.304751D+01
     29 -0.171245D-02 -0.693171D-02 -0.623073D-01  0.266434D+01
     30 -0.223062D-02  0.123541D-01  0.614304D-01  0.989481D+00  0.128600D+01
     31  0.220246D-02 -0.109062D-01  0.239335D-01  0.587869D-02 -0.528313D-01
     32 -0.154719D-02 -0.320133D-02  0.168308D-01  0.479779D-01  0.154018D-01
     33  0.317826D-03 -0.682615D-02 -0.669987D-01 -0.212886D-02 -0.746284D-01
               31            32            33 
     31  0.163382D+01
     32 -0.574035D+00  0.279228D+01
     33 -0.106642D+01 -0.454787D+00  0.222284D+01
 Leave Link  701 at Wed Mar 13 04:21:17 2019, MaxMem=   671088640 cpu:               6.1 elap:               0.3
 (Enter /shared/centos7/gaussian/g16/l702.exe)
 L702 exits ... SP integral derivatives will be done elsewhere.
 Leave Link  702 at Wed Mar 13 04:21:17 2019, MaxMem=   671088640 cpu:               0.3 elap:               0.0
 (Enter /shared/centos7/gaussian/g16/l703.exe)
 Integral derivatives from FoFJK, PRISM(SPDF).
 Compute integral second derivatives, UseDBF=F ICtDFT=           0.
 ICntrl=    100147.
 Calling FoFJK, ICntrl=    100147 FMM=F ISym2X=0 I1Cent= 0 IOpClX= 1 NMat=1 NMatS=1 NMatT=0.
 FoFJK:  IHMeth= 1 ICntrl=  100147 DoSepK=F KAlg= 0 I1Cent=           0 FoldK=F
 IRaf=         0 NMat=       1 IRICut=       1 DoRegI=T DoRafI=F ISym2E= 0 IDoP0=0 IntGTp=1.
 FoFCou: FMM=F IPFlag=           0 FMFlag=      100000 FMFlg1=         800
         NFxFlg=           0 DoJE=F BraDBF=F KetDBF=F FulRan=T
         wScrn=  0.000000 ICntrl=    100147 IOpCl=  1 I1Cent=           0 NGrid=           0
         NMat0=    1 NMatS0=      1 NMatT0=    0 NMatD0=    1 NMtDS0=    0 NMtDT0=    0
 Symmetry not used in FoFCou.
 FoFCou:  KetSym=F NOpSet=  1 NOpAb=1 NOp=  1.
 FoFCou:  CnvScl= 1.00D+00 Thresh= 1.00D-08 IAcrcy=      12.
 PrismS was handed   670825599 working-precision words and  2265 shell-pairs
 FoFCou: LinMIO=F DoNuc=F BraDBF=F KetDBF=F HaveP=T PDBF=F HaveZ=T HaveW=F
         NIJTC =      15 NIJTAt=       0 NIJTCD=       0 NIJTT =      15
         IJTBeg=       1 IJTEnd=      15 KLTBeg=       1 KLTEnd=      15
         IPTBeg=       1 IPTEnd=      15 IPTBCv=       1 IPTECv=      15
         IZTBeg=       1 IZTEnd=      15 IZTBCv=       1 IZTECv=      15
         IWTBeg=      16 IWTEnd=      15 IWTBCv=      16 IWTECv=      15
         INTBeg=       1 INTEnd=       0 IFTBCv=       1 IFTECv=      15
 NCel replicated for PrismC:     1
 CoulSu-InSpLW:  IPartL=    0 NPrtUS=   20 NPrtUL=    1 DoSpLW=F IThBeg=    0 IThEnd=   19 NThAct=   20.
 CoulSu:  IncDef=  1024 NBBP=        2566245 NTPThr=   100 NPartT=   20 Incr=        1024 LDynOK=F GPUOK=T.
 CoulSu:  NPrtUS=  20 ThrOK=T IAlg=1 NPAlg=1 LenDen=           0 LWGrdD=           0 DoCopy=F ISkipM=0
          DoSpLW=F IThBeg=    0 IThEnd=   19.
 Enter PrismC:  IPart=  0 JobTyp=22 DoJE=F Cont=F.
 PrismC:  IPart=     0 DynPar=T LinDyn=F Incr=        1024 UseFst=F UseS4=T ISplat=2.
 PrismC was handed    33498222 working-precision words and  2265 shell-pairs
 Enter PrismC:  IPart= 11 JobTyp=22 DoJE=F Cont=F.
 Enter PrismC:  IPart=  7 JobTyp=22 DoJE=F Cont=F.
 PrismC:  IPart=    11 DynPar=T LinDyn=F Incr=        1024 UseFst=F UseS4=T ISplat=2.
 PrismC was handed    33498222 working-precision words and  2265 shell-pairs
 Enter PrismC:  IPart= 14 JobTyp=22 DoJE=F Cont=F.
 PrismC:  IPart=     7 DynPar=T LinDyn=F Incr=        1024 UseFst=F UseS4=T ISplat=2.
 PrismC:  IPart=    14 DynPar=T LinDyn=F Incr=        1024 UseFst=F UseS4=T ISplat=2.
 PrismC was handed    33498222 working-precision words and  2265 shell-pairs
 PrismC was handed    33498222 working-precision words and  2265 shell-pairs
 Enter PrismC:  IPart= 19 JobTyp=22 DoJE=F Cont=F.
 Enter PrismC:  IPart= 16 JobTyp=22 DoJE=F Cont=F.
 PrismC:  IPart=    19 DynPar=T LinDyn=F Incr=        1024 UseFst=F UseS4=T ISplat=2.
 Enter PrismC:  IPart=  8 JobTyp=22 DoJE=F Cont=F.
 PrismC was handed    33498222 working-precision words and  2265 shell-pairs
 PrismC:  IPart=    16 DynPar=T LinDyn=F Incr=        1024 UseFst=F UseS4=T ISplat=2.
 PrismC was handed    33498222 working-precision words and  2265 shell-pairs
 Enter PrismC:  IPart= 12 JobTyp=22 DoJE=F Cont=F.
 PrismC:  IPart=     8 DynPar=T LinDyn=F Incr=        1024 UseFst=F UseS4=T ISplat=2.
 PrismC was handed    33498222 working-precision words and  2265 shell-pairs
 Enter PrismC:  IPart= 17 JobTyp=22 DoJE=F Cont=F.
 Enter PrismC:  IPart=  2 JobTyp=22 DoJE=F Cont=F.
 PrismC:  IPart=    12 DynPar=T LinDyn=F Incr=        1024 UseFst=F UseS4=T ISplat=2.
 PrismC was handed    33498222 working-precision words and  2265 shell-pairs
 Enter PrismC:  IPart=  1 JobTyp=22 DoJE=F Cont=F.
 PrismC:  IPart=     2 DynPar=T LinDyn=F Incr=        1024 UseFst=F UseS4=T ISplat=2.
 PrismC:  IPart=    17 DynPar=T LinDyn=F Incr=        1024 UseFst=F UseS4=T ISplat=2.
 PrismC was handed    33498222 working-precision words and  2265 shell-pairs
 PrismC:  IPart=     1 DynPar=T LinDyn=F Incr=        1024 UseFst=F UseS4=T ISplat=2.
 PrismC was handed    33498222 working-precision words and  2265 shell-pairs
 Enter PrismC:  IPart= 18 JobTyp=22 DoJE=F Cont=F.
 PrismC was handed    33498222 working-precision words and  2265 shell-pairs
 Enter PrismC:  IPart= 13 JobTyp=22 DoJE=F Cont=F.
 Enter PrismC:  IPart= 10 JobTyp=22 DoJE=F Cont=F.
 PrismC:  IPart=    13 DynPar=T LinDyn=F Incr=        1024 UseFst=F UseS4=T ISplat=2.
 Enter PrismC:  IPart=  9 JobTyp=22 DoJE=F Cont=F.
 PrismC was handed    33498222 working-precision words and  2265 shell-pairs
 PrismC:  IPart=    18 DynPar=T LinDyn=F Incr=        1024 UseFst=F UseS4=T ISplat=2.
 PrismC was handed    33498222 working-precision words and  2265 shell-pairs
 Enter PrismC:  IPart=  4 JobTyp=22 DoJE=F Cont=F.
 PrismC:  IPart=    10 DynPar=T LinDyn=F Incr=        1024 UseFst=F UseS4=T ISplat=2.
 PrismC was handed    33498222 working-precision words and  2265 shell-pairs
 PrismC:  IPart=     9 DynPar=T LinDyn=F Incr=        1024 UseFst=F UseS4=T ISplat=2.
 PrismC was handed    33498222 working-precision words and  2265 shell-pairs
 PrismC:  IPart=     4 DynPar=T LinDyn=F Incr=        1024 UseFst=F UseS4=T ISplat=2.
 Enter PrismC:  IPart=  5 JobTyp=22 DoJE=F Cont=F.
 PrismC was handed    33498222 working-precision words and  2265 shell-pairs
 Enter PrismC:  IPart=  6 JobTyp=22 DoJE=F Cont=F.
 PrismC:  IPart=     5 DynPar=T LinDyn=F Incr=        1024 UseFst=F UseS4=T ISplat=2.
 PrismC was handed    33498222 working-precision words and  2265 shell-pairs
 PrismC:  IPart=     6 DynPar=T LinDyn=F Incr=        1024 UseFst=F UseS4=T ISplat=2.
 PrismC was handed    33498222 working-precision words and  2265 shell-pairs
 Enter PrismC:  IPart= 15 JobTyp=22 DoJE=F Cont=F.
 Enter PrismC:  IPart=  3 JobTyp=22 DoJE=F Cont=F.
 PrismC:  IPart=    15 DynPar=T LinDyn=F Incr=        1024 UseFst=F UseS4=T ISplat=2.
 PrismC was handed    33498222 working-precision words and  2265 shell-pairs
 PrismC:  IPart=     3 DynPar=T LinDyn=F Incr=        1024 UseFst=F UseS4=T ISplat=2.
[...]
 ITry= 1 IFail=0 DXMaxC= 5.31D-05 DCOld= 1.00D+10 DXMaxT= 3.00D-01 DXLimC= 3.00D+00 Rises=F
 Variable       Old X    -DE/DX   Delta X   Delta X   Delta X     New X
                                 (Linear)    (Quad)   (Total)
    R1        2.66437   0.00000   0.00000   0.00000   0.00000   2.66438
    R2        2.65720   0.00000   0.00000   0.00000   0.00000   2.65720
    R3        2.80777  -0.00000   0.00000   0.00000   0.00000   2.80777
    R4        2.07557  -0.00000   0.00000  -0.00000  -0.00000   2.07557
    R5        2.07119   0.00000   0.00000  -0.00000  -0.00000   2.07119
    R6        2.06763  -0.00000   0.00000  -0.00000  -0.00000   2.06763
    R7        2.05420   0.00000   0.00000   0.00000   0.00000   2.05420
    R8        2.07097  -0.00000   0.00000  -0.00000  -0.00000   2.07097
    R9        2.04126   0.00000   0.00000  -0.00000  -0.00000   2.04126
   R10        2.03901  -0.00000   0.00000  -0.00000  -0.00000   2.03901
    A1        1.97107   0.00000   0.00000  -0.00000  -0.00000   1.97107
    A2        1.97395  -0.00000   0.00000  -0.00000  -0.00000   1.97395
    A3        1.92285  -0.00000   0.00000  -0.00000  -0.00000   1.92285
    A4        1.83635   0.00000   0.00000  -0.00000  -0.00000   1.83635
    A5        1.92712   0.00000   0.00000   0.00000   0.00000   1.92712
    A6        1.93278   0.00000   0.00000   0.00000   0.00000   1.93278
    A7        1.86593  -0.00000   0.00000   0.00000   0.00000   1.86593
    A8        1.94950  -0.00000   0.00000  -0.00000  -0.00000   1.94950
    A9        1.87343  -0.00000   0.00000  -0.00000  -0.00000   1.87343
   A10        1.93562  -0.00000   0.00000  -0.00000  -0.00000   1.93562
   A11        1.90604   0.00000   0.00000   0.00000   0.00000   1.90604
   A12        1.89405   0.00000   0.00000   0.00000   0.00000   1.89405
   A13        1.90465   0.00000   0.00000   0.00000   0.00000   1.90465
   A14        2.07842  -0.00000   0.00000  -0.00000  -0.00000   2.07842
   A15        2.11041   0.00000   0.00000   0.00000   0.00000   2.11041
   A16        2.07399  -0.00000   0.00000   0.00000   0.00000   2.07399
    D1       -1.21046  -0.00000   0.00000  -0.00000  -0.00000  -1.21046
    D2        0.95556  -0.00000   0.00000  -0.00000  -0.00000   0.95556
    D3        2.96095  -0.00000   0.00000  -0.00000  -0.00000   2.96095
    D4        1.08621  -0.00000   0.00000  -0.00000  -0.00000   1.08621
    D5       -3.10813  -0.00000   0.00000  -0.00000  -0.00000  -3.10814
    D6       -1.02902  -0.00000   0.00000  -0.00000  -0.00000  -1.02902
    D7       -0.65513  -0.00000   0.00000  -0.00004  -0.00004  -0.65516
    D8        2.70445  -0.00000   0.00000  -0.00005  -0.00005   2.70440
    D9       -2.81881  -0.00000   0.00000  -0.00004  -0.00004  -2.81885
   D10        0.54077  -0.00000   0.00000  -0.00005  -0.00005   0.54072
   D11        1.40110  -0.00000   0.00000  -0.00004  -0.00004   1.40106
   D12       -1.52250  -0.00000   0.00000  -0.00006  -0.00006  -1.52256
         Item               Value     Threshold  Converged?
 Maximum Force            0.000000     0.000002     YES
 RMS     Force            0.000000     0.000001     YES
 Maximum Displacement     0.000053     0.000006     NO 
 RMS     Displacement     0.000018     0.000004     NO 
 Predicted change in Energy=-9.066586D-12
                           ----------------------------
                           ! Non-Optimized Parameters !
                           ! (Angstroms and Degrees)  !
 --------------------------                            --------------------------
 ! Name  Definition              Value          Derivative Info.                !
 --------------------------------------------------------------------------------
 ! R1    R(1,2)                  1.4099         -DE/DX =    0.0                 !
 ! R2    R(1,3)                  1.4061         -DE/DX =    0.0                 !
 ! R3    R(2,4)                  1.4858         -DE/DX =    0.0                 !
 ! R4    R(2,5)                  1.0983         -DE/DX =    0.0                 !
 ! R5    R(2,6)                  1.096          -DE/DX =    0.0                 !
 ! R6    R(3,7)                  1.0941         -DE/DX =    0.0                 !
 ! R7    R(3,8)                  1.087          -DE/DX =    0.0                 !
 ! R8    R(3,9)                  1.0959         -DE/DX =    0.0                 !
 ! R9    R(4,10)                 1.0802         -DE/DX =    0.0                 !
 ! R10   R(4,11)                 1.079          -DE/DX =    0.0                 !
 ! A1    A(2,1,3)              112.9339         -DE/DX =    0.0                 !
 ! A2    A(1,2,4)              113.0988         -DE/DX =    0.0                 !
 ! A3    A(1,2,5)              110.171          -DE/DX =    0.0                 !
 ! A4    A(1,2,6)              105.2148         -DE/DX =    0.0                 !
 ! A5    A(4,2,5)              110.4158         -DE/DX =    0.0                 !
 ! A6    A(4,2,6)              110.7401         -DE/DX =    0.0                 !
 ! A7    A(5,2,6)              106.9098         -DE/DX =    0.0                 !
 ! A8    A(1,3,7)              111.6979         -DE/DX =    0.0                 !
 ! A9    A(1,3,8)              107.3395         -DE/DX =    0.0                 !
 ! A10   A(1,3,9)              110.9026         -DE/DX =    0.0                 !
 ! A11   A(7,3,8)              109.2082         -DE/DX =    0.0                 !
 ! A12   A(7,3,9)              108.5213         -DE/DX =    0.0                 !
 ! A13   A(8,3,9)              109.1282         -DE/DX =    0.0                 !
 ! A14   A(2,4,10)             119.0846         -DE/DX =    0.0                 !
 ! A15   A(2,4,11)             120.9175         -DE/DX =    0.0                 !
 ! A16   A(10,4,11)            118.8311         -DE/DX =    0.0                 !
 ! D1    D(3,1,2,4)            -69.3542         -DE/DX =    0.0                 !
 ! D2    D(3,1,2,5)             54.7496         -DE/DX =    0.0                 !
 ! D3    D(3,1,2,6)            169.6497         -DE/DX =    0.0                 !
 ! D4    D(2,1,3,7)             62.2351         -DE/DX =    0.0                 !
 ! D5    D(2,1,3,8)           -178.0831         -DE/DX =    0.0                 !
 ! D6    D(2,1,3,9)            -58.9585         -DE/DX =    0.0                 !
 ! D7    D(1,2,4,10)           -37.5382         -DE/DX =    0.0                 !
 ! D8    D(1,2,4,11)           154.9505         -DE/DX =    0.0                 !
 ! D9    D(5,2,4,10)          -161.5079         -DE/DX =    0.0                 !
 ! D10   D(5,2,4,11)            30.9807         -DE/DX =    0.0                 !
 ! D11   D(6,2,4,10)            80.275          -DE/DX =    0.0                 !
 ! D12   D(6,2,4,11)           -87.2363         -DE/DX =    0.0                 !
 --------------------------------------------------------------------------------
 GradGradGradGradGradGradGradGradGradGradGradGradGradGradGradGradGradGrad

 Leave Link  103 at Wed Mar 13 04:26:18 2019, MaxMem=   671088640 cpu:               0.4 elap:               0.0
 (Enter /shared/centos7/gaussian/g16/l9999.exe)

 ----------------------------------------------------------------------

 Electric dipole moment (input orientation):
 (Debye = 10**-18 statcoulomb cm , SI units = C m)
                  (au)            (Debye)         (10**-30 SI)
   Tot        0.500858D+00      0.127305D+01      0.424645D+01
   x         -0.185835D+00     -0.472345D+00     -0.157557D+01
   y         -0.272467D+00     -0.692542D+00     -0.231007D+01
   z          0.376942D+00      0.958092D+00      0.319585D+01

 Dipole polarizability, Alpha (input orientation).
 (esu units = cm**3 , SI units = C**2 m**2 J**-1)
 Alpha(0;0):
               (au)            (10**-24 esu)      (10**-40 SI)
   iso        0.421084D+02      0.623982D+01      0.694274D+01
   aniso      0.829220D+01      0.122878D+01      0.136720D+01
   xx         0.473934D+02      0.702298D+01      0.781412D+01
   yx        -0.304249D+00     -0.450850D-01     -0.501638D-01
   yy         0.406316D+02      0.602098D+01      0.669925D+01
   zx         0.117599D+00      0.174263D-01      0.193894D-01
   zy         0.711751D+00      0.105471D+00      0.117352D+00
   zz         0.383002D+02      0.567551D+01      0.631485D+01

 ----------------------------------------------------------------------

 Dipole orientation:
     8          0.66221557          0.30765436         -1.54924594
     6         -1.12647988          1.31355207          0.15005637
     6          2.69916880         -0.88096368         -0.32501465
     6         -2.57180884         -0.66211415          1.52531829
     1         -0.19703858          2.59620663          1.49129757
     1         -2.39037781          2.47086971         -1.01313384
     1          2.07538417         -2.49880308          0.80130047
     1          3.99412437         -1.53042821         -1.78138845
     1          3.68849862          0.44536742          0.92038042
     1         -3.10948839         -2.36603184          0.53825633
     1         -3.40962014         -0.27278293          3.34302718

 Electric dipole moment (dipole orientation):
 (Debye = 10**-18 statcoulomb cm , SI units = C m)
                  (au)            (Debye)         (10**-30 SI)
   Tot        0.500858D+00      0.127305D+01      0.424645D+01
   x          0.000000D+00      0.000000D+00      0.000000D+00
   y          0.000000D+00      0.000000D+00      0.000000D+00
   z          0.500858D+00      0.127305D+01      0.424645D+01

 Dipole polarizability, Alpha (dipole orientation).
 (esu units = cm**3 , SI units = C**2 m**2 J**-1)
 Alpha(0;0):
               (au)            (10**-24 esu)      (10**-40 SI)
   iso        0.421084D+02      0.623982D+01      0.694274D+01
   aniso      0.829220D+01      0.122878D+01      0.136720D+01
   xx         0.461360D+02      0.683666D+01      0.760681D+01
   yx        -0.119637D+01     -0.177284D+00     -0.197255D+00
   yy         0.407185D+02      0.603386D+01      0.671357D+01
   zx        -0.296327D+01     -0.439111D+00     -0.488577D+00
   zy        -0.390153D+00     -0.578147D-01     -0.643275D-01
   zz         0.394707D+02      0.584895D+01      0.650784D+01

 ----------------------------------------------------------------------

 Test job not archived.
 1\1\GINC-C0257\Freq\UM062X\6-311+G(2df,2p)\C3H7O1(2)\UNDERKOFFLER.C\13
 -Mar-2019\0\\#P Geom=AllCheck Guess=TCheck SCRF=Check Test GenChk UM06
 2X/6-311+G(2df,2p) Freq\\Gaussian input prepared by ASE\\0,2\O,0.60833
 61062,0.5409408693,-0.3984093823\C,-0.6587992132,0.6031845755,0.216721
 0566\C,1.4336468318,-0.4584031151,0.1469167398\C,-1.513173585,-0.57357
 34185,-0.0880933099\H,-0.5471066458,0.7245735146,1.3026078205\H,-1.117
 2374172,1.5240766538,-0.1615221672\H,1.0069374476,-1.4561842628,0.0072
 705181\H,2.3906097126,-0.403721549,-0.3658006947\H,1.5906984894,-0.293
 8626208,1.2189642018\H,-1.4777058452,-1.0060774156,-1.07727705\H,-2.30
 23198814,-0.8745462314,0.5833992673\\Version=EM64L-G16RevA.03\State=2-
 A\HF=-193.6434072\S2=0.755155\S2-1=0.\S2A=0.750021\RMSD=8.190e-09\RMSF
 =4.869e-07\ZeroPoint=0.0941529\Thermal=0.0998317\Dipole=-0.1858348,-0.
 2724669,0.3769423\DipoleDeriv=-1.097408,0.1732057,0.0195033,0.2421396,
 -0.6393075,0.0718769,0.0453053,0.0621032,-0.542696,0.8674821,0.0038754
 ,-0.0706526,0.0186929,0.2854388,0.0119244,-0.1704879,0.0810625,0.37400
 24,0.4807791,-0.1487328,0.1127787,-0.2684353,0.495565,-0.0636319,0.213
 9799,-0.0927541,0.3840541,-0.1992716,0.1260081,-0.1067498,0.0965573,-0
 .1698937,0.0868166,-0.140525,0.0279977,0.0127772,-0.0166189,-0.0195362
 ,-0.0620829,-0.0221409,0.0447067,-0.015886,0.0393973,-0.0644532,-0.166
 8312,-0.0353544,0.0189546,-0.0153055,0.051663,-0.0950328,0.0284938,-0.
 0180252,0.0674343,0.0594036,0.0001954,-0.0944757,-0.0242449,0.0007648,
 -0.1302577,-0.0079797,-0.0508062,-0.0233222,0.0290005,-0.1037737,0.029
 9047,0.0503829,-0.0064801,0.0607228,0.0216378,0.0849748,0.0076981,0.03
 08314,0.0243184,0.0238717,0.0090988,0.0281511,0.011083,-0.0682654,-0.0
 922237,0.0049505,-0.1703726,0.0840349,-0.038388,0.0342245,-0.069785,0.
 0506587,-0.0407959,0.0150903,-0.0586408,-0.0260177,-0.0043831,-0.07468
 77,0.0530477,-0.0711275,0.0863167,-0.0241905,0.0733204,-0.0120759,0.01
 58483\Polar=47.3933964,-0.3042485,40.6316111,0.1175987,0.7117509,38.30
 02135\Quadrupole=1.055444,-0.70598,-0.349464,-1.1072352,0.2073981,0.82
 83672\PG=C01 [X(C3H7O1)]\NImag=0\\0.44974332,-0.12981612,0.27829197,-0
 .05628824,-0.10345832,0.23260278,-0.20264159,0.02212537,0.05514619,0.4
 7580277,-0.00042675,-0.07343266,0.01552156,-0.02468912,0.51932513,0.08
 239396,0.00004205,-0.11504685,0.02423356,-0.00888895,0.56535326,-0.137
 34714,0.05891381,-0.01734909,-0.04087719,0.03363448,-0.01179362,0.5859
 9519,0.08439013,-0.16656040,0.05744196,0.01224443,-0.00571140,-0.00470
 960,0.03433468,0.52777756,-0.04692014,0.07232060,-0.10793056,0.0086795
 4,-0.01368365,0.00380299,-0.04758374,0.01881211,0.56435061,-0.03774468
 ,-0.02757059,0.00365085,-0.10606684,-0.07711023,-0.00981077,-0.0011026
 4,-0.00225439,0.00096461,0.37008324,-0.01051881,-0.00024978,0.00510624
 ,-0.08117036,-0.16576156,-0.04016558,0.00172027,0.00190319,0.00004429,
 0.20644919,0.33682505,0.02164579,0.01714875,0.00554383,-0.01131988,-0.
 04303898,-0.09386314,-0.00144236,0.00320219,-0.00022430,-0.16271562,0.
 12363164,0.55459468,-0.01179359,0.00599343,0.03924227,-0.05670834,-0.0
 0234191,-0.03891445,0.00424508,-0.00316049,0.00533844,0.00116075,-0.00
 249467,-0.01795370,0.06453244,0.00205925,0.00178636,-0.00121203,-0.004
 33253,-0.05044079,-0.02324834,-0.00061665,0.00004060,-0.00248505,-0.00
 421465,-0.00746778,-0.02854375,0.00571742,0.05496751,0.01481978,-0.001
 76430,-0.01906978,-0.03437682,-0.02472688,-0.28195010,-0.00254228,0.00
 257280,0.00162307,-0.00235257,-0.00222104,-0.00600913,0.02746160,0.028
 69136,0.31493228,-0.02924799,0.03132586,-0.00861321,-0.07762975,0.0722
 7641,-0.03309497,-0.00388694,-0.00065989,0.00467968,0.00723133,-0.0153
 4180,0.00463309,-0.00023514,0.00424681,-0.00303669,0.10611456,0.005875
 24,-0.00067612,0.00014949,0.09306725,-0.21981889,0.07809822,-0.0006433
 1,0.00183882,-0.00134623,-0.00080391,-0.02690656,0.00611054,-0.0013247
 2,0.00344757,-0.00019818,-0.09478241,0.24334441,0.01347384,-0.01463098
 ,0.00556340,-0.04193788,0.07658430,-0.08262353,0.00170236,-0.00008242,
 -0.00112872,0.00272844,-0.00581605,0.00507255,-0.01284579,0.02643551,-
 0.01180422,0.03642424,-0.08225738,0.08391284,0.00657671,0.02742056,0.0
 0035352,0.00433623,0.00093675,0.00079021,-0.09810912,-0.09935186,-0.01
 489962,-0.00139962,-0.00032452,-0.00073864,-0.00034558,0.00009038,0.00
 004309,-0.00026237,-0.00027287,-0.00002604,0.10003187,0.00552392,-0.03
 352775,0.00504341,-0.00482252,0.00053266,0.00212566,-0.09473205,-0.248
 17325,-0.03517830,-0.00005320,0.00053440,-0.00093794,0.00046242,-0.000
 12660,-0.00046957,0.00051751,0.00000090,-0.00008057,0.09878239,0.28399
 064,0.00334710,0.01973835,0.00329442,0.00084093,-0.00085170,0.00004833
 ,-0.01607427,-0.03684852,-0.05863947,-0.00028044,0.00015991,-0.0000252
 1,-0.00049102,-0.00003366,-0.00021453,-0.00004178,0.00003407,0.0000053
 9,0.02008807,0.03192021,0.05665922,-0.02445684,0.00525205,0.00765385,0
 .00047718,0.00278458,-0.00325391,-0.25402491,-0.01711980,0.11367317,0.
 00011470,0.00043146,0.00019144,0.00007572,-0.00003287,0.00017222,-0.00
 108013,0.00006974,0.00045265,-0.00979341,-0.00178678,0.00681510,0.2826
 7000,0.03122171,-0.00285550,-0.01230891,0.00164602,-0.00314829,0.00262
 516,-0.02597617,-0.05033893,0.01242701,-0.00043415,0.00019109,-0.00038
 257,-0.00010723,-0.00010106,-0.00000178,0.00142116,-0.00019652,-0.0002
 7581,-0.02454372,0.00020972,0.01481727,0.01088290,0.05528687,-0.017061
 80,0.00065787,0.00809380,-0.00152862,0.00160120,-0.00079584,0.12208880
 ,0.00781850,-0.11755668,-0.00005256,0.00003613,0.00021407,-0.00021637,
 0.00022541,0.00055518,-0.00049868,0.00018292,0.00055198,-0.00582033,-0
 .00066948,0.00323140,-0.12388979,-0.01296282,0.11895136,-0.01051381,0.
 00704447,-0.02421138,0.00351836,-0.00096914,-0.00551009,-0.05559921,-0
 .00740360,-0.02443021,-0.00023415,-0.00020701,0.00063780,0.00048776,-0
 .00009310,0.00135953,0.00013971,0.00000034,0.00024645,-0.00051941,-0.0
 0421600,-0.01393459,0.00609681,0.00568443,0.02700965,0.05664011,0.0135
 9701,-0.00164730,0.03214899,-0.00311735,0.00078459,0.00333253,-0.00706
 519,-0.06011380,-0.05127480,0.00033533,-0.00024306,-0.00060712,-0.0005
 3724,0.00027729,-0.00120653,-0.00021158,-0.00000148,-0.00006343,-0.002
 86280,-0.00377492,-0.02873212,-0.00031226,0.00083866,0.00316694,0.0001
 3578,0.06381712,-0.01162384,0.01079711,-0.01553420,0.00343015,-0.00047
 081,0.00129770,-0.02705578,-0.04749324,-0.28445572,-0.00049121,-0.0000
 8671,-0.00022915,-0.00175646,0.00023783,0.00056706,-0.00008267,0.00010
 401,0.00054339,0.00069526,-0.00204857,-0.00406699,-0.00177845,-0.00411
 871,-0.01320822,0.03877221,0.04311019,0.31508896,0.00230548,0.00208795
 ,0.00032531,0.00330347,-0.00537380,-0.01425834,-0.00018333,0.00007686,
 -0.00014632,-0.03598223,-0.01640571,0.01765000,-0.00160274,-0.00332160
 ,-0.00144118,-0.00025456,-0.00069556,-0.00022186,-0.00047365,0.0000299
 9,-0.00031308,-0.00003317,0.00008695,0.00002347,0.00013053,-0.00001672
 ,0.00004965,0.02961412,0.00130424,0.00198794,0.00233865,0.00266384,-0.
 00524118,-0.02500192,-0.00030284,0.00023190,-0.00006529,-0.01571315,-0
 .08151586,-0.11315064,-0.00271590,-0.00312495,0.00018959,0.00037361,0.
 00031055,0.00049889,0.00002951,0.00011282,-0.00004614,-0.00004535,0.00
 002479,0.00000673,0.00012125,-0.00008523,0.00005610,0.01464454,0.08130
 725,-0.00104140,0.00076373,0.00088803,0.00202971,0.00079845,-0.0020454
 4,0.00011350,-0.00076040,0.00006744,0.02148301,-0.12020393,-0.29910412
 ,-0.00011470,-0.00113166,0.00073066,-0.00023888,-0.00043863,-0.0003094
 4,-0.00023403,0.00025508,-0.00012799,-0.00000805,0.00014054,0.00000479
 ,0.00005094,0.00010194,0.00000581,-0.01958483,0.12708444,0.30894842,-0
 .00487986,-0.00277679,0.00008993,-0.00351430,0.00127873,0.00921843,0.0
 0089021,-0.00109606,0.00064460,-0.19605987,-0.08213804,0.14941209,0.00
 018364,0.00049753,-0.00010668,-0.00088872,-0.00048978,0.00000359,-0.00
 004165,0.00029431,0.00004400,-0.00004596,0.00011810,-0.00005377,-0.000
 14669,0.00005502,-0.00015884,0.00317607,-0.00035974,-0.00245528,0.2013
 2713,-0.00320983,-0.00311676,-0.00077104,-0.01361504,0.00291241,0.0157
 9076,0.00073296,-0.00089429,0.00042931,-0.07863023,-0.05730913,0.03656
 789,0.00050890,0.00074185,-0.00086548,0.00083431,-0.00134269,-0.000312
 05,0.00009619,0.00022139,-0.00015766,-0.00012368,0.00008917,-0.0000634
 0,-0.00009742,0.00014812,-0.00008719,0.00888711,0.00599196,-0.00660955
 ,0.08461673,0.05255799,-0.00274505,-0.00161484,0.00159511,-0.00519688,
 -0.00284455,0.00582263,-0.00006351,0.00004664,0.00009133,0.14687627,0.
 03951509,-0.16597008,0.00025019,0.00106437,0.00063950,-0.00013012,-0.0
 0043884,0.00021635,-0.00025149,0.00004007,-0.00016458,-0.00002822,0.00
 004062,-0.00004186,0.00000969,0.00002342,-0.00000864,0.01791717,0.0080
 8959,-0.00905817,-0.15663806,-0.04392158,0.16687841\\-0.00000028,-0.00
 000011,-0.00000050,0.00000029,-0.00000003,-0.00000006,-0.00000015,0.00
 000022,-0.00000077,-0.00000012,-0.00000013,0.00000089,0.00000052,0.000
 00030,0.00000007,-0.00000024,-0.00000013,0.00000011,0.,-0.00000005,-0.
 00000016,-0.00000024,-0.00000007,-0.00000113,0.00000057,0.00000031,-0.
 00000074,-0.00000051,-0.00000044,0.00000098,0.00000014,0.00000012,0.00
 000130\\\@


 THE ONLY EXISTING THINGS ARE ATOMS AND EMPTY SPACE;
 ALL ELSE IS MERE OPINION. -- DEMOCRITUS OF ABDERA D. 370 B.C.
 EXPERIMENTS ARE THE ONLY MEANS OF KNOWLEDGE AT OUR DISPOSAL
 THE REST IS POETRY, IMAGINATION. -- MAX PLANCK
 Job cpu time:       0 days  0 hours 51 minutes  5.4 seconds.
 Elapsed time:       0 days  0 hours  2 minutes 34.3 seconds.
 File lengths (MBytes):  RWF=   1328 Int=      0 D2E=      0 Chk=     32 Scr=     32
 Normal termination of Gaussian 16 at Wed Mar 13 04:26:18 2019.
