 Entering Gaussian System, Link 0=g16
 Input=ZMAYDFGNKOVZRH-UHFFFAOYSA-N_GeoFreq_a1.com
 Output=ZMAYDFGNKOVZRH-UHFFFAOYSA-N_GeoFreq_a1.log
 Initial command:
 /shared/centos7/gaussian/g16/l1.exe "/scratch/underkoffler.c/gaussian_scratch/Gau-19454.inp" -scrdir="/scratch/underkoffler.c/gaussian_scratch/"
 Entering Link 1 = /shared/centos7/gaussian/g16/l1.exe PID=     19455.
  
 Copyright (c) 1988,1990,1992,1993,1995,1998,2003,2009,2016,
            Gaussian, Inc.  All Rights Reserved.
  
 This is part of the Gaussian(R) 16 program.  It is based on
 the Gaussian(R) 09 system (copyright 2009, Gaussian, Inc.),
 the Gaussian(R) 03 system (copyright 2003, Gaussian, Inc.),
 the Gaussian(R) 98 system (copyright 1998, Gaussian, Inc.),
 the Gaussian(R) 94 system (copyright 1995, Gaussian, Inc.),
 the Gaussian 92(TM) system (copyright 1992, Gaussian, Inc.),
 the Gaussian 90(TM) system (copyright 1990, Gaussian, Inc.),
 the Gaussian 88(TM) system (copyright 1988, Gaussian, Inc.),
 the Gaussian 86(TM) system (copyright 1986, Carnegie Mellon
 University), and the Gaussian 82(TM) system (copyright 1983,
 Carnegie Mellon University). Gaussian is a federally registered
 trademark of Gaussian, Inc.
  
 This software contains proprietary and confidential information,
 including trade secrets, belonging to Gaussian, Inc.
  
 This software is provided under written license and may be
 used, copied, transmitted, or stored only in accord with that
 written license.
  
 The following legend is applicable only to US Government
 contracts under FAR:
  
                    RESTRICTED RIGHTS LEGEND
  
 Use, reproduction and disclosure by the US Government is
 subject to restrictions as set forth in subparagraphs (a)
 and (c) of the Commercial Computer Software - Restricted
 Rights clause in FAR 52.227-19.
  
 Gaussian, Inc.
 340 Quinnipiac St., Bldg. 40, Wallingford CT 06492
  
  
 ---------------------------------------------------------------
 Warning -- This program may not be used in any manner that
 competes with the business of Gaussian, Inc. or will provide
 assistance to any competitor of Gaussian, Inc.  The licensee
 of this program is prohibited from giving any competitor of
 Gaussian, Inc. access to this program.  By using this program,
 the user acknowledges that Gaussian, Inc. is engaged in the
 business of creating and licensing software in the field of
 computational chemistry and represents and warrants to the
 licensee that it is not a competitor of Gaussian, Inc. and that
 it will not use this program in any manner prohibited above.
 ---------------------------------------------------------------
  

 Cite this work as:
 Gaussian 16, Revision A.03,
 M. J. Frisch, G. W. Trucks, H. B. Schlegel, G. E. Scuseria, 
 M. A. Robb, J. R. Cheeseman, G. Scalmani, V. Barone, 
 G. A. Petersson, H. Nakatsuji, X. Li, M. Caricato, A. V. Marenich, 
 J. Bloino, B. G. Janesko, R. Gomperts, B. Mennucci, H. P. Hratchian, 
 J. V. Ortiz, A. F. Izmaylov, J. L. Sonnenberg, D. Williams-Young, 
 F. Ding, F. Lipparini, F. Egidi, J. Goings, B. Peng, A. Petrone, 
 T. Henderson, D. Ranasinghe, V. G. Zakrzewski, J. Gao, N. Rega, 
 G. Zheng, W. Liang, M. Hada, M. Ehara, K. Toyota, R. Fukuda, 
 J. Hasegawa, M. Ishida, T. Nakajima, Y. Honda, O. Kitao, H. Nakai, 
 T. Vreven, K. Throssell, J. A. Montgomery, Jr., J. E. Peralta, 
 F. Ogliaro, M. J. Bearpark, J. J. Heyd, E. N. Brothers, K. N. Kudin, 
 V. N. Staroverov, T. A. Keith, R. Kobayashi, J. Normand, 
 K. Raghavachari, A. P. Rendell, J. C. Burant, S. S. Iyengar, 
 J. Tomasi, M. Cossi, J. M. Millam, M. Klene, C. Adamo, R. Cammi, 
 J. W. Ochterski, R. L. Martin, K. Morokuma, O. Farkas, 
 J. B. Foresman, and D. J. Fox, Gaussian, Inc., Wallingford CT, 2016.
 
 ******************************************
 Gaussian 16:  EM64L-G16RevA.03 25-Dec-2016
                11-Mar-2019 
 ******************************************
 %nprocshared=20
 Will use up to   20 processors via shared memory.
 %mem=5GB
 ----------------------------------------------------------------------
 #p m062x/6-311+g(2df,2p) opt=(calcfc,verytight,gdiis,maxcycles=900) fr
 eq iop(7/33=1,2/16=3)
 ----------------------------------------------------------------------

 Warning!  Use of Opt=GDIIS is deprecated since it is seldom a good choice.

 1/6=900,7=1,10=4,18=20,19=11,26=3,38=1/1,3;
 2/9=110,12=2,16=3,17=6,18=5,40=1/2;
 3/5=4,6=6,7=214,11=2,25=1,30=1,71=2,74=-55,140=1/1,2,3;
 4//1;
 5/5=2,38=5/2;
 8/6=4,10=90,11=11/1;
 11/6=1,8=1,9=11,15=111,16=1/1,2,10;
 10/6=1,13=1/2;
 6/7=2,8=2,9=2,10=2,28=1/1;
 7/10=1,18=20,25=1,33=1/1,2,3,16;
 1/6=900,7=1,10=4,18=20,19=11,26=3/3(2);
 2/9=110,16=3/2;
 99//99;
 2/9=110,16=3/2;
 3/5=4,6=6,7=214,11=2,25=1,30=1,71=1,74=-55/1,2,3;
 4/5=5,16=3,69=1/1;
 5/5=2,38=5/2;
 7/33=1/1,2,3,16;
 1/6=900,7=1,18=20,19=11,26=3/3(-5);
 2/9=110,16=3/2;
 6/7=2,8=2,9=2,10=2,19=2,28=1/1;
 99/9=1/99;
 Leave Link    1 at Mon Mar 11 15:42:56 2019, MaxMem=   671088640 cpu:              26.6 elap:               1.4
 (Enter /shared/centos7/gaussian/g16/l101.exe)
 ------------------------------
 Gaussian input prepared by ASE
 ------------------------------
 Symbolic Z-matrix:
 Charge =  0 Multiplicity = 2
 O                     0.4492   -0.50576  -0.05169 
 C                    -0.55741   0.47241   0.02296 
 C                     1.7369    0.04718   0.00962 
 C                    -1.88361  -0.17764  -0.01482 
 H                    -0.4308    1.05846   0.95119 
 H                    -0.45082   1.19079  -0.80488 
 H                     1.89236   0.58704   0.95038 
 H                     2.44975  -0.77096  -0.05338 
 H                     1.91139   0.73915  -0.82176 
 H                    -1.96557  -1.22575   0.22432 
 H                    -2.77518   0.4156   -0.13896 
 
 ITRead=  0  0  0  0  0  0  0  0  0  0  0
 MicOpt= -1 -1 -1 -1 -1 -1 -1 -1 -1 -1 -1
 NAtoms=     11 NQM=       11 NQMF=       0 NMMI=      0 NMMIF=      0
                NMic=       0 NMicF=      0.
                    Isotopes and Nuclear Properties:
 (Nuclear quadrupole moments (NQMom) in fm**2, nuclear magnetic moments (NMagM)
  in nuclear magnetons)

  Atom         1           2           3           4           5           6           7           8           9          10
 IAtWgt=          16          12          12          12           1           1           1           1           1           1
 AtmWgt=  15.9949146  12.0000000  12.0000000  12.0000000   1.0078250   1.0078250   1.0078250   1.0078250   1.0078250   1.0078250
 NucSpn=           0           0           0           0           1           1           1           1           1           1
 AtZEff=  -0.0000000  -0.0000000  -0.0000000  -0.0000000  -0.0000000  -0.0000000  -0.0000000  -0.0000000  -0.0000000  -0.0000000
 NQMom=    0.0000000   0.0000000   0.0000000   0.0000000   0.0000000   0.0000000   0.0000000   0.0000000   0.0000000   0.0000000
 NMagM=    0.0000000   0.0000000   0.0000000   0.0000000   2.7928460   2.7928460   2.7928460   2.7928460   2.7928460   2.7928460
 AtZNuc=   8.0000000   6.0000000   6.0000000   6.0000000   1.0000000   1.0000000   1.0000000   1.0000000   1.0000000   1.0000000

  Atom        11
 IAtWgt=           1
 AtmWgt=   1.0078250
 NucSpn=           1
 AtZEff=  -0.0000000
 NQMom=    0.0000000
 NMagM=    2.7928460
 AtZNuc=   1.0000000
 Leave Link  101 at Mon Mar 11 15:42:56 2019, MaxMem=   671088640 cpu:               5.5 elap:               0.3
 (Enter /shared/centos7/gaussian/g16/l103.exe)

 GradGradGradGradGradGradGradGradGradGradGradGradGradGradGradGradGradGrad
 Berny optimization.
 Initialization pass.
                           ----------------------------
                           !    Initial Parameters    !
                           ! (Angstroms and Degrees)  !
 --------------------------                            --------------------------
 ! Name  Definition              Value          Derivative Info.                !
 --------------------------------------------------------------------------------
 ! R1    R(1,2)                  1.4056         calculate D2E/DX2 analytically  !
 ! R2    R(1,3)                  1.4027         calculate D2E/DX2 analytically  !
 ! R3    R(2,4)                  1.4774         calculate D2E/DX2 analytically  !
 ! R4    R(2,5)                  1.105          calculate D2E/DX2 analytically  !
 ! R5    R(2,6)                  1.1012         calculate D2E/DX2 analytically  !
 ! R6    R(3,7)                  1.0957         calculate D2E/DX2 analytically  !
 ! R7    R(3,8)                  1.087          calculate D2E/DX2 analytically  !
 ! R8    R(3,9)                  1.0957         calculate D2E/DX2 analytically  !
 ! R9    R(4,10)                 1.0782         calculate D2E/DX2 analytically  !
 ! R10   R(4,11)                 1.0781         calculate D2E/DX2 analytically  !
 ! A1    A(2,1,3)              112.3824         calculate D2E/DX2 analytically  !
 ! A2    A(1,2,4)              109.5906         calculate D2E/DX2 analytically  !
 ! A3    A(1,2,5)              109.3677         calculate D2E/DX2 analytically  !
 ! A4    A(1,2,6)              110.1652         calculate D2E/DX2 analytically  !
 ! A5    A(4,2,5)              110.9576         calculate D2E/DX2 analytically  !
 ! A6    A(4,2,6)              110.7739         calculate D2E/DX2 analytically  !
 ! A7    A(5,2,6)              105.9263         calculate D2E/DX2 analytically  !
 ! A8    A(1,3,7)              111.2213         calculate D2E/DX2 analytically  !
 ! A9    A(1,3,8)              107.6266         calculate D2E/DX2 analytically  !
 ! A10   A(1,3,9)              111.2215         calculate D2E/DX2 analytically  !
 ! A11   A(7,3,8)              109.1211         calculate D2E/DX2 analytically  !
 ! A12   A(7,3,9)              108.525          calculate D2E/DX2 analytically  !
 ! A13   A(8,3,9)              109.0832         calculate D2E/DX2 analytically  !
 ! A14   A(2,4,10)             119.3592         calculate D2E/DX2 analytically  !
 ! A15   A(2,4,11)             120.2106         calculate D2E/DX2 analytically  !
 ! A16   A(10,4,11)            119.8425         calculate D2E/DX2 analytically  !
 ! D1    D(3,1,2,4)           -178.6727         calculate D2E/DX2 analytically  !
 ! D2    D(3,1,2,5)            -56.8337         calculate D2E/DX2 analytically  !
 ! D3    D(3,1,2,6)             59.203          calculate D2E/DX2 analytically  !
 ! D4    D(2,1,3,7)             60.4809         calculate D2E/DX2 analytically  !
 ! D5    D(2,1,3,8)            179.9583         calculate D2E/DX2 analytically  !
 ! D6    D(2,1,3,9)            -60.6105         calculate D2E/DX2 analytically  !
 ! D7    D(1,2,4,10)            19.3576         calculate D2E/DX2 analytically  !
 ! D8    D(1,2,4,11)          -169.445          calculate D2E/DX2 analytically  !
 ! D9    D(5,2,4,10)          -101.5234         calculate D2E/DX2 analytically  !
 ! D10   D(5,2,4,11)            69.674          calculate D2E/DX2 analytically  !
 ! D11   D(6,2,4,10)           141.1175         calculate D2E/DX2 analytically  !
 ! D12   D(6,2,4,11)           -47.6851         calculate D2E/DX2 analytically  !
 --------------------------------------------------------------------------------
 Trust Radius=3.00D-01 FncErr=1.00D-07 GrdErr=1.00D-06 EigMax=2.50D+02 EigMin=1.00D-04
 Number of steps in this run=    100 maximum allowed number of steps=    100.
 GradGradGradGradGradGradGradGradGradGradGradGradGradGradGradGradGradGrad

 Leave Link  103 at Mon Mar 11 15:42:56 2019, MaxMem=   671088640 cpu:               0.1 elap:               0.0
 (Enter /shared/centos7/gaussian/g16/l202.exe)
                          Input orientation:                          
 ---------------------------------------------------------------------
 Center     Atomic      Atomic             Coordinates (Angstroms)
 Number     Number       Type             X           Y           Z
 ---------------------------------------------------------------------
      1          8           0        0.449200   -0.505755   -0.051685
      2          6           0       -0.557413    0.472411    0.022960
      3          6           0        1.736903    0.047179    0.009622
      4          6           0       -1.883612   -0.177639   -0.014818
      5          1           0       -0.430798    1.058458    0.951185
      6          1           0       -0.450820    1.190790   -0.804880
      7          1           0        1.892357    0.587039    0.950375
      8          1           0        2.449752   -0.770955   -0.053382
      9          1           0        1.911387    0.739149   -0.821763
     10          1           0       -1.965566   -1.225745    0.224323
     11          1           0       -2.775175    0.415597   -0.138963
 ---------------------------------------------------------------------
                    Distance matrix (angstroms):
                    1          2          3          4          5
     1  O    0.000000
     2  C    1.405578   0.000000
     3  C    1.402738   2.333428   0.000000
     4  C    2.356063   1.477429   3.627571   0.000000
     5  H    2.055944   1.105027   2.570633   2.138169   0.000000
     6  H    2.062911   1.101249   2.599498   2.133000   1.761158
     7  H    2.069064   2.621948   1.095733   3.971684   2.370503
     8  H    2.018054   3.254970   1.086953   4.373963   3.557172
     9  H    2.069009   2.622914   1.095659   3.986688   2.954849
    10  H    2.534889   2.215215   3.921060   1.078161   2.846300
    11  H    3.354564   2.224391   4.529532   1.078066   2.664169
                    6          7          8          9         10
     6  H    0.000000
     7  H    2.989300   0.000000
     8  H    3.581412   1.778304   0.000000
     9  H    2.405054   1.778756   1.777825   0.000000
    10  H    3.032055   4.323992   4.447357   4.470556   0.000000
    11  H    2.539094   4.796030   5.358646   4.747080   1.865864
                   11
    11  H    0.000000
 Stoichiometry    C3H7O(2)
 Framework group  C1[X(C3H7O)]
 Deg. of freedom    27
 Full point group                 C1      NOp   1
 Largest Abelian subgroup         C1      NOp   1
 Largest concise Abelian subgroup C1      NOp   1
                         Standard orientation:                         
 ---------------------------------------------------------------------
 Center     Atomic      Atomic             Coordinates (Angstroms)
 Number     Number       Type             X           Y           Z
 ---------------------------------------------------------------------
      1          8           0        0.449200   -0.505755   -0.051685
      2          6           0       -0.557413    0.472411    0.022960
      3          6           0        1.736903    0.047179    0.009622
      4          6           0       -1.883612   -0.177639   -0.014818
      5          1           0       -0.430798    1.058458    0.951185
      6          1           0       -0.450820    1.190790   -0.804880
      7          1           0        1.892357    0.587039    0.950375
      8          1           0        2.449752   -0.770955   -0.053382
      9          1           0        1.911387    0.739149   -0.821763
     10          1           0       -1.965566   -1.225745    0.224323
     11          1           0       -2.775175    0.415597   -0.138963
 ---------------------------------------------------------------------
 Rotational constants (GHZ):          31.3443408           4.4178803           4.0764885
 Leave Link  202 at Mon Mar 11 15:42:56 2019, MaxMem=   671088640 cpu:               0.2 elap:               0.0
 (Enter /shared/centos7/gaussian/g16/l301.exe)
 Standard basis: 6-311+G(2df,2p) (5D, 7F)
 Ernie: Thresh=  0.10000D-02 Tol=  0.10000D-05 Strict=F.
 There are   219 symmetry adapted cartesian basis functions of A   symmetry.
 There are   199 symmetry adapted basis functions of A   symmetry.
   199 basis functions,   285 primitive gaussians,   219 cartesian basis functions
    17 alpha electrons       16 beta electrons
       nuclear repulsion energy       126.4067715291 Hartrees.
 IExCor= 4336 DFT=T Ex+Corr=M062X ExCW=0 ScaHFX=  0.540000
 ScaDFX=  1.000000  1.000000  1.000000  1.000000 ScalE2=  1.000000  1.000000
 IRadAn=      5 IRanWt=     -1 IRanGd=            0 ICorTp=0 IEmpDi=  4
 NAtoms=   11 NActive=   11 NUniq=   11 SFac= 1.00D+00 NAtFMM=   60 NAOKFM=F Big=F
 Integral buffers will be    131072 words long.
 Raffenetti 2 integral format.
 Two-electron integral symmetry is turned on.
 Leave Link  301 at Mon Mar 11 15:42:57 2019, MaxMem=   671088640 cpu:               1.1 elap:               0.1
 (Enter /shared/centos7/gaussian/g16/l302.exe)
 NPDir=0 NMtPBC=     1 NCelOv=     1 NCel=       1 NClECP=     1 NCelD=      1
         NCelK=      1 NCelE2=     1 NClLst=     1 CellRange=     0.0.
 One-electron integrals computed using PRISM.
 One-electron integral symmetry used in STVInt
 NBasis=   199 RedAO= T EigKep=  8.53D-05  NBF=   199
 NBsUse=   199 1.00D-06 EigRej= -1.00D+00 NBFU=   199
 Precomputing XC quadrature grid using
 IXCGrd= 4 IRadAn=           5 IRanWt=          -1 IRanGd=           0 AccXCQ= 0.00D+00.
 Generated NRdTot=       0 NPtTot=           0 NUsed=           0 NTot=          32
 NSgBfM=   219   219   219   219   219 MxSgAt=    11 MxSgA2=    11.
 Leave Link  302 at Mon Mar 11 15:42:57 2019, MaxMem=   671088640 cpu:               5.5 elap:               0.4
 (Enter /shared/centos7/gaussian/g16/l303.exe)
 DipDrv:  MaxL=1.
 Leave Link  303 at Mon Mar 11 15:42:57 2019, MaxMem=   671088640 cpu:               0.5 elap:               0.0
 (Enter /shared/centos7/gaussian/g16/l401.exe)
 ExpMin= 4.38D-02 ExpMax= 8.59D+03 ExpMxC= 1.30D+03 IAcc=3 IRadAn=         5 AccDes= 0.00D+00
 Harris functional with IExCor= 1009 and IRadAn=       5 diagonalized for initial guess.
 HarFok:  IExCor= 1009 AccDes= 0.00D+00 IRadAn=         5 IDoV= 1 UseB2=F ITyADJ=14
 ICtDFT=  3500011 ScaDFX=  1.000000  1.000000  1.000000  1.000000
 FoFCou: FMM=F IPFlag=           0 FMFlag=      100000 FMFlg1=           0
         NFxFlg=           0 DoJE=T BraDBF=F KetDBF=T FulRan=T
         wScrn=  0.000000 ICntrl=       500 IOpCl=  0 I1Cent=   200000004 NGrid=           0
         NMat0=    1 NMatS0=      1 NMatT0=    0 NMatD0=    1 NMtDS0=    0 NMtDT0=    0
 Petite list used in FoFCou.
 Harris En= -193.557517174915    
 JPrj=0 DoOrth=F DoCkMO=F.
 Initial guess <Sx>= 0.0000 <Sy>= 0.0000 <Sz>= 0.5000 <S**2>= 0.7500 S= 0.5000
 Leave Link  401 at Mon Mar 11 15:42:58 2019, MaxMem=   671088640 cpu:              13.7 elap:               0.7
 (Enter /shared/centos7/gaussian/g16/l502.exe)
 Keep R1 and R2 ints in memory in canonical form, NReq=416958841.
 FoFCou: FMM=F IPFlag=           0 FMFlag=           0 FMFlg1=           0
         NFxFlg=           0 DoJE=F BraDBF=F KetDBF=F FulRan=T
         wScrn=  0.000000 ICntrl=       600 IOpCl=  0 I1Cent=           0 NGrid=           0
         NMat0=    1 NMatS0=  19900 NMatT0=    0 NMatD0=    1 NMtDS0=    0 NMtDT0=    0
 Symmetry not used in FoFCou.
 Two-electron integral symmetry not used.
 UHF open shell SCF:
 Using DIIS extrapolation, IDIIS=  1040.
 NGot=   671088640 LenX=   274956345 LenY=   274907943
 Requested convergence on RMS density matrix=1.00D-08 within 128 cycles.
 Requested convergence on MAX density matrix=1.00D-06.
 Requested convergence on             energy=1.00D-06.
 No special actions if energy rises.

 Cycle   1  Pass 1  IDiag  1:
 E= -193.523128604880    
 DIIS: error= 2.20D-02 at cycle   1 NSaved=   1.
 NSaved= 1 IEnMin= 1 EnMin= -193.523128604880     IErMin= 1 ErrMin= 2.20D-02
 ErrMax= 2.20D-02  0.00D+00 EMaxC= 1.00D-01 BMatC= 5.72D-01 BMatP= 5.72D-01
 IDIUse=3 WtCom= 7.80D-01 WtEn= 2.20D-01
 Coeff-Com:  0.100D+01
 Coeff-En:   0.100D+01
 Coeff:      0.100D+01
 Gap=     0.279 Goal=   None    Shift=    0.000
 Gap=     0.335 Goal=   None    Shift=    0.000
 GapD=    0.279 DampG=1.000 DampE=0.500 DampFc=0.5000 IDamp=-1.
 Damping current iteration by 5.00D-01
 RMSDP=2.24D-03 MaxDP=9.37D-02              OVMax= 1.40D-01

 Cycle   2  Pass 1  IDiag  1:
 E= -193.585031796815     Delta-E=       -0.061903191934 Rises=F Damp=T
 DIIS: error= 4.97D-03 at cycle   2 NSaved=   2.
 NSaved= 2 IEnMin= 2 EnMin= -193.585031796815     IErMin= 2 ErrMin= 4.97D-03
 ErrMax= 4.97D-03  0.00D+00 EMaxC= 1.00D-01 BMatC= 4.82D-02 BMatP= 5.72D-01
 IDIUse=3 WtCom= 9.50D-01 WtEn= 4.97D-02
 Coeff-Com: -0.169D+00 0.117D+01
 Coeff-En:   0.000D+00 0.100D+01
 Coeff:     -0.161D+00 0.116D+01
 Gap=     0.281 Goal=   None    Shift=    0.000
 Gap=     0.372 Goal=   None    Shift=    0.000
 RMSDP=6.76D-04 MaxDP=3.01D-02 DE=-6.19D-02 OVMax= 7.53D-02

 Cycle   3  Pass 1  IDiag  1:
 E= -193.640776288079     Delta-E=       -0.055744491265 Rises=F Damp=F
 DIIS: error= 2.99D-03 at cycle   3 NSaved=   3.
 NSaved= 3 IEnMin= 3 EnMin= -193.640776288079     IErMin= 3 ErrMin= 2.99D-03
 ErrMax= 2.99D-03  0.00D+00 EMaxC= 1.00D-01 BMatC= 1.15D-02 BMatP= 4.82D-02
 IDIUse=3 WtCom= 9.70D-01 WtEn= 2.99D-02
 Coeff-Com: -0.110D+00 0.378D+00 0.732D+00
 Coeff-En:   0.000D+00 0.000D+00 0.100D+01
 Coeff:     -0.106D+00 0.366D+00 0.740D+00
 Gap=     0.283 Goal=   None    Shift=    0.000
 Gap=     0.302 Goal=   None    Shift=    0.000
 RMSDP=1.95D-04 MaxDP=1.07D-02 DE=-5.57D-02 OVMax= 1.81D-02

 Cycle   4  Pass 1  IDiag  1:
 E= -193.642488725303     Delta-E=       -0.001712437224 Rises=F Damp=F
 DIIS: error= 1.58D-03 at cycle   4 NSaved=   4.
 NSaved= 4 IEnMin= 4 EnMin= -193.642488725303     IErMin= 4 ErrMin= 1.58D-03
 ErrMax= 1.58D-03  0.00D+00 EMaxC= 1.00D-01 BMatC= 3.20D-03 BMatP= 1.15D-02
 IDIUse=3 WtCom= 9.84D-01 WtEn= 1.58D-02
 Coeff-Com: -0.362D-01 0.782D-01 0.378D+00 0.580D+00
 Coeff-En:   0.000D+00 0.000D+00 0.114D+00 0.886D+00
 Coeff:     -0.357D-01 0.769D-01 0.373D+00 0.585D+00
 Gap=     0.281 Goal=   None    Shift=    0.000
 Gap=     0.310 Goal=   None    Shift=    0.000
 RMSDP=7.68D-05 MaxDP=4.01D-03 DE=-1.71D-03 OVMax= 7.36D-03

 Cycle   5  Pass 1  IDiag  1:
 E= -193.643086053012     Delta-E=       -0.000597327708 Rises=F Damp=F
 DIIS: error= 4.09D-04 at cycle   5 NSaved=   5.
 NSaved= 5 IEnMin= 5 EnMin= -193.643086053012     IErMin= 5 ErrMin= 4.09D-04
 ErrMax= 4.09D-04  0.00D+00 EMaxC= 1.00D-01 BMatC= 6.91D-05 BMatP= 3.20D-03
 IDIUse=3 WtCom= 9.96D-01 WtEn= 4.09D-03
 Coeff-Com:  0.559D-02-0.220D-01-0.188D-01 0.607D-01 0.974D+00
 Coeff-En:   0.000D+00 0.000D+00 0.000D+00 0.000D+00 0.100D+01
 Coeff:      0.557D-02-0.219D-01-0.187D-01 0.605D-01 0.975D+00
 Gap=     0.282 Goal=   None    Shift=    0.000
 Gap=     0.310 Goal=   None    Shift=    0.000
 RMSDP=2.85D-05 MaxDP=1.13D-03 DE=-5.97D-04 OVMax= 4.26D-03

 Cycle   6  Pass 1  IDiag  1:
 E= -193.643122779381     Delta-E=       -0.000036726369 Rises=F Damp=F
 DIIS: error= 1.39D-04 at cycle   6 NSaved=   6.
 NSaved= 6 IEnMin= 6 EnMin= -193.643122779381     IErMin= 6 ErrMin= 1.39D-04
 ErrMax= 1.39D-04  0.00D+00 EMaxC= 1.00D-01 BMatC= 9.03D-06 BMatP= 6.91D-05
 IDIUse=3 WtCom= 9.99D-01 WtEn= 1.39D-03
 Coeff-Com:  0.505D-02-0.111D-01-0.550D-01-0.822D-01 0.675D-02 0.114D+01
 Coeff-En:   0.000D+00 0.000D+00 0.000D+00 0.000D+00 0.000D+00 0.100D+01
 Coeff:      0.504D-02-0.111D-01-0.549D-01-0.821D-01 0.674D-02 0.114D+01
 Gap=     0.283 Goal=   None    Shift=    0.000
 Gap=     0.310 Goal=   None    Shift=    0.000
 RMSDP=1.57D-05 MaxDP=7.73D-04 DE=-3.67D-05 OVMax= 2.23D-03

 Cycle   7  Pass 1  IDiag  1:
 E= -193.643129034654     Delta-E=       -0.000006255273 Rises=F Damp=F
 DIIS: error= 5.09D-05 at cycle   7 NSaved=   7.
 NSaved= 7 IEnMin= 7 EnMin= -193.643129034654     IErMin= 7 ErrMin= 5.09D-05
 ErrMax= 5.09D-05  0.00D+00 EMaxC= 1.00D-01 BMatC= 1.93D-06 BMatP= 9.03D-06
 IDIUse=1 WtCom= 1.00D+00 WtEn= 0.00D+00
 Coeff-Com:  0.119D-02-0.181D-02-0.186D-01-0.374D-01-0.850D-01 0.454D+00
 Coeff-Com:  0.688D+00
 Coeff:      0.119D-02-0.181D-02-0.186D-01-0.374D-01-0.850D-01 0.454D+00
 Coeff:      0.688D+00
 Gap=     0.283 Goal=   None    Shift=    0.000
 Gap=     0.310 Goal=   None    Shift=    0.000
 RMSDP=3.38D-06 MaxDP=2.15D-04 DE=-6.26D-06 OVMax= 3.42D-04

 Cycle   8  Pass 1  IDiag  1:
 E= -193.643129582107     Delta-E=       -0.000000547454 Rises=F Damp=F
 DIIS: error= 1.39D-05 at cycle   8 NSaved=   8.
 NSaved= 8 IEnMin= 8 EnMin= -193.643129582107     IErMin= 8 ErrMin= 1.39D-05
 ErrMax= 1.39D-05  0.00D+00 EMaxC= 1.00D-01 BMatC= 8.45D-08 BMatP= 1.93D-06
 IDIUse=1 WtCom= 1.00D+00 WtEn= 0.00D+00
 Coeff-Com: -0.593D-03 0.130D-02 0.541D-02 0.621D-02-0.414D-02-0.102D+00
 Coeff-Com:  0.405D-01 0.105D+01
 Coeff:     -0.593D-03 0.130D-02 0.541D-02 0.621D-02-0.414D-02-0.102D+00
 Coeff:      0.405D-01 0.105D+01
 Gap=     0.283 Goal=   None    Shift=    0.000
 Gap=     0.310 Goal=   None    Shift=    0.000
 RMSDP=1.40D-06 MaxDP=5.42D-05 DE=-5.47D-07 OVMax= 8.87D-05

 Cycle   9  Pass 1  IDiag  1:
 E= -193.643129619384     Delta-E=       -0.000000037277 Rises=F Damp=F
 DIIS: error= 3.45D-06 at cycle   9 NSaved=   9.
 NSaved= 9 IEnMin= 9 EnMin= -193.643129619384     IErMin= 9 ErrMin= 3.45D-06
 ErrMax= 3.45D-06  0.00D+00 EMaxC= 1.00D-01 BMatC= 5.99D-09 BMatP= 8.45D-08
 IDIUse=1 WtCom= 1.00D+00 WtEn= 0.00D+00
 Coeff-Com: -0.156D-03 0.314D-03 0.191D-02 0.313D-02 0.455D-02-0.442D-01
 Coeff-Com: -0.399D-01 0.167D+00 0.907D+00
 Coeff:     -0.156D-03 0.314D-03 0.191D-02 0.313D-02 0.455D-02-0.442D-01
 Coeff:     -0.399D-01 0.167D+00 0.907D+00
 Gap=     0.283 Goal=   None    Shift=    0.000
 Gap=     0.310 Goal=   None    Shift=    0.000
 RMSDP=3.33D-07 MaxDP=1.23D-05 DE=-3.73D-08 OVMax= 2.36D-05

 Cycle  10  Pass 1  IDiag  1:
 E= -193.643129621886     Delta-E=       -0.000000002502 Rises=F Damp=F
 DIIS: error= 1.48D-06 at cycle  10 NSaved=  10.
 NSaved=10 IEnMin=10 EnMin= -193.643129621886     IErMin=10 ErrMin= 1.48D-06
 ErrMax= 1.48D-06  0.00D+00 EMaxC= 1.00D-01 BMatC= 9.84D-10 BMatP= 5.99D-09
 IDIUse=1 WtCom= 1.00D+00 WtEn= 0.00D+00
 Coeff-Com:  0.184D-04-0.431D-04-0.236D-04 0.242D-03 0.136D-02-0.149D-02
 Coeff-Com: -0.142D-01-0.555D-01 0.247D+00 0.823D+00
 Coeff:      0.184D-04-0.431D-04-0.236D-04 0.242D-03 0.136D-02-0.149D-02
 Coeff:     -0.142D-01-0.555D-01 0.247D+00 0.823D+00
 Gap=     0.283 Goal=   None    Shift=    0.000
 Gap=     0.310 Goal=   None    Shift=    0.000
 RMSDP=1.31D-07 MaxDP=5.75D-06 DE=-2.50D-09 OVMax= 7.55D-06

 Cycle  11  Pass 1  IDiag  1:
 E= -193.643129622222     Delta-E=       -0.000000000336 Rises=F Damp=F
 DIIS: error= 4.32D-07 at cycle  11 NSaved=  11.
 NSaved=11 IEnMin=11 EnMin= -193.643129622222     IErMin=11 ErrMin= 4.32D-07
 ErrMax= 4.32D-07  0.00D+00 EMaxC= 1.00D-01 BMatC= 1.10D-10 BMatP= 9.84D-10
 IDIUse=1 WtCom= 1.00D+00 WtEn= 0.00D+00
 Coeff-Com:  0.263D-04-0.554D-04-0.260D-03-0.327D-03-0.201D-03 0.545D-02
 Coeff-Com:  0.752D-03-0.384D-01-0.419D-01 0.235D+00 0.840D+00
 Coeff:      0.263D-04-0.554D-04-0.260D-03-0.327D-03-0.201D-03 0.545D-02
 Coeff:      0.752D-03-0.384D-01-0.419D-01 0.235D+00 0.840D+00
 Gap=     0.283 Goal=   None    Shift=    0.000
 Gap=     0.310 Goal=   None    Shift=    0.000
 RMSDP=5.95D-08 MaxDP=3.75D-06 DE=-3.36D-10 OVMax= 4.09D-06

 Cycle  12  Pass 1  IDiag  1:
 E= -193.643129622268     Delta-E=       -0.000000000046 Rises=F Damp=F
 DIIS: error= 8.10D-08 at cycle  12 NSaved=  12.
 NSaved=12 IEnMin=12 EnMin= -193.643129622268     IErMin=12 ErrMin= 8.10D-08
 ErrMax= 8.10D-08  0.00D+00 EMaxC= 1.00D-01 BMatC= 4.50D-12 BMatP= 1.10D-10
 IDIUse=1 WtCom= 1.00D+00 WtEn= 0.00D+00
 Coeff-Com: -0.257D-05 0.518D-05 0.105D-04-0.118D-05-0.493D-04-0.879D-04
 Coeff-Com:  0.813D-03 0.499D-02-0.163D-01-0.717D-01-0.354D-01 0.112D+01
 Coeff:     -0.257D-05 0.518D-05 0.105D-04-0.118D-05-0.493D-04-0.879D-04
 Coeff:      0.813D-03 0.499D-02-0.163D-01-0.717D-01-0.354D-01 0.112D+01
 Gap=     0.283 Goal=   None    Shift=    0.000
 Gap=     0.310 Goal=   None    Shift=    0.000
 RMSDP=2.59D-08 MaxDP=1.94D-06 DE=-4.63D-11 OVMax= 1.22D-06

 Cycle  13  Pass 1  IDiag  1:
 E= -193.643129622270     Delta-E=       -0.000000000001 Rises=F Damp=F
 DIIS: error= 2.51D-08 at cycle  13 NSaved=  13.
 NSaved=13 IEnMin=13 EnMin= -193.643129622270     IErMin=13 ErrMin= 2.51D-08
 ErrMax= 2.51D-08  0.00D+00 EMaxC= 1.00D-01 BMatC= 3.17D-13 BMatP= 4.50D-12
 IDIUse=1 WtCom= 1.00D+00 WtEn= 0.00D+00
 Coeff-Com: -0.136D-05 0.287D-05 0.122D-04 0.149D-04 0.698D-05-0.276D-03
 Coeff-Com:  0.553D-04 0.207D-02 0.168D-02-0.121D-01-0.524D-01-0.421D-02
 Coeff-Com:  0.107D+01
 Coeff:     -0.136D-05 0.287D-05 0.122D-04 0.149D-04 0.698D-05-0.276D-03
 Coeff:      0.553D-04 0.207D-02 0.168D-02-0.121D-01-0.524D-01-0.421D-02
 Coeff:      0.107D+01
 Gap=     0.283 Goal=   None    Shift=    0.000
 Gap=     0.310 Goal=   None    Shift=    0.000
 RMSDP=7.39D-09 MaxDP=5.63D-07 DE=-1.48D-12 OVMax= 3.50D-07

 SCF Done:  E(UM062X) =  -193.643129622     A.U. after   13 cycles
            NFock= 13  Conv=0.74D-08     -V/T= 2.0037
 <Sx>= 0.0000 <Sy>= 0.0000 <Sz>= 0.5000 <S**2>= 0.7552 S= 0.5026
 <L.S>= 0.000000000000E+00
 KE= 1.929230354525D+02 PE=-7.047346440281D+02 EE= 1.917617074242D+02
 Annihilation of the first spin contaminant:
 S**2 before annihilation     0.7552,   after     0.7500
 Leave Link  502 at Mon Mar 11 15:43:26 2019, MaxMem=   671088640 cpu:             405.8 elap:              28.4
 (Enter /shared/centos7/gaussian/g16/l801.exe)
 DoSCS=F DFT=T ScalE2(SS,OS)=  1.000000  1.000000
 Range of M.O.s used for correlation:     1   199
 NBasis=   199 NAE=    17 NBE=    16 NFC=     0 NFV=     0
 NROrb=    199 NOA=    17 NOB=    16 NVA=   182 NVB=   183

 **** Warning!!: The largest alpha MO coefficient is  0.40093096D+02


 **** Warning!!: The largest beta MO coefficient is  0.43532808D+02

 Leave Link  801 at Mon Mar 11 15:43:26 2019, MaxMem=   671088640 cpu:               0.5 elap:               0.0
 (Enter /shared/centos7/gaussian/g16/l1101.exe)
 Using compressed storage, NAtomX=    11.
 Will process     12 centers per pass.
 Leave Link 1101 at Mon Mar 11 15:43:27 2019, MaxMem=   671088640 cpu:               5.6 elap:               0.3
 (Enter /shared/centos7/gaussian/g16/l1102.exe)
 Symmetrizing basis deriv contribution to polar:
 IMax=3 JMax=2 DiffMx= 0.00D+00
 Leave Link 1102 at Mon Mar 11 15:43:27 2019, MaxMem=   671088640 cpu:               0.4 elap:               0.0
 (Enter /shared/centos7/gaussian/g16/l1110.exe)
 Forming Gx(P) for the SCF density, NAtomX=    11.
 Integral derivatives from FoFJK, PRISM(SPDF).
 Do as many integral derivatives as possible in FoFJK.
 G2DrvN: MDV=     671087712.
 G2DrvN: will do    12 centers at a time, making    1 passes.
 Calling FoFCou, ICntrl=  3107 FMM=F I1Cent=   0 AccDes= 0.00D+00.
 FoFJK:  IHMeth= 1 ICntrl=    3107 DoSepK=F KAlg= 0 I1Cent=           0 FoldK=F
 IRaf=         0 NMat=       1 IRICut=       1 DoRegI=T DoRafI=F ISym2E= 0 IDoP0=0 IntGTp=1.
 FoFCou: FMM=F IPFlag=           0 FMFlag=      100000 FMFlg1=           0
         NFxFlg=           0 DoJE=F BraDBF=F KetDBF=F FulRan=T
         wScrn=  0.000000 ICntrl=      3107 IOpCl=  1 I1Cent=           0 NGrid=           0
         NMat0=    1 NMatS0=      1 NMatT0=    0 NMatD0=    1 NMtDS0=    0 NMtDT0=    0
 Symmetry not used in FoFCou.
 End of G2Drv F.D. properties file   721 does not exist.
 End of G2Drv F.D. properties file   722 does not exist.
 End of G2Drv F.D. properties file   788 does not exist.
 Leave Link 1110 at Mon Mar 11 15:44:07 2019, MaxMem=   671088640 cpu:             795.8 elap:              39.8
 (Enter /shared/centos7/gaussian/g16/l1002.exe)
 Minotr:  UHF open shell wavefunction.
          IDoAtm=11111111111
          Direct CPHF calculation.
          Differentiating once with respect to nuclear coordinates.
          Requested convergence is 1.0D-08 RMS, and 1.0D-07 maximum.
          Secondary convergence is 1.0D-12 RMS, and 1.0D-12 maximum.
          NewPWx=T KeepS1=F KeepF1=F KeepIn=T MapXYZ=F SortEE=F KeepMc=T.
         3349 words used for storage of precomputed grid.
 Keep R1 and R2 ints in memory in canonical form, NReq=416899978.
 FoFCou: FMM=F IPFlag=           0 FMFlag=           0 FMFlg1=           0
         NFxFlg=           0 DoJE=F BraDBF=F KetDBF=F FulRan=T
         wScrn=  0.000000 ICntrl=       600 IOpCl=  0 I1Cent=           0 NGrid=           0
         NMat0=    1 NMatS0=  19900 NMatT0=    0 NMatD0=    1 NMtDS0=    0 NMtDT0=    0
 Symmetry not used in FoFCou.
 Two-electron integral symmetry not used.
          MDV=     671088640 using IRadAn=       1.
          Solving linear equations simultaneously, MaxMat=       0.
          There are    36 degrees of freedom in the 1st order CPHF.  IDoFFX=6 NUNeed=     0.
     30 vectors produced by pass  0 Test12= 1.67D-14 2.78D-09 XBig12= 1.34D-01 9.03D-02.
 AX will form    30 AO Fock derivatives at one time.
     30 vectors produced by pass  1 Test12= 1.67D-14 2.78D-09 XBig12= 5.30D-03 1.45D-02.
     30 vectors produced by pass  2 Test12= 1.67D-14 2.78D-09 XBig12= 1.97D-04 2.57D-03.
     30 vectors produced by pass  3 Test12= 1.67D-14 2.78D-09 XBig12= 2.45D-06 2.64D-04.
     30 vectors produced by pass  4 Test12= 1.67D-14 2.78D-09 XBig12= 3.15D-08 3.05D-05.
     30 vectors produced by pass  5 Test12= 1.67D-14 2.78D-09 XBig12= 3.53D-10 1.93D-06.
     28 vectors produced by pass  6 Test12= 1.67D-14 2.78D-09 XBig12= 2.87D-12 1.71D-07.
     11 vectors produced by pass  7 Test12= 1.67D-14 2.78D-09 XBig12= 2.15D-14 1.47D-08.
 InvSVY:  IOpt=1 It=  1 EMax= 1.78D-15
 Solved reduced A of dimension   219 with    30 vectors.
 End of Minotr F.D. properties file   721 does not exist.
 End of Minotr F.D. properties file   722 does not exist.
 End of Minotr F.D. properties file   788 does not exist.
 Leave Link 1002 at Mon Mar 11 15:44:55 2019, MaxMem=   671088640 cpu:             970.8 elap:              48.6
 (Enter /shared/centos7/gaussian/g16/l601.exe)
 Copying SCF densities to generalized density rwf, IOpCl= 1 IROHF=0.

 **********************************************************************

            Population analysis using the SCF density.

 **********************************************************************

 Orbital symmetries:
 Alpha Orbitals:
       Occupied  (A) (A) (A) (A) (A) (A) (A) (A) (A) (A) (A) (A)
                 (A) (A) (A) (A) (A)
       Virtual   (A) (A) (A) (A) (A) (A) (A) (A) (A) (A) (A) (A)
                 (A) (A) (A) (A) (A) (A) (A) (A) (A) (A) (A) (A)
                 (A) (A) (A) (A) (A) (A) (A) (A) (A) (A) (A) (A)
                 (A) (A) (A) (A) (A) (A) (A) (A) (A) (A) (A) (A)
                 (A) (A) (A) (A) (A) (A) (A) (A) (A) (A) (A) (A)
                 (A) (A) (A) (A) (A) (A) (A) (A) (A) (A) (A) (A)
                 (A) (A) (A) (A) (A) (A) (A) (A) (A) (A) (A) (A)
                 (A) (A) (A) (A) (A) (A) (A) (A) (A) (A) (A) (A)
                 (A) (A) (A) (A) (A) (A) (A) (A) (A) (A) (A) (A)
                 (A) (A) (A) (A) (A) (A) (A) (A) (A) (A) (A) (A)
                 (A) (A) (A) (A) (A) (A) (A) (A) (A) (A) (A) (A)
                 (A) (A) (A) (A) (A) (A) (A) (A) (A) (A) (A) (A)
                 (A) (A) (A) (A) (A) (A) (A) (A) (A) (A) (A) (A)
                 (A) (A) (A) (A) (A) (A) (A) (A) (A) (A) (A) (A)
                 (A) (A) (A) (A) (A) (A) (A) (A) (A) (A) (A) (A)
                 (A) (A)
 Beta  Orbitals:
       Occupied  (A) (A) (A) (A) (A) (A) (A) (A) (A) (A) (A) (A)
                 (A) (A) (A) (A)
       Virtual   (A) (A) (A) (A) (A) (A) (A) (A) (A) (A) (A) (A)
                 (A) (A) (A) (A) (A) (A) (A) (A) (A) (A) (A) (A)
                 (A) (A) (A) (A) (A) (A) (A) (A) (A) (A) (A) (A)
                 (A) (A) (A) (A) (A) (A) (A) (A) (A) (A) (A) (A)
                 (A) (A) (A) (A) (A) (A) (A) (A) (A) (A) (A) (A)
                 (A) (A) (A) (A) (A) (A) (A) (A) (A) (A) (A) (A)
                 (A) (A) (A) (A) (A) (A) (A) (A) (A) (A) (A) (A)
                 (A) (A) (A) (A) (A) (A) (A) (A) (A) (A) (A) (A)
                 (A) (A) (A) (A) (A) (A) (A) (A) (A) (A) (A) (A)
                 (A) (A) (A) (A) (A) (A) (A) (A) (A) (A) (A) (A)
                 (A) (A) (A) (A) (A) (A) (A) (A) (A) (A) (A) (A)
                 (A) (A) (A) (A) (A) (A) (A) (A) (A) (A) (A) (A)
                 (A) (A) (A) (A) (A) (A) (A) (A) (A) (A) (A) (A)
                 (A) (A) (A) (A) (A) (A) (A) (A) (A) (A) (A) (A)
                 (A) (A) (A) (A) (A) (A) (A) (A) (A) (A) (A) (A)
                 (A) (A) (A)
 The electronic state is 2-A.
 Alpha  occ. eigenvalues --  -19.62685 -10.58860 -10.57680 -10.54131  -1.16581
 Alpha  occ. eigenvalues --   -0.86554  -0.76575  -0.69355  -0.57125  -0.56362
 Alpha  occ. eigenvalues --   -0.53731  -0.48362  -0.46505  -0.44398  -0.39845
 Alpha  occ. eigenvalues --   -0.34039  -0.26302
 Alpha virt. eigenvalues --    0.01990   0.03410   0.04254   0.04800   0.05530
 Alpha virt. eigenvalues --    0.06661   0.08278   0.08834   0.11074   0.11266
 Alpha virt. eigenvalues --    0.13156   0.15104   0.18921   0.19132   0.21237
 Alpha virt. eigenvalues --    0.21947   0.22193   0.22802   0.25471   0.26512
 Alpha virt. eigenvalues --    0.27070   0.28083   0.29499   0.31557   0.35374
 Alpha virt. eigenvalues --    0.37280   0.44186   0.44514   0.48028   0.49234
 Alpha virt. eigenvalues --    0.50592   0.53097   0.53843   0.54576   0.56969
 Alpha virt. eigenvalues --    0.57991   0.58457   0.59642   0.60434   0.60988
 Alpha virt. eigenvalues --    0.62308   0.64337   0.66257   0.67121   0.69267
 Alpha virt. eigenvalues --    0.75306   0.84618   0.85445   0.88150   0.88885
 Alpha virt. eigenvalues --    0.92393   0.95296   0.96488   0.99052   1.01830
 Alpha virt. eigenvalues --    1.05418   1.06552   1.07999   1.08724   1.12136
 Alpha virt. eigenvalues --    1.16322   1.17986   1.19224   1.20577   1.21674
 Alpha virt. eigenvalues --    1.25849   1.28584   1.29402   1.32469   1.33209
 Alpha virt. eigenvalues --    1.35594   1.39751   1.41808   1.42413   1.44667
 Alpha virt. eigenvalues --    1.45526   1.46708   1.47400   1.51886   1.53411
 Alpha virt. eigenvalues --    1.53983   1.59020   1.60833   1.75532   1.77279
 Alpha virt. eigenvalues --    1.99926   2.09172   2.11845   2.22615   2.35154
 Alpha virt. eigenvalues --    2.39893   2.44099   2.46521   2.49275   2.60331
 Alpha virt. eigenvalues --    2.62591   2.71294   2.74305   2.79835   2.80809
 Alpha virt. eigenvalues --    2.88756   2.94437   2.96459   2.97429   3.03074
 Alpha virt. eigenvalues --    3.05876   3.07054   3.08063   3.11629   3.13515
 Alpha virt. eigenvalues --    3.14743   3.16044   3.21199   3.22538   3.24119
 Alpha virt. eigenvalues --    3.25914   3.31346   3.34555   3.38492   3.40428
 Alpha virt. eigenvalues --    3.41837   3.44956   3.47377   3.50063   3.54125
 Alpha virt. eigenvalues --    3.57812   3.61744   3.65043   3.67426   3.72007
 Alpha virt. eigenvalues --    3.79012   3.86549   3.86753   3.88594   3.89444
 Alpha virt. eigenvalues --    3.97010   4.02313   4.06231   4.07716   4.09394
 Alpha virt. eigenvalues --    4.14080   4.15663   4.16758   4.19118   4.22018
 Alpha virt. eigenvalues --    4.24112   4.27401   4.29356   4.34922   4.38401
 Alpha virt. eigenvalues --    4.42146   4.44263   4.50310   4.53772   4.64833
 Alpha virt. eigenvalues --    4.89362   4.92089   5.18106   5.20375   5.24057
 Alpha virt. eigenvalues --    5.31772   5.46221   5.49303   5.51052   5.52308
 Alpha virt. eigenvalues --    5.58060   5.63129   5.66808   5.82849   5.87075
 Alpha virt. eigenvalues --    6.23517   6.48911   6.71933   7.18276   7.21073
 Alpha virt. eigenvalues --    7.31403   7.66641   7.76756  24.27153  24.43656
 Alpha virt. eigenvalues --   24.50847  50.16776
  Beta  occ. eigenvalues --  -19.62681 -10.58929 -10.57680 -10.53436  -1.16536
  Beta  occ. eigenvalues --   -0.85001  -0.75545  -0.67229  -0.56710  -0.55762
  Beta  occ. eigenvalues --   -0.53332  -0.47381  -0.45583  -0.43721  -0.39653
  Beta  occ. eigenvalues --   -0.33614
  Beta virt. eigenvalues --   -0.02569   0.01714   0.03030   0.04054   0.04785
  Beta virt. eigenvalues --    0.05600   0.06785   0.08408   0.08612   0.09620
  Beta virt. eigenvalues --    0.12221   0.13210   0.14218   0.18831   0.19413
  Beta virt. eigenvalues --    0.21187   0.21993   0.22504   0.23042   0.25473
  Beta virt. eigenvalues --    0.26168   0.27081   0.28578   0.29825   0.31853
  Beta virt. eigenvalues --    0.35215   0.37453   0.44130   0.44325   0.48293
  Beta virt. eigenvalues --    0.50258   0.51442   0.53435   0.53886   0.55068
  Beta virt. eigenvalues --    0.57181   0.58436   0.58610   0.60210   0.60893
  Beta virt. eigenvalues --    0.61752   0.63144   0.64778   0.66230   0.67148
  Beta virt. eigenvalues --    0.68466   0.75477   0.84350   0.84952   0.87924
  Beta virt. eigenvalues --    0.88834   0.92471   0.95076   0.95895   0.98986
  Beta virt. eigenvalues --    1.00020   1.05425   1.06574   1.07989   1.08656
  Beta virt. eigenvalues --    1.13011   1.16172   1.17968   1.19424   1.20343
  Beta virt. eigenvalues --    1.21692   1.25952   1.28826   1.29632   1.32314
  Beta virt. eigenvalues --    1.33279   1.35615   1.40158   1.41820   1.42562
  Beta virt. eigenvalues --    1.44866   1.45726   1.47277   1.47623   1.51905
  Beta virt. eigenvalues --    1.53643   1.55402   1.59341   1.61305   1.75560
  Beta virt. eigenvalues --    1.77374   2.00136   2.09329   2.11912   2.22921
  Beta virt. eigenvalues --    2.35264   2.40109   2.44269   2.47327   2.49529
  Beta virt. eigenvalues --    2.61436   2.62962   2.72446   2.78434   2.82818
  Beta virt. eigenvalues --    2.85377   2.91808   2.96944   2.98754   3.00755
  Beta virt. eigenvalues --    3.05989   3.07648   3.08385   3.09222   3.13359
  Beta virt. eigenvalues --    3.15314   3.16938   3.17886   3.22402   3.26453
  Beta virt. eigenvalues --    3.27637   3.30491   3.33546   3.34933   3.39556
  Beta virt. eigenvalues --    3.42581   3.44324   3.45927   3.50560   3.51593
  Beta virt. eigenvalues --    3.56601   3.59243   3.61979   3.65444   3.68868
  Beta virt. eigenvalues --    3.72548   3.79485   3.86629   3.88682   3.88762
  Beta virt. eigenvalues --    3.90999   3.98214   4.02762   4.07478   4.09517
  Beta virt. eigenvalues --    4.11071   4.16707   4.17163   4.17759   4.21013
  Beta virt. eigenvalues --    4.23252   4.26804   4.28985   4.30549   4.36475
  Beta virt. eigenvalues --    4.39409   4.42915   4.44704   4.50853   4.55186
  Beta virt. eigenvalues --    4.69936   4.91077   4.94237   5.20326   5.21584
  Beta virt. eigenvalues --    5.24304   5.32215   5.48549   5.50701   5.54402
  Beta virt. eigenvalues --    5.55392   5.60216   5.63158   5.67610   5.82924
  Beta virt. eigenvalues --    5.87125   6.23776   6.48986   6.71983   7.18293
  Beta virt. eigenvalues --    7.21114   7.31439   7.66696   7.76796  24.28221
  Beta virt. eigenvalues --   24.43657  24.51420  50.16770
          Condensed to atoms (all electrons):
               1          2          3          4          5          6
     1  O    8.279932   0.113458   0.127006  -0.104007  -0.058695  -0.047377
     2  C    0.113458   5.003909  -0.097706   0.345233   0.434254   0.453208
     3  C    0.127006  -0.097706   4.933793  -0.019754   0.003129   0.002519
     4  C   -0.104007   0.345233  -0.019754   5.438354  -0.055597  -0.068214
     5  H   -0.058695   0.434254   0.003129  -0.055597   0.606621  -0.064553
     6  H   -0.047377   0.453208   0.002519  -0.068214  -0.064553   0.583014
     7  H   -0.047002  -0.004133   0.435907  -0.002639   0.008909  -0.003594
     8  H   -0.055608   0.013042   0.424853   0.002640   0.000051   0.000054
     9  H   -0.047575  -0.004243   0.436942  -0.002276  -0.003972   0.007850
    10  H   -0.002369  -0.017663   0.002530   0.398240   0.001142   0.003756
    11  H    0.008648  -0.032729   0.000240   0.407834  -0.001555  -0.002116
               7          8          9         10         11
     1  O   -0.047002  -0.055608  -0.047575  -0.002369   0.008648
     2  C   -0.004133   0.013042  -0.004243  -0.017663  -0.032729
     3  C    0.435907   0.424853   0.436942   0.002530   0.000240
     4  C   -0.002639   0.002640  -0.002276   0.398240   0.407834
     5  H    0.008909   0.000051  -0.003972   0.001142  -0.001555
     6  H   -0.003594   0.000054   0.007850   0.003756  -0.002116
     7  H    0.578969  -0.025629  -0.053137  -0.000017  -0.000008
     8  H   -0.025629   0.536501  -0.025368   0.000007   0.000011
     9  H   -0.053137  -0.025368   0.579352  -0.000034   0.000017
    10  H   -0.000017   0.000007  -0.000034   0.457426  -0.021253
    11  H   -0.000008   0.000011   0.000017  -0.021253   0.476809
          Atomic-Atomic Spin Densities.
               1          2          3          4          5          6
     1  O    0.003163   0.009377   0.000129  -0.006881  -0.010462   0.005991
     2  C    0.009377  -0.045664   0.000606  -0.067523   0.036350   0.015224
     3  C    0.000129   0.000606   0.005619  -0.000719  -0.003210   0.001719
     4  C   -0.006881  -0.067523  -0.000719   1.201692  -0.043864  -0.030702
     5  H   -0.010462   0.036350  -0.003210  -0.043864   0.086564  -0.020481
     6  H    0.005991   0.015224   0.001719  -0.030702  -0.020481   0.055112
     7  H   -0.000530   0.002029   0.000193  -0.001098   0.000381  -0.000086
     8  H    0.000143   0.000024  -0.000785   0.000060   0.000004  -0.000005
     9  H    0.000043  -0.000889   0.000277   0.000306  -0.000189   0.000354
    10  H    0.001825   0.005180   0.000814  -0.007914   0.000059  -0.000016
    11  H   -0.000146   0.005004  -0.000017  -0.003387  -0.000608   0.001001
               7          8          9         10         11
     1  O   -0.000530   0.000143   0.000043   0.001825  -0.000146
     2  C    0.002029   0.000024  -0.000889   0.005180   0.005004
     3  C    0.000193  -0.000785   0.000277   0.000814  -0.000017
     4  C   -0.001098   0.000060   0.000306  -0.007914  -0.003387
     5  H    0.000381   0.000004  -0.000189   0.000059  -0.000608
     6  H   -0.000086  -0.000005   0.000354  -0.000016   0.001001
     7  H   -0.001645   0.000128  -0.000152   0.000024  -0.000000
     8  H    0.000128  -0.000077   0.000164  -0.000001  -0.000001
     9  H   -0.000152   0.000164  -0.000318  -0.000008   0.000000
    10  H    0.000024  -0.000001  -0.000008  -0.042074   0.004226
    11  H   -0.000000  -0.000001   0.000000   0.004226  -0.046285
 Mulliken charges and spin densities:
               1          2
     1  O   -0.166410   0.002652
     2  C   -0.206632  -0.040282
     3  C   -0.249459   0.004625
     4  C   -0.339815   1.039969
     5  H    0.130266   0.044543
     6  H    0.135453   0.028110
     7  H    0.112372  -0.000759
     8  H    0.129447  -0.000346
     9  H    0.112443  -0.000413
    10  H    0.178234  -0.037885
    11  H    0.164101  -0.040214
 Sum of Mulliken charges =  -0.00000   1.00000
 Mulliken charges and spin densities with hydrogens summed into heavy atoms:
               1          2
     1  O   -0.166410   0.002652
     2  C    0.059087   0.032371
     3  C    0.104803   0.003107
     4  C    0.002520   0.961870
 APT charges:
               1
     1  O   -0.073992
     2  C   -0.604813
     3  C   -1.156812
     4  C   -0.907284
     5  H    0.326443
     6  H    0.335404
     7  H    0.332543
     8  H    0.479804
     9  H    0.335723
    10  H    0.375633
    11  H    0.557351
 Sum of APT charges =  -0.00000
 APT charges with hydrogens summed into heavy atoms:
               1
     1  O   -0.073992
     2  C    0.057034
     3  C   -0.008742
     4  C    0.025700
 Electronic spatial extent (au):  <R**2>=            344.9741
 Charge=             -0.0000 electrons
 Dipole moment (field-independent basis, Debye):
    X=              0.3827    Y=              1.3656    Z=              0.2231  Tot=              1.4357
 Quadrupole moment (field-independent basis, Debye-Ang):
   XX=            -23.2856   YY=            -26.5040   ZZ=            -27.1997
   XY=             -0.2120   XZ=             -0.0903   YZ=             -0.4763
 Traceless Quadrupole moment (field-independent basis, Debye-Ang):
   XX=              2.3775   YY=             -0.8409   ZZ=             -1.5366
   XY=             -0.2120   XZ=             -0.0903   YZ=             -0.4763
 Octapole moment (field-independent basis, Debye-Ang**2):
  XXX=              6.2352  YYY=             -2.4916  ZZZ=              0.2990  XYY=              0.0150
  XXY=             -1.1741  XXZ=             -0.3314  XZZ=              3.4491  YZZ=              1.0250
  YYZ=              0.1373  XYZ=              0.7550
 Hexadecapole moment (field-independent basis, Debye-Ang**3):
 XXXX=           -349.9344 YYYY=            -70.5194 ZZZZ=            -44.5491 XXXY=            -10.0660
 XXXZ=              0.7635 YYYX=             -0.8234 YYYZ=             -1.2366 ZZZX=             -0.2271
 ZZZY=             -0.2561 XXYY=            -68.1921 XXZZ=            -73.7575 YYZZ=            -18.8390
 XXYZ=             -1.6375 YYXZ=             -1.0123 ZZXY=             -0.2868
 N-N= 1.264067715291D+02 E-N=-7.047346430081D+02  KE= 1.929230354525D+02
  Exact polarizability:   0.000   0.000   0.000   0.000   0.000   0.000
 Approx polarizability:  48.712   0.549  46.239   0.256   0.142  43.452
                          Isotropic Fermi Contact Couplings
        Atom                 a.u.       MegaHertz       Gauss      10(-4) cm-1
     1  O(17)              0.00649      -3.93594      -1.40444      -1.31289
     2  C(13)             -0.03746     -42.11614     -15.02808     -14.04843
     3  C(13)             -0.00124      -1.39493      -0.49775      -0.46530
     4  C(13)              0.17166     192.97769      68.85924      64.37043
     5  H(1)               0.02664     119.07921      42.49042      39.72055
     6  H(1)               0.01627      72.73885      25.95503      24.26307
     7  H(1)               0.00013       0.58873       0.21007       0.19638
     8  H(1)              -0.00010      -0.46066      -0.16438      -0.15366
     9  H(1)               0.00003       0.13474       0.04808       0.04494
    10  H(1)              -0.01610     -71.96937     -25.68046     -24.00640
    11  H(1)              -0.01616     -72.25509     -25.78241     -24.10170
 --------------------------------------------------------
       Center         ----  Spin Dipole Couplings  ----
                      3XX-RR        3YY-RR        3ZZ-RR
 --------------------------------------------------------
     1   Atom        0.020334     -0.003439     -0.016895
     2   Atom        0.004803     -0.012219      0.007416
     3   Atom        0.004047     -0.003430     -0.000618
     4   Atom       -0.545850     -0.495515      1.041365
     5   Atom        0.005556     -0.000180     -0.005376
     6   Atom        0.003972      0.002799     -0.006771
     7   Atom        0.004506     -0.002452     -0.002054
     8   Atom        0.003075     -0.001452     -0.001623
     9   Atom        0.004006     -0.002065     -0.001941
    10   Atom       -0.072367      0.072053      0.000313
    11   Atom        0.028791     -0.023963     -0.004829
 --------------------------------------------------------
                        XY            XZ            YZ
 --------------------------------------------------------
     1   Atom       -0.011843      0.002116      0.003570
     2   Atom        0.005249      0.007799     -0.000960
     3   Atom        0.000088      0.001616      0.001047
     4   Atom       -0.023487     -0.108166      0.290446
     5   Atom        0.010818      0.005866      0.008109
     6   Atom        0.013265     -0.006379     -0.005704
     7   Atom        0.000384      0.001166      0.000553
     8   Atom       -0.000979      0.000046      0.000156
     9   Atom        0.001128     -0.001285     -0.000278
    10   Atom        0.008932     -0.006951     -0.018327
    11   Atom       -0.070090      0.009424      0.003321
 --------------------------------------------------------


 ---------------------------------------------------------------------------------
              Anisotropic Spin Dipole Couplings in Principal Axis System
 ---------------------------------------------------------------------------------

       Atom             a.u.   MegaHertz   Gauss  10(-4) cm-1        Axes

              Baa    -0.0186     1.342     0.479     0.448 -0.1540 -0.3398  0.9278
     1 O(17)  Bbb    -0.0067     0.484     0.173     0.161  0.3479  0.8602  0.3727
              Bcc     0.0252    -1.826    -0.652    -0.609  0.9248 -0.3802  0.0142
 
              Baa    -0.0142    -1.905    -0.680    -0.635 -0.3226  0.9333  0.1579
     2 C(13)  Bbb    -0.0001    -0.014    -0.005    -0.005  0.6734  0.3435 -0.6547
              Bcc     0.0143     1.919     0.685     0.640  0.6652  0.1049  0.7393
 
              Baa    -0.0038    -0.510    -0.182    -0.170  0.0592  0.9390 -0.3388
     3 C(13)  Bbb    -0.0008    -0.103    -0.037    -0.035 -0.3047  0.3402  0.8896
              Bcc     0.0046     0.614     0.219     0.205  0.9506  0.0505  0.3062
 
              Baa    -0.5553   -74.513   -26.588   -24.855  0.8758  0.4819 -0.0283
     4 C(13)  Bbb    -0.5466   -73.345   -26.171   -24.465 -0.4781  0.8577 -0.1894
              Bcc     1.1019   147.858    52.759    49.320 -0.0670  0.1794  0.9815
 
              Baa    -0.0116    -6.192    -2.209    -2.065  0.1859 -0.6796  0.7096
     5 H(1)   Bbb    -0.0063    -3.353    -1.196    -1.118  0.6841 -0.4289 -0.5899
              Bcc     0.0179     9.545     3.406     3.184  0.7053  0.5951  0.3853
 
              Baa    -0.0100    -5.361    -1.913    -1.788  0.7105 -0.5262  0.4672
     6 H(1)   Bbb    -0.0094    -5.018    -1.791    -1.674 -0.1429  0.5423  0.8280
              Bcc     0.0195    10.379     3.703     3.462  0.6890  0.6550 -0.3101
 
              Baa    -0.0029    -1.527    -0.545    -0.509  0.0572  0.7831 -0.6192
     7 H(1)   Bbb    -0.0019    -1.001    -0.357    -0.334 -0.1770  0.6184  0.7657
              Bcc     0.0047     2.528     0.902     0.843  0.9825  0.0659  0.1740
 
              Baa    -0.0018    -0.961    -0.343    -0.321  0.1518  0.7244 -0.6724
     8 H(1)   Bbb    -0.0015    -0.788    -0.281    -0.263  0.1342  0.6589  0.7401
              Bcc     0.0033     1.749     0.624     0.583  0.9793 -0.2026  0.0028
 
              Baa    -0.0023    -1.223    -0.436    -0.408 -0.0609  0.8789  0.4732
     9 H(1)   Bbb    -0.0022    -1.166    -0.416    -0.389  0.2589 -0.4439  0.8579
              Bcc     0.0045     2.389     0.852     0.797  0.9640  0.1747 -0.2005
 
              Baa    -0.0734   -39.158   -13.972   -13.062  0.9954 -0.0509  0.0812
    10 H(1)   Bbb    -0.0038    -2.020    -0.721    -0.674 -0.0666  0.2418  0.9680
              Bcc     0.0772    41.178    14.693    13.735  0.0689  0.9690 -0.2373
 
              Baa    -0.0734   -39.180   -13.980   -13.069  0.5689  0.8139 -0.1175
    11 H(1)   Bbb    -0.0043    -2.288    -0.816    -0.763  0.0084  0.1372  0.9905
              Bcc     0.0777    41.468    14.797    13.832  0.8223 -0.5645  0.0712
 

 ---------------------------------------------------------------------------------

 No NMR shielding tensors so no spin-rotation constants.
 Leave Link  601 at Mon Mar 11 15:44:56 2019, MaxMem=   671088640 cpu:               7.4 elap:               0.4
 (Enter /shared/centos7/gaussian/g16/l701.exe)
 SCFChk:  SCF convergence  7.39D-09 required  1.00D-08
 ... and contract with generalized density number  0.
 Compute integral second derivatives.
 Entering OneElI...
 Calculate overlap and kinetic energy integrals
    NBasis = 219  MinDer = 2  MaxDer = 2
 Requested accuracy = 0.1000D-12
 PrmmSu-InSpLW:  IPartL=    0 NPrtUS=   20 NPrtUL=    1 DoSpLW=F IThBeg=    0 IThEnd=   19 NThAct=   20.
 PrsmSu:  NPrtUS=  20 ThrOK=T IAlg=1 NPAlg=1 LenDen=           0 ISkipM=0 DoSpLW=F IThBeg=    0 IThEnd=   19.
 Prism:   IPart=     0 DynPar=F LinDyn=F Incr=           1.
 PRISM was handed    33492175 working-precision words and  2277 shell-pairs
 PRISM was handed    33492175 working-precision words and  2277 shell-pairs
 PRISM was handed    33492175 working-precision words and  2277 shell-pairs
 PRISM was handed    33492175 working-precision words and  2277 shell-pairs
 PRISM was handed    33492175 working-precision words and  2277 shell-pairs
 PRISM was handed    33492175 working-precision words and  2277 shell-pairs
 PRISM was handed    33492175 working-precision words and  2277 shell-pairs
 PRISM was handed    33492175 working-precision words and  2277 shell-pairs
 PRISM was handed    33492175 working-precision words and  2277 shell-pairs
 PRISM was handed    33492175 working-precision words and  2277 shell-pairs
 PRISM was handed    33492175 working-precision words and  2277 shell-pairs
 PRISM was handed    33492175 working-precision words and  2277 shell-pairs
 PRISM was handed    33492175 working-precision words and  2277 shell-pairs
 PRISM was handed    33492175 working-precision words and  2277 shell-pairs
 PRISM was handed    33492175 working-precision words and  2277 shell-pairs
 PRISM was handed    33492175 working-precision words and  2277 shell-pairs
 PRISM was handed    33492175 working-precision words and  2277 shell-pairs
 PRISM was handed    33492175 working-precision words and  2277 shell-pairs
 PRISM was handed    33492175 working-precision words and  2277 shell-pairs
 PRISM was handed    33492175 working-precision words and  2277 shell-pairs
 IPart= 17 NShTot=          94 NBatch=          26 AvBLen=         3.6
 IPart= 19 NShTot=          93 NBatch=          26 AvBLen=         3.6
 IPart= 18 NShTot=          93 NBatch=          26 AvBLen=         3.6
 IPart=  0 NShTot=         146 NBatch=          54 AvBLen=         2.7
 IPart=  1 NShTot=         140 NBatch=          49 AvBLen=         2.9
 IPart=  3 NShTot=         133 NBatch=          42 AvBLen=         3.2
 IPart=  2 NShTot=         138 NBatch=          47 AvBLen=         2.9
 IPart=  5 NShTot=         126 NBatch=          36 AvBLen=         3.5
 IPart=  7 NShTot=         118 NBatch=          30 AvBLen=         3.9
 IPart= 10 NShTot=         110 NBatch=          29 AvBLen=         3.8
 IPart=  6 NShTot=         122 NBatch=          34 AvBLen=         3.6
 IPart= 11 NShTot=         109 NBatch=          28 AvBLen=         3.9
 IPart=  9 NShTot=         113 NBatch=          30 AvBLen=         3.8
 IPart= 12 NShTot=         104 NBatch=          28 AvBLen=         3.7
 IPart= 13 NShTot=         102 NBatch=          28 AvBLen=         3.6
 IPart=  8 NShTot=         113 NBatch=          30 AvBLen=         3.8
 IPart=  4 NShTot=         129 NBatch=          39 AvBLen=         3.3
 IPart= 15 NShTot=         100 NBatch=          28 AvBLen=         3.6
 IPart= 16 NShTot=          94 NBatch=          26 AvBLen=         3.6
 IPart= 14 NShTot=         100 NBatch=          28 AvBLen=         3.6
 PrSmSu:  NxtVal=             21.
 Entering OneElI...
 Calculate potential energy integrals
    NBasis = 219  MinDer = 2  MaxDer = 2
 Requested accuracy = 0.1000D-12
 PrmmSu-InSpLW:  IPartL=    0 NPrtUS=   20 NPrtUL=    1 DoSpLW=F IThBeg=    0 IThEnd=   19 NThAct=   20.
 PrsmSu:  NPrtUS=  20 ThrOK=T IAlg=1 NPAlg=1 LenDen=           0 ISkipM=0 DoSpLW=F IThBeg=    0 IThEnd=   19.
 Prism:   IPart=     0 DynPar=F LinDyn=F Incr=          12.
 PRISM was handed    33499303 working-precision words and  2196 shell-pairs
 PRISM was handed    33499303 working-precision words and  2196 shell-pairs
 PRISM was handed    33499303 working-precision words and  2196 shell-pairs
 PRISM was handed    33499303 working-precision words and  2196 shell-pairs
 PRISM was handed    33499303 working-precision words and  2196 shell-pairs
 PRISM was handed    33499303 working-precision words and  2196 shell-pairs
 PRISM was handed    33499303 working-precision words and  2196 shell-pairs
 PRISM was handed    33499303 working-precision words and  2196 shell-pairs
 PRISM was handed    33499303 working-precision words and  2196 shell-pairs
 PRISM was handed    33499303 working-precision words and  2196 shell-pairs
 PRISM was handed    33499303 working-precision words and  2196 shell-pairs
 PRISM was handed    33499303 working-precision words and  2196 shell-pairs
 PRISM was handed    33499303 working-precision words and  2196 shell-pairs
 PRISM was handed    33499303 working-precision words and  2196 shell-pairs
 PRISM was handed    33499303 working-precision words and  2196 shell-pairs
 PRISM was handed    33499303 working-precision words and  2196 shell-pairs
 PRISM was handed    33499303 working-precision words and  2196 shell-pairs
 PRISM was handed    33499303 working-precision words and  2196 shell-pairs
 PRISM was handed    33499303 working-precision words and  2196 shell-pairs
 PRISM was handed    33499303 working-precision words and  2196 shell-pairs
 IPart= 17 NShTot=        1023 NBatch=          93 AvBLen=        11.0
 IPart= 18 NShTot=         990 NBatch=          90 AvBLen=        11.0
 IPart=  0 NShTot=        1573 NBatch=         143 AvBLen=        11.0
 IPart=  1 NShTot=        1518 NBatch=         138 AvBLen=        11.0
 IPart=  8 NShTot=        1232 NBatch=         112 AvBLen=        11.0
 IPart=  3 NShTot=        1408 NBatch=         128 AvBLen=        11.0
 IPart=  2 NShTot=        1452 NBatch=         132 AvBLen=        11.0
 IPart=  4 NShTot=        1331 NBatch=         121 AvBLen=        11.0
 IPart= 19 NShTot=         990 NBatch=          90 AvBLen=        11.0
 IPart=  7 NShTot=        1254 NBatch=         114 AvBLen=        11.0
 IPart= 12 NShTot=        1111 NBatch=         101 AvBLen=        11.0
 IPart= 11 NShTot=        1122 NBatch=         102 AvBLen=        11.0
 IPart= 16 NShTot=        1023 NBatch=          93 AvBLen=        11.0
 IPart= 10 NShTot=        1122 NBatch=         102 AvBLen=        11.0
 IPart=  5 NShTot=        1298 NBatch=         118 AvBLen=        11.0
 IPart= 13 NShTot=        1111 NBatch=         101 AvBLen=        11.0
 IPart=  9 NShTot=        1166 NBatch=         106 AvBLen=        11.0
 IPart= 14 NShTot=        1089 NBatch=          99 AvBLen=        11.0
 IPart=  6 NShTot=        1276 NBatch=         116 AvBLen=        11.0
 IPart= 15 NShTot=        1067 NBatch=          97 AvBLen=        11.0
 PrSmSu:  NxtVal=            241.
 Polarizability after L701:
                1             2             3 
      1  0.000000D+00
      2  0.000000D+00  0.000000D+00
      3  0.000000D+00  0.000000D+00  0.000000D+00
 Dipole Derivatives after L701:
                 1             2             3             4             5 
      1   0.141277D+00  0.129499D+00  0.286930D-01 -0.167147D+00  0.313544D+00
      2  -0.486659D-01 -0.171771D+00  0.552019D-02  0.340363D-01 -0.832760D+00
      3   0.196700D-02  0.649184D-02 -0.191481D+00 -0.278757D-01  0.134114D-01
                 6             7             8             9            10 
      1   0.188535D-01 -0.167599D+01 -0.341617D+00 -0.355415D-01 -0.161107D+01
      2   0.139579D-01  0.740404D-01 -0.874118D+00  0.585268D-02  0.133694D+00
      3  -0.814531D+00  0.203349D-01  0.621754D-02 -0.920331D+00 -0.311701D-01
                11            12            13            14            15 
      1  -0.235031D+00  0.127889D-01  0.145648D+00 -0.111063D+00 -0.123342D+00
      2  -0.892230D+00  0.176627D+00  0.812310D-03  0.364241D+00  0.286029D+00
      3   0.160673D+00 -0.218556D+00  0.216720D-01  0.172100D+00  0.469439D+00
                16            17            18            19            20 
      1   0.137563D+00 -0.135608D+00  0.117559D+00  0.285900D+00  0.433707D+00
      2   0.105253D-01  0.452183D+00 -0.312183D+00  0.638667D-01  0.225989D+00
      3  -0.240018D-01 -0.193703D+00  0.416464D+00  0.447543D-01  0.199512D+00
                21            22            23            24            25 
      1   0.607748D+00  0.899035D+00 -0.815311D+00 -0.613994D-01  0.298575D+00
      2   0.190158D+00 -0.222422D+00  0.428843D+00  0.252823D-01  0.741993D-01
      3   0.485741D+00 -0.147263D-01  0.234750D-01  0.111533D+00 -0.394355D-01
                26            27            28            29            30 
      1   0.535698D+00 -0.526082D+00  0.237757D+00  0.979959D+00 -0.217110D+00
      2   0.299501D+00 -0.220232D+00  0.496049D-01  0.749864D+00 -0.138804D+00
      3  -0.228696D+00  0.409093D+00 -0.104308D-01 -0.116399D+00  0.139278D+00
                31            32            33 
      1   0.130845D+01 -0.753778D+00  0.177832D+00
      2  -0.169691D+00  0.250258D+00 -0.322065D-01
      3   0.589119D-01 -0.430831D-01  0.113349D+00
 Hessian after L701:
                1             2             3             4             5 
      1  0.110759D+01
      2  0.124450D+01  0.900191D+01
      3  0.307659D-01 -0.226412D+00  0.123684D+02
      4 -0.216868D+01 -0.361809D+01 -0.203688D+00  0.992546D+01
      5 -0.350993D+01 -0.351203D+01  0.210709D+00  0.193541D+01  0.130963D+02
      6 -0.199550D+00  0.212217D+00 -0.672367D+01  0.475424D-01 -0.160015D+00
      7  0.410412D-01  0.241693D+01  0.261949D+00  0.428234D+00 -0.151521D+00
      8  0.240319D+01 -0.536092D+01  0.114702D+00 -0.258276D+00 -0.154880D+00
      9  0.264051D+00  0.115172D+00 -0.652781D+01 -0.234549D-01  0.147145D-01
     10  0.895489D+00  0.308679D-01 -0.106498D+00 -0.123931D+01  0.171364D+01
     11 -0.104443D+00 -0.278256D+00  0.136364D-01  0.173682D+01 -0.463295D+01
     12 -0.999494D-01  0.155417D-01 -0.212155D+00  0.142642D+00 -0.116221D-01
     13 -0.110873D-01  0.136682D+00 -0.158396D-01 -0.353525D+01  0.688854D-01
     14  0.104049D+00 -0.365846D-01  0.152767D+00  0.125148D+00 -0.256933D+01
     15 -0.267935D-01  0.124140D+00  0.344221D+00  0.129492D+00  0.125580D+01
     16 -0.240642D-01  0.100845D+00  0.523104D-01 -0.359226D+01  0.586134D-01
     17  0.612203D-01  0.181777D-01 -0.222650D+00  0.121937D+00 -0.223046D+01
     18  0.631620D-01 -0.196774D+00  0.272110D+00 -0.886806D-01 -0.130842D+01
     19 -0.767381D-01 -0.826464D-01  0.102025D+00  0.544526D-01  0.141914D-01
     20 -0.317331D-01  0.193371D-01  0.138079D+00  0.244256D-01 -0.209741D-01
     21  0.110507D+00  0.117300D+00  0.311100D+00  0.602057D-01  0.204709D-01
     22  0.443420D-01 -0.135701D+00 -0.125994D-01  0.121516D+00 -0.704932D-01
     23 -0.191661D+00  0.119112D+00  0.696206D-02 -0.937925D-01 -0.175649D-01
     24 -0.164490D-01  0.693681D-02  0.210217D-01 -0.710079D-02  0.243337D-02
     25 -0.665806D-01 -0.584496D-01 -0.120794D+00  0.635636D-01  0.154305D-01
     26 -0.660766D-02  0.719090D-01 -0.177928D+00  0.335078D-01 -0.165054D-01
     27 -0.119182D+00 -0.156790D+00  0.253709D+00 -0.548027D-01 -0.203928D-01
     28  0.910928D-01  0.320545D-01  0.338640D-02  0.947088D-02 -0.803496D-01
     29  0.117352D+00 -0.160649D-01 -0.581930D-02  0.788865D-02 -0.241633D-01
     30 -0.206632D-01 -0.693538D-02 -0.589559D-01 -0.456007D-03 -0.250413D-02
     31  0.167593D+00 -0.669945D-01  0.898191D-02 -0.671926D-01  0.612992D-02
     32 -0.859430D-01 -0.265957D-01 -0.404739D-02 -0.149655D-01  0.825520D-01
     33  0.141022D-01 -0.439609D-02 -0.480156D-01 -0.170007D-02 -0.116886D-02
                6             7             8             9            10 
      6  0.165182D+02
      7 -0.596125D-02  0.772967D+01
      8  0.136688D-01 -0.169611D+01  0.127791D+02
      9 -0.265654D+00 -0.179513D+00 -0.115516D+00  0.139509D+02
     10  0.125884D+00  0.209621D+00  0.134379D-01 -0.153522D-02  0.453467D+01
     11 -0.451541D-02  0.181077D-01 -0.110363D+00  0.192417D-02 -0.826349D+00
     12 -0.536374D+01 -0.838586D-03  0.190896D-02 -0.113901D+00 -0.213179D+00
     13  0.546078D-01  0.217946D-01 -0.366627D-01 -0.275847D-01 -0.842608D-02
     14  0.127088D+01 -0.488427D-01 -0.879586D-02  0.247919D-01 -0.496975D-01
     15 -0.186806D+01 -0.556408D-01  0.415285D-01 -0.109059D-01  0.157769D-01
     16 -0.267124D-01  0.210028D-01 -0.348032D-01  0.203322D-01  0.229995D-01
     17 -0.132866D+01 -0.499377D-01  0.426909D-03 -0.207815D-01 -0.490007D-01
     18 -0.228084D+01  0.454118D-01 -0.376820D-01 -0.172705D-01 -0.168972D-01
     19  0.170650D-01 -0.322452D+01  0.347641D+00  0.573754D+00  0.187128D-01
     20  0.950922D-02  0.262845D+00 -0.267491D+01  0.105886D+01  0.138882D-01
     21 -0.858371D-02  0.451497D+00  0.106325D+01 -0.165072D+01  0.202339D-01
     22 -0.406167D-02 -0.206341D+01 -0.121243D+01 -0.912206D-01  0.326512D-01
     23  0.178241D-02 -0.113889D+01 -0.216728D+01  0.838031D-01 -0.200668D-01
     24 -0.512586D-01 -0.855663D-01  0.836556D-01 -0.328044D+01 -0.118577D-02
     25 -0.132247D-01 -0.320208D+01  0.468529D+00 -0.532776D+00  0.171510D-01
     26 -0.866190D-02  0.365414D+00 -0.229206D+01 -0.115923D+01  0.172358D-01
     27 -0.166480D-01 -0.429050D+00 -0.116271D+01 -0.205914D+01 -0.170606D-01
     28  0.125275D-01  0.228496D-01  0.134251D-01 -0.253734D-02 -0.312875D+01
     29 -0.355038D-02  0.287526D-01 -0.672215D-02 -0.366095D-02  0.149360D+00
     30  0.207982D-01 -0.440073D-02 -0.167591D-02 -0.162755D-01 -0.338558D-01
     31 -0.811663D-02  0.157974D-01 -0.793863D-02  0.485182D-03 -0.135481D+01
     32 -0.265269D-02 -0.675121D-02 -0.355276D-02 -0.782361D-04 -0.993311D+00
     33  0.394804D-01  0.211170D-02 -0.112943D-02 -0.878631D-02  0.228317D+00
               11            12            13            14            15 
     11  0.822923D+01
     12  0.631350D+00  0.114301D+02
     13 -0.500976D-01  0.117938D-01  0.331064D+01
     14  0.365184D-01  0.489259D-01 -0.125135D+00  0.239595D+01
     15  0.342079D-01  0.163514D+00 -0.520314D-01 -0.152119D+01  0.167948D+01
     16 -0.525986D-01 -0.930970D-02  0.172660D+00  0.208764D-02 -0.152237D-01
     17  0.226028D-01 -0.354439D-01  0.132548D-02  0.177907D+00  0.488188D-01
     18 -0.269792D-01  0.132821D+00  0.469518D-02  0.184191D-01 -0.273793D+00
     19  0.471421D-02  0.785146D-02  0.464009D-01 -0.250844D-01 -0.147823D-01
     20 -0.100755D-01  0.425638D-02 -0.663386D-02 -0.258734D-01 -0.313154D-02
     21  0.151451D-02 -0.305058D-02  0.120692D-01 -0.891129D-02 -0.353435D-01
     22 -0.112819D-01 -0.351473D-04  0.557151D-02 -0.110872D-01 -0.106966D-01
     23 -0.318226D-02  0.175499D-03 -0.615224D-02  0.651954D-02  0.899950D-02
     24  0.882566D-03 -0.114299D-01 -0.211994D-02  0.256848D-02 -0.228161D-03
     25  0.581751D-02 -0.595314D-02 -0.850572D-02 -0.967287D-04  0.503699D-02
     26 -0.882204D-02 -0.379278D-02  0.238961D-02 -0.268569D-04 -0.656078D-02
     27 -0.206871D-02 -0.512483D-02  0.685576D-02  0.333825D-02  0.507755D-02
     28  0.327733D+00 -0.716624D-01  0.100803D-02  0.183437D-01  0.100263D-01
     29 -0.854258D+00 -0.507315D+00  0.175232D-01  0.295946D-01  0.227726D-01
     30 -0.500998D+00 -0.302145D+01  0.347872D-02  0.534425D-02 -0.732836D-02
     31 -0.104842D+01  0.238640D+00  0.519412D-02  0.103147D-01  0.148359D-01
     32 -0.239045D+01 -0.143985D+00 -0.212500D-02 -0.588424D-02 -0.537905D-02
     33 -0.148954D+00 -0.299555D+01  0.407523D-02  0.307112D-02  0.336113D-02
               16            17            18            19            20 
     16  0.335583D+01
     17 -0.885547D-01  0.199274D+01
     18  0.205130D-02  0.157691D+01  0.219566D+01
     19 -0.686798D-02 -0.555422D-04 -0.340950D-02  0.300818D+01
     20  0.305738D-02 -0.946572D-03  0.543752D-02 -0.305750D+00  0.261220D+01
     21 -0.493799D-02 -0.500145D-02  0.611163D-02 -0.710009D+00 -0.116402D+01
     22  0.555858D-02 -0.125697D-01  0.921051D-02  0.420925D-01  0.292603D-01
     23 -0.641295D-02  0.813799D-02 -0.797685D-02  0.360185D-01 -0.353057D-01
     24  0.126476D-02 -0.131449D-02 -0.168282D-02  0.419353D-01 -0.852800D-01
     25  0.429996D-01 -0.249017D-01  0.126965D-01  0.129221D+00  0.291304D-02
     26 -0.356922D-02 -0.257621D-01  0.452136D-02  0.636653D-02  0.134204D+00
     27 -0.999277D-02  0.901549D-02 -0.305977D-01 -0.152798D-01  0.363266D-01
     28 -0.208695D-02  0.275480D-01 -0.154524D-01  0.299702D-02  0.347371D-02
     29  0.243731D-01  0.429124D-01 -0.320302D-01  0.675065D-02  0.524433D-02
     30 -0.944963D-02 -0.197963D-01 -0.207938D-02 -0.511862D-03 -0.756541D-03
     31  0.422862D-02  0.129894D-01 -0.127877D-01  0.606337D-02  0.425397D-02
     32 -0.303808D-02 -0.573744D-02  0.457585D-02 -0.214592D-02 -0.290199D-02
     33 -0.332435D-03 -0.109710D-02 -0.435806D-03  0.136242D-02  0.726015D-03
               21            22            23            24            25 
     21  0.159710D+01
     22  0.252162D-01  0.175470D+01
     23 -0.544014D-01  0.138876D+01  0.215189D+01
     24  0.512541D-02  0.104746D+00 -0.842141D-01  0.329497D+01
     25  0.236379D-01  0.429278D-01  0.414142D-01 -0.346386D-01  0.297202D+01
     26  0.249630D-01  0.309736D-01 -0.578022D-01  0.748531D-01 -0.454976D+00
     27 -0.219691D+00 -0.192827D-01  0.442053D-01  0.259811D-01  0.667779D+00
     28  0.378876D-02  0.568342D-02 -0.247617D-02 -0.538893D-03  0.238949D-02
     29  0.812788D-02  0.941418D-02 -0.704766D-02 -0.715994D-03  0.643703D-02
     30 -0.235974D-02 -0.221594D-02  0.136701D-02 -0.119476D-02 -0.172713D-02
     31  0.779134D-02  0.836044D-02 -0.674387D-02 -0.346269D-03  0.689834D-02
     32 -0.328462D-02 -0.484420D-02  0.252835D-02  0.194656D-03 -0.211656D-02
     33  0.309353D-03  0.939975D-03 -0.702520D-03 -0.872109D-03 -0.364611D-04
               26            27            28            29            30 
     26  0.219200D+01
     27  0.125354D+01  0.204720D+01
     28  0.362122D-02 -0.328926D-02  0.296597D+01
     29  0.635203D-02 -0.719523D-02 -0.416537D+00  0.892934D+00
     30 -0.203225D-02  0.714124D-03  0.800820D-01  0.503904D+00  0.305022D+01
     31  0.564458D-02 -0.669460D-02  0.293761D-01  0.486850D-01 -0.102804D-01
     32 -0.348617D-02  0.273067D-02  0.731630D-01 -0.687816D-01  0.240834D-01
     33  0.326220D-03 -0.147484D-02 -0.163307D-01  0.254826D-01  0.379135D-01
               31            32            33 
     31  0.117849D+01
     32  0.104208D+01  0.242231D+01
     33 -0.232509D+00  0.127842D+00  0.297407D+01
 Leave Link  701 at Mon Mar 11 15:44:56 2019, MaxMem=   671088640 cpu:               6.5 elap:               0.3
 (Enter /shared/centos7/gaussian/g16/l702.exe)
 L702 exits ... SP integral derivatives will be done elsewhere.
 Leave Link  702 at Mon Mar 11 15:44:56 2019, MaxMem=   671088640 cpu:               0.3 elap:               0.0
 (Enter /shared/centos7/gaussian/g16/l703.exe)
 Integral derivatives from FoFJK, PRISM(SPDF).
 Compute integral second derivatives, UseDBF=F ICtDFT=           0.
 ICntrl=    100147.
 Calling FoFJK, ICntrl=    100147 FMM=F ISym2X=0 I1Cent= 0 IOpClX= 1 NMat=1 NMatS=1 NMatT=0.
 FoFJK:  IHMeth= 1 ICntrl=  100147 DoSepK=F KAlg= 0 I1Cent=           0 FoldK=F
 IRaf=         0 NMat=       1 IRICut=       1 DoRegI=T DoRafI=F ISym2E= 0 IDoP0=0 IntGTp=1.
 FoFCou: FMM=F IPFlag=           0 FMFlag=      100000 FMFlg1=         800
         NFxFlg=           0 DoJE=F BraDBF=F KetDBF=F FulRan=T
         wScrn=  0.000000 ICntrl=    100147 IOpCl=  1 I1Cent=           0 NGrid=           0
         NMat0=    1 NMatS0=      1 NMatT0=    0 NMatD0=    1 NMtDS0=    0 NMtDT0=    0
 Symmetry not used in FoFCou.
 FoFCou:  KetSym=F NOpSet=  1 NOpAb=1 NOp=  1.
 FoFCou:  CnvScl= 1.00D+00 Thresh= 1.00D-08 IAcrcy=      12.
 PrismS was handed   670827073 working-precision words and  2229 shell-pairs
 FoFCou: LinMIO=F DoNuc=F BraDBF=F KetDBF=F HaveP=T PDBF=F HaveZ=T HaveW=F
         NIJTC =      15 NIJTAt=       0 NIJTCD=       0 NIJTT =      15
         IJTBeg=       1 IJTEnd=      15 KLTBeg=       1 KLTEnd=      15
         IPTBeg=       1 IPTEnd=      15 IPTBCv=       1 IPTECv=      15
         IZTBeg=       1 IZTEnd=      15 IZTBCv=       1 IZTECv=      15
         IWTBeg=      16 IWTEnd=      15 IWTBCv=      16 IWTECv=      15
         INTBeg=       1 INTEnd=       0 IFTBCv=       1 IFTECv=      15
 NCel replicated for PrismC:     1
 CoulSu-InSpLW:  IPartL=    0 NPrtUS=   20 NPrtUL=    1 DoSpLW=F IThBeg=    0 IThEnd=   19 NThAct=   20.
 CoulSu:  IncDef=  1024 NBBP=        2485335 NTPThr=   100 NPartT=   20 Incr=        1024 LDynOK=F GPUOK=T.
 CoulSu:  NPrtUS=  20 ThrOK=T IAlg=1 NPAlg=1 LenDen=           0 LWGrdD=           0 DoCopy=F ISkipM=0
          DoSpLW=F IThBeg=    0 IThEnd=   19.
 Enter PrismC:  IPart=  0 JobTyp=22 DoJE=F Cont=F.
 PrismC:  IPart=     0 DynPar=T LinDyn=F Incr=        1024 UseFst=F UseS4=T ISplat=2.
 PrismC was handed    33498855 working-precision words and  2229 shell-pairs
 Enter PrismC:  IPart=  4 JobTyp=22 DoJE=F Cont=F.
 Enter PrismC:  IPart=  6 JobTyp=22 DoJE=F Cont=F.
 Enter PrismC:  IPart=  5 JobTyp=22 DoJE=F Cont=F.
 PrismC:  IPart=     4 DynPar=T LinDyn=F Incr=        1024 UseFst=F UseS4=T ISplat=2.
 PrismC was handed    33498855 working-precision words and  2229 shell-pairs
 PrismC:  IPart=     6 DynPar=T LinDyn=F Incr=        1024 UseFst=F UseS4=T ISplat=2.
 PrismC was handed    33498855 working-precision words and  2229 shell-pairs
 PrismC:  IPart=     5 DynPar=T LinDyn=F Incr=        1024 UseFst=F UseS4=T ISplat=2.
 Enter PrismC:  IPart=  3 JobTyp=22 DoJE=F Cont=F.
 PrismC was handed    33498855 working-precision words and  2229 shell-pairs
 PrismC:  IPart=     3 DynPar=T LinDyn=F Incr=        1024 UseFst=F UseS4=T ISplat=2.
 PrismC was handed    33498855 working-precision words and  2229 shell-pairs
 Enter PrismC:  IPart=  7 JobTyp=22 DoJE=F Cont=F.
 Enter PrismC:  IPart= 13 JobTyp=22 DoJE=F Cont=F.
 Enter PrismC:  IPart=  1 JobTyp=22 DoJE=F Cont=F.
 Enter PrismC:  IPart=  9 JobTyp=22 DoJE=F Cont=F.
 PrismC:  IPart=     1 DynPar=T LinDyn=F Incr=        1024 UseFst=F UseS4=T ISplat=2.
 PrismC was handed    33498855 working-precision words and  2229 shell-pairs
 PrismC:  IPart=     7 DynPar=T LinDyn=F Incr=        1024 UseFst=F UseS4=T ISplat=2.
 PrismC was handed    33498855 working-precision words and  2229 shell-pairs
 Enter PrismC:  IPart=  8 JobTyp=22 DoJE=F Cont=F.
 PrismC:  IPart=    13 DynPar=T LinDyn=F Incr=        1024 UseFst=F UseS4=T ISplat=2.
 PrismC was handed    33498855 working-precision words and  2229 shell-pairs
 PrismC:  IPart=     9 DynPar=T LinDyn=F Incr=        1024 UseFst=F UseS4=T ISplat=2.
 PrismC was handed    33498855 working-precision words and  2229 shell-pairs
 PrismC:  IPart=     8 DynPar=T LinDyn=F Incr=        1024 UseFst=F UseS4=T ISplat=2.
 PrismC was handed    33498855 working-precision words and  2229 shell-pairs
 Enter PrismC:  IPart= 14 JobTyp=22 DoJE=F Cont=F.
 Enter PrismC:  IPart= 17 JobTyp=22 DoJE=F Cont=F.
 Enter PrismC:  IPart= 11 JobTyp=22 DoJE=F Cont=F.
 PrismC:  IPart=    14 DynPar=T LinDyn=F Incr=        1024 UseFst=F UseS4=T ISplat=2.
 PrismC was handed    33498855 working-precision words and  2229 shell-pairs
 PrismC:  IPart=    17 DynPar=T LinDyn=F Incr=        1024 UseFst=F UseS4=T ISplat=2.
 PrismC was handed    33498855 working-precision words and  2229 shell-pairs
 Enter PrismC:  IPart=  2 JobTyp=22 DoJE=F Cont=F.
 PrismC:  IPart=    11 DynPar=T LinDyn=F Incr=        1024 UseFst=F UseS4=T ISplat=2.
 PrismC was handed    33498855 working-precision words and  2229 shell-pairs
 PrismC:  IPart=     2 DynPar=T LinDyn=F Incr=        1024 UseFst=F UseS4=T ISplat=2.
 PrismC was handed    33498855 working-precision words and  2229 shell-pairs
 Enter PrismC:  IPart= 12 JobTyp=22 DoJE=F Cont=F.
 Enter PrismC:  IPart= 10 JobTyp=22 DoJE=F Cont=F.
 PrismC:  IPart=    12 DynPar=T LinDyn=F Incr=        1024 UseFst=F UseS4=T ISplat=2.
 PrismC was handed    33498855 working-precision words and  2229 shell-pairs
 PrismC:  IPart=    10 DynPar=T LinDyn=F Incr=        1024 UseFst=F UseS4=T ISplat=2.
 PrismC was handed    33498855 working-precision words and  2229 shell-pairs
 Enter PrismC:  IPart= 19 JobTyp=22 DoJE=F Cont=F.
 Enter PrismC:  IPart= 18 JobTyp=22 DoJE=F Cont=F.
 PrismC:  IPart=    19 DynPar=T LinDyn=F Incr=        1024 UseFst=F UseS4=T ISplat=2.
 Enter PrismC:  IPart= 16 JobTyp=22 DoJE=F Cont=F.
 PrismC was handed    33498855 working-precision words and  2229 shell-pairs
 PrismC:  IPart=    18 DynPar=T LinDyn=F Incr=        1024 UseFst=F UseS4=T ISplat=2.
 PrismC:  IPart=    16 DynPar=T LinDyn=F Incr=        1024 UseFst=F UseS4=T ISplat=2.
 PrismC was handed    33498855 working-precision words and  2229 shell-pairs
 PrismC was handed    33498855 working-precision words and  2229 shell-pairs
 Enter PrismC:  IPart= 15 JobTyp=22 DoJE=F Cont=F.
[...]
 ITry= 1 IFail=0 DXMaxC= 3.99D-04 DCOld= 1.00D+10 DXMaxT= 3.00D-01 DXLimC= 3.00D+00 Rises=F
 Variable       Old X    -DE/DX   Delta X   Delta X   Delta X     New X
                                 (Linear)    (Quad)   (Total)
    R1        2.65616   0.00000   0.00000  -0.00000  -0.00000   2.65616
    R2        2.65079   0.00000   0.00000  -0.00000  -0.00000   2.65079
    R3        2.79194  -0.00000   0.00000  -0.00000  -0.00000   2.79194
    R4        2.08820  -0.00000   0.00000  -0.00000  -0.00000   2.08820
    R5        2.08106  -0.00000   0.00000   0.00000   0.00000   2.08106
    R6        2.07064  -0.00000   0.00000  -0.00000  -0.00000   2.07064
    R7        2.05404   0.00000   0.00000  -0.00000  -0.00000   2.05404
    R8        2.07049  -0.00000   0.00000  -0.00000  -0.00000   2.07049
    R9        2.03743   0.00000   0.00000  -0.00000  -0.00000   2.03743
   R10        2.03725  -0.00000   0.00000  -0.00000  -0.00000   2.03725
    A1        1.96144   0.00000   0.00000   0.00000   0.00000   1.96144
    A2        1.91272  -0.00000   0.00000   0.00000   0.00000   1.91272
    A3        1.90882  -0.00000   0.00000   0.00001   0.00001   1.90883
    A4        1.92275   0.00000   0.00000  -0.00000  -0.00000   1.92274
    A5        1.93657   0.00000   0.00000   0.00000   0.00000   1.93658
    A6        1.93337   0.00000   0.00000   0.00000   0.00000   1.93337
    A7        1.84876   0.00000   0.00000  -0.00000  -0.00000   1.84876
    A8        1.94118  -0.00000   0.00000  -0.00000  -0.00000   1.94118
    A9        1.87844  -0.00000   0.00000  -0.00000  -0.00000   1.87844
   A10        1.94118  -0.00000   0.00000  -0.00000  -0.00000   1.94118
   A11        1.90452   0.00000   0.00000  -0.00000  -0.00000   1.90452
   A12        1.89412   0.00000   0.00000   0.00000   0.00000   1.89412
   A13        1.90386   0.00000   0.00000   0.00000   0.00000   1.90386
   A14        2.08321   0.00000   0.00000   0.00001   0.00001   2.08321
   A15        2.09807  -0.00000   0.00000   0.00000   0.00000   2.09807
   A16        2.09164   0.00000   0.00000   0.00001   0.00001   2.09165
    D1       -3.11842  -0.00000   0.00000  -0.00003  -0.00003  -3.11845
    D2       -0.99193  -0.00000   0.00000  -0.00003  -0.00003  -0.99195
    D3        1.03330  -0.00000   0.00000  -0.00003  -0.00003   1.03327
    D4        1.05560  -0.00000   0.00000  -0.00002  -0.00002   1.05558
    D5        3.14087  -0.00000   0.00000  -0.00002  -0.00002   3.14085
    D6       -1.05785  -0.00000   0.00000  -0.00002  -0.00002  -1.05787
    D7        0.33795  -0.00000   0.00000  -0.00029  -0.00029   0.33766
    D8       -2.95730  -0.00000   0.00000  -0.00019  -0.00019  -2.95749
    D9       -1.77182  -0.00000   0.00000  -0.00030  -0.00030  -1.77212
   D10        1.21611  -0.00000   0.00000  -0.00020  -0.00020   1.21592
   D11        2.46306  -0.00000   0.00000  -0.00029  -0.00029   2.46277
   D12       -0.83219  -0.00000   0.00000  -0.00019  -0.00019  -0.83238
         Item               Value     Threshold  Converged?
 Maximum Force            0.000000     0.000002     YES
 RMS     Force            0.000000     0.000001     YES
 Maximum Displacement     0.000399     0.000006     NO 
 RMS     Displacement     0.000095     0.000004     NO 
 Predicted change in Energy=-1.789256D-11
                           ----------------------------
                           ! Non-Optimized Parameters !
                           ! (Angstroms and Degrees)  !
 --------------------------                            --------------------------
 ! Name  Definition              Value          Derivative Info.                !
 --------------------------------------------------------------------------------
 ! R1    R(1,2)                  1.4056         -DE/DX =    0.0                 !
 ! R2    R(1,3)                  1.4027         -DE/DX =    0.0                 !
 ! R3    R(2,4)                  1.4774         -DE/DX =    0.0                 !
 ! R4    R(2,5)                  1.105          -DE/DX =    0.0                 !
 ! R5    R(2,6)                  1.1013         -DE/DX =    0.0                 !
 ! R6    R(3,7)                  1.0957         -DE/DX =    0.0                 !
 ! R7    R(3,8)                  1.087          -DE/DX =    0.0                 !
 ! R8    R(3,9)                  1.0957         -DE/DX =    0.0                 !
 ! R9    R(4,10)                 1.0782         -DE/DX =    0.0                 !
 ! R10   R(4,11)                 1.0781         -DE/DX =    0.0                 !
 ! A1    A(2,1,3)              112.3825         -DE/DX =    0.0                 !
 ! A2    A(1,2,4)              109.5906         -DE/DX =    0.0                 !
 ! A3    A(1,2,5)              109.3678         -DE/DX =    0.0                 !
 ! A4    A(1,2,6)              110.1651         -DE/DX =    0.0                 !
 ! A5    A(4,2,5)              110.9577         -DE/DX =    0.0                 !
 ! A6    A(4,2,6)              110.7739         -DE/DX =    0.0                 !
 ! A7    A(5,2,6)              105.9262         -DE/DX =    0.0                 !
 ! A8    A(1,3,7)              111.2213         -DE/DX =    0.0                 !
 ! A9    A(1,3,8)              107.6266         -DE/DX =    0.0                 !
 ! A10   A(1,3,9)              111.2216         -DE/DX =    0.0                 !
 ! A11   A(7,3,8)              109.121          -DE/DX =    0.0                 !
 ! A12   A(7,3,9)              108.525          -DE/DX =    0.0                 !
 ! A13   A(8,3,9)              109.0832         -DE/DX =    0.0                 !
 ! A14   A(2,4,10)             119.3594         -DE/DX =    0.0                 !
 ! A15   A(2,4,11)             120.2106         -DE/DX =    0.0                 !
 ! A16   A(10,4,11)            119.8428         -DE/DX =    0.0                 !
 ! D1    D(3,1,2,4)           -178.674          -DE/DX =    0.0                 !
 ! D2    D(3,1,2,5)            -56.8348         -DE/DX =    0.0                 !
 ! D3    D(3,1,2,6)             59.2018         -DE/DX =    0.0                 !
 ! D4    D(2,1,3,7)             60.4802         -DE/DX =    0.0                 !
 ! D5    D(2,1,3,8)            179.9575         -DE/DX =    0.0                 !
 ! D6    D(2,1,3,9)            -60.6112         -DE/DX =    0.0                 !
 ! D7    D(1,2,4,10)            19.3465         -DE/DX =    0.0                 !
 ! D8    D(1,2,4,11)          -169.4517         -DE/DX =    0.0                 !
 ! D9    D(5,2,4,10)          -101.5348         -DE/DX =    0.0                 !
 ! D10   D(5,2,4,11)            69.667          -DE/DX =    0.0                 !
 ! D11   D(6,2,4,10)           141.1062         -DE/DX =    0.0                 !
 ! D12   D(6,2,4,11)           -47.6919         -DE/DX =    0.0                 !
 --------------------------------------------------------------------------------
 GradGradGradGradGradGradGradGradGradGradGradGradGradGradGradGradGradGrad

 Leave Link  103 at Mon Mar 11 15:50:39 2019, MaxMem=   671088640 cpu:               0.4 elap:               0.0
 (Enter /shared/centos7/gaussian/g16/l9999.exe)

 ----------------------------------------------------------------------

 Electric dipole moment (input orientation):
 (Debye = 10**-18 statcoulomb cm , SI units = C m)
                  (au)            (Debye)         (10**-30 SI)
   Tot        0.564837D+00      0.143567D+01      0.478889D+01
   x          0.150575D+00      0.382725D+00      0.127663D+01
   y          0.537269D+00      0.136560D+01      0.455516D+01
   z          0.878053D-01      0.223179D+00      0.744444D+00

 Dipole polarizability, Alpha (input orientation).
 (esu units = cm**3 , SI units = C**2 m**2 J**-1)
 Alpha(0;0):
               (au)            (10**-24 esu)      (10**-40 SI)
   iso        0.426016D+02      0.631291D+01      0.702406D+01
   aniso      0.126832D+02      0.187946D+01      0.209118D+01
   xx         0.508989D+02      0.754244D+01      0.839209D+01
   yx         0.943608D+00      0.139828D+00      0.155580D+00
   yy         0.394749D+02      0.584958D+01      0.650854D+01
   zx         0.201436D+00      0.298497D-01      0.332123D-01
   zy         0.111245D+00      0.164848D-01      0.183419D-01
   zz         0.374310D+02      0.554670D+01      0.617154D+01

 ----------------------------------------------------------------------

 Dipole orientation:
     8          1.03244565         -0.30070726         -0.69798579
     6         -1.19605007          0.38358333          0.57509218
     6          3.05598450         -0.71826069          0.96262525
     6         -3.25944484          0.73496772         -1.27256544
     1         -1.68213956         -1.09715420          1.96495041
     1         -0.88790799          2.12193290          1.67690461
     1          2.63387454         -2.25242253          2.28765408
     1          4.69126142         -1.23603215         -0.16736618
     1          3.49727315          0.98746636          2.05014906
     1         -3.09066006         -0.09073782         -3.12751577
     1         -5.02407729          1.57117276         -0.69186198

 Electric dipole moment (dipole orientation):
 (Debye = 10**-18 statcoulomb cm , SI units = C m)
                  (au)            (Debye)         (10**-30 SI)
   Tot        0.564837D+00      0.143567D+01      0.478889D+01
   x          0.000000D+00      0.000000D+00      0.000000D+00
   y          0.000000D+00      0.000000D+00      0.000000D+00
   z          0.564837D+00      0.143567D+01      0.478889D+01

 Dipole polarizability, Alpha (dipole orientation).
 (esu units = cm**3 , SI units = C**2 m**2 J**-1)
 Alpha(0;0):
               (au)            (10**-24 esu)      (10**-40 SI)
   iso        0.426016D+02      0.631291D+01      0.702406D+01
   aniso      0.126832D+02      0.187946D+01      0.209118D+01
   xx         0.489151D+02      0.724847D+01      0.806502D+01
   yx        -0.278481D+01     -0.412667D+00     -0.459154D+00
   yy         0.381242D+02      0.564942D+01      0.628583D+01
   zx         0.371303D+01      0.550214D+00      0.612196D+00
   zy        -0.663359D+00     -0.982996D-01     -0.109373D+00
   zz         0.407655D+02      0.604083D+01      0.672133D+01

 ----------------------------------------------------------------------

 Test job not archived.
 1\1\GINC-C0278\Freq\UM062X\6-311+G(2df,2p)\C3H7O1(2)\UNDERKOFFLER.C\11
 -Mar-2019\0\\#P Geom=AllCheck Guess=TCheck SCRF=Check Test GenChk UM06
 2X/6-311+G(2df,2p) Freq\\Gaussian input prepared by ASE\\0,2\O,0.44920
 0925,-0.5057539526,-0.0517029315\C,-0.5574128139,0.4724099584,0.022957
 3512\C,1.7369034094,0.0471795124,0.0096186097\C,-1.8836111666,-0.17764
 16403,-0.0148223791\H,-0.4307936842,1.058443085,0.951190858\H,-0.45082
 49327,1.1908000894,-0.8048726757\H,1.892355502,0.5870171718,0.95038470
 13\H,2.4497538039,-0.7709527694,-0.0534035995\H,1.9113887054,0.7391696
 491,-0.8217491626\H,-1.9655736757,-1.2257299772,0.2243942628\H,-2.7751
 710725,0.4155878734,-0.1390210347\\Version=EM64L-G16RevA.03\State=2-A\
 HF=-193.6431296\S2=0.755228\S2-1=0.\S2A=0.750021\RMSD=5.333e-09\RMSF=1
 .116e-06\ZeroPoint=0.093323\Thermal=0.0994848\Dipole=0.1505754,0.53726
 92,0.0878053\DipoleDeriv=-1.2606583,0.0466529,-0.0010143,0.1185963,-0.
 629232,-0.0171728,0.0106386,-0.0169495,-0.4361083,0.6940027,-0.161833,
 -0.0175293,-0.3943239,0.4262712,0.0142211,-0.0597777,0.0124041,0.44016
 04,0.7785544,0.1256571,0.0115324,0.2686635,0.3285612,-0.0015083,0.0246
 964,-0.0019912,0.3758711,-0.0248514,-0.0104535,0.0335805,-0.0227171,0.
 0494646,-0.0737607,0.0450233,-0.0745356,-0.3384787,-0.0529198,-0.05851
 99,-0.0600851,0.0412295,-0.0315932,-0.0730201,-0.0174618,-0.1230189,-0
 .1057451,-0.0254573,-0.0511572,0.0440291,0.0465138,-0.0656707,0.081004
 9,0.0136529,0.129564,-0.0740624,-0.0126297,0.0113552,0.030785,-0.08161
 17,-0.0027407,-0.0834794,-0.062068,-0.097879,-0.1265122,-0.0633581,0.0
 483992,0.0031141,0.1077033,-0.0342313,-0.0083454,0.0087573,-0.0088108,
 0.0775277,-0.0131065,0.0133407,-0.0251716,-0.0942006,-0.03778,0.098484
 8,0.0510664,0.114509,-0.0930368,0.0289422,0.0128202,-0.0098861,-0.0371
 854,-0.0108443,0.0376467,-0.0139815,0.0402017,0.1350356,-0.0485182,0.0
 237383,-0.0093548,0.0473323,0.0077952,0.0259291,-0.0005458,0.0265061,0
 .1453486\Polar=50.8988931,0.9436077,39.4749297,0.2014361,0.1112452,37.
 4310049\Quadrupole=1.7676218,-0.6252165,-1.1424053,-0.1576053,-0.06712
 75,-0.3542554\PG=C01 [X(C3H7O1)]\NImag=0\\0.53331344,-0.02554380,0.352
 70989,0.00162625,0.02202225,0.10045346,-0.15900755,0.05827550,0.005184
 81,0.52542794,0.10208069,-0.18200257,-0.00770505,0.02560825,0.52596616
 ,0.01104315,-0.00750424,-0.06321415,-0.00008328,-0.02080076,0.50398036
 ,-0.23188772,-0.04517703,-0.00523437,-0.05023976,-0.00537296,-0.000439
 16,0.53478955,-0.09064733,-0.12411925,-0.00618331,0.02844280,0.0090456
 8,0.00119814,-0.05889904,0.59021251,-0.00946275,-0.00569427,-0.0637822
 3,0.00226866,0.00154272,-0.00384013,-0.00564706,0.00176272,0.56035637,
 -0.04325316,-0.00809747,-0.00139655,-0.20981592,-0.05887150,-0.0072393
 3,-0.00298208,0.00320394,0.00009760,0.58555424,0.03290464,0.01314824,0
 .00090438,-0.07948103,-0.12370132,0.00681662,0.00196622,-0.00441968,-0
 .00047960,-0.03222655,0.61996170,-0.00058854,-0.00000237,0.00153473,-0
 .00699713,0.00770123,-0.04347983,-0.00038829,0.00007567,0.00001249,0.0
 4106831,-0.10857609,0.06937054,-0.00910524,0.02331705,0.02249378,-0.04
 993249,-0.01990090,-0.03546902,0.00463508,0.00370977,0.00351476,-0.008
 30784,-0.01734157,-0.01922151,0.06028027,0.01282585,-0.02551448,-0.024
 74449,-0.01161599,-0.09831708,-0.09372070,-0.00397040,-0.00055041,0.00
 007467,-0.00998979,-0.00835984,-0.01101199,0.01060970,0.12204317,0.006
 12987,-0.00724800,0.00302346,-0.02202265,-0.09235303,-0.21211050,-0.00
 167866,0.00038160,0.00128802,-0.00525364,-0.00121359,0.00287580,0.0260
 4060,0.11159654,0.23197407,-0.00888274,0.02504195,-0.01921627,-0.05355
 903,-0.01998105,0.02863029,0.00486049,0.00408158,-0.00266843,-0.003139
 14,-0.02182452,0.01721970,0.00360985,0.00164347,-0.00414387,0.06018816
 ,0.01249840,-0.02779811,0.01859254,-0.01493296,-0.13382552,0.11163669,
 -0.00391178,-0.00041224,-0.00059278,-0.00752219,-0.01154495,0.00938774
 ,0.00089992,0.01013392,-0.01114664,0.01321482,0.16212985,-0.00492948,0
 .00112752,0.00812924,0.02223129,0.11328169,-0.18830549,0.00078175,-0.0
 0057217,0.00115996,0.00067178,-0.00216310,0.00376032,0.00372176,0.0164
 3924,-0.02563950,-0.02161700,-0.12732026,0.20201073,-0.02207918,-0.022
 32073,-0.03038480,0.00445633,-0.00527552,-0.00341729,-0.05215471,-0.00
 680522,-0.01729909,-0.00038972,0.00009318,0.00033730,0.00061493,0.0009
 1951,0.00138041,-0.00045504,0.00054308,0.00023307,0.06345787,-0.013383
 35,-0.00958529,-0.01352901,0.00211427,-0.00012060,0.00160776,-0.009499
 24,-0.10758038,-0.10125020,0.00005768,0.00020214,0.00024759,-0.0008810
 3,0.00081627,0.00003319,-0.00037170,0.00013692,0.00000633,0.02165169,0
 .11556979,-0.00824650,-0.00326656,0.00515921,0.00160465,-0.00019021,0.
 00140141,-0.02061070,-0.10288059,-0.24127862,-0.00001401,0.00050676,0.
 00028497,-0.00133591,0.00059422,-0.00020589,0.00003743,0.00002686,-0.0
 0066692,0.02888157,0.11701292,0.25732475,-0.03417168,0.02446642,0.0018
 0870,-0.00323595,-0.00532089,-0.00043267,-0.15359003,0.12760027,0.0099
 0661,-0.00099473,0.00173544,-0.00007110,0.00007097,0.00010539,0.000280
 38,-0.00000193,0.00015977,-0.00025988,0.00419414,-0.00240802,0.0007311
 6,0.18361155,-0.01357221,0.01476158,0.00112678,-0.00244856,-0.00013403
 ,-0.00002805,0.14069165,-0.21739776,-0.01292688,-0.00062570,0.00071534
 ,-0.00006384,-0.00016394,0.00012303,0.00030320,-0.00023021,0.00020740,
 -0.00030110,0.00827614,-0.01021766,0.00040174,-0.14321576,0.22571519,-
 0.00158660,0.00142495,0.00024902,-0.00022385,-0.00007565,0.00013875,0.
 01098676,-0.01298983,-0.05195545,-0.00001979,-0.00001468,0.00040451,-0
 .00015145,0.00040376,0.00037607,0.00017093,-0.00038155,0.00025714,0.01
 816918,-0.02195585,-0.00031872,-0.01090687,0.01391557,0.04821206,-0.02
 276223,-0.02724188,0.02558654,0.00441600,-0.00594181,0.00260035,-0.053
 30991,-0.01221574,0.01913106,-0.00036713,0.00014779,-0.00024027,-0.000
 46511,0.00057796,-0.00008175,0.00060510,0.00113401,-0.00123767,0.00227
 840,0.00274047,-0.00110885,0.00456968,0.01132287,-0.01642379,0.0649651
 7,-0.01470151,-0.01164622,0.01015545,0.00227037,0.00010045,-0.00178535
 ,-0.01540186,-0.14620028,0.11761782,-0.00001869,0.00036323,-0.00024384
 ,-0.00037425,0.00013276,0.00010824,-0.00114923,0.00086350,0.00014699,0
 .00279408,0.01078232,-0.01217589,-0.00269347,-0.01363081,0.01967644,0.
 02919238,0.15923609,0.00515025,-0.00041558,0.00826871,-0.00113687,-0.0
 0016350,0.00117084,0.02199771,0.11934713,-0.20250807,0.00011284,-0.000
 51300,0.00021555,-0.00013873,0.00011539,-0.00067554,0.00123929,-0.0003
 1797,-0.00031327,0.00211636,0.01787233,-0.02163013,-0.00111095,-0.0024
 4317,0.00262790,-0.02810955,-0.13352973,0.21290277,0.00343790,0.000765
 76,-0.00001900,0.00116043,-0.02541126,0.00670567,-0.00025813,-0.000014
 63,0.00004361,-0.05560863,-0.02058842,0.00076259,-0.00129071,-0.000582
 22,-0.00007315,-0.00376096,-0.00182273,-0.00025130,0.00013187,0.000058
 19,0.00014015,0.00003766,0.00012648,-0.00001615,0.00014503,0.00018778,
 -0.00020683,0.04984272,0.00064639,0.00131946,-0.00040407,0.00244054,-0
 .00804072,0.00436011,0.00023647,0.00043992,-0.00007127,-0.02363856,-0.
 33816502,0.07328582,-0.00041012,-0.00028986,0.00003703,-0.00129877,-0.
 00023677,-0.00117667,0.00007637,-0.00001536,-0.00000717,-0.00007945,-0
 .00001535,-0.00000695,0.00020583,-0.00001269,0.00001074,0.02554066,0.3
 5206335,0.00001468,0.00044558,-0.00050323,-0.00027127,-0.00308620,0.00
 433731,-0.00003996,-0.00011791,-0.00004964,0.00106368,0.07849933,-0.02
 236541,-0.00024625,0.00032240,-0.00113784,0.00072437,0.00085338,-0.000
 83270,-0.00006328,-0.00006331,-0.00002093,0.00003123,0.00001620,0.0000
 1309,-0.00002807,0.00003018,-0.00002851,-0.00213991,-0.07844845,0.0191
 4457,-0.00560184,-0.00348576,-0.00044909,-0.00967000,0.01838694,-0.001
 89872,0.00013720,0.00154361,0.00011502,-0.26069589,0.13461483,-0.03188
 106,-0.00010972,-0.00052347,-0.00057754,0.00053523,-0.00026034,0.00065
 568,-0.00005489,-0.00007896,-0.00007900,-0.00048969,-0.00016076,0.0000
 0163,-0.00007499,-0.00010560,0.00008648,0.00616281,-0.00371936,0.00095
 478,0.26986178,-0.00310775,-0.00127324,-0.00023547,-0.01067319,0.01102
 954,-0.00178020,-0.00066203,0.00098189,0.00001707,0.13772884,-0.148199
 85,0.02920009,0.00053537,-0.00021748,-0.00049853,0.00087365,0.00034601
 ,0.00053152,0.00004742,0.00001186,-0.00002208,-0.00034970,-0.00012693,
 0.00000380,0.00007811,0.00001164,0.00003736,0.02174041,-0.00704697,0.0
 0154881,-0.14621112,0.14448353,0.00084967,-0.00088928,0.00068178,-0.00
 055435,0.00184876,-0.00007857,0.00027195,-0.00002144,0.00059730,-0.029
 09091,0.02623298,-0.01261367,0.00079197,-0.00006905,0.00023185,-0.0003
 7643,-0.00073800,0.00044049,0.00004658,0.00001825,-0.00004914,0.000023
 39,-0.00000043,-0.00000436,-0.00008799,-0.00000031,-0.00003025,-0.0049
 4569,0.00242088,0.00144329,0.03307182,-0.02880236,0.00938127\\-0.00000
 046,-0.00000040,0.00000100,0.00000030,0.00000034,-0.00000043,-0.000000
 17,-0.00000121,0.00000001,-0.00000024,0.00000123,0.00000074,0.00000069
 ,0.00000180,-0.00000135,0.00000059,-0.00000096,-0.00000156,0.00000040,
 0.00000021,-0.00000085,-0.00000064,-0.00000175,0.00000122,0.00000032,-
 0.00000260,-0.00000110,-0.00000093,0.00000170,0.00000245,0.00000014,0.
 00000165,-0.00000013\\\@


 I do not feel obliged to believe that the same God who
 has endowed us with sense, reason, and intellect has
 intended us to forgo their use.
                   --Galileo Galilei
 Job cpu time:       0 days  0 hours 51 minutes 36.4 seconds.
 Elapsed time:       0 days  0 hours  2 minutes 35.9 seconds.
 File lengths (MBytes):  RWF=   1328 Int=      0 D2E=      0 Chk=     32 Scr=     32
 Normal termination of Gaussian 16 at Mon Mar 11 15:50:39 2019.
