 Entering Gaussian System, Link 0=g16
 Input=GIXGVIVAHMJKNP-UHFFFAOYSA-N_GeoFreq_a1.com
 Output=GIXGVIVAHMJKNP-UHFFFAOYSA-N_GeoFreq_a1.log
 Initial command:
 /shared/centos7/gaussian/g16/l1.exe "/scratch/underkoffler.c/gaussian_scratch/Gau-43611.inp" -scrdir="/scratch/underkoffler.c/gaussian_scratch/"
 Entering Link 1 = /shared/centos7/gaussian/g16/l1.exe PID=     43612.
  
 Copyright (c) 1988,1990,1992,1993,1995,1998,2003,2009,2016,
            Gaussian, Inc.  All Rights Reserved.
  
 This is part of the Gaussian(R) 16 program.  It is based on
 the Gaussian(R) 09 system (copyright 2009, Gaussian, Inc.),
 the Gaussian(R) 03 system (copyright 2003, Gaussian, Inc.),
 the Gaussian(R) 98 system (copyright 1998, Gaussian, Inc.),
 the Gaussian(R) 94 system (copyright 1995, Gaussian, Inc.),
 the Gaussian 92(TM) system (copyright 1992, Gaussian, Inc.),
 the Gaussian 90(TM) system (copyright 1990, Gaussian, Inc.),
 the Gaussian 88(TM) system (copyright 1988, Gaussian, Inc.),
 the Gaussian 86(TM) system (copyright 1986, Carnegie Mellon
 University), and the Gaussian 82(TM) system (copyright 1983,
 Carnegie Mellon University). Gaussian is a federally registered
 trademark of Gaussian, Inc.
  
 This software contains proprietary and confidential information,
 including trade secrets, belonging to Gaussian, Inc.
  
 This software is provided under written license and may be
 used, copied, transmitted, or stored only in accord with that
 written license.
  
 The following legend is applicable only to US Government
 contracts under FAR:
  
                    RESTRICTED RIGHTS LEGEND
  
 Use, reproduction and disclosure by the US Government is
 subject to restrictions as set forth in subparagraphs (a)
 and (c) of the Commercial Computer Software - Restricted
 Rights clause in FAR 52.227-19.
  
 Gaussian, Inc.
 340 Quinnipiac St., Bldg. 40, Wallingford CT 06492
  
  
 ---------------------------------------------------------------
 Warning -- This program may not be used in any manner that
 competes with the business of Gaussian, Inc. or will provide
 assistance to any competitor of Gaussian, Inc.  The licensee
 of this program is prohibited from giving any competitor of
 Gaussian, Inc. access to this program.  By using this program,
 the user acknowledges that Gaussian, Inc. is engaged in the
 business of creating and licensing software in the field of
 computational chemistry and represents and warrants to the
 licensee that it is not a competitor of Gaussian, Inc. and that
 it will not use this program in any manner prohibited above.
 ---------------------------------------------------------------
  

 Cite this work as:
 Gaussian 16, Revision A.03,
 M. J. Frisch, G. W. Trucks, H. B. Schlegel, G. E. Scuseria, 
 M. A. Robb, J. R. Cheeseman, G. Scalmani, V. Barone, 
 G. A. Petersson, H. Nakatsuji, X. Li, M. Caricato, A. V. Marenich, 
 J. Bloino, B. G. Janesko, R. Gomperts, B. Mennucci, H. P. Hratchian, 
 J. V. Ortiz, A. F. Izmaylov, J. L. Sonnenberg, D. Williams-Young, 
 F. Ding, F. Lipparini, F. Egidi, J. Goings, B. Peng, A. Petrone, 
 T. Henderson, D. Ranasinghe, V. G. Zakrzewski, J. Gao, N. Rega, 
 G. Zheng, W. Liang, M. Hada, M. Ehara, K. Toyota, R. Fukuda, 
 J. Hasegawa, M. Ishida, T. Nakajima, Y. Honda, O. Kitao, H. Nakai, 
 T. Vreven, K. Throssell, J. A. Montgomery, Jr., J. E. Peralta, 
 F. Ogliaro, M. J. Bearpark, J. J. Heyd, E. N. Brothers, K. N. Kudin, 
 V. N. Staroverov, T. A. Keith, R. Kobayashi, J. Normand, 
 K. Raghavachari, A. P. Rendell, J. C. Burant, S. S. Iyengar, 
 J. Tomasi, M. Cossi, J. M. Millam, M. Klene, C. Adamo, R. Cammi, 
 J. W. Ochterski, R. L. Martin, K. Morokuma, O. Farkas, 
 J. B. Foresman, and D. J. Fox, Gaussian, Inc., Wallingford CT, 2016.
 
 ******************************************
 Gaussian 16:  EM64L-G16RevA.03 25-Dec-2016
                11-Mar-2019 
 ******************************************
 %nprocshared=20
 Will use up to   20 processors via shared memory.
 %mem=5GB
 ----------------------------------------------------------------------
 #p m062x/6-311+g(2df,2p) opt=(calcfc,verytight,gdiis,maxcycles=900) fr
 eq iop(7/33=1,2/16=3)
 ----------------------------------------------------------------------

 Warning!  Use of Opt=GDIIS is deprecated since it is seldom a good choice.

 1/6=900,7=1,10=4,18=20,19=11,26=3,38=1/1,3;
 2/9=110,12=2,16=3,17=6,18=5,40=1/2;
 3/5=4,6=6,7=214,11=2,25=1,30=1,71=2,74=-55,140=1/1,2,3;
 4//1;
 5/5=2,38=5/2;
 8/6=4,10=90,11=11/1;
 11/6=1,8=1,9=11,15=111,16=1/1,2,10;
 10/6=1,13=1/2;
 6/7=2,8=2,9=2,10=2,28=1/1;
 7/10=1,18=20,25=1,33=1/1,2,3,16;
 1/6=900,7=1,10=4,18=20,19=11,26=3/3(2);
 2/9=110,16=3/2;
 99//99;
 2/9=110,16=3/2;
 3/5=4,6=6,7=214,11=2,25=1,30=1,71=1,74=-55/1,2,3;
 4/5=5,16=3,69=1/1;
 5/5=2,38=5/2;
 7/33=1/1,2,3,16;
 1/6=900,7=1,18=20,19=11,26=3/3(-5);
 2/9=110,16=3/2;
 6/7=2,8=2,9=2,10=2,19=2,28=1/1;
 99/9=1/99;
 Leave Link    1 at Mon Mar 11 15:39:19 2019, MaxMem=   671088640 cpu:              25.0 elap:               1.3
 (Enter /shared/centos7/gaussian/g16/l101.exe)
 ------------------------------
 Gaussian input prepared by ASE
 ------------------------------
 Symbolic Z-matrix:
 Charge =  0 Multiplicity = 2
 O                     2.42587   0.42296  -0.07337 
 C                    -1.23557  -0.53417  -0.06356 
 C                     1.35328  -0.49356   0.04848 
 C                    -2.4453    0.39623  -0.06514 
 C                     0.03895   0.17213   0.23431 
 H                    -1.15139  -1.04485  -1.02821 
 H                    -1.4013   -1.3355    0.67112 
 H                    -2.55857   0.88043   0.90505 
 H                    -3.36405  -0.14747  -0.27932 
 H                    -2.32831   1.17745  -0.81598 
 H                     1.31013  -1.1675   -0.81701 
 H                     1.60721  -1.11677   0.91436 
 H                     0.01898   1.05932   0.85782 
 H                     2.1923    1.06749  -0.74541 
 
 ITRead=  0  0  0  0  0  0  0  0  0  0  0  0  0  0
 MicOpt= -1 -1 -1 -1 -1 -1 -1 -1 -1 -1 -1 -1 -1 -1
 NAtoms=     14 NQM=       14 NQMF=       0 NMMI=      0 NMMIF=      0
                NMic=       0 NMicF=      0.
                    Isotopes and Nuclear Properties:
 (Nuclear quadrupole moments (NQMom) in fm**2, nuclear magnetic moments (NMagM)
  in nuclear magnetons)

  Atom         1           2           3           4           5           6           7           8           9          10
 IAtWgt=          16          12          12          12          12           1           1           1           1           1
 AtmWgt=  15.9949146  12.0000000  12.0000000  12.0000000  12.0000000   1.0078250   1.0078250   1.0078250   1.0078250   1.0078250
 NucSpn=           0           0           0           0           0           1           1           1           1           1
 AtZEff=  -0.0000000  -0.0000000  -0.0000000  -0.0000000  -0.0000000  -0.0000000  -0.0000000  -0.0000000  -0.0000000  -0.0000000
 NQMom=    0.0000000   0.0000000   0.0000000   0.0000000   0.0000000   0.0000000   0.0000000   0.0000000   0.0000000   0.0000000
 NMagM=    0.0000000   0.0000000   0.0000000   0.0000000   0.0000000   2.7928460   2.7928460   2.7928460   2.7928460   2.7928460
 AtZNuc=   8.0000000   6.0000000   6.0000000   6.0000000   6.0000000   1.0000000   1.0000000   1.0000000   1.0000000   1.0000000

  Atom        11          12          13          14
 IAtWgt=           1           1           1           1
 AtmWgt=   1.0078250   1.0078250   1.0078250   1.0078250
 NucSpn=           1           1           1           1
 AtZEff=  -0.0000000  -0.0000000  -0.0000000  -0.0000000
 NQMom=    0.0000000   0.0000000   0.0000000   0.0000000
 NMagM=    2.7928460   2.7928460   2.7928460   2.7928460
 AtZNuc=   1.0000000   1.0000000   1.0000000   1.0000000
 Leave Link  101 at Mon Mar 11 15:39:19 2019, MaxMem=   671088640 cpu:               5.3 elap:               0.3
 (Enter /shared/centos7/gaussian/g16/l103.exe)

 GradGradGradGradGradGradGradGradGradGradGradGradGradGradGradGradGradGrad
 Berny optimization.
 Initialization pass.
                           ----------------------------
                           !    Initial Parameters    !
                           ! (Angstroms and Degrees)  !
 --------------------------                            --------------------------
 ! Name  Definition              Value          Derivative Info.                !
 --------------------------------------------------------------------------------
 ! R1    R(1,3)                  1.4161         calculate D2E/DX2 analytically  !
 ! R2    R(1,14)                 0.96           calculate D2E/DX2 analytically  !
 ! R3    R(2,4)                  1.5261         calculate D2E/DX2 analytically  !
 ! R4    R(2,5)                  1.4873         calculate D2E/DX2 analytically  !
 ! R5    R(2,6)                  1.0947         calculate D2E/DX2 analytically  !
 ! R6    R(2,7)                  1.0997         calculate D2E/DX2 analytically  !
 ! R7    R(3,5)                  1.485          calculate D2E/DX2 analytically  !
 ! R8    R(3,11)                 1.0978         calculate D2E/DX2 analytically  !
 ! R9    R(3,12)                 1.0966         calculate D2E/DX2 analytically  !
 ! R10   R(4,8)                  1.0902         calculate D2E/DX2 analytically  !
 ! R11   R(4,9)                  1.0888         calculate D2E/DX2 analytically  !
 ! R12   R(4,10)                 1.0898         calculate D2E/DX2 analytically  !
 ! R13   R(5,13)                 1.0845         calculate D2E/DX2 analytically  !
 ! A1    A(3,1,14)             108.0888         calculate D2E/DX2 analytically  !
 ! A2    A(4,2,5)              112.9527         calculate D2E/DX2 analytically  !
 ! A3    A(4,2,6)              110.1471         calculate D2E/DX2 analytically  !
 ! A4    A(4,2,7)              108.9938         calculate D2E/DX2 analytically  !
 ! A5    A(5,2,6)              109.3974         calculate D2E/DX2 analytically  !
 ! A6    A(5,2,7)              109.9617         calculate D2E/DX2 analytically  !
 ! A7    A(6,2,7)              105.0914         calculate D2E/DX2 analytically  !
 ! A8    A(1,3,5)              113.0179         calculate D2E/DX2 analytically  !
 ! A9    A(1,3,11)             111.0548         calculate D2E/DX2 analytically  !
 ! A10   A(1,3,12)             105.0915         calculate D2E/DX2 analytically  !
 ! A11   A(5,3,11)             109.8209         calculate D2E/DX2 analytically  !
 ! A12   A(5,3,12)             111.1555         calculate D2E/DX2 analytically  !
 ! A13   A(11,3,12)            106.4228         calculate D2E/DX2 analytically  !
 ! A14   A(2,4,8)              110.6219         calculate D2E/DX2 analytically  !
 ! A15   A(2,4,9)              111.3855         calculate D2E/DX2 analytically  !
 ! A16   A(2,4,10)             110.6483         calculate D2E/DX2 analytically  !
 ! A17   A(8,4,9)              108.008          calculate D2E/DX2 analytically  !
 ! A18   A(8,4,10)             107.8115         calculate D2E/DX2 analytically  !
 ! A19   A(9,4,10)             108.2396         calculate D2E/DX2 analytically  !
 ! A20   A(2,5,3)              121.3669         calculate D2E/DX2 analytically  !
 ! A21   A(2,5,13)             119.1985         calculate D2E/DX2 analytically  !
 ! A22   A(3,5,13)             117.0617         calculate D2E/DX2 analytically  !
 ! D1    D(14,1,3,5)           -51.0394         calculate D2E/DX2 analytically  !
 ! D2    D(14,1,3,11)           72.9002         calculate D2E/DX2 analytically  !
 ! D3    D(14,1,3,12)         -172.4179         calculate D2E/DX2 analytically  !
 ! D4    D(5,2,4,8)            -59.4956         calculate D2E/DX2 analytically  !
 ! D5    D(5,2,4,9)           -179.6349         calculate D2E/DX2 analytically  !
 ! D6    D(5,2,4,10)            59.9155         calculate D2E/DX2 analytically  !
 ! D7    D(6,2,4,8)            177.851          calculate D2E/DX2 analytically  !
 ! D8    D(6,2,4,9)             57.7117         calculate D2E/DX2 analytically  !
 ! D9    D(6,2,4,10)           -62.7379         calculate D2E/DX2 analytically  !
 ! D10   D(7,2,4,8)             63.0429         calculate D2E/DX2 analytically  !
 ! D11   D(7,2,4,9)            -57.0965         calculate D2E/DX2 analytically  !
 ! D12   D(7,2,4,10)          -177.5461         calculate D2E/DX2 analytically  !
 ! D13   D(4,2,5,3)           -168.9854         calculate D2E/DX2 analytically  !
 ! D14   D(4,2,5,13)            29.0142         calculate D2E/DX2 analytically  !
 ! D15   D(6,2,5,3)            -45.9149         calculate D2E/DX2 analytically  !
 ! D16   D(6,2,5,13)           152.0848         calculate D2E/DX2 analytically  !
 ! D17   D(7,2,5,3)             69.0183         calculate D2E/DX2 analytically  !
 ! D18   D(7,2,5,13)           -92.9821         calculate D2E/DX2 analytically  !
 ! D19   D(1,3,5,2)            159.4114         calculate D2E/DX2 analytically  !
 ! D20   D(1,3,5,13)           -38.2211         calculate D2E/DX2 analytically  !
 ! D21   D(11,3,5,2)            34.7971         calculate D2E/DX2 analytically  !
 ! D22   D(11,3,5,13)         -162.8353         calculate D2E/DX2 analytically  !
 ! D23   D(12,3,5,2)           -82.7014         calculate D2E/DX2 analytically  !
 ! D24   D(12,3,5,13)           79.6662         calculate D2E/DX2 analytically  !
 --------------------------------------------------------------------------------
 Trust Radius=3.00D-01 FncErr=1.00D-07 GrdErr=1.00D-06 EigMax=2.50D+02 EigMin=1.00D-04
 Number of steps in this run=    100 maximum allowed number of steps=    100.
 GradGradGradGradGradGradGradGradGradGradGradGradGradGradGradGradGradGrad

 Leave Link  103 at Mon Mar 11 15:39:19 2019, MaxMem=   671088640 cpu:               0.2 elap:               0.0
 (Enter /shared/centos7/gaussian/g16/l202.exe)
                          Input orientation:                          
 ---------------------------------------------------------------------
 Center     Atomic      Atomic             Coordinates (Angstroms)
 Number     Number       Type             X           Y           Z
 ---------------------------------------------------------------------
      1          8           0        2.425867    0.422957   -0.073374
      2          6           0       -1.235573   -0.534171   -0.063559
      3          6           0        1.353275   -0.493564    0.048483
      4          6           0       -2.445302    0.396226   -0.065142
      5          6           0        0.038946    0.172134    0.234314
      6          1           0       -1.151389   -1.044847   -1.028213
      7          1           0       -1.401304   -1.335503    0.671121
      8          1           0       -2.558571    0.880428    0.905046
      9          1           0       -3.364053   -0.147466   -0.279316
     10          1           0       -2.328314    1.177448   -0.815983
     11          1           0        1.310126   -1.167504   -0.817010
     12          1           0        1.607210   -1.116768    0.914355
     13          1           0        0.018976    1.059317    0.857816
     14          1           0        2.192300    1.067489   -0.745405
 ---------------------------------------------------------------------
                    Distance matrix (angstroms):
                    1          2          3          4          5
     1  O    0.000000
     2  C    3.784486   0.000000
     3  C    1.416091   2.591590   0.000000
     4  C    4.871249   1.526134   3.903053   0.000000
     5  C    2.419706   1.487277   1.484974   2.512246   0.000000
     6  H    3.982829   1.094730   2.781462   2.162963   2.119414
     7  H    4.277113   1.099707   2.946904   2.151953   2.130279
     8  H    5.100118   2.165551   4.233686   1.090205   2.774645
     9  H    5.821595   2.174056   4.741352   1.088841   3.456351
    10  H    4.870622   2.165609   4.134450   1.089842   2.778075
    11  H    2.080250   2.729356   1.097786   4.136882   2.125044
    12  H    2.004136   3.062213   1.096631   4.435247   2.140835
    13  H    2.658043   2.227561   2.201548   2.713707   1.084549
    14  H    0.960000   3.844547   1.941934   4.735051   2.529514
                    6          7          8          9         10
     6  H    0.000000
     7  H    1.742032   0.000000
     8  H    3.069908   2.510844   0.000000
     9  H    2.502403   2.483374   1.762975   0.000000
    10  H    2.523646   3.063617   1.761585   1.765266   0.000000
    11  H    2.473602   3.097517   4.703862   4.814306   4.328631
    12  H    3.374702   3.026246   4.619806   5.203638   4.872971
    13  H    3.058491   2.790558   2.584179   3.767530   2.885365
    14  H    3.965123   4.549165   5.032868   5.706699   4.522502
                   11         12         13         14
    11  H    0.000000
    12  H    1.757401   0.000000
    13  H    3.070968   2.694630   0.000000
    14  H    2.403862   2.805016   2.700689   0.000000
 Stoichiometry    C4H9O(2)
 Framework group  C1[X(C4H9O)]
 Deg. of freedom    36
 Full point group                 C1      NOp   1
 Largest Abelian subgroup         C1      NOp   1
 Largest concise Abelian subgroup C1      NOp   1
                         Standard orientation:                         
 ---------------------------------------------------------------------
 Center     Atomic      Atomic             Coordinates (Angstroms)
 Number     Number       Type             X           Y           Z
 ---------------------------------------------------------------------
      1          8           0        2.425867   -0.422957    0.073374
      2          6           0       -1.235573    0.534171    0.063559
      3          6           0        1.353275    0.493564   -0.048483
      4          6           0       -2.445302   -0.396226    0.065142
      5          6           0        0.038946   -0.172134   -0.234314
      6          1           0       -1.151389    1.044847    1.028213
      7          1           0       -1.401304    1.335503   -0.671121
      8          1           0       -2.558571   -0.880428   -0.905046
      9          1           0       -3.364053    0.147466    0.279316
     10          1           0       -2.328314   -1.177448    0.815983
     11          1           0        1.310126    1.167504    0.817010
     12          1           0        1.607210    1.116768   -0.914355
     13          1           0        0.018976   -1.059317   -0.857816
     14          1           0        2.192300   -1.067489    0.745405
 ---------------------------------------------------------------------
 Rotational constants (GHZ):          17.9158185           2.0334859           1.9203155
 Leave Link  202 at Mon Mar 11 15:39:19 2019, MaxMem=   671088640 cpu:               0.2 elap:               0.0
 (Enter /shared/centos7/gaussian/g16/l301.exe)
 Standard basis: 6-311+G(2df,2p) (5D, 7F)
 Ernie: Thresh=  0.10000D-02 Tol=  0.10000D-05 Strict=F.
 There are   276 symmetry adapted cartesian basis functions of A   symmetry.
 There are   251 symmetry adapted basis functions of A   symmetry.
   251 basis functions,   359 primitive gaussians,   276 cartesian basis functions
    21 alpha electrons       20 beta electrons
       nuclear repulsion energy       175.7014667151 Hartrees.
 IExCor= 4336 DFT=T Ex+Corr=M062X ExCW=0 ScaHFX=  0.540000
 ScaDFX=  1.000000  1.000000  1.000000  1.000000 ScalE2=  1.000000  1.000000
 IRadAn=      5 IRanWt=     -1 IRanGd=            0 ICorTp=0 IEmpDi=  4
 NAtoms=   14 NActive=   14 NUniq=   14 SFac= 1.00D+00 NAtFMM=   60 NAOKFM=F Big=F
 Integral buffers will be    131072 words long.
 Raffenetti 2 integral format.
 Two-electron integral symmetry is turned on.
 Leave Link  301 at Mon Mar 11 15:39:19 2019, MaxMem=   671088640 cpu:               1.2 elap:               0.1
 (Enter /shared/centos7/gaussian/g16/l302.exe)
 NPDir=0 NMtPBC=     1 NCelOv=     1 NCel=       1 NClECP=     1 NCelD=      1
         NCelK=      1 NCelE2=     1 NClLst=     1 CellRange=     0.0.
 One-electron integrals computed using PRISM.
 One-electron integral symmetry used in STVInt
 NBasis=   251 RedAO= T EigKep=  2.84D-05  NBF=   251
 NBsUse=   251 1.00D-06 EigRej= -1.00D+00 NBFU=   251
 Precomputing XC quadrature grid using
 IXCGrd= 4 IRadAn=           5 IRanWt=          -1 IRanGd=           0 AccXCQ= 0.00D+00.
 Generated NRdTot=       0 NPtTot=           0 NUsed=           0 NTot=          32
 NSgBfM=   276   276   276   276   276 MxSgAt=    14 MxSgA2=    14.
 Leave Link  302 at Mon Mar 11 15:39:20 2019, MaxMem=   671088640 cpu:               7.4 elap:               0.4
 (Enter /shared/centos7/gaussian/g16/l303.exe)
 DipDrv:  MaxL=1.
 Leave Link  303 at Mon Mar 11 15:39:20 2019, MaxMem=   671088640 cpu:               0.7 elap:               0.1
 (Enter /shared/centos7/gaussian/g16/l401.exe)
 ExpMin= 4.38D-02 ExpMax= 8.59D+03 ExpMxC= 1.30D+03 IAcc=3 IRadAn=         5 AccDes= 0.00D+00
 Harris functional with IExCor= 1009 and IRadAn=       5 diagonalized for initial guess.
 HarFok:  IExCor= 1009 AccDes= 0.00D+00 IRadAn=         5 IDoV= 1 UseB2=F ITyADJ=14
 ICtDFT=  3500011 ScaDFX=  1.000000  1.000000  1.000000  1.000000
 FoFCou: FMM=F IPFlag=           0 FMFlag=      100000 FMFlg1=           0
         NFxFlg=           0 DoJE=T BraDBF=F KetDBF=T FulRan=T
         wScrn=  0.000000 ICntrl=       500 IOpCl=  0 I1Cent=   200000004 NGrid=           0
         NMat0=    1 NMatS0=      1 NMatT0=    0 NMatD0=    1 NMtDS0=    0 NMtDT0=    0
 Petite list used in FoFCou.
 Harris En= -232.902650724575    
 JPrj=0 DoOrth=F DoCkMO=F.
 Initial guess <Sx>= 0.0000 <Sy>= 0.0000 <Sz>= 0.5000 <S**2>= 0.7500 S= 0.5000
 Leave Link  401 at Mon Mar 11 15:39:21 2019, MaxMem=   671088640 cpu:              19.3 elap:               1.0
 (Enter /shared/centos7/gaussian/g16/l502.exe)
 Integral symmetry usage will be decided dynamically.
 UHF open shell SCF:
 Using DIIS extrapolation, IDIIS=  1040.
 NGot=   671088640 LenX=   670928170 LenY=   670851553
 Requested convergence on RMS density matrix=1.00D-08 within 128 cycles.
 Requested convergence on MAX density matrix=1.00D-06.
 Requested convergence on             energy=1.00D-06.
 No special actions if energy rises.
 Fock matrices will be formed incrementally for  20 cycles.

 Cycle   1  Pass 1  IDiag  1:
 FoFJK:  IHMeth= 1 ICntrl=       0 DoSepK=F KAlg= 0 I1Cent=           0 FoldK=F
 IRaf= 960000000 NMat=       1 IRICut=       1 DoRegI=T DoRafI=F ISym2E= 0 IDoP0=0 IntGTp=1.
 FoFCou: FMM=F IPFlag=           0 FMFlag=      100000 FMFlg1=           0
         NFxFlg=           0 DoJE=F BraDBF=F KetDBF=F FulRan=T
         wScrn=  0.000000 ICntrl=         0 IOpCl=  1 I1Cent=           0 NGrid=           0
         NMat0=    1 NMatS0=      1 NMatT0=    0 NMatD0=    1 NMtDS0=    0 NMtDT0=    0
 Symmetry not used in FoFCou.
 E= -232.769665213826    
 DIIS: error= 1.88D-02 at cycle   1 NSaved=   1.
 NSaved= 1 IEnMin= 1 EnMin= -232.769665213826     IErMin= 1 ErrMin= 1.88D-02
 ErrMax= 1.88D-02  0.00D+00 EMaxC= 1.00D-01 BMatC= 9.39D-01 BMatP= 9.39D-01
 IDIUse=3 WtCom= 8.12D-01 WtEn= 1.88D-01
 Coeff-Com:  0.100D+01
 Coeff-En:   0.100D+01
 Coeff:      0.100D+01
 Gap=     0.222 Goal=   None    Shift=    0.000
 Gap=     0.317 Goal=   None    Shift=    0.000
 GapD=    0.222 DampG=1.000 DampE=0.500 DampFc=0.5000 IDamp=-1.
 Damping current iteration by 5.00D-01
 RMSDP=3.92D-03 MaxDP=2.26D-01              OVMax= 1.56D-01

 Cycle   2  Pass 1  IDiag  1:
 RMSU=  1.90D-03    CP:  9.51D-01
 E= -232.869038385737     Delta-E=       -0.099373171911 Rises=F Damp=T
 DIIS: error= 6.16D-03 at cycle   2 NSaved=   2.
 NSaved= 2 IEnMin= 2 EnMin= -232.869038385737     IErMin= 2 ErrMin= 6.16D-03
 ErrMax= 6.16D-03  0.00D+00 EMaxC= 1.00D-01 BMatC= 5.70D-02 BMatP= 9.39D-01
 IDIUse=3 WtCom= 9.38D-01 WtEn= 6.16D-02
 Coeff-Com: -0.841D-01 0.108D+01
 Coeff-En:   0.000D+00 0.100D+01
 Coeff:     -0.789D-01 0.108D+01
 Gap=     0.268 Goal=   None    Shift=    0.000
 Gap=     0.335 Goal=   None    Shift=    0.000
 RMSDP=1.36D-03 MaxDP=7.95D-02 DE=-9.94D-02 OVMax= 7.48D-02

 Cycle   3  Pass 1  IDiag  1:
 RMSU=  1.34D-03    CP:  9.51D-01  8.83D-01
 E= -232.964638451791     Delta-E=       -0.095600066054 Rises=F Damp=F
 DIIS: error= 2.84D-03 at cycle   3 NSaved=   3.
 NSaved= 3 IEnMin= 3 EnMin= -232.964638451791     IErMin= 3 ErrMin= 2.84D-03
 ErrMax= 2.84D-03  0.00D+00 EMaxC= 1.00D-01 BMatC= 1.23D-02 BMatP= 5.70D-02
 IDIUse=3 WtCom= 9.72D-01 WtEn= 2.84D-02
 Coeff-Com: -0.723D-01 0.304D+00 0.768D+00
 Coeff-En:   0.000D+00 0.000D+00 0.100D+01
 Coeff:     -0.702D-01 0.295D+00 0.775D+00
 Gap=     0.272 Goal=   None    Shift=    0.000
 Gap=     0.310 Goal=   None    Shift=    0.000
 RMSDP=2.59D-04 MaxDP=1.50D-02 DE=-9.56D-02 OVMax= 1.39D-02

 Cycle   4  Pass 1  IDiag  1:
 RMSU=  2.35D-04    CP:  9.53D-01  9.34D-01  1.03D+00
 E= -232.966321917148     Delta-E=       -0.001683465357 Rises=F Damp=F
 DIIS: error= 1.39D-03 at cycle   4 NSaved=   4.
 NSaved= 4 IEnMin= 4 EnMin= -232.966321917148     IErMin= 4 ErrMin= 1.39D-03
 ErrMax= 1.39D-03  0.00D+00 EMaxC= 1.00D-01 BMatC= 3.26D-03 BMatP= 1.23D-02
 IDIUse=3 WtCom= 9.86D-01 WtEn= 1.39D-02
 Coeff-Com: -0.260D-01 0.590D-01 0.378D+00 0.589D+00
 Coeff-En:   0.000D+00 0.000D+00 0.115D+00 0.885D+00
 Coeff:     -0.256D-01 0.582D-01 0.374D+00 0.593D+00
 Gap=     0.269 Goal=   None    Shift=    0.000
 Gap=     0.316 Goal=   None    Shift=    0.000
 RMSDP=1.18D-04 MaxDP=9.08D-03 DE=-1.68D-03 OVMax= 6.51D-03

 Cycle   5  Pass 1  IDiag  1:
 RMSU=  7.17D-05    CP:  9.50D-01  9.22D-01  1.06D+00  6.61D-01
 E= -232.966969853732     Delta-E=       -0.000647936584 Rises=F Damp=F
 DIIS: error= 2.87D-04 at cycle   5 NSaved=   5.
 NSaved= 5 IEnMin= 5 EnMin= -232.966969853732     IErMin= 5 ErrMin= 2.87D-04
 ErrMax= 2.87D-04  0.00D+00 EMaxC= 1.00D-01 BMatC= 9.78D-05 BMatP= 3.26D-03
 IDIUse=3 WtCom= 9.97D-01 WtEn= 2.87D-03
 Coeff-Com:  0.116D-02-0.122D-01 0.662D-02 0.116D+00 0.889D+00
 Coeff-En:   0.000D+00 0.000D+00 0.000D+00 0.000D+00 0.100D+01
 Coeff:      0.116D-02-0.121D-01 0.660D-02 0.115D+00 0.889D+00
 Gap=     0.270 Goal=   None    Shift=    0.000
 Gap=     0.315 Goal=   None    Shift=    0.000
 RMSDP=6.12D-05 MaxDP=6.39D-03 DE=-6.48D-04 OVMax= 2.95D-03

 Cycle   6  Pass 1  IDiag  1:
 RMSU=  3.96D-05    CP:  9.52D-01  9.18D-01  1.08D+00  7.92D-01  1.17D+00
 E= -232.967010346460     Delta-E=       -0.000040492728 Rises=F Damp=F
 DIIS: error= 1.22D-04 at cycle   6 NSaved=   6.
 NSaved= 6 IEnMin= 6 EnMin= -232.967010346460     IErMin= 6 ErrMin= 1.22D-04
 ErrMax= 1.22D-04  0.00D+00 EMaxC= 1.00D-01 BMatC= 1.32D-05 BMatP= 9.78D-05
 IDIUse=3 WtCom= 9.99D-01 WtEn= 1.22D-03
 Coeff-Com:  0.377D-02-0.992D-02-0.511D-01-0.700D-01 0.867D-01 0.104D+01
 Coeff-En:   0.000D+00 0.000D+00 0.000D+00 0.000D+00 0.000D+00 0.100D+01
 Coeff:      0.377D-02-0.991D-02-0.510D-01-0.699D-01 0.866D-01 0.104D+01
 Gap=     0.271 Goal=   None    Shift=    0.000
 Gap=     0.316 Goal=   None    Shift=    0.000
 RMSDP=2.01D-05 MaxDP=1.31D-03 DE=-4.05D-05 OVMax= 1.37D-03

 Cycle   7  Pass 1  IDiag  1:
 RMSU=  1.20D-05    CP:  9.52D-01  9.14D-01  1.08D+00  8.12D-01  1.30D+00
                    CP:  1.22D+00
 E= -232.967018208931     Delta-E=       -0.000007862471 Rises=F Damp=F
 DIIS: error= 4.40D-05 at cycle   7 NSaved=   7.
 NSaved= 7 IEnMin= 7 EnMin= -232.967018208931     IErMin= 7 ErrMin= 4.40D-05
 ErrMax= 4.40D-05  0.00D+00 EMaxC= 1.00D-01 BMatC= 3.27D-06 BMatP= 1.32D-05
 IDIUse=1 WtCom= 1.00D+00 WtEn= 0.00D+00
 Coeff-Com:  0.120D-02-0.204D-02-0.204D-01-0.442D-01-0.923D-01 0.414D+00
 Coeff-Com:  0.744D+00
 Coeff:      0.120D-02-0.204D-02-0.204D-01-0.442D-01-0.923D-01 0.414D+00
 Coeff:      0.744D+00
 Gap=     0.271 Goal=   None    Shift=    0.000
 Gap=     0.316 Goal=   None    Shift=    0.000
 RMSDP=6.16D-06 MaxDP=2.66D-04 DE=-7.86D-06 OVMax= 5.09D-04

 Cycle   8  Pass 1  IDiag  1:
 RMSU=  4.22D-06    CP:  9.52D-01  9.14D-01  1.08D+00  8.16D-01  1.32D+00
                    CP:  1.31D+00  1.14D+00
 E= -232.967019323247     Delta-E=       -0.000001114316 Rises=F Damp=F
 DIIS: error= 1.10D-05 at cycle   8 NSaved=   8.
 NSaved= 8 IEnMin= 8 EnMin= -232.967019323247     IErMin= 8 ErrMin= 1.10D-05
 ErrMax= 1.10D-05  0.00D+00 EMaxC= 1.00D-01 BMatC= 1.47D-07 BMatP= 3.27D-06
 IDIUse=1 WtCom= 1.00D+00 WtEn= 0.00D+00
 Coeff-Com: -0.311D-03 0.839D-03 0.285D-02 0.812D-03-0.213D-01-0.450D-01
 Coeff-Com:  0.924D-01 0.970D+00
 Coeff:     -0.311D-03 0.839D-03 0.285D-02 0.812D-03-0.213D-01-0.450D-01
 Coeff:      0.924D-01 0.970D+00
 Gap=     0.271 Goal=   None    Shift=    0.000
 Gap=     0.316 Goal=   None    Shift=    0.000
 RMSDP=3.30D-06 MaxDP=2.76D-04 DE=-1.11D-06 OVMax= 1.44D-04

 Cycle   9  Pass 1  IDiag  1:
 RMSU=  1.47D-06    CP:  9.52D-01  9.14D-01  1.08D+00  8.13D-01  1.32D+00
                    CP:  1.31D+00  1.27D+00  1.36D+00
 E= -232.967019391750     Delta-E=       -0.000000068503 Rises=F Damp=F
 DIIS: error= 3.17D-06 at cycle   9 NSaved=   9.
 NSaved= 9 IEnMin= 9 EnMin= -232.967019391750     IErMin= 9 ErrMin= 3.17D-06
 ErrMax= 3.17D-06  0.00D+00 EMaxC= 1.00D-01 BMatC= 1.23D-08 BMatP= 1.47D-07
 IDIUse=1 WtCom= 1.00D+00 WtEn= 0.00D+00
 Coeff-Com: -0.165D-03 0.343D-03 0.240D-02 0.436D-02 0.641D-02-0.463D-01
 Coeff-Com: -0.643D-01 0.138D+00 0.959D+00
 Coeff:     -0.165D-03 0.343D-03 0.240D-02 0.436D-02 0.641D-02-0.463D-01
 Coeff:     -0.643D-01 0.138D+00 0.959D+00
 Gap=     0.271 Goal=   None    Shift=    0.000
 Gap=     0.316 Goal=   None    Shift=    0.000
 RMSDP=1.90D-06 MaxDP=2.33D-04 DE=-6.85D-08 OVMax= 5.46D-05

 Cycle  10  Pass 1  IDiag  1:
 RMSU=  5.46D-07    CP:  9.52D-01  9.14D-01  1.08D+00  8.11D-01  1.31D+00
                    CP:  1.30D+00  1.33D+00  1.56D+00  1.19D+00
 E= -232.967019398342     Delta-E=       -0.000000006592 Rises=F Damp=F
 DIIS: error= 1.01D-06 at cycle  10 NSaved=  10.
 NSaved=10 IEnMin=10 EnMin= -232.967019398342     IErMin=10 ErrMin= 1.01D-06
 ErrMax= 1.01D-06  0.00D+00 EMaxC= 1.00D-01 BMatC= 7.38D-10 BMatP= 1.23D-08
 IDIUse=1 WtCom= 1.00D+00 WtEn= 0.00D+00
 Coeff-Com:  0.154D-04-0.357D-04-0.496D-04 0.119D-03 0.131D-02-0.691D-05
 Coeff-Com: -0.790D-02-0.510D-01 0.632D-01 0.994D+00
 Coeff:      0.154D-04-0.357D-04-0.496D-04 0.119D-03 0.131D-02-0.691D-05
 Coeff:     -0.790D-02-0.510D-01 0.632D-01 0.994D+00
 Gap=     0.271 Goal=   None    Shift=    0.000
 Gap=     0.316 Goal=   None    Shift=    0.000
 RMSDP=3.54D-07 MaxDP=4.27D-05 DE=-6.59D-09 OVMax= 1.51D-05

 Cycle  11  Pass 1  IDiag  1:
 RMSU=  9.39D-08    CP:  9.52D-01  9.14D-01  1.08D+00  8.10D-01  1.31D+00
                    CP:  1.29D+00  1.33D+00  1.59D+00  1.30D+00  1.20D+00
 E= -232.967019398752     Delta-E=       -0.000000000410 Rises=F Damp=F
 DIIS: error= 4.07D-07 at cycle  11 NSaved=  11.
 NSaved=11 IEnMin=11 EnMin= -232.967019398752     IErMin=11 ErrMin= 4.07D-07
 ErrMax= 4.07D-07  0.00D+00 EMaxC= 1.00D-01 BMatC= 1.66D-10 BMatP= 7.38D-10
 IDIUse=1 WtCom= 1.00D+00 WtEn= 0.00D+00
 Coeff-Com:  0.206D-04-0.447D-04-0.234D-03-0.340D-03-0.270D-04 0.420D-02
 Coeff-Com:  0.302D-02-0.318D-01-0.665D-01 0.334D+00 0.758D+00
 Coeff:      0.206D-04-0.447D-04-0.234D-03-0.340D-03-0.270D-04 0.420D-02
 Coeff:      0.302D-02-0.318D-01-0.665D-01 0.334D+00 0.758D+00
 Gap=     0.271 Goal=   None    Shift=    0.000
 Gap=     0.316 Goal=   None    Shift=    0.000
 RMSDP=1.04D-07 MaxDP=1.20D-05 DE=-4.10D-10 OVMax= 3.34D-06

 Cycle  12  Pass 1  IDiag  1:
 RMSU=  3.94D-08    CP:  9.52D-01  9.14D-01  1.08D+00  8.10D-01  1.31D+00
                    CP:  1.29D+00  1.33D+00  1.60D+00  1.31D+00  1.28D+00
                    CP:  1.12D+00
 E= -232.967019398807     Delta-E=       -0.000000000055 Rises=F Damp=F
 DIIS: error= 1.30D-07 at cycle  12 NSaved=  12.
 NSaved=12 IEnMin=12 EnMin= -232.967019398807     IErMin=12 ErrMin= 1.30D-07
 ErrMax= 1.30D-07  0.00D+00 EMaxC= 1.00D-01 BMatC= 1.40D-11 BMatP= 1.66D-10
 IDIUse=1 WtCom= 1.00D+00 WtEn= 0.00D+00
 Coeff-Com:  0.951D-06-0.240D-05-0.359D-04-0.691D-04-0.156D-03 0.679D-03
 Coeff-Com:  0.155D-02 0.135D-02-0.192D-01-0.635D-01 0.144D+00 0.936D+00
 Coeff:      0.951D-06-0.240D-05-0.359D-04-0.691D-04-0.156D-03 0.679D-03
 Coeff:      0.155D-02 0.135D-02-0.192D-01-0.635D-01 0.144D+00 0.936D+00
 Gap=     0.271 Goal=   None    Shift=    0.000
 Gap=     0.316 Goal=   None    Shift=    0.000
 RMSDP=2.00D-08 MaxDP=1.09D-06 DE=-5.51D-11 OVMax= 1.32D-06

 Cycle  13  Pass 1  IDiag  1:
 RMSU=  1.19D-08    CP:  9.52D-01  9.14D-01  1.08D+00  8.10D-01  1.31D+00
                    CP:  1.29D+00  1.33D+00  1.60D+00  1.31D+00  1.29D+00
                    CP:  1.22D+00  1.23D+00
 E= -232.967019398819     Delta-E=       -0.000000000012 Rises=F Damp=F
 DIIS: error= 3.29D-08 at cycle  13 NSaved=  13.
 NSaved=13 IEnMin=13 EnMin= -232.967019398819     IErMin=13 ErrMin= 3.29D-08
 ErrMax= 3.29D-08  0.00D+00 EMaxC= 1.00D-01 BMatC= 1.37D-12 BMatP= 1.40D-11
 IDIUse=1 WtCom= 1.00D+00 WtEn= 0.00D+00
 Coeff-Com: -0.163D-05 0.337D-05 0.117D-04 0.142D-04-0.277D-04-0.213D-03
 Coeff-Com:  0.601D-04 0.299D-02 0.113D-02-0.440D-01-0.425D-01 0.190D+00
 Coeff-Com:  0.893D+00
 Coeff:     -0.163D-05 0.337D-05 0.117D-04 0.142D-04-0.277D-04-0.213D-03
 Coeff:      0.601D-04 0.299D-02 0.113D-02-0.440D-01-0.425D-01 0.190D+00
 Coeff:      0.893D+00
 Gap=     0.271 Goal=   None    Shift=    0.000
 Gap=     0.316 Goal=   None    Shift=    0.000
 RMSDP=9.56D-09 MaxDP=9.86D-07 DE=-1.15D-11 OVMax= 4.24D-07

 SCF Done:  E(UM062X) =  -232.967019399     A.U. after   13 cycles
            NFock= 13  Conv=0.96D-08     -V/T= 2.0039
 <Sx>= 0.0000 <Sy>= 0.0000 <Sz>= 0.5000 <S**2>= 0.7551 S= 0.5025
 <L.S>= 0.000000000000E+00
 KE= 2.320725441299D+02 PE=-8.944164990473D+02 EE= 2.536754688035D+02
 Annihilation of the first spin contaminant:
 S**2 before annihilation     0.7551,   after     0.7500
 Leave Link  502 at Mon Mar 11 15:40:07 2019, MaxMem=   671088640 cpu:             924.0 elap:              46.2
 (Enter /shared/centos7/gaussian/g16/l801.exe)
 DoSCS=F DFT=T ScalE2(SS,OS)=  1.000000  1.000000
 Range of M.O.s used for correlation:     1   251
 NBasis=   251 NAE=    21 NBE=    20 NFC=     0 NFV=     0
 NROrb=    251 NOA=    21 NOB=    20 NVA=   230 NVB=   231

 **** Warning!!: The largest alpha MO coefficient is  0.45829263D+02


 **** Warning!!: The largest beta MO coefficient is  0.55893492D+02

 Leave Link  801 at Mon Mar 11 15:40:07 2019, MaxMem=   671088640 cpu:               0.4 elap:               0.0
 (Enter /shared/centos7/gaussian/g16/l1101.exe)
 Using compressed storage, NAtomX=    14.
 Will process     15 centers per pass.
 Leave Link 1101 at Mon Mar 11 15:40:08 2019, MaxMem=   671088640 cpu:               7.3 elap:               0.4
 (Enter /shared/centos7/gaussian/g16/l1102.exe)
 Symmetrizing basis deriv contribution to polar:
 IMax=3 JMax=2 DiffMx= 0.00D+00
 Leave Link 1102 at Mon Mar 11 15:40:08 2019, MaxMem=   671088640 cpu:               0.6 elap:               0.1
 (Enter /shared/centos7/gaussian/g16/l1110.exe)
 Forming Gx(P) for the SCF density, NAtomX=    14.
 Integral derivatives from FoFJK, PRISM(SPDF).
 Do as many integral derivatives as possible in FoFJK.
 G2DrvN: MDV=     671087496.
 G2DrvN: will do    15 centers at a time, making    1 passes.
 Calling FoFCou, ICntrl=  3107 FMM=F I1Cent=   0 AccDes= 0.00D+00.
 FoFJK:  IHMeth= 1 ICntrl=    3107 DoSepK=F KAlg= 0 I1Cent=           0 FoldK=F
 IRaf=         0 NMat=       1 IRICut=       1 DoRegI=T DoRafI=F ISym2E= 0 IDoP0=0 IntGTp=1.
 FoFCou: FMM=F IPFlag=           0 FMFlag=      100000 FMFlg1=           0
         NFxFlg=           0 DoJE=F BraDBF=F KetDBF=F FulRan=T
         wScrn=  0.000000 ICntrl=      3107 IOpCl=  1 I1Cent=           0 NGrid=           0
         NMat0=    1 NMatS0=      1 NMatT0=    0 NMatD0=    1 NMtDS0=    0 NMtDT0=    0
 Symmetry not used in FoFCou.
 End of G2Drv F.D. properties file   721 does not exist.
 End of G2Drv F.D. properties file   722 does not exist.
 End of G2Drv F.D. properties file   788 does not exist.
 Leave Link 1110 at Mon Mar 11 15:41:46 2019, MaxMem=   671088640 cpu:            1958.5 elap:              98.0
 (Enter /shared/centos7/gaussian/g16/l1002.exe)
 Minotr:  UHF open shell wavefunction.
          IDoAtm=11111111111111
          Direct CPHF calculation.
          Differentiating once with respect to nuclear coordinates.
          Requested convergence is 1.0D-08 RMS, and 1.0D-07 maximum.
          Secondary convergence is 1.0D-12 RMS, and 1.0D-12 maximum.
          NewPWx=T KeepS1=F KeepF1=F KeepIn=T MapXYZ=F SortEE=F KeepMc=T.
         4264 words used for storage of precomputed grid.
 Two-electron integrals replicated using symmetry.
          MDV=     671088640 using IRadAn=       1.
          Solving linear equations simultaneously, MaxMat=     380.
 FoF2E skips out because all densities are zero.
 CalDSu exits because no D1Ps are significant.
 FoFJK:  IHMeth= 1 ICntrl=       0 DoSepK=F KAlg= 0 I1Cent=           0 FoldK=F
 IRaf= 950000000 NMat=      42 IRICut=     105 DoRegI=T DoRafI=T ISym2E= 2 IDoP0=3 IntGTp=3.
 FoFCou: FMM=F IPFlag=           0 FMFlag=      100000 FMFlg1=           0
         NFxFlg=           0 DoJE=F BraDBF=F KetDBF=F FulRan=T
         wScrn=  0.000000 ICntrl=         0 IOpCl=  1 I1Cent=           0 NGrid=           0
         NMat0=   42 NMatS0=     42 NMatT0=    0 NMatD0=   42 NMtDS0=    0 NMtDT0=    0
 Integrals replicated using symmetry in FoFCou.
 Raff kept on since  94.01% of shell-pairs survive, threshold=   0.20 IRatSp=94.
          There are    45 degrees of freedom in the 1st order CPHF.  IDoFFX=6 NUNeed=     0.
     39 vectors produced by pass  0 Test12= 2.10D-14 2.22D-09 XBig12= 1.48D-01 8.07D-02.
 AX will form    39 AO Fock derivatives at one time.
     39 vectors produced by pass  1 Test12= 2.10D-14 2.22D-09 XBig12= 5.31D-03 1.21D-02.
     39 vectors produced by pass  2 Test12= 2.10D-14 2.22D-09 XBig12= 2.41D-04 2.96D-03.
     39 vectors produced by pass  3 Test12= 2.10D-14 2.22D-09 XBig12= 4.87D-06 2.95D-04.
     39 vectors produced by pass  4 Test12= 2.10D-14 2.22D-09 XBig12= 6.63D-08 3.25D-05.
     39 vectors produced by pass  5 Test12= 2.10D-14 2.22D-09 XBig12= 7.69D-10 2.80D-06.
     38 vectors produced by pass  6 Test12= 2.10D-14 2.22D-09 XBig12= 6.62D-12 3.17D-07.
     15 vectors produced by pass  7 Test12= 2.10D-14 2.22D-09 XBig12= 5.26D-14 2.93D-08.
 InvSVY:  IOpt=1 It=  1 EMax= 1.44D-15
 Solved reduced A of dimension   287 with    39 vectors.
 End of Minotr F.D. properties file   721 does not exist.
 End of Minotr F.D. properties file   722 does not exist.
 End of Minotr F.D. properties file   788 does not exist.
 Leave Link 1002 at Mon Mar 11 15:44:21 2019, MaxMem=   671088640 cpu:            3113.1 elap:             155.7
 (Enter /shared/centos7/gaussian/g16/l601.exe)
 Copying SCF densities to generalized density rwf, IOpCl= 1 IROHF=0.

 **********************************************************************

            Population analysis using the SCF density.

 **********************************************************************

 Orbital symmetries:
 Alpha Orbitals:
       Occupied  (A) (A) (A) (A) (A) (A) (A) (A) (A) (A) (A) (A)
                 (A) (A) (A) (A) (A) (A) (A) (A) (A)
       Virtual   (A) (A) (A) (A) (A) (A) (A) (A) (A) (A) (A) (A)
                 (A) (A) (A) (A) (A) (A) (A) (A) (A) (A) (A) (A)
                 (A) (A) (A) (A) (A) (A) (A) (A) (A) (A) (A) (A)
                 (A) (A) (A) (A) (A) (A) (A) (A) (A) (A) (A) (A)
                 (A) (A) (A) (A) (A) (A) (A) (A) (A) (A) (A) (A)
                 (A) (A) (A) (A) (A) (A) (A) (A) (A) (A) (A) (A)
                 (A) (A) (A) (A) (A) (A) (A) (A) (A) (A) (A) (A)
                 (A) (A) (A) (A) (A) (A) (A) (A) (A) (A) (A) (A)
                 (A) (A) (A) (A) (A) (A) (A) (A) (A) (A) (A) (A)
                 (A) (A) (A) (A) (A) (A) (A) (A) (A) (A) (A) (A)
                 (A) (A) (A) (A) (A) (A) (A) (A) (A) (A) (A) (A)
                 (A) (A) (A) (A) (A) (A) (A) (A) (A) (A) (A) (A)
                 (A) (A) (A) (A) (A) (A) (A) (A) (A) (A) (A) (A)
                 (A) (A) (A) (A) (A) (A) (A) (A) (A) (A) (A) (A)
                 (A) (A) (A) (A) (A) (A) (A) (A) (A) (A) (A) (A)
                 (A) (A) (A) (A) (A) (A) (A) (A) (A) (A) (A) (A)
                 (A) (A) (A) (A) (A) (A) (A) (A) (A) (A) (A) (A)
                 (A) (A) (A) (A) (A) (A) (A) (A) (A) (A) (A) (A)
                 (A) (A) (A) (A) (A) (A) (A) (A) (A) (A) (A) (A)
                 (A) (A)
 Beta  Orbitals:
       Occupied  (A) (A) (A) (A) (A) (A) (A) (A) (A) (A) (A) (A)
                 (A) (A) (A) (A) (A) (A) (A) (A)
       Virtual   (A) (A) (A) (A) (A) (A) (A) (A) (A) (A) (A) (A)
                 (A) (A) (A) (A) (A) (A) (A) (A) (A) (A) (A) (A)
                 (A) (A) (A) (A) (A) (A) (A) (A) (A) (A) (A) (A)
                 (A) (A) (A) (A) (A) (A) (A) (A) (A) (A) (A) (A)
                 (A) (A) (A) (A) (A) (A) (A) (A) (A) (A) (A) (A)
                 (A) (A) (A) (A) (A) (A) (A) (A) (A) (A) (A) (A)
                 (A) (A) (A) (A) (A) (A) (A) (A) (A) (A) (A) (A)
                 (A) (A) (A) (A) (A) (A) (A) (A) (A) (A) (A) (A)
                 (A) (A) (A) (A) (A) (A) (A) (A) (A) (A) (A) (A)
                 (A) (A) (A) (A) (A) (A) (A) (A) (A) (A) (A) (A)
                 (A) (A) (A) (A) (A) (A) (A) (A) (A) (A) (A) (A)
                 (A) (A) (A) (A) (A) (A) (A) (A) (A) (A) (A) (A)
                 (A) (A) (A) (A) (A) (A) (A) (A) (A) (A) (A) (A)
                 (A) (A) (A) (A) (A) (A) (A) (A) (A) (A) (A) (A)
                 (A) (A) (A) (A) (A) (A) (A) (A) (A) (A) (A) (A)
                 (A) (A) (A) (A) (A) (A) (A) (A) (A) (A) (A) (A)
                 (A) (A) (A) (A) (A) (A) (A) (A) (A) (A) (A) (A)
                 (A) (A) (A) (A) (A) (A) (A) (A) (A) (A) (A) (A)
                 (A) (A) (A) (A) (A) (A) (A) (A) (A) (A) (A) (A)
                 (A) (A) (A)
 The electronic state is 2-A.
 Alpha  occ. eigenvalues --  -19.61976 -10.58379 -10.54540 -10.54206 -10.52832
 Alpha  occ. eigenvalues --   -1.14535  -0.90412  -0.82041  -0.72776  -0.66729
 Alpha  occ. eigenvalues --   -0.58814  -0.53432  -0.52746  -0.50892  -0.46987
 Alpha  occ. eigenvalues --   -0.45645  -0.42641  -0.41445  -0.39600  -0.35663
 Alpha  occ. eigenvalues --   -0.25328
 Alpha virt. eigenvalues --    0.01773   0.03036   0.03162   0.03980   0.05678
 Alpha virt. eigenvalues --    0.05993   0.06729   0.08341   0.08499   0.09310
 Alpha virt. eigenvalues --    0.10241   0.11829   0.12852   0.15071   0.16611
 Alpha virt. eigenvalues --    0.17274   0.19508   0.19595   0.21259   0.22006
 Alpha virt. eigenvalues --    0.22492   0.23538   0.24476   0.24557   0.25235
 Alpha virt. eigenvalues --    0.26099   0.27296   0.28808   0.30761   0.32421
 Alpha virt. eigenvalues --    0.33122   0.33542   0.35658   0.41322   0.42118
 Alpha virt. eigenvalues --    0.46408   0.46596   0.47328   0.51112   0.53444
 Alpha virt. eigenvalues --    0.54137   0.54975   0.55597   0.56606   0.57386
 Alpha virt. eigenvalues --    0.58711   0.59499   0.61282   0.62907   0.63186
 Alpha virt. eigenvalues --    0.64129   0.65810   0.67358   0.68434   0.69212
 Alpha virt. eigenvalues --    0.70789   0.72179   0.74089   0.77148   0.79688
 Alpha virt. eigenvalues --    0.83993   0.85999   0.88264   0.89821   0.93826
 Alpha virt. eigenvalues --    0.94991   0.97010   0.98757   0.99816   1.03155
 Alpha virt. eigenvalues --    1.06253   1.07495   1.10775   1.11428   1.14194
 Alpha virt. eigenvalues --    1.15154   1.17242   1.18541   1.19425   1.21184
 Alpha virt. eigenvalues --    1.21956   1.23954   1.26017   1.27182   1.28037
 Alpha virt. eigenvalues --    1.30733   1.32128   1.34252   1.36327   1.38333
 Alpha virt. eigenvalues --    1.41951   1.43248   1.43945   1.45244   1.46090
 Alpha virt. eigenvalues --    1.48155   1.48403   1.51021   1.52632   1.55033
 Alpha virt. eigenvalues --    1.55227   1.57691   1.59552   1.61676   1.62934
 Alpha virt. eigenvalues --    1.66110   1.70178   1.73325   1.77427   1.91908
 Alpha virt. eigenvalues --    2.06467   2.09773   2.25816   2.30902   2.37861
 Alpha virt. eigenvalues --    2.43354   2.48551   2.55004   2.56234   2.61271
 Alpha virt. eigenvalues --    2.62556   2.64901   2.70696   2.78104   2.79231
 Alpha virt. eigenvalues --    2.81676   2.82001   2.86321   2.86875   2.91073
 Alpha virt. eigenvalues --    2.92845   2.96689   2.98386   2.99799   3.03142
 Alpha virt. eigenvalues --    3.06265   3.11909   3.13719   3.15733   3.17022
 Alpha virt. eigenvalues --    3.19792   3.21298   3.22468   3.24733   3.29129
 Alpha virt. eigenvalues --    3.30768   3.32506   3.35557   3.36459   3.39259
 Alpha virt. eigenvalues --    3.41173   3.42793   3.48792   3.50993   3.51413
 Alpha virt. eigenvalues --    3.52635   3.58101   3.59081   3.61306   3.63138
 Alpha virt. eigenvalues --    3.65169   3.68750   3.69869   3.72373   3.76149
 Alpha virt. eigenvalues --    3.78128   3.82657   3.88367   3.89731   3.93198
 Alpha virt. eigenvalues --    3.95485   3.98319   4.01036   4.01549   4.04007
 Alpha virt. eigenvalues --    4.06841   4.08953   4.12023   4.15216   4.17725
 Alpha virt. eigenvalues --    4.19182   4.21482   4.24213   4.26651   4.27144
 Alpha virt. eigenvalues --    4.30308   4.31079   4.34266   4.35127   4.37067
 Alpha virt. eigenvalues --    4.41916   4.46158   4.48154   4.49086   4.52419
 Alpha virt. eigenvalues --    4.56182   4.60105   4.64338   4.70079   4.73963
 Alpha virt. eigenvalues --    4.92208   5.03152   5.17634   5.21810   5.25711
 Alpha virt. eigenvalues --    5.30140   5.38954   5.40843   5.47281   5.52634
 Alpha virt. eigenvalues --    5.53397   5.57743   5.58947   5.60054   5.64604
 Alpha virt. eigenvalues --    5.67280   5.84359   5.95557   6.50630   6.97514
 Alpha virt. eigenvalues --    7.18850   7.20176   7.21727   7.52038   7.62468
 Alpha virt. eigenvalues --   24.18463  24.36320  24.44783  24.53564  50.12542
  Beta  occ. eigenvalues --  -19.61935 -10.58444 -10.54270 -10.53868 -10.52818
  Beta  occ. eigenvalues --   -1.14345  -0.89068  -0.81183  -0.72248  -0.64889
  Beta  occ. eigenvalues --   -0.58310  -0.52268  -0.52048  -0.50294  -0.46346
  Beta  occ. eigenvalues --   -0.45293  -0.41906  -0.41044  -0.39053  -0.35262
  Beta virt. eigenvalues --   -0.03683   0.01594   0.02802   0.02963   0.03629
  Beta virt. eigenvalues --    0.05305   0.05878   0.06664   0.07503   0.08641
  Beta virt. eigenvalues --    0.09136   0.09984   0.11046   0.12394   0.14908
  Beta virt. eigenvalues --    0.15514   0.16889   0.19084   0.19610   0.21369
  Beta virt. eigenvalues --    0.21817   0.22430   0.23770   0.24488   0.24647
  Beta virt. eigenvalues --    0.25555   0.25805   0.27450   0.28817   0.30914
  Beta virt. eigenvalues --    0.32800   0.33224   0.34261   0.36368   0.41445
  Beta virt. eigenvalues --    0.42107   0.46627   0.46691   0.47617   0.51629
  Beta virt. eigenvalues --    0.53407   0.54150   0.55111   0.55931   0.56335
  Beta virt. eigenvalues --    0.58076   0.58981   0.59912   0.61038   0.62742
  Beta virt. eigenvalues --    0.63695   0.64656   0.66054   0.67908   0.68397
  Beta virt. eigenvalues --    0.69236   0.70915   0.72181   0.73967   0.76907
  Beta virt. eigenvalues --    0.79508   0.83829   0.85775   0.87842   0.89722
  Beta virt. eigenvalues --    0.93406   0.94522   0.97228   0.99093   0.99672
  Beta virt. eigenvalues --    1.03401   1.06352   1.07481   1.10667   1.11496
  Beta virt. eigenvalues --    1.14497   1.15128   1.17223   1.18772   1.19426
  Beta virt. eigenvalues --    1.20982   1.21991   1.23741   1.26046   1.27159
  Beta virt. eigenvalues --    1.28082   1.31423   1.32360   1.34662   1.36698
  Beta virt. eigenvalues --    1.38001   1.41783   1.43059   1.44131   1.45146
  Beta virt. eigenvalues --    1.45794   1.47931   1.48902   1.50914   1.52947
  Beta virt. eigenvalues --    1.54697   1.55531   1.57540   1.60106   1.61584
  Beta virt. eigenvalues --    1.62894   1.66919   1.70649   1.73975   1.77586
  Beta virt. eigenvalues --    1.92174   2.06917   2.10111   2.25856   2.31021
  Beta virt. eigenvalues --    2.38151   2.43907   2.48704   2.55859   2.56746
  Beta virt. eigenvalues --    2.62244   2.63214   2.65386   2.72048   2.80378
  Beta virt. eigenvalues --    2.81127   2.82787   2.84848   2.87274   2.91039
  Beta virt. eigenvalues --    2.94228   2.94588   2.97604   2.99024   3.01696
  Beta virt. eigenvalues --    3.04369   3.07261   3.12295   3.15441   3.16576
  Beta virt. eigenvalues --    3.17883   3.21170   3.22035   3.23529   3.25153
  Beta virt. eigenvalues --    3.30156   3.31544   3.34650   3.36909   3.38967
  Beta virt. eigenvalues --    3.39874   3.42314   3.45801   3.50621   3.51855
  Beta virt. eigenvalues --    3.53414   3.55958   3.58720   3.59935   3.62381
  Beta virt. eigenvalues --    3.64300   3.66880   3.69570   3.69909   3.72901
  Beta virt. eigenvalues --    3.76449   3.79392   3.82556   3.88928   3.89936
  Beta virt. eigenvalues --    3.93949   3.96235   3.98454   4.01634   4.02918
  Beta virt. eigenvalues --    4.04829   4.07404   4.10539   4.12969   4.15994
  Beta virt. eigenvalues --    4.18539   4.21395   4.21894   4.24984   4.27247
  Beta virt. eigenvalues --    4.27955   4.31009   4.31956   4.34571   4.36061
  Beta virt. eigenvalues --    4.38190   4.44821   4.46791   4.49068   4.50546
  Beta virt. eigenvalues --    4.53240   4.56637   4.61601   4.65424   4.72032
  Beta virt. eigenvalues --    4.76346   4.94612   5.05595   5.18774   5.21924
  Beta virt. eigenvalues --    5.26164   5.31694   5.38959   5.40759   5.49794
  Beta virt. eigenvalues --    5.54422   5.56620   5.57881   5.58867   5.60282
  Beta virt. eigenvalues --    5.64713   5.67361   5.84699   5.95681   6.50641
  Beta virt. eigenvalues --    6.97618   7.18991   7.20308   7.21848   7.52087
  Beta virt. eigenvalues --    7.62593  24.19294  24.36428  24.44814  24.54251
  Beta virt. eigenvalues --   50.12500
          Condensed to atoms (all electrons):
               1          2          3          4          5          6
     1  O    8.101615   0.024669   0.136980   0.002215  -0.059168   0.000379
     2  C    0.024669   5.655411  -0.004805   0.046835  -0.265712   0.473327
     3  C    0.136980  -0.004805   5.253341  -0.069016   0.102487   0.008093
     4  C    0.002215   0.046835  -0.069016   5.232002   0.130366  -0.037728
     5  C   -0.059168  -0.265712   0.102487   0.130366   6.045515  -0.094696
     6  H    0.000379   0.473327   0.008093  -0.037728  -0.094696   0.544460
     7  H   -0.000770   0.417510  -0.006713  -0.039585  -0.031081  -0.045721
     8  H   -0.000030   0.002733   0.003212   0.399819  -0.033259   0.006280
     9  H    0.000033  -0.047190   0.002125   0.405044   0.024708  -0.004764
    10  H   -0.000060  -0.021024  -0.003043   0.415123  -0.014544  -0.007772
    11  H   -0.035632   0.037109   0.390450   0.003058  -0.064137   0.003370
    12  H   -0.059208  -0.030688   0.446906  -0.000593  -0.023924  -0.000015
    13  H    0.006682  -0.015000  -0.014724  -0.004224   0.375062   0.004135
    14  H    0.239850  -0.009882  -0.036053  -0.000288   0.032711   0.000250
               7          8          9         10         11         12
     1  O   -0.000770  -0.000030   0.000033  -0.000060  -0.035632  -0.059208
     2  C    0.417510   0.002733  -0.047190  -0.021024   0.037109  -0.030688
     3  C   -0.006713   0.003212   0.002125  -0.003043   0.390450   0.446906
     4  C   -0.039585   0.399819   0.405044   0.415123   0.003058  -0.000593
     5  C   -0.031081  -0.033259   0.024708  -0.014544  -0.064137  -0.023924
     6  H   -0.045721   0.006280  -0.004764  -0.007772   0.003370  -0.000015
     7  H    0.561898  -0.009273  -0.003864   0.006278  -0.002121   0.001728
     8  H   -0.009273   0.549345  -0.024648  -0.036313  -0.000016   0.000007
     9  H   -0.003864  -0.024648   0.535861  -0.023763   0.000015   0.000007
    10  H    0.006278  -0.036313  -0.023763   0.543069  -0.000030  -0.000026
    11  H   -0.002121  -0.000016   0.000015  -0.000030   0.583595  -0.045125
    12  H    0.001728   0.000007   0.000007  -0.000026  -0.045125   0.562800
    13  H   -0.000484   0.001941   0.000002  -0.001483   0.004924  -0.002274
    14  H   -0.000042   0.000035   0.000000  -0.000067  -0.006967   0.009547
              13         14
     1  O    0.006682   0.239850
     2  C   -0.015000  -0.009882
     3  C   -0.014724  -0.036053
     4  C   -0.004224  -0.000288
     5  C    0.375062   0.032711
     6  H    0.004135   0.000250
     7  H   -0.000484  -0.000042
     8  H    0.001941   0.000035
     9  H    0.000002   0.000000
    10  H   -0.001483  -0.000067
    11  H    0.004924  -0.006967
    12  H   -0.002274   0.009547
    13  H    0.451927  -0.001128
    14  H   -0.001128   0.524493
          Atomic-Atomic Spin Densities.
               1          2          3          4          5          6
     1  O    0.030940   0.005390  -0.004062   0.000140  -0.021544   0.000728
     2  C    0.005390   0.022712   0.033500   0.001826  -0.188562   0.034787
     3  C   -0.004062   0.033500  -0.047688  -0.005662  -0.079096   0.014345
     4  C    0.000140   0.001826  -0.005662   0.039126  -0.008971   0.009031
     5  C   -0.021544  -0.188562  -0.079096  -0.008971   1.457420  -0.063161
     6  H    0.000728   0.034787   0.014345   0.009031  -0.063161   0.037876
     7  H   -0.000807   0.000798  -0.008325  -0.006948   0.000038  -0.015353
     8  H    0.000042   0.001365   0.000452   0.000203  -0.002332   0.000460
     9  H    0.000001  -0.002986  -0.000520  -0.004089   0.006583  -0.000502
    10  H   -0.000076   0.004638   0.000597   0.001982  -0.005081  -0.000699
    11  H    0.008205   0.018980   0.020341   0.000782  -0.053281   0.003512
    12  H   -0.012011  -0.006790   0.025890  -0.001318  -0.017293  -0.001407
    13  H    0.002896   0.024755   0.011405  -0.001129  -0.042391   0.000538
    14  H   -0.001226   0.002986   0.014272  -0.000474  -0.007571  -0.000111
               7          8          9         10         11         12
     1  O   -0.000807   0.000042   0.000001  -0.000076   0.008205  -0.012011
     2  C    0.000798   0.001365  -0.002986   0.004638   0.018980  -0.006790
     3  C   -0.008325   0.000452  -0.000520   0.000597   0.020341   0.025890
     4  C   -0.006948   0.000203  -0.004089   0.001982   0.000782  -0.001318
     5  C    0.000038  -0.002332   0.006583  -0.005081  -0.053281  -0.017293
     6  H   -0.015353   0.000460  -0.000502  -0.000699   0.003512  -0.001407
     7  H    0.078088  -0.001718   0.000761   0.000407  -0.002325   0.003659
     8  H   -0.001718  -0.000030   0.000443  -0.000872   0.000031  -0.000058
     9  H    0.000761   0.000443  -0.002056   0.001491  -0.000005   0.000006
    10  H    0.000407  -0.000872   0.001491  -0.008929  -0.000051   0.000026
    11  H   -0.002325   0.000031  -0.000005  -0.000051   0.030986  -0.011955
    12  H    0.003659  -0.000058   0.000006   0.000026  -0.011955   0.062765
    13  H   -0.001632   0.000221  -0.000047   0.000302   0.000552  -0.001459
    14  H    0.000069  -0.000012  -0.000000   0.000037  -0.001479   0.000866
              13         14
     1  O    0.002896  -0.001226
     2  C    0.024755   0.002986
     3  C    0.011405   0.014272
     4  C   -0.001129  -0.000474
     5  C   -0.042391  -0.007571
     6  H    0.000538  -0.000111
     7  H   -0.001632   0.000069
     8  H    0.000221  -0.000012
     9  H   -0.000047  -0.000000
    10  H    0.000302   0.000037
    11  H    0.000552  -0.001479
    12  H   -0.001459   0.000866
    13  H   -0.046088  -0.000040
    14  H   -0.000040  -0.004939
 Mulliken charges and spin densities:
               1          2
     1  O   -0.357555   0.008617
     2  C   -0.263295  -0.046601
     3  C   -0.209240  -0.024551
     4  C   -0.483027   0.024500
     5  C   -0.124327   0.974757
     6  H    0.150402   0.020045
     7  H    0.152240   0.046712
     8  H    0.140167  -0.001805
     9  H    0.136434  -0.000919
    10  H    0.143655  -0.006228
    11  H    0.131505   0.014292
    12  H    0.140857   0.040920
    13  H    0.194644  -0.052117
    14  H    0.247540   0.002377
 Sum of Mulliken charges =  -0.00000   1.00000
 Mulliken charges and spin densities with hydrogens summed into heavy atoms:
               1          2
     1  O   -0.110015   0.010994
     2  C    0.039348   0.020156
     3  C    0.063122   0.030662
     4  C   -0.062772   0.015548
     5  C    0.070317   0.922640
 APT charges:
               1
     1  O   -0.694280
     2  C   -0.716596
     3  C   -0.523048
     4  C   -1.270998
     5  C   -0.265736
     6  H    0.338098
     7  H    0.371640
     8  H    0.342721
     9  H    0.562660
    10  H    0.304550
    11  H    0.329408
    12  H    0.382227
    13  H    0.363791
    14  H    0.475561
 Sum of APT charges =  -0.00000
 APT charges with hydrogens summed into heavy atoms:
               1
     1  O   -0.218719
     2  C   -0.006858
     3  C    0.188588
     4  C   -0.061066
     5  C    0.098055
 Electronic spatial extent (au):  <R**2>=            650.3120
 Charge=              0.0000 electrons
 Dipole moment (field-independent basis, Debye):
    X=             -1.7877    Y=              0.2458    Z=              0.6539  Tot=              1.9193
 Quadrupole moment (field-independent basis, Debye-Ang):
   XX=            -39.2744   YY=            -31.4418   ZZ=            -31.8641
   XY=             -0.1840   XZ=              1.8984   YZ=             -1.1568
 Traceless Quadrupole moment (field-independent basis, Debye-Ang):
   XX=             -5.0810   YY=              2.7516   ZZ=              2.3293
   XY=             -0.1840   XZ=              1.8984   YZ=             -1.1568
 Octapole moment (field-independent basis, Debye-Ang**2):
  XXX=            -13.8950  YYY=             -3.1127  ZZZ=              1.4451  XYY=              6.5801
  XXY=              1.0067  XXZ=              4.3907  XZZ=              5.1428  YZZ=             -1.0680
  YYZ=              1.2923  XYZ=             -3.9660
 Hexadecapole moment (field-independent basis, Debye-Ang**3):
 XXXX=           -757.8863 YYYY=           -108.4527 ZZZZ=            -62.6277 XXXY=             -8.4642
 XXXZ=              8.9112 YYYX=             -9.0864 YYYZ=             -3.0146 ZZZX=              3.7796
 ZZZY=             -1.0994 XXYY=           -125.8282 XXZZ=           -120.6183 YYZZ=            -24.7399
 XXYZ=             -8.5266 YYXZ=              4.6363 ZZXY=             -2.1720
 N-N= 1.757014667151D+02 E-N=-8.944164967831D+02  KE= 2.320725441299D+02
  Exact polarizability:   0.000   0.000   0.000   0.000   0.000   0.000
 Approx polarizability:  62.739  -1.068  62.222  -0.088  -0.781  58.215
                          Isotropic Fermi Contact Couplings
        Atom                 a.u.       MegaHertz       Gauss      10(-4) cm-1
     1  O(17)              0.02357     -14.28892      -5.09864      -4.76627
     2  C(13)             -0.03167     -35.59906     -12.70263     -11.87457
     3  C(13)             -0.03454     -38.83245     -13.85639     -12.95311
     4  C(13)              0.01036      11.64373       4.15477       3.88393
     5  C(13)              0.17811     200.22764      71.44620      66.78875
     6  H(1)               0.01023      45.74603      16.32332      15.25923
     7  H(1)               0.02605     116.42394      41.54296      38.83485
     8  H(1)              -0.00033      -1.48266      -0.52905      -0.49456
     9  H(1)              -0.00032      -1.41269      -0.50408      -0.47122
    10  H(1)              -0.00039      -1.76236      -0.62886      -0.58786
    11  H(1)               0.00800      35.76013      12.76010      11.92830
    12  H(1)               0.02367     105.80189      37.75274      35.29171
    13  H(1)              -0.01340     -59.91495     -21.37914     -19.98548
    14  H(1)              -0.00057      -2.54071      -0.90659      -0.84749
 --------------------------------------------------------
       Center         ----  Spin Dipole Couplings  ----
                      3XX-RR        3YY-RR        3ZZ-RR
 --------------------------------------------------------
     1   Atom        0.084909     -0.034858     -0.050051
     2   Atom        0.001610     -0.001590     -0.000019
     3   Atom        0.013462     -0.008763     -0.004699
     4   Atom        0.017016     -0.008427     -0.008589
     5   Atom       -0.529437     -0.146220      0.675657
     6   Atom        0.000695      0.002118     -0.002814
     7   Atom        0.004401      0.003591     -0.007991
     8   Atom        0.008080     -0.004152     -0.003928
     9   Atom        0.006257     -0.003168     -0.003089
    10   Atom        0.008586     -0.003525     -0.005062
    11   Atom        0.001198      0.002779     -0.003977
    12   Atom        0.006692      0.000185     -0.006877
    13   Atom       -0.068612      0.045054      0.023559
    14   Atom        0.011845     -0.006185     -0.005660
 --------------------------------------------------------
                        XY            XZ            YZ
 --------------------------------------------------------
     1   Atom       -0.002649     -0.009446     -0.006553
     2   Atom       -0.008838      0.001074     -0.007224
     3   Atom        0.007324     -0.010285     -0.000988
     4   Atom        0.004340      0.003815      0.000754
     5   Atom       -0.024850      0.046072     -0.671592
     6   Atom       -0.009761     -0.008660      0.008480
     7   Atom       -0.012041      0.001578     -0.003911
     8   Atom        0.003882      0.003937      0.000976
     9   Atom       -0.000612     -0.001166     -0.000202
    10   Atom        0.005066     -0.004648     -0.002704
    11   Atom        0.011731      0.008478      0.007000
    12   Atom        0.010455     -0.002399     -0.005934
    13   Atom        0.000878      0.003966      0.036929
    14   Atom       -0.006375      0.005721     -0.005777
 --------------------------------------------------------


 ---------------------------------------------------------------------------------
              Anisotropic Spin Dipole Couplings in Principal Axis System
 ---------------------------------------------------------------------------------

       Atom             a.u.   MegaHertz   Gauss  10(-4) cm-1        Axes

              Baa    -0.0532     3.848     1.373     1.284  0.0706  0.3450  0.9360
     1 O(17)  Bbb    -0.0324     2.346     0.837     0.783 -0.0066  0.9384 -0.3454
              Bcc     0.0856    -6.194    -2.210    -2.066  0.9975 -0.0182 -0.0686
 
              Baa    -0.0114    -1.524    -0.544    -0.508  0.4812  0.7593  0.4381
     2 C(13)  Bbb    -0.0004    -0.057    -0.020    -0.019 -0.6281 -0.0500  0.7765
              Bcc     0.0118     1.581     0.564     0.527 -0.6115  0.6488 -0.4529
 
              Baa    -0.0121    -1.619    -0.578    -0.540 -0.4140  0.7771 -0.4740
     3 C(13)  Bbb    -0.0078    -1.047    -0.374    -0.349  0.1833  0.5813  0.7928
              Bcc     0.0199     2.665     0.951     0.889  0.8916  0.2414 -0.3830
 
              Baa    -0.0093    -1.244    -0.444    -0.415 -0.0147  0.7089 -0.7052
     4 C(13)  Bbb    -0.0090    -1.212    -0.432    -0.404 -0.2161  0.6864  0.6944
              Bcc     0.0183     2.455     0.876     0.819  0.9763  0.1626  0.1431
 
              Baa    -0.5313   -71.289   -25.438   -23.779  0.9947 -0.0692 -0.0765
     5 C(13)  Bbb    -0.5225   -70.120   -25.021   -23.389  0.0977  0.8697  0.4837
              Bcc     1.0538   141.409    50.458    47.169  0.0330 -0.4886  0.8719
 
              Baa    -0.0100    -5.309    -1.895    -1.771  0.5419 -0.1435  0.8281
     6 H(1)   Bbb    -0.0082    -4.391    -1.567    -1.465  0.5909  0.7657 -0.2540
              Bcc     0.0182     9.700     3.461     3.236 -0.5976  0.6270  0.4998
 
              Baa    -0.0100    -5.357    -1.911    -1.787  0.3713  0.5439  0.7525
     7 H(1)   Bbb    -0.0066    -3.526    -1.258    -1.176 -0.6070 -0.4711  0.6400
              Bcc     0.0166     8.883     3.170     2.963  0.7027 -0.6944  0.1552
 
              Baa    -0.0054    -2.862    -1.021    -0.955 -0.3679  0.8087  0.4589
     8 H(1)   Bbb    -0.0050    -2.664    -0.951    -0.889 -0.0988 -0.5248  0.8455
              Bcc     0.0104     5.527     1.972     1.843  0.9246  0.2657  0.2730
 
              Baa    -0.0035    -1.863    -0.665    -0.622  0.1286  0.6868  0.7154
     9 H(1)   Bbb    -0.0029    -1.570    -0.560    -0.524 -0.0391  0.7243 -0.6883
              Bcc     0.0064     3.434     1.225     1.145  0.9909 -0.0606 -0.1200
 
              Baa    -0.0072    -3.821    -1.363    -1.274  0.0865  0.5140  0.8534
    10 H(1)   Bbb    -0.0049    -2.617    -0.934    -0.873 -0.4433  0.7870 -0.4290
              Bcc     0.0121     6.438     2.297     2.147  0.8922  0.3412 -0.2960
 
              Baa    -0.0108    -5.755    -2.054    -1.920  0.7455 -0.3530 -0.5654
    11 H(1)   Bbb    -0.0082    -4.355    -1.554    -1.453  0.2125 -0.6781  0.7036
              Bcc     0.0189    10.110     3.607     3.372  0.6317  0.6447  0.4305
 
              Baa    -0.0111    -5.946    -2.122    -1.983 -0.2728  0.6318  0.7255
    12 H(1)   Bbb    -0.0046    -2.447    -0.873    -0.816  0.5886 -0.4869  0.6453
              Bcc     0.0157     8.393     2.995     2.800  0.7610  0.6031 -0.2391
 
              Baa    -0.0688   -36.702   -13.096   -12.242  0.9989  0.0071 -0.0458
    13 H(1)   Bbb    -0.0040    -2.159    -0.770    -0.720  0.0409 -0.6010  0.7982
              Bcc     0.0728    38.861    13.867    12.963  0.0218  0.7992  0.6007
 
              Baa    -0.0117    -6.259    -2.233    -2.088  0.0380  0.7415  0.6699
    14 H(1)   Bbb    -0.0046    -2.437    -0.870    -0.813 -0.4599 -0.5822  0.6705
              Bcc     0.0163     8.696     3.103     2.901  0.8872 -0.3335  0.3189
 

 ---------------------------------------------------------------------------------

 No NMR shielding tensors so no spin-rotation constants.
 Leave Link  601 at Mon Mar 11 15:44:22 2019, MaxMem=   671088640 cpu:               8.6 elap:               0.5
 (Enter /shared/centos7/gaussian/g16/l701.exe)
 SCFChk:  SCF convergence  9.56D-09 required  1.00D-08
 ... and contract with generalized density number  0.
 Compute integral second derivatives.
 Entering OneElI...
 Calculate overlap and kinetic energy integrals
    NBasis = 276  MinDer = 2  MaxDer = 2
 Requested accuracy = 0.1000D-12
 PrmmSu-InSpLW:  IPartL=    0 NPrtUS=   20 NPrtUL=    1 DoSpLW=F IThBeg=    0 IThEnd=   19 NThAct=   20.
 PrsmSu:  NPrtUS=  20 ThrOK=T IAlg=1 NPAlg=1 LenDen=           0 ISkipM=0 DoSpLW=F IThBeg=    0 IThEnd=   19.
 Prism:   IPart=     0 DynPar=F LinDyn=F Incr=           1.
 PRISM was handed    33458652 working-precision words and  3628 shell-pairs
 PRISM was handed    33458652 working-precision words and  3628 shell-pairs
 PRISM was handed    33458652 working-precision words and  3628 shell-pairs
 PRISM was handed    33458652 working-precision words and  3628 shell-pairs
 PRISM was handed    33458652 working-precision words and  3628 shell-pairs
 PRISM was handed    33458652 working-precision words and  3628 shell-pairs
 PRISM was handed    33458652 working-precision words and  3628 shell-pairs
 PRISM was handed    33458652 working-precision words and  3628 shell-pairs
 PRISM was handed    33458652 working-precision words and  3628 shell-pairs
 PRISM was handed    33458652 working-precision words and  3628 shell-pairs
 PRISM was handed    33458652 working-precision words and  3628 shell-pairs
 PRISM was handed    33458652 working-precision words and  3628 shell-pairs
 PRISM was handed    33458652 working-precision words and  3628 shell-pairs
 PRISM was handed    33458652 working-precision words and  3628 shell-pairs
 PRISM was handed    33458652 working-precision words and  3628 shell-pairs
 PRISM was handed    33458652 working-precision words and  3628 shell-pairs
 PRISM was handed    33458652 working-precision words and  3628 shell-pairs
 PRISM was handed    33458652 working-precision words and  3628 shell-pairs
 PRISM was handed    33458652 working-precision words and  3628 shell-pairs
 PRISM was handed    33458652 working-precision words and  3628 shell-pairs
 IPart=  3 NShTot=         201 NBatch=          46 AvBLen=         4.4
 IPart=  9 NShTot=         179 NBatch=          34 AvBLen=         5.3
 IPart=  7 NShTot=         182 NBatch=          36 AvBLen=         5.1
 IPart=  5 NShTot=         189 NBatch=          37 AvBLen=         5.1
 IPart=  4 NShTot=         195 NBatch=          42 AvBLen=         4.6
 IPart=  2 NShTot=         205 NBatch=          50 AvBLen=         4.1
 IPart=  1 NShTot=         210 NBatch=          53 AvBLen=         4.0
 IPart=  8 NShTot=         181 NBatch=          35 AvBLen=         5.2
 IPart=  0 NShTot=         214 NBatch=          56 AvBLen=         3.8
 IPart= 17 NShTot=         163 NBatch=          28 AvBLen=         5.8
 IPart=  6 NShTot=         188 NBatch=          37 AvBLen=         5.1
 IPart= 14 NShTot=         169 NBatch=          30 AvBLen=         5.6
 IPart= 15 NShTot=         167 NBatch=          29 AvBLen=         5.8
 IPart= 16 NShTot=         164 NBatch=          28 AvBLen=         5.9
 IPart= 13 NShTot=         172 NBatch=          31 AvBLen=         5.5
 IPart= 10 NShTot=         177 NBatch=          34 AvBLen=         5.2
 IPart= 11 NShTot=         175 NBatch=          32 AvBLen=         5.5
 IPart= 18 NShTot=         162 NBatch=          28 AvBLen=         5.8
 IPart= 12 NShTot=         173 NBatch=          31 AvBLen=         5.6
 IPart= 19 NShTot=         162 NBatch=          28 AvBLen=         5.8
 PrSmSu:  NxtVal=             21.
 Entering OneElI...
 Calculate potential energy integrals
    NBasis = 276  MinDer = 2  MaxDer = 2
 Requested accuracy = 0.1000D-12
 PrmmSu-InSpLW:  IPartL=    0 NPrtUS=   20 NPrtUL=    1 DoSpLW=F IThBeg=    0 IThEnd=   19 NThAct=   20.
 PrsmSu:  NPrtUS=  20 ThrOK=T IAlg=1 NPAlg=1 LenDen=           0 ISkipM=0 DoSpLW=F IThBeg=    0 IThEnd=   19.
 Prism:   IPart=     0 DynPar=F LinDyn=F Incr=          23.
 PRISM was handed    33471036 working-precision words and  3424 shell-pairs
 PRISM was handed    33471036 working-precision words and  3424 shell-pairs
 PRISM was handed    33471036 working-precision words and  3424 shell-pairs
 PRISM was handed    33471036 working-precision words and  3424 shell-pairs
 PRISM was handed    33471036 working-precision words and  3424 shell-pairs
 PRISM was handed    33471036 working-precision words and  3424 shell-pairs
 PRISM was handed    33471036 working-precision words and  3424 shell-pairs
 PRISM was handed    33471036 working-precision words and  3424 shell-pairs
 PRISM was handed    33471036 working-precision words and  3424 shell-pairs
 PRISM was handed    33471036 working-precision words and  3424 shell-pairs
 PRISM was handed    33471036 working-precision words and  3424 shell-pairs
 PRISM was handed    33471036 working-precision words and  3424 shell-pairs
 PRISM was handed    33471036 working-precision words and  3424 shell-pairs
 PRISM was handed    33471036 working-precision words and  3424 shell-pairs
 PRISM was handed    33471036 working-precision words and  3424 shell-pairs
 PRISM was handed    33471036 working-precision words and  3424 shell-pairs
 PRISM was handed    33471036 working-precision words and  3424 shell-pairs
 PRISM was handed    33471036 working-precision words and  3424 shell-pairs
 PRISM was handed    33471036 working-precision words and  3424 shell-pairs
 PRISM was handed    33471036 working-precision words and  3424 shell-pairs
 IPart=  3 NShTot=        2660 NBatch=         190 AvBLen=        14.0
 IPart= 16 NShTot=        2184 NBatch=         156 AvBLen=        14.0
 IPart= 17 NShTot=        2156 NBatch=         154 AvBLen=        14.0
 IPart= 15 NShTot=        2212 NBatch=         158 AvBLen=        14.0
 IPart= 18 NShTot=        2128 NBatch=         152 AvBLen=        14.0
 IPart= 13 NShTot=        2254 NBatch=         161 AvBLen=        14.0
 IPart= 14 NShTot=        2226 NBatch=         159 AvBLen=        14.0
 IPart=  9 NShTot=        2352 NBatch=         168 AvBLen=        14.0
 IPart=  5 NShTot=        2520 NBatch=         180 AvBLen=        14.0
 IPart=  7 NShTot=        2450 NBatch=         175 AvBLen=        14.0
 IPart= 11 NShTot=        2324 NBatch=         166 AvBLen=        14.0
 IPart=  4 NShTot=        2618 NBatch=         187 AvBLen=        14.0
 IPart=  6 NShTot=        2478 NBatch=         177 AvBLen=        14.0
 IPart=  2 NShTot=        2674 NBatch=         191 AvBLen=        14.0
 IPart=  1 NShTot=        2744 NBatch=         196 AvBLen=        14.0
 IPart=  0 NShTot=        2814 NBatch=         201 AvBLen=        14.0
 IPart= 12 NShTot=        2296 NBatch=         164 AvBLen=        14.0
 IPart=  8 NShTot=        2408 NBatch=         172 AvBLen=        14.0
 IPart= 19 NShTot=        2100 NBatch=         150 AvBLen=        14.0
 IPart= 10 NShTot=        2338 NBatch=         167 AvBLen=        14.0
 PrSmSu:  NxtVal=            461.
 Polarizability after L701:
                1             2             3 
      1  0.000000D+00
      2  0.000000D+00  0.000000D+00
      3  0.000000D+00  0.000000D+00  0.000000D+00
 Dipole Derivatives after L701:
                 1             2             3             4             5 
      1  -0.662784D+00  0.825560D+00 -0.442250D+00 -0.107479D+00  0.992536D+00
      2  -0.990045D-01 -0.732627D+00  0.303491D+00  0.989175D-01 -0.106754D+01
      3   0.540928D-01  0.239916D+00 -0.687427D+00 -0.144109D-01 -0.955563D-01
                 6             7             8             9            10 
      1   0.552635D-01 -0.202118D-01 -0.119016D+01 -0.452397D-01 -0.185104D+01
      2  -0.914272D-01 -0.125285D+00 -0.757754D+00  0.294001D-01  0.705944D-01
      3  -0.974773D+00 -0.415711D-01  0.603455D-02 -0.791177D+00  0.639580D-02
                11            12            13            14            15 
      1  -0.702904D+00  0.217684D-01 -0.210797D+00  0.120265D+00  0.494104D-01
      2  -0.932579D+00  0.730072D-02  0.348534D-01 -0.355277D+00 -0.193538D+00
      3   0.336092D-01 -0.102937D+01  0.783804D-01 -0.258345D+00 -0.231135D+00
                16            17            18            19            20 
      1   0.121725D+00 -0.257768D+00 -0.408112D+00  0.240752D+00 -0.413860D+00
      2   0.218633D-01  0.351425D+00  0.350877D+00 -0.701092D-01  0.519878D+00
      3   0.339862D-01  0.191443D+00  0.541144D+00  0.403949D-01 -0.191799D+00
                21            22            23            24            25 
      1   0.364590D+00  0.224957D+00  0.492496D+00  0.897650D+00  0.137456D+01
      2  -0.340109D+00  0.436000D-01  0.295914D+00  0.319128D+00 -0.700957D-01
      3   0.354290D+00  0.299171D-01  0.177037D+00  0.507293D+00 -0.108906D+00
                26            27            28            29            30 
      1  -0.742098D+00 -0.294328D+00  0.292543D-01  0.707566D+00 -0.604418D+00
      2   0.178836D+00  0.225634D-01 -0.540180D-01  0.492578D+00 -0.341169D+00
      3   0.700919D-01  0.134581D+00  0.586105D-01 -0.269808D+00  0.391819D+00
                31            32            33            34            35 
      1   0.144702D+00  0.368753D+00  0.441116D+00  0.299741D+00  0.396959D+00
      2  -0.430958D-02  0.421635D+00  0.340133D+00  0.752155D-01  0.393343D+00
      3   0.132833D-01  0.185550D+00  0.421888D+00 -0.820348D-01 -0.203104D+00
                36            37            38            39            40 
      1  -0.561694D+00  0.159700D+00 -0.881200D-03 -0.107329D-01  0.256918D+00
      2  -0.351859D+00  0.166547D-01  0.564713D+00  0.275604D+00  0.611226D-01
      3   0.453598D+00  0.644233D-03  0.366201D+00  0.366960D+00 -0.687825D-01
                41            42 
      1  -0.596467D+00  0.536976D+00
      2   0.627451D+00 -0.330394D+00
      3  -0.251270D+00  0.542314D+00
 Hessian after L701:
                1             2             3             4             5 
      1  0.621744D+01
      2  0.299694D+01  0.691305D+01
      3 -0.320102D+00  0.247794D+01  0.974416D+01
      4  0.342394D+00 -0.199154D+00 -0.120730D+00  0.102729D+02
      5 -0.170712D+00 -0.122154D+00  0.146978D-01 -0.149891D-02  0.129633D+02
      6 -0.862730D-01  0.165832D-01 -0.202554D+00  0.396991D+00 -0.424353D+00
      7 -0.232738D+01 -0.336372D+01  0.772226D+00  0.636315D-01  0.139374D+00
      8 -0.331095D+01 -0.345543D+01 -0.648275D+00 -0.484299D-01 -0.110808D+00
      9  0.797904D+00 -0.648828D+00 -0.626499D+01  0.272986D-01  0.756874D-03
     10  0.110872D+00  0.194771D-01 -0.603501D-02 -0.202715D+01  0.202106D+01
     11 -0.204581D-01 -0.772584D-01  0.508602D-02  0.204829D+01 -0.325041D+01
     12  0.594119D-02  0.212908D-02 -0.765194D-01  0.178963D-01 -0.156308D-01
     13  0.518839D+00 -0.218655D-01  0.229555D+00 -0.136933D+01 -0.170843D+01
     14 -0.205980D+00 -0.340222D+00 -0.329244D-01 -0.167785D+01 -0.423111D+01
     15  0.236809D+00 -0.337832D-01 -0.304213D+00 -0.856847D+00  0.428849D+00
     16  0.248307D-01 -0.159695D-01 -0.128156D-01 -0.381819D+01  0.308236D-01
     17 -0.324357D-01 -0.911735D-02  0.114225D-01  0.871879D-01 -0.306057D+01
     18 -0.354436D-01  0.938222D-02 -0.406977D-02  0.165018D+00  0.116130D+01
     19  0.119558D-01 -0.760728D-02  0.536367D-02 -0.356416D+01 -0.324329D+00
     20 -0.251470D-01 -0.555217D-02 -0.338743D-02 -0.274548D+00 -0.214963D+01
     21  0.190167D-01 -0.482160D-02 -0.878298D-02  0.227874D+00 -0.119097D+01
     22  0.162565D-01  0.508889D-02  0.365678D-02  0.123943D-01 -0.311098D-01
     23  0.966827D-02 -0.460590D-02  0.103170D-02  0.161754D-01 -0.481929D-01
     24  0.193305D-01  0.684926D-02 -0.619212D-02  0.362315D-01  0.822119D-02
     25  0.217836D-01  0.221641D-02 -0.436976D-02 -0.149974D-01 -0.221458D-01
     26 -0.912806D-02 -0.669711D-02  0.179529D-02 -0.513502D-01  0.599300D-01
     27 -0.324298D-02 -0.368664D-03 -0.513223D-02 -0.594884D-02  0.728011D-02
     28  0.137739D-01  0.566241D-02 -0.436734D-02  0.148131D-01 -0.676665D-01
     29  0.176405D-01 -0.174150D-02 -0.533139D-02 -0.610158D-02 -0.206040D-01
     30 -0.165056D-01 -0.676923D-02 -0.409131D-02 -0.126369D-02 -0.991592D-02
     31 -0.885742D-01  0.400611D-01 -0.672501D-01  0.800322D-01  0.578984D-01
     32  0.222670D-01  0.153864D+00  0.237141D+00  0.979779D-01 -0.536241D-01
     33 -0.959779D-01  0.236477D+00  0.242148D+00  0.107589D+00  0.409801D-01
     34 -0.360673D-01  0.150585D+00 -0.760210D-01  0.300442D-01  0.102153D-01
     35  0.136557D+00 -0.215265D-01 -0.393781D-01  0.756668D-02  0.141649D-01
     36 -0.443761D-01 -0.597411D-01  0.186850D+00 -0.243150D-01 -0.163087D-01
     37  0.101434D+00  0.380221D-01  0.399795D-01 -0.252631D-01  0.656279D-01
     38  0.972756D-01 -0.340599D-01  0.289901D-01  0.150406D-01  0.118567D-01
     39  0.859739D-01  0.292063D-01 -0.491960D-01  0.200964D-01 -0.637659D-02
     40 -0.492755D+01  0.350261D+00 -0.439090D+00  0.290733D-02  0.893488D-03
     41  0.494457D+00 -0.298855D+01 -0.204880D+01 -0.133110D-01 -0.219910D-02
     42 -0.563054D+00 -0.202425D+01 -0.324741D+01  0.101090D-01  0.146974D-02
                6             7             8             9            10 
      6  0.143111D+02
      7  0.140971D-01  0.109453D+02
      8  0.413426D-02  0.140887D+01  0.140390D+02
      9 -0.151623D+00 -0.794401D+00  0.227575D+00  0.166548D+02
     10  0.200471D-01  0.866854D-01  0.554904D-02  0.222411D-01  0.966883D+01
     11 -0.204707D-01  0.358996D-02 -0.246938D-01  0.391980D-02 -0.111855D+01
     12 -0.476409D+01  0.157606D-01  0.142373D-02 -0.421250D-01  0.671094D-01
     13 -0.794340D+00 -0.127622D+01  0.168763D+01  0.490314D+00  0.338057D+00
     14  0.423943D+00  0.166727D+01 -0.511661D+01  0.275588D+00  0.686532D-01
     15 -0.489665D+01  0.525531D+00  0.274892D+00 -0.561432D+01 -0.121361D+00
     16  0.790588D-01  0.144586D-01 -0.229412D-01 -0.148470D-01  0.110322D-01
     17  0.117986D+01 -0.353407D-01 -0.174327D-01  0.115213D-01  0.140281D-01
     18 -0.182633D+01 -0.567083D-01  0.323128D-01 -0.161821D-01  0.235576D-01
     19  0.265777D+00  0.583550D-01 -0.330336D-01  0.103862D-01  0.146343D-01
     20 -0.120652D+01 -0.463681D-01  0.541165D-02 -0.854910D-02 -0.158293D-01
[...]
 ! A21   A(2,5,13)             119.1068         -DE/DX =    0.0                 !
 ! A22   A(3,5,13)             117.0185         -DE/DX =    0.0                 !
 ! D1    D(14,1,3,5)           -51.008          -DE/DX =    0.0                 !
 ! D2    D(14,1,3,11)           72.9293         -DE/DX =    0.0                 !
 ! D3    D(14,1,3,12)         -172.3877         -DE/DX =    0.0                 !
 ! D4    D(5,2,4,8)            -59.3491         -DE/DX =    0.0                 !
 ! D5    D(5,2,4,9)           -179.4797         -DE/DX =    0.0                 !
 ! D6    D(5,2,4,10)            60.0554         -DE/DX =    0.0                 !
 ! D7    D(6,2,4,8)            178.0115         -DE/DX =    0.0                 !
 ! D8    D(6,2,4,9)             57.8809         -DE/DX =    0.0                 !
 ! D9    D(6,2,4,10)           -62.584          -DE/DX =    0.0                 !
 ! D10   D(7,2,4,8)             63.1645         -DE/DX =    0.0                 !
 ! D11   D(7,2,4,9)            -56.966          -DE/DX =    0.0                 !
 ! D12   D(7,2,4,10)          -177.431          -DE/DX =    0.0                 !
 ! D13   D(4,2,5,3)           -167.6464         -DE/DX =    0.0                 !
 ! D14   D(4,2,5,13)            30.7059         -DE/DX =    0.0                 !
 ! D15   D(6,2,5,3)            -44.5945         -DE/DX =    0.0                 !
 ! D16   D(6,2,5,13)           153.7578         -DE/DX =    0.0                 !
 ! D17   D(7,2,5,3)             70.3998         -DE/DX =    0.0                 !
 ! D18   D(7,2,5,13)           -91.2479         -DE/DX =    0.0                 !
 ! D19   D(1,3,5,2)            159.7267         -DE/DX =    0.0                 !
 ! D20   D(1,3,5,13)           -38.2602         -DE/DX =    0.0                 !
 ! D21   D(11,3,5,2)            35.1099         -DE/DX =    0.0                 !
 ! D22   D(11,3,5,13)         -162.877          -DE/DX =    0.0                 !
 ! D23   D(12,3,5,2)           -82.3824         -DE/DX =    0.0                 !
 ! D24   D(12,3,5,13)           79.6308         -DE/DX =    0.0                 !
 --------------------------------------------------------------------------------
 GradGradGradGradGradGradGradGradGradGradGradGradGradGradGradGradGradGrad

 Leave Link  103 at Mon Mar 11 15:55:28 2019, MaxMem=   671088640 cpu:               0.5 elap:               0.1
 (Enter /shared/centos7/gaussian/g16/l9999.exe)

 ----------------------------------------------------------------------

 Electric dipole moment (input orientation):
 (Debye = 10**-18 statcoulomb cm , SI units = C m)
                  (au)            (Debye)         (10**-30 SI)
   Tot        0.754295D+00      0.191723D+01      0.639518D+01
   x         -0.704235D+00     -0.178999D+01     -0.597075D+01
   y         -0.945208D-01     -0.240248D+00     -0.801381D+00
   z         -0.253141D+00     -0.643421D+00     -0.214622D+01

 Dipole polarizability, Alpha (input orientation).
 (esu units = cm**3 , SI units = C**2 m**2 J**-1)
 Alpha(0;0):
               (au)            (10**-24 esu)      (10**-40 SI)
   iso        0.550677D+02      0.816020D+01      0.907944D+01
   aniso      0.153788D+02      0.227890D+01      0.253562D+01
   xx         0.647573D+02      0.959605D+01      0.106770D+02
   yx         0.212162D-01      0.314391D-02      0.349807D-02
   yy         0.530842D+02      0.786627D+01      0.875240D+01
   zx        -0.143457D+00     -0.212581D-01     -0.236528D-01
   zy        -0.459611D+00     -0.681073D-01     -0.757796D-01
   zz         0.473616D+02      0.701827D+01      0.780888D+01

 ----------------------------------------------------------------------

 Dipole orientation:
     8          1.64969716         -0.41202577         -4.33149544
     6         -0.62698954          0.78539485          2.34365849
     6          0.89812002          1.15470850         -2.29661393
     6         -1.54333724         -1.16439341          4.26164046
     6         -0.42741152         -0.25076164         -0.26134554
     1          1.20700370          1.54666725          2.92265425
     1         -1.92034026          2.41180119          2.36328239
     1         -3.40020490         -1.88403997          3.73374629
     1         -1.68833570         -0.35194176          6.14655117
     1         -0.24874889         -2.76383452          4.34652860
     1          2.52010941          2.17675276         -1.50416504
     1         -0.33813841          2.58543855         -3.14502187
     1         -1.70690458         -1.74311236         -0.84146071
     1          2.55349317         -1.82847302         -3.64745329

 Electric dipole moment (dipole orientation):
 (Debye = 10**-18 statcoulomb cm , SI units = C m)
                  (au)            (Debye)         (10**-30 SI)
   Tot        0.754295D+00      0.191723D+01      0.639518D+01
   x          0.000000D+00      0.000000D+00      0.000000D+00
   y          0.000000D+00      0.000000D+00      0.000000D+00
   z          0.754295D+00      0.191723D+01      0.639518D+01

 Dipole polarizability, Alpha (dipole orientation).
 (esu units = cm**3 , SI units = C**2 m**2 J**-1)
 Alpha(0;0):
               (au)            (10**-24 esu)      (10**-40 SI)
   iso        0.550677D+02      0.816020D+01      0.907944D+01
   aniso      0.153788D+02      0.227890D+01      0.253562D+01
   xx         0.495210D+02      0.733826D+01      0.816492D+01
   yx         0.603707D+00      0.894602D-01      0.995379D-01
   yy         0.531909D+02      0.788208D+01      0.877000D+01
   zx        -0.575347D+01     -0.852576D+00     -0.948618D+00
   zy        -0.818877D+00     -0.121345D+00     -0.135015D+00
   zz         0.624912D+02      0.926024D+01      0.103034D+02

 ----------------------------------------------------------------------

 Test job not archived.
 1\1\GINC-C0249\Freq\UM062X\6-311+G(2df,2p)\C4H9O1(2)\UNDERKOFFLER.C\11
 -Mar-2019\0\\#P Geom=AllCheck Guess=TCheck SCRF=Check Test GenChk UM06
 2X/6-311+G(2df,2p) Freq\\Gaussian input prepared by ASE\\0,2\O,2.42414
 36801,0.4262280475,-0.0731290538\C,-1.2367441752,-0.5370741518,-0.0543
 650983\C,1.3532703381,-0.4932014812,0.0407070656\C,-2.4431542573,0.397
 8712948,-0.0715474797\C,0.0389319582,0.1682795969,0.2409502262\H,-1.15
 04009809,-1.0585926842,-1.0128066008\H,-1.408784084,-1.3289619332,0.68
 89881346\H,-2.5570196597,0.8952930648,0.8918803436\H,-3.3634002534,-0.
 1452744318,-0.2807797746\H,-2.3212718368,1.1686697615,-0.8322845436\H,
 1.3072741703,-1.155419265,-0.8336078067\H,1.6115117659,-1.1278454192,0
 .8970331579\H,0.0211779005,1.0464906357,0.8771570089\H,2.1866594341,1.
 0797129651,-0.7350625794\\Version=EM64L-G16RevA.03\State=2-A\HF=-232.9
 670211\S2=0.75507\S2-1=0.\S2A=0.750021\RMSD=7.114e-09\RMSF=9.771e-07\Z
 eroPoint=0.1233516\Thermal=0.1304733\Dipole=-0.7042347,-0.0945208,-0.2
 531412\DipoleDeriv=-0.8760202,-0.2272052,0.1197858,-0.2862848,-0.61595
 53,-0.0509074,0.1575733,-0.0319774,-0.394063,0.0415047,0.0150922,-0.00
 55879,-0.0377772,0.0695967,-0.0454301,0.0355434,-0.0309736,0.1397839,0
 .6394515,0.2002125,-0.0402743,0.2742138,0.4814158,-0.0350378,-0.115108
 3,-0.0313143,0.3262741,0.0355367,0.027416,-0.0007315,-0.0186937,0.0644
 952,-0.0001591,-0.0138323,0.0005214,0.089058,0.0029989,-0.023135,0.034
 6353,0.0998875,-0.0413535,0.1684803,0.0702173,0.1730905,-0.1634288,-0.
 0055475,0.0281235,0.0303161,0.0242421,-0.0046304,-0.0756359,0.0038824,
 -0.105588,-0.080701,-0.0315056,-0.0173853,0.0031574,-0.0355765,-0.0740
 801,0.0891406,0.0124324,0.1162059,-0.0193571,0.0434247,0.0102292,-0.01
 62873,0.0441914,0.0096183,-0.0614538,0.0327866,-0.0876339,-0.0902763,-
 0.130171,-0.0422499,-0.0307111,-0.081595,0.0043622,-0.0239585,-0.03776
 11,-0.0178171,0.0664502,0.0400695,-0.0243826,0.0415053,0.0335798,-0.04
 21984,0.0841697,0.0020153,0.0994696,-0.0300338,-0.0007799,-0.04532,-0.
 0119236,-0.0438002,-0.0682717,-0.0792469,-0.0169459,-0.1353584,-0.0817
 982,-0.0411108,0.0319103,-0.0273231,0.007648,-0.0227718,0.073515,-0.03
 64372,0.1068833,-0.0388539,-0.0142713,0.008939,0.0044131,0.0084939,-0.
 0086374,-0.0953064,-0.0133207,-0.1111324,0.0467891,0.2964203,0.0577551
 ,-0.1009742,0.0114709,0.2484104,0.0518303,-0.0810452,0.0556244,0.23015
 67\Polar=64.7573417,0.0212162,53.0842031,-0.1434569,-0.4596111,47.3616
 472\Quadrupole=-3.7870144,2.0687059,1.7183086,0.1462521,-1.3968583,-0.
 8522887\PG=C01 [X(C4H9O1)]\NImag=0\\0.29732728,0.05282330,0.43198679,0
 .09865212,-0.27054746,0.31984906,-0.00362646,0.00062729,0.00001801,0.4
 7736838,0.00539821,0.00039586,-0.00084668,0.00091035,0.50922836,0.0034
 5633,0.00064204,0.00031336,-0.00825234,0.02603227,0.53933985,-0.167664
 78,-0.10133388,0.01178667,-0.01898124,0.00876364,-0.00042616,0.4770202
 6,-0.06923003,-0.15039300,0.02430060,-0.01437935,0.01406385,0.00058935
 ,-0.00849826,0.53296610,-0.00972754,0.00837210,-0.07719010,-0.00208173
 ,0.00130992,0.00312888,0.01789838,0.01378102,0.55592555,-0.00118118,0.
 00011946,0.00024098,-0.14910675,0.06070605,-0.00382530,-0.00124760,-0.
 00255268,-0.00151569,0.52264022,-0.00230731,-0.00005642,0.00033317,0.0
 6058668,-0.12692177,-0.00201283,-0.00155962,-0.00309971,-0.00080691,0.
 05347294,0.53940772,-0.00039532,0.00021020,0.00045887,-0.00206915,-0.0
 0134174,-0.07913174,0.00006668,-0.00149979,-0.00038901,0.00175481,0.00
 085193,0.57473419,-0.04535916,0.00274275,0.00508287,-0.19052795,-0.055
 83920,-0.02279323,-0.18827375,0.05968521,0.01500784,-0.03408209,-0.012
 52886,-0.00529348,0.53098699,-0.03113536,0.00707846,0.00510478,-0.0617
 5402,-0.11231745,-0.03143127,0.06774318,-0.11695577,-0.02621150,0.0173
 2219,0.01241577,0.00450346,-0.00277958,0.48178415,-0.00122260,-0.00038
 039,0.00439181,-0.02716906,-0.03300761,-0.06455017,0.01842524,-0.02837
 317,-0.06603660,0.00058990,0.00159541,0.00009481,0.01003904,0.22082570
 ,0.24181659,-0.00003927,0.00052757,0.00046405,-0.04917512,0.01008705,0
 .01466922,0.00114005,-0.00117755,-0.00134231,-0.00332531,0.01248845,0.
 02438286,0.00131235,-0.01587014,-0.02355921,0.05656422,0.00011077,0.00
 037737,0.00042744,0.01202326,-0.09829755,-0.10419079,0.00109514,-0.000
 43617,0.00053749,0.00197462,-0.00957002,-0.01772827,-0.00302147,-0.012
 81727,-0.01490723,-0.00969290,0.11120556,-0.00009697,0.00061871,0.0003
 9965,0.01755725,-0.10457063,-0.24480110,0.00094280,-0.00072458,-0.0000
 4102,0.00033579,0.00140239,0.00245521,-0.00159939,-0.00479736,-0.00361
 825,-0.01846235,0.11583662,0.26597056,-0.00065225,0.00041442,-0.000343
 69,-0.04819023,-0.03085706,0.03148656,0.00121949,0.00048796,-0.0013122
 4,0.00247010,0.02154916,-0.01946993,-0.01012140,-0.02246083,0.01604798
 ,-0.00003764,-0.00165447,0.00233760,0.05874340,-0.00067763,0.00024219,
 -0.00020077,-0.02176216,-0.16409308,0.12009387,0.00065838,-0.00039406,
 -0.00026366,-0.00117909,-0.01579778,0.01485633,-0.01069521,-0.01421087
 ,0.00709698,0.00255758,0.01030545,-0.00944223,0.02991443,0.18429473,0.
 00019826,-0.00002640,-0.00003701,0.02177879,0.11437122,-0.15778190,0.0
 0027850,0.00032421,0.00035841,0.00018629,-0.00017049,-0.00004986,0.001
 74946,-0.00465641,0.00753663,0.00491308,0.02051051,-0.02253033,-0.0284
 0212,-0.13071200,0.17205653,-0.00001338,-0.00018085,-0.00013265,-0.004
 28579,0.01263683,0.02471764,-0.00020468,0.00010463,0.00013780,-0.04918
 617,0.00981112,0.02179054,0.00206489,0.00093794,0.00102209,-0.00408782
 ,0.00330947,-0.00048731,0.00105419,-0.00088874,-0.00033744,0.05280741,
 0.00014749,0.00008220,0.00004538,0.00298277,-0.01083927,-0.01930417,0.
 00001747,-0.00004166,0.00007322,0.01045672,-0.10063776,-0.10591839,-0.
 00147592,0.00036177,0.00035830,0.00370937,-0.00192053,0.00067407,-0.00
 087661,0.00024169,-0.00010711,-0.01541752,0.10835222,0.00015406,0.0000
 3643,0.00000159,-0.00014644,0.00083351,0.00172244,0.00003582,0.0002971
 4,0.00030028,0.02284499,-0.10678169,-0.25991913,-0.00031079,0.00015571
 ,0.00025290,-0.00056370,0.00033797,0.00155716,0.00044050,-0.00032980,0
 .00068586,-0.02463182,0.11750437,0.27968051,-0.00090317,-0.00006238,0.
 00016335,-0.01997340,-0.01363593,-0.00517587,0.00002919,-0.00110078,-0
 .00065350,-0.23775077,-0.11565298,-0.04406437,-0.00350997,0.00477740,0
 .00096688,0.00058424,-0.00031245,0.00062859,0.00104351,-0.00016540,-0.
 00037683,0.00363028,0.00225494,0.00024252,0.25931735,0.00060720,0.0000
 1618,-0.00010903,0.01973476,0.01182519,0.00523472,0.00054192,0.0010808
 2,0.00018886,-0.11756152,-0.11844438,-0.02679934,0.00302957,-0.0030690
 8,-0.00071934,-0.00084412,0.00080322,-0.00015113,-0.00097515,0.0009289
 5,0.00015679,-0.01142416,-0.00786617,-0.00147748,0.12494548,0.12607727
 ,-0.00008267,-0.00004648,0.00001288,0.00062784,-0.00029206,-0.00085910
 ,0.00014627,-0.00001585,0.00030177,-0.04406211,-0.02620827,-0.05797679
 ,-0.00034106,0.00007639,0.00061713,0.00021962,0.00037062,0.00008254,-0
 .00031180,-0.00008924,-0.00024251,-0.02530405,-0.01444571,-0.00474165,
 0.04849006,0.02922567,0.05748034,0.00008602,-0.00008222,0.00004161,0.0
 0173836,0.01985114,-0.02008032,-0.00009399,0.00006823,0.00008148,-0.05
 116430,-0.02499331,0.02368043,0.00205671,0.00053727,0.00011990,0.00112
 979,-0.00096116,0.00022970,-0.00431407,0.00351323,-0.00022656,-0.00150
 042,-0.00195205,0.00143172,-0.00264498,-0.01812099,0.02042141,0.054599
 54,0.00020644,0.00007655,-0.00007628,-0.00125731,-0.01479935,0.0141463
 2,-0.00010355,0.00003935,-0.00003178,-0.02398946,-0.17873054,0.1316907
 7,-0.00132121,0.00060988,-0.00046762,-0.00070993,0.00009338,-0.0002722
 0,0.00387977,-0.00181184,-0.00035148,0.00196968,0.01170815,-0.01064644
 ,-0.00136101,-0.01135697,0.01119268,0.02251412,0.19412037,-0.00012371,
 -0.00008952,0.00000284,-0.00030889,-0.00128225,0.00092589,-0.00003725,
 -0.00010150,-0.00001393,0.02277849,0.13214788,-0.18107672,0.00010907,0
 .00010140,0.00017973,-0.00056971,-0.00002008,0.00058909,0.00019074,-0.
 00039007,0.00134203,0.00378827,0.02090633,-0.01953783,-0.00018854,-0.0
 0592007,0.00529426,-0.02548054,-0.14535270,0.19262699,-0.01053359,-0.0
 2604850,-0.01987962,0.00142619,0.00075750,0.00099796,-0.04911257,-0.00
 079413,0.00130977,-0.00016113,0.00005147,-0.00003265,0.00066699,0.0193
 2963,0.02216669,-0.00024991,-0.00035314,-0.00063675,-0.00008671,-0.000
 08228,-0.00005514,0.00005528,-0.00013313,-0.00017884,-0.00000317,-0.00
 005458,-0.00005690,0.00004744,0.00000313,0.00003041,0.06054150,-0.0143
 3822,-0.02053677,-0.01449080,-0.00095393,0.00000200,0.00016331,-0.0003
 7370,-0.12668598,-0.11151684,0.00001996,0.00016753,0.00052397,0.004744
 61,-0.01241096,-0.01435382,0.00061534,0.00067408,0.00052881,-0.0000090
 2,0.00006428,0.00012077,-0.00024098,0.00011950,0.00004013,0.00005884,0
 .00000662,0.00003049,-0.00000469,-0.00002921,-0.00004573,0.00778949,0.
 14781192,-0.00286092,0.00169275,0.01095601,-0.00039844,-0.00003195,0.0
 0019402,-0.00163869,-0.11353276,-0.21427491,0.00016408,0.00032298,0.00
 041810,-0.00065071,-0.00323755,-0.00220271,0.00060041,0.00026036,0.000
 34645,0.00018724,0.00003082,-0.00020313,-0.00021650,0.00010125,-0.0000
 1840,0.00009759,-0.00003844,-0.00000376,-0.00005374,0.00001754,-0.0000
 2926,0.00451361,0.12786621,0.22651723,0.00150942,-0.02586193,0.0241492
 4,0.00120697,-0.00039423,0.00110784,-0.05854390,0.04409234,-0.06027060
 ,-0.00028462,-0.00017954,0.00023777,-0.01263519,0.01910184,-0.01935327
 ,-0.00015994,0.00015224,-0.00009674,-0.00108200,-0.00083773,0.00020184
 ,0.00004792,0.00002952,0.00002397,-0.00015055,-0.00005900,0.00004546,0
 .00017318,-0.00011339,0.00004951,0.00179490,0.00042639,-0.00008670,0.0
 7218048,-0.00278339,-0.02338213,0.02282819,0.00023799,-0.00114558,0.00
 006249,0.03057761,-0.11878411,0.10478822,0.00035584,0.00026434,-0.0000
 1414,0.01097925,-0.00860925,0.00958206,-0.00000727,0.00014799,0.000058
 72,0.00041009,0.00021772,0.00014666,-0.00002256,-0.00001785,-0.0000124
 4,0.00013754,-0.00002167,-0.00003076,-0.00009928,0.00002892,-0.0000239
 4,-0.00385880,0.01132475,-0.01427438,-0.03192393,0.14215882,0.00152775
 ,0.00594242,-0.00097657,-0.00052027,0.00065115,-0.00022449,-0.04245922
 ,0.10555726,-0.20214887,-0.00016420,-0.00014367,0.00012537,-0.00253650
 ,-0.00187418,0.00736143,0.00020634,0.00008496,-0.00004355,-0.00017308,
 0.00004855,-0.00010679,-0.00001367,0.00001104,-0.00000345,-0.00005272,
 0.00004384,-0.00002257,0.00005445,-0.00003392,-0.00001134,-0.00786967,
 0.01373902,-0.02288574,0.05128726,-0.12328887,0.21806483,0.00345018,-0
 .00132976,-0.00152500,0.00253254,-0.01844169,-0.01543305,0.00170678,0.
 02160966,0.01659414,0.00233735,-0.00092176,-0.00064786,-0.05444761,0.0
 0529619,0.00207457,-0.00376529,-0.00268989,-0.00083551,-0.00053251,-0.
 00067799,0.00011029,-0.00033306,0.00026865,0.00067570,0.00019909,0.000
 17286,0.00021699,-0.00002676,0.00027550,-0.00020328,-0.00446310,0.0023
 0168,0.00077495,0.00002030,0.00007008,-0.00033829,0.05352579,-0.000004
 35,0.00256866,0.00115954,0.00247849,-0.00663254,-0.01010496,-0.0032916
 3,-0.00996382,-0.01092667,0.00079169,0.00084288,0.00071601,0.00612675,
 -0.22490792,-0.14729847,-0.00158184,-0.00043388,0.00092408,0.00018616,
 0.00006302,0.00041852,-0.00064360,0.00048218,0.00008308,0.00006080,0.0
 0008155,0.00022587,-0.00026823,0.00005853,0.00001281,0.00229122,-0.000
 15918,0.00059575,-0.00054683,0.00035949,0.00031014,-0.00586368,0.23763
 405,-0.00048025,0.00094534,-0.00018479,0.00118420,-0.00208719,0.001649
 67,-0.00201432,-0.00094302,0.00253955,0.00080609,-0.00030180,0.0002877
 2,0.00256677,-0.15784557,-0.12545394,-0.00085150,-0.00133898,-0.000270
 82,-0.00058867,-0.00062094,-0.00103302,-0.00038304,0.00008754,0.000051
 79,0.00002755,0.00033682,0.00006987,-0.00024330,0.00013306,-0.00030491
 ,0.00044966,-0.00123424,0.00029328,0.00104198,-0.00079408,-0.00036263,
 -0.00218873,0.16403650,0.12315502,-0.07239966,0.09764472,-0.11871793,-
 0.00040551,0.00005733,-0.00044928,0.00300674,-0.02831526,0.02587419,0.
 00004226,0.00018358,0.00005967,0.00186918,-0.00104571,-0.00014813,0.00
 010965,0.00001997,0.00018329,0.00048612,0.00032261,-0.00001841,-0.0000
 4864,-0.00001170,-0.00001768,0.00013236,0.00000773,-0.00000903,-0.0000
 8654,0.00000721,-0.00003456,0.00007788,-0.00003576,-0.00043219,-0.0040
 7698,-0.00407317,0.00105181,-0.00020371,0.00026505,0.00067357,0.071496
 84,0.06118288,-0.24845593,0.23207190,0.00052519,-0.00046868,0.00007968
 ,0.00576332,-0.02139585,0.02070654,0.00006329,0.00016013,-0.00005099,0
 .00035331,0.00304854,0.00004921,-0.00010160,-0.00013163,-0.00008527,-0
 .00000887,-0.00005039,-0.00002481,0.00004873,-0.00002449,-0.00004050,0
 .00005593,-0.00006152,0.00000665,-0.00000207,-0.00000722,0.00005744,0.
 00110212,-0.00034858,0.00022743,-0.00388576,-0.00254144,-0.00104774,-0
 .00006986,0.00000699,-0.00037344,-0.06502661,0.27027007,-0.08899854,0.
 25263026,-0.25799761,-0.00021975,0.00026205,0.00007438,-0.00300471,0.0
 0034110,-0.00246003,-0.00013413,-0.00022809,-0.00003101,-0.00102990,-0
 .00071361,-0.00038937,-0.00010678,-0.00018063,-0.00009559,-0.00008908,
 -0.00007783,0.00000510,0.00005015,0.00001390,-0.00003205,-0.00010470,0
 .00002812,-0.00001241,0.00002374,0.00005205,0.00001315,-0.00075852,-0.
 00137130,0.00089282,0.00166246,0.00097227,0.00123435,0.00072509,-0.000
 15220,-0.00043679,0.09198467,-0.25157607,0.25923506\\0.00000010,-0.000
 00075,-0.00000102,-0.00000017,0.00000018,0.00000083,0.00000008,-0.0000
 0021,0.00000038,0.00000010,0.00000039,-0.00000039,0.00000004,0.0000002
 6,-0.00000036,-0.00000036,-0.00000130,0.00000157,-0.00000020,0.0000012
 6,0.00000204,0.00000034,0.00000185,-0.00000110,-0.00000005,0.00000030,
 0.00000053,0.00000018,-0.00000074,-0.00000155,-0.00000041,-0.00000164,
 0.00000141,-0.00000017,0.00000087,0.00000134,0.00000038,0.00000125,-0.
 00000166,0.00000013,-0.00000171,-0.00000201\\\@


 UNLESS WE CHANGE DIRECTIONS, WE WILL WIND UP WHERE WE ARE HEADED.
     -- CONFUCIUS
 Job cpu time:       0 days  2 hours  5 minutes 43.3 seconds.
 Elapsed time:       0 days  0 hours  6 minutes 17.9 seconds.
 File lengths (MBytes):  RWF=   1376 Int=      0 D2E=      0 Chk=     32 Scr=     32
 Normal termination of Gaussian 16 at Mon Mar 11 15:55:29 2019.
