 Entering Gaussian System, Link 0=g16
 Input=GIXGVIVAHMJKNP-UHFFFAOYSA-N_GeoFreq_c8_a1.com
 Output=GIXGVIVAHMJKNP-UHFFFAOYSA-N_GeoFreq_c8_a1.log
 Initial command:
 /shared/centos7/gaussian/g16/l1.exe "/scratch/underkoffler.c/gaussian_scratch/Gau-5700.inp" -scrdir="/scratch/underkoffler.c/gaussian_scratch/"
 Entering Link 1 = /shared/centos7/gaussian/g16/l1.exe PID=      5701.
  
 Copyright (c) 1988,1990,1992,1993,1995,1998,2003,2009,2016,
            Gaussian, Inc.  All Rights Reserved.
  
 This is part of the Gaussian(R) 16 program.  It is based on
 the Gaussian(R) 09 system (copyright 2009, Gaussian, Inc.),
 the Gaussian(R) 03 system (copyright 2003, Gaussian, Inc.),
 the Gaussian(R) 98 system (copyright 1998, Gaussian, Inc.),
 the Gaussian(R) 94 system (copyright 1995, Gaussian, Inc.),
 the Gaussian 92(TM) system (copyright 1992, Gaussian, Inc.),
 the Gaussian 90(TM) system (copyright 1990, Gaussian, Inc.),
 the Gaussian 88(TM) system (copyright 1988, Gaussian, Inc.),
 the Gaussian 86(TM) system (copyright 1986, Carnegie Mellon
 University), and the Gaussian 82(TM) system (copyright 1983,
 Carnegie Mellon University). Gaussian is a federally registered
 trademark of Gaussian, Inc.
  
 This software contains proprietary and confidential information,
 including trade secrets, belonging to Gaussian, Inc.
  
 This software is provided under written license and may be
 used, copied, transmitted, or stored only in accord with that
 written license.
  
 The following legend is applicable only to US Government
 contracts under FAR:
  
                    RESTRICTED RIGHTS LEGEND
  
 Use, reproduction and disclosure by the US Government is
 subject to restrictions as set forth in subparagraphs (a)
 and (c) of the Commercial Computer Software - Restricted
 Rights clause in FAR 52.227-19.
  
 Gaussian, Inc.
 340 Quinnipiac St., Bldg. 40, Wallingford CT 06492
  
  
 ---------------------------------------------------------------
 Warning -- This program may not be used in any manner that
 competes with the business of Gaussian, Inc. or will provide
 assistance to any competitor of Gaussian, Inc.  The licensee
 of this program is prohibited from giving any competitor of
 Gaussian, Inc. access to this program.  By using this program,
 the user acknowledges that Gaussian, Inc. is engaged in the
 business of creating and licensing software in the field of
 computational chemistry and represents and warrants to the
 licensee that it is not a competitor of Gaussian, Inc. and that
 it will not use this program in any manner prohibited above.
 ---------------------------------------------------------------
  

 Cite this work as:
 Gaussian 16, Revision A.03,
 M. J. Frisch, G. W. Trucks, H. B. Schlegel, G. E. Scuseria, 
 M. A. Robb, J. R. Cheeseman, G. Scalmani, V. Barone, 
 G. A. Petersson, H. Nakatsuji, X. Li, M. Caricato, A. V. Marenich, 
 J. Bloino, B. G. Janesko, R. Gomperts, B. Mennucci, H. P. Hratchian, 
 J. V. Ortiz, A. F. Izmaylov, J. L. Sonnenberg, D. Williams-Young, 
 F. Ding, F. Lipparini, F. Egidi, J. Goings, B. Peng, A. Petrone, 
 T. Henderson, D. Ranasinghe, V. G. Zakrzewski, J. Gao, N. Rega, 
 G. Zheng, W. Liang, M. Hada, M. Ehara, K. Toyota, R. Fukuda, 
 J. Hasegawa, M. Ishida, T. Nakajima, Y. Honda, O. Kitao, H. Nakai, 
 T. Vreven, K. Throssell, J. A. Montgomery, Jr., J. E. Peralta, 
 F. Ogliaro, M. J. Bearpark, J. J. Heyd, E. N. Brothers, K. N. Kudin, 
 V. N. Staroverov, T. A. Keith, R. Kobayashi, J. Normand, 
 K. Raghavachari, A. P. Rendell, J. C. Burant, S. S. Iyengar, 
 J. Tomasi, M. Cossi, J. M. Millam, M. Klene, C. Adamo, R. Cammi, 
 J. W. Ochterski, R. L. Martin, K. Morokuma, O. Farkas, 
 J. B. Foresman, and D. J. Fox, Gaussian, Inc., Wallingford CT, 2016.
 
 ******************************************
 Gaussian 16:  EM64L-G16RevA.03 25-Dec-2016
                 9-Apr-2019 
 ******************************************
 %nprocshared=20
 Will use up to   20 processors via shared memory.
 %mem=5GB
 ----------------------------------------------------------------------
 #p m062x/6-311+g(2df,2p) opt=(calcfc,verytight,gdiis,maxcycles=900) fr
 eq iop(7/33=1,2/16=3)
 ----------------------------------------------------------------------

 Warning!  Use of Opt=GDIIS is deprecated since it is seldom a good choice.

 1/6=900,7=1,10=4,18=20,19=11,26=3,38=1/1,3;
 2/9=110,12=2,16=3,17=6,18=5,40=1/2;
 3/5=4,6=6,7=214,11=2,25=1,30=1,71=2,74=-55,140=1/1,2,3;
 4//1;
 5/5=2,38=5/2;
 8/6=4,10=90,11=11/1;
 11/6=1,8=1,9=11,15=111,16=1/1,2,10;
 10/6=1,13=1/2;
 6/7=2,8=2,9=2,10=2,28=1/1;
 7/10=1,18=20,25=1,33=1/1,2,3,16;
 1/6=900,7=1,10=4,18=20,19=11,26=3/3(2);
 2/9=110,16=3/2;
 99//99;
 2/9=110,16=3/2;
 3/5=4,6=6,7=214,11=2,25=1,30=1,71=1,74=-55/1,2,3;
 4/5=5,16=3,69=1/1;
 5/5=2,38=5/2;
 7/33=1/1,2,3,16;
 1/6=900,7=1,18=20,19=11,26=3/3(-5);
 2/9=110,16=3/2;
 6/7=2,8=2,9=2,10=2,19=2,28=1/1;
 99/9=1/99;
 Leave Link    1 at Tue Apr  9 01:12:36 2019, MaxMem=   671088640 cpu:              25.9 elap:               1.4
 (Enter /shared/centos7/gaussian/g16/l101.exe)
 ------------------------------
 Gaussian input prepared by ASE
 ------------------------------
 Symbolic Z-matrix:
 Charge =  0 Multiplicity = 2
 O                     1.61118   0.72397  -13.86209 
 C                     0.48606   0.48616  -10.21343 
 C                     1.79489   0.70404  -12.47074 
 C                     0.73114  -0.96958  -9.86832 
 C                     0.51921   0.7633   -11.68685 
 H                     1.24075   1.09647  -9.69442 
 H                    -0.51217   0.7857   -9.80432 
 H                     0.18964  -1.63818  -10.55436 
 H                     1.82225  -1.20613  -9.93142 
 H                     0.38855  -1.18671  -8.82795 
 H                     2.35519  -0.23658  -12.23542 
 H                     2.46809   1.51437  -12.16932 
 H                    -0.42602   0.652    -12.23365 
 H                     0.99497   1.45891  -14.06168 
 
 ITRead=  0  0  0  0  0  0  0  0  0  0  0  0  0  0
 MicOpt= -1 -1 -1 -1 -1 -1 -1 -1 -1 -1 -1 -1 -1 -1
 NAtoms=     14 NQM=       14 NQMF=       0 NMMI=      0 NMMIF=      0
                NMic=       0 NMicF=      0.
                    Isotopes and Nuclear Properties:
 (Nuclear quadrupole moments (NQMom) in fm**2, nuclear magnetic moments (NMagM)
  in nuclear magnetons)

  Atom         1           2           3           4           5           6           7           8           9          10
 IAtWgt=          16          12          12          12          12           1           1           1           1           1
 AtmWgt=  15.9949146  12.0000000  12.0000000  12.0000000  12.0000000   1.0078250   1.0078250   1.0078250   1.0078250   1.0078250
 NucSpn=           0           0           0           0           0           1           1           1           1           1
 AtZEff=  -0.0000000  -0.0000000  -0.0000000  -0.0000000  -0.0000000  -0.0000000  -0.0000000  -0.0000000  -0.0000000  -0.0000000
 NQMom=    0.0000000   0.0000000   0.0000000   0.0000000   0.0000000   0.0000000   0.0000000   0.0000000   0.0000000   0.0000000
 NMagM=    0.0000000   0.0000000   0.0000000   0.0000000   0.0000000   2.7928460   2.7928460   2.7928460   2.7928460   2.7928460
 AtZNuc=   8.0000000   6.0000000   6.0000000   6.0000000   6.0000000   1.0000000   1.0000000   1.0000000   1.0000000   1.0000000

  Atom        11          12          13          14
 IAtWgt=           1           1           1           1
 AtmWgt=   1.0078250   1.0078250   1.0078250   1.0078250
 NucSpn=           1           1           1           1
 AtZEff=  -0.0000000  -0.0000000  -0.0000000  -0.0000000
 NQMom=    0.0000000   0.0000000   0.0000000   0.0000000
 NMagM=    2.7928460   2.7928460   2.7928460   2.7928460
 AtZNuc=   1.0000000   1.0000000   1.0000000   1.0000000
 Leave Link  101 at Tue Apr  9 01:12:36 2019, MaxMem=   671088640 cpu:               6.8 elap:               0.4
 (Enter /shared/centos7/gaussian/g16/l103.exe)

 GradGradGradGradGradGradGradGradGradGradGradGradGradGradGradGradGradGrad
 Berny optimization.
 Initialization pass.
                           ----------------------------
                           !    Initial Parameters    !
                           ! (Angstroms and Degrees)  !
 --------------------------                            --------------------------
 ! Name  Definition              Value          Derivative Info.                !
 --------------------------------------------------------------------------------
 ! R1    R(1,3)                  1.4036         calculate D2E/DX2 analytically  !
 ! R2    R(1,14)                 0.9796         calculate D2E/DX2 analytically  !
 ! R3    R(2,4)                  1.516          calculate D2E/DX2 analytically  !
 ! R4    R(2,5)                  1.4996         calculate D2E/DX2 analytically  !
 ! R5    R(2,6)                  1.1006         calculate D2E/DX2 analytically  !
 ! R6    R(2,7)                  1.1196         calculate D2E/DX2 analytically  !
 ! R7    R(3,5)                  1.4985         calculate D2E/DX2 analytically  !
 ! R8    R(3,11)                 1.1198         calculate D2E/DX2 analytically  !
 ! R9    R(3,12)                 1.0958         calculate D2E/DX2 analytically  !
 ! R10   R(4,8)                  1.1004         calculate D2E/DX2 analytically  !
 ! R11   R(4,9)                  1.1182         calculate D2E/DX2 analytically  !
 ! R12   R(4,10)                 1.1166         calculate D2E/DX2 analytically  !
 ! R13   R(5,13)                 1.0977         calculate D2E/DX2 analytically  !
 ! A1    A(3,1,14)             107.1551         calculate D2E/DX2 analytically  !
 ! A2    A(4,2,5)              113.4248         calculate D2E/DX2 analytically  !
 ! A3    A(4,2,6)              108.3165         calculate D2E/DX2 analytically  !
 ! A4    A(4,2,7)              108.5323         calculate D2E/DX2 analytically  !
 ! A5    A(5,2,6)              110.2235         calculate D2E/DX2 analytically  !
 ! A6    A(5,2,7)              109.2251         calculate D2E/DX2 analytically  !
 ! A7    A(6,2,7)              106.8993         calculate D2E/DX2 analytically  !
 ! A8    A(1,3,5)              113.9908         calculate D2E/DX2 analytically  !
 ! A9    A(1,3,11)             106.6026         calculate D2E/DX2 analytically  !
 ! A10   A(1,3,12)             110.0351         calculate D2E/DX2 analytically  !
 ! A11   A(5,3,11)             110.4406         calculate D2E/DX2 analytically  !
 ! A12   A(5,3,12)             110.4793         calculate D2E/DX2 analytically  !
 ! A13   A(11,3,12)            104.831          calculate D2E/DX2 analytically  !
 ! A14   A(2,4,8)              111.2205         calculate D2E/DX2 analytically  !
 ! A15   A(2,4,9)              110.3657         calculate D2E/DX2 analytically  !
 ! A16   A(2,4,10)             110.4391         calculate D2E/DX2 analytically  !
 ! A17   A(8,4,9)              108.4485         calculate D2E/DX2 analytically  !
 ! A18   A(8,4,10)             108.1643         calculate D2E/DX2 analytically  !
 ! A19   A(9,4,10)             108.1071         calculate D2E/DX2 analytically  !
 ! A20   A(2,5,3)              121.7022         calculate D2E/DX2 analytically  !
 ! A21   A(2,5,13)             116.8514         calculate D2E/DX2 analytically  !
 ! A22   A(3,5,13)             117.9368         calculate D2E/DX2 analytically  !
 ! D1    D(14,1,3,5)            48.493          calculate D2E/DX2 analytically  !
 ! D2    D(14,1,3,11)          170.6054         calculate D2E/DX2 analytically  !
 ! D3    D(14,1,3,12)          -76.2509         calculate D2E/DX2 analytically  !
 ! D4    D(5,2,4,8)            -42.2378         calculate D2E/DX2 analytically  !
 ! D5    D(5,2,4,9)             78.1761         calculate D2E/DX2 analytically  !
 ! D6    D(5,2,4,10)          -162.343          calculate D2E/DX2 analytically  !
 ! D7    D(6,2,4,8)           -164.9391         calculate D2E/DX2 analytically  !
 ! D8    D(6,2,4,9)            -44.5252         calculate D2E/DX2 analytically  !
 ! D9    D(6,2,4,10)            74.9557         calculate D2E/DX2 analytically  !
 ! D10   D(7,2,4,8)             79.3442         calculate D2E/DX2 analytically  !
 ! D11   D(7,2,4,9)           -160.2419         calculate D2E/DX2 analytically  !
 ! D12   D(7,2,4,10)           -40.761          calculate D2E/DX2 analytically  !
 ! D13   D(4,2,5,3)            -70.1233         calculate D2E/DX2 analytically  !
 ! D14   D(4,2,5,13)            88.2973         calculate D2E/DX2 analytically  !
 ! D15   D(6,2,5,3)             51.5181         calculate D2E/DX2 analytically  !
 ! D16   D(6,2,5,13)          -150.0613         calculate D2E/DX2 analytically  !
 ! D17   D(7,2,5,3)            168.6831         calculate D2E/DX2 analytically  !
 ! D18   D(7,2,5,13)           -32.8963         calculate D2E/DX2 analytically  !
 ! D19   D(1,3,5,2)            167.9063         calculate D2E/DX2 analytically  !
 ! D20   D(1,3,5,13)             9.7094         calculate D2E/DX2 analytically  !
 ! D21   D(11,3,5,2)            47.9307         calculate D2E/DX2 analytically  !
 ! D22   D(11,3,5,13)         -110.2662         calculate D2E/DX2 analytically  !
 ! D23   D(12,3,5,2)           -67.5872         calculate D2E/DX2 analytically  !
 ! D24   D(12,3,5,13)          134.2159         calculate D2E/DX2 analytically  !
 --------------------------------------------------------------------------------
 Trust Radius=3.00D-01 FncErr=1.00D-07 GrdErr=1.00D-06 EigMax=2.50D+02 EigMin=1.00D-04
 Number of steps in this run=    100 maximum allowed number of steps=    100.
 GradGradGradGradGradGradGradGradGradGradGradGradGradGradGradGradGradGrad

 Leave Link  103 at Tue Apr  9 01:12:36 2019, MaxMem=   671088640 cpu:               0.1 elap:               0.0
 (Enter /shared/centos7/gaussian/g16/l202.exe)
                          Input orientation:                          
 ---------------------------------------------------------------------
 Center     Atomic      Atomic             Coordinates (Angstroms)
 Number     Number       Type             X           Y           Z
 ---------------------------------------------------------------------
      1          8           0        1.611183    0.723974  -13.862088
      2          6           0        0.486064    0.486163  -10.213429
      3          6           0        1.794894    0.704035  -12.470741
      4          6           0        0.731137   -0.969583   -9.868321
      5          6           0        0.519214    0.763303  -11.686847
      6          1           0        1.240752    1.096471   -9.694417
      7          1           0       -0.512174    0.785696   -9.804320
      8          1           0        0.189636   -1.638176  -10.554361
      9          1           0        1.822252   -1.206130   -9.931416
     10          1           0        0.388549   -1.186713   -8.827946
     11          1           0        2.355188   -0.236579  -12.235416
     12          1           0        2.468088    1.514374  -12.169315
     13          1           0       -0.426015    0.652000  -12.233654
     14          1           0        0.994965    1.458910  -14.061683
 ---------------------------------------------------------------------
                    Distance matrix (angstroms):
                    1          2          3          4          5
     1  O    0.000000
     2  C    3.825593   0.000000
     3  C    1.403564   2.618390   0.000000
     4  C    4.426374   1.516033   3.271875   0.000000
     5  C    2.434259   1.499622   1.498453   2.520881   0.000000
     6  H    4.200649   1.100638   2.858156   2.135071   2.145086
     7  H    4.580168   1.119629   3.526902   2.151958   2.146665
     8  H    4.305997   2.171848   3.425685   1.100405   2.675490
     9  H    4.384066   2.174577   3.177680   1.118243   2.942466
    10  H    5.521608   2.174302   4.338513   1.116644   3.463084
    11  H    2.030337   2.846825   1.119849   2.962764   2.161363
    12  H    2.055358   2.968355   1.095763   3.805471   2.143594
    13  H    2.609053   2.222768   2.234135   3.092463   1.097654
    14  H    0.979639   4.001784   1.934119   4.852985   2.519931
                    6          7          8          9         10
     6  H    0.000000
     7  H    1.783651   0.000000
     8  H    3.053301   2.632538   0.000000
     9  H    2.386688   3.071330   1.800044   0.000000
    10  H    2.586494   2.378026   1.795521   1.809289   0.000000
    11  H    3.078256   3.895771   3.078966   2.555868   4.047379
    12  H    2.793943   3.873776   4.211649   3.581401   4.773374
    13  H    3.069754   2.434535   2.905849   3.715864   3.955152
    14  H    4.389166   4.566161   4.747821   4.984570   5.895682
                   11         12         13         14
    11  H    0.000000
    12  H    1.755833   0.000000
    13  H    2.919703   3.020540   0.000000
    14  H    2.839038   2.398796   2.451934   0.000000
 Stoichiometry    C4H9O(2)
 Framework group  C1[X(C4H9O)]
 Deg. of freedom    36
 Full point group                 C1      NOp   1
 Largest Abelian subgroup         C1      NOp   1
 Largest concise Abelian subgroup C1      NOp   1
                         Standard orientation:                         
 ---------------------------------------------------------------------
 Center     Atomic      Atomic             Coordinates (Angstroms)
 Number     Number       Type             X           Y           Z
 ---------------------------------------------------------------------
      1          8           0        2.334519   -0.259485   -0.258775
      2          6           0       -1.356850    0.613399    0.238242
      3          6           0        1.108199   -0.249753    0.423893
      4          6           0       -2.075373   -0.639408   -0.222794
      5          6           0        0.082972    0.662280   -0.178159
      6          1           0       -1.438300    0.675399    1.334109
      7          1           0       -1.891685    1.504243   -0.178791
      8          1           0       -1.805311   -0.895167   -1.258432
      9          1           0       -1.811476   -1.503953    0.435528
     10          1           0       -3.181523   -0.493586   -0.177380
     11          1           0        0.736722   -1.306179    0.429515
     12          1           0        1.268117   -0.003049    1.479478
     13          1           0        0.300702    1.104522   -1.158904
     14          1           0        2.592910    0.674544   -0.402014
 ---------------------------------------------------------------------
 Rotational constants (GHZ):          13.1745608           2.3039362           2.1691975
 Leave Link  202 at Tue Apr  9 01:12:36 2019, MaxMem=   671088640 cpu:               0.1 elap:               0.0
 (Enter /shared/centos7/gaussian/g16/l301.exe)
 Standard basis: 6-311+G(2df,2p) (5D, 7F)
 Ernie: Thresh=  0.10000D-02 Tol=  0.10000D-05 Strict=F.
 There are   276 symmetry adapted cartesian basis functions of A   symmetry.
 There are   251 symmetry adapted basis functions of A   symmetry.
   251 basis functions,   359 primitive gaussians,   276 cartesian basis functions
    21 alpha electrons       20 beta electrons
       nuclear repulsion energy       177.1938977423 Hartrees.
 IExCor= 4336 DFT=T Ex+Corr=M062X ExCW=0 ScaHFX=  0.540000
 ScaDFX=  1.000000  1.000000  1.000000  1.000000 ScalE2=  1.000000  1.000000
 IRadAn=      5 IRanWt=     -1 IRanGd=            0 ICorTp=0 IEmpDi=  4
 NAtoms=   14 NActive=   14 NUniq=   14 SFac= 1.00D+00 NAtFMM=   60 NAOKFM=F Big=F
 Integral buffers will be    131072 words long.
 Raffenetti 2 integral format.
 Two-electron integral symmetry is turned on.
 Leave Link  301 at Tue Apr  9 01:12:36 2019, MaxMem=   671088640 cpu:               0.9 elap:               0.1
 (Enter /shared/centos7/gaussian/g16/l302.exe)
 NPDir=0 NMtPBC=     1 NCelOv=     1 NCel=       1 NClECP=     1 NCelD=      1
         NCelK=      1 NCelE2=     1 NClLst=     1 CellRange=     0.0.
 One-electron integrals computed using PRISM.
 One-electron integral symmetry used in STVInt
 NBasis=   251 RedAO= T EigKep=  5.00D-05  NBF=   251
 NBsUse=   251 1.00D-06 EigRej= -1.00D+00 NBFU=   251
 Precomputing XC quadrature grid using
 IXCGrd= 4 IRadAn=           5 IRanWt=          -1 IRanGd=           0 AccXCQ= 0.00D+00.
 Generated NRdTot=       0 NPtTot=           0 NUsed=           0 NTot=          32
 NSgBfM=   276   276   276   276   276 MxSgAt=    14 MxSgA2=    14.
 Leave Link  302 at Tue Apr  9 01:12:37 2019, MaxMem=   671088640 cpu:               4.8 elap:               0.3
 (Enter /shared/centos7/gaussian/g16/l303.exe)
 DipDrv:  MaxL=1.
 Leave Link  303 at Tue Apr  9 01:12:37 2019, MaxMem=   671088640 cpu:               0.5 elap:               0.0
 (Enter /shared/centos7/gaussian/g16/l401.exe)
 ExpMin= 4.38D-02 ExpMax= 8.59D+03 ExpMxC= 1.30D+03 IAcc=3 IRadAn=         5 AccDes= 0.00D+00
 Harris functional with IExCor= 1009 and IRadAn=       5 diagonalized for initial guess.
 HarFok:  IExCor= 1009 AccDes= 0.00D+00 IRadAn=         5 IDoV= 1 UseB2=F ITyADJ=14
 ICtDFT=  3500011 ScaDFX=  1.000000  1.000000  1.000000  1.000000
 FoFCou: FMM=F IPFlag=           0 FMFlag=      100000 FMFlg1=           0
         NFxFlg=           0 DoJE=T BraDBF=F KetDBF=T FulRan=T
         wScrn=  0.000000 ICntrl=       500 IOpCl=  0 I1Cent=   200000004 NGrid=           0
         NMat0=    1 NMatS0=      1 NMatT0=    0 NMatD0=    1 NMtDS0=    0 NMtDT0=    0
 Petite list used in FoFCou.
 Harris En= -232.887521034800    
 JPrj=0 DoOrth=F DoCkMO=F.
 Initial guess <Sx>= 0.0000 <Sy>= 0.0000 <Sz>= 0.5000 <S**2>= 0.7500 S= 0.5000
 Leave Link  401 at Tue Apr  9 01:12:38 2019, MaxMem=   671088640 cpu:              17.9 elap:               0.9
 (Enter /shared/centos7/gaussian/g16/l502.exe)
 Integral symmetry usage will be decided dynamically.
 UHF open shell SCF:
 Using DIIS extrapolation, IDIIS=  1040.
 NGot=   671088640 LenX=   670928170 LenY=   670851553
 Requested convergence on RMS density matrix=1.00D-08 within 128 cycles.
 Requested convergence on MAX density matrix=1.00D-06.
 Requested convergence on             energy=1.00D-06.
 No special actions if energy rises.
 Fock matrices will be formed incrementally for  20 cycles.

 Cycle   1  Pass 1  IDiag  1:
 FoFJK:  IHMeth= 1 ICntrl=       0 DoSepK=F KAlg= 0 I1Cent=           0 FoldK=F
 IRaf= 970000000 NMat=       1 IRICut=       1 DoRegI=T DoRafI=F ISym2E= 0 IDoP0=0 IntGTp=1.
 FoFCou: FMM=F IPFlag=           0 FMFlag=      100000 FMFlg1=           0
         NFxFlg=           0 DoJE=F BraDBF=F KetDBF=F FulRan=T
         wScrn=  0.000000 ICntrl=         0 IOpCl=  1 I1Cent=           0 NGrid=           0
         NMat0=    1 NMatS0=      1 NMatT0=    0 NMatD0=    1 NMtDS0=    0 NMtDT0=    0
 Symmetry not used in FoFCou.
 E= -232.768842254021    
 DIIS: error= 2.13D-02 at cycle   1 NSaved=   1.
 NSaved= 1 IEnMin= 1 EnMin= -232.768842254021     IErMin= 1 ErrMin= 2.13D-02
 ErrMax= 2.13D-02  0.00D+00 EMaxC= 1.00D-01 BMatC= 9.12D-01 BMatP= 9.12D-01
 IDIUse=3 WtCom= 7.87D-01 WtEn= 2.13D-01
 Coeff-Com:  0.100D+01
 Coeff-En:   0.100D+01
 Coeff:      0.100D+01
 Gap=     0.243 Goal=   None    Shift=    0.000
 Gap=     0.326 Goal=   None    Shift=    0.000
 GapD=    0.243 DampG=1.000 DampE=0.500 DampFc=0.5000 IDamp=-1.
 Damping current iteration by 5.00D-01
 RMSDP=3.16D-03 MaxDP=1.07D-01              OVMax= 1.54D-01

 Cycle   2  Pass 1  IDiag  1:
 RMSU=  1.56D-03    CP:  9.70D-01
 E= -232.863949942296     Delta-E=       -0.095107688274 Rises=F Damp=T
 DIIS: error= 4.82D-03 at cycle   2 NSaved=   2.
 NSaved= 2 IEnMin= 2 EnMin= -232.863949942296     IErMin= 2 ErrMin= 4.82D-03
 ErrMax= 4.82D-03  0.00D+00 EMaxC= 1.00D-01 BMatC= 5.57D-02 BMatP= 9.12D-01
 IDIUse=3 WtCom= 9.52D-01 WtEn= 4.82D-02
 Coeff-Com: -0.672D-01 0.107D+01
 Coeff-En:   0.000D+00 0.100D+01
 Coeff:     -0.640D-01 0.106D+01
 Gap=     0.267 Goal=   None    Shift=    0.000
 Gap=     0.352 Goal=   None    Shift=    0.000
 RMSDP=9.73D-04 MaxDP=6.02D-02 DE=-9.51D-02 OVMax= 8.04D-02

 Cycle   3  Pass 1  IDiag  1:
 RMSU=  9.67D-04    CP:  9.65D-01  9.33D-01
 E= -232.958569523263     Delta-E=       -0.094619580967 Rises=F Damp=F
 DIIS: error= 2.78D-03 at cycle   3 NSaved=   3.
 NSaved= 3 IEnMin= 3 EnMin= -232.958569523263     IErMin= 3 ErrMin= 2.78D-03
 ErrMax= 2.78D-03  0.00D+00 EMaxC= 1.00D-01 BMatC= 1.10D-02 BMatP= 5.57D-02
 IDIUse=3 WtCom= 9.72D-01 WtEn= 2.78D-02
 Coeff-Com: -0.711D-01 0.278D+00 0.793D+00
 Coeff-En:   0.000D+00 0.000D+00 0.100D+01
 Coeff:     -0.691D-01 0.271D+00 0.798D+00
 Gap=     0.269 Goal=   None    Shift=    0.000
 Gap=     0.320 Goal=   None    Shift=    0.000
 RMSDP=2.46D-04 MaxDP=1.32D-02 DE=-9.46D-02 OVMax= 1.27D-02

 Cycle   4  Pass 1  IDiag  1:
 RMSU=  2.25D-04    CP:  9.64D-01  9.84D-01  1.06D+00
 E= -232.960239352458     Delta-E=       -0.001669829195 Rises=F Damp=F
 DIIS: error= 1.21D-03 at cycle   4 NSaved=   4.
 NSaved= 4 IEnMin= 4 EnMin= -232.960239352458     IErMin= 4 ErrMin= 1.21D-03
 ErrMax= 1.21D-03  0.00D+00 EMaxC= 1.00D-01 BMatC= 2.55D-03 BMatP= 1.10D-02
 IDIUse=3 WtCom= 9.88D-01 WtEn= 1.21D-02
 Coeff-Com: -0.270D-01 0.625D-01 0.374D+00 0.590D+00
 Coeff-En:   0.000D+00 0.000D+00 0.248D-01 0.975D+00
 Coeff:     -0.267D-01 0.617D-01 0.370D+00 0.595D+00
 Gap=     0.264 Goal=   None    Shift=    0.000
 Gap=     0.327 Goal=   None    Shift=    0.000
 RMSDP=7.96D-05 MaxDP=3.52D-03 DE=-1.67D-03 OVMax= 5.32D-03

 Cycle   5  Pass 1  IDiag  1:
 RMSU=  6.67D-05    CP:  9.63D-01  9.76D-01  1.07D+00  8.29D-01
 E= -232.960751625954     Delta-E=       -0.000512273496 Rises=F Damp=F
 DIIS: error= 3.92D-04 at cycle   5 NSaved=   5.
 NSaved= 5 IEnMin= 5 EnMin= -232.960751625954     IErMin= 5 ErrMin= 3.92D-04
 ErrMax= 3.92D-04  0.00D+00 EMaxC= 1.00D-01 BMatC= 1.28D-04 BMatP= 2.55D-03
 IDIUse=3 WtCom= 9.96D-01 WtEn= 3.92D-03
 Coeff-Com:  0.161D-03-0.106D-01 0.132D-01 0.159D+00 0.838D+00
 Coeff-En:   0.000D+00 0.000D+00 0.000D+00 0.000D+00 0.100D+01
 Coeff:      0.160D-03-0.106D-01 0.132D-01 0.158D+00 0.839D+00
 Gap=     0.266 Goal=   None    Shift=    0.000
 Gap=     0.326 Goal=   None    Shift=    0.000
 RMSDP=3.72D-05 MaxDP=1.72D-03 DE=-5.12D-04 OVMax= 2.67D-03

 Cycle   6  Pass 1  IDiag  1:
 RMSU=  3.01D-05    CP:  9.63D-01  9.71D-01  1.08D+00  9.03D-01  1.05D+00
 E= -232.960799153660     Delta-E=       -0.000047527706 Rises=F Damp=F
 DIIS: error= 1.00D-04 at cycle   6 NSaved=   6.
 NSaved= 6 IEnMin= 6 EnMin= -232.960799153660     IErMin= 6 ErrMin= 1.00D-04
 ErrMax= 1.00D-04  0.00D+00 EMaxC= 1.00D-01 BMatC= 1.45D-05 BMatP= 1.28D-04
 IDIUse=3 WtCom= 9.99D-01 WtEn= 1.00D-03
 Coeff-Com:  0.411D-02-0.104D-01-0.567D-01-0.846D-01 0.389D-01 0.111D+01
 Coeff-En:   0.000D+00 0.000D+00 0.000D+00 0.000D+00 0.000D+00 0.100D+01
 Coeff:      0.411D-02-0.104D-01-0.566D-01-0.845D-01 0.389D-01 0.111D+01
 Gap=     0.267 Goal=   None    Shift=    0.000
 Gap=     0.327 Goal=   None    Shift=    0.000
 RMSDP=2.04D-05 MaxDP=7.42D-04 DE=-4.75D-05 OVMax= 1.76D-03

 Cycle   7  Pass 1  IDiag  1:
 RMSU=  1.04D-05    CP:  9.63D-01  9.68D-01  1.09D+00  9.48D-01  1.21D+00
                    CP:  1.23D+00
 E= -232.960808324222     Delta-E=       -0.000009170562 Rises=F Damp=F
 DIIS: error= 4.06D-05 at cycle   7 NSaved=   7.
 NSaved= 7 IEnMin= 7 EnMin= -232.960808324222     IErMin= 7 ErrMin= 4.06D-05
 ErrMax= 4.06D-05  0.00D+00 EMaxC= 1.00D-01 BMatC= 2.77D-06 BMatP= 1.45D-05
 IDIUse=1 WtCom= 1.00D+00 WtEn= 0.00D+00
 Coeff-Com:  0.133D-02-0.231D-02-0.215D-01-0.493D-01-0.803D-01 0.406D+00
 Coeff-Com:  0.746D+00
 Coeff:      0.133D-02-0.231D-02-0.215D-01-0.493D-01-0.803D-01 0.406D+00
 Coeff:      0.746D+00
 Gap=     0.267 Goal=   None    Shift=    0.000
 Gap=     0.327 Goal=   None    Shift=    0.000
 RMSDP=5.15D-06 MaxDP=2.91D-04 DE=-9.17D-06 OVMax= 4.27D-04

 Cycle   8  Pass 1  IDiag  1:
 RMSU=  3.62D-06    CP:  9.63D-01  9.68D-01  1.09D+00  9.48D-01  1.23D+00
                    CP:  1.32D+00  1.14D+00
 E= -232.960809268566     Delta-E=       -0.000000944344 Rises=F Damp=F
 DIIS: error= 1.14D-05 at cycle   8 NSaved=   8.
 NSaved= 8 IEnMin= 8 EnMin= -232.960809268566     IErMin= 8 ErrMin= 1.14D-05
 ErrMax= 1.14D-05  0.00D+00 EMaxC= 1.00D-01 BMatC= 1.94D-07 BMatP= 2.77D-06
 IDIUse=1 WtCom= 1.00D+00 WtEn= 0.00D+00
 Coeff-Com: -0.276D-03 0.804D-03 0.218D-02-0.843D-03-0.195D-01-0.390D-01
 Coeff-Com:  0.147D+00 0.909D+00
 Coeff:     -0.276D-03 0.804D-03 0.218D-02-0.843D-03-0.195D-01-0.390D-01
 Coeff:      0.147D+00 0.909D+00
 Gap=     0.267 Goal=   None    Shift=    0.000
 Gap=     0.327 Goal=   None    Shift=    0.000
 RMSDP=2.56D-06 MaxDP=1.57D-04 DE=-9.44D-07 OVMax= 1.53D-04

 Cycle   9  Pass 1  IDiag  1:
 RMSU=  1.20D-06    CP:  9.63D-01  9.68D-01  1.09D+00  9.44D-01  1.22D+00
                    CP:  1.34D+00  1.28D+00  1.23D+00
 E= -232.960809350434     Delta-E=       -0.000000081868 Rises=F Damp=F
 DIIS: error= 4.02D-06 at cycle   9 NSaved=   9.
 NSaved= 9 IEnMin= 9 EnMin= -232.960809350434     IErMin= 9 ErrMin= 4.02D-06
 ErrMax= 4.02D-06  0.00D+00 EMaxC= 1.00D-01 BMatC= 2.12D-08 BMatP= 1.94D-07
 IDIUse=1 WtCom= 1.00D+00 WtEn= 0.00D+00
 Coeff-Com: -0.207D-03 0.430D-03 0.284D-02 0.535D-02 0.603D-02-0.547D-01
 Coeff-Com: -0.662D-01 0.187D+00 0.920D+00
 Coeff:     -0.207D-03 0.430D-03 0.284D-02 0.535D-02 0.603D-02-0.547D-01
 Coeff:     -0.662D-01 0.187D+00 0.920D+00
 Gap=     0.267 Goal=   None    Shift=    0.000
 Gap=     0.327 Goal=   None    Shift=    0.000
 RMSDP=8.90D-07 MaxDP=4.40D-05 DE=-8.19D-08 OVMax= 5.96D-05

 Cycle  10  Pass 1  IDiag  1:
 RMSU=  3.60D-07    CP:  9.63D-01  9.68D-01  1.09D+00  9.44D-01  1.22D+00
                    CP:  1.34D+00  1.32D+00  1.37D+00  1.07D+00
 E= -232.960809359923     Delta-E=       -0.000000009489 Rises=F Damp=F
 DIIS: error= 8.26D-07 at cycle  10 NSaved=  10.
 NSaved=10 IEnMin=10 EnMin= -232.960809359923     IErMin=10 ErrMin= 8.26D-07
 ErrMax= 8.26D-07  0.00D+00 EMaxC= 1.00D-01 BMatC= 8.74D-10 BMatP= 2.12D-08
 IDIUse=1 WtCom= 1.00D+00 WtEn= 0.00D+00
 Coeff-Com:  0.171D-04-0.412D-04-0.395D-04 0.238D-03 0.153D-02 0.800D-04
 Coeff-Com: -0.121D-01-0.498D-01 0.243D-01 0.104D+01
 Coeff:      0.171D-04-0.412D-04-0.395D-04 0.238D-03 0.153D-02 0.800D-04
 Coeff:     -0.121D-01-0.498D-01 0.243D-01 0.104D+01
 Gap=     0.267 Goal=   None    Shift=    0.000
 Gap=     0.327 Goal=   None    Shift=    0.000
 RMSDP=1.99D-07 MaxDP=8.49D-06 DE=-9.49D-09 OVMax= 1.48D-05

 Cycle  11  Pass 1  IDiag  1:
 RMSU=  1.03D-07    CP:  9.63D-01  9.68D-01  1.09D+00  9.44D-01  1.22D+00
                    CP:  1.34D+00  1.33D+00  1.39D+00  1.13D+00  1.29D+00
 E= -232.960809360499     Delta-E=       -0.000000000575 Rises=F Damp=F
 DIIS: error= 2.88D-07 at cycle  11 NSaved=  11.
 NSaved=11 IEnMin=11 EnMin= -232.960809360499     IErMin=11 ErrMin= 2.88D-07
 ErrMax= 2.88D-07  0.00D+00 EMaxC= 1.00D-01 BMatC= 1.17D-10 BMatP= 8.74D-10
 IDIUse=1 WtCom= 1.00D+00 WtEn= 0.00D+00
 Coeff-Com:  0.194D-04-0.420D-04-0.230D-03-0.357D-03-0.158D-03 0.403D-02
 Coeff-Com:  0.303D-02-0.222D-01-0.642D-01 0.185D+00 0.895D+00
 Coeff:      0.194D-04-0.420D-04-0.230D-03-0.357D-03-0.158D-03 0.403D-02
 Coeff:      0.303D-02-0.222D-01-0.642D-01 0.185D+00 0.895D+00
 Gap=     0.267 Goal=   None    Shift=    0.000
 Gap=     0.327 Goal=   None    Shift=    0.000
 RMSDP=6.01D-08 MaxDP=2.93D-06 DE=-5.75D-10 OVMax= 3.39D-06

 Cycle  12  Pass 1  IDiag  1:
 RMSU=  2.92D-08    CP:  9.63D-01  9.68D-01  1.09D+00  9.44D-01  1.22D+00
                    CP:  1.34D+00  1.33D+00  1.39D+00  1.13D+00  1.38D+00
                    CP:  1.29D+00
 E= -232.960809360553     Delta-E=       -0.000000000054 Rises=F Damp=F
 DIIS: error= 1.64D-07 at cycle  12 NSaved=  12.
 NSaved=12 IEnMin=12 EnMin= -232.960809360553     IErMin=12 ErrMin= 1.64D-07
 ErrMax= 1.64D-07  0.00D+00 EMaxC= 1.00D-01 BMatC= 2.23D-11 BMatP= 1.17D-10
 IDIUse=1 WtCom= 1.00D+00 WtEn= 0.00D+00
 Coeff-Com:  0.254D-05-0.556D-05-0.573D-04-0.118D-03-0.208D-03 0.106D-02
 Coeff-Com:  0.227D-02-0.114D-03-0.215D-01-0.806D-01 0.260D+00 0.840D+00
 Coeff:      0.254D-05-0.556D-05-0.573D-04-0.118D-03-0.208D-03 0.106D-02
 Coeff:      0.227D-02-0.114D-03-0.215D-01-0.806D-01 0.260D+00 0.840D+00
 Gap=     0.267 Goal=   None    Shift=    0.000
 Gap=     0.327 Goal=   None    Shift=    0.000
 RMSDP=3.18D-08 MaxDP=2.53D-06 DE=-5.35D-11 OVMax= 1.40D-06

 Cycle  13  Pass 1  IDiag  1:
 RMSU=  1.19D-08    CP:  9.63D-01  9.68D-01  1.09D+00  9.44D-01  1.22D+00
                    CP:  1.34D+00  1.33D+00  1.39D+00  1.12D+00  1.40D+00
                    CP:  1.46D+00  1.25D+00
 E= -232.960809360560     Delta-E=       -0.000000000007 Rises=F Damp=F
 DIIS: error= 4.42D-08 at cycle  13 NSaved=  13.
 NSaved=13 IEnMin=13 EnMin= -232.960809360560     IErMin=13 ErrMin= 4.42D-08
 ErrMax= 4.42D-08  0.00D+00 EMaxC= 1.00D-01 BMatC= 1.96D-12 BMatP= 2.23D-11
 IDIUse=1 WtCom= 1.00D+00 WtEn= 0.00D+00
 Coeff-Com: -0.217D-05 0.450D-05 0.189D-04 0.254D-04-0.618D-05-0.330D-03
 Coeff-Com: -0.232D-04 0.277D-02 0.445D-02-0.373D-01-0.718D-01 0.150D+00
 Coeff-Com:  0.952D+00
 Coeff:     -0.217D-05 0.450D-05 0.189D-04 0.254D-04-0.618D-05-0.330D-03
 Coeff:     -0.232D-04 0.277D-02 0.445D-02-0.373D-01-0.718D-01 0.150D+00
 Coeff:      0.952D+00
 Gap=     0.267 Goal=   None    Shift=    0.000
 Gap=     0.327 Goal=   None    Shift=    0.000
 RMSDP=1.36D-08 MaxDP=1.13D-06 DE=-7.28D-12 OVMax= 5.54D-07

 Cycle  14  Pass 1  IDiag  1:
 RMSU=  3.51D-09    CP:  9.63D-01  9.68D-01  1.09D+00  9.44D-01  1.22D+00
                    CP:  1.34D+00  1.33D+00  1.39D+00  1.12D+00  1.41D+00
                    CP:  1.52D+00  1.43D+00  1.27D+00
 E= -232.960809360560     Delta-E=        0.000000000000 Rises=F Damp=F
 DIIS: error= 1.03D-08 at cycle  14 NSaved=  14.
 NSaved=14 IEnMin=13 EnMin= -232.960809360560     IErMin=14 ErrMin= 1.03D-08
 ErrMax= 1.03D-08  0.00D+00 EMaxC= 1.00D-01 BMatC= 1.36D-13 BMatP= 1.96D-12
 IDIUse=1 WtCom= 1.00D+00 WtEn= 0.00D+00
 Coeff-Com: -0.149D-06 0.403D-06 0.401D-05 0.702D-05 0.948D-05-0.771D-04
 Coeff-Com: -0.141D-03 0.987D-04 0.172D-02 0.553D-02-0.221D-01-0.639D-01
 Coeff-Com:  0.153D-01 0.106D+01
 Coeff:     -0.149D-06 0.403D-06 0.401D-05 0.702D-05 0.948D-05-0.771D-04
 Coeff:     -0.141D-03 0.987D-04 0.172D-02 0.553D-02-0.221D-01-0.639D-01
 Coeff:      0.153D-01 0.106D+01
 Gap=     0.267 Goal=   None    Shift=    0.000
 Gap=     0.327 Goal=   None    Shift=    0.000
 RMSDP=4.29D-09 MaxDP=3.86D-07 DE= 0.00D+00 OVMax= 1.69D-07

 SCF Done:  E(UM062X) =  -232.960809361     A.U. after   14 cycles
            NFock= 14  Conv=0.43D-08     -V/T= 2.0046
 <Sx>= 0.0000 <Sy>= 0.0000 <Sz>= 0.5000 <S**2>= 0.7554 S= 0.5027
 <L.S>= 0.000000000000E+00
 KE= 2.318829022874D+02 PE=-8.972556558325D+02 EE= 2.552180464423D+02
 Annihilation of the first spin contaminant:
 S**2 before annihilation     0.7554,   after     0.7500
 Leave Link  502 at Tue Apr  9 01:13:20 2019, MaxMem=   671088640 cpu:             849.1 elap:              42.5
 (Enter /shared/centos7/gaussian/g16/l801.exe)
 DoSCS=F DFT=T ScalE2(SS,OS)=  1.000000  1.000000
 Range of M.O.s used for correlation:     1   251
 NBasis=   251 NAE=    21 NBE=    20 NFC=     0 NFV=     0
 NROrb=    251 NOA=    21 NOB=    20 NVA=   230 NVB=   231

 **** Warning!!: The largest alpha MO coefficient is  0.38374553D+02


 **** Warning!!: The largest beta MO coefficient is  0.38077859D+02

 Leave Link  801 at Tue Apr  9 01:13:20 2019, MaxMem=   671088640 cpu:               0.4 elap:               0.0
 (Enter /shared/centos7/gaussian/g16/l1101.exe)
 Using compressed storage, NAtomX=    14.
 Will process     15 centers per pass.
 Leave Link 1101 at Tue Apr  9 01:13:21 2019, MaxMem=   671088640 cpu:               6.4 elap:               0.3
 (Enter /shared/centos7/gaussian/g16/l1102.exe)
 Symmetrizing basis deriv contribution to polar:
 IMax=3 JMax=2 DiffMx= 0.00D+00
 Leave Link 1102 at Tue Apr  9 01:13:21 2019, MaxMem=   671088640 cpu:               0.5 elap:               0.0
 (Enter /shared/centos7/gaussian/g16/l1110.exe)
 Forming Gx(P) for the SCF density, NAtomX=    14.
 Integral derivatives from FoFJK, PRISM(SPDF).
 Do as many integral derivatives as possible in FoFJK.
 G2DrvN: MDV=     671087496.
 G2DrvN: will do    15 centers at a time, making    1 passes.
 Calling FoFCou, ICntrl=  3107 FMM=F I1Cent=   0 AccDes= 0.00D+00.
 FoFJK:  IHMeth= 1 ICntrl=    3107 DoSepK=F KAlg= 0 I1Cent=           0 FoldK=F
 IRaf=         0 NMat=       1 IRICut=       1 DoRegI=T DoRafI=F ISym2E= 0 IDoP0=0 IntGTp=1.
 FoFCou: FMM=F IPFlag=           0 FMFlag=      100000 FMFlg1=           0
         NFxFlg=           0 DoJE=F BraDBF=F KetDBF=F FulRan=T
         wScrn=  0.000000 ICntrl=      3107 IOpCl=  1 I1Cent=           0 NGrid=           0
         NMat0=    1 NMatS0=      1 NMatT0=    0 NMatD0=    1 NMtDS0=    0 NMtDT0=    0
 Symmetry not used in FoFCou.
 End of G2Drv F.D. properties file   721 does not exist.
 End of G2Drv F.D. properties file   722 does not exist.
 End of G2Drv F.D. properties file   788 does not exist.
 Leave Link 1110 at Tue Apr  9 01:14:41 2019, MaxMem=   671088640 cpu:            1607.3 elap:              80.4
 (Enter /shared/centos7/gaussian/g16/l1002.exe)
 Minotr:  UHF open shell wavefunction.
          IDoAtm=11111111111111
          Direct CPHF calculation.
          Differentiating once with respect to nuclear coordinates.
          Requested convergence is 1.0D-08 RMS, and 1.0D-07 maximum.
          Secondary convergence is 1.0D-12 RMS, and 1.0D-12 maximum.
          NewPWx=T KeepS1=F KeepF1=F KeepIn=T MapXYZ=F SortEE=F KeepMc=T.
         4250 words used for storage of precomputed grid.
 Two-electron integrals replicated using symmetry.
          MDV=     671088640 using IRadAn=       1.
          Solving linear equations simultaneously, MaxMat=     380.
 FoF2E skips out because all densities are zero.
 CalDSu exits because no D1Ps are significant.
 FoFJK:  IHMeth= 1 ICntrl=       0 DoSepK=F KAlg= 0 I1Cent=           0 FoldK=F
 IRaf= 960000000 NMat=      42 IRICut=     105 DoRegI=T DoRafI=T ISym2E= 2 IDoP0=3 IntGTp=3.
 FoFCou: FMM=F IPFlag=           0 FMFlag=      100000 FMFlg1=           0
         NFxFlg=           0 DoJE=F BraDBF=F KetDBF=F FulRan=T
         wScrn=  0.000000 ICntrl=         0 IOpCl=  1 I1Cent=           0 NGrid=           0
         NMat0=   42 NMatS0=     42 NMatT0=    0 NMatD0=   42 NMtDS0=    0 NMtDT0=    0
 Integrals replicated using symmetry in FoFCou.
 Raff kept on since  94.83% of shell-pairs survive, threshold=   0.20 IRatSp=95.
          There are    45 degrees of freedom in the 1st order CPHF.  IDoFFX=6 NUNeed=     0.
     39 vectors produced by pass  0 Test12= 2.10D-14 2.22D-09 XBig12= 1.30D-01 7.84D-02.
 AX will form    39 AO Fock derivatives at one time.
     39 vectors produced by pass  1 Test12= 2.10D-14 2.22D-09 XBig12= 1.23D-02 1.79D-02.
     39 vectors produced by pass  2 Test12= 2.10D-14 2.22D-09 XBig12= 6.41D-04 2.74D-03.
     39 vectors produced by pass  3 Test12= 2.10D-14 2.22D-09 XBig12= 1.28D-05 3.40D-04.
     39 vectors produced by pass  4 Test12= 2.10D-14 2.22D-09 XBig12= 1.16D-07 4.35D-05.
     39 vectors produced by pass  5 Test12= 2.10D-14 2.22D-09 XBig12= 1.25D-09 5.03D-06.
     38 vectors produced by pass  6 Test12= 2.10D-14 2.22D-09 XBig12= 1.10D-11 3.24D-07.
     15 vectors produced by pass  7 Test12= 2.10D-14 2.22D-09 XBig12= 7.03D-14 2.64D-08.
 InvSVY:  IOpt=1 It=  1 EMax= 1.78D-15
 Solved reduced A of dimension   287 with    39 vectors.
 End of Minotr F.D. properties file   721 does not exist.
 End of Minotr F.D. properties file   722 does not exist.
 End of Minotr F.D. properties file   788 does not exist.
 Leave Link 1002 at Tue Apr  9 01:16:45 2019, MaxMem=   671088640 cpu:            2488.7 elap:             124.5
 (Enter /shared/centos7/gaussian/g16/l601.exe)
 Copying SCF densities to generalized density rwf, IOpCl= 1 IROHF=0.

 **********************************************************************

            Population analysis using the SCF density.

 **********************************************************************

 Orbital symmetries:
 Alpha Orbitals:
       Occupied  (A) (A) (A) (A) (A) (A) (A) (A) (A) (A) (A) (A)
                 (A) (A) (A) (A) (A) (A) (A) (A) (A)
       Virtual   (A) (A) (A) (A) (A) (A) (A) (A) (A) (A) (A) (A)
                 (A) (A) (A) (A) (A) (A) (A) (A) (A) (A) (A) (A)
                 (A) (A) (A) (A) (A) (A) (A) (A) (A) (A) (A) (A)
                 (A) (A) (A) (A) (A) (A) (A) (A) (A) (A) (A) (A)
                 (A) (A) (A) (A) (A) (A) (A) (A) (A) (A) (A) (A)
                 (A) (A) (A) (A) (A) (A) (A) (A) (A) (A) (A) (A)
                 (A) (A) (A) (A) (A) (A) (A) (A) (A) (A) (A) (A)
                 (A) (A) (A) (A) (A) (A) (A) (A) (A) (A) (A) (A)
                 (A) (A) (A) (A) (A) (A) (A) (A) (A) (A) (A) (A)
                 (A) (A) (A) (A) (A) (A) (A) (A) (A) (A) (A) (A)
                 (A) (A) (A) (A) (A) (A) (A) (A) (A) (A) (A) (A)
                 (A) (A) (A) (A) (A) (A) (A) (A) (A) (A) (A) (A)
                 (A) (A) (A) (A) (A) (A) (A) (A) (A) (A) (A) (A)
                 (A) (A) (A) (A) (A) (A) (A) (A) (A) (A) (A) (A)
                 (A) (A) (A) (A) (A) (A) (A) (A) (A) (A) (A) (A)
                 (A) (A) (A) (A) (A) (A) (A) (A) (A) (A) (A) (A)
                 (A) (A) (A) (A) (A) (A) (A) (A) (A) (A) (A) (A)
                 (A) (A) (A) (A) (A) (A) (A) (A) (A) (A) (A) (A)
                 (A) (A) (A) (A) (A) (A) (A) (A) (A) (A) (A) (A)
                 (A) (A)
 Beta  Orbitals:
       Occupied  (A) (A) (A) (A) (A) (A) (A) (A) (A) (A) (A) (A)
                 (A) (A) (A) (A) (A) (A) (A) (A)
       Virtual   (A) (A) (A) (A) (A) (A) (A) (A) (A) (A) (A) (A)
                 (A) (A) (A) (A) (A) (A) (A) (A) (A) (A) (A) (A)
                 (A) (A) (A) (A) (A) (A) (A) (A) (A) (A) (A) (A)
                 (A) (A) (A) (A) (A) (A) (A) (A) (A) (A) (A) (A)
                 (A) (A) (A) (A) (A) (A) (A) (A) (A) (A) (A) (A)
                 (A) (A) (A) (A) (A) (A) (A) (A) (A) (A) (A) (A)
                 (A) (A) (A) (A) (A) (A) (A) (A) (A) (A) (A) (A)
                 (A) (A) (A) (A) (A) (A) (A) (A) (A) (A) (A) (A)
                 (A) (A) (A) (A) (A) (A) (A) (A) (A) (A) (A) (A)
                 (A) (A) (A) (A) (A) (A) (A) (A) (A) (A) (A) (A)
                 (A) (A) (A) (A) (A) (A) (A) (A) (A) (A) (A) (A)
                 (A) (A) (A) (A) (A) (A) (A) (A) (A) (A) (A) (A)
                 (A) (A) (A) (A) (A) (A) (A) (A) (A) (A) (A) (A)
                 (A) (A) (A) (A) (A) (A) (A) (A) (A) (A) (A) (A)
                 (A) (A) (A) (A) (A) (A) (A) (A) (A) (A) (A) (A)
                 (A) (A) (A) (A) (A) (A) (A) (A) (A) (A) (A) (A)
                 (A) (A) (A) (A) (A) (A) (A) (A) (A) (A) (A) (A)
                 (A) (A) (A) (A) (A) (A) (A) (A) (A) (A) (A) (A)
                 (A) (A) (A) (A) (A) (A) (A) (A) (A) (A) (A) (A)
                 (A) (A) (A)
 The electronic state is 2-A.
 Alpha  occ. eigenvalues --  -19.62397 -10.58743 -10.54755 -10.54321 -10.53481
 Alpha  occ. eigenvalues --   -1.14734  -0.90131  -0.81211  -0.73045  -0.65791
 Alpha  occ. eigenvalues --   -0.58535  -0.53921  -0.52359  -0.49548  -0.47838
 Alpha  occ. eigenvalues --   -0.45230  -0.43253  -0.40538  -0.39174  -0.35534
 Alpha  occ. eigenvalues --   -0.25116
 Alpha virt. eigenvalues --    0.01551   0.02801   0.03144   0.03598   0.05725
 Alpha virt. eigenvalues --    0.06402   0.06898   0.07480   0.08432   0.10332
 Alpha virt. eigenvalues --    0.10930   0.11813   0.12010   0.13390   0.14723
 Alpha virt. eigenvalues --    0.17048   0.18943   0.19098   0.20453   0.21180
 Alpha virt. eigenvalues --    0.22776   0.23763   0.24319   0.25449   0.26103
 Alpha virt. eigenvalues --    0.27499   0.28590   0.29550   0.29930   0.31371
 Alpha virt. eigenvalues --    0.32101   0.32988   0.36083   0.42270   0.43046
 Alpha virt. eigenvalues --    0.45545   0.47340   0.47671   0.49529   0.51046
 Alpha virt. eigenvalues --    0.51905   0.53627   0.54591   0.56780   0.57399
 Alpha virt. eigenvalues --    0.58540   0.59588   0.60449   0.62092   0.62689
 Alpha virt. eigenvalues --    0.64283   0.65155   0.66288   0.67254   0.68276
 Alpha virt. eigenvalues --    0.69521   0.73233   0.75235   0.78964   0.80251
 Alpha virt. eigenvalues --    0.82669   0.87168   0.87271   0.90554   0.92969
 Alpha virt. eigenvalues --    0.96103   0.97790   1.00275   1.00558   1.04577
 Alpha virt. eigenvalues --    1.05379   1.08957   1.10410   1.12190   1.13673
 Alpha virt. eigenvalues --    1.15502   1.18599   1.18865   1.19742   1.21961
 Alpha virt. eigenvalues --    1.22956   1.24061   1.24571   1.26538   1.29323
 Alpha virt. eigenvalues --    1.31840   1.32769   1.34945   1.37112   1.38570
 Alpha virt. eigenvalues --    1.39092   1.40759   1.41253   1.43245   1.46567
 Alpha virt. eigenvalues --    1.47559   1.48370   1.50062   1.51227   1.52038
 Alpha virt. eigenvalues --    1.54100   1.56616   1.58230   1.60189   1.62391
 Alpha virt. eigenvalues --    1.64008   1.69106   1.69212   1.78141   1.91258
 Alpha virt. eigenvalues --    2.07256   2.11743   2.27447   2.30498   2.40512
 Alpha virt. eigenvalues --    2.43807   2.48541   2.52724   2.56454   2.59722
 Alpha virt. eigenvalues --    2.62824   2.65230   2.71711   2.74512   2.79580
 Alpha virt. eigenvalues --    2.80766   2.83974   2.86027   2.87271   2.88486
 Alpha virt. eigenvalues --    2.92981   2.96373   3.00404   3.01582   3.05160
 Alpha virt. eigenvalues --    3.06702   3.09859   3.11330   3.13182   3.14713
 Alpha virt. eigenvalues --    3.18155   3.19468   3.23445   3.24405   3.26140
 Alpha virt. eigenvalues --    3.29894   3.32267   3.33837   3.36787   3.38275
 Alpha virt. eigenvalues --    3.41533   3.44035   3.46950   3.49684   3.51002
 Alpha virt. eigenvalues --    3.53818   3.54583   3.58803   3.62640   3.65607
 Alpha virt. eigenvalues --    3.67189   3.67883   3.71913   3.75503   3.78261
 Alpha virt. eigenvalues --    3.80616   3.82558   3.83731   3.88892   3.91027
 Alpha virt. eigenvalues --    3.92743   3.95994   3.98766   3.99994   4.01116
 Alpha virt. eigenvalues --    4.02793   4.04251   4.10921   4.13561   4.14120
 Alpha virt. eigenvalues --    4.15090   4.20383   4.21941   4.22672   4.24887
 Alpha virt. eigenvalues --    4.26913   4.29774   4.30923   4.31377   4.36330
 Alpha virt. eigenvalues --    4.41054   4.42247   4.47396   4.50297   4.51739
 Alpha virt. eigenvalues --    4.55626   4.57787   4.60973   4.67577   4.75061
 Alpha virt. eigenvalues --    4.86061   4.94426   5.11246   5.21619   5.24620
 Alpha virt. eigenvalues --    5.28686   5.37218   5.39094   5.43557   5.48803
 Alpha virt. eigenvalues --    5.51900   5.52885   5.54410   5.55270   5.56591
 Alpha virt. eigenvalues --    5.60702   5.87755   5.94562   6.53564   6.96844
 Alpha virt. eigenvalues --    7.09594   7.19230   7.22618   7.49839   7.64145
 Alpha virt. eigenvalues --   24.14462  24.26491  24.42116  24.48753  50.11573
  Beta  occ. eigenvalues --  -19.62403 -10.58805 -10.54382 -10.54053 -10.53391
  Beta  occ. eigenvalues --   -1.14715  -0.88787  -0.80143  -0.72185  -0.64377
  Beta  occ. eigenvalues --   -0.57933  -0.53204  -0.51881  -0.48909  -0.47135
  Beta  occ. eigenvalues --   -0.44113  -0.42800  -0.39975  -0.38792  -0.35138
  Beta virt. eigenvalues --   -0.02476   0.01133   0.02888   0.03067   0.03613
  Beta virt. eigenvalues --    0.05623   0.06344   0.06833   0.07288   0.08436
  Beta virt. eigenvalues --    0.10110   0.10837   0.11214   0.11658   0.13103
  Beta virt. eigenvalues --    0.14857   0.16775   0.18706   0.19157   0.20272
  Beta virt. eigenvalues --    0.21920   0.22544   0.23967   0.24410   0.25572
  Beta virt. eigenvalues --    0.26367   0.27450   0.28695   0.29627   0.30397
  Beta virt. eigenvalues --    0.31232   0.32571   0.33183   0.36401   0.42371
  Beta virt. eigenvalues --    0.43623   0.45503   0.47525   0.47917   0.49818
  Beta virt. eigenvalues --    0.51728   0.52263   0.54203   0.54645   0.56620
  Beta virt. eigenvalues --    0.57930   0.58916   0.59321   0.60264   0.62717
  Beta virt. eigenvalues --    0.63434   0.64661   0.65381   0.66015   0.67581
  Beta virt. eigenvalues --    0.68324   0.69758   0.73403   0.75440   0.78906
  Beta virt. eigenvalues --    0.79945   0.82633   0.87165   0.87488   0.90210
  Beta virt. eigenvalues --    0.93251   0.95807   0.97887   1.00033   1.00731
  Beta virt. eigenvalues --    1.04630   1.05337   1.08824   1.10165   1.12350
  Beta virt. eigenvalues --    1.13738   1.15616   1.18801   1.18900   1.19782
  Beta virt. eigenvalues --    1.21870   1.22964   1.23956   1.24542   1.26581
  Beta virt. eigenvalues --    1.29567   1.32149   1.32743   1.35304   1.37158
  Beta virt. eigenvalues --    1.38839   1.39199   1.40986   1.41360   1.43132
  Beta virt. eigenvalues --    1.46530   1.47330   1.48661   1.50299   1.51455
  Beta virt. eigenvalues --    1.52834   1.54253   1.56456   1.58121   1.60161
  Beta virt. eigenvalues --    1.62658   1.64203   1.69285   1.69605   1.78701
  Beta virt. eigenvalues --    1.91382   2.07672   2.11964   2.27453   2.30632
  Beta virt. eigenvalues --    2.41056   2.44145   2.49123   2.53408   2.57099
  Beta virt. eigenvalues --    2.60339   2.63731   2.65920   2.73337   2.75472
  Beta virt. eigenvalues --    2.80877   2.82862   2.85363   2.89000   2.89372
  Beta virt. eigenvalues --    2.91059   2.95549   2.97056   3.01146   3.03777
  Beta virt. eigenvalues --    3.06764   3.08643   3.10972   3.11847   3.13853
  Beta virt. eigenvalues --    3.16011   3.18691   3.20660   3.24736   3.25673
  Beta virt. eigenvalues --    3.27695   3.32665   3.33264   3.34248   3.38216
  Beta virt. eigenvalues --    3.40021   3.43224   3.45532   3.47629   3.52955
  Beta virt. eigenvalues --    3.53544   3.54801   3.57347   3.60058   3.63593
  Beta virt. eigenvalues --    3.66313   3.67596   3.68449   3.72000   3.75611
  Beta virt. eigenvalues --    3.78899   3.81710   3.83654   3.84130   3.89540
  Beta virt. eigenvalues --    3.92307   3.93748   3.97279   3.99107   4.00283
  Beta virt. eigenvalues --    4.02588   4.03783   4.05773   4.11376   4.14382
  Beta virt. eigenvalues --    4.15636   4.16204   4.21141   4.22473   4.23233
  Beta virt. eigenvalues --    4.25480   4.28173   4.30786   4.31317   4.32783
  Beta virt. eigenvalues --    4.37123   4.41910   4.44603   4.48350   4.50807
  Beta virt. eigenvalues --    4.52331   4.56609   4.59086   4.62077   4.69979
  Beta virt. eigenvalues --    4.77355   4.89138   4.96629   5.12318   5.21638
  Beta virt. eigenvalues --    5.24874   5.30592   5.37285   5.39240   5.46200
  Beta virt. eigenvalues --    5.50040   5.52838   5.53463   5.54709   5.56218
  Beta virt. eigenvalues --    5.57346   5.60852   5.87917   5.94733   6.53609
  Beta virt. eigenvalues --    6.96856   7.09651   7.19244   7.22652   7.49866
  Beta virt. eigenvalues --    7.64178  24.15177  24.26795  24.42143  24.49360
  Beta virt. eigenvalues --   50.11577
          Condensed to atoms (all electrons):
               1          2          3          4          5          6
     1  O    8.089937   0.020171   0.171566  -0.007470  -0.054473   0.000035
     2  C    0.020171   5.327948  -0.149021   0.115041   0.078688   0.448062
     3  C    0.171566  -0.149021   5.046408   0.044799   0.308113  -0.011979
     4  C   -0.007470   0.115041   0.044799   5.186796  -0.004772  -0.056045
     5  C   -0.054473   0.078688   0.308113  -0.004772   5.653592  -0.036539
     6  H    0.000035   0.448062  -0.011979  -0.056045  -0.036539   0.530143
     7  H   -0.000264   0.445243   0.015945  -0.043096  -0.053289  -0.026164
     8  H    0.000017  -0.039320  -0.006090   0.417431   0.000851   0.005857
     9  H    0.000248  -0.006240   0.002594   0.409459  -0.028290  -0.012920
    10  H   -0.000002  -0.061737   0.002415   0.419115   0.023472  -0.000197
    11  H   -0.057467   0.014896   0.434787  -0.002185  -0.071459  -0.001488
    12  H   -0.038119   0.012273   0.408716  -0.000489  -0.048519   0.001861
    13  H    0.000941  -0.004683  -0.045505  -0.008495   0.408233   0.003668
    14  H    0.238000   0.005032  -0.018365   0.001784  -0.007847   0.000021
               7          8          9         10         11         12
     1  O   -0.000264   0.000017   0.000248  -0.000002  -0.057467  -0.038119
     2  C    0.445243  -0.039320  -0.006240  -0.061737   0.014896   0.012273
     3  C    0.015945  -0.006090   0.002594   0.002415   0.434787   0.408716
     4  C   -0.043096   0.417431   0.409459   0.419115  -0.002185  -0.000489
     5  C   -0.053289   0.000851  -0.028290   0.023472  -0.071459  -0.048519
     6  H   -0.026164   0.005857  -0.012920  -0.000197  -0.001488   0.001861
     7  H    0.538571  -0.002780   0.006346  -0.008880  -0.000413  -0.000152
     8  H   -0.002780   0.538803  -0.034017  -0.025545   0.000202  -0.000049
     9  H    0.006346  -0.034017   0.553649  -0.022807  -0.001209   0.000009
    10  H   -0.008880  -0.025545  -0.022807   0.543030   0.000116  -0.000053
    11  H   -0.000413   0.000202  -0.001209   0.000116   0.594005  -0.054405
    12  H   -0.000152  -0.000049   0.000009  -0.000053  -0.054405   0.577178
    13  H   -0.008540   0.000182  -0.000145  -0.000158   0.001770   0.003932
    14  H   -0.000117   0.000019  -0.000055   0.000004   0.011124  -0.008248
              13         14
     1  O    0.000941   0.238000
     2  C   -0.004683   0.005032
     3  C   -0.045505  -0.018365
     4  C   -0.008495   0.001784
     5  C    0.408233  -0.007847
     6  H    0.003668   0.000021
     7  H   -0.008540  -0.000117
     8  H    0.000182   0.000019
     9  H   -0.000145  -0.000055
    10  H   -0.000158   0.000004
    11  H    0.001770   0.011124
    12  H    0.003932  -0.008248
    13  H    0.465266   0.001645
    14  H    0.001645   0.525510
          Atomic-Atomic Spin Densities.
               1          2          3          4          5          6
     1  O   -0.000644  -0.001684   0.007461   0.000241  -0.002821   0.000261
     2  C   -0.001684  -0.033982   0.021643   0.024556  -0.087333   0.004483
     3  C    0.007461   0.021643  -0.082495  -0.009972  -0.052936   0.010460
     4  C    0.000241   0.024556  -0.009972   0.091612  -0.041459  -0.003574
     5  C   -0.002821  -0.087333  -0.052936  -0.041459   1.320320  -0.027381
     6  H    0.000261   0.004483   0.010460  -0.003574  -0.027381   0.028112
     7  H    0.000012   0.003206   0.001751  -0.003479  -0.009042   0.003928
     8  H    0.000048   0.001743   0.003908   0.008301  -0.015162  -0.000203
     9  H   -0.000020   0.001656  -0.000482  -0.003460   0.002490   0.000259
    10  H    0.000004  -0.002188  -0.000753  -0.004901   0.006851   0.001106
    11  H   -0.005575   0.008709   0.006383   0.001021  -0.024713  -0.002099
    12  H    0.004858   0.000912   0.038993   0.002273  -0.055865   0.002760
    13  H    0.001466   0.008504   0.005671  -0.003073  -0.015984   0.000217
    14  H   -0.003247   0.000739   0.000913   0.000297   0.003919  -0.000094
               7          8          9         10         11         12
     1  O    0.000012   0.000048  -0.000020   0.000004  -0.005575   0.004858
     2  C    0.003206   0.001743   0.001656  -0.002188   0.008709   0.000912
     3  C    0.001751   0.003908  -0.000482  -0.000753   0.006383   0.038993
     4  C   -0.003479   0.008301  -0.003460  -0.004901   0.001021   0.002273
     5  C   -0.009042  -0.015162   0.002490   0.006851  -0.024713  -0.055865
     6  H    0.003928  -0.000203   0.000259   0.001106  -0.002099   0.002760
     7  H    0.007135  -0.000018  -0.000114   0.000645  -0.000317   0.000244
     8  H   -0.000018  -0.007767  -0.000036   0.000636   0.000493  -0.000042
     9  H   -0.000114  -0.000036  -0.004124   0.000926  -0.000432   0.000033
    10  H    0.000645   0.000636   0.000926   0.000339  -0.000205   0.000041
    11  H   -0.000317   0.000493  -0.000432  -0.000205   0.078499  -0.018643
    12  H    0.000244  -0.000042   0.000033   0.000041  -0.018643   0.057245
    13  H    0.000875   0.000102   0.000065   0.000035  -0.000904   0.000627
    14  H   -0.000024   0.000003   0.000002  -0.000002   0.001840  -0.002600
              13         14
     1  O    0.001466  -0.003247
     2  C    0.008504   0.000739
     3  C    0.005671   0.000913
     4  C   -0.003073   0.000297
     5  C   -0.015984   0.003919
     6  H    0.000217  -0.000094
     7  H    0.000875  -0.000024
     8  H    0.000102   0.000003
     9  H    0.000065   0.000002
    10  H    0.000035  -0.000002
    11  H   -0.000904   0.001840
    12  H    0.000627  -0.002600
    13  H   -0.050715  -0.000468
    14  H   -0.000468   0.001945
 Mulliken charges and spin densities:
               1          2
     1  O   -0.363120   0.000359
     2  C   -0.206354  -0.049037
     3  C   -0.204382  -0.049456
     4  C   -0.471874   0.058382
     5  C   -0.167759   1.000884
     6  H    0.155685   0.018234
     7  H    0.137589   0.004803
     8  H    0.144439  -0.007995
     9  H    0.133377  -0.003237
    10  H    0.131227   0.002533
    11  H    0.131726   0.044055
    12  H    0.146065   0.030836
    13  H    0.181889  -0.053582
    14  H    0.251492   0.003221
 Sum of Mulliken charges =  -0.00000   1.00000
 Mulliken charges and spin densities with hydrogens summed into heavy atoms:
               1          2
     1  O   -0.111628   0.003580
     2  C    0.086920  -0.025999
     3  C    0.073409   0.025435
     4  C   -0.062831   0.049682
     5  C    0.014130   0.947302
 APT charges:
               1
     1  O   -0.770045
     2  C   -0.849106
     3  C   -0.486426
     4  C   -1.169731
     5  C   -0.272365
     6  H    0.356987
     7  H    0.466990
     8  H    0.272736
     9  H    0.268994
    10  H    0.576054
    11  H    0.280307
    12  H    0.376885
    13  H    0.393645
    14  H    0.555074
 Sum of APT charges =  -0.00000
 APT charges with hydrogens summed into heavy atoms:
               1
     1  O   -0.214971
     2  C   -0.025128
     3  C    0.170767
     4  C   -0.051947
     5  C    0.121279
 Electronic spatial extent (au):  <R**2>=            599.3944
 Charge=             -0.0000 electrons
 Dipole moment (field-independent basis, Debye):
    X=             -1.2370    Y=              1.1306    Z=              0.3837  Tot=              1.7192
 Quadrupole moment (field-independent basis, Debye-Ang):
   XX=            -35.3952   YY=            -33.0562   ZZ=            -32.7751
   XY=              3.7909   XZ=              0.5291   YZ=             -1.6338
 Traceless Quadrupole moment (field-independent basis, Debye-Ang):
   XX=             -1.6530   YY=              0.6860   ZZ=              0.9670
   XY=              3.7909   XZ=              0.5291   YZ=             -1.6338
 Octapole moment (field-independent basis, Debye-Ang**2):
  XXX=              0.9890  YYY=             -2.6543  ZZZ=             -0.1404  XYY=              4.9941
  XXY=             13.6161  XXZ=             -0.3766  XZZ=              3.2688  YZZ=              0.7178
  YYZ=             -1.2173  XYZ=             -1.9039
 Hexadecapole moment (field-independent basis, Debye-Ang**3):
 XXXX=           -596.9507 YYYY=           -125.9210 ZZZZ=            -79.7890 XXXY=             29.2484
 XXXZ=             -5.4481 YYYX=             -2.5800 YYYZ=             -4.0036 ZZZX=             -1.2780
 ZZZY=             -0.5057 XXYY=           -115.8855 XXZZ=           -113.4138 YYZZ=            -33.6441
 XXYZ=             -6.4381 YYXZ=             -1.5662 ZZXY=              1.4655
 N-N= 1.771938977423D+02 E-N=-8.972556562968D+02  KE= 2.318829022874D+02
  Exact polarizability:   0.000   0.000   0.000   0.000   0.000   0.000
 Approx polarizability:  64.477   0.786  61.900  -1.250  -2.056  60.210
                          Isotropic Fermi Contact Couplings
        Atom                 a.u.       MegaHertz       Gauss      10(-4) cm-1
     1  O(17)              0.00131      -0.79412      -0.28336      -0.26489
     2  C(13)             -0.03011     -33.85389     -12.07991     -11.29244
     3  C(13)             -0.03186     -35.81632     -12.78015     -11.94704
     4  C(13)              0.06588      74.05963      26.42632      24.70363
     5  C(13)              0.18928     212.78584      75.92728      70.97772
     6  H(1)               0.00834      37.27689      13.30132      12.43423
     7  H(1)               0.00314      14.02986       5.00620       4.67986
     8  H(1)              -0.00049      -2.16944      -0.77411      -0.72365
     9  H(1)              -0.00062      -2.75835      -0.98425      -0.92009
    10  H(1)               0.00152       6.79993       2.42638       2.26821
    11  H(1)               0.02210      98.80298      35.25536      32.95713
    12  H(1)               0.01813      81.04608      28.91926      27.03406
    13  H(1)              -0.01444     -64.54617     -23.03168     -21.53028
    14  H(1)              -0.00003      -0.13378      -0.04774      -0.04462
 --------------------------------------------------------
       Center         ----  Spin Dipole Couplings  ----
                      3XX-RR        3YY-RR        3ZZ-RR
 --------------------------------------------------------
     1   Atom        0.008182     -0.003114     -0.005068
     2   Atom        0.007444     -0.000876     -0.006569
     3   Atom       -0.003015      0.008046     -0.005031
     4   Atom        0.004530      0.027834     -0.032364
     5   Atom       -0.440658      0.505454     -0.064796
     6   Atom        0.006992     -0.008504      0.001512
     7   Atom        0.015970     -0.006812     -0.009158
     8   Atom        0.001324     -0.001834      0.000511
     9   Atom       -0.000104      0.004947     -0.004843
    10   Atom        0.008655     -0.002984     -0.005671
    11   Atom       -0.003566      0.010397     -0.006831
    12   Atom       -0.001153     -0.005422      0.006574
    13   Atom       -0.058676     -0.001179      0.059855
    14   Atom        0.014326     -0.007274     -0.007051
 --------------------------------------------------------
                        XY            XZ            YZ
 --------------------------------------------------------
     1   Atom       -0.001882     -0.009214     -0.001431
     2   Atom        0.008625     -0.001471      0.004696
     3   Atom       -0.010113      0.002352      0.005634
     4   Atom        0.048520      0.002958      0.006522
     5   Atom        0.324978      0.214517      0.696828
     6   Atom        0.001583     -0.013767     -0.001425
     7   Atom       -0.007767      0.000546      0.001209
     8   Atom        0.007665      0.004092      0.008471
     9   Atom        0.005794     -0.001236     -0.005184
    10   Atom        0.002435     -0.000112      0.000107
    11   Atom       -0.006394      0.002501     -0.007209
    12   Atom       -0.006385      0.011565     -0.008621
    13   Atom        0.026321     -0.016341     -0.025382
    14   Atom       -0.002909     -0.003297      0.001083
 --------------------------------------------------------


 ---------------------------------------------------------------------------------
              Anisotropic Spin Dipole Couplings in Principal Axis System
 ---------------------------------------------------------------------------------

       Atom             a.u.   MegaHertz   Gauss  10(-4) cm-1        Axes

              Baa    -0.0104     0.754     0.269     0.251  0.4487  0.2817  0.8481
     1 O(17)  Bbb    -0.0026     0.185     0.066     0.062 -0.0723  0.9573 -0.2798
              Bcc     0.0130    -0.939    -0.335    -0.313  0.8908 -0.0642 -0.4499
 
              Baa    -0.0112    -1.506    -0.537    -0.502  0.3373 -0.6074  0.7192
     2 C(13)  Bbb    -0.0017    -0.231    -0.082    -0.077 -0.4331  0.5782  0.6915
              Bcc     0.0129     1.737     0.620     0.579  0.8358  0.5447  0.0681
 
              Baa    -0.0125    -1.673    -0.597    -0.558  0.6602  0.4834 -0.5750
     3 C(13)  Bbb    -0.0023    -0.306    -0.109    -0.102  0.5887  0.1424  0.7957
              Bcc     0.0148     1.979     0.706     0.660 -0.4665  0.8638  0.1905
 
              Baa    -0.0350    -4.703    -1.678    -1.569  0.5936 -0.5215  0.6129
     4 C(13)  Bbb    -0.0315    -4.230    -1.509    -1.411 -0.5172  0.3363  0.7870
              Bcc     0.0666     8.933     3.188     2.980  0.6166  0.7841  0.0701
 
              Baa    -0.5417   -72.696   -25.940   -24.249  0.9226 -0.3665  0.1206
     5 C(13)  Bbb    -0.5316   -71.341   -25.456   -23.797 -0.2947 -0.4676  0.8334
              Bcc     1.0734   144.037    51.396    48.046  0.2491  0.8044  0.5394
 
              Baa    -0.0098    -5.225    -1.864    -1.743  0.6270  0.0860  0.7743
     6 H(1)   Bbb    -0.0087    -4.622    -1.649    -1.542 -0.1153  0.9932 -0.0169
              Bcc     0.0185     9.847     3.514     3.285  0.7705  0.0787 -0.6326
 
              Baa    -0.0105    -5.602    -1.999    -1.869 -0.2142 -0.6808  0.7005
     7 H(1)   Bbb    -0.0079    -4.197    -1.498    -1.400  0.2022  0.6707  0.7137
              Bcc     0.0184     9.800     3.497     3.269  0.9556 -0.2945  0.0060
 
              Baa    -0.0104    -5.545    -1.979    -1.850 -0.3519  0.7985 -0.4884
     8 H(1)   Bbb    -0.0031    -1.658    -0.592    -0.553  0.7450 -0.0769 -0.6626
              Bcc     0.0135     7.203     2.570     2.403  0.5667  0.5970  0.5679
 
              Baa    -0.0074    -3.922    -1.400    -1.308 -0.2282  0.4675  0.8540
     9 H(1)   Bbb    -0.0031    -1.634    -0.583    -0.545  0.8437 -0.3429  0.4131
              Bcc     0.0104     5.557     1.983     1.854  0.4859  0.8148 -0.3162
 
              Baa    -0.0057    -3.030    -1.081    -1.011  0.0172 -0.0552  0.9983
    10 H(1)   Bbb    -0.0035    -1.849    -0.660    -0.617 -0.1961  0.9789  0.0575
              Bcc     0.0091     4.879     1.741     1.628  0.9804  0.1968 -0.0060
 
              Baa    -0.0095    -5.046    -1.801    -1.683 -0.0443  0.3283  0.9435
    11 H(1)   Bbb    -0.0060    -3.218    -1.148    -1.073  0.9398  0.3341 -0.0722
              Bcc     0.0155     8.264     2.949     2.756 -0.3389  0.8835 -0.3233
 
              Baa    -0.0101    -5.370    -1.916    -1.791  0.4033  0.8964  0.1841
    12 H(1)   Bbb    -0.0095    -5.044    -1.800    -1.682  0.7399 -0.2010 -0.6420
              Bcc     0.0195    10.414     3.716     3.474  0.5385 -0.3951  0.7443
 
              Baa    -0.0692   -36.929   -13.177   -12.318  0.9377 -0.3437  0.0511
    13 H(1)   Bbb    -0.0044    -2.368    -0.845    -0.790  0.2932  0.8615  0.4146
              Bcc     0.0737    39.297    14.022    13.108 -0.1865 -0.3738  0.9086
 
              Baa    -0.0083    -4.403    -1.571    -1.469 -0.0036  0.7376 -0.6753
    14 H(1)   Bbb    -0.0070    -3.725    -1.329    -1.242  0.2021  0.6619  0.7219
              Bcc     0.0152     8.128     2.900     2.711  0.9794 -0.1339 -0.1514
 

 ---------------------------------------------------------------------------------

 No NMR shielding tensors so no spin-rotation constants.
 Leave Link  601 at Tue Apr  9 01:16:46 2019, MaxMem=   671088640 cpu:               7.3 elap:               0.4
 (Enter /shared/centos7/gaussian/g16/l701.exe)
 SCFChk:  SCF convergence  4.29D-09 required  1.00D-08
 ... and contract with generalized density number  0.
 Compute integral second derivatives.
 Entering OneElI...
 Calculate overlap and kinetic energy integrals
    NBasis = 276  MinDer = 2  MaxDer = 2
 Requested accuracy = 0.1000D-12
 PrmmSu-InSpLW:  IPartL=    0 NPrtUS=   20 NPrtUL=    1 DoSpLW=F IThBeg=    0 IThEnd=   19 NThAct=   20.
 PrsmSu:  NPrtUS=  20 ThrOK=T IAlg=1 NPAlg=1 LenDen=           0 ISkipM=0 DoSpLW=F IThBeg=    0 IThEnd=   19.
 Prism:   IPart=     0 DynPar=F LinDyn=F Incr=           1.
 PRISM was handed    33457920 working-precision words and  3640 shell-pairs
 PRISM was handed    33457920 working-precision words and  3640 shell-pairs
 PRISM was handed    33457920 working-precision words and  3640 shell-pairs
 PRISM was handed    33457920 working-precision words and  3640 shell-pairs
 PRISM was handed    33457920 working-precision words and  3640 shell-pairs
 PRISM was handed    33457920 working-precision words and  3640 shell-pairs
 PRISM was handed    33457920 working-precision words and  3640 shell-pairs
 PRISM was handed    33457920 working-precision words and  3640 shell-pairs
 PRISM was handed    33457920 working-precision words and  3640 shell-pairs
 PRISM was handed    33457920 working-precision words and  3640 shell-pairs
 PRISM was handed    33457920 working-precision words and  3640 shell-pairs
 PRISM was handed    33457920 working-precision words and  3640 shell-pairs
 PRISM was handed    33457920 working-precision words and  3640 shell-pairs
 PRISM was handed    33457920 working-precision words and  3640 shell-pairs
 PRISM was handed    33457920 working-precision words and  3640 shell-pairs
 PRISM was handed    33457920 working-precision words and  3640 shell-pairs
 PRISM was handed    33457920 working-precision words and  3640 shell-pairs
 PRISM was handed    33457920 working-precision words and  3640 shell-pairs
 PRISM was handed    33457920 working-precision words and  3640 shell-pairs
 PRISM was handed    33457920 working-precision words and  3640 shell-pairs
 IPart=  2 NShTot=         203 NBatch=          46 AvBLen=         4.4
 IPart=  7 NShTot=         185 NBatch=          38 AvBLen=         4.9
 IPart=  6 NShTot=         188 NBatch=          39 AvBLen=         4.8
 IPart=  1 NShTot=         206 NBatch=          48 AvBLen=         4.3
 IPart=  3 NShTot=         198 NBatch=          44 AvBLen=         4.5
 IPart=  4 NShTot=         194 NBatch=          43 AvBLen=         4.5
 IPart=  9 NShTot=         180 NBatch=          35 AvBLen=         5.1
 IPart= 11 NShTot=         177 NBatch=          34 AvBLen=         5.2
 IPart= 14 NShTot=         173 NBatch=          32 AvBLen=         5.4
 IPart=  8 NShTot=         183 NBatch=          37 AvBLen=         4.9
 IPart= 10 NShTot=         177 NBatch=          34 AvBLen=         5.2
 IPart= 12 NShTot=         174 NBatch=          32 AvBLen=         5.4
 IPart= 13 NShTot=         174 NBatch=          32 AvBLen=         5.4
 IPart=  0 NShTot=         217 NBatch=          58 AvBLen=         3.7
 IPart= 15 NShTot=         169 NBatch=          31 AvBLen=         5.5
 IPart=  5 NShTot=         189 NBatch=          39 AvBLen=         4.8
 IPart= 16 NShTot=         164 NBatch=          29 AvBLen=         5.7
 IPart= 17 NShTot=         164 NBatch=          29 AvBLen=         5.7
 IPart= 19 NShTot=         162 NBatch=          29 AvBLen=         5.6
 IPart= 18 NShTot=         163 NBatch=          29 AvBLen=         5.6
 PrSmSu:  NxtVal=             21.
 Entering OneElI...
 Calculate potential energy integrals
    NBasis = 276  MinDer = 2  MaxDer = 2
 Requested accuracy = 0.1000D-12
 PrmmSu-InSpLW:  IPartL=    0 NPrtUS=   20 NPrtUL=    1 DoSpLW=F IThBeg=    0 IThEnd=   19 NThAct=   20.
 PrsmSu:  NPrtUS=  20 ThrOK=T IAlg=1 NPAlg=1 LenDen=           0 ISkipM=0 DoSpLW=F IThBeg=    0 IThEnd=   19.
 Prism:   IPart=     0 DynPar=F LinDyn=F Incr=          24.
 PRISM was handed    33470542 working-precision words and  3454 shell-pairs
 PRISM was handed    33470542 working-precision words and  3454 shell-pairs
 PRISM was handed    33470542 working-precision words and  3454 shell-pairs
 PRISM was handed    33470542 working-precision words and  3454 shell-pairs
 PRISM was handed    33470542 working-precision words and  3454 shell-pairs
 PRISM was handed    33470542 working-precision words and  3454 shell-pairs
 PRISM was handed    33470542 working-precision words and  3454 shell-pairs
 PRISM was handed    33470542 working-precision words and  3454 shell-pairs
 PRISM was handed    33470542 working-precision words and  3454 shell-pairs
 PRISM was handed    33470542 working-precision words and  3454 shell-pairs
 PRISM was handed    33470542 working-precision words and  3454 shell-pairs
 PRISM was handed    33470542 working-precision words and  3454 shell-pairs
 PRISM was handed    33470542 working-precision words and  3454 shell-pairs
 PRISM was handed    33470542 working-precision words and  3454 shell-pairs
 PRISM was handed    33470542 working-precision words and  3454 shell-pairs
 PRISM was handed    33470542 working-precision words and  3454 shell-pairs
 PRISM was handed    33470542 working-precision words and  3454 shell-pairs
 PRISM was handed    33470542 working-precision words and  3454 shell-pairs
 PRISM was handed    33470542 working-precision words and  3454 shell-pairs
 PRISM was handed    33470542 working-precision words and  3454 shell-pairs
 IPart= 16 NShTot=        2198 NBatch=         157 AvBLen=        14.0
 IPart=  9 NShTot=        2394 NBatch=         171 AvBLen=        14.0
 IPart= 12 NShTot=        2324 NBatch=         166 AvBLen=        14.0
 IPart= 11 NShTot=        2352 NBatch=         168 AvBLen=        14.0
 IPart= 10 NShTot=        2366 NBatch=         169 AvBLen=        14.0
 IPart=  6 NShTot=        2478 NBatch=         177 AvBLen=        14.0
 IPart=  7 NShTot=        2450 NBatch=         175 AvBLen=        14.0
 IPart=  2 NShTot=        2702 NBatch=         193 AvBLen=        14.0
 IPart=  3 NShTot=        2618 NBatch=         187 AvBLen=        14.0
 IPart=  1 NShTot=        2786 NBatch=         199 AvBLen=        14.0
 IPart=  4 NShTot=        2590 NBatch=         185 AvBLen=        14.0
 IPart=  8 NShTot=        2436 NBatch=         174 AvBLen=        14.0
 IPart= 13 NShTot=        2282 NBatch=         163 AvBLen=        14.0
 IPart=  0 NShTot=        2898 NBatch=         207 AvBLen=        14.0
 IPart=  5 NShTot=        2520 NBatch=         180 AvBLen=        14.0
 IPart= 15 NShTot=        2226 NBatch=         159 AvBLen=        14.0
 IPart= 19 NShTot=        2156 NBatch=         154 AvBLen=        14.0
 IPart= 14 NShTot=        2240 NBatch=         160 AvBLen=        14.0
 IPart= 17 NShTot=        2170 NBatch=         155 AvBLen=        14.0
 IPart= 18 NShTot=        2170 NBatch=         155 AvBLen=        14.0
 PrSmSu:  NxtVal=            481.
 Polarizability after L701:
                1             2             3 
      1  0.000000D+00
      2  0.000000D+00  0.000000D+00
      3  0.000000D+00  0.000000D+00  0.000000D+00
 Dipole Derivatives after L701:
                 1             2             3             4             5 
      1  -0.105930D+01 -0.841121D+00  0.448406D+00 -0.606534D+00  0.108588D+01
      2  -0.569589D-01 -0.795888D+00  0.129340D-01  0.407837D+00 -0.973972D+00
      3   0.162882D-01  0.136739D+00 -0.454943D+00  0.181765D+00  0.595388D-01
                 6             7             8             9            10 
      1   0.655068D+00 -0.527004D-01  0.174847D+00 -0.917911D+00 -0.159574D+01
      2  -0.454162D-01 -0.210908D+00 -0.665830D+00  0.453996D-01 -0.396281D-01
      3  -0.966812D+00 -0.726839D-01  0.700607D-01 -0.740747D+00 -0.364248D-01
                11            12            13            14            15 
      1  -0.103167D+01 -0.439938D+00 -0.326818D-01 -0.875965D-01  0.160068D+00
      2  -0.931711D+00  0.424625D-01 -0.806748D-01 -0.193180D+00  0.478283D+00
      3   0.419580D-01 -0.981741D+00  0.464812D-01  0.175455D+00 -0.591234D+00
                16            17            18            19            20 
      1   0.195356D+00  0.191334D-01 -0.610492D+00  0.586700D+00 -0.634633D+00
      2  -0.766308D-02  0.171989D+00  0.289220D+00 -0.318260D+00  0.647705D+00
      3  -0.414774D-01 -0.308235D-02  0.703617D+00  0.378721D-01 -0.657446D-01
                21            22            23            24            25 
      1   0.324158D+00 -0.665420D-01  0.213617D+00  0.679244D+00 -0.763023D-01
      2  -0.264194D+00 -0.854450D-01  0.226210D+00  0.336358D+00 -0.163850D+00
      3   0.166565D+00 -0.155849D+00  0.127385D+00  0.658541D+00  0.683751D-01
                26            27            28            29            30 
      1   0.572367D+00 -0.435832D+00  0.152442D+01 -0.238676D+00 -0.291210D-01
      2   0.613984D+00 -0.387704D+00  0.208607D+00  0.992786D-01  0.360324D-02
      3  -0.143200D+00  0.269300D+00  0.675123D-01 -0.607150D-02  0.104463D+00
                31            32            33            34            35 
      1   0.317662D-01 -0.305781D+00  0.197049D-01  0.266939D+00  0.104237D+00
      2   0.183038D+00  0.625817D+00  0.449792D-02  0.767870D-02  0.173063D+00
      3  -0.713723D-01 -0.122604D+00  0.183339D+00  0.110320D+00  0.126918D+00
                36            37            38            39            40 
      1   0.531345D+00  0.190534D+00  0.540752D-01 -0.135784D+00  0.694093D+00
      2   0.802674D-02  0.539444D-01  0.365595D+00 -0.473515D+00  0.102282D+00
      3   0.690655D+00 -0.812469D-01 -0.259856D+00  0.624806D+00 -0.695603D-01
                41            42 
      1   0.915318D+00 -0.248917D+00
      2   0.636939D+00 -0.499559D-01
      3  -0.137495D+00  0.334190D+00
 Hessian after L701:
                1             2             3             4             5 
      1  0.450814D+01
      2 -0.915038D+00  0.816444D+01
      3  0.309520D+01  0.783424D+00  0.102029D+02
      4  0.256974D+00 -0.122271D+00 -0.133567D+00  0.106884D+02
      5 -0.788423D-01 -0.167359D+00  0.428827D-01 -0.653851D+00  0.126862D+02
      6 -0.122784D+00  0.345410D-01 -0.152558D+00  0.431278D+00 -0.115292D+00
      7 -0.976374D+00  0.193207D+00 -0.291666D+01  0.274264D-01 -0.750199D-01
      8  0.221596D+00 -0.667224D+01 -0.172723D+00 -0.890372D-01  0.949898D-01
      9 -0.286090D+01 -0.176357D+00 -0.521611D+01 -0.195288D-01 -0.389170D-01
     10  0.111723D+00  0.172406D-01  0.134909D-01 -0.374555D+01  0.171440D+01
     11 -0.478746D-02 -0.818035D-01 -0.463130D-03  0.172852D+01 -0.202331D+01
     12 -0.105098D-01  0.326497D-02 -0.873053D-01  0.579230D+00  0.931089D+00
     13  0.586389D+00 -0.459508D+00  0.829680D-01 -0.822493D+00  0.344659D+00
     14 -0.342746D+00 -0.158258D+00 -0.169323D-01  0.287345D+00 -0.505708D+01
     15 -0.190633D-01  0.454649D-01 -0.311091D+00 -0.109874D+01 -0.116210D+00
     16  0.238019D-01 -0.124105D-01 -0.146938D-01 -0.367664D+01 -0.185588D-01
     17 -0.971189D-02 -0.117365D-01  0.365736D-02 -0.159374D-01 -0.365648D+01
     18 -0.374531D-01  0.163485D-01 -0.871546D-03 -0.213121D+00  0.188619D+00
     19  0.207355D-01 -0.183519D-01  0.252124D-02 -0.289439D+01 -0.106042D+01
     20 -0.257412D-01  0.583836D-02 -0.307508D-02 -0.102997D+01 -0.186501D+01
     21  0.777844D-02 -0.603196D-02 -0.911863D-02  0.429304D+00 -0.693030D+00
     22  0.175174D-01  0.395385D-02  0.752254D-02  0.420546D-01 -0.541388D-01
     23  0.103027D-01 -0.135525D-01  0.370469D-02 -0.122357D-01 -0.303700D-01
     24  0.291565D-01  0.106883D-02 -0.186084D-02 -0.189952D-01 -0.537964D-01
     25  0.178840D-01  0.899262D-02 -0.376301D-02  0.155586D-01 -0.273533D-01
     26  0.269132D-01 -0.711632D-02 -0.214209D-02  0.462615D-01 -0.163895D-01
     27 -0.193922D-01 -0.428069D-02 -0.111007D-01 -0.848377D-02 -0.653672D-01
     28  0.244239D-01 -0.316955D-02  0.289182D-02  0.303151D-01 -0.461902D-01
     29 -0.143904D-02 -0.557783D-02 -0.296123D-03 -0.734210D-01  0.270928D-01
     30 -0.568483D-03  0.110906D-03 -0.639496D-02 -0.129190D-01  0.507145D-02
     31 -0.604819D-01  0.239035D-01  0.140573D+00  0.208883D-01 -0.580752D-01
     32  0.550623D-01  0.224021D+00  0.606484D-01 -0.102806D+00  0.193168D-01
     33  0.150555D+00  0.595692D-01 -0.327223D-01  0.128430D-01 -0.569680D-02
     34 -0.153259D+00  0.854028D-02  0.895342D-01  0.393311D-01 -0.210973D-01
     35 -0.947922D-04  0.425904D-01  0.840277D-01 -0.168397D-01 -0.386482D-01
     36  0.570109D-01  0.100467D+00  0.421512D+00  0.735690D-01 -0.115750D-01
     37  0.182274D-01 -0.612746D-01  0.157803D-01 -0.338344D-01  0.274407D-01
     38 -0.883228D-01  0.114037D-01 -0.321041D-01  0.323976D-01  0.376531D-01
     39  0.702502D-01 -0.693237D-01 -0.218077D-01 -0.472770D-02 -0.657885D-01
     40 -0.439570D+01  0.133619D+01 -0.381801D+00  0.519672D-01  0.704344D-02
     41  0.115285D+01 -0.133065D+01 -0.750609D+00  0.218483D-01 -0.106574D-01
     42 -0.339282D+00 -0.788266D+00 -0.477348D+01 -0.161406D-01 -0.198930D-02
[...]
 ! A21   A(2,5,13)             119.9035         -DE/DX =    0.0                 !
 ! A22   A(3,5,13)             116.9651         -DE/DX =    0.0                 !
 ! D1    D(14,1,3,5)            49.5356         -DE/DX =    0.0                 !
 ! D2    D(14,1,3,11)          171.1177         -DE/DX =    0.0                 !
 ! D3    D(14,1,3,12)          -74.1288         -DE/DX =    0.0                 !
 ! D4    D(5,2,4,8)            -59.5076         -DE/DX =    0.0                 !
 ! D5    D(5,2,4,9)             60.1027         -DE/DX =    0.0                 !
 ! D6    D(5,2,4,10)          -179.8314         -DE/DX =    0.0                 !
 ! D7    D(6,2,4,8)            179.2368         -DE/DX =    0.0                 !
 ! D8    D(6,2,4,9)            -61.1529         -DE/DX =    0.0                 !
 ! D9    D(6,2,4,10)            58.913          -DE/DX =    0.0                 !
 ! D10   D(7,2,4,8)             63.0254         -DE/DX =    0.0                 !
 ! D11   D(7,2,4,9)           -177.3643         -DE/DX =    0.0                 !
 ! D12   D(7,2,4,10)           -57.2983         -DE/DX =    0.0                 !
 ! D13   D(4,2,5,3)            -71.3981         -DE/DX =    0.0                 !
 ! D14   D(4,2,5,13)            91.0846         -DE/DX =    0.0                 !
 ! D15   D(6,2,5,3)             49.2663         -DE/DX =    0.0                 !
 ! D16   D(6,2,5,13)          -148.251          -DE/DX =    0.0                 !
 ! D17   D(7,2,5,3)            166.5998         -DE/DX =    0.0                 !
 ! D18   D(7,2,5,13)           -30.9175         -DE/DX =    0.0                 !
 ! D19   D(1,3,5,2)           -154.62           -DE/DX =    0.0                 !
 ! D20   D(1,3,5,13)            42.4025         -DE/DX =    0.0                 !
 ! D21   D(11,3,5,2)            87.5609         -DE/DX =    0.0                 !
 ! D22   D(11,3,5,13)          -75.4166         -DE/DX =    0.0                 !
 ! D23   D(12,3,5,2)           -30.1759         -DE/DX =    0.0                 !
 ! D24   D(12,3,5,13)          166.8466         -DE/DX =    0.0                 !
 --------------------------------------------------------------------------------
 GradGradGradGradGradGradGradGradGradGradGradGradGradGradGradGradGradGrad

 Leave Link  103 at Tue Apr  9 01:30:33 2019, MaxMem=   671088640 cpu:               0.5 elap:               0.1
 (Enter /shared/centos7/gaussian/g16/l9999.exe)

 ----------------------------------------------------------------------

 Electric dipole moment (input orientation):
 (Debye = 10**-18 statcoulomb cm , SI units = C m)
                  (au)            (Debye)         (10**-30 SI)
   Tot        0.766760D+00      0.194891D+01      0.650086D+01
   x         -0.257760D+00     -0.655159D+00     -0.218538D+01
   y          0.113745D+00      0.289110D+00      0.964368D+00
   z          0.713122D+00      0.181257D+01      0.604610D+01

 Dipole polarizability, Alpha (input orientation).
 (esu units = cm**3 , SI units = C**2 m**2 J**-1)
 Alpha(0;0):
               (au)            (10**-24 esu)      (10**-40 SI)
   iso        0.551123D+02      0.816679D+01      0.908678D+01
   aniso      0.151430D+02      0.224396D+01      0.249674D+01
   xx         0.511899D+02      0.758555D+01      0.844007D+01
   yx        -0.624323D+00     -0.925152D-01     -0.102937D+00
   yy         0.524970D+02      0.777925D+01      0.865559D+01
   zx        -0.249806D+01     -0.370174D+00     -0.411874D+00
   zy        -0.610930D+01     -0.905305D+00     -0.100729D+01
   zz         0.616499D+02      0.913557D+01      0.101647D+02

 ----------------------------------------------------------------------

 Dipole orientation:
     8         -5.68998624          6.08786699        -24.99795129
     6         -5.85071945          3.82488268        -18.24878277
     6         -4.79009437          4.60628017        -22.95720364
     6         -4.83244040          1.12316981        -17.89962825
     6         -6.67130379          4.33413954        -20.89023940
     1         -4.36148555          5.15884711        -17.72005117
     1         -7.42027777          4.12907984        -16.94878873
     1         -6.27488724         -0.26435710        -18.38486010
     1         -3.20254417          0.79438482        -19.11587700
     1         -4.25141347          0.80033990        -15.95071444
     1         -4.31661760          2.77290706        -23.79694370
     1         -3.02246268          5.38153476        -22.19468865
     1         -8.61218716          3.98579157        -21.44126848
     1         -6.37729063          7.62327001        -24.31831327

 Electric dipole moment (dipole orientation):
 (Debye = 10**-18 statcoulomb cm , SI units = C m)
                  (au)            (Debye)         (10**-30 SI)
   Tot        0.766760D+00      0.194891D+01      0.650086D+01
   x          0.000000D+00      0.000000D+00      0.000000D+00
   y          0.000000D+00      0.000000D+00      0.000000D+00
   z          0.766760D+00      0.194891D+01      0.650086D+01

 Dipole polarizability, Alpha (dipole orientation).
 (esu units = cm**3 , SI units = C**2 m**2 J**-1)
 Alpha(0;0):
               (au)            (10**-24 esu)      (10**-40 SI)
   iso        0.551123D+02      0.816679D+01      0.908678D+01
   aniso      0.151430D+02      0.224396D+01      0.249674D+01
   xx         0.506551D+02      0.750631D+01      0.835190D+01
   yx        -0.274946D+01     -0.407428D+00     -0.453325D+00
   yy         0.544767D+02      0.807261D+01      0.898199D+01
   zx         0.837143D+00      0.124052D+00      0.138026D+00
   zy        -0.671367D+01     -0.994863D+00     -0.110693D+01
   zz         0.602050D+02      0.892145D+01      0.992646D+01

 ----------------------------------------------------------------------

 Test job not archived.
 1\1\GINC-C0211\Freq\UM062X\6-311+G(2df,2p)\C4H9O1(2)\UNDERKOFFLER.C\09
 -Apr-2019\0\\#P Geom=AllCheck Guess=TCheck SCRF=Check Test GenChk UM06
 2X/6-311+G(2df,2p) Freq\\Gaussian input prepared by ASE\\0,2\O,1.69546
 66885,1.1446745282,-13.7930741314\C,0.3838253738,0.4884251992,-10.3223
 568721\C,1.7604958136,0.5420960342,-12.5123124483\C,0.7920724652,-0.88
 36268813,-9.7572873074\C,0.451873467,0.5362638248,-11.8083262298\H,1.0
 499328741,1.2481480867,-9.9019309653\H,-0.6252165213,0.7281539367,-9.9
 856446451\H,0.140803326,-1.6673161643,-10.1437766802\H,1.815940461,-1.
 1288195272,-10.0401197333\H,0.7304254955,-0.8915779496,-8.6694092014\H
 ,2.1206940461,-0.4764676944,-12.6974494134\H,2.5160716592,1.0316921069
 ,-11.8834440728\H,-0.4217997095,0.2842341459,-12.3974424374\H,1.253147
 8647,1.9918653563,-13.7013802345\\Version=EM64L-G16RevA.03\State=2-A\H
 F=-232.9667372\S2=0.755244\S2-1=0.\S2A=0.750023\RMSD=6.281e-09\RMSF=8.
 702e-07\ZeroPoint=0.123702\Thermal=0.1307427\Dipole=-0.2577596,0.11374
 48,0.7131218\DipoleDeriv=-0.4987503,-0.0939273,0.0207626,-0.0990814,-0
 .4579991,0.3030341,0.0311101,0.268293,-0.917736,0.0847008,0.0032755,-0
 .0212253,-0.0156941,0.0983147,0.0808407,0.0064146,0.0056072,0.0528148,
 0.2919935,0.0196578,-0.005412,0.0597748,0.4121164,-0.2749994,-0.030840
 1,-0.2063985,0.7168081,0.0723343,0.0173812,0.0153132,0.0293193,0.05412
 72,-0.0319301,0.0103764,0.0394813,0.0298761,0.024172,0.0426864,0.08647
 22,0.0701793,-0.3213552,0.1128604,-0.0114111,0.0605479,0.0955812,-0.01
 64157,-0.0931187,-0.0645612,-0.0684166,-0.0629372,-0.0447291,-0.027708
 2,-0.0224576,-0.0135983,-0.1043976,0.0594809,0.0746378,0.0405761,0.030
 3254,0.0022189,0.0554175,0.010664,-0.0091588,-0.0085683,-0.0862199,-0.
 0385713,-0.0486615,-0.0567873,-0.0122542,-0.0576844,-0.0593965,0.03458
 9,-0.1040065,0.0568094,0.0333228,0.0200989,0.0198617,0.0057728,0.06159
 99,-0.0133183,0.0508691,0.0711377,0.0119717,0.0045349,0.0054378,0.0250
 494,0.0255623,0.009109,0.0506613,-0.1689796,0.0121959,0.0470589,0.0258
 803,0.0659903,-0.0884981,0.0025913,0.0512637,-0.0144741,-0.0028647,-0.
 0573185,-0.0344762,-0.0977684,-0.0752284,0.0045564,-0.0525338,-0.09429
 03,-0.0149002,-0.0989262,-0.0504814,-0.0440294,-0.0214918,-0.0494031,0
 .1264886,-0.0621853,-0.0324694,-0.0119291,-0.0450663,0.2834041,0.09344
 97,-0.0118937,0.0651087,0.2167371,-0.0542487,0.0291123,-0.0923804,0.27
 57915\Polar=51.1898591,-0.6243234,52.4969972,-2.4980573,-6.1093017,61.
 6499126\Quadrupole=0.6270552,2.3288748,-2.95593,-0.3621134,1.69225,-0.
 4400503\PG=C01 [X(C4H9O1)]\NImag=0\\0.17642470,-0.23699100,0.53036297,
 -0.02806432,-0.05183629,0.33781841,-0.00418277,-0.00095973,0.00574180,
 0.59431423,-0.00055821,-0.00010218,0.00199218,0.03131503,0.44775463,0.
 00036436,-0.00054225,0.00058150,-0.02243098,0.05391186,0.49232425,-0.0
 6755007,0.00971256,0.00058469,0.00533298,-0.00075090,0.00269751,0.5250
 3385,0.01651307,-0.11091322,0.04466958,-0.00414034,0.00352419,0.002346
 38,0.00008110,0.53682940,-0.01943737,0.07850743,-0.21320724,0.02536046
 ,-0.00319189,-0.01298750,0.03265343,0.03640642,0.50147567,-0.00048024,
 0.00041950,-0.00005369,-0.08371482,0.02410486,-0.00486281,0.00047873,-
 0.00031016,0.00030492,0.56557996,0.00076401,-0.00007910,-0.00054866,0.
 02487982,-0.15532621,0.02123086,-0.00093119,0.00083401,-0.00031219,0.0
 2977330,0.47544412,0.00043453,0.00002062,-0.00018259,-0.00977934,0.036
 95343,-0.08130718,-0.00049639,-0.00212202,0.00027337,-0.01220120,0.041
 42119,0.56177816,0.00263790,0.00005191,0.00520489,-0.09144571,-0.00479
 964,0.00670937,-0.20702332,-0.00377368,0.05337740,0.00142968,-0.000888
 84,-0.00900529,0.57064081,-0.01109913,0.00223771,0.01130462,-0.0072611
 7,-0.04551097,-0.00406188,-0.00317915,-0.05319381,-0.00556056,-0.00119
 084,-0.00059085,0.02936711,0.06750357,0.12185059,0.03590192,0.00908718
 ,-0.03761075,0.01002563,-0.00082299,-0.23203520,0.04804661,-0.00427666
 ,-0.10847020,-0.00405165,0.01359690,-0.02283543,0.04067105,0.03361914,
 0.55869977,0.00014839,0.00010840,-0.00004618,-0.14681425,-0.10912260,-
 0.05446423,0.00038634,0.00108930,0.00102667,0.00569931,0.00807713,0.00
 268137,0.00015957,0.00180614,-0.00413741,0.15525600,0.00040081,0.00000
 373,0.00019501,-0.10812913,-0.16392195,-0.06919381,-0.00054350,0.00025
 482,0.00008107,-0.01837391,-0.02551222,-0.00973325,0.00093370,0.002180
 41,0.00028220,0.11847141,0.18430394,0.00076568,0.00027623,0.00045325,-
 0.05705218,-0.07220427,-0.08241052,-0.00241390,-0.00022647,0.00079840,
 0.00752707,0.01008801,0.00545955,-0.02300418,-0.01831699,-0.01835416,0
 .06652441,0.07180748,0.09475922,0.00006003,0.00006638,0.00025214,-0.27
 766683,0.04989211,0.07437870,0.00064875,0.00093875,-0.00009842,-0.0077
 0872,0.00247996,0.00190762,0.00012650,-0.00098339,0.00020369,-0.017531
 47,0.00395472,0.00564363,0.29881843,0.00012495,0.00014916,0.00021301,0
 .04936928,-0.05764878,-0.02089615,-0.00077815,0.00085830,0.00072595,0.
 03024584,-0.00936796,-0.00752868,-0.00184955,-0.00055802,0.00112275,-0
 .02039570,0.00516704,0.00793680,-0.05751505,0.06418746,0.00133621,0.00
 049422,-0.00173972,0.07365145,-0.02108793,-0.07210624,-0.00291646,-0.0
 0043726,-0.00419645,-0.01247882,0.00337968,0.00420004,0.03403138,-0.00
 364510,-0.01291304,-0.01157834,0.00369600,0.00355695,-0.08146528,0.016
 33936,0.08135186,0.00005356,0.00005425,0.00011805,0.00640267,0.0078595
 3,0.00361766,-0.00012528,-0.00020523,-0.00018341,-0.14701796,-0.116525
 47,-0.05834554,0.00037086,-0.00013710,0.00067977,0.00056922,0.00243590
 ,-0.00094668,0.00065824,-0.00045586,0.00056754,0.15571070,-0.00002483,
 -0.00001342,0.00010763,-0.01735252,-0.02251505,-0.00900666,-0.00004577
 ,-0.00008940,0.00018128,-0.11619740,-0.18091885,-0.06956826,-0.0001210
 2,0.00176273,-0.00194428,0.00224703,-0.00474240,0.00273482,0.00015726,
 0.00113832,-0.00049379,0.12578772,0.19980078,-0.00006654,-0.00006549,0
 .00003165,0.00801533,0.00974173,0.00347989,0.00017336,0.00015362,-0.00
 008184,-0.05859218,-0.06991823,-0.08317302,0.00106641,-0.00021569,0.00
 150942,-0.00055128,0.00285086,-0.00036911,0.00003755,-0.00088338,0.000
 16628,0.06502730,0.07391725,0.08580708,0.00036269,-0.00035182,-0.00008
 506,-0.00675602,0.00201895,0.00126048,-0.00026493,0.00063885,-0.000101
 49,-0.28541457,0.05280414,0.06712151,0.00019389,-0.00020449,0.00058943
 ,0.00071975,0.00020878,-0.00012150,0.00128806,0.00130340,-0.00070161,-
 0.01767320,0.00438487,0.00557368,0.30801874,-0.00035366,0.00007434,-0.
 00012785,0.02945776,-0.00821431,-0.00717944,0.00055814,-0.00004937,0.0
 0056293,0.05236942,-0.05774696,-0.01574282,-0.00047111,0.00119282,-0.0
 0171611,-0.00043546,0.00131509,-0.00073680,0.00146294,-0.00537424,0.00
 286526,-0.02191055,0.00560640,0.00748041,-0.06013324,0.06432632,0.0000
 5601,-0.00023159,0.00019453,-0.01234718,0.00306561,0.00230459,-0.00001
 260,0.00037933,-0.00014069,0.06748979,-0.01595417,-0.06689184,-0.00099
 478,-0.00078097,0.00124123,0.00051321,-0.00077702,0.00014107,-0.000967
 73,0.00262528,-0.00029863,-0.01187223,0.00344336,0.00264706,-0.0733584
 8,0.01485154,0.06848662,0.00028412,-0.00017636,-0.00016531,-0.00022784
 ,0.00055321,-0.00958620,-0.00033980,0.00022024,0.00005096,-0.04898969,
 -0.00083284,0.01661798,0.00053661,0.00189109,-0.00037413,0.00006931,-0
 .00033560,0.00053312,0.00007550,-0.00058659,-0.00012689,0.00131711,0.0
 0095690,-0.02033045,-0.00065100,-0.00013927,0.03118914,0.04773427,-0.0
 0040300,0.00004200,0.00031135,-0.00179851,-0.00197617,0.03154386,0.000
 50174,0.00027370,-0.00019857,-0.00077486,-0.04570243,-0.00239457,0.002
 08088,-0.00436810,0.00098359,-0.00073582,0.00130952,-0.00074260,-0.000
 07546,0.00144659,-0.00078925,0.00307601,0.00027477,-0.02306092,-0.0003
 9880,-0.00104922,-0.00672282,-0.00114914,0.04953970,0.00023305,0.00011
 881,-0.00037205,0.00084024,-0.00098884,-0.00912734,-0.00048104,-0.0004
 0412,0.00051448,0.01665280,-0.00201021,-0.31646002,-0.00083095,0.00345
 391,-0.00036985,0.00026766,0.00018756,0.00037436,-0.00040130,-0.000050
 25,0.00033784,0.00113528,0.00001550,-0.01013729,0.00020766,-0.00034916
 ,-0.00724999,-0.01771641,0.00034434,0.34238157,0.00151871,0.00445663,-
 0.00182776,-0.00076184,-0.00023648,-0.00068813,-0.07225250,0.07752759,
 0.01202288,-0.00003817,0.00010151,0.00059730,-0.01435628,0.02406459,0.
 01018590,0.00004059,0.00005140,0.00020510,-0.00012364,-0.00017766,0.00
 049327,-0.00018474,-0.00005187,0.00002251,0.00023990,-0.00012040,0.000
 17016,0.00014990,-0.00028133,0.00006017,0.07744889,0.00858276,-0.01994
 341,0.00644556,0.00120665,-0.00092308,-0.00007899,0.06553488,-0.257002
 62,-0.04156057,0.00045072,-0.00031629,0.00037319,0.00463373,0.00432878
 ,-0.00341116,-0.00010325,-0.00001033,0.00017689,0.00002135,0.00014675,
 -0.00028182,-0.00005175,-0.00005976,-0.00004258,-0.00028353,0.00015259
 ,0.00002022,-0.00016386,0.00000360,-0.00006912,-0.08305278,0.28896645,
 -0.01419861,0.04042441,-0.00483083,-0.00022312,0.00094812,0.00042184,0
 .01657342,-0.05941582,-0.05242156,0.00034318,-0.00023728,-0.00051533,0
 .00858850,-0.01231835,-0.00278097,0.00013020,0.00001078,0.00009477,0.0
 0018012,0.00031971,-0.00007812,0.00006984,0.00006466,-0.00000158,-0.00
 031814,0.00018900,-0.00055037,-0.00031743,0.00031786,0.00001061,-0.015
 65800,0.04114883,0.06829241,0.00405516,0.00397604,-0.00412680,0.000713
 88,-0.00012059,-0.00148371,-0.16448352,-0.08133512,-0.08838803,0.00011
 943,0.00005488,0.00031871,-0.02560396,-0.01332736,-0.01568986,0.000351
 02,0.00052809,0.00127137,0.00053152,0.00048986,-0.00003763,0.00003738,
 0.00016345,-0.00010754,-0.00007252,-0.00027923,0.00011199,0.00004434,-
 0.00009113,0.00004792,0.00767458,0.00418561,0.00487792,0.18122754,0.01
 282588,0.01011873,0.01552222,-0.00000035,0.00016727,-0.00002821,-0.081
 84320,-0.10856046,-0.06452566,-0.00035668,0.00003131,0.00015214,0.0025
 6570,0.00160446,-0.00127237,-0.00012976,-0.00000072,0.00025049,0.00006
 982,0.00001298,0.00019955,0.00015245,0.00002848,-0.00007522,0.00008035
 ,-0.00029870,-0.00001232,0.00010893,-0.00001957,0.00002894,-0.02117062
 ,-0.01512624,-0.01651255,0.08637727,0.11014758,-0.02028056,-0.00257612
 ,-0.03413118,0.00064370,0.00084462,0.00106720,-0.08833695,-0.06133204,
 -0.11683256,0.00001078,-0.00005204,0.00012712,0.00903895,0.00541837,0.
 00932241,-0.00022860,-0.00029180,0.00029399,0.00004423,0.00008143,0.00
 018552,0.00002990,-0.00003066,0.00003835,-0.00015130,-0.00008052,0.000
 10484,-0.00001190,-0.00002988,-0.00001624,-0.00500853,-0.00550124,-0.0
 0209935,0.10091543,0.06554705,0.14300090,0.00394405,0.00042754,0.00039
 967,0.00518094,-0.00057605,0.00409803,-0.01878655,-0.00743930,-0.01820
 251,-0.00002004,0.00039108,0.00044885,-0.24017290,-0.05709180,-0.12231
 861,0.00104441,0.00050539,0.00133610,0.00085999,0.00027430,-0.00076479
 ,-0.00012663,0.00012266,-0.00029333,0.00005892,-0.00008859,0.00005446,
 0.00005604,-0.00008531,0.00007772,0.00032297,0.00036289,-0.00003056,-0
 .00398148,0.00044860,0.00301523,0.25210959,0.00022037,-0.00034544,-0.0
 0075534,0.00285249,0.00476051,0.00201668,0.00332484,0.00394769,0.00179
 270,-0.00019593,-0.00066626,-0.00112179,-0.06507590,-0.03160098,-0.043
 29256,-0.00076835,-0.00032360,-0.00088943,-0.00050078,-0.00016649,0.00
 001623,-0.00008830,-0.00027086,0.00009256,-0.00003971,0.00007165,0.000
 07240,-0.00032973,0.00015629,-0.00018492,-0.00139117,-0.00001957,0.000
 48557,-0.00064863,0.00072849,-0.00076041,0.06333205,0.02399137,-0.0014
 7803,-0.00113216,0.00215943,-0.02230280,-0.00893801,-0.00990989,0.0128
 6596,0.00352100,0.00817141,0.00011703,-0.00091823,-0.00066531,-0.12437
 496,-0.03754714,-0.13682364,-0.00010466,0.00081072,-0.00475505,0.00035
 659,0.00002664,0.00138936,0.00011550,0.00060879,0.00009815,-0.00003941
 ,0.00002921,-0.00000892,0.00012846,0.00057770,-0.00000791,-0.00013996,
 -0.00022535,0.00003825,0.00295345,0.00044569,-0.00097825,0.13202095,0.
 04236474,0.14115232,-0.11727624,0.21920572,0.02206787,-0.00037460,0.00
 042077,0.00038995,-0.00105467,0.00019493,0.00161450,0.00007711,-0.0001
 4751,-0.00030011,0.00250634,-0.00079096,0.00026765,-0.00009821,-0.0001
 0806,-0.00026802,-0.00003635,-0.00004907,-0.00001003,0.00000807,-0.000
 02646,0.00002517,-0.00004972,0.00008326,-0.00003176,-0.00005888,0.0001
 3474,-0.00009279,0.00032163,-0.00132341,-0.00001732,-0.00061337,0.0008
 7160,0.00031962,-0.00048931,-0.00069125,-0.00011814,0.11713820,0.20999
 797,-0.41159187,-0.02749303,0.00056073,-0.00006790,-0.00006226,0.00835
 860,-0.01671321,-0.00290835,0.00003615,-0.00008232,-0.00007628,-0.0007
 8975,0.00066524,-0.00195562,-0.00010847,-0.00002333,-0.00015418,0.0000
 3139,0.00000889,-0.00025515,0.00000839,-0.00000171,0.00002507,-0.00002
 774,-0.00000642,0.00002114,-0.00001697,0.00006932,-0.00009243,0.000280
 59,-0.00019686,0.00457508,0.00002686,0.00116640,-0.00123676,-0.0005834
 6,-0.00026280,0.00037639,-0.21777429,0.42703655,0.04443367,-0.07254500
 ,-0.04916442,-0.00014302,-0.00022360,-0.00029540,-0.01893763,0.0407380
 5,-0.00289527,-0.00020523,0.00023438,0.00019248,-0.00047780,-0.0007164
 9,0.00142040,-0.00003283,0.00007421,-0.00004272,-0.00007153,-0.0000325
 0,0.00014433,-0.00001299,-0.00002964,-0.00001503,0.00012422,-0.0000456
 7,0.00002049,0.00010905,-0.00014009,0.00012183,-0.00043492,0.00300613,
 -0.00557978,-0.00066322,0.00028025,-0.00008273,0.00015881,0.00016357,0
 .00014005,-0.02384659,0.02923639,0.05603577\\0.00000024,-0.00000136,-0
 .00000043,0.00000056,0.00000082,0.00000011,-0.00000001,-0.00000105,-0.
 00000042,-0.00000073,0.00000055,0.00000031,0.00000018,0.00000043,0.000
 00012,0.00000152,0.00000024,-0.00000025,0.00000092,0.00000199,0.000000
 36,-0.00000167,0.00000113,0.00000067,-0.00000105,-0.00000062,0.0000000
 5,-0.00000041,0.00000085,0.00000032,-0.00000116,-0.00000155,-0.0000001
 6,0.00000070,-0.00000179,-0.00000061,-0.00000027,0.00000124,0.00000039
 ,0.00000118,-0.00000086,-0.00000045\\\@


 YOU SHOULDN'T LET PEOPLE DRIVE YOU CRAZY
 WHEN YOU KNOW IT'S WITHIN WALKING DISTANCE.
 Job cpu time:       0 days  1 hours 41 minutes 35.2 seconds.
 Elapsed time:       0 days  0 hours  5 minutes  5.3 seconds.
 File lengths (MBytes):  RWF=   1376 Int=      0 D2E=      0 Chk=     32 Scr=     32
 Normal termination of Gaussian 16 at Tue Apr  9 01:30:33 2019.
