 Entering Gaussian System, Link 0=g16
 Input=GIXGVIVAHMJKNP-UHFFFAOYSA-N_GeoFreq_c7_a1.com
 Output=GIXGVIVAHMJKNP-UHFFFAOYSA-N_GeoFreq_c7_a1.log
 Initial command:
 /shared/centos7/gaussian/g16/l1.exe "/scratch/underkoffler.c/gaussian_scratch/Gau-4847.inp" -scrdir="/scratch/underkoffler.c/gaussian_scratch/"
 Entering Link 1 = /shared/centos7/gaussian/g16/l1.exe PID=      4848.
  
 Copyright (c) 1988,1990,1992,1993,1995,1998,2003,2009,2016,
            Gaussian, Inc.  All Rights Reserved.
  
 This is part of the Gaussian(R) 16 program.  It is based on
 the Gaussian(R) 09 system (copyright 2009, Gaussian, Inc.),
 the Gaussian(R) 03 system (copyright 2003, Gaussian, Inc.),
 the Gaussian(R) 98 system (copyright 1998, Gaussian, Inc.),
 the Gaussian(R) 94 system (copyright 1995, Gaussian, Inc.),
 the Gaussian 92(TM) system (copyright 1992, Gaussian, Inc.),
 the Gaussian 90(TM) system (copyright 1990, Gaussian, Inc.),
 the Gaussian 88(TM) system (copyright 1988, Gaussian, Inc.),
 the Gaussian 86(TM) system (copyright 1986, Carnegie Mellon
 University), and the Gaussian 82(TM) system (copyright 1983,
 Carnegie Mellon University). Gaussian is a federally registered
 trademark of Gaussian, Inc.
  
 This software contains proprietary and confidential information,
 including trade secrets, belonging to Gaussian, Inc.
  
 This software is provided under written license and may be
 used, copied, transmitted, or stored only in accord with that
 written license.
  
 The following legend is applicable only to US Government
 contracts under FAR:
  
                    RESTRICTED RIGHTS LEGEND
  
 Use, reproduction and disclosure by the US Government is
 subject to restrictions as set forth in subparagraphs (a)
 and (c) of the Commercial Computer Software - Restricted
 Rights clause in FAR 52.227-19.
  
 Gaussian, Inc.
 340 Quinnipiac St., Bldg. 40, Wallingford CT 06492
  
  
 ---------------------------------------------------------------
 Warning -- This program may not be used in any manner that
 competes with the business of Gaussian, Inc. or will provide
 assistance to any competitor of Gaussian, Inc.  The licensee
 of this program is prohibited from giving any competitor of
 Gaussian, Inc. access to this program.  By using this program,
 the user acknowledges that Gaussian, Inc. is engaged in the
 business of creating and licensing software in the field of
 computational chemistry and represents and warrants to the
 licensee that it is not a competitor of Gaussian, Inc. and that
 it will not use this program in any manner prohibited above.
 ---------------------------------------------------------------
  

 Cite this work as:
 Gaussian 16, Revision A.03,
 M. J. Frisch, G. W. Trucks, H. B. Schlegel, G. E. Scuseria, 
 M. A. Robb, J. R. Cheeseman, G. Scalmani, V. Barone, 
 G. A. Petersson, H. Nakatsuji, X. Li, M. Caricato, A. V. Marenich, 
 J. Bloino, B. G. Janesko, R. Gomperts, B. Mennucci, H. P. Hratchian, 
 J. V. Ortiz, A. F. Izmaylov, J. L. Sonnenberg, D. Williams-Young, 
 F. Ding, F. Lipparini, F. Egidi, J. Goings, B. Peng, A. Petrone, 
 T. Henderson, D. Ranasinghe, V. G. Zakrzewski, J. Gao, N. Rega, 
 G. Zheng, W. Liang, M. Hada, M. Ehara, K. Toyota, R. Fukuda, 
 J. Hasegawa, M. Ishida, T. Nakajima, Y. Honda, O. Kitao, H. Nakai, 
 T. Vreven, K. Throssell, J. A. Montgomery, Jr., J. E. Peralta, 
 F. Ogliaro, M. J. Bearpark, J. J. Heyd, E. N. Brothers, K. N. Kudin, 
 V. N. Staroverov, T. A. Keith, R. Kobayashi, J. Normand, 
 K. Raghavachari, A. P. Rendell, J. C. Burant, S. S. Iyengar, 
 J. Tomasi, M. Cossi, J. M. Millam, M. Klene, C. Adamo, R. Cammi, 
 J. W. Ochterski, R. L. Martin, K. Morokuma, O. Farkas, 
 J. B. Foresman, and D. J. Fox, Gaussian, Inc., Wallingford CT, 2016.
 
 ******************************************
 Gaussian 16:  EM64L-G16RevA.03 25-Dec-2016
                 9-Apr-2019 
 ******************************************
 %nprocshared=20
 Will use up to   20 processors via shared memory.
 %mem=5GB
 ----------------------------------------------------------------------
 #p m062x/6-311+g(2df,2p) opt=(calcfc,verytight,gdiis,maxcycles=900) fr
 eq iop(7/33=1,2/16=3)
 ----------------------------------------------------------------------

 Warning!  Use of Opt=GDIIS is deprecated since it is seldom a good choice.

 1/6=900,7=1,10=4,18=20,19=11,26=3,38=1/1,3;
 2/9=110,12=2,16=3,17=6,18=5,40=1/2;
 3/5=4,6=6,7=214,11=2,25=1,30=1,71=2,74=-55,140=1/1,2,3;
 4//1;
 5/5=2,38=5/2;
 8/6=4,10=90,11=11/1;
 11/6=1,8=1,9=11,15=111,16=1/1,2,10;
 10/6=1,13=1/2;
 6/7=2,8=2,9=2,10=2,28=1/1;
 7/10=1,18=20,25=1,33=1/1,2,3,16;
 1/6=900,7=1,10=4,18=20,19=11,26=3/3(2);
 2/9=110,16=3/2;
 99//99;
 2/9=110,16=3/2;
 3/5=4,6=6,7=214,11=2,25=1,30=1,71=1,74=-55/1,2,3;
 4/5=5,16=3,69=1/1;
 5/5=2,38=5/2;
 7/33=1/1,2,3,16;
 1/6=900,7=1,18=20,19=11,26=3/3(-5);
 2/9=110,16=3/2;
 6/7=2,8=2,9=2,10=2,19=2,28=1/1;
 99/9=1/99;
 Leave Link    1 at Tue Apr  9 01:04:18 2019, MaxMem=   671088640 cpu:              26.7 elap:               1.4
 (Enter /shared/centos7/gaussian/g16/l101.exe)
 ------------------------------
 Gaussian input prepared by ASE
 ------------------------------
 Symbolic Z-matrix:
 Charge =  0 Multiplicity = 2
 O                     3.26448  -0.84682  -2.19302 
 C                    -0.08964   0.3535   -0.78028 
 C                     2.10264  -0.05995  -2.16185 
 C                    -1.21465  -0.44945  -0.1574 
 C                     1.13551  -0.45486  -1.08757 
 H                     0.16969   1.17245  -0.09219 
 H                    -0.45952   0.85381  -1.71111 
 H                    -2.01871   0.21643   0.19044 
 H                    -1.64745  -1.16808  -0.8968 
 H                    -0.85202  -1.04006   0.71814 
 H                     2.43255   1.00064  -2.01912 
 H                     1.60995  -0.07486  -3.14049 
 H                     1.43634  -1.22643  -0.36714 
 H                     2.99224  -1.77067  -2.01392 
 
 ITRead=  0  0  0  0  0  0  0  0  0  0  0  0  0  0
 MicOpt= -1 -1 -1 -1 -1 -1 -1 -1 -1 -1 -1 -1 -1 -1
 NAtoms=     14 NQM=       14 NQMF=       0 NMMI=      0 NMMIF=      0
                NMic=       0 NMicF=      0.
                    Isotopes and Nuclear Properties:
 (Nuclear quadrupole moments (NQMom) in fm**2, nuclear magnetic moments (NMagM)
  in nuclear magnetons)

  Atom         1           2           3           4           5           6           7           8           9          10
 IAtWgt=          16          12          12          12          12           1           1           1           1           1
 AtmWgt=  15.9949146  12.0000000  12.0000000  12.0000000  12.0000000   1.0078250   1.0078250   1.0078250   1.0078250   1.0078250
 NucSpn=           0           0           0           0           0           1           1           1           1           1
 AtZEff=  -0.0000000  -0.0000000  -0.0000000  -0.0000000  -0.0000000  -0.0000000  -0.0000000  -0.0000000  -0.0000000  -0.0000000
 NQMom=    0.0000000   0.0000000   0.0000000   0.0000000   0.0000000   0.0000000   0.0000000   0.0000000   0.0000000   0.0000000
 NMagM=    0.0000000   0.0000000   0.0000000   0.0000000   0.0000000   2.7928460   2.7928460   2.7928460   2.7928460   2.7928460
 AtZNuc=   8.0000000   6.0000000   6.0000000   6.0000000   6.0000000   1.0000000   1.0000000   1.0000000   1.0000000   1.0000000

  Atom        11          12          13          14
 IAtWgt=           1           1           1           1
 AtmWgt=   1.0078250   1.0078250   1.0078250   1.0078250
 NucSpn=           1           1           1           1
 AtZEff=  -0.0000000  -0.0000000  -0.0000000  -0.0000000
 NQMom=    0.0000000   0.0000000   0.0000000   0.0000000
 NMagM=    2.7928460   2.7928460   2.7928460   2.7928460
 AtZNuc=   1.0000000   1.0000000   1.0000000   1.0000000
 Leave Link  101 at Tue Apr  9 01:04:19 2019, MaxMem=   671088640 cpu:               7.5 elap:               0.4
 (Enter /shared/centos7/gaussian/g16/l103.exe)

 GradGradGradGradGradGradGradGradGradGradGradGradGradGradGradGradGradGrad
 Berny optimization.
 Initialization pass.
                           ----------------------------
                           !    Initial Parameters    !
                           ! (Angstroms and Degrees)  !
 --------------------------                            --------------------------
 ! Name  Definition              Value          Derivative Info.                !
 --------------------------------------------------------------------------------
 ! R1    R(1,3)                  1.4036         calculate D2E/DX2 analytically  !
 ! R2    R(1,14)                 0.9796         calculate D2E/DX2 analytically  !
 ! R3    R(2,4)                  1.516          calculate D2E/DX2 analytically  !
 ! R4    R(2,5)                  1.4996         calculate D2E/DX2 analytically  !
 ! R5    R(2,6)                  1.1006         calculate D2E/DX2 analytically  !
 ! R6    R(2,7)                  1.1196         calculate D2E/DX2 analytically  !
 ! R7    R(3,5)                  1.4985         calculate D2E/DX2 analytically  !
 ! R8    R(3,11)                 1.1198         calculate D2E/DX2 analytically  !
 ! R9    R(3,12)                 1.0958         calculate D2E/DX2 analytically  !
 ! R10   R(4,8)                  1.1004         calculate D2E/DX2 analytically  !
 ! R11   R(4,9)                  1.1182         calculate D2E/DX2 analytically  !
 ! R12   R(4,10)                 1.1166         calculate D2E/DX2 analytically  !
 ! R13   R(5,13)                 1.0977         calculate D2E/DX2 analytically  !
 ! A1    A(3,1,14)             107.1332         calculate D2E/DX2 analytically  !
 ! A2    A(4,2,5)              113.8882         calculate D2E/DX2 analytically  !
 ! A3    A(4,2,6)              108.1839         calculate D2E/DX2 analytically  !
 ! A4    A(4,2,7)              109.4568         calculate D2E/DX2 analytically  !
 ! A5    A(5,2,6)              109.6755         calculate D2E/DX2 analytically  !
 ! A6    A(5,2,7)              109.9022         calculate D2E/DX2 analytically  !
 ! A7    A(6,2,7)              105.3732         calculate D2E/DX2 analytically  !
 ! A8    A(1,3,5)              113.7305         calculate D2E/DX2 analytically  !
 ! A9    A(1,3,11)             106.8531         calculate D2E/DX2 analytically  !
 ! A10   A(1,3,12)             110.166          calculate D2E/DX2 analytically  !
 ! A11   A(5,3,11)             110.3871         calculate D2E/DX2 analytically  !
 ! A12   A(5,3,12)             110.2737         calculate D2E/DX2 analytically  !
 ! A13   A(11,3,12)            105.0211         calculate D2E/DX2 analytically  !
 ! A14   A(2,4,8)              110.586          calculate D2E/DX2 analytically  !
 ! A15   A(2,4,9)              110.8489         calculate D2E/DX2 analytically  !
 ! A16   A(2,4,10)             111.1796         calculate D2E/DX2 analytically  !
 ! A17   A(8,4,9)              108.3661         calculate D2E/DX2 analytically  !
 ! A18   A(8,4,10)             108.029          calculate D2E/DX2 analytically  !
 ! A19   A(9,4,10)             107.7123         calculate D2E/DX2 analytically  !
 ! A20   A(2,5,3)              122.1498         calculate D2E/DX2 analytically  !
 ! A21   A(2,5,13)             117.9253         calculate D2E/DX2 analytically  !
 ! A22   A(3,5,13)             118.6144         calculate D2E/DX2 analytically  !
 ! D1    D(14,1,3,5)            39.2436         calculate D2E/DX2 analytically  !
 ! D2    D(14,1,3,11)          161.3019         calculate D2E/DX2 analytically  !
 ! D3    D(14,1,3,12)          -85.1361         calculate D2E/DX2 analytically  !
 ! D4    D(5,2,4,8)            171.0478         calculate D2E/DX2 analytically  !
 ! D5    D(5,2,4,9)            -68.7401         calculate D2E/DX2 analytically  !
 ! D6    D(5,2,4,10)            51.0418         calculate D2E/DX2 analytically  !
 ! D7    D(6,2,4,8)             48.8346         calculate D2E/DX2 analytically  !
 ! D8    D(6,2,4,9)            169.0468         calculate D2E/DX2 analytically  !
 ! D9    D(6,2,4,10)           -71.1713         calculate D2E/DX2 analytically  !
 ! D10   D(7,2,4,8)            -65.4947         calculate D2E/DX2 analytically  !
 ! D11   D(7,2,4,9)             54.7175         calculate D2E/DX2 analytically  !
 ! D12   D(7,2,4,10)           174.4994         calculate D2E/DX2 analytically  !
 ! D13   D(4,2,5,3)            154.3077         calculate D2E/DX2 analytically  !
 ! D14   D(4,2,5,13)           -38.9547         calculate D2E/DX2 analytically  !
 ! D15   D(6,2,5,3)            -84.3042         calculate D2E/DX2 analytically  !
 ! D16   D(6,2,5,13)            82.4334         calculate D2E/DX2 analytically  !
 ! D17   D(7,2,5,3)             31.0923         calculate D2E/DX2 analytically  !
 ! D18   D(7,2,5,13)          -162.1701         calculate D2E/DX2 analytically  !
 ! D19   D(1,3,5,2)            172.7454         calculate D2E/DX2 analytically  !
 ! D20   D(1,3,5,13)             6.0954         calculate D2E/DX2 analytically  !
 ! D21   D(11,3,5,2)            52.6638         calculate D2E/DX2 analytically  !
 ! D22   D(11,3,5,13)         -113.9862         calculate D2E/DX2 analytically  !
 ! D23   D(12,3,5,2)           -62.933          calculate D2E/DX2 analytically  !
 ! D24   D(12,3,5,13)          130.417          calculate D2E/DX2 analytically  !
 --------------------------------------------------------------------------------
 Trust Radius=3.00D-01 FncErr=1.00D-07 GrdErr=1.00D-06 EigMax=2.50D+02 EigMin=1.00D-04
 Number of steps in this run=    100 maximum allowed number of steps=    100.
 GradGradGradGradGradGradGradGradGradGradGradGradGradGradGradGradGradGrad

 Leave Link  103 at Tue Apr  9 01:04:19 2019, MaxMem=   671088640 cpu:               0.1 elap:               0.0
 (Enter /shared/centos7/gaussian/g16/l202.exe)
                          Input orientation:                          
 ---------------------------------------------------------------------
 Center     Atomic      Atomic             Coordinates (Angstroms)
 Number     Number       Type             X           Y           Z
 ---------------------------------------------------------------------
      1          8           0        3.264480   -0.846816   -2.193017
      2          6           0       -0.089639    0.353499   -0.780282
      3          6           0        2.102641   -0.059954   -2.161851
      4          6           0       -1.214651   -0.449447   -0.157399
      5          6           0        1.135515   -0.454857   -1.087569
      6          1           0        0.169692    1.172447   -0.092186
      7          1           0       -0.459524    0.853812   -1.711110
      8          1           0       -2.018709    0.216427    0.190441
      9          1           0       -1.647447   -1.168080   -0.896805
     10          1           0       -0.852019   -1.040055    0.718142
     11          1           0        2.432548    1.000637   -2.019125
     12          1           0        1.609946   -0.074861   -3.140485
     13          1           0        1.436339   -1.226433   -0.367139
     14          1           0        2.992239   -1.770667   -2.013915
 ---------------------------------------------------------------------
                    Distance matrix (angstroms):
                    1          2          3          4          5
     1  O    0.000000
     2  C    3.832322   0.000000
     3  C    1.403564   2.624074   0.000000
     4  C    4.936016   1.516033   3.895376   0.000000
     5  C    2.430666   1.499622   1.498453   2.527553   0.000000
     6  H    4.250721   1.100638   3.088465   2.133353   2.138158
     7  H    4.122205   1.119629   2.757322   2.163959   2.155357
     8  H    5.892660   2.163886   4.753440   1.100405   3.468870
     9  H    5.090226   2.180722   4.109921   1.118243   2.879228
    10  H    5.045567   2.183688   4.240869   1.116644   2.748334
    11  H    2.033576   2.883565   1.119849   4.344056   2.160684
    12  H    2.056962   2.939837   1.095763   4.125223   2.141015
    13  H    2.611520   2.235058   2.241790   2.770460   1.097654
    14  H    0.979639   3.941054   1.933859   4.784370   2.457010
                    6          7          8          9         10
     6  H    0.000000
     7  H    1.765886   0.000000
     8  H    2.404777   2.540318   0.000000
     9  H    3.070419   2.482398   1.799111   0.000000
    10  H    2.568208   3.105165   1.793986   1.804758   0.000000
    11  H    2.977101   2.912132   5.030990   4.754923   4.737661
    12  H    3.594751   2.681091   4.934273   4.103637   4.677807
    13  H    2.726650   3.118970   3.785512   3.129487   2.539519
    14  H    4.507964   4.346751   5.823859   4.810170   4.772447
                   11         12         13         14
    11  H    0.000000
    12  H    1.758072   0.000000
    13  H    2.946410   3.007941   0.000000
    14  H    2.827261   2.460824   2.329997   0.000000
 Stoichiometry    C4H9O(2)
 Framework group  C1[X(C4H9O)]
 Deg. of freedom    36
 Full point group                 C1      NOp   1
 Largest Abelian subgroup         C1      NOp   1
 Largest concise Abelian subgroup C1      NOp   1
                         Standard orientation:                         
 ---------------------------------------------------------------------
 Center     Atomic      Atomic             Coordinates (Angstroms)
 Number     Number       Type             X           Y           Z
 ---------------------------------------------------------------------
      1          8           0       -2.473215   -0.341240   -0.044834
      2          6           0        1.260939    0.512944   -0.159512
      3          6           0       -1.345239    0.472456    0.143743
      4          6           0        2.459112   -0.364725    0.144521
      5          6           0       -0.047653   -0.219330   -0.144468
      6          1           0        1.415481    0.975402   -1.146251
      7          1           0        1.229189    1.365122    0.565990
      8          1           0        3.396021    0.183569   -0.035660
      9          1           0        2.446536   -0.699808    1.211305
     10          1           0        2.463894   -1.277754   -0.498323
     11          1           0       -1.470548    1.361347   -0.525759
     12          1           0       -1.339991    0.881161    1.160419
     13          1           0       -0.074360   -1.232967   -0.564791
     14          1           0       -2.243455   -1.234227    0.286039
 ---------------------------------------------------------------------
 Rotational constants (GHZ):          18.6571120           1.9923100           1.8874615
 Leave Link  202 at Tue Apr  9 01:04:19 2019, MaxMem=   671088640 cpu:               0.1 elap:               0.0
 (Enter /shared/centos7/gaussian/g16/l301.exe)
 Standard basis: 6-311+G(2df,2p) (5D, 7F)
 Ernie: Thresh=  0.10000D-02 Tol=  0.10000D-05 Strict=F.
 There are   276 symmetry adapted cartesian basis functions of A   symmetry.
 There are   251 symmetry adapted basis functions of A   symmetry.
   251 basis functions,   359 primitive gaussians,   276 cartesian basis functions
    21 alpha electrons       20 beta electrons
       nuclear repulsion energy       174.7246027845 Hartrees.
 IExCor= 4336 DFT=T Ex+Corr=M062X ExCW=0 ScaHFX=  0.540000
 ScaDFX=  1.000000  1.000000  1.000000  1.000000 ScalE2=  1.000000  1.000000
 IRadAn=      5 IRanWt=     -1 IRanGd=            0 ICorTp=0 IEmpDi=  4
 NAtoms=   14 NActive=   14 NUniq=   14 SFac= 1.00D+00 NAtFMM=   60 NAOKFM=F Big=F
 Integral buffers will be    131072 words long.
 Raffenetti 2 integral format.
 Two-electron integral symmetry is turned on.
 Leave Link  301 at Tue Apr  9 01:04:19 2019, MaxMem=   671088640 cpu:               0.8 elap:               0.1
 (Enter /shared/centos7/gaussian/g16/l302.exe)
 NPDir=0 NMtPBC=     1 NCelOv=     1 NCel=       1 NClECP=     1 NCelD=      1
         NCelK=      1 NCelE2=     1 NClLst=     1 CellRange=     0.0.
 One-electron integrals computed using PRISM.
 One-electron integral symmetry used in STVInt
 NBasis=   251 RedAO= T EigKep=  3.74D-05  NBF=   251
 NBsUse=   251 1.00D-06 EigRej= -1.00D+00 NBFU=   251
 Precomputing XC quadrature grid using
 IXCGrd= 4 IRadAn=           5 IRanWt=          -1 IRanGd=           0 AccXCQ= 0.00D+00.
 Generated NRdTot=       0 NPtTot=           0 NUsed=           0 NTot=          32
 NSgBfM=   276   276   276   276   276 MxSgAt=    14 MxSgA2=    14.
 Leave Link  302 at Tue Apr  9 01:04:19 2019, MaxMem=   671088640 cpu:               5.6 elap:               0.3
 (Enter /shared/centos7/gaussian/g16/l303.exe)
 DipDrv:  MaxL=1.
 Leave Link  303 at Tue Apr  9 01:04:19 2019, MaxMem=   671088640 cpu:               0.5 elap:               0.0
 (Enter /shared/centos7/gaussian/g16/l401.exe)
 ExpMin= 4.38D-02 ExpMax= 8.59D+03 ExpMxC= 1.30D+03 IAcc=3 IRadAn=         5 AccDes= 0.00D+00
 Harris functional with IExCor= 1009 and IRadAn=       5 diagonalized for initial guess.
 HarFok:  IExCor= 1009 AccDes= 0.00D+00 IRadAn=         5 IDoV= 1 UseB2=F ITyADJ=14
 ICtDFT=  3500011 ScaDFX=  1.000000  1.000000  1.000000  1.000000
 FoFCou: FMM=F IPFlag=           0 FMFlag=      100000 FMFlg1=           0
         NFxFlg=           0 DoJE=T BraDBF=F KetDBF=T FulRan=T
         wScrn=  0.000000 ICntrl=       500 IOpCl=  0 I1Cent=   200000004 NGrid=           0
         NMat0=    1 NMatS0=      1 NMatT0=    0 NMatD0=    1 NMtDS0=    0 NMtDT0=    0
 Petite list used in FoFCou.
 Harris En= -232.889577121761    
 JPrj=0 DoOrth=F DoCkMO=F.
 Initial guess <Sx>= 0.0000 <Sy>= 0.0000 <Sz>= 0.5000 <S**2>= 0.7500 S= 0.5000
 Leave Link  401 at Tue Apr  9 01:04:20 2019, MaxMem=   671088640 cpu:              14.1 elap:               0.7
 (Enter /shared/centos7/gaussian/g16/l502.exe)
 Integral symmetry usage will be decided dynamically.
 UHF open shell SCF:
 Using DIIS extrapolation, IDIIS=  1040.
 NGot=   671088640 LenX=   670928170 LenY=   670851553
 Requested convergence on RMS density matrix=1.00D-08 within 128 cycles.
 Requested convergence on MAX density matrix=1.00D-06.
 Requested convergence on             energy=1.00D-06.
 No special actions if energy rises.
 Fock matrices will be formed incrementally for  20 cycles.

 Cycle   1  Pass 1  IDiag  1:
 FoFJK:  IHMeth= 1 ICntrl=       0 DoSepK=F KAlg= 0 I1Cent=           0 FoldK=F
 IRaf= 960000000 NMat=       1 IRICut=       1 DoRegI=T DoRafI=F ISym2E= 0 IDoP0=0 IntGTp=1.
 FoFCou: FMM=F IPFlag=           0 FMFlag=      100000 FMFlg1=           0
         NFxFlg=           0 DoJE=F BraDBF=F KetDBF=F FulRan=T
         wScrn=  0.000000 ICntrl=         0 IOpCl=  1 I1Cent=           0 NGrid=           0
         NMat0=    1 NMatS0=      1 NMatT0=    0 NMatD0=    1 NMtDS0=    0 NMtDT0=    0
 Symmetry not used in FoFCou.
 E= -232.771287098210    
 DIIS: error= 2.15D-02 at cycle   1 NSaved=   1.
 NSaved= 1 IEnMin= 1 EnMin= -232.771287098210     IErMin= 1 ErrMin= 2.15D-02
 ErrMax= 2.15D-02  0.00D+00 EMaxC= 1.00D-01 BMatC= 9.07D-01 BMatP= 9.07D-01
 IDIUse=3 WtCom= 7.85D-01 WtEn= 2.15D-01
 Coeff-Com:  0.100D+01
 Coeff-En:   0.100D+01
 Coeff:      0.100D+01
 Gap=     0.252 Goal=   None    Shift=    0.000
 Gap=     0.322 Goal=   None    Shift=    0.000
 GapD=    0.252 DampG=1.000 DampE=0.500 DampFc=0.5000 IDamp=-1.
 Damping current iteration by 5.00D-01
 RMSDP=3.50D-03 MaxDP=1.68D-01              OVMax= 1.55D-01

 Cycle   2  Pass 1  IDiag  1:
 RMSU=  1.73D-03    CP:  9.72D-01
 E= -232.866942609556     Delta-E=       -0.095655511346 Rises=F Damp=T
 DIIS: error= 5.30D-03 at cycle   2 NSaved=   2.
 NSaved= 2 IEnMin= 2 EnMin= -232.866942609556     IErMin= 2 ErrMin= 5.30D-03
 ErrMax= 5.30D-03  0.00D+00 EMaxC= 1.00D-01 BMatC= 5.50D-02 BMatP= 9.07D-01
 IDIUse=3 WtCom= 9.47D-01 WtEn= 5.30D-02
 Coeff-Com: -0.756D-01 0.108D+01
 Coeff-En:   0.000D+00 0.100D+01
 Coeff:     -0.716D-01 0.107D+01
 Gap=     0.265 Goal=   None    Shift=    0.000
 Gap=     0.348 Goal=   None    Shift=    0.000
 RMSDP=1.09D-03 MaxDP=5.67D-02 DE=-9.57D-02 OVMax= 7.40D-02

 Cycle   3  Pass 1  IDiag  1:
 RMSU=  1.08D-03    CP:  9.69D-01  8.99D-01
 E= -232.960266257533     Delta-E=       -0.093323647977 Rises=F Damp=F
 DIIS: error= 2.71D-03 at cycle   3 NSaved=   3.
 NSaved= 3 IEnMin= 3 EnMin= -232.960266257533     IErMin= 3 ErrMin= 2.71D-03
 ErrMax= 2.71D-03  0.00D+00 EMaxC= 1.00D-01 BMatC= 1.10D-02 BMatP= 5.50D-02
 IDIUse=3 WtCom= 9.73D-01 WtEn= 2.71D-02
 Coeff-Com: -0.704D-01 0.285D+00 0.786D+00
 Coeff-En:   0.000D+00 0.000D+00 0.100D+01
 Coeff:     -0.684D-01 0.277D+00 0.792D+00
 Gap=     0.269 Goal=   None    Shift=    0.000
 Gap=     0.318 Goal=   None    Shift=    0.000
 RMSDP=2.34D-04 MaxDP=1.13D-02 DE=-9.33D-02 OVMax= 1.37D-02

 Cycle   4  Pass 1  IDiag  1:
 RMSU=  2.13D-04    CP:  9.70D-01  9.53D-01  1.02D+00
 E= -232.961810322911     Delta-E=       -0.001544065378 Rises=F Damp=F
 DIIS: error= 1.31D-03 at cycle   4 NSaved=   4.
 NSaved= 4 IEnMin= 4 EnMin= -232.961810322911     IErMin= 4 ErrMin= 1.31D-03
 ErrMax= 1.31D-03  0.00D+00 EMaxC= 1.00D-01 BMatC= 2.97D-03 BMatP= 1.10D-02
 IDIUse=3 WtCom= 9.87D-01 WtEn= 1.31D-02
 Coeff-Com: -0.262D-01 0.581D-01 0.384D+00 0.584D+00
 Coeff-En:   0.000D+00 0.000D+00 0.983D-01 0.902D+00
 Coeff:     -0.259D-01 0.574D-01 0.381D+00 0.588D+00
 Gap=     0.265 Goal=   None    Shift=    0.000
 Gap=     0.325 Goal=   None    Shift=    0.000
 RMSDP=1.02D-04 MaxDP=6.73D-03 DE=-1.54D-03 OVMax= 5.85D-03

 Cycle   5  Pass 1  IDiag  1:
 RMSU=  7.35D-05    CP:  9.68D-01  9.39D-01  1.05D+00  7.51D-01
 E= -232.962403038799     Delta-E=       -0.000592715887 Rises=F Damp=F
 DIIS: error= 3.13D-04 at cycle   5 NSaved=   5.
 NSaved= 5 IEnMin= 5 EnMin= -232.962403038799     IErMin= 5 ErrMin= 3.13D-04
 ErrMax= 3.13D-04  0.00D+00 EMaxC= 1.00D-01 BMatC= 9.69D-05 BMatP= 2.97D-03
 IDIUse=3 WtCom= 9.97D-01 WtEn= 3.13D-03
 Coeff-Com:  0.151D-02-0.130D-01 0.100D-02 0.113D+00 0.897D+00
 Coeff-En:   0.000D+00 0.000D+00 0.000D+00 0.000D+00 0.100D+01
 Coeff:      0.150D-02-0.129D-01 0.998D-03 0.113D+00 0.897D+00
 Gap=     0.267 Goal=   None    Shift=    0.000
 Gap=     0.324 Goal=   None    Shift=    0.000
 RMSDP=5.60D-05 MaxDP=3.63D-03 DE=-5.93D-04 OVMax= 2.54D-03

 Cycle   6  Pass 1  IDiag  1:
 RMSU=  3.55D-05    CP:  9.68D-01  9.39D-01  1.07D+00  9.08D-01  1.23D+00
 E= -232.962443736558     Delta-E=       -0.000040697759 Rises=F Damp=F
 DIIS: error= 1.26D-04 at cycle   6 NSaved=   6.
 NSaved= 6 IEnMin= 6 EnMin= -232.962443736558     IErMin= 6 ErrMin= 1.26D-04
 ErrMax= 1.26D-04  0.00D+00 EMaxC= 1.00D-01 BMatC= 1.37D-05 BMatP= 9.69D-05
 IDIUse=3 WtCom= 9.99D-01 WtEn= 1.26D-03
 Coeff-Com:  0.393D-02-0.103D-01-0.535D-01-0.692D-01 0.106D+00 0.102D+01
 Coeff-En:   0.000D+00 0.000D+00 0.000D+00 0.000D+00 0.000D+00 0.100D+01
 Coeff:      0.393D-02-0.102D-01-0.535D-01-0.691D-01 0.106D+00 0.102D+01
 Gap=     0.267 Goal=   None    Shift=    0.000
 Gap=     0.325 Goal=   None    Shift=    0.000
 RMSDP=1.87D-05 MaxDP=1.05D-03 DE=-4.07D-05 OVMax= 1.49D-03

 Cycle   7  Pass 1  IDiag  1:
 RMSU=  1.08D-05    CP:  9.68D-01  9.36D-01  1.08D+00  9.35D-01  1.36D+00
                    CP:  1.18D+00
 E= -232.962451528856     Delta-E=       -0.000007792298 Rises=F Damp=F
 DIIS: error= 3.94D-05 at cycle   7 NSaved=   7.
 NSaved= 7 IEnMin= 7 EnMin= -232.962451528856     IErMin= 7 ErrMin= 3.94D-05
 ErrMax= 3.94D-05  0.00D+00 EMaxC= 1.00D-01 BMatC= 3.45D-06 BMatP= 1.37D-05
 IDIUse=1 WtCom= 1.00D+00 WtEn= 0.00D+00
 Coeff-Com:  0.126D-02-0.212D-02-0.213D-01-0.450D-01-0.889D-01 0.417D+00
 Coeff-Com:  0.739D+00
 Coeff:      0.126D-02-0.212D-02-0.213D-01-0.450D-01-0.889D-01 0.417D+00
 Coeff:      0.739D+00
 Gap=     0.267 Goal=   None    Shift=    0.000
 Gap=     0.325 Goal=   None    Shift=    0.000
 RMSDP=6.28D-06 MaxDP=3.63D-04 DE=-7.79D-06 OVMax= 4.27D-04

 Cycle   8  Pass 1  IDiag  1:
 RMSU=  3.90D-06    CP:  9.68D-01  9.36D-01  1.08D+00  9.44D-01  1.39D+00
                    CP:  1.28D+00  1.10D+00
 E= -232.962452681668     Delta-E=       -0.000001152812 Rises=F Damp=F
 DIIS: error= 9.19D-06 at cycle   8 NSaved=   8.
 NSaved= 8 IEnMin= 8 EnMin= -232.962452681668     IErMin= 8 ErrMin= 9.19D-06
 ErrMax= 9.19D-06  0.00D+00 EMaxC= 1.00D-01 BMatC= 1.36D-07 BMatP= 3.45D-06
 IDIUse=1 WtCom= 1.00D+00 WtEn= 0.00D+00
 Coeff-Com: -0.327D-03 0.864D-03 0.304D-02 0.111D-02-0.203D-01-0.452D-01
 Coeff-Com:  0.781D-01 0.983D+00
 Coeff:     -0.327D-03 0.864D-03 0.304D-02 0.111D-02-0.203D-01-0.452D-01
 Coeff:      0.781D-01 0.983D+00
 Gap=     0.267 Goal=   None    Shift=    0.000
 Gap=     0.325 Goal=   None    Shift=    0.000
 RMSDP=2.50D-06 MaxDP=1.14D-04 DE=-1.15D-06 OVMax= 1.39D-04

 Cycle   9  Pass 1  IDiag  1:
 RMSU=  1.38D-06    CP:  9.68D-01  9.36D-01  1.08D+00  9.44D-01  1.39D+00
                    CP:  1.30D+00  1.21D+00  1.32D+00
 E= -232.962452745378     Delta-E=       -0.000000063710 Rises=F Damp=F
 DIIS: error= 3.55D-06 at cycle   9 NSaved=   9.
 NSaved= 9 IEnMin= 9 EnMin= -232.962452745378     IErMin= 9 ErrMin= 3.55D-06
 ErrMax= 3.55D-06  0.00D+00 EMaxC= 1.00D-01 BMatC= 1.28D-08 BMatP= 1.36D-07
 IDIUse=1 WtCom= 1.00D+00 WtEn= 0.00D+00
 Coeff-Com: -0.174D-03 0.359D-03 0.253D-02 0.444D-02 0.598D-02-0.472D-01
 Coeff-Com: -0.649D-01 0.155D+00 0.944D+00
 Coeff:     -0.174D-03 0.359D-03 0.253D-02 0.444D-02 0.598D-02-0.472D-01
 Coeff:     -0.649D-01 0.155D+00 0.944D+00
 Gap=     0.267 Goal=   None    Shift=    0.000
 Gap=     0.325 Goal=   None    Shift=    0.000
 RMSDP=1.20D-06 MaxDP=1.08D-04 DE=-6.37D-08 OVMax= 5.06D-05

 Cycle  10  Pass 1  IDiag  1:
 RMSU=  5.02D-07    CP:  9.68D-01  9.36D-01  1.08D+00  9.42D-01  1.39D+00
                    CP:  1.29D+00  1.25D+00  1.47D+00  1.16D+00
 E= -232.962452751714     Delta-E=       -0.000000006336 Rises=F Damp=F
 DIIS: error= 9.30D-07 at cycle  10 NSaved=  10.
 NSaved=10 IEnMin=10 EnMin= -232.962452751714     IErMin=10 ErrMin= 9.30D-07
 ErrMax= 9.30D-07  0.00D+00 EMaxC= 1.00D-01 BMatC= 7.44D-10 BMatP= 1.28D-08
 IDIUse=1 WtCom= 1.00D+00 WtEn= 0.00D+00
 Coeff-Com:  0.181D-04-0.413D-04-0.863D-04 0.745D-04 0.124D-02 0.488D-03
 Coeff-Com: -0.717D-02-0.536D-01 0.605D-01 0.999D+00
 Coeff:      0.181D-04-0.413D-04-0.863D-04 0.745D-04 0.124D-02 0.488D-03
 Coeff:     -0.717D-02-0.536D-01 0.605D-01 0.999D+00
 Gap=     0.267 Goal=   None    Shift=    0.000
 Gap=     0.325 Goal=   None    Shift=    0.000
 RMSDP=2.21D-07 MaxDP=1.35D-05 DE=-6.34D-09 OVMax= 1.42D-05

 Cycle  11  Pass 1  IDiag  1:
 RMSU=  8.16D-08    CP:  9.68D-01  9.36D-01  1.08D+00  9.42D-01  1.39D+00
                    CP:  1.29D+00  1.25D+00  1.50D+00  1.24D+00  1.20D+00
 E= -232.962452752112     Delta-E=       -0.000000000398 Rises=F Damp=F
 DIIS: error= 3.89D-07 at cycle  11 NSaved=  11.
 NSaved=11 IEnMin=11 EnMin= -232.962452752112     IErMin=11 ErrMin= 3.89D-07
 ErrMax= 3.89D-07  0.00D+00 EMaxC= 1.00D-01 BMatC= 1.67D-10 BMatP= 7.44D-10
 IDIUse=1 WtCom= 1.00D+00 WtEn= 0.00D+00
 Coeff-Com:  0.218D-04-0.470D-04-0.253D-03-0.354D-03-0.136D-04 0.433D-02
 Coeff-Com:  0.322D-02-0.336D-01-0.639D-01 0.328D+00 0.763D+00
 Coeff:      0.218D-04-0.470D-04-0.253D-03-0.354D-03-0.136D-04 0.433D-02
 Coeff:      0.322D-02-0.336D-01-0.639D-01 0.328D+00 0.763D+00
 Gap=     0.267 Goal=   None    Shift=    0.000
 Gap=     0.325 Goal=   None    Shift=    0.000
 RMSDP=6.43D-08 MaxDP=3.15D-06 DE=-3.98D-10 OVMax= 2.98D-06

 Cycle  12  Pass 1  IDiag  1:
 RMSU=  3.62D-08    CP:  9.68D-01  9.36D-01  1.08D+00  9.42D-01  1.39D+00
                    CP:  1.29D+00  1.25D+00  1.50D+00  1.26D+00  1.26D+00
                    CP:  1.16D+00
 E= -232.962452752172     Delta-E=       -0.000000000060 Rises=F Damp=F
 DIIS: error= 1.24D-07 at cycle  12 NSaved=  12.
 NSaved=12 IEnMin=12 EnMin= -232.962452752172     IErMin=12 ErrMin= 1.24D-07
 ErrMax= 1.24D-07  0.00D+00 EMaxC= 1.00D-01 BMatC= 1.71D-11 BMatP= 1.67D-10
 IDIUse=1 WtCom= 1.00D+00 WtEn= 0.00D+00
 Coeff-Com:  0.128D-05-0.306D-05-0.408D-04-0.775D-04-0.154D-03 0.768D-03
 Coeff-Com:  0.162D-02 0.796D-03-0.208D-01-0.687D-01 0.175D+00 0.912D+00
 Coeff:      0.128D-05-0.306D-05-0.408D-04-0.775D-04-0.154D-03 0.768D-03
 Coeff:      0.162D-02 0.796D-03-0.208D-01-0.687D-01 0.175D+00 0.912D+00
 Gap=     0.267 Goal=   None    Shift=    0.000
 Gap=     0.325 Goal=   None    Shift=    0.000
 RMSDP=2.14D-08 MaxDP=1.02D-06 DE=-6.01D-11 OVMax= 1.21D-06

 Cycle  13  Pass 1  IDiag  1:
 RMSU=  1.24D-08    CP:  9.68D-01  9.36D-01  1.08D+00  9.42D-01  1.39D+00
                    CP:  1.29D+00  1.25D+00  1.50D+00  1.26D+00  1.28D+00
                    CP:  1.27D+00  1.20D+00
 E= -232.962452752180     Delta-E=       -0.000000000008 Rises=F Damp=F
 DIIS: error= 3.87D-08 at cycle  13 NSaved=  13.
 NSaved=13 IEnMin=13 EnMin= -232.962452752180     IErMin=13 ErrMin= 3.87D-08
 ErrMax= 3.87D-08  0.00D+00 EMaxC= 1.00D-01 BMatC= 1.35D-12 BMatP= 1.71D-11
 IDIUse=1 WtCom= 1.00D+00 WtEn= 0.00D+00
 Coeff-Com: -0.180D-05 0.374D-05 0.149D-04 0.178D-04-0.221D-04-0.254D-03
 Coeff-Com: -0.227D-04 0.315D-02 0.206D-02-0.417D-01-0.498D-01 0.128D+00
 Coeff-Com:  0.958D+00
 Coeff:     -0.180D-05 0.374D-05 0.149D-04 0.178D-04-0.221D-04-0.254D-03
 Coeff:     -0.227D-04 0.315D-02 0.206D-02-0.417D-01-0.498D-01 0.128D+00
 Coeff:      0.958D+00
 Gap=     0.267 Goal=   None    Shift=    0.000
 Gap=     0.325 Goal=   None    Shift=    0.000
 RMSDP=1.07D-08 MaxDP=8.98D-07 DE=-7.90D-12 OVMax= 4.46D-07

 Cycle  14  Pass 1  IDiag  1:
 RMSU=  4.59D-09    CP:  9.68D-01  9.36D-01  1.08D+00  9.42D-01  1.39D+00
                    CP:  1.29D+00  1.25D+00  1.50D+00  1.26D+00  1.27D+00
                    CP:  1.30D+00  1.32D+00  1.19D+00
 E= -232.962452752178     Delta-E=        0.000000000001 Rises=F Damp=F
 DIIS: error= 1.04D-08 at cycle  14 NSaved=  14.
 NSaved=14 IEnMin=13 EnMin= -232.962452752180     IErMin=14 ErrMin= 1.04D-08
 ErrMax= 1.04D-08  0.00D+00 EMaxC= 1.00D-01 BMatC= 1.29D-13 BMatP= 1.35D-12
 IDIUse=1 WtCom= 1.00D+00 WtEn= 0.00D+00
 Coeff-Com: -0.783D-07 0.257D-06 0.367D-05 0.577D-05 0.923D-05-0.626D-04
 Coeff-Com: -0.134D-03 0.572D-05 0.185D-02 0.593D-02-0.168D-01-0.904D-01
 Coeff-Com:  0.380D-01 0.106D+01
 Coeff:     -0.783D-07 0.257D-06 0.367D-05 0.577D-05 0.923D-05-0.626D-04
 Coeff:     -0.134D-03 0.572D-05 0.185D-02 0.593D-02-0.168D-01-0.904D-01
 Coeff:      0.380D-01 0.106D+01
 Gap=     0.267 Goal=   None    Shift=    0.000
 Gap=     0.325 Goal=   None    Shift=    0.000
 RMSDP=3.75D-09 MaxDP=3.38D-07 DE= 1.25D-12 OVMax= 1.23D-07

 SCF Done:  E(UM062X) =  -232.962452752     A.U. after   14 cycles
            NFock= 14  Conv=0.37D-08     -V/T= 2.0047
 <Sx>= 0.0000 <Sy>= 0.0000 <Sz>= 0.5000 <S**2>= 0.7554 S= 0.5027
 <L.S>= 0.000000000000E+00
 KE= 2.318643342773D+02 PE=-8.922747877942D+02 EE= 2.527233979802D+02
 Annihilation of the first spin contaminant:
 S**2 before annihilation     0.7554,   after     0.7500
 Leave Link  502 at Tue Apr  9 01:05:01 2019, MaxMem=   671088640 cpu:             828.5 elap:              41.5
 (Enter /shared/centos7/gaussian/g16/l801.exe)
 DoSCS=F DFT=T ScalE2(SS,OS)=  1.000000  1.000000
 Range of M.O.s used for correlation:     1   251
 NBasis=   251 NAE=    21 NBE=    20 NFC=     0 NFV=     0
 NROrb=    251 NOA=    21 NOB=    20 NVA=   230 NVB=   231

 **** Warning!!: The largest alpha MO coefficient is  0.55851501D+02


 **** Warning!!: The largest beta MO coefficient is  0.53399447D+02

 Leave Link  801 at Tue Apr  9 01:05:01 2019, MaxMem=   671088640 cpu:               0.6 elap:               0.0
 (Enter /shared/centos7/gaussian/g16/l1101.exe)
 Using compressed storage, NAtomX=    14.
 Will process     15 centers per pass.
 Leave Link 1101 at Tue Apr  9 01:05:02 2019, MaxMem=   671088640 cpu:               5.9 elap:               0.3
 (Enter /shared/centos7/gaussian/g16/l1102.exe)
 Symmetrizing basis deriv contribution to polar:
 IMax=3 JMax=2 DiffMx= 0.00D+00
 Leave Link 1102 at Tue Apr  9 01:05:02 2019, MaxMem=   671088640 cpu:               0.7 elap:               0.1
 (Enter /shared/centos7/gaussian/g16/l1110.exe)
 Forming Gx(P) for the SCF density, NAtomX=    14.
 Integral derivatives from FoFJK, PRISM(SPDF).
 Do as many integral derivatives as possible in FoFJK.
 G2DrvN: MDV=     671087496.
 G2DrvN: will do    15 centers at a time, making    1 passes.
 Calling FoFCou, ICntrl=  3107 FMM=F I1Cent=   0 AccDes= 0.00D+00.
 FoFJK:  IHMeth= 1 ICntrl=    3107 DoSepK=F KAlg= 0 I1Cent=           0 FoldK=F
 IRaf=         0 NMat=       1 IRICut=       1 DoRegI=T DoRafI=F ISym2E= 0 IDoP0=0 IntGTp=1.
 FoFCou: FMM=F IPFlag=           0 FMFlag=      100000 FMFlg1=           0
         NFxFlg=           0 DoJE=F BraDBF=F KetDBF=F FulRan=T
         wScrn=  0.000000 ICntrl=      3107 IOpCl=  1 I1Cent=           0 NGrid=           0
         NMat0=    1 NMatS0=      1 NMatT0=    0 NMatD0=    1 NMtDS0=    0 NMtDT0=    0
 Symmetry not used in FoFCou.
 End of G2Drv F.D. properties file   721 does not exist.
 End of G2Drv F.D. properties file   722 does not exist.
 End of G2Drv F.D. properties file   788 does not exist.
 Leave Link 1110 at Tue Apr  9 01:06:25 2019, MaxMem=   671088640 cpu:            1659.2 elap:              83.0
 (Enter /shared/centos7/gaussian/g16/l1002.exe)
 Minotr:  UHF open shell wavefunction.
          IDoAtm=11111111111111
          Direct CPHF calculation.
          Differentiating once with respect to nuclear coordinates.
          Requested convergence is 1.0D-08 RMS, and 1.0D-07 maximum.
          Secondary convergence is 1.0D-12 RMS, and 1.0D-12 maximum.
          NewPWx=T KeepS1=F KeepF1=F KeepIn=T MapXYZ=F SortEE=F KeepMc=T.
         4264 words used for storage of precomputed grid.
 Two-electron integrals replicated using symmetry.
          MDV=     671088640 using IRadAn=       1.
          Solving linear equations simultaneously, MaxMat=     380.
 FoF2E skips out because all densities are zero.
 CalDSu exits because no D1Ps are significant.
 FoFJK:  IHMeth= 1 ICntrl=       0 DoSepK=F KAlg= 0 I1Cent=           0 FoldK=F
 IRaf= 950000000 NMat=      42 IRICut=     105 DoRegI=T DoRafI=T ISym2E= 2 IDoP0=3 IntGTp=3.
 FoFCou: FMM=F IPFlag=           0 FMFlag=      100000 FMFlg1=           0
         NFxFlg=           0 DoJE=F BraDBF=F KetDBF=F FulRan=T
         wScrn=  0.000000 ICntrl=         0 IOpCl=  1 I1Cent=           0 NGrid=           0
         NMat0=   42 NMatS0=     42 NMatT0=    0 NMatD0=   42 NMtDS0=    0 NMtDT0=    0
 Integrals replicated using symmetry in FoFCou.
 Raff kept on since  93.79% of shell-pairs survive, threshold=   0.20 IRatSp=94.
          There are    45 degrees of freedom in the 1st order CPHF.  IDoFFX=6 NUNeed=     0.
     39 vectors produced by pass  0 Test12= 2.10D-14 2.22D-09 XBig12= 1.40D-01 6.35D-02.
 AX will form    39 AO Fock derivatives at one time.
     39 vectors produced by pass  1 Test12= 2.10D-14 2.22D-09 XBig12= 7.84D-03 1.00D-02.
     39 vectors produced by pass  2 Test12= 2.10D-14 2.22D-09 XBig12= 2.83D-04 2.32D-03.
     39 vectors produced by pass  3 Test12= 2.10D-14 2.22D-09 XBig12= 4.88D-06 2.11D-04.
     39 vectors produced by pass  4 Test12= 2.10D-14 2.22D-09 XBig12= 5.41D-08 2.15D-05.
     39 vectors produced by pass  5 Test12= 2.10D-14 2.22D-09 XBig12= 6.24D-10 2.56D-06.
     38 vectors produced by pass  6 Test12= 2.10D-14 2.22D-09 XBig12= 5.61D-12 3.73D-07.
     15 vectors produced by pass  7 Test12= 2.10D-14 2.22D-09 XBig12= 4.09D-14 2.67D-08.
 InvSVY:  IOpt=1 It=  1 EMax= 1.78D-15
 Solved reduced A of dimension   287 with    39 vectors.
 End of Minotr F.D. properties file   721 does not exist.
 End of Minotr F.D. properties file   722 does not exist.
 End of Minotr F.D. properties file   788 does not exist.
 Leave Link 1002 at Tue Apr  9 01:08:34 2019, MaxMem=   671088640 cpu:            2586.7 elap:             129.4
 (Enter /shared/centos7/gaussian/g16/l601.exe)
 Copying SCF densities to generalized density rwf, IOpCl= 1 IROHF=0.

 **********************************************************************

            Population analysis using the SCF density.

 **********************************************************************

 Orbital symmetries:
 Alpha Orbitals:
       Occupied  (A) (A) (A) (A) (A) (A) (A) (A) (A) (A) (A) (A)
                 (A) (A) (A) (A) (A) (A) (A) (A) (A)
       Virtual   (A) (A) (A) (A) (A) (A) (A) (A) (A) (A) (A) (A)
                 (A) (A) (A) (A) (A) (A) (A) (A) (A) (A) (A) (A)
                 (A) (A) (A) (A) (A) (A) (A) (A) (A) (A) (A) (A)
                 (A) (A) (A) (A) (A) (A) (A) (A) (A) (A) (A) (A)
                 (A) (A) (A) (A) (A) (A) (A) (A) (A) (A) (A) (A)
                 (A) (A) (A) (A) (A) (A) (A) (A) (A) (A) (A) (A)
                 (A) (A) (A) (A) (A) (A) (A) (A) (A) (A) (A) (A)
                 (A) (A) (A) (A) (A) (A) (A) (A) (A) (A) (A) (A)
                 (A) (A) (A) (A) (A) (A) (A) (A) (A) (A) (A) (A)
                 (A) (A) (A) (A) (A) (A) (A) (A) (A) (A) (A) (A)
                 (A) (A) (A) (A) (A) (A) (A) (A) (A) (A) (A) (A)
                 (A) (A) (A) (A) (A) (A) (A) (A) (A) (A) (A) (A)
                 (A) (A) (A) (A) (A) (A) (A) (A) (A) (A) (A) (A)
                 (A) (A) (A) (A) (A) (A) (A) (A) (A) (A) (A) (A)
                 (A) (A) (A) (A) (A) (A) (A) (A) (A) (A) (A) (A)
                 (A) (A) (A) (A) (A) (A) (A) (A) (A) (A) (A) (A)
                 (A) (A) (A) (A) (A) (A) (A) (A) (A) (A) (A) (A)
                 (A) (A) (A) (A) (A) (A) (A) (A) (A) (A) (A) (A)
                 (A) (A) (A) (A) (A) (A) (A) (A) (A) (A) (A) (A)
                 (A) (A)
 Beta  Orbitals:
       Occupied  (A) (A) (A) (A) (A) (A) (A) (A) (A) (A) (A) (A)
                 (A) (A) (A) (A) (A) (A) (A) (A)
       Virtual   (A) (A) (A) (A) (A) (A) (A) (A) (A) (A) (A) (A)
                 (A) (A) (A) (A) (A) (A) (A) (A) (A) (A) (A) (A)
                 (A) (A) (A) (A) (A) (A) (A) (A) (A) (A) (A) (A)
                 (A) (A) (A) (A) (A) (A) (A) (A) (A) (A) (A) (A)
                 (A) (A) (A) (A) (A) (A) (A) (A) (A) (A) (A) (A)
                 (A) (A) (A) (A) (A) (A) (A) (A) (A) (A) (A) (A)
                 (A) (A) (A) (A) (A) (A) (A) (A) (A) (A) (A) (A)
                 (A) (A) (A) (A) (A) (A) (A) (A) (A) (A) (A) (A)
                 (A) (A) (A) (A) (A) (A) (A) (A) (A) (A) (A) (A)
                 (A) (A) (A) (A) (A) (A) (A) (A) (A) (A) (A) (A)
                 (A) (A) (A) (A) (A) (A) (A) (A) (A) (A) (A) (A)
                 (A) (A) (A) (A) (A) (A) (A) (A) (A) (A) (A) (A)
                 (A) (A) (A) (A) (A) (A) (A) (A) (A) (A) (A) (A)
                 (A) (A) (A) (A) (A) (A) (A) (A) (A) (A) (A) (A)
                 (A) (A) (A) (A) (A) (A) (A) (A) (A) (A) (A) (A)
                 (A) (A) (A) (A) (A) (A) (A) (A) (A) (A) (A) (A)
                 (A) (A) (A) (A) (A) (A) (A) (A) (A) (A) (A) (A)
                 (A) (A) (A) (A) (A) (A) (A) (A) (A) (A) (A) (A)
                 (A) (A) (A) (A) (A) (A) (A) (A) (A) (A) (A) (A)
                 (A) (A) (A)
 The electronic state is 2-A.
 Alpha  occ. eigenvalues --  -19.62360 -10.58800 -10.54903 -10.54558 -10.53516
 Alpha  occ. eigenvalues --   -1.14727  -0.90016  -0.81622  -0.72424  -0.66617
 Alpha  occ. eigenvalues --   -0.58131  -0.53316  -0.52150  -0.51941  -0.46412
 Alpha  occ. eigenvalues --   -0.45579  -0.42707  -0.40945  -0.39665  -0.35606
 Alpha  occ. eigenvalues --   -0.24895
 Alpha virt. eigenvalues --    0.01826   0.02620   0.03088   0.04162   0.05430
 Alpha virt. eigenvalues --    0.05992   0.06663   0.07830   0.08715   0.09912
 Alpha virt. eigenvalues --    0.10517   0.11803   0.12551   0.14372   0.16521
 Alpha virt. eigenvalues --    0.17749   0.18348   0.19604   0.20129   0.20736
 Alpha virt. eigenvalues --    0.22765   0.23560   0.23925   0.24404   0.25364
 Alpha virt. eigenvalues --    0.25704   0.27552   0.28407   0.29950   0.32106
 Alpha virt. eigenvalues --    0.32881   0.33347   0.36726   0.41922   0.42709
 Alpha virt. eigenvalues --    0.46146   0.47237   0.48564   0.49556   0.52369
 Alpha virt. eigenvalues --    0.52543   0.53782   0.54399   0.56359   0.56897
 Alpha virt. eigenvalues --    0.57264   0.59045   0.60401   0.61740   0.63076
 Alpha virt. eigenvalues --    0.64197   0.65698   0.65891   0.67477   0.68420
 Alpha virt. eigenvalues --    0.69261   0.72994   0.74377   0.80218   0.80687
 Alpha virt. eigenvalues --    0.82895   0.83407   0.88125   0.90389   0.93162
 Alpha virt. eigenvalues --    0.93609   0.97001   0.99422   1.02374   1.02884
 Alpha virt. eigenvalues --    1.05020   1.07294   1.10594   1.11918   1.12718
 Alpha virt. eigenvalues --    1.15405   1.16924   1.18267   1.18787   1.20534
 Alpha virt. eigenvalues --    1.21649   1.22064   1.24097   1.26090   1.27716
 Alpha virt. eigenvalues --    1.29118   1.30468   1.34608   1.35065   1.39393
 Alpha virt. eigenvalues --    1.41644   1.42175   1.42944   1.43804   1.44719
 Alpha virt. eigenvalues --    1.45737   1.48187   1.49234   1.51213   1.52408
 Alpha virt. eigenvalues --    1.54258   1.56782   1.59042   1.60882   1.62018
 Alpha virt. eigenvalues --    1.64893   1.69921   1.71852   1.75661   1.91474
 Alpha virt. eigenvalues --    2.07305   2.11548   2.26192   2.31651   2.39006
 Alpha virt. eigenvalues --    2.45194   2.48418   2.54021   2.57571   2.59997
 Alpha virt. eigenvalues --    2.63042   2.65177   2.70655   2.77371   2.79641
 Alpha virt. eigenvalues --    2.80340   2.83393   2.85837   2.86373   2.87553
 Alpha virt. eigenvalues --    2.93554   2.96960   2.98230   2.99769   3.00596
 Alpha virt. eigenvalues --    3.07470   3.09740   3.11019   3.14268   3.15668
 Alpha virt. eigenvalues --    3.18998   3.19377   3.22465   3.23905   3.27488
 Alpha virt. eigenvalues --    3.31120   3.31540   3.33102   3.36510   3.37647
 Alpha virt. eigenvalues --    3.40908   3.45555   3.46685   3.50465   3.51058
 Alpha virt. eigenvalues --    3.55580   3.56545   3.59290   3.59868   3.63920
 Alpha virt. eigenvalues --    3.64856   3.65392   3.69534   3.73344   3.74882
 Alpha virt. eigenvalues --    3.78179   3.79304   3.85643   3.87074   3.90775
 Alpha virt. eigenvalues --    3.91959   3.97018   3.98480   3.99643   4.00125
 Alpha virt. eigenvalues --    4.03119   4.06080   4.07351   4.12155   4.15004
 Alpha virt. eigenvalues --    4.16615   4.17696   4.19557   4.23631   4.24797
 Alpha virt. eigenvalues --    4.27598   4.29243   4.29741   4.31992   4.37322
 Alpha virt. eigenvalues --    4.41026   4.43179   4.45631   4.46869   4.50622
 Alpha virt. eigenvalues --    4.53199   4.57714   4.61735   4.68256   4.70908
 Alpha virt. eigenvalues --    4.90384   4.99365   5.13556   5.20324   5.26302
 Alpha virt. eigenvalues --    5.28947   5.36550   5.39021   5.42810   5.48842
 Alpha virt. eigenvalues --    5.49478   5.50940   5.55490   5.57245   5.57743
 Alpha virt. eigenvalues --    5.61208   5.86772   5.95591   6.53313   6.97237
 Alpha virt. eigenvalues --    7.09868   7.19552   7.22629   7.49649   7.63688
 Alpha virt. eigenvalues --   24.15297  24.27581  24.40693  24.49146  50.11987
  Beta  occ. eigenvalues --  -19.62366 -10.58865 -10.54623 -10.54216 -10.53490
  Beta  occ. eigenvalues --   -1.14705  -0.88704  -0.80653  -0.71776  -0.64968
  Beta  occ. eigenvalues --   -0.57518  -0.52313  -0.51534  -0.51281  -0.46088
  Beta  occ. eigenvalues --   -0.44993  -0.41881  -0.40548  -0.39146  -0.35168
  Beta virt. eigenvalues --   -0.02681   0.01604   0.02215   0.02981   0.03714
  Beta virt. eigenvalues --    0.05261   0.05865   0.06609   0.07267   0.08752
  Beta virt. eigenvalues --    0.09526   0.10337   0.11104   0.12259   0.13845
  Beta virt. eigenvalues --    0.15478   0.17341   0.18189   0.19790   0.20418
  Beta virt. eigenvalues --    0.20877   0.22404   0.23223   0.23882   0.24524
  Beta virt. eigenvalues --    0.25678   0.26013   0.27720   0.28413   0.29833
  Beta virt. eigenvalues --    0.32542   0.33411   0.33840   0.36919   0.42228
  Beta virt. eigenvalues --    0.42774   0.46221   0.47486   0.48929   0.50194
  Beta virt. eigenvalues --    0.52401   0.52478   0.53727   0.54794   0.56319
  Beta virt. eigenvalues --    0.57070   0.58299   0.58779   0.60746   0.61739
  Beta virt. eigenvalues --    0.63820   0.64636   0.65932   0.66003   0.67230
  Beta virt. eigenvalues --    0.68852   0.69398   0.73148   0.74541   0.80163
  Beta virt. eigenvalues --    0.80859   0.82726   0.83384   0.87744   0.90195
  Beta virt. eigenvalues --    0.92748   0.93372   0.96710   0.99385   1.02383
  Beta virt. eigenvalues --    1.02988   1.04730   1.07253   1.10703   1.12141
  Beta virt. eigenvalues --    1.12692   1.15526   1.16797   1.18213   1.19048
  Beta virt. eigenvalues --    1.20532   1.21567   1.22184   1.23626   1.26210
  Beta virt. eigenvalues --    1.27996   1.29343   1.30505   1.35082   1.35515
  Beta virt. eigenvalues --    1.39360   1.41613   1.42137   1.43052   1.43821
  Beta virt. eigenvalues --    1.44454   1.46105   1.48074   1.49066   1.51453
  Beta virt. eigenvalues --    1.52507   1.54476   1.56742   1.59023   1.61195
  Beta virt. eigenvalues --    1.62044   1.65567   1.70137   1.72240   1.76086
  Beta virt. eigenvalues --    1.91555   2.07782   2.11794   2.26292   2.31700
  Beta virt. eigenvalues --    2.39505   2.45616   2.48581   2.54624   2.58135
  Beta virt. eigenvalues --    2.60724   2.63724   2.65785   2.72333   2.79574
  Beta virt. eigenvalues --    2.80992   2.83195   2.83982   2.88078   2.88717
  Beta virt. eigenvalues --    2.90499   2.95648   2.97303   2.99896   3.01315
  Beta virt. eigenvalues --    3.02318   3.08223   3.10424   3.11928   3.15226
  Beta virt. eigenvalues --    3.17338   3.20001   3.20503   3.23676   3.24825
  Beta virt. eigenvalues --    3.28737   3.31938   3.33837   3.34532   3.37395
  Beta virt. eigenvalues --    3.41371   3.41895   3.46930   3.48319   3.51781
  Beta virt. eigenvalues --    3.52270   3.56695   3.58803   3.60567   3.62179
  Beta virt. eigenvalues --    3.64413   3.65172   3.66097   3.70014   3.73359
  Beta virt. eigenvalues --    3.76608   3.78434   3.79432   3.85856   3.87421
  Beta virt. eigenvalues --    3.91910   3.92589   3.97528   3.99018   4.00333
  Beta virt. eigenvalues --    4.01252   4.04101   4.07701   4.08224   4.13475
  Beta virt. eigenvalues --    4.15593   4.17403   4.18390   4.20529   4.24407
  Beta virt. eigenvalues --    4.25125   4.28199   4.29709   4.31053   4.32577
  Beta virt. eigenvalues --    4.38164   4.43254   4.45205   4.46172   4.47501
  Beta virt. eigenvalues --    4.51838   4.55291   4.58410   4.63074   4.69461
  Beta virt. eigenvalues --    4.73316   4.92711   5.01851   5.15020   5.20341
  Beta virt. eigenvalues --    5.26536   5.30733   5.36563   5.38836   5.45645
  Beta virt. eigenvalues --    5.49410   5.50746   5.52292   5.55967   5.57422
  Beta virt. eigenvalues --    5.58500   5.61179   5.86859   5.95822   6.53361
  Beta virt. eigenvalues --    6.97245   7.09924   7.19572   7.22660   7.49675
  Beta virt. eigenvalues --    7.63722  24.16130  24.27768  24.40726  24.49682
  Beta virt. eigenvalues --   50.11991
          Condensed to atoms (all electrons):
               1          2          3          4          5          6
     1  O    8.112098   0.014543   0.152302  -0.002360  -0.050990  -0.000767
     2  C    0.014543   5.474476  -0.031070   0.069768  -0.054492   0.458964
     3  C    0.152302  -0.031070   5.095043   0.005199   0.175874  -0.018124
     4  C   -0.002360   0.069768   0.005199   5.132238   0.091286  -0.045287
     5  C   -0.050990  -0.054492   0.175874   0.091286   5.810672  -0.052117
     6  H   -0.000767   0.458964  -0.018124  -0.045287  -0.052117   0.549358
     7  H    0.000720   0.451677   0.030350  -0.036372  -0.095396  -0.040814
     8  H    0.000023  -0.052603  -0.000235   0.410105   0.025955  -0.004949
     9  H   -0.000018  -0.011185  -0.004900   0.410699  -0.015850   0.005868
    10  H   -0.000006  -0.013846   0.006852   0.403435  -0.029659  -0.006515
    11  H   -0.060820  -0.004910   0.452896   0.000412  -0.063036   0.001294
    12  H   -0.035776   0.004944   0.401715  -0.002007  -0.038792  -0.000113
    13  H    0.003099  -0.004051  -0.017502  -0.013150   0.375515  -0.001116
    14  H    0.231682  -0.004317  -0.016522   0.003032   0.000014   0.000026
               7          8          9         10         11         12
     1  O    0.000720   0.000023  -0.000018  -0.000006  -0.060820  -0.035776
     2  C    0.451677  -0.052603  -0.011185  -0.013846  -0.004910   0.004944
     3  C    0.030350  -0.000235  -0.004900   0.006852   0.452896   0.401715
     4  C   -0.036372   0.410105   0.410699   0.403435   0.000412  -0.002007
     5  C   -0.095396   0.025955  -0.015850  -0.029659  -0.063036  -0.038792
     6  H   -0.040814  -0.004949   0.005868  -0.006515   0.001294  -0.000113
     7  H    0.551427  -0.004219  -0.009446   0.006503  -0.002740   0.001405
     8  H   -0.004219   0.542017  -0.023131  -0.026626   0.000012   0.000006
     9  H   -0.009446  -0.023131   0.547290  -0.033398  -0.000014   0.000035
    10  H    0.006503  -0.026626  -0.033398   0.562139  -0.000017  -0.000021
    11  H   -0.002740   0.000012  -0.000014  -0.000017   0.586533  -0.057434
    12  H    0.001405   0.000006   0.000035  -0.000021  -0.057434   0.583916
    13  H    0.003927  -0.000033  -0.000578   0.002884   0.001127   0.004396
    14  H    0.000068   0.000004  -0.000033   0.000020   0.010854  -0.007085
              13         14
     1  O    0.003099   0.231682
     2  C   -0.004051  -0.004317
     3  C   -0.017502  -0.016522
     4  C   -0.013150   0.003032
     5  C    0.375515   0.000014
     6  H   -0.001116   0.000026
     7  H    0.003927   0.000068
     8  H   -0.000033   0.000004
     9  H   -0.000578  -0.000033
    10  H    0.002884   0.000020
    11  H    0.001127   0.010854
    12  H    0.004396  -0.007085
    13  H    0.468360   0.003275
    14  H    0.003275   0.527794
          Atomic-Atomic Spin Densities.
               1          2          3          4          5          6
     1  O    0.002381  -0.000722   0.005152   0.000729  -0.004286  -0.000551
     2  C   -0.000722   0.016601   0.026519  -0.006850  -0.150486   0.036156
     3  C    0.005152   0.026519  -0.047076  -0.002381  -0.091845   0.000844
     4  C    0.000729  -0.006850  -0.002381   0.035832   0.002454  -0.011239
     5  C   -0.004286  -0.150486  -0.091845   0.002454   1.402113  -0.041022
     6  H   -0.000551   0.036156   0.000844  -0.011239  -0.041022   0.068001
     7  H    0.000364   0.002808   0.007923   0.009728  -0.022985  -0.011889
     8  H   -0.000001  -0.006653  -0.001415  -0.001210   0.008646   0.001781
     9  H   -0.000048   0.010887   0.002755  -0.000845  -0.011828   0.000340
    10  H    0.000036   0.003990   0.000285  -0.002921  -0.002658  -0.001617
    11  H   -0.006795   0.003250   0.010056  -0.003957  -0.014333   0.003577
    12  H    0.005205   0.008727   0.040494   0.004391  -0.070266  -0.001231
    13  H    0.001564   0.015985   0.010969  -0.000005  -0.030202  -0.001112
    14  H   -0.003945   0.000978   0.001457  -0.000469   0.005362   0.000116
               7          8          9         10         11         12
     1  O    0.000364  -0.000001  -0.000048   0.000036  -0.006795   0.005205
     2  C    0.002808  -0.006653   0.010887   0.003990   0.003250   0.008727
     3  C    0.007923  -0.001415   0.002755   0.000285   0.010056   0.040494
     4  C    0.009728  -0.001210  -0.000845  -0.002921  -0.003957   0.004391
     5  C   -0.022985   0.008646  -0.011828  -0.002658  -0.014333  -0.070266
     6  H   -0.011889   0.001781   0.000340  -0.001617   0.003577  -0.001231
     7  H    0.028022  -0.000825  -0.000638   0.000399  -0.002739   0.003293
     8  H   -0.000825  -0.000858   0.001338  -0.000210   0.000024  -0.000025
     9  H   -0.000638   0.001338  -0.007635  -0.000336   0.000027  -0.000073
    10  H    0.000399  -0.000210  -0.000336   0.001495  -0.000039   0.000032
    11  H   -0.002739   0.000024   0.000027  -0.000039   0.070203  -0.017614
    12  H    0.003293  -0.000025  -0.000073   0.000032  -0.017614   0.060371
    13  H    0.000213  -0.000100   0.000192   0.000135  -0.001157   0.000979
    14  H   -0.000107   0.000001   0.000015  -0.000021   0.001533  -0.002187
              13         14
     1  O    0.001564  -0.003945
     2  C    0.015985   0.000978
     3  C    0.010969   0.001457
     4  C   -0.000005  -0.000469
     5  C   -0.030202   0.005362
     6  H   -0.001112   0.000116
     7  H    0.000213  -0.000107
     8  H   -0.000100   0.000001
     9  H    0.000192   0.000015
    10  H    0.000135  -0.000021
    11  H   -0.001157   0.001533
    12  H    0.000979  -0.002187
    13  H   -0.049781  -0.000594
    14  H   -0.000594   0.001769
 Mulliken charges and spin densities:
               1          2
     1  O   -0.363729  -0.000916
     2  C   -0.297897  -0.038810
     3  C   -0.231880  -0.036262
     4  C   -0.426999   0.023258
     5  C   -0.078985   0.978664
     6  H    0.154293   0.042154
     7  H    0.142910   0.013566
     8  H    0.133677   0.000496
     9  H    0.134661  -0.005848
    10  H    0.128257  -0.001430
    11  H    0.135844   0.042036
    12  H    0.144812   0.032097
    13  H    0.173847  -0.052914
    14  H    0.251190   0.003909
 Sum of Mulliken charges =  -0.00000   1.00000
 Mulliken charges and spin densities with hydrogens summed into heavy atoms:
               1          2
     1  O   -0.112540   0.002992
     2  C   -0.000695   0.016910
     3  C    0.048776   0.037872
     4  C   -0.030403   0.016476
     5  C    0.094861   0.925750
 APT charges:
               1
     1  O   -0.696475
     2  C   -0.758918
     3  C   -0.559678
     4  C   -1.266166
     5  C   -0.163591
     6  H    0.377822
     7  H    0.351623
     8  H    0.560004
     9  H    0.322271
    10  H    0.321169
    11  H    0.357482
    12  H    0.350665
    13  H    0.341795
    14  H    0.461997
 Sum of APT charges =  -0.00000
 APT charges with hydrogens summed into heavy atoms:
               1
     1  O   -0.234478
     2  C   -0.029474
     3  C    0.148469
     4  C   -0.062722
     5  C    0.178204
 Electronic spatial extent (au):  <R**2>=            659.5015
 Charge=             -0.0000 electrons
 Dipole moment (field-independent basis, Debye):
    X=              1.7593    Y=             -0.2502    Z=              0.4594  Tot=              1.8354
 Quadrupole moment (field-independent basis, Debye-Ang):
   XX=            -39.4231   YY=            -30.1867   ZZ=            -33.4231
   XY=              1.5135   XZ=             -1.8186   YZ=             -0.3388
 Traceless Quadrupole moment (field-independent basis, Debye-Ang):
   XX=             -5.0788   YY=              4.1576   ZZ=              0.9212
   XY=              1.5135   XZ=             -1.8186   YZ=             -0.3388
 Octapole moment (field-independent basis, Debye-Ang**2):
  XXX=             13.7070  YYY=             -5.0257  ZZZ=              1.0100  XYY=             -9.6357
  XXY=             -1.6782  XXZ=              2.8287  XZZ=             -2.6631  YZZ=              0.4113
  YYZ=             -0.2089  XYZ=              2.1291
 Hexadecapole moment (field-independent basis, Debye-Ang**3):
 XXXX=           -776.1425 YYYY=           -103.2129 ZZZZ=            -63.0258 XXXY=             16.6520
 XXXZ=             -9.9067 YYYX=             12.5215 YYYZ=              0.6939 ZZZX=             -1.1365
 ZZZY=             -0.8873 XXYY=           -121.7025 XXZZ=           -129.3121 YYZZ=            -27.2609
 XXYZ=             -4.7393 YYXZ=             -2.5533 ZZXY=              0.4658
 N-N= 1.747246027845D+02 E-N=-8.922747880213D+02  KE= 2.318643342773D+02
  Exact polarizability:   0.000   0.000   0.000   0.000   0.000   0.000
 Approx polarizability:  63.343   0.675  64.672  -0.345  -0.305  58.585
                          Isotropic Fermi Contact Couplings
        Atom                 a.u.       MegaHertz       Gauss      10(-4) cm-1
     1  O(17)              0.00129      -0.78311      -0.27943      -0.26122
     2  C(13)             -0.03220     -36.20428     -12.91859     -12.07645
     3  C(13)             -0.03393     -38.14218     -13.61008     -12.72286
     4  C(13)              0.02043      22.96305       8.19379       7.65965
     5  C(13)              0.17254     193.96278      69.21074      64.69902
     6  H(1)               0.02478     110.76189      39.52260      36.94619
     7  H(1)               0.00590      26.37886       9.41263       8.79904
     8  H(1)               0.00014       0.62411       0.22270       0.20818
     9  H(1)              -0.00040      -1.80440      -0.64385      -0.60188
    10  H(1)              -0.00026      -1.16277      -0.41491      -0.38786
    11  H(1)               0.02222      99.32733      35.44246      33.13203
    12  H(1)               0.01903      85.07293      30.35614      28.37727
    13  H(1)              -0.01526     -68.19520     -24.33374     -22.74747
    14  H(1)              -0.00012      -0.53240      -0.18997      -0.17759
 --------------------------------------------------------
       Center         ----  Spin Dipole Couplings  ----
                      3XX-RR        3YY-RR        3ZZ-RR
 --------------------------------------------------------
     1   Atom        0.009396      0.001878     -0.011275
     2   Atom        0.001564     -0.004100      0.002536
     3   Atom        0.004502     -0.008536      0.004034
     4   Atom        0.020372     -0.008092     -0.012280
     5   Atom       -0.523922     -0.375281      0.899203
     6   Atom        0.005510     -0.001531     -0.003979
     7   Atom        0.000949      0.006079     -0.007028
     8   Atom        0.006569     -0.003268     -0.003301
     9   Atom        0.007940     -0.005651     -0.002288
    10   Atom        0.007579     -0.002645     -0.004935
    11   Atom        0.003646      0.005176     -0.008822
    12   Atom        0.002000     -0.000703     -0.001297
    13   Atom       -0.069028      0.061100      0.007928
    14   Atom        0.012822     -0.005882     -0.006939
 --------------------------------------------------------
                        XY            XZ            YZ
 --------------------------------------------------------
     1   Atom        0.004915      0.003701      0.000742
     2   Atom        0.006376     -0.000636     -0.006552
     3   Atom       -0.006345      0.005186     -0.002892
     4   Atom       -0.009697     -0.001105     -0.000518
     5   Atom       -0.056658      0.172467     -0.477837
     6   Atom        0.011007     -0.006555     -0.006282
     7   Atom        0.011560      0.004570      0.004056
     8   Atom        0.001018      0.000204     -0.000439
     9   Atom       -0.002079      0.006348     -0.002317
    10   Atom       -0.006148     -0.002933      0.001250
    11   Atom       -0.011219      0.001156     -0.002787
    12   Atom       -0.009939     -0.009564      0.008886
    13   Atom        0.000347      0.007301      0.028197
    14   Atom        0.008185     -0.001063     -0.000965
 --------------------------------------------------------


 ---------------------------------------------------------------------------------
              Anisotropic Spin Dipole Couplings in Principal Axis System
 ---------------------------------------------------------------------------------

       Atom             a.u.   MegaHertz   Gauss  10(-4) cm-1        Axes

              Baa    -0.0119     0.862     0.308     0.288 -0.1730  0.0087  0.9849
     1 O(17)  Bbb    -0.0005     0.034     0.012     0.011 -0.4197  0.9040 -0.0817
              Bcc     0.0124    -0.896    -0.320    -0.299  0.8910  0.4275  0.1528
 
              Baa    -0.0105    -1.404    -0.501    -0.468 -0.4143  0.8207  0.3935
     2 C(13)  Bbb     0.0014     0.186     0.066     0.062  0.7353  0.0471  0.6761
              Bcc     0.0091     1.217     0.434     0.406 -0.5363 -0.5695  0.6230
 
              Baa    -0.0112    -1.497    -0.534    -0.499  0.3594  0.9316  0.0546
     3 C(13)  Bbb    -0.0005    -0.067    -0.024    -0.022 -0.5882  0.1807  0.7883
              Bcc     0.0117     1.564     0.558     0.522  0.7245 -0.3155  0.6129
 
              Baa    -0.0127    -1.706    -0.609    -0.569  0.1537  0.4225  0.8932
     4 C(13)  Bbb    -0.0107    -1.432    -0.511    -0.478  0.2519  0.8574 -0.4489
              Bcc     0.0234     3.138     1.120     1.047  0.9555 -0.2939 -0.0253
 
              Baa    -0.5445   -73.072   -26.074   -24.374  0.9907 -0.0378 -0.1309
     5 C(13)  Bbb    -0.5345   -71.721   -25.592   -23.924  0.0768  0.9486  0.3069
              Bcc     1.0790   144.794    51.666    48.298  0.1125 -0.3141  0.9427
 
              Baa    -0.0101    -5.393    -1.924    -1.799 -0.4082  0.8191  0.4031
     6 H(1)   Bbb    -0.0072    -3.865    -1.379    -1.289  0.5436 -0.1367  0.8282
              Bcc     0.0174     9.258     3.303     3.088  0.7334  0.5571 -0.3895
 
              Baa    -0.0094    -5.036    -1.797    -1.680 -0.6308  0.2808  0.7234
     7 H(1)   Bbb    -0.0074    -3.968    -1.416    -1.324  0.4737 -0.5989  0.6456
              Bcc     0.0169     9.004     3.213     3.003  0.6146  0.7499  0.2447
 
              Baa    -0.0038    -2.026    -0.723    -0.676 -0.0849  0.7281  0.6802
     8 H(1)   Bbb    -0.0029    -1.536    -0.548    -0.512  0.0573 -0.6780  0.7328
              Bcc     0.0067     3.562     1.271     1.188  0.9947  0.1012  0.0159
 
              Baa    -0.0070    -3.721    -1.328    -1.241 -0.1348  0.8035  0.5798
     9 H(1)   Bbb    -0.0045    -2.395    -0.854    -0.799 -0.4471 -0.5715  0.6881
              Bcc     0.0115     6.116     2.182     2.040  0.8843 -0.1665  0.4363
 
              Baa    -0.0057    -3.021    -1.078    -1.008  0.4071  0.5179  0.7524
    10 H(1)   Bbb    -0.0054    -2.900    -1.035    -0.967  0.2115  0.7479 -0.6292
              Bcc     0.0111     5.920     2.113     1.975  0.8885 -0.4153 -0.1950
 
              Baa    -0.0096    -5.096    -1.818    -1.700  0.1928  0.3223  0.9268
    11 H(1)   Bbb    -0.0064    -3.429    -1.224    -1.144  0.7128  0.6032 -0.3580
              Bcc     0.0160     8.525     3.042     2.844 -0.6744  0.7296 -0.1134
 
              Baa    -0.0099    -5.278    -1.883    -1.761  0.0290  0.7109 -0.7027
    12 H(1)   Bbb    -0.0092    -4.886    -1.743    -1.630  0.7769  0.4263  0.4633
              Bcc     0.0190    10.164     3.627     3.390  0.6290 -0.5594 -0.5399
 
              Baa    -0.0698   -37.219   -13.281   -12.415  0.9948  0.0190 -0.1004
    13 H(1)   Bbb    -0.0036    -1.912    -0.682    -0.638  0.0996 -0.3981  0.9119
              Bcc     0.0733    39.131    13.963    13.053  0.0226  0.9172  0.3979
 
              Baa    -0.0091    -4.852    -1.731    -1.618 -0.3286  0.9117  0.2466
    14 H(1)   Bbb    -0.0069    -3.672    -1.310    -1.225  0.1399 -0.2112  0.9674
              Bcc     0.0160     8.524     3.041     2.843  0.9341  0.3523 -0.0582
 

 ---------------------------------------------------------------------------------

 No NMR shielding tensors so no spin-rotation constants.
 Leave Link  601 at Tue Apr  9 01:08:35 2019, MaxMem=   671088640 cpu:               6.7 elap:               0.4
 (Enter /shared/centos7/gaussian/g16/l701.exe)
 SCFChk:  SCF convergence  3.75D-09 required  1.00D-08
 ... and contract with generalized density number  0.
 Compute integral second derivatives.
 Entering OneElI...
 Calculate overlap and kinetic energy integrals
    NBasis = 276  MinDer = 2  MaxDer = 2
 Requested accuracy = 0.1000D-12
 PrmmSu-InSpLW:  IPartL=    0 NPrtUS=   20 NPrtUL=    1 DoSpLW=F IThBeg=    0 IThEnd=   19 NThAct=   20.
 PrsmSu:  NPrtUS=  20 ThrOK=T IAlg=1 NPAlg=1 LenDen=           0 ISkipM=0 DoSpLW=F IThBeg=    0 IThEnd=   19.
 Prism:   IPart=     0 DynPar=F LinDyn=F Incr=           1.
 PRISM was handed    33458851 working-precision words and  3626 shell-pairs
 PRISM was handed    33458851 working-precision words and  3626 shell-pairs
 PRISM was handed    33458851 working-precision words and  3626 shell-pairs
 PRISM was handed    33458851 working-precision words and  3626 shell-pairs
 PRISM was handed    33458851 working-precision words and  3626 shell-pairs
 PRISM was handed    33458851 working-precision words and  3626 shell-pairs
 PRISM was handed    33458851 working-precision words and  3626 shell-pairs
 PRISM was handed    33458851 working-precision words and  3626 shell-pairs
 PRISM was handed    33458851 working-precision words and  3626 shell-pairs
 PRISM was handed    33458851 working-precision words and  3626 shell-pairs
 PRISM was handed    33458851 working-precision words and  3626 shell-pairs
 PRISM was handed    33458851 working-precision words and  3626 shell-pairs
 PRISM was handed    33458851 working-precision words and  3626 shell-pairs
 PRISM was handed    33458851 working-precision words and  3626 shell-pairs
 PRISM was handed    33458851 working-precision words and  3626 shell-pairs
 PRISM was handed    33458851 working-precision words and  3626 shell-pairs
 PRISM was handed    33458851 working-precision words and  3626 shell-pairs
 PRISM was handed    33458851 working-precision words and  3626 shell-pairs
 PRISM was handed    33458851 working-precision words and  3626 shell-pairs
 PRISM was handed    33458851 working-precision words and  3626 shell-pairs
 IPart= 10 NShTot=         177 NBatch=          34 AvBLen=         5.2
 IPart=  3 NShTot=         199 NBatch=          45 AvBLen=         4.4
 IPart=  2 NShTot=         203 NBatch=          48 AvBLen=         4.2
 IPart=  5 NShTot=         188 NBatch=          37 AvBLen=         5.1
 IPart=  6 NShTot=         187 NBatch=          37 AvBLen=         5.1
 IPart=  4 NShTot=         194 NBatch=          42 AvBLen=         4.6
 IPart=  7 NShTot=         183 NBatch=          37 AvBLen=         4.9
 IPart= 12 NShTot=         173 NBatch=          31 AvBLen=         5.6
 IPart=  8 NShTot=         182 NBatch=          36 AvBLen=         5.1
 IPart=  1 NShTot=         209 NBatch=          52 AvBLen=         4.0
 IPart= 18 NShTot=         163 NBatch=          28 AvBLen=         5.8
 IPart= 19 NShTot=         161 NBatch=          28 AvBLen=         5.8
 IPart= 15 NShTot=         167 NBatch=          29 AvBLen=         5.8
 IPart= 17 NShTot=         164 NBatch=          29 AvBLen=         5.7
 IPart= 11 NShTot=         176 NBatch=          34 AvBLen=         5.2
 IPart= 16 NShTot=         165 NBatch=          29 AvBLen=         5.7
 IPart= 14 NShTot=         169 NBatch=          30 AvBLen=         5.6
 IPart= 13 NShTot=         172 NBatch=          31 AvBLen=         5.5
 IPart=  9 NShTot=         179 NBatch=          34 AvBLen=         5.3
 IPart=  0 NShTot=         215 NBatch=          56 AvBLen=         3.8
 PrSmSu:  NxtVal=             21.
 Entering OneElI...
 Calculate potential energy integrals
    NBasis = 276  MinDer = 2  MaxDer = 2
 Requested accuracy = 0.1000D-12
 PrmmSu-InSpLW:  IPartL=    0 NPrtUS=   20 NPrtUL=    1 DoSpLW=F IThBeg=    0 IThEnd=   19 NThAct=   20.
 PrsmSu:  NPrtUS=  20 ThrOK=T IAlg=1 NPAlg=1 LenDen=           0 ISkipM=0 DoSpLW=F IThBeg=    0 IThEnd=   19.
 Prism:   IPart=     0 DynPar=F LinDyn=F Incr=          23.
 PRISM was handed    33471236 working-precision words and  3423 shell-pairs
 PRISM was handed    33471236 working-precision words and  3423 shell-pairs
 PRISM was handed    33471236 working-precision words and  3423 shell-pairs
 PRISM was handed    33471236 working-precision words and  3423 shell-pairs
 PRISM was handed    33471236 working-precision words and  3423 shell-pairs
 PRISM was handed    33471236 working-precision words and  3423 shell-pairs
 PRISM was handed    33471236 working-precision words and  3423 shell-pairs
 PRISM was handed    33471236 working-precision words and  3423 shell-pairs
 PRISM was handed    33471236 working-precision words and  3423 shell-pairs
 PRISM was handed    33471236 working-precision words and  3423 shell-pairs
 PRISM was handed    33471236 working-precision words and  3423 shell-pairs
 PRISM was handed    33471236 working-precision words and  3423 shell-pairs
 PRISM was handed    33471236 working-precision words and  3423 shell-pairs
 PRISM was handed    33471236 working-precision words and  3423 shell-pairs
 PRISM was handed    33471236 working-precision words and  3423 shell-pairs
 PRISM was handed    33471236 working-precision words and  3423 shell-pairs
 PRISM was handed    33471236 working-precision words and  3423 shell-pairs
 PRISM was handed    33471236 working-precision words and  3423 shell-pairs
 PRISM was handed    33471236 working-precision words and  3423 shell-pairs
 PRISM was handed    33471236 working-precision words and  3423 shell-pairs
 IPart= 19 NShTot=        2086 NBatch=         149 AvBLen=        14.0
 IPart= 18 NShTot=        2128 NBatch=         152 AvBLen=        14.0
 IPart= 17 NShTot=        2142 NBatch=         153 AvBLen=        14.0
 IPart= 15 NShTot=        2212 NBatch=         158 AvBLen=        14.0
 IPart= 14 NShTot=        2212 NBatch=         158 AvBLen=        14.0
 IPart= 16 NShTot=        2198 NBatch=         157 AvBLen=        14.0
 IPart= 11 NShTot=        2296 NBatch=         164 AvBLen=        14.0
 IPart= 13 NShTot=        2254 NBatch=         161 AvBLen=        14.0
 IPart=  9 NShTot=        2352 NBatch=         168 AvBLen=        14.0
 IPart= 10 NShTot=        2324 NBatch=         166 AvBLen=        14.0
 IPart= 12 NShTot=        2296 NBatch=         164 AvBLen=        14.0
 IPart=  8 NShTot=        2422 NBatch=         173 AvBLen=        14.0
 IPart=  6 NShTot=        2478 NBatch=         177 AvBLen=        14.0
 IPart=  7 NShTot=        2436 NBatch=         174 AvBLen=        14.0
 IPart=  3 NShTot=        2688 NBatch=         192 AvBLen=        14.0
 IPart=  5 NShTot=        2506 NBatch=         179 AvBLen=        14.0
 IPart=  2 NShTot=        2716 NBatch=         194 AvBLen=        14.0
 IPart=  0 NShTot=        2800 NBatch=         200 AvBLen=        14.0
 IPart=  4 NShTot=        2604 NBatch=         186 AvBLen=        14.0
 IPart=  1 NShTot=        2772 NBatch=         198 AvBLen=        14.0
 PrSmSu:  NxtVal=            461.
 Polarizability after L701:
                1             2             3 
      1  0.000000D+00
      2  0.000000D+00  0.000000D+00
      3  0.000000D+00  0.000000D+00  0.000000D+00
 Dipole Derivatives after L701:
                 1             2             3             4             5 
      1  -0.673011D+00 -0.985813D+00  0.256469D-01 -0.145220D+00 -0.962563D+00
      2   0.133723D+00 -0.926086D+00  0.154513D+00 -0.999602D-01 -0.112371D+01
      3  -0.172039D-01  0.140704D+00 -0.490328D+00 -0.667113D-01  0.789526D-02
                 6             7             8             9            10 
      1   0.218196D+00 -0.213588D-02  0.103956D+01  0.437715D+00 -0.190101D+01
      2   0.345658D-01  0.714731D-02 -0.906882D+00 -0.208348D-01 -0.656130D-01
      3  -0.100783D+01  0.433148D-01 -0.377477D-01 -0.770016D+00  0.526739D-01
                11            12            13            14            15 
      1   0.649799D+00 -0.257558D+00 -0.487207D-01 -0.105971D+00 -0.430782D-01
      2  -0.898265D+00 -0.234568D-01  0.746456D-02 -0.342406D+00 -0.199038D+00
      3  -0.222885D-01 -0.999225D+00  0.182529D-01 -0.236044D+00 -0.996468D-01
                16            17            18            19            20 
      1   0.259456D+00  0.237476D+00 -0.516994D+00  0.160433D+00  0.411480D+00
      2   0.586923D-01  0.296294D+00 -0.344537D+00 -0.981438D-04  0.572060D+00
      3  -0.623896D-01 -0.173000D+00  0.577715D+00  0.159963D-02  0.179842D+00
                21            22            23            24            25 
      1   0.313608D+00  0.138343D+01  0.767889D+00 -0.264512D+00  0.105257D+00
      2   0.343575D+00  0.795838D-01  0.182324D+00 -0.245213D-01 -0.869800D-02
      3   0.322376D+00 -0.150348D-01 -0.183323D-01  0.114258D+00 -0.229224D-01
                26            27            28            29            30 
      1  -0.333765D+00  0.972676D+00  0.130821D+00 -0.835448D+00 -0.537874D+00
      2   0.213571D+00 -0.277907D+00 -0.192222D-02  0.571115D+00  0.311189D+00
      3  -0.151746D+00  0.647986D+00  0.112924D-01  0.193255D+00  0.261570D+00
                31            32            33            34            35 
      1   0.196589D+00 -0.515458D+00  0.360015D+00  0.178657D+00 -0.237570D+00
      2  -0.278703D-01  0.571913D+00 -0.280784D+00  0.557921D-02  0.290638D+00
      3   0.428434D-01 -0.160322D+00  0.303943D+00 -0.178516D-01  0.147298D+00
                36            37            38            39            40 
      1  -0.531536D+00  0.134217D+00  0.449337D-01  0.117297D-01  0.221234D+00
      2   0.281167D+00 -0.156265D-02  0.678788D+00  0.207904D+00 -0.864659D-01
      3   0.582701D+00 -0.605332D-02  0.275882D+00  0.212381D+00  0.381898D-01
                41            42 
      1   0.825445D+00 -0.188035D+00
      2   0.820645D+00 -0.161835D+00
      3  -0.145396D+00  0.344112D+00
 Hessian after L701:
                1             2             3             4             5 
      1  0.560659D+01
      2 -0.265748D+01  0.572888D+01
      3 -0.682747D+00  0.724381D+00  0.112792D+02
      4  0.325778D+00  0.114567D+00  0.658258D-01  0.101886D+02
      5  0.106890D+00 -0.144380D+00  0.211495D-02 -0.122431D+00  0.128018D+02
      6  0.851393D-01  0.875360D-02 -0.168296D+00 -0.319740D+00  0.104129D+00
      7 -0.206846D+01  0.336993D+01  0.477490D+00  0.102057D+00 -0.101091D+00
      8  0.337054D+01 -0.397484D+01  0.415621D+00  0.574620D-01 -0.116789D+00
      9  0.438985D+00  0.406208D+00 -0.660465D+01  0.736946D-01  0.173180D-01
     10  0.831264D-01 -0.218501D-01 -0.556683D-02 -0.208737D+01 -0.191169D+01
     11  0.162875D-01 -0.713404D-01  0.560439D-03 -0.194688D+01 -0.349998D+01
     12 -0.124709D-01  0.649362D-03 -0.677379D-01  0.652784D+00 -0.484703D+00
     13  0.724393D+00 -0.570148D-01 -0.861367D-01 -0.134280D+01  0.178497D+01
     14  0.111110D+00 -0.374696D+00  0.643260D-02  0.178328D+01 -0.403466D+01
     15 -0.940257D-01 -0.325722D-02 -0.325182D+00 -0.420475D-01 -0.120690D-01
     16  0.136950D-01  0.557886D-02 -0.746712D-02 -0.359149D+01  0.199345D+00
     17  0.175706D-01 -0.101206D-01 -0.429338D-02  0.179575D+00 -0.311855D+01
     18 -0.271177D-01 -0.250800D-02 -0.366909D-02 -0.342998D+00 -0.984018D+00
     19  0.281688D-01  0.176791D-01  0.672387D-02 -0.367074D+01  0.481364D-01
     20  0.423869D-01 -0.502373D-02  0.717923D-02 -0.349711D-01 -0.188755D+01
     21  0.226246D-01  0.624867D-02 -0.124866D-01 -0.305483D-01  0.129337D+01
     22  0.209160D-01 -0.346286D-02  0.355210D-03 -0.271670D-01  0.172728D-01
     23  0.901100D-02 -0.721863D-02 -0.201485D-04  0.484688D-01  0.676011D-01
     24 -0.247989D-02  0.681359D-03 -0.541795D-02 -0.259274D-01 -0.101512D-01
     25  0.137594D-01 -0.442972D-02  0.562092D-02  0.714433D-02  0.357942D-01
     26 -0.642667D-02 -0.576501D-02 -0.167352D-02 -0.166002D-02 -0.306892D-01
     27  0.225948D-01 -0.833637D-02 -0.139048D-02  0.259477D-01  0.785944D-02
     28  0.156460D-01 -0.770168D-02 -0.209648D-02  0.136714D-01  0.555395D-01
     29 -0.191024D-01  0.907012D-03  0.199356D-02 -0.107776D-01 -0.219113D-01
     30 -0.120534D-01  0.646016D-02 -0.727946D-02 -0.132367D-01  0.329865D-01
     31 -0.270717D-01 -0.134774D+00 -0.303034D-01  0.689107D-01 -0.301816D-01
     32 -0.112962D+00 -0.279155D-02 -0.163762D+00 -0.612436D-01 -0.642702D-02
     33 -0.523983D-01 -0.149795D+00  0.182034D+00  0.254777D-01 -0.155082D-01
     34 -0.115235D+00 -0.742708D-01  0.425591D-01  0.425478D-01 -0.343970D-01
     35 -0.589482D-01  0.263716D-01  0.174216D+00 -0.381896D-01 -0.186508D-01
     36  0.803438D-01  0.168551D+00  0.392985D+00 -0.633423D-01  0.332561D-01
     37  0.721884D-01 -0.472705D-01 -0.821162D-02 -0.321641D-01 -0.583946D-01
     38 -0.111684D+00 -0.841705D-02  0.188906D-01  0.380573D-02  0.910190D-02
     39 -0.359953D-01  0.232706D-01 -0.607131D-01  0.285517D-02  0.189099D-01
     40 -0.469349D+01 -0.499503D+00  0.223954D+00  0.305087D-02  0.102465D-01
     41 -0.707199D+00 -0.115157D+01 -0.118164D+01  0.289967D-01  0.104917D-02
     42  0.269601D+00 -0.118131D+01 -0.459736D+01 -0.874531D-02 -0.349483D-02
                6             7             8             9            10 
[...]
 ! A20   A(2,5,3)              121.4076         -DE/DX =    0.0                 !
 ! A21   A(2,5,13)             119.1068         -DE/DX =    0.0                 !
 ! A22   A(3,5,13)             117.0184         -DE/DX =    0.0                 !
 ! D1    D(14,1,3,5)            51.008          -DE/DX =    0.0                 !
 ! D2    D(14,1,3,11)          172.3877         -DE/DX =    0.0                 !
 ! D3    D(14,1,3,12)          -72.9293         -DE/DX =    0.0                 !
 ! D4    D(5,2,4,8)            179.4797         -DE/DX =    0.0                 !
 ! D5    D(5,2,4,9)            -60.0554         -DE/DX =    0.0                 !
 ! D6    D(5,2,4,10)            59.3491         -DE/DX =    0.0                 !
 ! D7    D(6,2,4,8)             56.966          -DE/DX =    0.0                 !
 ! D8    D(6,2,4,9)            177.431          -DE/DX =    0.0                 !
 ! D9    D(6,2,4,10)           -63.1645         -DE/DX =    0.0                 !
 ! D10   D(7,2,4,8)            -57.8809         -DE/DX =    0.0                 !
 ! D11   D(7,2,4,9)             62.584          -DE/DX =    0.0                 !
 ! D12   D(7,2,4,10)          -178.0115         -DE/DX =    0.0                 !
 ! D13   D(4,2,5,3)            167.6463         -DE/DX =    0.0                 !
 ! D14   D(4,2,5,13)           -30.706          -DE/DX =    0.0                 !
 ! D15   D(6,2,5,3)            -70.3999         -DE/DX =    0.0                 !
 ! D16   D(6,2,5,13)            91.2478         -DE/DX =    0.0                 !
 ! D17   D(7,2,5,3)             44.5944         -DE/DX =    0.0                 !
 ! D18   D(7,2,5,13)          -153.7579         -DE/DX =    0.0                 !
 ! D19   D(1,3,5,2)           -159.7265         -DE/DX =    0.0                 !
 ! D20   D(1,3,5,13)            38.2603         -DE/DX =    0.0                 !
 ! D21   D(11,3,5,2)            82.3826         -DE/DX =    0.0                 !
 ! D22   D(11,3,5,13)          -79.6306         -DE/DX =    0.0                 !
 ! D23   D(12,3,5,2)           -35.1097         -DE/DX =    0.0                 !
 ! D24   D(12,3,5,13)          162.8771         -DE/DX =    0.0                 !
 --------------------------------------------------------------------------------
 GradGradGradGradGradGradGradGradGradGradGradGradGradGradGradGradGradGrad

 Leave Link  103 at Tue Apr  9 01:23:26 2019, MaxMem=   671088640 cpu:               0.3 elap:               0.0
 (Enter /shared/centos7/gaussian/g16/l9999.exe)

 ----------------------------------------------------------------------

 Electric dipole moment (input orientation):
 (Debye = 10**-18 statcoulomb cm , SI units = C m)
                  (au)            (Debye)         (10**-30 SI)
   Tot        0.754294D+00      0.191723D+01      0.639518D+01
   x         -0.743775D+00     -0.189049D+01     -0.630599D+01
   y          0.984586D-01      0.250257D+00      0.834767D+00
   z          0.778793D-01      0.197949D+00      0.660288D+00

 Dipole polarizability, Alpha (input orientation).
 (esu units = cm**3 , SI units = C**2 m**2 J**-1)
 Alpha(0;0):
               (au)            (10**-24 esu)      (10**-40 SI)
   iso        0.550677D+02      0.816020D+01      0.907944D+01
   aniso      0.153788D+02      0.227890D+01      0.253562D+01
   xx         0.608675D+02      0.901964D+01      0.100357D+02
   yx        -0.167085D+01     -0.247595D+00     -0.275486D+00
   yy         0.530566D+02      0.786218D+01      0.874785D+01
   zx        -0.706415D+01     -0.104680D+01     -0.116472D+01
   zy        -0.351732D+00     -0.521212D-01     -0.579927D-01
   zz         0.512791D+02      0.759878D+01      0.845478D+01

 ----------------------------------------------------------------------

 Dipole orientation:
     8         -3.82754625         -0.64388645         -6.51222123
     6         -1.66683255          0.75198657          0.16293117
     6         -3.21882478          0.98368332         -4.47733987
     6         -0.58009576         -1.10821948          2.08091422
     6         -1.77312433         -0.29785136         -2.44207172
     1         -0.52382419          2.48734980          0.18255250
     1         -3.56145820          1.34651114          0.74192774
     1         -0.50819686         -0.28606594          3.96582396
     1         -1.72674396         -2.81683536          2.16580528
     1          1.33359720         -1.65924286          1.55301892
     1         -2.11521706          2.51905713         -5.32574816
     1         -4.92557237          1.85685936         -3.68489081
     1         -0.36552523         -1.67003131         -3.02218701
     1         -4.60129501         -2.13535657         -5.82817924

 Electric dipole moment (dipole orientation):
 (Debye = 10**-18 statcoulomb cm , SI units = C m)
                  (au)            (Debye)         (10**-30 SI)
   Tot        0.754294D+00      0.191723D+01      0.639518D+01
   x          0.000000D+00      0.000000D+00      0.000000D+00
   y          0.000000D+00      0.000000D+00      0.000000D+00
   z          0.754294D+00      0.191723D+01      0.639518D+01

 Dipole polarizability, Alpha (dipole orientation).
 (esu units = cm**3 , SI units = C**2 m**2 J**-1)
 Alpha(0;0):
               (au)            (10**-24 esu)      (10**-40 SI)
   iso        0.550677D+02      0.816020D+01      0.907944D+01
   aniso      0.153788D+02      0.227890D+01      0.253562D+01
   xx         0.496576D+02      0.735850D+01      0.818744D+01
   yx        -0.920366D+00     -0.136384D+00     -0.151748D+00
   yy         0.530543D+02      0.786184D+01      0.874748D+01
   zx         0.580360D+01      0.860005D+00      0.956885D+00
   zy        -0.302017D+00     -0.447543D-01     -0.497959D-01
   zz         0.624912D+02      0.926024D+01      0.103034D+02

 ----------------------------------------------------------------------

 Test job not archived.
 1\1\GINC-C0210\Freq\UM062X\6-311+G(2df,2p)\C4H9O1(2)\UNDERKOFFLER.C\09
 -Apr-2019\0\\#P Geom=AllCheck Guess=TCheck SCRF=Check Test GenChk UM06
 2X/6-311+G(2df,2p) Freq\\Gaussian input prepared by ASE\\0,2\O,3.11790
 28181,-1.0215913102,-2.3085310302\C,-0.1432839457,0.3001385994,-0.9127
 890057\C,2.1948211101,0.0045176981,-1.9921459303\C,-1.1906675943,-0.46
 94637776,-0.1124495595\C,1.1445096378,-0.4333316929,-1.0380633441\H,0.
 0254038685,1.2761916146,-0.4351668465\H,-0.527698167,0.5329148837,-1.9
 10830949\H,-2.1189352794,0.0935189395,-0.0287375802\H,-1.4124669986,-1
 .4245869277,-0.5881083353\H,-0.8290346618,-0.6748688249,0.8953288428\H
 ,2.8016229,0.8139846345,-1.5686948786\H,1.7280313607,0.4088156289,-2.8
 997389177\H,1.450908362,-1.101414654,-0.240495867\H,2.6202954133,-1.79
 91733323,-2.5718756243\\Version=EM64L-G16RevA.03\State=2-A\HF=-232.967
 0211\S2=0.75507\S2-1=0.\S2A=0.750021\RMSD=5.281e-09\RMSF=9.770e-07\Zer
 oPoint=0.1233516\Thermal=0.1304733\Dipole=-0.7437748,0.0984586,0.07787
 93\DipoleDeriv=-0.6729462,0.2802773,0.1880734,0.3495784,-0.642708,-0.0
 707896,0.2063548,-0.0589673,-0.5703841,0.0733299,0.0090462,0.0261744,0
 .0720422,0.0907408,0.028202,0.0498054,0.041203,0.086814,0.5198098,-0.1
 951314,-0.0879176,-0.2774276,0.5425636,0.1287112,-0.1401007,0.08878,0.
 3847676,0.0413545,-0.0170625,0.0308879,0.0183992,0.0671552,-0.0028835,
 0.0059016,0.0175214,0.0805806,0.0170778,-0.0709957,-0.0343082,-0.16251
 95,-0.1324728,-0.1159509,0.0322651,-0.1760603,-0.086388,-0.0210441,-0.
 0331839,0.0180046,-0.0029124,-0.128304,-0.0652651,0.0190856,-0.080495,
 0.0244054,-0.0088415,0.0200141,-0.0168226,0.0021336,0.0408435,0.042099
 6,-0.0399406,0.0696091,-0.1228808,-0.1197381,0.0589549,0.0505926,0.092
 9181,0.0072025,-0.0011792,0.0326252,0.0114356,0.0531769,0.045614,-0.01
 95434,0.01117,-0.0728988,-0.0878445,-0.0422861,-0.0127302,-0.0839414,0
 .0100678,0.0207164,0.0084538,-0.0830317,-0.0179516,0.04625,0.0382504,-
 0.02412,0.0471528,-0.1041998,-0.0631906,-0.0788847,0.0124609,-0.045923
 7,-0.0645533,-0.0464581,-0.0063699,-0.065009,0.0250075,-0.0356069,0.08
 79468,-0.0687256,0.0598243,-0.0216994,0.0393896,-0.0670785,0.0881999,-
 0.0935434,-0.0072161,0.0501638,0.0149452,0.0382776,0.0503675,0.085334,
 -0.0004449,0.0990092,-0.0192707,0.2106812,-0.1000553,-0.0615031,-0.053
 5398,0.2324591,-0.0171742,-0.0552529,0.0015618,0.3318471\Polar=60.8675
 158,-1.6708511,53.0565905,-7.0641467,-0.3517315,51.2790889\Quadrupole=
 -3.7593193,2.5242513,1.235068,0.5004948,1.3579706,0.6134752\PG=C01 [X(
 C4H9O1)]\NImag=0\\0.37858278,0.09046225,0.56652477,0.03263053,0.166068
 26,0.10405547,-0.00118623,-0.00063673,0.00101551,0.48475744,-0.0030013
 9,0.00091695,0.00241683,-0.00688776,0.49831837,0.00542660,-0.00101109,
 -0.00264795,0.02449532,-0.01164191,0.54286083,-0.15144079,0.09662478,0
 .02336106,-0.01534044,-0.00616289,0.01169151,0.50872020,0.05613104,-0.
 17137191,-0.02999859,0.01322189,0.01189815,-0.01067351,0.01276971,0.52
 410123,0.01309633,-0.03145859,-0.07243513,0.00381948,-0.00061771,0.001
 65379,0.04117094,-0.01482156,0.53309045,-0.00094140,0.00006416,0.00101
 450,-0.13320335,-0.04379535,0.03957649,-0.00180326,0.00262577,-0.00167
 543,0.53823390,0.00187394,-0.00039321,-0.00116844,-0.04288589,-0.11019
 335,0.03623202,0.00192894,-0.00267294,0.00077372,-0.03952970,0.5522504
 4,-0.00023249,0.00004765,0.00055588,0.04115327,0.03574691,-0.11176353,
 0.00018047,0.00097422,-0.00026012,0.03451149,0.02769805,0.54629772,-0.
 03370041,0.00392502,0.02521765,-0.18791823,0.07128850,0.02015453,-0.14
 545857,-0.02261386,0.06566285,-0.02839029,0.01150181,0.00662209,0.4829
 6523,0.02822550,0.00202168,-0.02120897,0.07430944,-0.10392309,0.010201
 91,-0.02941122,-0.08791846,0.05094228,-0.01331954,0.01005276,-0.000271
 13,-0.12667216,0.35048762,0.01068274,-0.00081786,-0.00221017,0.0145484
 7,0.01420988,-0.07555427,0.07132934,0.04921896,-0.13788912,0.02057691,
 -0.01137602,-0.00323398,-0.07386804,-0.21659543,0.42113495,-0.00058890
 ,-0.00037984,0.00005661,-0.04813142,-0.02751028,-0.01420895,0.00063937
 ,-0.00094768,-0.00123893,-0.00525740,-0.02247364,-0.00987373,0.0001346
 7,0.02723789,0.01249837,0.05785446,0.00077669,0.00024710,-0.00024591,-
 0.04056853,-0.22948378,-0.09511482,-0.00036807,-0.00018854,0.00084287,
 -0.00443817,-0.01556480,-0.00699003,0.00787584,-0.01715991,-0.00657912
 ,0.03670371,0.25691719,0.00026361,0.00012323,-0.00010527,-0.02044505,-
 0.09456729,-0.09245003,0.00026623,0.00029184,0.00073301,0.00446412,0.0
 1746182,0.00744465,0.00323414,-0.00207304,0.00022959,0.01664134,0.1047
 0595,0.10032301,0.00023858,-0.00056129,0.00076908,-0.08049647,0.016704
 91,-0.08405490,0.00071499,0.00085351,-0.00207537,0.00823186,-0.0046806
 1,0.02324071,-0.01089038,0.00975052,-0.02434398,-0.00171528,0.00014868
 ,-0.00560296,0.08932755,-0.00028423,0.00016068,-0.00031172,0.01572907,
 -0.05330434,0.04676830,-0.00097898,-0.00033831,0.00019476,0.00593795,-
 0.00366113,0.01567091,0.00979502,-0.00815130,0.01596806,-0.01059291,0.
 00486208,-0.02676954,-0.02125818,0.06127502,0.00009958,-0.00030462,0.0
 0033851,-0.08072979,0.04629363,-0.25847301,0.00085793,0.00032644,0.000
 28618,-0.00466191,0.00288521,-0.01501085,-0.00096429,0.00172306,0.0039
 1854,-0.00597050,0.00162101,-0.01540931,0.08873092,-0.05225509,0.28313
 778,-0.00065924,0.00020086,0.00047318,-0.01745885,0.01185529,0.0001225
 1,-0.00013216,0.00078033,-0.00068788,-0.24214815,0.12046796,0.01582419
 ,-0.00216144,-0.00335007,0.00358110,0.00045343,-0.00004644,-0.00075753
 ,0.00079679,0.00017101,0.00020654,0.26311170,-0.00040676,0.00009908,0.
 00029911,-0.01714507,0.01003390,0.00069135,-0.00046893,0.00092509,-0.0
 0007098,0.12234709,-0.12337409,-0.01048367,-0.00189069,-0.00185635,0.0
 0251849,0.00054440,0.00073084,-0.00073853,0.00073833,0.00054857,-0.000
 46308,-0.13119983,0.13064983,0.00041059,-0.00007460,-0.00031396,0.0152
 2765,-0.00973192,-0.00158236,0.00054054,-0.00062802,0.00061884,0.01525
 057,-0.01012077,-0.04864970,0.00177430,0.00258570,-0.00194413,-0.00088
 602,-0.00014284,0.00054567,-0.00038385,-0.00069056,0.00012464,-0.01948
 713,0.00956534,0.04911342,0.00003535,0.00011414,-0.00001328,-0.0061475
 2,-0.02050421,-0.01013925,-0.00006127,0.00001467,0.00010568,-0.0577795
 2,-0.04437229,-0.02412232,0.00171860,-0.00066841,-0.00052506,-0.002918
 54,-0.00225105,0.00280859,0.00082337,0.00086942,-0.00017416,0.00692180
 ,0.02418475,0.01323683,0.06063808,-0.00018305,0.00012913,0.00014173,-0
 .00398469,-0.01427145,-0.00645723,0.00009398,0.00006328,-0.00005058,-0
 .04527208,-0.25158156,-0.10506381,0.00115474,0.00060228,-0.00025440,-0
 .00245793,-0.00065963,0.00241567,0.00054161,0.00005360,0.00015171,-0.0
 0363335,-0.01400631,-0.00716765,0.05260453,0.27317906,-0.00009266,0.00
 001440,0.00000093,0.00478679,0.01760177,0.00828388,-0.00004656,0.00008
 725,-0.00007057,-0.02476566,-0.10596196,-0.10161046,-0.00109540,0.0001
 0438,0.00052544,0.00331056,0.00229238,-0.00120571,-0.00089919,-0.00021
 246,0.00093529,-0.00015162,-0.00042847,-0.00162318,0.02390513,0.113561
 17,0.10752976,-0.00000101,0.00009680,-0.00016681,0.00726042,-0.0044287
 2,0.02358610,-0.00001582,-0.00013109,0.00036268,-0.07877161,0.01752533
 ,-0.08617363,0.00195785,-0.00077394,0.00039308,0.00096261,0.00077730,-
 0.00075703,-0.00309747,-0.00240881,0.00283903,-0.00895614,0.00348215,-
 0.02584628,-0.00308499,0.00143580,-0.00477818,0.08400394,-0.00010195,0
 .00005022,0.00000609,0.00568499,-0.00421370,0.01749726,0.00001449,-0.0
 0010648,0.00002069,0.01689286,-0.05607466,0.04325333,0.00078863,0.0001
 6562,-0.00094285,0.00088996,0.00021021,-0.00017372,-0.00292043,-0.0012
 0077,0.00178066,0.00515070,-0.00363912,0.01643043,-0.01021205,0.006520
 94,-0.02686039,-0.01612332,0.05792250,0.00019671,-0.00012969,0.0000212
 0,-0.00497648,0.00339613,-0.01644935,0.00021753,-0.00014016,0.00017625
 ,-0.08489796,0.04374991,-0.27489677,-0.00150870,0.00031650,0.00055609,
 0.00001494,0.00004146,0.00080891,0.00290943,0.00189018,-0.00015295,0.0
 0088171,-0.00062099,0.00361773,-0.00468581,0.00281838,-0.01276607,0.09
 115753,-0.05075935,0.29891369,0.01113671,0.02554493,0.01136659,0.00114
 362,0.00022387,0.00034041,-0.12677752,-0.11183899,-0.06532611,-0.00016
 299,0.00031445,0.00030748,-0.01639682,-0.01740731,-0.00134925,-0.00086
 756,0.00082831,0.00037209,-0.00008359,-0.00019404,-0.00001563,-0.00012
 353,0.00005543,0.00008447,0.00016945,0.00010154,-0.00008066,0.00004118
 ,-0.00002806,0.00000905,0.14062994,-0.00808225,-0.03256755,-0.01448577
 ,-0.00051150,-0.00126835,0.00040083,-0.09496188,-0.16743946,-0.0699499
 6,-0.00031166,0.00030455,0.00010014,-0.01090067,-0.00574966,0.00176696
 ,-0.00037717,0.00008417,-0.00004536,0.00003962,0.00010550,-0.00012342,
 -0.00010494,-0.00001828,0.00008543,0.00008654,0.00001761,-0.00003597,0
 .00001571,-0.00001527,0.00000616,0.10668587,0.20059141,-0.00227654,-0.
 01094218,-0.00141843,-0.00111196,-0.00046335,-0.00003835,-0.05198461,-
 0.06381386,-0.08525990,0.00008029,-0.00004600,-0.00003648,0.01380443,0
 .01619106,0.00826347,0.00035856,-0.00054923,-0.00018768,0.00022888,-0.
 00006335,-0.00007742,0.00003518,-0.00007484,-0.00005298,-0.00007106,-0
 .00003353,0.00000370,-0.00004348,0.00000841,0.00000070,0.05801060,0.08
 015159,0.09118277,-0.01652662,0.01963926,-0.01249787,0.00140224,-0.000
 47821,0.00053993,-0.08813121,0.03230078,-0.08229830,0.00003193,-0.0001
 3633,0.00024040,0.00927865,-0.00975221,0.01951298,-0.00005769,0.000015
 67,-0.00013844,-0.00011723,0.00005190,-0.00041014,0.00001343,0.0000446
 3,-0.00008222,0.00002081,-0.00000821,0.00000530,-0.00013109,0.00002624
 ,-0.00013246,-0.00688533,0.00450751,-0.01798992,0.10414161,0.02197284,
 -0.01837522,0.01621087,0.00047649,-0.00003898,-0.00050064,0.03018572,-
 0.07439725,0.06523924,-0.00014413,-0.00003222,-0.00036765,0.00102907,-
 0.00514425,0.01381760,-0.00001718,-0.00000890,-0.00018222,-0.00053135,
 0.00046516,-0.00026392,-0.00003788,0.00000706,-0.00000992,0.00000283,-
 0.00002057,0.00004367,0.00013411,0.00004535,-0.00011670,-0.00955030,0.
 00876465,-0.01938488,-0.04343143,0.08812533,0.00519175,-0.00303245,0.0
 1478747,-0.00123498,0.00042419,0.00025895,-0.08479076,0.06673868,-0.22
 754499,0.00044194,-0.00016912,0.00042479,-0.00744109,0.01005357,-0.018
 08105,0.00012294,-0.00012922,-0.00015896,0.00106296,-0.00043822,0.0004
 2268,0.00010354,0.00000315,-0.00002081,-0.00008416,-0.00001127,-0.0000
 1127,-0.00020403,-0.00012188,0.00024212,-0.00637060,0.00365979,-0.0116
 4540,0.09046103,-0.07771183,0.24260369,0.00183568,-0.00004908,-0.00265
 305,-0.00412468,0.01289644,-0.01747266,0.00819303,-0.01348472,0.018184
 63,0.00196159,0.00051253,-0.00173711,-0.07201019,0.06092840,-0.0519026
 4,-0.00085254,0.00082921,-0.00023208,-0.00382339,0.00306943,0.00013540
 ,0.00028588,-0.00025703,0.00019860,-0.00026789,-0.00036484,-0.00011710
 ,-0.00013679,-0.00005995,0.00083437,0.00020756,0.00010778,-0.00069142,
 -0.00281590,-0.00077601,0.00279090,0.07122879,-0.00096437,0.00176038,-
 0.00120825,0.00364487,-0.00403317,0.01323232,0.00670202,-0.00441114,0.
 00879662,-0.00097636,0.00069589,-0.00032206,0.05559533,-0.13634755,0.1
 3967267,-0.00057165,-0.00000772,-0.00050024,0.00110531,-0.00074619,-0.
 00139813,-0.00016670,-0.00004542,-0.00015554,0.00013703,0.00000757,-0.
 00016327,0.00040766,0.00035076,-0.00049974,0.00052562,0.00035833,-0.00
 082681,-0.00168895,0.00042583,0.00011220,-0.06367855,0.14190513,-0.001
 27422,-0.00160212,0.00223800,0.00318381,-0.00307075,0.00570751,-0.0073
 8623,0.01095272,-0.00949938,0.00022417,-0.00017229,0.00081047,-0.05007
 193,0.14863818,-0.19645173,-0.00055730,-0.00000261,-0.00064225,0.00066
 129,0.00009018,0.00009959,-0.00002477,-0.00020749,0.00011004,-0.000314
 26,-0.00001851,-0.00001282,-0.00042439,-0.00011244,-0.00001306,0.00058
 336,0.00047908,-0.00054872,0.00267392,0.00172702,-0.00193893,0.0524266
 2,-0.15669240,0.20118094,-0.18678450,-0.23504526,-0.08057368,-0.000556
 53,-0.00020021,-0.00005763,0.01089341,0.03031864,0.01089943,-0.0000013
 1,-0.00004650,0.00005918,0.00087132,0.00090311,-0.00113402,0.00034479,
 -0.00028314,-0.00011703,0.00009067,0.00009333,0.00005703,0.00005645,-0
 .00002846,-0.00003806,-0.00006774,-0.00002806,0.00001924,-0.00003108,-
 0.00000210,-0.00001987,-0.00203112,0.00380703,0.00165106,-0.00022361,0
 .00068723,-0.00004944,0.00031885,-0.00007126,0.00029993,0.17712039,-0.
 18641827,-0.34920208,-0.11651523,-0.00044658,-0.00043718,0.00037523,-0
 .01596769,-0.02814324,-0.00984078,-0.00008084,0.00024431,0.00000716,-0
 .00087658,0.00292063,-0.00060693,-0.00004766,0.00002168,0.00005143,0.0
 0006939,-0.00006857,0.00002655,-0.00008694,-0.00005481,0.00005491,-0.0
 0000590,-0.00003395,-0.00004251,-0.00000898,-0.00001560,0.00004790,0.0
 0473867,-0.00316766,-0.00015302,-0.00109065,0.00018400,0.00062242,0.00
 032638,0.00008730,-0.00000858,0.19989564,0.37766519,-0.06412252,-0.116
 88034,-0.04286654,0.00026797,0.00000359,0.00019390,-0.00540739,-0.0085
 1441,-0.00359930,-0.00013953,0.00021387,-0.00007162,-0.00152054,-0.000
 60807,0.00073640,-0.00026791,0.00025010,0.00007437,-0.00024300,0.00015
 857,-0.00013967,-0.00011902,0.00001061,0.00005679,0.00007314,-0.000031
 65,0.00002108,0.00005541,-0.00002624,-0.00005850,0.00206821,-0.0020095
 0,-0.00018528,0.00011578,0.00149939,0.00066173,0.00023554,-0.00004737,
 -0.00103966,0.06900386,0.12598145,0.04621631\\-0.00000042,0.00000044,-
 0.00000113,0.00000025,0.00000009,0.00000082,0.00000020,0.00000037,0.00
 000025,-0.00000008,-0.00000048,-0.00000027,-0.00000010,-0.00000035,-0.
 00000026,0.00000080,-0.00000066,0.00000217,0.00000037,0.00000170,0.000
 00112,0.00000021,-0.00000014,0.00000056,-0.00000058,0.00000027,-0.0000
 0160,-0.00000015,-0.00000210,-0.00000055,0.00000050,-0.00000047,0.0000
 0144,0.00000026,0.00000197,0.00000091,-0.00000041,-0.00000169,-0.00000
 122,-0.00000085,0.00000106,-0.00000225\\\@


 LIFE IS A CONTINUAL STRUGGLE AGAINST THE TENDENCY TO PRODUCE ENTROPY.
 Job cpu time:       0 days  1 hours 44 minutes 45.4 seconds.
 Elapsed time:       0 days  0 hours  5 minutes 14.6 seconds.
 File lengths (MBytes):  RWF=   1376 Int=      0 D2E=      0 Chk=     32 Scr=     32
 Normal termination of Gaussian 16 at Tue Apr  9 01:23:26 2019.
