 Entering Gaussian System, Link 0=g16
 Input=GIXGVIVAHMJKNP-UHFFFAOYSA-N_GeoFreq_c2_a1.com
 Output=GIXGVIVAHMJKNP-UHFFFAOYSA-N_GeoFreq_c2_a1.log
 Initial command:
 /shared/centos7/gaussian/g16/l1.exe "/scratch/underkoffler.c/gaussian_scratch/Gau-22428.inp" -scrdir="/scratch/underkoffler.c/gaussian_scratch/"
 Entering Link 1 = /shared/centos7/gaussian/g16/l1.exe PID=     22429.
  
 Copyright (c) 1988,1990,1992,1993,1995,1998,2003,2009,2016,
            Gaussian, Inc.  All Rights Reserved.
  
 This is part of the Gaussian(R) 16 program.  It is based on
 the Gaussian(R) 09 system (copyright 2009, Gaussian, Inc.),
 the Gaussian(R) 03 system (copyright 2003, Gaussian, Inc.),
 the Gaussian(R) 98 system (copyright 1998, Gaussian, Inc.),
 the Gaussian(R) 94 system (copyright 1995, Gaussian, Inc.),
 the Gaussian 92(TM) system (copyright 1992, Gaussian, Inc.),
 the Gaussian 90(TM) system (copyright 1990, Gaussian, Inc.),
 the Gaussian 88(TM) system (copyright 1988, Gaussian, Inc.),
 the Gaussian 86(TM) system (copyright 1986, Carnegie Mellon
 University), and the Gaussian 82(TM) system (copyright 1983,
 Carnegie Mellon University). Gaussian is a federally registered
 trademark of Gaussian, Inc.
  
 This software contains proprietary and confidential information,
 including trade secrets, belonging to Gaussian, Inc.
  
 This software is provided under written license and may be
 used, copied, transmitted, or stored only in accord with that
 written license.
  
 The following legend is applicable only to US Government
 contracts under FAR:
  
                    RESTRICTED RIGHTS LEGEND
  
 Use, reproduction and disclosure by the US Government is
 subject to restrictions as set forth in subparagraphs (a)
 and (c) of the Commercial Computer Software - Restricted
 Rights clause in FAR 52.227-19.
  
 Gaussian, Inc.
 340 Quinnipiac St., Bldg. 40, Wallingford CT 06492
  
  
 ---------------------------------------------------------------
 Warning -- This program may not be used in any manner that
 competes with the business of Gaussian, Inc. or will provide
 assistance to any competitor of Gaussian, Inc.  The licensee
 of this program is prohibited from giving any competitor of
 Gaussian, Inc. access to this program.  By using this program,
 the user acknowledges that Gaussian, Inc. is engaged in the
 business of creating and licensing software in the field of
 computational chemistry and represents and warrants to the
 licensee that it is not a competitor of Gaussian, Inc. and that
 it will not use this program in any manner prohibited above.
 ---------------------------------------------------------------
  

 Cite this work as:
 Gaussian 16, Revision A.03,
 M. J. Frisch, G. W. Trucks, H. B. Schlegel, G. E. Scuseria, 
 M. A. Robb, J. R. Cheeseman, G. Scalmani, V. Barone, 
 G. A. Petersson, H. Nakatsuji, X. Li, M. Caricato, A. V. Marenich, 
 J. Bloino, B. G. Janesko, R. Gomperts, B. Mennucci, H. P. Hratchian, 
 J. V. Ortiz, A. F. Izmaylov, J. L. Sonnenberg, D. Williams-Young, 
 F. Ding, F. Lipparini, F. Egidi, J. Goings, B. Peng, A. Petrone, 
 T. Henderson, D. Ranasinghe, V. G. Zakrzewski, J. Gao, N. Rega, 
 G. Zheng, W. Liang, M. Hada, M. Ehara, K. Toyota, R. Fukuda, 
 J. Hasegawa, M. Ishida, T. Nakajima, Y. Honda, O. Kitao, H. Nakai, 
 T. Vreven, K. Throssell, J. A. Montgomery, Jr., J. E. Peralta, 
 F. Ogliaro, M. J. Bearpark, J. J. Heyd, E. N. Brothers, K. N. Kudin, 
 V. N. Staroverov, T. A. Keith, R. Kobayashi, J. Normand, 
 K. Raghavachari, A. P. Rendell, J. C. Burant, S. S. Iyengar, 
 J. Tomasi, M. Cossi, J. M. Millam, M. Klene, C. Adamo, R. Cammi, 
 J. W. Ochterski, R. L. Martin, K. Morokuma, O. Farkas, 
 J. B. Foresman, and D. J. Fox, Gaussian, Inc., Wallingford CT, 2016.
 
 ******************************************
 Gaussian 16:  EM64L-G16RevA.03 25-Dec-2016
                 9-Apr-2019 
 ******************************************
 %nprocshared=20
 Will use up to   20 processors via shared memory.
 %mem=5GB
 ----------------------------------------------------------------------
 #p m062x/6-311+g(2df,2p) opt=(calcfc,verytight,gdiis,maxcycles=900) fr
 eq iop(7/33=1,2/16=3)
 ----------------------------------------------------------------------

 Warning!  Use of Opt=GDIIS is deprecated since it is seldom a good choice.

 1/6=900,7=1,10=4,18=20,19=11,26=3,38=1/1,3;
 2/9=110,12=2,16=3,17=6,18=5,40=1/2;
 3/5=4,6=6,7=214,11=2,25=1,30=1,71=2,74=-55,140=1/1,2,3;
 4//1;
 5/5=2,38=5/2;
 8/6=4,10=90,11=11/1;
 11/6=1,8=1,9=11,15=111,16=1/1,2,10;
 10/6=1,13=1/2;
 6/7=2,8=2,9=2,10=2,28=1/1;
 7/10=1,18=20,25=1,33=1/1,2,3,16;
 1/6=900,7=1,10=4,18=20,19=11,26=3/3(2);
 2/9=110,16=3/2;
 99//99;
 2/9=110,16=3/2;
 3/5=4,6=6,7=214,11=2,25=1,30=1,71=1,74=-55/1,2,3;
 4/5=5,16=3,69=1/1;
 5/5=2,38=5/2;
 7/33=1/1,2,3,16;
 1/6=900,7=1,18=20,19=11,26=3/3(-5);
 2/9=110,16=3/2;
 6/7=2,8=2,9=2,10=2,19=2,28=1/1;
 99/9=1/99;
 Leave Link    1 at Tue Apr  9 00:54:16 2019, MaxMem=   671088640 cpu:              27.5 elap:               1.4
 (Enter /shared/centos7/gaussian/g16/l101.exe)
 ------------------------------
 Gaussian input prepared by ASE
 ------------------------------
 Symbolic Z-matrix:
 Charge =  0 Multiplicity = 2
 O                    -5.20694   2.81914  -14.43612 
 C                    -1.83823   1.53157  -13.12174 
 C                    -3.99831   2.10648  -14.47243 
 C                    -1.13879   1.29268  -14.44539 
 C                    -3.14107   2.26244  -13.25335 
 H                    -1.17664   2.08687  -12.43959 
 H                    -2.00181   0.53525  -12.63783 
 H                    -0.98549   2.23673  -14.98961 
 H                    -0.13925   0.8193   -14.28016 
 H                    -1.73912   0.61516  -15.09921 
 H                    -4.20304   1.02011  -14.6512 
 H                    -3.4603    2.44747  -15.36404 
 H                    -3.31491   3.12     -12.59061 
 H                    -5.72795   2.46501  -13.68589 
 
 ITRead=  0  0  0  0  0  0  0  0  0  0  0  0  0  0
 MicOpt= -1 -1 -1 -1 -1 -1 -1 -1 -1 -1 -1 -1 -1 -1
 NAtoms=     14 NQM=       14 NQMF=       0 NMMI=      0 NMMIF=      0
                NMic=       0 NMicF=      0.
                    Isotopes and Nuclear Properties:
 (Nuclear quadrupole moments (NQMom) in fm**2, nuclear magnetic moments (NMagM)
  in nuclear magnetons)

  Atom         1           2           3           4           5           6           7           8           9          10
 IAtWgt=          16          12          12          12          12           1           1           1           1           1
 AtmWgt=  15.9949146  12.0000000  12.0000000  12.0000000  12.0000000   1.0078250   1.0078250   1.0078250   1.0078250   1.0078250
 NucSpn=           0           0           0           0           0           1           1           1           1           1
 AtZEff=  -0.0000000  -0.0000000  -0.0000000  -0.0000000  -0.0000000  -0.0000000  -0.0000000  -0.0000000  -0.0000000  -0.0000000
 NQMom=    0.0000000   0.0000000   0.0000000   0.0000000   0.0000000   0.0000000   0.0000000   0.0000000   0.0000000   0.0000000
 NMagM=    0.0000000   0.0000000   0.0000000   0.0000000   0.0000000   2.7928460   2.7928460   2.7928460   2.7928460   2.7928460
 AtZNuc=   8.0000000   6.0000000   6.0000000   6.0000000   6.0000000   1.0000000   1.0000000   1.0000000   1.0000000   1.0000000

  Atom        11          12          13          14
 IAtWgt=           1           1           1           1
 AtmWgt=   1.0078250   1.0078250   1.0078250   1.0078250
 NucSpn=           1           1           1           1
 AtZEff=  -0.0000000  -0.0000000  -0.0000000  -0.0000000
 NQMom=    0.0000000   0.0000000   0.0000000   0.0000000
 NMagM=    2.7928460   2.7928460   2.7928460   2.7928460
 AtZNuc=   1.0000000   1.0000000   1.0000000   1.0000000
 Leave Link  101 at Tue Apr  9 00:54:17 2019, MaxMem=   671088640 cpu:               5.3 elap:               0.3
 (Enter /shared/centos7/gaussian/g16/l103.exe)

 GradGradGradGradGradGradGradGradGradGradGradGradGradGradGradGradGradGrad
 Berny optimization.
 Initialization pass.
                           ----------------------------
                           !    Initial Parameters    !
                           ! (Angstroms and Degrees)  !
 --------------------------                            --------------------------
 ! Name  Definition              Value          Derivative Info.                !
 --------------------------------------------------------------------------------
 ! R1    R(1,3)                  1.4036         calculate D2E/DX2 analytically  !
 ! R2    R(1,14)                 0.9796         calculate D2E/DX2 analytically  !
 ! R3    R(2,4)                  1.516          calculate D2E/DX2 analytically  !
 ! R4    R(2,5)                  1.4996         calculate D2E/DX2 analytically  !
 ! R5    R(2,6)                  1.1006         calculate D2E/DX2 analytically  !
 ! R6    R(2,7)                  1.1196         calculate D2E/DX2 analytically  !
 ! R7    R(3,5)                  1.4985         calculate D2E/DX2 analytically  !
 ! R8    R(3,11)                 1.1198         calculate D2E/DX2 analytically  !
 ! R9    R(3,12)                 1.0958         calculate D2E/DX2 analytically  !
 ! R10   R(4,8)                  1.1004         calculate D2E/DX2 analytically  !
 ! R11   R(4,9)                  1.1182         calculate D2E/DX2 analytically  !
 ! R12   R(4,10)                 1.1166         calculate D2E/DX2 analytically  !
 ! R13   R(5,13)                 1.0977         calculate D2E/DX2 analytically  !
 ! A1    A(3,1,14)             107.1115         calculate D2E/DX2 analytically  !
 ! A2    A(4,2,5)              113.6403         calculate D2E/DX2 analytically  !
 ! A3    A(4,2,6)              110.0785         calculate D2E/DX2 analytically  !
 ! A4    A(4,2,7)              107.7305         calculate D2E/DX2 analytically  !
 ! A5    A(5,2,6)              109.3125         calculate D2E/DX2 analytically  !
 ! A6    A(5,2,7)              110.1635         calculate D2E/DX2 analytically  !
 ! A7    A(6,2,7)              105.5995         calculate D2E/DX2 analytically  !
 ! A8    A(1,3,5)              114.7549         calculate D2E/DX2 analytically  !
 ! A9    A(1,3,11)             109.8326         calculate D2E/DX2 analytically  !
 ! A10   A(1,3,12)             106.6094         calculate D2E/DX2 analytically  !
 ! A11   A(5,3,11)             109.599          calculate D2E/DX2 analytically  !
 ! A12   A(5,3,12)             110.4079         calculate D2E/DX2 analytically  !
 ! A13   A(11,3,12)            105.174          calculate D2E/DX2 analytically  !
 ! A14   A(2,4,8)              111.1547         calculate D2E/DX2 analytically  !
 ! A15   A(2,4,9)              110.4922         calculate D2E/DX2 analytically  !
 ! A16   A(2,4,10)             111.0259         calculate D2E/DX2 analytically  !
 ! A17   A(8,4,9)              108.1634         calculate D2E/DX2 analytically  !
 ! A18   A(8,4,10)             107.8096         calculate D2E/DX2 analytically  !
 ! A19   A(9,4,10)             108.0723         calculate D2E/DX2 analytically  !
 ! A20   A(2,5,3)              121.1772         calculate D2E/DX2 analytically  !
 ! A21   A(2,5,13)             117.7343         calculate D2E/DX2 analytically  !
 ! A22   A(3,5,13)             118.8108         calculate D2E/DX2 analytically  !
 ! D1    D(14,1,3,5)           -62.2309         calculate D2E/DX2 analytically  !
 ! D2    D(14,1,3,11)           61.754          calculate D2E/DX2 analytically  !
 ! D3    D(14,1,3,12)          175.2044         calculate D2E/DX2 analytically  !
 ! D4    D(5,2,4,8)             55.3943         calculate D2E/DX2 analytically  !
 ! D5    D(5,2,4,9)            175.4906         calculate D2E/DX2 analytically  !
 ! D6    D(5,2,4,10)           -64.6118         calculate D2E/DX2 analytically  !
 ! D7    D(6,2,4,8)            -67.5878         calculate D2E/DX2 analytically  !
 ! D8    D(6,2,4,9)             52.5085         calculate D2E/DX2 analytically  !
 ! D9    D(6,2,4,10)           172.4061         calculate D2E/DX2 analytically  !
 ! D10   D(7,2,4,8)            177.7379         calculate D2E/DX2 analytically  !
 ! D11   D(7,2,4,9)            -62.1658         calculate D2E/DX2 analytically  !
 ! D12   D(7,2,4,10)            57.7318         calculate D2E/DX2 analytically  !
 ! D13   D(4,2,5,3)             31.2051         calculate D2E/DX2 analytically  !
 ! D14   D(4,2,5,13)          -131.4483         calculate D2E/DX2 analytically  !
 ! D15   D(6,2,5,3)            154.6064         calculate D2E/DX2 analytically  !
 ! D16   D(6,2,5,13)            -8.047          calculate D2E/DX2 analytically  !
 ! D17   D(7,2,5,3)            -89.7842         calculate D2E/DX2 analytically  !
 ! D18   D(7,2,5,13)           107.5623         calculate D2E/DX2 analytically  !
 ! D19   D(1,3,5,2)            178.1214         calculate D2E/DX2 analytically  !
 ! D20   D(1,3,5,13)           -19.407          calculate D2E/DX2 analytically  !
 ! D21   D(11,3,5,2)            54.0125         calculate D2E/DX2 analytically  !
 ! D22   D(11,3,5,13)         -143.5159         calculate D2E/DX2 analytically  !
 ! D23   D(12,3,5,2)           -61.3873         calculate D2E/DX2 analytically  !
 ! D24   D(12,3,5,13)          101.0844         calculate D2E/DX2 analytically  !
 --------------------------------------------------------------------------------
 Trust Radius=3.00D-01 FncErr=1.00D-07 GrdErr=1.00D-06 EigMax=2.50D+02 EigMin=1.00D-04
 Number of steps in this run=    100 maximum allowed number of steps=    100.
 GradGradGradGradGradGradGradGradGradGradGradGradGradGradGradGradGradGrad

 Leave Link  103 at Tue Apr  9 00:54:17 2019, MaxMem=   671088640 cpu:               0.2 elap:               0.0
 (Enter /shared/centos7/gaussian/g16/l202.exe)
                          Input orientation:                          
 ---------------------------------------------------------------------
 Center     Atomic      Atomic             Coordinates (Angstroms)
 Number     Number       Type             X           Y           Z
 ---------------------------------------------------------------------
      1          8           0       -5.206943    2.819138  -14.436121
      2          6           0       -1.838234    1.531569  -13.121738
      3          6           0       -3.998313    2.106476  -14.472431
      4          6           0       -1.138790    1.292679  -14.445395
      5          6           0       -3.141065    2.262442  -13.253348
      6          1           0       -1.176639    2.086875  -12.439586
      7          1           0       -2.001808    0.535253  -12.637832
      8          1           0       -0.985489    2.236726  -14.989606
      9          1           0       -0.139253    0.819298  -14.280157
     10          1           0       -1.739117    0.615164  -15.099210
     11          1           0       -4.203039    1.020111  -14.651202
     12          1           0       -3.460300    2.447467  -15.364038
     13          1           0       -3.314913    3.119997  -12.590609
     14          1           0       -5.727946    2.465006  -13.685894
 ---------------------------------------------------------------------
                    Distance matrix (angstroms):
                    1          2          3          4          5
     1  O    0.000000
     2  C    3.838442   0.000000
     3  C    1.403564   2.611672   0.000000
     4  C    4.345116   1.516033   2.973191   0.000000
     5  C    2.444732   1.499622   1.498453   2.523989   0.000000
     6  H    4.556942   1.100638   3.477742   2.157649   2.133543
     7  H    4.326993   1.119629   3.133772   2.141443   2.158692
     8  H    4.297235   2.171025   3.059664   1.100405   2.767989
     9  H    5.450245   2.176189   4.072608   1.118243   3.485381
    10  H    4.162092   2.181747   2.778638   1.116644   2.843623
    11  H    2.071372   2.862368   1.119849   3.083224   2.150621
    12  H    2.012445   2.915112   1.095763   2.750790   2.142699
    13  H    2.660115   2.232886   2.243995   3.393351   1.097654
    14  H    0.979639   4.039732   1.933602   4.797035   2.630604
                    6          7          8          9         10
     6  H    0.000000
     7  H    1.768541   0.000000
     8  H    2.561561   3.075509   0.000000
     9  H    2.463863   2.499404   1.796812   0.000000
    10  H    3.091265   2.476646   1.791488   1.808890   0.000000
    11  H    3.897220   3.022278   3.456486   4.085628   2.536849
    12  H    3.727943   3.635377   2.511832   3.854229   2.527832
    13  H    2.379572   2.899547   3.458550   4.269965   3.879484
    14  H    4.733990   4.325100   4.923685   5.856192   4.618456
                   11         12         13         14
    11  H    0.000000
    12  H    1.759870   0.000000
    13  H    3.073163   2.857507   0.000000
    14  H    2.311900   2.821116   2.729723   0.000000
 Stoichiometry    C4H9O(2)
 Framework group  C1[X(C4H9O)]
 Deg. of freedom    36
 Full point group                 C1      NOp   1
 Largest Abelian subgroup         C1      NOp   1
 Largest concise Abelian subgroup C1      NOp   1
                         Standard orientation:                         
 ---------------------------------------------------------------------
 Center     Atomic      Atomic             Coordinates (Angstroms)
 Number     Number       Type             X           Y           Z
 ---------------------------------------------------------------------
      1          8           0       -2.351064   -0.163685   -0.119011
      2          6           0        1.384567    0.678740    0.143702
      3          6           0       -0.989696   -0.408955    0.118713
      4          6           0        1.960628   -0.701401   -0.104734
      5          6           0       -0.091103    0.768603   -0.107671
      6          1           0        1.905619    1.423099   -0.477457
      7          1           0        1.613225    0.957940    1.203575
      8          1           0        1.732166   -1.049639   -1.123275
      9          1           0        3.071987   -0.689750    0.018606
     10          1           0        1.540213   -1.446200    0.613193
     11          1           0       -0.849305   -0.793713    1.160976
     12          1           0       -0.702364   -1.240109   -0.534984
     13          1           0       -0.454392    1.600263   -0.725091
     14          1           0       -2.635014    0.525667    0.516489
 ---------------------------------------------------------------------
 Rotational constants (GHZ):          12.8587205           2.4604864           2.1845218
 Leave Link  202 at Tue Apr  9 00:54:17 2019, MaxMem=   671088640 cpu:               0.2 elap:               0.0
 (Enter /shared/centos7/gaussian/g16/l301.exe)
 Standard basis: 6-311+G(2df,2p) (5D, 7F)
 Ernie: Thresh=  0.10000D-02 Tol=  0.10000D-05 Strict=F.
 There are   276 symmetry adapted cartesian basis functions of A   symmetry.
 There are   251 symmetry adapted basis functions of A   symmetry.
   251 basis functions,   359 primitive gaussians,   276 cartesian basis functions
    21 alpha electrons       20 beta electrons
       nuclear repulsion energy       178.2555381838 Hartrees.
 IExCor= 4336 DFT=T Ex+Corr=M062X ExCW=0 ScaHFX=  0.540000
 ScaDFX=  1.000000  1.000000  1.000000  1.000000 ScalE2=  1.000000  1.000000
 IRadAn=      5 IRanWt=     -1 IRanGd=            0 ICorTp=0 IEmpDi=  4
 NAtoms=   14 NActive=   14 NUniq=   14 SFac= 1.00D+00 NAtFMM=   60 NAOKFM=F Big=F
 Integral buffers will be    131072 words long.
 Raffenetti 2 integral format.
 Two-electron integral symmetry is turned on.
 Leave Link  301 at Tue Apr  9 00:54:17 2019, MaxMem=   671088640 cpu:               1.0 elap:               0.1
 (Enter /shared/centos7/gaussian/g16/l302.exe)
 NPDir=0 NMtPBC=     1 NCelOv=     1 NCel=       1 NClECP=     1 NCelD=      1
         NCelK=      1 NCelE2=     1 NClLst=     1 CellRange=     0.0.
 One-electron integrals computed using PRISM.
 One-electron integral symmetry used in STVInt
 NBasis=   251 RedAO= T EigKep=  3.04D-05  NBF=   251
 NBsUse=   251 1.00D-06 EigRej= -1.00D+00 NBFU=   251
 Precomputing XC quadrature grid using
 IXCGrd= 4 IRadAn=           5 IRanWt=          -1 IRanGd=           0 AccXCQ= 0.00D+00.
 Generated NRdTot=       0 NPtTot=           0 NUsed=           0 NTot=          32
 NSgBfM=   276   276   276   276   276 MxSgAt=    14 MxSgA2=    14.
 Leave Link  302 at Tue Apr  9 00:54:17 2019, MaxMem=   671088640 cpu:               6.9 elap:               0.4
 (Enter /shared/centos7/gaussian/g16/l303.exe)
 DipDrv:  MaxL=1.
 Leave Link  303 at Tue Apr  9 00:54:17 2019, MaxMem=   671088640 cpu:               0.5 elap:               0.0
 (Enter /shared/centos7/gaussian/g16/l401.exe)
 ExpMin= 4.38D-02 ExpMax= 8.59D+03 ExpMxC= 1.30D+03 IAcc=3 IRadAn=         5 AccDes= 0.00D+00
 Harris functional with IExCor= 1009 and IRadAn=       5 diagonalized for initial guess.
 HarFok:  IExCor= 1009 AccDes= 0.00D+00 IRadAn=         5 IDoV= 1 UseB2=F ITyADJ=14
 ICtDFT=  3500011 ScaDFX=  1.000000  1.000000  1.000000  1.000000
 FoFCou: FMM=F IPFlag=           0 FMFlag=      100000 FMFlg1=           0
         NFxFlg=           0 DoJE=T BraDBF=F KetDBF=T FulRan=T
         wScrn=  0.000000 ICntrl=       500 IOpCl=  0 I1Cent=   200000004 NGrid=           0
         NMat0=    1 NMatS0=      1 NMatT0=    0 NMatD0=    1 NMtDS0=    0 NMtDT0=    0
 Petite list used in FoFCou.
 Harris En= -232.887765226181    
 JPrj=0 DoOrth=F DoCkMO=F.
 Initial guess <Sx>= 0.0000 <Sy>= 0.0000 <Sz>= 0.5000 <S**2>= 0.7500 S= 0.5000
 Leave Link  401 at Tue Apr  9 00:54:18 2019, MaxMem=   671088640 cpu:              17.8 elap:               0.9
 (Enter /shared/centos7/gaussian/g16/l502.exe)
 Integral symmetry usage will be decided dynamically.
 UHF open shell SCF:
 Using DIIS extrapolation, IDIIS=  1040.
 NGot=   671088640 LenX=   670928170 LenY=   670851553
 Requested convergence on RMS density matrix=1.00D-08 within 128 cycles.
 Requested convergence on MAX density matrix=1.00D-06.
 Requested convergence on             energy=1.00D-06.
 No special actions if energy rises.
 Fock matrices will be formed incrementally for  20 cycles.

 Cycle   1  Pass 1  IDiag  1:
 FoFJK:  IHMeth= 1 ICntrl=       0 DoSepK=F KAlg= 0 I1Cent=           0 FoldK=F
 IRaf= 970000000 NMat=       1 IRICut=       1 DoRegI=T DoRafI=F ISym2E= 0 IDoP0=0 IntGTp=1.
 FoFCou: FMM=F IPFlag=           0 FMFlag=      100000 FMFlg1=           0
         NFxFlg=           0 DoJE=F BraDBF=F KetDBF=F FulRan=T
         wScrn=  0.000000 ICntrl=         0 IOpCl=  1 I1Cent=           0 NGrid=           0
         NMat0=    1 NMatS0=      1 NMatT0=    0 NMatD0=    1 NMtDS0=    0 NMtDT0=    0
 Symmetry not used in FoFCou.
 E= -232.769952282513    
 DIIS: error= 2.37D-02 at cycle   1 NSaved=   1.
 NSaved= 1 IEnMin= 1 EnMin= -232.769952282513     IErMin= 1 ErrMin= 2.37D-02
 ErrMax= 2.37D-02  0.00D+00 EMaxC= 1.00D-01 BMatC= 9.11D-01 BMatP= 9.11D-01
 IDIUse=3 WtCom= 7.63D-01 WtEn= 2.37D-01
 Coeff-Com:  0.100D+01
 Coeff-En:   0.100D+01
 Coeff:      0.100D+01
 Gap=     0.215 Goal=   None    Shift=    0.000
 Gap=     0.325 Goal=   None    Shift=    0.000
 GapD=    0.215 DampG=1.000 DampE=0.500 DampFc=0.5000 IDamp=-1.
 Damping current iteration by 5.00D-01
 RMSDP=4.69D-03 MaxDP=4.71D-01              OVMax= 1.55D-01

 Cycle   2  Pass 1  IDiag  1:
 RMSU=  2.32D-03    CP:  1.03D+00
 E= -232.865099617676     Delta-E=       -0.095147335164 Rises=F Damp=T
 DIIS: error= 5.04D-03 at cycle   2 NSaved=   2.
 NSaved= 2 IEnMin= 2 EnMin= -232.865099617676     IErMin= 2 ErrMin= 5.04D-03
 ErrMax= 5.04D-03  0.00D+00 EMaxC= 1.00D-01 BMatC= 5.56D-02 BMatP= 9.11D-01
 IDIUse=3 WtCom= 9.50D-01 WtEn= 5.04D-02
 Coeff-Com: -0.691D-01 0.107D+01
 Coeff-En:   0.000D+00 0.100D+01
 Coeff:     -0.656D-01 0.107D+01
 Gap=     0.261 Goal=   None    Shift=    0.000
 Gap=     0.353 Goal=   None    Shift=    0.000
 RMSDP=1.68D-03 MaxDP=1.61D-01 DE=-9.51D-02 OVMax= 7.77D-02

 Cycle   3  Pass 1  IDiag  1:
 RMSU=  1.33D-03    CP:  9.89D-01  5.95D-01
 E= -232.959576591521     Delta-E=       -0.094476973844 Rises=F Damp=F
 DIIS: error= 2.33D-03 at cycle   3 NSaved=   3.
 NSaved= 3 IEnMin= 3 EnMin= -232.959576591521     IErMin= 3 ErrMin= 2.33D-03
 ErrMax= 2.33D-03  0.00D+00 EMaxC= 1.00D-01 BMatC= 1.03D-02 BMatP= 5.56D-02
 IDIUse=3 WtCom= 9.77D-01 WtEn= 2.33D-02
 Coeff-Com: -0.703D-01 0.270D+00 0.800D+00
 Coeff-En:   0.000D+00 0.000D+00 0.100D+01
 Coeff:     -0.687D-01 0.264D+00 0.805D+00
 Gap=     0.264 Goal=   None    Shift=    0.000
 Gap=     0.322 Goal=   None    Shift=    0.000
 RMSDP=2.99D-04 MaxDP=2.63D-02 DE=-9.45D-02 OVMax= 1.19D-02

 Cycle   4  Pass 1  IDiag  1:
 RMSU=  2.35D-04    CP:  9.92D-01  6.72D-01  1.03D+00
 E= -232.961143954241     Delta-E=       -0.001567362720 Rises=F Damp=F
 DIIS: error= 1.14D-03 at cycle   4 NSaved=   4.
 NSaved= 4 IEnMin= 4 EnMin= -232.961143954241     IErMin= 4 ErrMin= 1.14D-03
 ErrMax= 1.14D-03  0.00D+00 EMaxC= 1.00D-01 BMatC= 2.39D-03 BMatP= 1.03D-02
 IDIUse=3 WtCom= 9.89D-01 WtEn= 1.14D-02
 Coeff-Com: -0.269D-01 0.626D-01 0.376D+00 0.589D+00
 Coeff-En:   0.000D+00 0.000D+00 0.461D-02 0.995D+00
 Coeff:     -0.266D-01 0.619D-01 0.371D+00 0.593D+00
 Gap=     0.260 Goal=   None    Shift=    0.000
 Gap=     0.328 Goal=   None    Shift=    0.000
 RMSDP=1.42D-04 MaxDP=1.61D-02 DE=-1.57D-03 OVMax= 5.49D-03

 Cycle   5  Pass 1  IDiag  1:
 RMSU=  8.55D-05    CP:  9.87D-01  6.35D-01  1.06D+00  8.27D-01
 E= -232.961615752989     Delta-E=       -0.000471798749 Rises=F Damp=F
 DIIS: error= 3.93D-04 at cycle   5 NSaved=   5.
 NSaved= 5 IEnMin= 5 EnMin= -232.961615752989     IErMin= 5 ErrMin= 3.93D-04
 ErrMax= 3.93D-04  0.00D+00 EMaxC= 1.00D-01 BMatC= 1.34D-04 BMatP= 2.39D-03
 IDIUse=3 WtCom= 9.96D-01 WtEn= 3.93D-03
 Coeff-Com:  0.304D-03-0.111D-01 0.131D-01 0.170D+00 0.828D+00
 Coeff-En:   0.000D+00 0.000D+00 0.000D+00 0.000D+00 0.100D+01
 Coeff:      0.303D-03-0.110D-01 0.131D-01 0.169D+00 0.829D+00
 Gap=     0.262 Goal=   None    Shift=    0.000
 Gap=     0.327 Goal=   None    Shift=    0.000
 RMSDP=4.31D-05 MaxDP=3.54D-03 DE=-4.72D-04 OVMax= 2.45D-03

 Cycle   6  Pass 1  IDiag  1:
 RMSU=  3.12D-05    CP:  9.88D-01  6.39D-01  1.07D+00  9.35D-01  9.34D-01
 E= -232.961664329580     Delta-E=       -0.000048576591 Rises=F Damp=F
 DIIS: error= 9.82D-05 at cycle   6 NSaved=   6.
 NSaved= 6 IEnMin= 6 EnMin= -232.961664329580     IErMin= 6 ErrMin= 9.82D-05
 ErrMax= 9.82D-05  0.00D+00 EMaxC= 1.00D-01 BMatC= 1.23D-05 BMatP= 1.34D-04
 IDIUse=1 WtCom= 1.00D+00 WtEn= 0.00D+00
 Coeff-Com:  0.407D-02-0.958D-02-0.559D-01-0.964D-01-0.328D-01 0.119D+01
 Coeff:      0.407D-02-0.958D-02-0.559D-01-0.964D-01-0.328D-01 0.119D+01
 Gap=     0.262 Goal=   None    Shift=    0.000
 Gap=     0.328 Goal=   None    Shift=    0.000
 RMSDP=2.32D-05 MaxDP=1.73D-03 DE=-4.86D-05 OVMax= 1.71D-03

 Cycle   7  Pass 1  IDiag  1:
 RMSU=  1.09D-05    CP:  9.88D-01  6.36D-01  1.07D+00  9.81D-01  1.07D+00
                    CP:  1.34D+00
 E= -232.961673237156     Delta-E=       -0.000008907576 Rises=F Damp=F
 DIIS: error= 3.78D-05 at cycle   7 NSaved=   7.
 NSaved= 7 IEnMin= 7 EnMin= -232.961673237156     IErMin= 7 ErrMin= 3.78D-05
 ErrMax= 3.78D-05  0.00D+00 EMaxC= 1.00D-01 BMatC= 2.00D-06 BMatP= 1.23D-05
 IDIUse=1 WtCom= 1.00D+00 WtEn= 0.00D+00
 Coeff-Com:  0.121D-02-0.202D-02-0.195D-01-0.474D-01-0.820D-01 0.412D+00
 Coeff-Com:  0.738D+00
 Coeff:      0.121D-02-0.202D-02-0.195D-01-0.474D-01-0.820D-01 0.412D+00
 Coeff:      0.738D+00
 Gap=     0.262 Goal=   None    Shift=    0.000
 Gap=     0.328 Goal=   None    Shift=    0.000
 RMSDP=4.35D-06 MaxDP=2.35D-04 DE=-8.91D-06 OVMax= 2.81D-04

 Cycle   8  Pass 1  IDiag  1:
 RMSU=  3.11D-06    CP:  9.88D-01  6.36D-01  1.07D+00  9.82D-01  1.07D+00
                    CP:  1.41D+00  1.14D+00
 E= -232.961673886676     Delta-E=       -0.000000649519 Rises=F Damp=F
 DIIS: error= 1.45D-05 at cycle   8 NSaved=   8.
 NSaved= 8 IEnMin= 8 EnMin= -232.961673886676     IErMin= 8 ErrMin= 1.45D-05
 ErrMax= 1.45D-05  0.00D+00 EMaxC= 1.00D-01 BMatC= 1.76D-07 BMatP= 2.00D-06
 IDIUse=1 WtCom= 1.00D+00 WtEn= 0.00D+00
 Coeff-Com: -0.336D-03 0.895D-03 0.309D-02 0.160D-02-0.137D-01-0.598D-01
 Coeff-Com:  0.158D+00 0.911D+00
 Coeff:     -0.336D-03 0.895D-03 0.309D-02 0.160D-02-0.137D-01-0.598D-01
 Coeff:      0.158D+00 0.911D+00
 Gap=     0.262 Goal=   None    Shift=    0.000
 Gap=     0.328 Goal=   None    Shift=    0.000
 RMSDP=2.62D-06 MaxDP=1.58D-04 DE=-6.50D-07 OVMax= 1.44D-04

 Cycle   9  Pass 1  IDiag  1:
 RMSU=  1.27D-06    CP:  9.88D-01  6.36D-01  1.07D+00  9.78D-01  1.07D+00
                    CP:  1.41D+00  1.28D+00  1.27D+00
 E= -232.961673957831     Delta-E=       -0.000000071155 Rises=F Damp=F
 DIIS: error= 3.80D-06 at cycle   9 NSaved=   9.
 NSaved= 9 IEnMin= 9 EnMin= -232.961673957831     IErMin= 9 ErrMin= 3.80D-06
 ErrMax= 3.80D-06  0.00D+00 EMaxC= 1.00D-01 BMatC= 1.80D-08 BMatP= 1.76D-07
 IDIUse=1 WtCom= 1.00D+00 WtEn= 0.00D+00
 Coeff-Com: -0.195D-03 0.404D-03 0.270D-02 0.518D-02 0.627D-02-0.565D-01
 Coeff-Com: -0.552D-01 0.202D+00 0.896D+00
 Coeff:     -0.195D-03 0.404D-03 0.270D-02 0.518D-02 0.627D-02-0.565D-01
 Coeff:     -0.552D-01 0.202D+00 0.896D+00
 Gap=     0.262 Goal=   None    Shift=    0.000
 Gap=     0.328 Goal=   None    Shift=    0.000
 RMSDP=9.91D-07 MaxDP=6.17D-05 DE=-7.12D-08 OVMax= 4.84D-05

 Cycle  10  Pass 1  IDiag  1:
 RMSU=  3.98D-07    CP:  9.88D-01  6.37D-01  1.07D+00  9.78D-01  1.07D+00
                    CP:  1.41D+00  1.31D+00  1.41D+00  1.11D+00
 E= -232.961673965476     Delta-E=       -0.000000007645 Rises=F Damp=F
 DIIS: error= 8.90D-07 at cycle  10 NSaved=  10.
 NSaved=10 IEnMin=10 EnMin= -232.961673965476     IErMin=10 ErrMin= 8.90D-07
 ErrMax= 8.90D-07  0.00D+00 EMaxC= 1.00D-01 BMatC= 8.14D-10 BMatP= 1.80D-08
 IDIUse=1 WtCom= 1.00D+00 WtEn= 0.00D+00
 Coeff-Com:  0.189D-04-0.445D-04-0.700D-04 0.175D-03 0.134D-02 0.683D-03
 Coeff-Com: -0.143D-01-0.517D-01 0.475D-01 0.102D+01
 Coeff:      0.189D-04-0.445D-04-0.700D-04 0.175D-03 0.134D-02 0.683D-03
 Coeff:     -0.143D-01-0.517D-01 0.475D-01 0.102D+01
 Gap=     0.262 Goal=   None    Shift=    0.000
 Gap=     0.328 Goal=   None    Shift=    0.000
 RMSDP=2.28D-07 MaxDP=1.07D-05 DE=-7.64D-09 OVMax= 1.21D-05

 Cycle  11  Pass 1  IDiag  1:
 RMSU=  9.16D-08    CP:  9.88D-01  6.37D-01  1.07D+00  9.78D-01  1.07D+00
                    CP:  1.41D+00  1.32D+00  1.45D+00  1.19D+00  1.25D+00
 E= -232.961673965958     Delta-E=       -0.000000000482 Rises=F Damp=F
 DIIS: error= 2.48D-07 at cycle  11 NSaved=  11.
 NSaved=11 IEnMin=11 EnMin= -232.961673965958     IErMin=11 ErrMin= 2.48D-07
 ErrMax= 2.48D-07  0.00D+00 EMaxC= 1.00D-01 BMatC= 8.92D-11 BMatP= 8.14D-10
 IDIUse=1 WtCom= 1.00D+00 WtEn= 0.00D+00
 Coeff-Com:  0.175D-04-0.379D-04-0.214D-03-0.337D-03-0.210D-03 0.405D-02
 Coeff-Com:  0.181D-02-0.223D-01-0.545D-01 0.157D+00 0.915D+00
 Coeff:      0.175D-04-0.379D-04-0.214D-03-0.337D-03-0.210D-03 0.405D-02
 Coeff:      0.181D-02-0.223D-01-0.545D-01 0.157D+00 0.915D+00
 Gap=     0.262 Goal=   None    Shift=    0.000
 Gap=     0.328 Goal=   None    Shift=    0.000
 RMSDP=7.03D-08 MaxDP=4.39D-06 DE=-4.82D-10 OVMax= 3.15D-06

 Cycle  12  Pass 1  IDiag  1:
 RMSU=  3.33D-08    CP:  9.88D-01  6.37D-01  1.07D+00  9.78D-01  1.07D+00
                    CP:  1.41D+00  1.32D+00  1.45D+00  1.20D+00  1.36D+00
                    CP:  1.24D+00
 E= -232.961673965998     Delta-E=       -0.000000000040 Rises=F Damp=F
 DIIS: error= 1.22D-07 at cycle  12 NSaved=  12.
 NSaved=12 IEnMin=12 EnMin= -232.961673965998     IErMin=12 ErrMin= 1.22D-07
 ErrMax= 1.22D-07  0.00D+00 EMaxC= 1.00D-01 BMatC= 1.64D-11 BMatP= 8.92D-11
 IDIUse=1 WtCom= 1.00D+00 WtEn= 0.00D+00
 Coeff-Com:  0.162D-05-0.372D-05-0.429D-04-0.930D-04-0.169D-03 0.894D-03
 Coeff-Com:  0.199D-02-0.291D-04-0.200D-01-0.783D-01 0.243D+00 0.853D+00
 Coeff:      0.162D-05-0.372D-05-0.429D-04-0.930D-04-0.169D-03 0.894D-03
 Coeff:      0.199D-02-0.291D-04-0.200D-01-0.783D-01 0.243D+00 0.853D+00
 Gap=     0.262 Goal=   None    Shift=    0.000
 Gap=     0.328 Goal=   None    Shift=    0.000
 RMSDP=2.51D-08 MaxDP=1.65D-06 DE=-4.02D-11 OVMax= 1.17D-06

 Cycle  13  Pass 1  IDiag  1:
 RMSU=  1.04D-08    CP:  9.88D-01  6.37D-01  1.07D+00  9.78D-01  1.07D+00
                    CP:  1.41D+00  1.31D+00  1.45D+00  1.20D+00  1.38D+00
                    CP:  1.37D+00  1.33D+00
 E= -232.961673966002     Delta-E=       -0.000000000004 Rises=F Damp=F
 DIIS: error= 2.93D-08 at cycle  13 NSaved=  13.
 NSaved=13 IEnMin=13 EnMin= -232.961673966002     IErMin=13 ErrMin= 2.93D-08
 ErrMax= 2.93D-08  0.00D+00 EMaxC= 1.00D-01 BMatC= 1.69D-12 BMatP= 1.64D-11
 IDIUse=1 WtCom= 1.00D+00 WtEn= 0.00D+00
 Coeff-Com: -0.187D-05 0.388D-05 0.167D-04 0.220D-04-0.468D-05-0.313D-03
 Coeff-Com:  0.131D-03 0.273D-02 0.307D-02-0.338D-01-0.682D-01 0.182D+00
 Coeff-Com:  0.914D+00
 Coeff:     -0.187D-05 0.388D-05 0.167D-04 0.220D-04-0.468D-05-0.313D-03
 Coeff:      0.131D-03 0.273D-02 0.307D-02-0.338D-01-0.682D-01 0.182D+00
 Coeff:      0.914D+00
 Gap=     0.262 Goal=   None    Shift=    0.000
 Gap=     0.328 Goal=   None    Shift=    0.000
 RMSDP=1.19D-08 MaxDP=9.05D-07 DE=-3.92D-12 OVMax= 3.93D-07

 Cycle  14  Pass 1  IDiag  1:
 RMSU=  3.73D-09    CP:  9.88D-01  6.37D-01  1.07D+00  9.78D-01  1.07D+00
                    CP:  1.41D+00  1.31D+00  1.44D+00  1.19D+00  1.39D+00
                    CP:  1.41D+00  1.51D+00  1.21D+00
 E= -232.961673966007     Delta-E=       -0.000000000005 Rises=F Damp=F
 DIIS: error= 9.22D-09 at cycle  14 NSaved=  14.
 NSaved=14 IEnMin=14 EnMin= -232.961673966007     IErMin=14 ErrMin= 9.22D-09
 ErrMax= 9.22D-09  0.00D+00 EMaxC= 1.00D-01 BMatC= 1.15D-13 BMatP= 1.69D-12
 IDIUse=1 WtCom= 1.00D+00 WtEn= 0.00D+00
 Coeff-Com: -0.123D-06 0.349D-06 0.358D-05 0.640D-05 0.777D-05-0.704D-04
 Coeff-Com: -0.134D-03 0.113D-03 0.174D-02 0.501D-02-0.261D-01-0.672D-01
 Coeff-Com:  0.295D-01 0.106D+01
 Coeff:     -0.123D-06 0.349D-06 0.358D-05 0.640D-05 0.777D-05-0.704D-04
 Coeff:     -0.134D-03 0.113D-03 0.174D-02 0.501D-02-0.261D-01-0.672D-01
 Coeff:      0.295D-01 0.106D+01
 Gap=     0.262 Goal=   None    Shift=    0.000
 Gap=     0.328 Goal=   None    Shift=    0.000
 RMSDP=5.43D-09 MaxDP=4.66D-07 DE=-4.60D-12 OVMax= 1.75D-07

 SCF Done:  E(UM062X) =  -232.961673966     A.U. after   14 cycles
            NFock= 14  Conv=0.54D-08     -V/T= 2.0047
 <Sx>= 0.0000 <Sy>= 0.0000 <Sz>= 0.5000 <S**2>= 0.7555 S= 0.5027
 <L.S>= 0.000000000000E+00
 KE= 2.318794249420D+02 PE=-8.993929195898D+02 EE= 2.562962824980D+02
 Annihilation of the first spin contaminant:
 S**2 before annihilation     0.7555,   after     0.7500
 Leave Link  502 at Tue Apr  9 00:55:00 2019, MaxMem=   671088640 cpu:             835.6 elap:              41.8
 (Enter /shared/centos7/gaussian/g16/l801.exe)
 DoSCS=F DFT=T ScalE2(SS,OS)=  1.000000  1.000000
 Range of M.O.s used for correlation:     1   251
 NBasis=   251 NAE=    21 NBE=    20 NFC=     0 NFV=     0
 NROrb=    251 NOA=    21 NOB=    20 NVA=   230 NVB=   231

 **** Warning!!: The largest alpha MO coefficient is  0.59600191D+02


 **** Warning!!: The largest beta MO coefficient is  0.57351707D+02

 Leave Link  801 at Tue Apr  9 00:55:00 2019, MaxMem=   671088640 cpu:               0.5 elap:               0.0
 (Enter /shared/centos7/gaussian/g16/l1101.exe)
 Using compressed storage, NAtomX=    14.
 Will process     15 centers per pass.
 Leave Link 1101 at Tue Apr  9 00:55:00 2019, MaxMem=   671088640 cpu:               5.7 elap:               0.3
 (Enter /shared/centos7/gaussian/g16/l1102.exe)
 Symmetrizing basis deriv contribution to polar:
 IMax=3 JMax=2 DiffMx= 0.00D+00
 Leave Link 1102 at Tue Apr  9 00:55:00 2019, MaxMem=   671088640 cpu:               0.5 elap:               0.1
 (Enter /shared/centos7/gaussian/g16/l1110.exe)
 Forming Gx(P) for the SCF density, NAtomX=    14.
 Integral derivatives from FoFJK, PRISM(SPDF).
 Do as many integral derivatives as possible in FoFJK.
 G2DrvN: MDV=     671087496.
 G2DrvN: will do    15 centers at a time, making    1 passes.
 Calling FoFCou, ICntrl=  3107 FMM=F I1Cent=   0 AccDes= 0.00D+00.
 FoFJK:  IHMeth= 1 ICntrl=    3107 DoSepK=F KAlg= 0 I1Cent=           0 FoldK=F
 IRaf=         0 NMat=       1 IRICut=       1 DoRegI=T DoRafI=F ISym2E= 0 IDoP0=0 IntGTp=1.
 FoFCou: FMM=F IPFlag=           0 FMFlag=      100000 FMFlg1=           0
         NFxFlg=           0 DoJE=F BraDBF=F KetDBF=F FulRan=T
         wScrn=  0.000000 ICntrl=      3107 IOpCl=  1 I1Cent=           0 NGrid=           0
         NMat0=    1 NMatS0=      1 NMatT0=    0 NMatD0=    1 NMtDS0=    0 NMtDT0=    0
 Symmetry not used in FoFCou.
 End of G2Drv F.D. properties file   721 does not exist.
 End of G2Drv F.D. properties file   722 does not exist.
 End of G2Drv F.D. properties file   788 does not exist.
 Leave Link 1110 at Tue Apr  9 00:56:21 2019, MaxMem=   671088640 cpu:            1611.7 elap:              80.6
 (Enter /shared/centos7/gaussian/g16/l1002.exe)
 Minotr:  UHF open shell wavefunction.
          IDoAtm=11111111111111
          Direct CPHF calculation.
          Differentiating once with respect to nuclear coordinates.
          Requested convergence is 1.0D-08 RMS, and 1.0D-07 maximum.
          Secondary convergence is 1.0D-12 RMS, and 1.0D-12 maximum.
          NewPWx=T KeepS1=F KeepF1=F KeepIn=T MapXYZ=F SortEE=F KeepMc=T.
         4250 words used for storage of precomputed grid.
 Two-electron integrals replicated using symmetry.
          MDV=     671088640 using IRadAn=       1.
          Solving linear equations simultaneously, MaxMat=     380.
 FoF2E skips out because all densities are zero.
 CalDSu exits because no D1Ps are significant.
 FoFJK:  IHMeth= 1 ICntrl=       0 DoSepK=F KAlg= 0 I1Cent=           0 FoldK=F
 IRaf= 970000000 NMat=      42 IRICut=     105 DoRegI=T DoRafI=T ISym2E= 2 IDoP0=3 IntGTp=3.
 FoFCou: FMM=F IPFlag=           0 FMFlag=      100000 FMFlg1=           0
         NFxFlg=           0 DoJE=F BraDBF=F KetDBF=F FulRan=T
         wScrn=  0.000000 ICntrl=         0 IOpCl=  1 I1Cent=           0 NGrid=           0
         NMat0=   42 NMatS0=     42 NMatT0=    0 NMatD0=   42 NMtDS0=    0 NMtDT0=    0
 Integrals replicated using symmetry in FoFCou.
 Raff kept on since  95.29% of shell-pairs survive, threshold=   0.20 IRatSp=95.
          There are    45 degrees of freedom in the 1st order CPHF.  IDoFFX=6 NUNeed=     0.
     39 vectors produced by pass  0 Test12= 2.10D-14 2.22D-09 XBig12= 1.47D-01 7.97D-02.
 AX will form    39 AO Fock derivatives at one time.
     39 vectors produced by pass  1 Test12= 2.10D-14 2.22D-09 XBig12= 6.08D-03 1.32D-02.
     39 vectors produced by pass  2 Test12= 2.10D-14 2.22D-09 XBig12= 3.29D-04 2.73D-03.
     39 vectors produced by pass  3 Test12= 2.10D-14 2.22D-09 XBig12= 5.44D-06 2.67D-04.
     39 vectors produced by pass  4 Test12= 2.10D-14 2.22D-09 XBig12= 5.07D-08 2.35D-05.
     39 vectors produced by pass  5 Test12= 2.10D-14 2.22D-09 XBig12= 6.07D-10 2.94D-06.
     39 vectors produced by pass  6 Test12= 2.10D-14 2.22D-09 XBig12= 5.13D-12 1.92D-07.
     15 vectors produced by pass  7 Test12= 2.10D-14 2.22D-09 XBig12= 3.02D-14 1.64D-08.
 InvSVY:  IOpt=1 It=  1 EMax= 2.00D-15
 Solved reduced A of dimension   288 with    39 vectors.
 End of Minotr F.D. properties file   721 does not exist.
 End of Minotr F.D. properties file   722 does not exist.
 End of Minotr F.D. properties file   788 does not exist.
 Leave Link 1002 at Tue Apr  9 00:58:28 2019, MaxMem=   671088640 cpu:            2531.0 elap:             126.6
 (Enter /shared/centos7/gaussian/g16/l601.exe)
 Copying SCF densities to generalized density rwf, IOpCl= 1 IROHF=0.

 **********************************************************************

            Population analysis using the SCF density.

 **********************************************************************

 Orbital symmetries:
 Alpha Orbitals:
       Occupied  (A) (A) (A) (A) (A) (A) (A) (A) (A) (A) (A) (A)
                 (A) (A) (A) (A) (A) (A) (A) (A) (A)
       Virtual   (A) (A) (A) (A) (A) (A) (A) (A) (A) (A) (A) (A)
                 (A) (A) (A) (A) (A) (A) (A) (A) (A) (A) (A) (A)
                 (A) (A) (A) (A) (A) (A) (A) (A) (A) (A) (A) (A)
                 (A) (A) (A) (A) (A) (A) (A) (A) (A) (A) (A) (A)
                 (A) (A) (A) (A) (A) (A) (A) (A) (A) (A) (A) (A)
                 (A) (A) (A) (A) (A) (A) (A) (A) (A) (A) (A) (A)
                 (A) (A) (A) (A) (A) (A) (A) (A) (A) (A) (A) (A)
                 (A) (A) (A) (A) (A) (A) (A) (A) (A) (A) (A) (A)
                 (A) (A) (A) (A) (A) (A) (A) (A) (A) (A) (A) (A)
                 (A) (A) (A) (A) (A) (A) (A) (A) (A) (A) (A) (A)
                 (A) (A) (A) (A) (A) (A) (A) (A) (A) (A) (A) (A)
                 (A) (A) (A) (A) (A) (A) (A) (A) (A) (A) (A) (A)
                 (A) (A) (A) (A) (A) (A) (A) (A) (A) (A) (A) (A)
                 (A) (A) (A) (A) (A) (A) (A) (A) (A) (A) (A) (A)
                 (A) (A) (A) (A) (A) (A) (A) (A) (A) (A) (A) (A)
                 (A) (A) (A) (A) (A) (A) (A) (A) (A) (A) (A) (A)
                 (A) (A) (A) (A) (A) (A) (A) (A) (A) (A) (A) (A)
                 (A) (A) (A) (A) (A) (A) (A) (A) (A) (A) (A) (A)
                 (A) (A) (A) (A) (A) (A) (A) (A) (A) (A) (A) (A)
                 (A) (A)
 Beta  Orbitals:
       Occupied  (A) (A) (A) (A) (A) (A) (A) (A) (A) (A) (A) (A)
                 (A) (A) (A) (A) (A) (A) (A) (A)
       Virtual   (A) (A) (A) (A) (A) (A) (A) (A) (A) (A) (A) (A)
                 (A) (A) (A) (A) (A) (A) (A) (A) (A) (A) (A) (A)
                 (A) (A) (A) (A) (A) (A) (A) (A) (A) (A) (A) (A)
                 (A) (A) (A) (A) (A) (A) (A) (A) (A) (A) (A) (A)
                 (A) (A) (A) (A) (A) (A) (A) (A) (A) (A) (A) (A)
                 (A) (A) (A) (A) (A) (A) (A) (A) (A) (A) (A) (A)
                 (A) (A) (A) (A) (A) (A) (A) (A) (A) (A) (A) (A)
                 (A) (A) (A) (A) (A) (A) (A) (A) (A) (A) (A) (A)
                 (A) (A) (A) (A) (A) (A) (A) (A) (A) (A) (A) (A)
                 (A) (A) (A) (A) (A) (A) (A) (A) (A) (A) (A) (A)
                 (A) (A) (A) (A) (A) (A) (A) (A) (A) (A) (A) (A)
                 (A) (A) (A) (A) (A) (A) (A) (A) (A) (A) (A) (A)
                 (A) (A) (A) (A) (A) (A) (A) (A) (A) (A) (A) (A)
                 (A) (A) (A) (A) (A) (A) (A) (A) (A) (A) (A) (A)
                 (A) (A) (A) (A) (A) (A) (A) (A) (A) (A) (A) (A)
                 (A) (A) (A) (A) (A) (A) (A) (A) (A) (A) (A) (A)
                 (A) (A) (A) (A) (A) (A) (A) (A) (A) (A) (A) (A)
                 (A) (A) (A) (A) (A) (A) (A) (A) (A) (A) (A) (A)
                 (A) (A) (A) (A) (A) (A) (A) (A) (A) (A) (A) (A)
                 (A) (A) (A)
 The electronic state is 2-A.
 Alpha  occ. eigenvalues --  -19.62451 -10.58739 -10.54414 -10.54288 -10.53496
 Alpha  occ. eigenvalues --   -1.14728  -0.90154  -0.80838  -0.73572  -0.65015
 Alpha  occ. eigenvalues --   -0.58883  -0.53694  -0.52082  -0.50102  -0.48362
 Alpha  occ. eigenvalues --   -0.43941  -0.43360  -0.40366  -0.39975  -0.35416
 Alpha  occ. eigenvalues --   -0.24661
 Alpha virt. eigenvalues --    0.01569   0.02657   0.02955   0.04076   0.06096
 Alpha virt. eigenvalues --    0.06291   0.07213   0.07719   0.08839   0.10467
 Alpha virt. eigenvalues --    0.11400   0.11970   0.12600   0.13352   0.14938
 Alpha virt. eigenvalues --    0.15902   0.18089   0.19479   0.20165   0.20600
 Alpha virt. eigenvalues --    0.22549   0.23220   0.24046   0.25051   0.26536
 Alpha virt. eigenvalues --    0.27476   0.28237   0.29110   0.31610   0.31872
 Alpha virt. eigenvalues --    0.32839   0.33648   0.37312   0.41671   0.44709
 Alpha virt. eigenvalues --    0.45956   0.46933   0.48476   0.49686   0.50517
 Alpha virt. eigenvalues --    0.53164   0.53458   0.54196   0.56248   0.57482
 Alpha virt. eigenvalues --    0.59023   0.59594   0.59989   0.63058   0.63171
 Alpha virt. eigenvalues --    0.64412   0.64956   0.67098   0.68140   0.68301
 Alpha virt. eigenvalues --    0.69610   0.71759   0.74816   0.79898   0.80606
 Alpha virt. eigenvalues --    0.83747   0.84615   0.89185   0.89643   0.92043
 Alpha virt. eigenvalues --    0.94379   0.96611   1.00543   1.02595   1.05438
 Alpha virt. eigenvalues --    1.07210   1.07386   1.12047   1.13932   1.15608
 Alpha virt. eigenvalues --    1.16389   1.18380   1.19213   1.20744   1.20885
 Alpha virt. eigenvalues --    1.21938   1.25111   1.27823   1.29405   1.30300
 Alpha virt. eigenvalues --    1.31192   1.32498   1.33355   1.37167   1.38998
 Alpha virt. eigenvalues --    1.40634   1.41949   1.42765   1.43934   1.46196
 Alpha virt. eigenvalues --    1.49008   1.49296   1.51194   1.52476   1.52802
 Alpha virt. eigenvalues --    1.55092   1.57211   1.59644   1.60380   1.63793
 Alpha virt. eigenvalues --    1.65698   1.67595   1.70013   1.80854   1.91846
 Alpha virt. eigenvalues --    2.06801   2.11610   2.29215   2.32153   2.39939
 Alpha virt. eigenvalues --    2.46163   2.48793   2.50824   2.57134   2.63829
 Alpha virt. eigenvalues --    2.68215   2.68462   2.71817   2.73842   2.79331
 Alpha virt. eigenvalues --    2.80894   2.82270   2.84092   2.87226   2.87676
 Alpha virt. eigenvalues --    2.90541   2.97409   2.99845   3.01919   3.07654
 Alpha virt. eigenvalues --    3.09500   3.10071   3.11971   3.14219   3.16235
 Alpha virt. eigenvalues --    3.17253   3.20419   3.23774   3.25283   3.29022
 Alpha virt. eigenvalues --    3.31742   3.33549   3.35013   3.37233   3.40163
 Alpha virt. eigenvalues --    3.43427   3.43745   3.47319   3.49351   3.52025
 Alpha virt. eigenvalues --    3.56158   3.57409   3.58412   3.61331   3.63131
 Alpha virt. eigenvalues --    3.68112   3.68896   3.72791   3.73875   3.75864
 Alpha virt. eigenvalues --    3.79039   3.83865   3.87711   3.91226   3.92410
 Alpha virt. eigenvalues --    3.94358   3.95281   3.97559   3.99535   4.01723
 Alpha virt. eigenvalues --    4.03128   4.06897   4.10310   4.12290   4.15952
 Alpha virt. eigenvalues --    4.16725   4.17854   4.19944   4.25384   4.25896
 Alpha virt. eigenvalues --    4.29074   4.32790   4.34093   4.37585   4.38245
 Alpha virt. eigenvalues --    4.43387   4.43788   4.49456   4.51621   4.53865
 Alpha virt. eigenvalues --    4.54697   4.56581   4.62442   4.68501   4.71111
 Alpha virt. eigenvalues --    4.92764   4.99114   5.10785   5.23158   5.23439
 Alpha virt. eigenvalues --    5.26852   5.37738   5.41341   5.44230   5.48317
 Alpha virt. eigenvalues --    5.51246   5.51807   5.54763   5.55649   5.59079
 Alpha virt. eigenvalues --    5.65539   5.87881   5.94339   6.55858   6.96954
 Alpha virt. eigenvalues --    7.09572   7.19115   7.22425   7.50331   7.64996
 Alpha virt. eigenvalues --   24.13442  24.28639  24.41950  24.48827  50.11956
  Beta  occ. eigenvalues --  -19.62451 -10.58806 -10.54354 -10.53721 -10.53454
  Beta  occ. eigenvalues --   -1.14691  -0.88881  -0.79848  -0.72735  -0.63540
  Beta  occ. eigenvalues --   -0.58247  -0.52843  -0.51597  -0.49244  -0.47955
  Beta  occ. eigenvalues --   -0.43385  -0.42553  -0.39839  -0.39427  -0.34990
  Beta virt. eigenvalues --   -0.02197   0.00900   0.02733   0.02937   0.03622
  Beta virt. eigenvalues --    0.05902   0.06236   0.07044   0.07339   0.08650
  Beta virt. eigenvalues --    0.10430   0.10863   0.11547   0.12460   0.13082
  Beta virt. eigenvalues --    0.14227   0.14871   0.18225   0.19257   0.19927
  Beta virt. eigenvalues --    0.20890   0.22689   0.23027   0.24486   0.25366
  Beta virt. eigenvalues --    0.26770   0.27707   0.28447   0.29296   0.31885
  Beta virt. eigenvalues --    0.32284   0.33539   0.33618   0.37787   0.41848
  Beta virt. eigenvalues --    0.44899   0.46198   0.47036   0.48844   0.49861
  Beta virt. eigenvalues --    0.50845   0.53274   0.54044   0.54576   0.56260
  Beta virt. eigenvalues --    0.57914   0.58958   0.59772   0.60339   0.63443
  Beta virt. eigenvalues --    0.63747   0.64578   0.65392   0.67044   0.68230
  Beta virt. eigenvalues --    0.69004   0.69348   0.71960   0.74845   0.79780
  Beta virt. eigenvalues --    0.80541   0.83522   0.84490   0.88851   0.89764
  Beta virt. eigenvalues --    0.91596   0.94354   0.96950   1.00802   1.02125
  Beta virt. eigenvalues --    1.05384   1.07192   1.07587   1.11514   1.14021
  Beta virt. eigenvalues --    1.15673   1.16504   1.18225   1.19046   1.20638
  Beta virt. eigenvalues --    1.20901   1.21716   1.25063   1.27688   1.29336
  Beta virt. eigenvalues --    1.30561   1.31248   1.32843   1.33614   1.37299
  Beta virt. eigenvalues --    1.39321   1.41015   1.41953   1.43089   1.43687
  Beta virt. eigenvalues --    1.46476   1.48725   1.49264   1.51519   1.52278
  Beta virt. eigenvalues --    1.53003   1.55262   1.57458   1.59580   1.60450
  Beta virt. eigenvalues --    1.63952   1.65839   1.68027   1.70536   1.81206
  Beta virt. eigenvalues --    1.92108   2.07218   2.11836   2.29198   2.32358
  Beta virt. eigenvalues --    2.40506   2.46503   2.49376   2.51604   2.57880
  Beta virt. eigenvalues --    2.64444   2.68882   2.69410   2.72456   2.75236
  Beta virt. eigenvalues --    2.81398   2.82275   2.84828   2.88013   2.88541
  Beta virt. eigenvalues --    2.89466   2.93078   2.98437   3.01787   3.03035
  Beta virt. eigenvalues --    3.08764   3.10597   3.11136   3.12705   3.15047
  Beta virt. eigenvalues --    3.17441   3.18138   3.21849   3.25295   3.26515
  Beta virt. eigenvalues --    3.29343   3.33397   3.34900   3.36038   3.38966
  Beta virt. eigenvalues --    3.42441   3.44945   3.46081   3.48737   3.52076
  Beta virt. eigenvalues --    3.55106   3.56362   3.57820   3.60096   3.62350
  Beta virt. eigenvalues --    3.63787   3.68677   3.69309   3.72870   3.74681
  Beta virt. eigenvalues --    3.76769   3.79130   3.84466   3.88156   3.92474
  Beta virt. eigenvalues --    3.93241   3.95002   3.96521   3.98300   4.00565
  Beta virt. eigenvalues --    4.02529   4.03960   4.07738   4.11107   4.13473
  Beta virt. eigenvalues --    4.17056   4.17968   4.19131   4.20279   4.25932
  Beta virt. eigenvalues --    4.26479   4.30147   4.33879   4.35144   4.38646
  Beta virt. eigenvalues --    4.38817   4.45093   4.45965   4.49976   4.52655
  Beta virt. eigenvalues --    4.54199   4.55380   4.57448   4.63492   4.70226
  Beta virt. eigenvalues --    4.74473   4.95669   5.01242   5.12025   5.23268
  Beta virt. eigenvalues --    5.23707   5.28131   5.37425   5.41444   5.47153
  Beta virt. eigenvalues --    5.49472   5.51471   5.53269   5.55192   5.55806
  Beta virt. eigenvalues --    5.59008   5.66946   5.88149   5.94485   6.55866
  Beta virt. eigenvalues --    6.96975   7.09622   7.19154   7.22462   7.50351
  Beta virt. eigenvalues --    7.65034  24.14146  24.28896  24.41976  24.49441
  Beta virt. eigenvalues --   50.11955
          Condensed to atoms (all electrons):
               1          2          3          4          5          6
     1  O    8.094972   0.037004   0.180698  -0.008545  -0.092471  -0.000393
     2  C    0.037004   5.864458   0.064884  -0.038695  -0.446455   0.458814
     3  C    0.180698   0.064884   5.048488  -0.049386   0.174623   0.018382
     4  C   -0.008545  -0.038695  -0.049386   5.294560   0.153346  -0.040004
     5  C   -0.092471  -0.446455   0.174623   0.153346   6.173397  -0.064286
     6  H   -0.000393   0.458814   0.018382  -0.040004  -0.064286   0.529174
     7  H    0.000244   0.424932  -0.011209  -0.050222  -0.032609  -0.034255
     8  H    0.000051  -0.055100  -0.018354   0.424796   0.015953  -0.005323
     9  H    0.000002  -0.050279   0.002221   0.415473   0.017683  -0.006769
    10  H    0.000942   0.002800   0.018307   0.386753  -0.040757   0.006183
    11  H   -0.023307   0.072159   0.441823  -0.027134  -0.124965  -0.000526
    12  H   -0.054384  -0.036490   0.423123   0.016793  -0.032722  -0.000310
    13  H    0.004398  -0.005801  -0.020726  -0.008807   0.388261  -0.007168
    14  H    0.235923  -0.013724  -0.039848   0.006801   0.030085  -0.000017
               7          8          9         10         11         12
     1  O    0.000244   0.000051   0.000002   0.000942  -0.023307  -0.054384
     2  C    0.424932  -0.055100  -0.050279   0.002800   0.072159  -0.036490
     3  C   -0.011209  -0.018354   0.002221   0.018307   0.441823   0.423123
     4  C   -0.050222   0.424796   0.415473   0.386753  -0.027134   0.016793
     5  C   -0.032609   0.015953   0.017683  -0.040757  -0.124965  -0.032722
     6  H   -0.034255  -0.005323  -0.006769   0.006183  -0.000526  -0.000310
     7  H    0.557614   0.006782  -0.003075  -0.010046   0.000134  -0.000076
     8  H    0.006782   0.530842  -0.020443  -0.037970   0.000984  -0.000902
     9  H   -0.003075  -0.020443   0.532629  -0.022248   0.000043   0.000387
    10  H   -0.010046  -0.037970  -0.022248   0.560956  -0.001973  -0.006285
    11  H    0.000134   0.000984   0.000043  -0.001973   0.570301  -0.052561
    12  H   -0.000076  -0.000902   0.000387  -0.006285  -0.052561   0.573684
    13  H    0.002127   0.000394  -0.000162  -0.000054   0.004072   0.000554
    14  H    0.000029  -0.000035   0.000005  -0.000105  -0.011582   0.011727
              13         14
     1  O    0.004398   0.235923
     2  C   -0.005801  -0.013724
     3  C   -0.020726  -0.039848
     4  C   -0.008807   0.006801
     5  C    0.388261   0.030085
     6  H   -0.007168  -0.000017
     7  H    0.002127   0.000029
     8  H    0.000394  -0.000035
     9  H   -0.000162   0.000005
    10  H   -0.000054  -0.000105
    11  H    0.004072  -0.011582
    12  H    0.000554   0.011727
    13  H    0.454745  -0.000600
    14  H   -0.000600   0.531095
          Atomic-Atomic Spin Densities.
               1          2          3          4          5          6
     1  O    0.006568   0.001214   0.002098  -0.000515  -0.006838  -0.000143
     2  C    0.001214  -0.004137   0.020043  -0.011913  -0.127633  -0.011761
     3  C    0.002098   0.020043  -0.074301  -0.002469  -0.063318  -0.000786
     4  C   -0.000515  -0.011913  -0.002469   0.059127  -0.002219   0.010687
     5  C   -0.006838  -0.127633  -0.063318  -0.002219   1.361655   0.003387
     6  H   -0.000143  -0.011761  -0.000786   0.010687   0.003387   0.018006
     7  H    0.000412   0.058076   0.010587  -0.019051  -0.068984  -0.007353
     8  H    0.000141   0.009230   0.005068  -0.005373  -0.008773  -0.000615
     9  H    0.000003   0.000964  -0.000994  -0.002760   0.002417  -0.000643
    10  H   -0.000071  -0.007767  -0.003450   0.002886   0.008107   0.000178
    11  H    0.007543   0.013357   0.022458  -0.003454  -0.048760  -0.000324
    12  H   -0.007782   0.003958   0.029367   0.003085  -0.042069   0.000433
    13  H    0.001595   0.015361   0.011111  -0.004273  -0.026974  -0.000755
    14  H   -0.004106   0.000786   0.006809  -0.000202   0.001768   0.000026
               7          8          9         10         11         12
     1  O    0.000412   0.000141   0.000003  -0.000071   0.007543  -0.007782
     2  C    0.058076   0.009230   0.000964  -0.007767   0.013357   0.003958
     3  C    0.010587   0.005068  -0.000994  -0.003450   0.022458   0.029367
     4  C   -0.019051  -0.005373  -0.002760   0.002886  -0.003454   0.003085
     5  C   -0.068984  -0.008773   0.002417   0.008107  -0.048760  -0.042069
     6  H   -0.007353  -0.000615  -0.000643   0.000178  -0.000324   0.000433
     7  H    0.062403   0.000653   0.001154  -0.000839   0.003129  -0.001429
     8  H    0.000653  -0.001518   0.001017  -0.000401   0.000408  -0.001563
     9  H    0.001154   0.001017  -0.001227   0.000112   0.000073  -0.000125
    10  H   -0.000839  -0.000401   0.000112  -0.000640  -0.000580   0.000583
    11  H    0.003129   0.000408   0.000073  -0.000580   0.059915  -0.019088
    12  H   -0.001429  -0.001563  -0.000125   0.000583  -0.019088   0.075050
    13  H    0.000891   0.000211   0.000022  -0.000030   0.000403  -0.000830
    14  H   -0.000160  -0.000012  -0.000001   0.000013  -0.003572   0.001896
              13         14
     1  O    0.001595  -0.004106
     2  C    0.015361   0.000786
     3  C    0.011111   0.006809
     4  C   -0.004273  -0.000202
     5  C   -0.026974   0.001768
     6  H   -0.000755   0.000026
     7  H    0.000891  -0.000160
     8  H    0.000211  -0.000012
     9  H    0.000022  -0.000001
    10  H   -0.000030   0.000013
    11  H    0.000403  -0.003572
    12  H   -0.000830   0.001896
    13  H   -0.046388  -0.000395
    14  H   -0.000395   0.000353
 Mulliken charges and spin densities:
               1          2
     1  O   -0.375135   0.000119
     2  C   -0.278508  -0.040222
     3  C   -0.233028  -0.037778
     4  C   -0.475730   0.023556
     5  C   -0.119084   0.981767
     6  H    0.146499   0.010336
     7  H    0.149629   0.039489
     8  H    0.158326  -0.001527
     9  H    0.134533   0.000013
    10  H    0.143497  -0.001899
    11  H    0.152530   0.031507
    12  H    0.157461   0.041487
    13  H    0.188766  -0.050052
    14  H    0.250245   0.003203
 Sum of Mulliken charges =  -0.00000   1.00000
 Mulliken charges and spin densities with hydrogens summed into heavy atoms:
               1          2
     1  O   -0.124891   0.003323
     2  C    0.017621   0.009603
     3  C    0.076963   0.035216
     4  C   -0.039375   0.020143
     5  C    0.069682   0.931715
 APT charges:
               1
     1  O   -0.817952
     2  C   -0.948277
     3  C   -0.473501
     4  C   -1.121946
     5  C   -0.252070
     6  H    0.471323
     7  H    0.385446
     8  H    0.282911
     9  H    0.579912
    10  H    0.245105
    11  H    0.323746
    12  H    0.308597
    13  H    0.439164
    14  H    0.577543
 Sum of APT charges =  -0.00000
 APT charges with hydrogens summed into heavy atoms:
               1
     1  O   -0.240409
     2  C   -0.091509
     3  C    0.158841
     4  C   -0.014018
     5  C    0.187094
 Electronic spatial extent (au):  <R**2>=            583.6751
 Charge=             -0.0000 electrons
 Dipole moment (field-independent basis, Debye):
    X=              1.2893    Y=              0.6509    Z=              0.9880  Tot=              1.7499
 Quadrupole moment (field-independent basis, Debye-Ang):
   XX=            -35.4981   YY=            -32.7115   ZZ=            -32.8057
   XY=             -2.4688   XZ=             -3.2377   YZ=             -0.0121
 Traceless Quadrupole moment (field-independent basis, Debye-Ang):
   XX=             -1.8263   YY=              0.9603   ZZ=              0.8661
   XY=             -2.4688   XZ=             -3.2377   YZ=             -0.0121
 Octapole moment (field-independent basis, Debye-Ang**2):
  XXX=             -1.1741  YYY=             -0.3340  ZZZ=              0.8886  XYY=             -4.5653
  XXY=             10.1442  XXZ=              8.8169  XZZ=             -3.8913  YZZ=             -0.6186
  YYZ=             -1.7126  XYZ=             -1.6133
 Hexadecapole moment (field-independent basis, Debye-Ang**3):
 XXXX=           -565.5900 YYYY=           -146.7212 ZZZZ=            -63.7430 XXXY=            -24.3236
 XXXZ=            -24.3342 YYYX=              2.0280 YYYZ=             -3.4446 ZZZX=             -2.1301
 ZZZY=              0.9713 XXYY=           -117.8020 XXZZ=           -103.5461 YYZZ=            -33.1228
 XXYZ=              3.8482 YYXZ=             -0.5373 ZZXY=              0.3259
 N-N= 1.782555381838D+02 E-N=-8.993929198651D+02  KE= 2.318794249420D+02
  Exact polarizability:   0.000   0.000   0.000   0.000   0.000   0.000
 Approx polarizability:  64.471  -0.814  61.706   0.702   0.054  59.825
                          Isotropic Fermi Contact Couplings
        Atom                 a.u.       MegaHertz       Gauss      10(-4) cm-1
     1  O(17)              0.00543      -3.29144      -1.17447      -1.09791
     2  C(13)             -0.03229     -36.29572     -12.95122     -12.10695
     3  C(13)             -0.03544     -39.83836     -14.21532     -13.28865
     4  C(13)              0.03000      33.72616      12.03433      11.24984
     5  C(13)              0.17977     202.09279      72.11173      67.41090
     6  H(1)               0.00336      15.03422       5.36458       5.01488
     7  H(1)               0.02462     110.05498      39.27035      36.71039
     8  H(1)              -0.00046      -2.05692      -0.73396      -0.68611
     9  H(1)               0.00022       1.00078       0.35710       0.33383
    10  H(1)              -0.00033      -1.48697      -0.53059      -0.49600
    11  H(1)               0.01659      74.13315      26.45255      24.72816
    12  H(1)               0.02284     102.07578      36.42318      34.04882
    13  H(1)              -0.01473     -65.83312     -23.49089     -21.95956
    14  H(1)              -0.00008      -0.34917      -0.12459      -0.11647
 --------------------------------------------------------
       Center         ----  Spin Dipole Couplings  ----
                      3XX-RR        3YY-RR        3ZZ-RR
 --------------------------------------------------------
     1   Atom        0.014577      0.000046     -0.014623
     2   Atom        0.006653     -0.008783      0.002130
     3   Atom       -0.001771      0.000394      0.001377
     4   Atom        0.000051      0.018867     -0.018917
     5   Atom       -0.468647     -0.232555      0.701203
     6   Atom        0.014652     -0.006347     -0.008305
     7   Atom        0.011437     -0.009877     -0.001560
     8   Atom        0.001518      0.001384     -0.002901
     9   Atom        0.005601     -0.001709     -0.003892
    10   Atom       -0.000787      0.004857     -0.004070
    11   Atom       -0.005717      0.007589     -0.001872
    12   Atom       -0.004091      0.013359     -0.009268
    13   Atom       -0.050301      0.029367      0.020934
    14   Atom        0.013133     -0.006409     -0.006723
 --------------------------------------------------------
                        XY            XZ            YZ
 --------------------------------------------------------
     1   Atom        0.005076      0.008027      0.006154
     2   Atom       -0.005750     -0.003809      0.005126
     3   Atom        0.010167      0.003548      0.007910
     4   Atom       -0.024318     -0.000159      0.001701
     5   Atom       -0.149908     -0.296177      0.609013
     6   Atom        0.006463     -0.003878      0.000101
     7   Atom        0.000444      0.012628      0.001221
     8   Atom       -0.007735     -0.002962      0.005108
     9   Atom       -0.003828      0.000435      0.000238
    10   Atom       -0.005598      0.001749     -0.003979
    11   Atom        0.007447     -0.005239     -0.011465
    12   Atom        0.007032     -0.000399      0.003681
    13   Atom       -0.043521      0.013449     -0.033720
    14   Atom        0.003601     -0.002497     -0.000167
 --------------------------------------------------------


 ---------------------------------------------------------------------------------
              Anisotropic Spin Dipole Couplings in Principal Axis System
 ---------------------------------------------------------------------------------

       Atom             a.u.   MegaHertz   Gauss  10(-4) cm-1        Axes

              Baa    -0.0180     1.302     0.465     0.434 -0.1909 -0.2684  0.9442
     1 O(17)  Bbb    -0.0009     0.067     0.024     0.022 -0.3885  0.9040  0.1784
              Bcc     0.0189    -1.369    -0.488    -0.457  0.9015  0.3328  0.2768
 
              Baa    -0.0118    -1.578    -0.563    -0.526  0.2329  0.9314 -0.2798
     2 C(13)  Bbb     0.0001     0.017     0.006     0.006  0.5679  0.1033  0.8166
              Bcc     0.0116     1.561     0.557     0.521  0.7895 -0.3491 -0.5049
 
              Baa    -0.0116    -1.561    -0.557    -0.521 -0.6463  0.7174 -0.2600
     3 C(13)  Bbb    -0.0031    -0.417    -0.149    -0.139 -0.5549 -0.2080  0.8055
              Bcc     0.0147     1.978     0.706     0.660  0.5238  0.6648  0.5326
 
              Baa    -0.0192    -2.579    -0.920    -0.860 -0.2356 -0.1930  0.9525
     4 C(13)  Bbb    -0.0164    -2.194    -0.783    -0.732  0.7909  0.5315  0.3033
              Bcc     0.0356     4.774     1.703     1.592 -0.5648  0.8248  0.0274
 
              Baa    -0.5414   -72.653   -25.924   -24.234  0.9092  0.4161  0.0128
     5 C(13)  Bbb    -0.5318   -71.356   -25.462   -23.802 -0.3592  0.7996 -0.4812
              Bcc     1.0732   144.009    51.386    48.036 -0.2105  0.4330  0.8765
 
              Baa    -0.0097    -5.176    -1.847    -1.727  0.2712 -0.5463  0.7925
     6 H(1)   Bbb    -0.0073    -3.907    -1.394    -1.303 -0.1293  0.7952  0.5924
              Bcc     0.0170     9.084     3.241     3.030  0.9538  0.2631 -0.1450
 
              Baa    -0.0105    -5.582    -1.992    -1.862  0.2677  0.8276 -0.4933
     7 H(1)   Bbb    -0.0087    -4.650    -1.659    -1.551 -0.4487  0.5602  0.6963
              Bcc     0.0192    10.231     3.651     3.413  0.8526  0.0349  0.5213
 
              Baa    -0.0073    -3.882    -1.385    -1.295  0.4516  0.7168 -0.5313
     8 H(1)   Bbb    -0.0042    -2.237    -0.798    -0.746  0.6255  0.1702  0.7614
              Bcc     0.0115     6.119     2.183     2.041 -0.6362  0.6762  0.3715
 
              Baa    -0.0041    -2.188    -0.781    -0.730 -0.2024 -0.4121  0.8884
     9 H(1)   Bbb    -0.0031    -1.678    -0.599    -0.560  0.3372  0.8224  0.4583
              Bcc     0.0072     3.867     1.380     1.290  0.9194 -0.3923  0.0275
 
              Baa    -0.0057    -3.015    -1.076    -1.006  0.1748  0.4288  0.8863
    10 H(1)   Bbb    -0.0040    -2.138    -0.763    -0.713  0.8545  0.3812 -0.3529
              Bcc     0.0097     5.152     1.839     1.719 -0.4892  0.8191 -0.2998
 
              Baa    -0.0096    -5.134    -1.832    -1.713  0.3435  0.4132  0.8434
    11 H(1)   Bbb    -0.0090    -4.822    -1.721    -1.608  0.8716 -0.4747 -0.1224
              Bcc     0.0187     9.956     3.553     3.321  0.3498  0.7771 -0.5232
 
              Baa    -0.0104    -5.532    -1.974    -1.845  0.3251 -0.2383  0.9152
    12 H(1)   Bbb    -0.0059    -3.153    -1.125    -1.052  0.8894 -0.2517 -0.3815
              Bcc     0.0163     8.685     3.099     2.897  0.3213  0.9380  0.1302
 
              Baa    -0.0695   -37.074   -13.229   -12.367  0.9131  0.4075  0.0162
    13 H(1)   Bbb    -0.0041    -2.169    -0.774    -0.724 -0.2436  0.5131  0.8231
              Bcc     0.0736    39.244    14.003    13.090 -0.3271  0.7554 -0.5677
 
              Baa    -0.0073    -3.900    -1.391    -1.301 -0.2069  0.7017 -0.6818
    14 H(1)   Bbb    -0.0068    -3.609    -1.288    -1.204 -0.0345  0.6912  0.7219
              Bcc     0.0141     7.509     2.679     2.505  0.9778  0.1729 -0.1188
 

 ---------------------------------------------------------------------------------

 No NMR shielding tensors so no spin-rotation constants.
 Leave Link  601 at Tue Apr  9 00:58:28 2019, MaxMem=   671088640 cpu:               8.5 elap:               0.5
 (Enter /shared/centos7/gaussian/g16/l701.exe)
 SCFChk:  SCF convergence  5.43D-09 required  1.00D-08
 ... and contract with generalized density number  0.
 Compute integral second derivatives.
 Entering OneElI...
 Calculate overlap and kinetic energy integrals
    NBasis = 276  MinDer = 2  MaxDer = 2
 Requested accuracy = 0.1000D-12
 PrmmSu-InSpLW:  IPartL=    0 NPrtUS=   20 NPrtUL=    1 DoSpLW=F IThBeg=    0 IThEnd=   19 NThAct=   20.
 PrsmSu:  NPrtUS=  20 ThrOK=T IAlg=1 NPAlg=1 LenDen=           0 ISkipM=0 DoSpLW=F IThBeg=    0 IThEnd=   19.
 Prism:   IPart=     0 DynPar=F LinDyn=F Incr=           1.
 PRISM was handed    33457703 working-precision words and  3641 shell-pairs
 PRISM was handed    33457703 working-precision words and  3641 shell-pairs
 PRISM was handed    33457703 working-precision words and  3641 shell-pairs
 PRISM was handed    33457703 working-precision words and  3641 shell-pairs
 PRISM was handed    33457703 working-precision words and  3641 shell-pairs
 PRISM was handed    33457703 working-precision words and  3641 shell-pairs
 PRISM was handed    33457703 working-precision words and  3641 shell-pairs
 PRISM was handed    33457703 working-precision words and  3641 shell-pairs
 PRISM was handed    33457703 working-precision words and  3641 shell-pairs
 PRISM was handed    33457703 working-precision words and  3641 shell-pairs
 PRISM was handed    33457703 working-precision words and  3641 shell-pairs
 PRISM was handed    33457703 working-precision words and  3641 shell-pairs
 PRISM was handed    33457703 working-precision words and  3641 shell-pairs
 PRISM was handed    33457703 working-precision words and  3641 shell-pairs
 PRISM was handed    33457703 working-precision words and  3641 shell-pairs
 PRISM was handed    33457703 working-precision words and  3641 shell-pairs
 PRISM was handed    33457703 working-precision words and  3641 shell-pairs
 PRISM was handed    33457703 working-precision words and  3641 shell-pairs
 PRISM was handed    33457703 working-precision words and  3641 shell-pairs
 PRISM was handed    33457703 working-precision words and  3641 shell-pairs
 IPart=  5 NShTot=         190 NBatch=          38 AvBLen=         5.0
 IPart=  6 NShTot=         190 NBatch=          38 AvBLen=         5.0
 IPart=  2 NShTot=         203 NBatch=          46 AvBLen=         4.4
 IPart=  1 NShTot=         209 NBatch=          50 AvBLen=         4.2
 IPart=  4 NShTot=         193 NBatch=          41 AvBLen=         4.7
 IPart=  3 NShTot=         200 NBatch=          45 AvBLen=         4.4
 IPart=  0 NShTot=         216 NBatch=          56 AvBLen=         3.9
 IPart=  9 NShTot=         179 NBatch=          34 AvBLen=         5.3
 IPart=  8 NShTot=         183 NBatch=          36 AvBLen=         5.1
 IPart=  7 NShTot=         186 NBatch=          37 AvBLen=         5.0
 IPart= 11 NShTot=         177 NBatch=          34 AvBLen=         5.2
 IPart= 12 NShTot=         173 NBatch=          32 AvBLen=         5.4
 IPart= 13 NShTot=         173 NBatch=          32 AvBLen=         5.4
 IPart= 14 NShTot=         172 NBatch=          32 AvBLen=         5.4
 IPart= 10 NShTot=         177 NBatch=          34 AvBLen=         5.2
 IPart= 15 NShTot=         166 NBatch=          30 AvBLen=         5.5
 IPart= 19 NShTot=         162 NBatch=          29 AvBLen=         5.6
 IPart= 17 NShTot=         164 NBatch=          30 AvBLen=         5.5
 IPart= 18 NShTot=         163 NBatch=          29 AvBLen=         5.6
 IPart= 16 NShTot=         165 NBatch=          30 AvBLen=         5.5
 PrSmSu:  NxtVal=             21.
 Entering OneElI...
 Calculate potential energy integrals
    NBasis = 276  MinDer = 2  MaxDer = 2
 Requested accuracy = 0.1000D-12
 PrmmSu-InSpLW:  IPartL=    0 NPrtUS=   20 NPrtUL=    1 DoSpLW=F IThBeg=    0 IThEnd=   19 NThAct=   20.
 PrsmSu:  NPrtUS=  20 ThrOK=T IAlg=1 NPAlg=1 LenDen=           0 ISkipM=0 DoSpLW=F IThBeg=    0 IThEnd=   19.
 Prism:   IPart=     0 DynPar=F LinDyn=F Incr=          24.
 PRISM was handed    33470138 working-precision words and  3467 shell-pairs
 PRISM was handed    33470138 working-precision words and  3467 shell-pairs
 PRISM was handed    33470138 working-precision words and  3467 shell-pairs
 PRISM was handed    33470138 working-precision words and  3467 shell-pairs
 PRISM was handed    33470138 working-precision words and  3467 shell-pairs
 PRISM was handed    33470138 working-precision words and  3467 shell-pairs
 PRISM was handed    33470138 working-precision words and  3467 shell-pairs
 PRISM was handed    33470138 working-precision words and  3467 shell-pairs
 PRISM was handed    33470138 working-precision words and  3467 shell-pairs
 PRISM was handed    33470138 working-precision words and  3467 shell-pairs
 PRISM was handed    33470138 working-precision words and  3467 shell-pairs
 PRISM was handed    33470138 working-precision words and  3467 shell-pairs
 PRISM was handed    33470138 working-precision words and  3467 shell-pairs
 PRISM was handed    33470138 working-precision words and  3467 shell-pairs
 PRISM was handed    33470138 working-precision words and  3467 shell-pairs
 PRISM was handed    33470138 working-precision words and  3467 shell-pairs
 PRISM was handed    33470138 working-precision words and  3467 shell-pairs
 PRISM was handed    33470138 working-precision words and  3467 shell-pairs
 PRISM was handed    33470138 working-precision words and  3467 shell-pairs
 PRISM was handed    33470138 working-precision words and  3467 shell-pairs
 IPart=  6 NShTot=        2520 NBatch=         180 AvBLen=        14.0
 IPart=  5 NShTot=        2534 NBatch=         181 AvBLen=        14.0
 IPart=  4 NShTot=        2632 NBatch=         188 AvBLen=        14.0
 IPart=  2 NShTot=        2674 NBatch=         191 AvBLen=        14.0
 IPart= 14 NShTot=        2268 NBatch=         162 AvBLen=        14.0
 IPart=  3 NShTot=        2660 NBatch=         190 AvBLen=        14.0
 IPart=  1 NShTot=        2800 NBatch=         200 AvBLen=        14.0
 IPart= 11 NShTot=        2352 NBatch=         168 AvBLen=        14.0
 IPart=  0 NShTot=        2870 NBatch=         205 AvBLen=        14.0
 IPart= 15 NShTot=        2240 NBatch=         160 AvBLen=        14.0
 IPart= 16 NShTot=        2212 NBatch=         158 AvBLen=        14.0
 IPart=  7 NShTot=        2464 NBatch=         176 AvBLen=        14.0
 IPart= 18 NShTot=        2170 NBatch=         155 AvBLen=        14.0
 IPart= 17 NShTot=        2198 NBatch=         157 AvBLen=        14.0
 IPart= 13 NShTot=        2282 NBatch=         163 AvBLen=        14.0
 IPart= 12 NShTot=        2310 NBatch=         165 AvBLen=        14.0
 IPart=  8 NShTot=        2436 NBatch=         174 AvBLen=        14.0
 IPart= 10 NShTot=        2366 NBatch=         169 AvBLen=        14.0
 IPart=  9 NShTot=        2380 NBatch=         170 AvBLen=        14.0
 IPart= 19 NShTot=        2170 NBatch=         155 AvBLen=        14.0
 PrSmSu:  NxtVal=            481.
 Polarizability after L701:
                1             2             3 
      1  0.000000D+00
      2  0.000000D+00  0.000000D+00
      3  0.000000D+00  0.000000D+00  0.000000D+00
 Dipole Derivatives after L701:
                 1             2             3             4             5 
      1  -0.117425D+01  0.702100D+00  0.478971D+00 -0.907438D+00 -0.120631D+01
      2   0.349622D-01 -0.635093D+00 -0.206219D+00 -0.495970D+00 -0.934598D+00
      3   0.101933D+00 -0.184610D+00 -0.644512D+00 -0.865644D-01  0.150296D+00
                 6             7             8             9            10 
      1  -0.490223D+00  0.212461D+00 -0.549980D+00  0.361150D+00 -0.144354D+01
      2   0.227633D-01  0.135469D+00 -0.830199D+00  0.107350D+00  0.320905D-01
      3  -0.100280D+01 -0.138788D-01  0.968307D-01 -0.802765D+00  0.234053D-01
                11            12            13            14            15 
      1   0.106520D+01  0.352136D+00 -0.796856D-01  0.303310D+00 -0.525308D-01
      2  -0.909837D+00 -0.437165D-01  0.385496D+00 -0.491163D+00  0.355353D+00
      3   0.283916D-02 -0.101246D+01 -0.401921D-01  0.104651D+00 -0.185361D+00
                16            17            18            19            20 
      1   0.571577D+00  0.579107D+00 -0.454381D+00  0.293877D+00  0.141207D+00
      2   0.294435D+00  0.566414D+00 -0.349437D+00  0.643221D-01  0.251413D+00
      3  -0.994506D-01 -0.151300D+00  0.275977D+00  0.848157D-01  0.104299D+00
                21            22            23            24            25 
      1   0.616997D+00 -0.474277D-01 -0.248642D+00 -0.635597D+00  0.151259D+01
      2   0.364151D+00  0.105511D+00  0.288459D+00  0.383896D+00 -0.310970D+00
      3   0.611046D+00  0.122608D+00  0.149765D+00  0.607702D+00  0.117700D-01
                26            27            28            29            30 
      1   0.745309D-01  0.154590D+00 -0.129369D+00 -0.406063D+00  0.342877D+00
      2   0.118875D+00 -0.303286D-01  0.259400D+00  0.530273D+00 -0.355856D+00
      3   0.386121D-02  0.108271D+00 -0.123059D+00 -0.178537D+00  0.334412D+00
                31            32            33            34            35 
      1   0.115256D+00  0.150902D+00 -0.351613D+00  0.814818D-01  0.251184D+00
      2  -0.387284D-01  0.273853D+00 -0.260366D+00 -0.162614D+00  0.520253D+00
      3   0.394798D-01 -0.146987D+00  0.582128D+00 -0.478998D-01  0.163818D+00
                36            37            38            39            40 
      1   0.187191D+00  0.228328D+00 -0.174595D+00  0.122679D+00  0.766141D+00
      2   0.264966D+00 -0.206034D+00  0.765630D+00 -0.437269D+00 -0.973684D-01
      3   0.324055D+00  0.100044D+00 -0.297538D+00  0.323534D+00 -0.730110D-01
                41            42 
      1  -0.681959D+00 -0.632245D+00
      2   0.485718D+00  0.184714D+00
      3   0.182612D+00  0.480769D+00
 Hessian after L701:
                1             2             3             4             5 
      1  0.325189D+01
      2  0.188680D+01  0.949037D+01
      3  0.375986D-01 -0.158626D+01  0.101350D+02
      4  0.382636D+00  0.350175D-01  0.227091D+00  0.102380D+02
      5  0.158167D-01 -0.224944D+00  0.466480D-01  0.476001D+00  0.119817D+02
      6  0.159086D+00  0.287631D-01 -0.185375D+00 -0.322069D+00  0.171075D+00
      7  0.225206D+00 -0.134894D+01  0.929237D+00 -0.132044D-01  0.121986D+00
      8 -0.128041D+01 -0.642134D+01 -0.132506D+00  0.123428D+00 -0.321282D-01
      9  0.824380D+00 -0.143004D+00 -0.660754D+01 -0.148278D+00 -0.676491D-01
     10  0.103145D+00 -0.179664D-01 -0.320782D-01 -0.402933D+01 -0.155597D+01
     11  0.958677D-02 -0.856220D-01  0.422378D-02 -0.157003D+01 -0.138022D+01
     12 -0.102416D-01 -0.879611D-03 -0.947293D-01 -0.186881D+00  0.499061D+00
     13  0.393901D+00  0.531872D+00 -0.251678D+00 -0.308261D+00 -0.403423D+00
     14  0.329272D+00 -0.628222D-01 -0.867038D-01 -0.310914D+00 -0.465853D+01
     15 -0.189039D+00 -0.388973D-01 -0.246582D+00  0.672253D+00 -0.110498D+00
     16  0.186330D-01  0.161443D-01 -0.155687D-02 -0.301751D+01  0.950923D+00
     17  0.229623D-01  0.292790D-02 -0.127684D-02  0.921645D+00 -0.236316D+01
     18 -0.129309D-01 -0.893039D-02 -0.995872D-02 -0.659645D+00 -0.950333D+00
     19  0.252091D-01  0.140224D-01  0.125211D-01 -0.336312D+01  0.174355D+00
     20  0.159086D-01 -0.702679D-02  0.535838D-02  0.168749D+00 -0.328727D+01
     21  0.297008D-01  0.135464D-01 -0.829506D-03  0.537799D+00  0.653395D+00
     22  0.172930D-01 -0.658341D-02 -0.751575D-02  0.809097D-01  0.657463D-01
     23 -0.150494D-01 -0.110927D-01  0.303556D-02  0.148661D-01 -0.511979D-01
     24 -0.272895D-01  0.397472D-02 -0.653460D-02  0.182870D-01 -0.815412D-01
     25  0.246511D-01  0.434489D-03  0.329833D-02  0.498299D-01  0.410207D-01
     26 -0.123271D-02 -0.582805D-02 -0.378945D-04  0.678147D-01  0.347230D-02
     27  0.210673D-02  0.000000D+00 -0.657131D-02  0.150349D-01  0.291066D-02
     28  0.216149D-01 -0.987732D-02  0.711759D-02  0.238779D-02  0.181037D-01
     29 -0.294165D-01 -0.863301D-02 -0.826338D-02 -0.571045D-01 -0.315811D-01
     30  0.219879D-01 -0.646644D-02 -0.101461D-01  0.333948D-02 -0.440124D-01
     31 -0.994646D-01 -0.384616D-01  0.867490D-01  0.554902D-01  0.119301D+00
     32 -0.593382D-01  0.454311D-01 -0.146455D+00  0.153366D+00 -0.458708D-01
     33  0.126796D+00 -0.136769D+00  0.309341D+00 -0.149686D+00 -0.815173D-01
     34 -0.152909D+00  0.424385D-01 -0.609000D-01  0.180367D-02 -0.228103D-01
     35  0.210940D-01  0.135853D+00  0.108912D+00 -0.129688D-01  0.264289D-02
     36 -0.883669D-01  0.110461D+00  0.139423D+00 -0.883156D-02 -0.952711D-02
     37  0.199914D-01  0.642779D-01 -0.599851D-02 -0.472498D-01  0.312916D-02
     38  0.122621D+00  0.535400D-01 -0.221285D-01 -0.114614D-01  0.746010D-01
     39 -0.419419D-01 -0.503499D-01 -0.584877D-01  0.948498D-03 -0.342491D-01
     40 -0.423179D+01 -0.116918D+01 -0.943886D+00 -0.324132D-01 -0.417903D-02
     41 -0.103862D+01 -0.290081D+01  0.181546D+01  0.159139D-02  0.124472D-01
     42 -0.831846D+00  0.181481D+01 -0.335700D+01  0.637703D-03  0.623622D-02
                6             7             8             9            10 
      6  0.136953D+02
      7 -0.216357D+00  0.991906D+01
[...]
 ! A22   A(3,5,13)             116.9651         -DE/DX =    0.0                 !
 ! D1    D(14,1,3,5)           -49.5357         -DE/DX =    0.0                 !
 ! D2    D(14,1,3,11)           74.1287         -DE/DX =    0.0                 !
 ! D3    D(14,1,3,12)         -171.1178         -DE/DX =    0.0                 !
 ! D4    D(5,2,4,8)             59.5076         -DE/DX =    0.0                 !
 ! D5    D(5,2,4,9)            179.8314         -DE/DX =    0.0                 !
 ! D6    D(5,2,4,10)           -60.1027         -DE/DX =    0.0                 !
 ! D7    D(6,2,4,8)            -63.0254         -DE/DX =    0.0                 !
 ! D8    D(6,2,4,9)             57.2984         -DE/DX =    0.0                 !
 ! D9    D(6,2,4,10)           177.3643         -DE/DX =    0.0                 !
 ! D10   D(7,2,4,8)           -179.2368         -DE/DX =    0.0                 !
 ! D11   D(7,2,4,9)            -58.913          -DE/DX =    0.0                 !
 ! D12   D(7,2,4,10)            61.1529         -DE/DX =    0.0                 !
 ! D13   D(4,2,5,3)             71.3988         -DE/DX =    0.0                 !
 ! D14   D(4,2,5,13)           -91.0838         -DE/DX =    0.0                 !
 ! D15   D(6,2,5,3)           -166.5991         -DE/DX =    0.0                 !
 ! D16   D(6,2,5,13)            30.9182         -DE/DX =    0.0                 !
 ! D17   D(7,2,5,3)            -49.2657         -DE/DX =    0.0                 !
 ! D18   D(7,2,5,13)           148.2517         -DE/DX =    0.0                 !
 ! D19   D(1,3,5,2)            154.6201         -DE/DX =    0.0                 !
 ! D20   D(1,3,5,13)           -42.4025         -DE/DX =    0.0                 !
 ! D21   D(11,3,5,2)            30.176          -DE/DX =    0.0                 !
 ! D22   D(11,3,5,13)         -166.8467         -DE/DX =    0.0                 !
 ! D23   D(12,3,5,2)           -87.5608         -DE/DX =    0.0                 !
 ! D24   D(12,3,5,13)           75.4166         -DE/DX =    0.0                 !
 --------------------------------------------------------------------------------
 GradGradGradGradGradGradGradGradGradGradGradGradGradGradGradGradGradGrad

 Leave Link  103 at Tue Apr  9 01:15:29 2019, MaxMem=   671088640 cpu:               0.4 elap:               0.1
 (Enter /shared/centos7/gaussian/g16/l9999.exe)

 ----------------------------------------------------------------------

 Electric dipole moment (input orientation):
 (Debye = 10**-18 statcoulomb cm , SI units = C m)
                  (au)            (Debye)         (10**-30 SI)
   Tot        0.766757D+00      0.194890D+01      0.650084D+01
   x          0.564836D+00      0.143567D+01      0.478888D+01
   y         -0.347402D+00     -0.883009D+00     -0.294540D+01
   z          0.384952D+00      0.978451D+00      0.326376D+01

 Dipole polarizability, Alpha (input orientation).
 (esu units = cm**3 , SI units = C**2 m**2 J**-1)
 Alpha(0;0):
               (au)            (10**-24 esu)      (10**-40 SI)
   iso        0.551123D+02      0.816680D+01      0.908679D+01
   aniso      0.151430D+02      0.224396D+01      0.249674D+01
   xx         0.632311D+02      0.936988D+01      0.104254D+02
   yx        -0.500108D+01     -0.741084D+00     -0.824567D+00
   yy         0.503304D+02      0.745820D+01      0.829837D+01
   zx        -0.421791D+00     -0.625030D-01     -0.695440D-01
   zy         0.113579D+01      0.168306D+00      0.187266D+00
   zz         0.517753D+02      0.767231D+01      0.853659D+01

 ----------------------------------------------------------------------

 Dipole orientation:
     8         14.40750632        -10.10537146        -23.23317098
     6         16.64329982         -9.72043339        -16.48400171
     6         15.97122308        -10.85349537        -21.19242214
     6         19.43287780        -10.46501363        -16.13484774
     6         16.05497022         -8.95455040        -19.12545696
     1         16.18453715         -8.18890474        -15.18400521
     1         15.46403240        -11.33493320        -15.95527298
     1         20.67009400         -8.89174258        -16.62007745
     1         19.81188346        -11.01106157        -14.18593451
     1         19.92210684        -12.05413653        -17.35109833
     1         15.37555986        -12.68944990        -20.42990864
     1         17.84258890        -11.14233860        -22.03216038
     1         16.20861238         -6.98864874        -19.67648567
     1         12.81137374         -9.57413474        -22.55353439

 Electric dipole moment (dipole orientation):
 (Debye = 10**-18 statcoulomb cm , SI units = C m)
                  (au)            (Debye)         (10**-30 SI)
   Tot        0.766757D+00      0.194890D+01      0.650084D+01
   x          0.000000D+00      0.000000D+00      0.000000D+00
   y          0.000000D+00      0.000000D+00      0.000000D+00
   z          0.766757D+00      0.194890D+01      0.650084D+01

 Dipole polarizability, Alpha (dipole orientation).
 (esu units = cm**3 , SI units = C**2 m**2 J**-1)
 Alpha(0;0):
               (au)            (10**-24 esu)      (10**-40 SI)
   iso        0.551123D+02      0.816680D+01      0.908679D+01
   aniso      0.151430D+02      0.224396D+01      0.249674D+01
   xx         0.549830D+02      0.814764D+01      0.906547D+01
   yx        -0.231697D+01     -0.343340D+00     -0.382017D+00
   yy         0.501488D+02      0.743129D+01      0.826843D+01
   zx         0.676366D+01      0.100227D+01      0.111518D+01
   zy        -0.165436D+00     -0.245151D-01     -0.272767D-01
   zz         0.602050D+02      0.892145D+01      0.992646D+01

 ----------------------------------------------------------------------

 Test job not archived.
 1\1\GINC-C0207\Freq\UM062X\6-311+G(2df,2p)\C4H9O1(2)\UNDERKOFFLER.C\09
 -Apr-2019\0\\#P Geom=AllCheck Guess=TCheck SCRF=Check Test GenChk UM06
 2X/6-311+G(2df,2p) Freq\\Gaussian input prepared by ASE\\0,2\O,-5.3753
 611543,2.647802133,-14.2116805844\C,-1.9434375441,1.4683824859,-13.197
 8652309\C,-4.1392724517,2.0005992018,-14.4584457625\C,-0.9520160506,1.
 3725190218,-14.3710616488\C,-3.0819293921,2.3824158914,-13.4866614569\
 H,-1.4116444956,1.8024394782,-12.3064547097\H,-2.3257579952,0.46535546
 49,-12.9847836985\H,-0.5380002211,2.3530951019,-14.6050612729\H,-0.128
 3930667,0.7003486704,-14.1319497055\H,-1.4476379163,0.9956532829,-15.2
 659082372\H,-4.2592427143,0.9089708278,-14.4638509229\H,-3.8680703389,
 2.2900214131,-15.4802944723\H,-3.0136391674,3.4307303314,-13.221604765
 5\H,-5.5874445167,2.539868342,-13.2815424544\\Version=EM64L-G16RevA.03
 \State=2-A\HF=-232.9667372\S2=0.755244\S2-1=0.\S2A=0.750023\RMSD=8.989
 e-09\RMSF=8.718e-07\ZeroPoint=0.1237019\Thermal=0.1307427\Dipole=0.564
 836,-0.3474024,0.3849521\DipoleDeriv=-0.996002,0.1824315,0.017475,0.16
 86851,-0.5529455,-0.0825807,0.0472795,-0.0988066,-0.3255374,0.0390561,
 0.0318024,-0.0230439,0.0073826,0.0859117,-0.0089537,0.0486839,-0.04124
 42,0.1108597,0.7740935,-0.1802927,-0.0434464,-0.1625012,0.3745782,0.02
 66074,-0.1239373,0.0395232,0.2722462,0.0440854,0.0061142,0.0250427,0.0
 462209,0.0757958,-0.0046493,-0.0306984,0.0188226,0.0364563,-0.1065873,
 -0.0246633,0.1807061,-0.1360947,0.1067923,0.0357939,0.1579064,0.047467
 7,-0.2018057,-0.0354762,-0.0010302,-0.0715831,-0.0062637,0.041062,-0.0
 600372,-0.0721337,-0.0322806,-0.0888162,-0.010562,-0.0644795,0.0341643
 ,-0.0274795,-0.119488,0.0506429,0.0180536,0.0217332,0.0370997,0.027236
 ,-0.0328058,0.033986,-0.0844349,-0.0905862,0.0475725,0.0321439,0.01111
 2,0.0325838,-0.1009077,0.1007528,0.0039245,0.121549,-0.0098494,0.01558
 25,-0.0061399,0.0282234,0.0379647,0.0069475,-0.0455443,-0.0783822,-0.0
 29965,0.0395703,-0.0491278,-0.0308764,-0.045634,-0.0797933,-0.0010938,
 0.0044058,0.0027193,0.0389238,-0.192084,-0.0323144,0.0066468,0.0110697
 ,0.0414893,-0.0188063,0.0044862,0.0131449,0.0087279,0.0483021,0.050801
 5,0.0216434,0.0161069,-0.1086625,0.0296607,0.0013329,-0.057706,0.02659
 64,-0.0864284,-0.0443343,-0.0908242,-0.0136753,0.0877085,0.3483562,0.0
 174901,-0.0370013,0.0286534,0.2793692,0.0549964,0.0222524,0.0375819,0.
 148207\Polar=63.2310587,-5.0010845,50.3304401,-0.4217915,1.1357855,51.
 7753026\Quadrupole=-1.608388,0.363135,1.245253,1.5293923,-2.3172343,0.
 7888397\PG=C01 [X(C4H9O1)]\NImag=0\\0.31893262,-0.12141395,0.13046941,
 -0.13871326,-0.04918074,0.59520369,-0.00319254,0.00049237,-0.00201102,
 0.48122420,-0.00520151,0.00107627,-0.00188681,0.04195778,0.55234442,-0
 .00275331,-0.00029615,-0.00158716,0.08245827,0.01121212,0.50082450,-0.
 19538154,0.07076020,0.04723470,-0.01417963,-0.00259795,-0.01711870,0.4
 6739394,0.07644450,-0.10673274,-0.01963305,0.01126703,0.00755619,0.013
 90274,0.01000689,0.56310874,0.01313361,0.00029077,-0.08955601,-0.00243
 644,0.00173880,0.00249323,-0.00995964,-0.01108792,0.53283566,0.0001589
 2,-0.00014211,-0.00011369,-0.11139853,-0.00353423,0.05338634,0.0012212
 0,0.00060911,-0.00130954,0.52460187,0.00052152,0.00003379,0.00006067,0
 .00280776,-0.07252055,-0.00780716,-0.00103376,-0.00057725,0.00064402,0
 .00321568,0.57613713,-0.00051495,-0.00022167,-0.00093465,0.04082972,0.
 00079998,-0.13642907,-0.00005095,0.00078643,0.00094216,0.06204602,-0.0
 0692324,0.50206318,-0.04189539,0.00133230,-0.02282963,-0.15847968,0.06
 981153,-0.04425304,-0.13708461,-0.02494774,-0.07700489,-0.02570854,0.0
 1672706,0.00426824,0.41014332,0.02475562,0.00504681,0.01158728,0.07482
 049,-0.14232715,0.00866781,-0.02818309,-0.10217624,-0.03958418,0.01029
 261,-0.00433272,-0.00569872,-0.06124461,0.58224436,-0.00203208,0.00208
 024,0.00411336,-0.04341893,0.00999456,-0.06818509,-0.08031303,-0.03658
 270,-0.12942646,0.01655923,-0.01469081,0.00804463,0.17506287,0.1102375
 0,0.25880344,-0.00158865,0.00031248,-0.00066286,-0.10845107,-0.0419953
 8,-0.10816126,-0.00103900,0.00397565,-0.00024438,0.01034049,0.00765779
 ,0.02049281,-0.01697186,-0.00918180,-0.01997210,0.12356549,0.00128598,
 0.00019884,0.00047601,-0.04255916,-0.07817428,-0.06679000,0.00146175,-
 0.00257197,-0.00116841,-0.00121317,-0.00009909,-0.00113654,0.01297696,
 0.00750367,0.01789728,0.04196269,0.07925211,-0.00045706,-0.00004134,-0
 .00014071,-0.10797946,-0.06609145,-0.22079630,0.00052714,0.00113968,0.
 00092155,-0.01041912,-0.00905250,-0.02311808,-0.00306425,-0.00187390,-
 0.00387637,0.11402270,0.07429223,0.24153998,-0.00002186,-0.00040034,-0
 .00001916,-0.07666251,-0.08224757,0.01034536,0.00116540,0.00126629,0.0
 0050985,-0.00923200,-0.02087326,0.00635435,0.00686946,0.02495524,-0.00
 238449,-0.00609934,-0.01391963,0.00352854,0.08779137,0.00019845,0.0008
 1219,0.00023477,-0.08629261,-0.26010031,0.04443364,-0.00117342,0.00005
 765,-0.00171243,0.00048158,0.00260225,-0.00072427,-0.00084660,-0.02296
 374,0.00074309,-0.00301950,-0.00859157,0.00117013,0.08794296,0.2867172
 2,0.00005488,-0.00038747,-0.00018495,0.01061462,0.04387568,-0.05638422
 ,0.00043120,0.00122692,0.00021648,0.01288275,0.02412263,-0.00772354,0.
 00275757,0.00397961,0.00008018,-0.00844804,-0.02423202,0.00588345,-0.0
 1973573,-0.04768665,0.05981071,-0.00000366,0.00011685,-0.00002568,-0.0
 0967574,-0.01838910,0.00491940,-0.00027813,-0.00017269,0.00003543,-0.0
 8475885,-0.09071718,0.01878353,0.00166501,-0.00126402,-0.00087696,0.00
 083692,0.00053228,-0.00055566,-0.00222353,0.00066253,0.00365270,0.0902
 2176,-0.00011657,0.00007387,-0.00002854,0.00170860,0.00340322,-0.00048
 845,0.00004376,-0.00008227,0.00007795,-0.09118737,-0.26883569,0.049609
 20,0.00013338,0.00119336,0.00010702,-0.00022720,0.00034512,0.00059237,
 0.00106595,0.00133531,-0.00064259,0.09986933,0.28893939,0.00006529,0.0
 0005824,0.00000158,0.01114822,0.02325544,-0.00635999,0.00008840,-0.000
 24424,0.00006388,0.01869639,0.04935967,-0.05751532,-0.00184833,0.00059
 850,0.00078463,-0.00091579,0.00027289,0.00078080,0.00385726,-0.0006723
 2,-0.00365405,-0.02503078,-0.05416848,0.06215743,-0.00045904,0.0000162
 0,-0.00014459,-0.01528044,0.01193678,-0.00474660,0.00082903,0.00021742
 ,0.00000277,-0.19907022,0.12497450,-0.04813977,-0.00191004,0.00007460,
 0.00419422,0.00096635,-0.00006848,-0.00011196,0.00033828,-0.00049424,-
 0.00060413,0.01076484,-0.00781070,0.00306131,0.21504823,0.00023009,-0.
 00004327,0.00017185,-0.00085705,-0.00047682,0.00056000,-0.00036239,-0.
 00003142,-0.00026089,0.12523703,-0.15147998,0.03860625,0.00129214,0.00
 102744,-0.00089904,0.00010795,-0.00020718,-0.00024208,-0.00001604,0.00
 031703,-0.00041208,0.02256684,-0.01683286,0.00669396,-0.13797096,0.159
 88801,0.00028455,0.00004063,0.00045637,0.02182625,-0.01684168,0.004425
 88,-0.00025863,-0.00026129,-0.00034922,-0.04841158,0.03870372,-0.06060
 195,0.00230046,0.00023166,-0.00331873,-0.00103113,-0.00016031,0.001100
 75,-0.00104385,0.00040877,0.00109787,-0.00476193,0.00298049,-0.0024773
 9,0.04965196,-0.04235213,0.06471930,0.00018043,-0.00019090,-0.00005502
 ,0.00969657,0.00869308,0.01966662,-0.00020567,0.00035713,0.00009160,-0
 .10574131,-0.04375242,-0.10359412,0.00201129,-0.00025100,-0.00018605,-
 0.00259290,0.00059962,0.00422146,0.00102132,-0.00002955,-0.00111316,-0
 .00633006,-0.00296058,-0.00939812,-0.01105386,-0.00982511,-0.01895604,
 0.11344409,-0.00015288,-0.00003738,0.00033936,0.00003351,-0.00086997,-
 0.00055964,0.00031993,0.00031877,-0.00046109,-0.04353367,-0.08067705,-
 0.07586163,-0.00077203,-0.00018582,-0.00042734,0.00021767,0.00098536,0
 .00006644,0.00053644,0.00027958,0.00035412,-0.01352836,-0.00958622,-0.
 02485295,0.00897732,0.00775797,0.01757263,0.04755147,0.08229592,0.0000
 6829,0.00022099,0.00048852,-0.01029796,-0.00893528,-0.02149231,0.00029
 768,-0.00052645,-0.00056810,-0.10302793,-0.07583240,-0.22363505,-0.001
 23412,0.00101674,0.00080247,0.00416665,-0.00000407,-0.00277726,-0.0004
 1489,0.00046172,0.00087501,0.00363775,0.00217470,0.00649654,-0.0028709
 9,-0.00213223,-0.00565430,0.10943029,0.08353324,0.24509164,-0.00848798
 ,0.03945216,0.00244895,0.00064100,-0.00126286,0.00057874,-0.05592299,-
 0.04083777,0.00202694,-0.00010967,0.00001212,-0.00017909,-0.00099330,-
 0.02270279,-0.00116522,0.00020554,0.00017610,0.00004200,0.00000801,0.0
 0061790,-0.00024814,0.00017185,0.00001619,-0.00000728,-0.00001337,0.00
 007633,0.00006633,-0.00004124,-0.00003038,0.00024957,0.06569098,0.0141
 4908,-0.01424950,-0.00366314,0.00085342,0.00060702,0.00021603,-0.03864
 608,-0.28368841,0.00390553,-0.00026999,0.00019816,-0.00011172,-0.00306
 515,-0.01079246,-0.00204752,0.00023991,0.00051881,-0.00005345,-0.00071
 897,0.00080323,-0.00030297,0.00014882,0.00005604,0.00000927,-0.0000436
 4,0.00002782,0.00009864,-0.00033728,-0.00012149,0.00015968,0.03213750,
 0.31655721,0.00194358,-0.00879264,0.00278013,0.00077254,-0.00067055,0.
 00070032,0.00032553,0.00556737,-0.05026503,0.00010200,0.00027206,0.000
 18937,-0.00621566,-0.02435716,-0.00289131,0.00042619,0.00015965,0.0000
 0567,-0.00005520,0.00077050,-0.00016694,0.00002518,-0.00003920,-0.0001
 2369,-0.00005075,-0.00003904,-0.00000592,-0.00004614,0.00001262,-0.000
 10365,0.00072387,-0.00024952,0.05212770,-0.01910885,-0.00090197,0.0374
 5804,-0.00003208,-0.00059893,0.00140359,-0.05282429,-0.01585693,0.0400
 3829,-0.00058803,0.00054642,-0.00020080,0.00441165,0.00500290,-0.02283
 219,-0.00027229,-0.00012847,0.00003767,-0.00013302,-0.00000996,-0.0001
 1353,-0.00011003,-0.00014812,-0.00002280,-0.00008929,-0.00001786,0.000
 39202,-0.00033634,0.00039011,0.00010018,0.00066967,-0.00304260,0.00554
 428,0.07471449,0.01104772,0.00407048,-0.01888546,0.00013521,-0.0001918
 2,-0.00014896,-0.02172753,-0.06993683,0.06841104,-0.00010116,0.0002851
 8,0.00036628,0.00174604,0.00464964,-0.00852070,-0.00001047,0.00019275,
 -0.00011259,-0.00014332,0.00023326,-0.00003063,-0.00004397,-0.00006780
 ,-0.00004889,-0.00007048,-0.00008985,-0.00013887,0.00016781,-0.0002254
 9,-0.00013981,-0.00759658,-0.01007443,0.03011831,0.01308581,0.07207945
 ,0.00802547,-0.00112151,-0.00821721,-0.00002349,-0.00103122,-0.0010391
 5,0.06119634,0.06730809,-0.25891544,-0.00013709,-0.00000218,-0.0005669
 5,-0.00495618,0.00284980,-0.02186976,-0.00060309,0.00016127,0.00002452
 ,0.00006562,0.00005442,0.00002478,-0.00007333,-0.00003047,-0.00006825,
 -0.00008236,0.00014100,0.00034325,-0.00009278,0.00031503,0.00040396,-0
 .00015524,0.00168059,-0.00014622,-0.06382115,-0.06955308,0.28791376,0.
 00294136,0.00094158,0.00156232,0.00577165,0.02292123,0.00439706,0.0008
 8814,-0.01945609,-0.00493601,0.00012910,0.00009388,-0.00048757,-0.0442
 0880,-0.01659798,-0.02321147,0.00089204,-0.00098135,0.00013226,-0.0028
 4889,0.00216242,-0.00019567,-0.00026733,-0.00042471,0.00030888,-0.0002
 5997,-0.00034820,0.00012597,-0.00004724,0.00005783,0.00002132,-0.00270
 232,-0.00155669,-0.00315810,-0.00021387,-0.00006996,-0.00060406,0.0405
 2693,-0.00065360,0.00173399,0.00125290,-0.00434914,-0.01031157,-0.0027
 4967,0.00264962,-0.00557022,0.00024816,0.00008995,-0.00063550,0.000557
 11,-0.01291294,-0.31946424,-0.07899792,0.00000261,0.00071189,0.0002050
 6,0.00243066,-0.00123685,0.00014606,0.00025073,0.00006254,-0.00028557,
 0.00022696,0.00012754,-0.00028657,-0.00004878,0.00003175,-0.00000596,-
 0.00061821,0.00043339,-0.00139570,-0.00027814,-0.00011736,-0.00037160,
 0.01379896,0.33458267,0.00120441,0.00227169,0.00108272,-0.00116264,0.0
 0461105,0.00457138,-0.00093504,-0.02382317,-0.00198540,-0.00036296,0.0
 0125037,-0.00084512,-0.02246849,-0.06967838,-0.04492438,0.00107486,0.0
 0016385,0.00047893,-0.00101791,0.00256278,0.00005153,0.00027567,-0.000
 14123,-0.00009454,-0.00018429,0.00017909,0.00033686,-0.00001982,-0.000
 00832,0.00013714,-0.00323743,-0.00006325,-0.00196230,0.00096334,0.0006
 7435,0.00067288,0.02588415,0.08198881,0.04214355,-0.05207382,0.0096251
 2,0.07587089,0.00001881,0.00050712,-0.00012248,-0.01458185,-0.00287279
 ,0.04005240,0.00015556,-0.00018013,0.00039258,0.00215148,-0.00047618,0
 .00057622,0.00020828,-0.00012512,0.00007573,0.00002731,-0.00019995,0.0
 0006469,-0.00001306,0.00003804,-0.00000264,0.00018948,-0.00011278,-0.0
 0018438,-0.00000509,-0.00006697,-0.00012584,0.00088382,0.00015167,-0.0
 0033732,-0.00608771,0.00358088,0.00126132,-0.00060080,-0.00058869,-0.0
 0001387,0.06972759,-0.00109443,-0.02245274,0.07915489,-0.00001822,-0.0
 0001466,-0.00015233,0.00848206,0.00032600,-0.02104135,0.00005573,-0.00
 009868,-0.00004745,-0.00023034,0.00057711,0.00110634,-0.00004241,-0.00
 006446,0.00000141,0.00012159,-0.00026525,-0.00001061,-0.00003207,-0.00
 000400,0.00002447,0.00003471,0.00001556,0.00000429,0.00002651,0.000034
 07,0.00000913,0.00056030,-0.00027539,-0.00135671,0.00195773,-0.0008071
 7,-0.00040014,-0.00054094,-0.00034802,0.00001236,-0.00928023,0.0233776
 5,0.11969057,0.05507897,-0.50350567,-0.00031969,-0.00003065,-0.0007420
 5,-0.00146501,0.00222760,-0.00640729,0.00010917,-0.00010486,0.00013040
 ,-0.00051454,0.00202344,0.00186338,-0.00014457,0.00006817,-0.00002694,
 0.00001024,-0.00004416,0.00007369,-0.00000531,-0.00000276,0.00000838,0
 .00002518,-0.00001468,-0.00007277,0.00005129,-0.00002247,-0.00006462,-
 0.00114401,0.00042182,-0.00013812,0.00105307,-0.00199099,0.00143984,0.
 00016091,-0.00030511,0.00033676,-0.11750730,-0.05730431,0.50710501\\0.
 00000031,0.00000063,-0.00000121,-0.00000060,-0.00000079,0.00000026,0.0
 0000053,0.00000061,-0.00000090,0.00000022,0.00000006,0.00000091,-0.000
 00030,-0.00000034,0.00000023,-0.00000122,-0.00000162,0.00000093,-0.000
 00092,-0.00000087,-0.00000085,0.00000055,0.00000017,0.00000205,-0.0000
 0006,-0.00000028,0.00000094,0.00000083,0.00000090,0.00000025,0.0000001
 9,0.00000071,-0.00000188,0.00000116,0.00000148,-0.00000043,-0.00000028
 ,-0.00000059,0.00000117,-0.00000041,-0.00000009,-0.00000147\\\@


 ...THE PHYSICISTS HAVE MADE THEIR UNIVERSE, AND IF YOU DO NOT LIKE
 IT, YOU MUST MAKE YOUR OWN.
                               -- E. R. HARRISON IN "COSMOLOGY" (1980)
 Job cpu time:       0 days  1 hours 41 minutes 17.2 seconds.
 Elapsed time:       0 days  0 hours  5 minutes  4.5 seconds.
 File lengths (MBytes):  RWF=   1376 Int=      0 D2E=      0 Chk=     32 Scr=     32
 Normal termination of Gaussian 16 at Tue Apr  9 01:15:29 2019.
