 Entering Gaussian System, Link 0=g16
 Input=GIXGVIVAHMJKNP-UHFFFAOYSA-N_GeoFreq_a2.com
 Output=GIXGVIVAHMJKNP-UHFFFAOYSA-N_GeoFreq_a2.log
 Initial command:
 /shared/centos7/gaussian/g16/l1.exe "/scratch/underkoffler.c/gaussian_scratch/Gau-5420.inp" -scrdir="/scratch/underkoffler.c/gaussian_scratch/"
 Entering Link 1 = /shared/centos7/gaussian/g16/l1.exe PID=      5421.
  
 Copyright (c) 1988,1990,1992,1993,1995,1998,2003,2009,2016,
            Gaussian, Inc.  All Rights Reserved.
  
 This is part of the Gaussian(R) 16 program.  It is based on
 the Gaussian(R) 09 system (copyright 2009, Gaussian, Inc.),
 the Gaussian(R) 03 system (copyright 2003, Gaussian, Inc.),
 the Gaussian(R) 98 system (copyright 1998, Gaussian, Inc.),
 the Gaussian(R) 94 system (copyright 1995, Gaussian, Inc.),
 the Gaussian 92(TM) system (copyright 1992, Gaussian, Inc.),
 the Gaussian 90(TM) system (copyright 1990, Gaussian, Inc.),
 the Gaussian 88(TM) system (copyright 1988, Gaussian, Inc.),
 the Gaussian 86(TM) system (copyright 1986, Carnegie Mellon
 University), and the Gaussian 82(TM) system (copyright 1983,
 Carnegie Mellon University). Gaussian is a federally registered
 trademark of Gaussian, Inc.
  
 This software contains proprietary and confidential information,
 including trade secrets, belonging to Gaussian, Inc.
  
 This software is provided under written license and may be
 used, copied, transmitted, or stored only in accord with that
 written license.
  
 The following legend is applicable only to US Government
 contracts under FAR:
  
                    RESTRICTED RIGHTS LEGEND
  
 Use, reproduction and disclosure by the US Government is
 subject to restrictions as set forth in subparagraphs (a)
 and (c) of the Commercial Computer Software - Restricted
 Rights clause in FAR 52.227-19.
  
 Gaussian, Inc.
 340 Quinnipiac St., Bldg. 40, Wallingford CT 06492
  
  
 ---------------------------------------------------------------
 Warning -- This program may not be used in any manner that
 competes with the business of Gaussian, Inc. or will provide
 assistance to any competitor of Gaussian, Inc.  The licensee
 of this program is prohibited from giving any competitor of
 Gaussian, Inc. access to this program.  By using this program,
 the user acknowledges that Gaussian, Inc. is engaged in the
 business of creating and licensing software in the field of
 computational chemistry and represents and warrants to the
 licensee that it is not a competitor of Gaussian, Inc. and that
 it will not use this program in any manner prohibited above.
 ---------------------------------------------------------------
  

 Cite this work as:
 Gaussian 16, Revision A.03,
 M. J. Frisch, G. W. Trucks, H. B. Schlegel, G. E. Scuseria, 
 M. A. Robb, J. R. Cheeseman, G. Scalmani, V. Barone, 
 G. A. Petersson, H. Nakatsuji, X. Li, M. Caricato, A. V. Marenich, 
 J. Bloino, B. G. Janesko, R. Gomperts, B. Mennucci, H. P. Hratchian, 
 J. V. Ortiz, A. F. Izmaylov, J. L. Sonnenberg, D. Williams-Young, 
 F. Ding, F. Lipparini, F. Egidi, J. Goings, B. Peng, A. Petrone, 
 T. Henderson, D. Ranasinghe, V. G. Zakrzewski, J. Gao, N. Rega, 
 G. Zheng, W. Liang, M. Hada, M. Ehara, K. Toyota, R. Fukuda, 
 J. Hasegawa, M. Ishida, T. Nakajima, Y. Honda, O. Kitao, H. Nakai, 
 T. Vreven, K. Throssell, J. A. Montgomery, Jr., J. E. Peralta, 
 F. Ogliaro, M. J. Bearpark, J. J. Heyd, E. N. Brothers, K. N. Kudin, 
 V. N. Staroverov, T. A. Keith, R. Kobayashi, J. Normand, 
 K. Raghavachari, A. P. Rendell, J. C. Burant, S. S. Iyengar, 
 J. Tomasi, M. Cossi, J. M. Millam, M. Klene, C. Adamo, R. Cammi, 
 J. W. Ochterski, R. L. Martin, K. Morokuma, O. Farkas, 
 J. B. Foresman, and D. J. Fox, Gaussian, Inc., Wallingford CT, 2016.
 
 ******************************************
 Gaussian 16:  EM64L-G16RevA.03 25-Dec-2016
                13-Mar-2019 
 ******************************************
 %nprocshared=20
 Will use up to   20 processors via shared memory.
 %mem=5GB
 ----------------------------------------------------------------------
 #p m062x/6-311+g(2df,2p) opt=(calcfc,verytight,gdiis,maxcycles=900) fr
 eq iop(7/33=1,2/16=3)
 ----------------------------------------------------------------------

 Warning!  Use of Opt=GDIIS is deprecated since it is seldom a good choice.

 1/6=900,7=1,10=4,18=20,19=11,26=3,38=1/1,3;
 2/9=110,12=2,16=3,17=6,18=5,40=1/2;
 3/5=4,6=6,7=214,11=2,25=1,30=1,71=2,74=-55,140=1/1,2,3;
 4//1;
 5/5=2,38=5/2;
 8/6=4,10=90,11=11/1;
 11/6=1,8=1,9=11,15=111,16=1/1,2,10;
 10/6=1,13=1/2;
 6/7=2,8=2,9=2,10=2,28=1/1;
 7/10=1,18=20,25=1,33=1/1,2,3,16;
 1/6=900,7=1,10=4,18=20,19=11,26=3/3(2);
 2/9=110,16=3/2;
 99//99;
 2/9=110,16=3/2;
 3/5=4,6=6,7=214,11=2,25=1,30=1,71=1,74=-55/1,2,3;
 4/5=5,16=3,69=1/1;
 5/5=2,38=5/2;
 7/33=1/1,2,3,16;
 1/6=900,7=1,18=20,19=11,26=3/3(-5);
 2/9=110,16=3/2;
 6/7=2,8=2,9=2,10=2,19=2,28=1/1;
 99/9=1/99;
 Leave Link    1 at Wed Mar 13 04:09:32 2019, MaxMem=   671088640 cpu:              26.1 elap:               1.4
 (Enter /shared/centos7/gaussian/g16/l101.exe)
 ------------------------------
 Gaussian input prepared by ASE
 ------------------------------
 Symbolic Z-matrix:
 Charge =  0 Multiplicity = 2
 O                     1.91379  -0.8121    0.0626 
 C                    -1.00075  -0.05729  -0.53088 
 C                     1.47473   0.53594  -0.07994 
 C                    -2.29862  -0.25238   0.24923 
 C                     0.02944   0.6996    0.23055 
 H                    -1.22238   0.47453  -1.46739 
 H                    -0.58611  -1.02225  -0.83091 
 H                    -2.11871  -0.82515   1.15898 
 H                    -3.04216  -0.7821   -0.34447 
 H                    -2.72299   0.70919   0.54034 
 H                     2.08061   1.20606   0.53542 
 H                     1.67962   0.7796   -1.12791 
 H                    -0.28547   1.51002   0.87606 
 H                     1.67842  -1.10826   0.94538 
 
 ITRead=  0  0  0  0  0  0  0  0  0  0  0  0  0  0
 MicOpt= -1 -1 -1 -1 -1 -1 -1 -1 -1 -1 -1 -1 -1 -1
 NAtoms=     14 NQM=       14 NQMF=       0 NMMI=      0 NMMIF=      0
                NMic=       0 NMicF=      0.
                    Isotopes and Nuclear Properties:
 (Nuclear quadrupole moments (NQMom) in fm**2, nuclear magnetic moments (NMagM)
  in nuclear magnetons)

  Atom         1           2           3           4           5           6           7           8           9          10
 IAtWgt=          16          12          12          12          12           1           1           1           1           1
 AtmWgt=  15.9949146  12.0000000  12.0000000  12.0000000  12.0000000   1.0078250   1.0078250   1.0078250   1.0078250   1.0078250
 NucSpn=           0           0           0           0           0           1           1           1           1           1
 AtZEff=  -0.0000000  -0.0000000  -0.0000000  -0.0000000  -0.0000000  -0.0000000  -0.0000000  -0.0000000  -0.0000000  -0.0000000
 NQMom=    0.0000000   0.0000000   0.0000000   0.0000000   0.0000000   0.0000000   0.0000000   0.0000000   0.0000000   0.0000000
 NMagM=    0.0000000   0.0000000   0.0000000   0.0000000   0.0000000   2.7928460   2.7928460   2.7928460   2.7928460   2.7928460
 AtZNuc=   8.0000000   6.0000000   6.0000000   6.0000000   6.0000000   1.0000000   1.0000000   1.0000000   1.0000000   1.0000000

  Atom        11          12          13          14
 IAtWgt=           1           1           1           1
 AtmWgt=   1.0078250   1.0078250   1.0078250   1.0078250
 NucSpn=           1           1           1           1
 AtZEff=  -0.0000000  -0.0000000  -0.0000000  -0.0000000
 NQMom=    0.0000000   0.0000000   0.0000000   0.0000000
 NMagM=    2.7928460   2.7928460   2.7928460   2.7928460
 AtZNuc=   1.0000000   1.0000000   1.0000000   1.0000000
 Leave Link  101 at Wed Mar 13 04:09:33 2019, MaxMem=   671088640 cpu:               5.2 elap:               0.3
 (Enter /shared/centos7/gaussian/g16/l103.exe)

 GradGradGradGradGradGradGradGradGradGradGradGradGradGradGradGradGradGrad
 Berny optimization.
 Initialization pass.
                           ----------------------------
                           !    Initial Parameters    !
                           ! (Angstroms and Degrees)  !
 --------------------------                            --------------------------
 ! Name  Definition              Value          Derivative Info.                !
 --------------------------------------------------------------------------------
 ! R1    R(1,3)                  1.4249         calculate D2E/DX2 analytically  !
 ! R2    R(1,14)                 0.9604         calculate D2E/DX2 analytically  !
 ! R3    R(2,4)                  1.5268         calculate D2E/DX2 analytically  !
 ! R4    R(2,5)                  1.4879         calculate D2E/DX2 analytically  !
 ! R5    R(2,6)                  1.0995         calculate D2E/DX2 analytically  !
 ! R6    R(2,7)                  1.0923         calculate D2E/DX2 analytically  !
 ! R7    R(3,5)                  1.4873         calculate D2E/DX2 analytically  !
 ! R8    R(3,11)                 1.0931         calculate D2E/DX2 analytically  !
 ! R9    R(3,12)                 1.0953         calculate D2E/DX2 analytically  !
 ! R10   R(4,8)                  1.09           calculate D2E/DX2 analytically  !
 ! R11   R(4,9)                  1.089          calculate D2E/DX2 analytically  !
 ! R12   R(4,10)                 1.0906         calculate D2E/DX2 analytically  !
 ! R13   R(5,13)                 1.0829         calculate D2E/DX2 analytically  !
 ! A1    A(3,1,14)             107.9487         calculate D2E/DX2 analytically  !
 ! A2    A(4,2,5)              113.0839         calculate D2E/DX2 analytically  !
 ! A3    A(4,2,6)              109.0046         calculate D2E/DX2 analytically  !
 ! A4    A(4,2,7)              110.4967         calculate D2E/DX2 analytically  !
 ! A5    A(5,2,6)              109.2313         calculate D2E/DX2 analytically  !
 ! A6    A(5,2,7)              109.094          calculate D2E/DX2 analytically  !
 ! A7    A(6,2,7)              105.6559         calculate D2E/DX2 analytically  !
 ! A8    A(1,3,5)              112.4984         calculate D2E/DX2 analytically  !
 ! A9    A(1,3,11)             110.6634         calculate D2E/DX2 analytically  !
 ! A10   A(1,3,12)             104.3913         calculate D2E/DX2 analytically  !
 ! A11   A(5,3,11)             110.7108         calculate D2E/DX2 analytically  !
 ! A12   A(5,3,12)             110.9196         calculate D2E/DX2 analytically  !
 ! A13   A(11,3,12)            107.3718         calculate D2E/DX2 analytically  !
 ! A14   A(2,4,8)              110.6896         calculate D2E/DX2 analytically  !
 ! A15   A(2,4,9)              111.346          calculate D2E/DX2 analytically  !
 ! A16   A(2,4,10)             110.7623         calculate D2E/DX2 analytically  !
 ! A17   A(8,4,9)              108.1864         calculate D2E/DX2 analytically  !
 ! A18   A(8,4,10)             107.7427         calculate D2E/DX2 analytically  !
 ! A19   A(9,4,10)             107.9813         calculate D2E/DX2 analytically  !
 ! A20   A(2,5,3)              120.664          calculate D2E/DX2 analytically  !
 ! A21   A(2,5,13)             118.973          calculate D2E/DX2 analytically  !
 ! A22   A(3,5,13)             119.3005         calculate D2E/DX2 analytically  !
 ! D1    D(14,1,3,5)           -54.209          calculate D2E/DX2 analytically  !
 ! D2    D(14,1,3,11)           70.2146         calculate D2E/DX2 analytically  !
 ! D3    D(14,1,3,12)         -174.5582         calculate D2E/DX2 analytically  !
 ! D4    D(5,2,4,8)            -61.3508         calculate D2E/DX2 analytically  !
 ! D5    D(5,2,4,9)            178.2653         calculate D2E/DX2 analytically  !
 ! D6    D(5,2,4,10)            58.0917         calculate D2E/DX2 analytically  !
 ! D7    D(6,2,4,8)            176.9483         calculate D2E/DX2 analytically  !
 ! D8    D(6,2,4,9)             56.5644         calculate D2E/DX2 analytically  !
 ! D9    D(6,2,4,10)           -63.6092         calculate D2E/DX2 analytically  !
 ! D10   D(7,2,4,8)             61.2612         calculate D2E/DX2 analytically  !
 ! D11   D(7,2,4,9)            -59.1227         calculate D2E/DX2 analytically  !
 ! D12   D(7,2,4,10)          -179.2963         calculate D2E/DX2 analytically  !
 ! D13   D(4,2,5,3)            155.2641         calculate D2E/DX2 analytically  !
 ! D14   D(4,2,5,13)           -36.6039         calculate D2E/DX2 analytically  !
 ! D15   D(6,2,5,3)            -83.1625         calculate D2E/DX2 analytically  !
 ! D16   D(6,2,5,13)            84.9695         calculate D2E/DX2 analytically  !
 ! D17   D(7,2,5,3)             31.8747         calculate D2E/DX2 analytically  !
 ! D18   D(7,2,5,13)          -159.9933         calculate D2E/DX2 analytically  !
 ! D19   D(1,3,5,2)            -58.784          calculate D2E/DX2 analytically  !
 ! D20   D(1,3,5,13)           133.1224         calculate D2E/DX2 analytically  !
 ! D21   D(11,3,5,2)           176.8185         calculate D2E/DX2 analytically  !
 ! D22   D(11,3,5,13)            8.725          calculate D2E/DX2 analytically  !
 ! D23   D(12,3,5,2)            57.7241         calculate D2E/DX2 analytically  !
 ! D24   D(12,3,5,13)         -110.3694         calculate D2E/DX2 analytically  !
 --------------------------------------------------------------------------------
 Trust Radius=3.00D-01 FncErr=1.00D-07 GrdErr=1.00D-06 EigMax=2.50D+02 EigMin=1.00D-04
 Number of steps in this run=    100 maximum allowed number of steps=    100.
 GradGradGradGradGradGradGradGradGradGradGradGradGradGradGradGradGradGrad

 Leave Link  103 at Wed Mar 13 04:09:33 2019, MaxMem=   671088640 cpu:               0.1 elap:               0.0
 (Enter /shared/centos7/gaussian/g16/l202.exe)
                          Input orientation:                          
 ---------------------------------------------------------------------
 Center     Atomic      Atomic             Coordinates (Angstroms)
 Number     Number       Type             X           Y           Z
 ---------------------------------------------------------------------
      1          8           0        1.913791   -0.812103    0.062596
      2          6           0       -1.000748   -0.057287   -0.530882
      3          6           0        1.474728    0.535936   -0.079942
      4          6           0       -2.298615   -0.252382    0.249233
      5          6           0        0.029442    0.699597    0.230547
      6          1           0       -1.222384    0.474533   -1.467391
      7          1           0       -0.586105   -1.022245   -0.830909
      8          1           0       -2.118715   -0.825145    1.158976
      9          1           0       -3.042162   -0.782101   -0.344465
     10          1           0       -2.722989    0.709186    0.540340
     11          1           0        2.080615    1.206057    0.535421
     12          1           0        1.679624    0.779600   -1.127912
     13          1           0       -0.285471    1.510023    0.876062
     14          1           0        1.678419   -1.108263    0.945375
 ---------------------------------------------------------------------
                    Distance matrix (angstroms):
                    1          2          3          4          5
     1  O    0.000000
     2  C    3.068632   0.000000
     3  C    1.424887   2.585197   0.000000
     4  C    4.253526   1.526794   3.868839   0.000000
     5  C    2.421614   1.487931   1.487293   2.515246   0.000000
     6  H    3.719124   1.099547   3.033677   2.152551   2.121489
     7  H    2.663079   1.092286   2.690523   2.166122   2.114315
     8  H    4.178914   2.166812   4.037362   1.089979   2.793098
     9  H    4.972733   2.174276   4.712694   1.089009   3.458442
    10  H    4.903294   2.168205   4.246833   1.090619   2.769827
    11  H    2.079510   3.496833   1.093084   4.624565   2.134657
    12  H    2.001415   2.870752   1.095261   4.334501   2.138904
    13  H    3.300114   2.224314   2.227350   2.748042   1.082890
    14  H    0.960422   3.234474   1.948372   4.127220   2.549208
                    6          7          8          9         10
     6  H    0.000000
     7  H    1.746512   0.000000
     8  H    3.064372   2.519402   0.000000
     9  H    2.480259   2.515256   1.764920   0.000000
    10  H    2.517511   3.073182   1.761258   1.763147   0.000000
    11  H    3.931436   3.734111   4.706270   5.565053   4.829236
    12  H    2.937680   2.910049   4.715129   5.034676   4.708612
    13  H    2.727969   3.068634   2.982253   3.787197   2.587575
    14  H    4.091618   2.879349   3.813661   4.904483   4.779076
                   11         12         13         14
    11  H    0.000000
    12  H    1.763331   0.000000
    13  H    2.409729   2.900177   0.000000
    14  H    2.384513   2.804023   3.273697   0.000000
 Stoichiometry    C4H9O(2)
 Framework group  C1[X(C4H9O)]
 Deg. of freedom    36
 Full point group                 C1      NOp   1
 Largest Abelian subgroup         C1      NOp   1
 Largest concise Abelian subgroup C1      NOp   1
                         Standard orientation:                         
 ---------------------------------------------------------------------
 Center     Atomic      Atomic             Coordinates (Angstroms)
 Number     Number       Type             X           Y           Z
 ---------------------------------------------------------------------
      1          8           0       -1.913791   -0.812103   -0.062596
      2          6           0        1.000748   -0.057287    0.530882
      3          6           0       -1.474728    0.535936    0.079942
      4          6           0        2.298615   -0.252382   -0.249233
      5          6           0       -0.029442    0.699597   -0.230547
      6          1           0        1.222384    0.474533    1.467391
      7          1           0        0.586105   -1.022245    0.830909
      8          1           0        2.118715   -0.825145   -1.158976
      9          1           0        3.042162   -0.782101    0.344465
     10          1           0        2.722989    0.709186   -0.540340
     11          1           0       -2.080615    1.206057   -0.535421
     12          1           0       -1.679624    0.779600    1.127912
     13          1           0        0.285471    1.510023   -0.876062
     14          1           0       -1.678419   -1.108263   -0.945375
 ---------------------------------------------------------------------
 Rotational constants (GHZ):          12.0140424           2.4532663           2.2713145
 Leave Link  202 at Wed Mar 13 04:09:33 2019, MaxMem=   671088640 cpu:               0.2 elap:               0.0
 (Enter /shared/centos7/gaussian/g16/l301.exe)
 Standard basis: 6-311+G(2df,2p) (5D, 7F)
 Ernie: Thresh=  0.10000D-02 Tol=  0.10000D-05 Strict=F.
 There are   276 symmetry adapted cartesian basis functions of A   symmetry.
 There are   251 symmetry adapted basis functions of A   symmetry.
   251 basis functions,   359 primitive gaussians,   276 cartesian basis functions
    21 alpha electrons       20 beta electrons
       nuclear repulsion energy       178.6025161158 Hartrees.
 IExCor= 4336 DFT=T Ex+Corr=M062X ExCW=0 ScaHFX=  0.540000
 ScaDFX=  1.000000  1.000000  1.000000  1.000000 ScalE2=  1.000000  1.000000
 IRadAn=      5 IRanWt=     -1 IRanGd=            0 ICorTp=0 IEmpDi=  4
 NAtoms=   14 NActive=   14 NUniq=   14 SFac= 1.00D+00 NAtFMM=   60 NAOKFM=F Big=F
 Integral buffers will be    131072 words long.
 Raffenetti 2 integral format.
 Two-electron integral symmetry is turned on.
 Leave Link  301 at Wed Mar 13 04:09:33 2019, MaxMem=   671088640 cpu:               0.8 elap:               0.1
 (Enter /shared/centos7/gaussian/g16/l302.exe)
 NPDir=0 NMtPBC=     1 NCelOv=     1 NCel=       1 NClECP=     1 NCelD=      1
         NCelK=      1 NCelE2=     1 NClLst=     1 CellRange=     0.0.
 One-electron integrals computed using PRISM.
 One-electron integral symmetry used in STVInt
 NBasis=   251 RedAO= T EigKep=  3.71D-05  NBF=   251
 NBsUse=   251 1.00D-06 EigRej= -1.00D+00 NBFU=   251
 Precomputing XC quadrature grid using
 IXCGrd= 4 IRadAn=           5 IRanWt=          -1 IRanGd=           0 AccXCQ= 0.00D+00.
 Generated NRdTot=       0 NPtTot=           0 NUsed=           0 NTot=          32
 NSgBfM=   276   276   276   276   276 MxSgAt=    14 MxSgA2=    14.
 Leave Link  302 at Wed Mar 13 04:09:33 2019, MaxMem=   671088640 cpu:               5.2 elap:               0.3
 (Enter /shared/centos7/gaussian/g16/l303.exe)
 DipDrv:  MaxL=1.
 Leave Link  303 at Wed Mar 13 04:09:33 2019, MaxMem=   671088640 cpu:               0.5 elap:               0.0
 (Enter /shared/centos7/gaussian/g16/l401.exe)
 ExpMin= 4.38D-02 ExpMax= 8.59D+03 ExpMxC= 1.30D+03 IAcc=3 IRadAn=         5 AccDes= 0.00D+00
 Harris functional with IExCor= 1009 and IRadAn=       5 diagonalized for initial guess.
 HarFok:  IExCor= 1009 AccDes= 0.00D+00 IRadAn=         5 IDoV= 1 UseB2=F ITyADJ=14
 ICtDFT=  3500011 ScaDFX=  1.000000  1.000000  1.000000  1.000000
 FoFCou: FMM=F IPFlag=           0 FMFlag=      100000 FMFlg1=           0
         NFxFlg=           0 DoJE=T BraDBF=F KetDBF=T FulRan=T
         wScrn=  0.000000 ICntrl=       500 IOpCl=  0 I1Cent=   200000004 NGrid=           0
         NMat0=    1 NMatS0=      1 NMatT0=    0 NMatD0=    1 NMtDS0=    0 NMtDT0=    0
 Petite list used in FoFCou.
 Harris En= -232.903537172515    
 JPrj=0 DoOrth=F DoCkMO=F.
 Initial guess <Sx>= 0.0000 <Sy>= 0.0000 <Sz>= 0.5000 <S**2>= 0.7500 S= 0.5000
 Leave Link  401 at Wed Mar 13 04:09:34 2019, MaxMem=   671088640 cpu:              20.5 elap:               1.0
 (Enter /shared/centos7/gaussian/g16/l502.exe)
 Integral symmetry usage will be decided dynamically.
 UHF open shell SCF:
 Using DIIS extrapolation, IDIIS=  1040.
 NGot=   671088640 LenX=   670928170 LenY=   670851553
 Requested convergence on RMS density matrix=1.00D-08 within 128 cycles.
 Requested convergence on MAX density matrix=1.00D-06.
 Requested convergence on             energy=1.00D-06.
 No special actions if energy rises.
 Fock matrices will be formed incrementally for  20 cycles.

 Cycle   1  Pass 1  IDiag  1:
 FoFJK:  IHMeth= 1 ICntrl=       0 DoSepK=F KAlg= 0 I1Cent=           0 FoldK=F
 IRaf= 970000000 NMat=       1 IRICut=       1 DoRegI=T DoRafI=F ISym2E= 0 IDoP0=0 IntGTp=1.
 FoFCou: FMM=F IPFlag=           0 FMFlag=      100000 FMFlg1=           0
         NFxFlg=           0 DoJE=F BraDBF=F KetDBF=F FulRan=T
         wScrn=  0.000000 ICntrl=         0 IOpCl=  1 I1Cent=           0 NGrid=           0
         NMat0=    1 NMatS0=      1 NMatT0=    0 NMatD0=    1 NMtDS0=    0 NMtDT0=    0
 Symmetry not used in FoFCou.
 E= -232.770092114301    
 DIIS: error= 1.97D-02 at cycle   1 NSaved=   1.
 NSaved= 1 IEnMin= 1 EnMin= -232.770092114301     IErMin= 1 ErrMin= 1.97D-02
 ErrMax= 1.97D-02  0.00D+00 EMaxC= 1.00D-01 BMatC= 9.40D-01 BMatP= 9.40D-01
 IDIUse=3 WtCom= 8.03D-01 WtEn= 1.97D-01
 Coeff-Com:  0.100D+01
 Coeff-En:   0.100D+01
 Coeff:      0.100D+01
 Gap=     0.236 Goal=   None    Shift=    0.000
 Gap=     0.312 Goal=   None    Shift=    0.000
 GapD=    0.236 DampG=1.000 DampE=0.500 DampFc=0.5000 IDamp=-1.
 Damping current iteration by 5.00D-01
 RMSDP=3.80D-03 MaxDP=2.90D-01              OVMax= 1.56D-01

 Cycle   2  Pass 1  IDiag  1:
 RMSU=  1.90D-03    CP:  9.89D-01
 E= -232.868595387945     Delta-E=       -0.098503273644 Rises=F Damp=T
 DIIS: error= 5.25D-03 at cycle   2 NSaved=   2.
 NSaved= 2 IEnMin= 2 EnMin= -232.868595387945     IErMin= 2 ErrMin= 5.25D-03
 ErrMax= 5.25D-03  0.00D+00 EMaxC= 1.00D-01 BMatC= 5.83D-02 BMatP= 9.40D-01
 IDIUse=3 WtCom= 9.48D-01 WtEn= 5.25D-02
 Coeff-Com: -0.760D-01 0.108D+01
 Coeff-En:   0.000D+00 0.100D+01
 Coeff:     -0.720D-01 0.107D+01
 Gap=     0.275 Goal=   None    Shift=    0.000
 Gap=     0.330 Goal=   None    Shift=    0.000
 RMSDP=1.44D-03 MaxDP=1.35D-01 DE=-9.85D-02 OVMax= 7.81D-02

 Cycle   3  Pass 1  IDiag  1:
 RMSU=  1.33D-03    CP:  9.63D-01  7.38D-01
 E= -232.964495823365     Delta-E=       -0.095900435420 Rises=F Damp=F
 DIIS: error= 3.92D-03 at cycle   3 NSaved=   3.
 NSaved= 3 IEnMin= 3 EnMin= -232.964495823365     IErMin= 3 ErrMin= 3.92D-03
 ErrMax= 3.92D-03  0.00D+00 EMaxC= 1.00D-01 BMatC= 1.51D-02 BMatP= 5.83D-02
 IDIUse=3 WtCom= 9.61D-01 WtEn= 3.92D-02
 Coeff-Com: -0.760D-01 0.330D+00 0.745D+00
 Coeff-En:   0.000D+00 0.000D+00 0.100D+01
 Coeff:     -0.730D-01 0.318D+00 0.755D+00
 Gap=     0.277 Goal=   None    Shift=    0.000
 Gap=     0.307 Goal=   None    Shift=    0.000
 RMSDP=2.75D-04 MaxDP=2.30D-02 DE=-9.59D-02 OVMax= 1.52D-02

 Cycle   4  Pass 1  IDiag  1:
 RMSU=  2.34D-04    CP:  9.65D-01  8.13D-01  9.89D-01
 E= -232.966632747110     Delta-E=       -0.002136923745 Rises=F Damp=F
 DIIS: error= 1.44D-03 at cycle   4 NSaved=   4.
 NSaved= 4 IEnMin= 4 EnMin= -232.966632747110     IErMin= 4 ErrMin= 1.44D-03
 ErrMax= 1.44D-03  0.00D+00 EMaxC= 1.00D-01 BMatC= 3.55D-03 BMatP= 1.51D-02
 IDIUse=3 WtCom= 9.86D-01 WtEn= 1.44D-02
 Coeff-Com: -0.273D-01 0.653D-01 0.366D+00 0.597D+00
 Coeff-En:   0.000D+00 0.000D+00 0.100D+00 0.900D+00
 Coeff:     -0.270D-01 0.644D-01 0.362D+00 0.601D+00
 Gap=     0.273 Goal=   None    Shift=    0.000
 Gap=     0.312 Goal=   None    Shift=    0.000
 RMSDP=1.31D-04 MaxDP=1.40D-02 DE=-2.14D-03 OVMax= 6.58D-03

 Cycle   5  Pass 1  IDiag  1:
 RMSU=  7.28D-05    CP:  9.61D-01  7.84D-01  1.03D+00  6.96D-01
 E= -232.967335498758     Delta-E=       -0.000702751648 Rises=F Damp=F
 DIIS: error= 2.73D-04 at cycle   5 NSaved=   5.
 NSaved= 5 IEnMin= 5 EnMin= -232.967335498758     IErMin= 5 ErrMin= 2.73D-04
 ErrMax= 2.73D-04  0.00D+00 EMaxC= 1.00D-01 BMatC= 1.10D-04 BMatP= 3.55D-03
 IDIUse=3 WtCom= 9.97D-01 WtEn= 2.73D-03
 Coeff-Com: -0.115D-03-0.967D-02 0.214D-01 0.139D+00 0.850D+00
 Coeff-En:   0.000D+00 0.000D+00 0.000D+00 0.000D+00 0.100D+01
 Coeff:     -0.114D-03-0.965D-02 0.213D-01 0.139D+00 0.850D+00
 Gap=     0.274 Goal=   None    Shift=    0.000
 Gap=     0.311 Goal=   None    Shift=    0.000
 RMSDP=5.02D-05 MaxDP=4.45D-03 DE=-7.03D-04 OVMax= 3.03D-03

 Cycle   6  Pass 1  IDiag  1:
 RMSU=  4.43D-05    CP:  9.62D-01  7.85D-01  1.04D+00  7.68D-01  9.97D-01
 E= -232.967376414911     Delta-E=       -0.000040916153 Rises=F Damp=F
 DIIS: error= 1.13D-04 at cycle   6 NSaved=   6.
 NSaved= 6 IEnMin= 6 EnMin= -232.967376414911     IErMin= 6 ErrMin= 1.13D-04
 ErrMax= 1.13D-04  0.00D+00 EMaxC= 1.00D-01 BMatC= 1.29D-05 BMatP= 1.10D-04
 IDIUse=3 WtCom= 9.99D-01 WtEn= 1.13D-03
 Coeff-Com:  0.365D-02-0.957D-02-0.474D-01-0.698D-01 0.450D-01 0.108D+01
 Coeff-En:   0.000D+00 0.000D+00 0.000D+00 0.000D+00 0.000D+00 0.100D+01
 Coeff:      0.364D-02-0.956D-02-0.474D-01-0.697D-01 0.450D-01 0.108D+01
 Gap=     0.275 Goal=   None    Shift=    0.000
 Gap=     0.312 Goal=   None    Shift=    0.000
 RMSDP=1.96D-05 MaxDP=1.08D-03 DE=-4.09D-05 OVMax= 1.48D-03

 Cycle   7  Pass 1  IDiag  1:
 RMSU=  1.15D-05    CP:  9.62D-01  7.83D-01  1.04D+00  7.77D-01  1.10D+00
                    CP:  1.28D+00
 E= -232.967384336716     Delta-E=       -0.000007921805 Rises=F Damp=F
 DIIS: error= 4.31D-05 at cycle   7 NSaved=   7.
 NSaved= 7 IEnMin= 7 EnMin= -232.967384336716     IErMin= 7 ErrMin= 4.31D-05
 ErrMax= 4.31D-05  0.00D+00 EMaxC= 1.00D-01 BMatC= 3.14D-06 BMatP= 1.29D-05
 IDIUse=1 WtCom= 1.00D+00 WtEn= 0.00D+00
 Coeff-Com:  0.128D-02-0.217D-02-0.204D-01-0.455D-01-0.978D-01 0.420D+00
 Coeff-Com:  0.744D+00
 Coeff:      0.128D-02-0.217D-02-0.204D-01-0.455D-01-0.978D-01 0.420D+00
 Coeff:      0.744D+00
 Gap=     0.275 Goal=   None    Shift=    0.000
 Gap=     0.312 Goal=   None    Shift=    0.000
 RMSDP=7.18D-06 MaxDP=4.61D-04 DE=-7.92D-06 OVMax= 5.48D-04

 Cycle   8  Pass 1  IDiag  1:
 RMSU=  3.56D-06    CP:  9.62D-01  7.84D-01  1.04D+00  7.81D-01  1.11D+00
                    CP:  1.41D+00  1.14D+00
 E= -232.967385430947     Delta-E=       -0.000001094231 Rises=F Damp=F
 DIIS: error= 1.00D-05 at cycle   8 NSaved=   8.
 NSaved= 8 IEnMin= 8 EnMin= -232.967385430947     IErMin= 8 ErrMin= 1.00D-05
 ErrMax= 1.00D-05  0.00D+00 EMaxC= 1.00D-01 BMatC= 1.60D-07 BMatP= 3.14D-06
 IDIUse=1 WtCom= 1.00D+00 WtEn= 0.00D+00
 Coeff-Com: -0.304D-03 0.828D-03 0.275D-02 0.102D-02-0.177D-01-0.555D-01
 Coeff-Com:  0.895D-01 0.979D+00
 Coeff:     -0.304D-03 0.828D-03 0.275D-02 0.102D-02-0.177D-01-0.555D-01
 Coeff:      0.895D-01 0.979D+00
 Gap=     0.275 Goal=   None    Shift=    0.000
 Gap=     0.312 Goal=   None    Shift=    0.000
 RMSDP=2.88D-06 MaxDP=1.26D-04 DE=-1.09D-06 OVMax= 1.52D-04

 Cycle   9  Pass 1  IDiag  1:
 RMSU=  1.55D-06    CP:  9.62D-01  7.84D-01  1.04D+00  7.79D-01  1.11D+00
                    CP:  1.43D+00  1.24D+00  1.35D+00
 E= -232.967385507571     Delta-E=       -0.000000076624 Rises=F Damp=F
 DIIS: error= 4.85D-06 at cycle   9 NSaved=   9.
 NSaved= 9 IEnMin= 9 EnMin= -232.967385507571     IErMin= 9 ErrMin= 4.85D-06
 ErrMax= 4.85D-06  0.00D+00 EMaxC= 1.00D-01 BMatC= 1.58D-08 BMatP= 1.60D-07
 IDIUse=1 WtCom= 1.00D+00 WtEn= 0.00D+00
 Coeff-Com: -0.194D-03 0.408D-03 0.264D-02 0.479D-02 0.682D-02-0.531D-01
 Coeff-Com: -0.623D-01 0.188D+00 0.913D+00
 Coeff:     -0.194D-03 0.408D-03 0.264D-02 0.479D-02 0.682D-02-0.531D-01
 Coeff:     -0.623D-01 0.188D+00 0.913D+00
 Gap=     0.275 Goal=   None    Shift=    0.000
 Gap=     0.312 Goal=   None    Shift=    0.000
 RMSDP=1.35D-06 MaxDP=1.19D-04 DE=-7.66D-08 OVMax= 6.08D-05

 Cycle  10  Pass 1  IDiag  1:
 RMSU=  6.89D-07    CP:  9.62D-01  7.84D-01  1.04D+00  7.78D-01  1.11D+00
                    CP:  1.43D+00  1.28D+00  1.54D+00  1.16D+00
 E= -232.967385515577     Delta-E=       -0.000000008006 Rises=F Damp=F
 DIIS: error= 9.16D-07 at cycle  10 NSaved=  10.
 NSaved=10 IEnMin=10 EnMin= -232.967385515577     IErMin=10 ErrMin= 9.16D-07
 ErrMax= 9.16D-07  0.00D+00 EMaxC= 1.00D-01 BMatC= 9.60D-10 BMatP= 1.58D-08
 IDIUse=1 WtCom= 1.00D+00 WtEn= 0.00D+00
 Coeff-Com:  0.167D-04-0.397D-04-0.578D-04 0.154D-03 0.138D-02 0.844D-03
 Coeff-Com: -0.916D-02-0.640D-01 0.647D-01 0.101D+01
 Coeff:      0.167D-04-0.397D-04-0.578D-04 0.154D-03 0.138D-02 0.844D-03
 Coeff:     -0.916D-02-0.640D-01 0.647D-01 0.101D+01
 Gap=     0.275 Goal=   None    Shift=    0.000
 Gap=     0.312 Goal=   None    Shift=    0.000
 RMSDP=3.50D-07 MaxDP=3.51D-05 DE=-8.01D-09 OVMax= 1.45D-05

 Cycle  11  Pass 1  IDiag  1:
 RMSU=  1.04D-07    CP:  9.62D-01  7.84D-01  1.04D+00  7.78D-01  1.11D+00
                    CP:  1.42D+00  1.28D+00  1.59D+00  1.28D+00  1.23D+00
 E= -232.967385516182     Delta-E=       -0.000000000605 Rises=F Damp=F
 DIIS: error= 2.97D-07 at cycle  11 NSaved=  11.
 NSaved=11 IEnMin=11 EnMin= -232.967385516182     IErMin=11 ErrMin= 2.97D-07
 ErrMax= 2.97D-07  0.00D+00 EMaxC= 1.00D-01 BMatC= 7.75D-11 BMatP= 9.60D-10
 IDIUse=1 WtCom= 1.00D+00 WtEn= 0.00D+00
 Coeff-Com:  0.157D-04-0.340D-04-0.194D-03-0.318D-03-0.296D-03 0.379D-02
 Coeff-Com:  0.370D-02-0.195D-01-0.601D-01 0.824D-01 0.991D+00
 Coeff:      0.157D-04-0.340D-04-0.194D-03-0.318D-03-0.296D-03 0.379D-02
 Coeff:      0.370D-02-0.195D-01-0.601D-01 0.824D-01 0.991D+00
 Gap=     0.275 Goal=   None    Shift=    0.000
 Gap=     0.312 Goal=   None    Shift=    0.000
 RMSDP=9.43D-08 MaxDP=1.09D-05 DE=-6.05D-10 OVMax= 4.81D-06

 Cycle  12  Pass 1  IDiag  1:
 RMSU=  3.29D-08    CP:  9.62D-01  7.84D-01  1.04D+00  7.78D-01  1.11D+00
                    CP:  1.42D+00  1.28D+00  1.59D+00  1.29D+00  1.31D+00
                    CP:  1.20D+00
 E= -232.967385516232     Delta-E=       -0.000000000050 Rises=F Damp=F
 DIIS: error= 1.09D-07 at cycle  12 NSaved=  12.
 NSaved=12 IEnMin=12 EnMin= -232.967385516232     IErMin=12 ErrMin= 1.09D-07
 ErrMax= 1.09D-07  0.00D+00 EMaxC= 1.00D-01 BMatC= 1.36D-11 BMatP= 7.75D-11
 IDIUse=1 WtCom= 1.00D+00 WtEn= 0.00D+00
 Coeff-Com:  0.791D-06-0.189D-05-0.308D-04-0.679D-04-0.171D-03 0.604D-03
 Coeff-Com:  0.153D-02 0.235D-02-0.178D-01-0.743D-01 0.206D+00 0.882D+00
 Coeff:      0.791D-06-0.189D-05-0.308D-04-0.679D-04-0.171D-03 0.604D-03
 Coeff:      0.153D-02 0.235D-02-0.178D-01-0.743D-01 0.206D+00 0.882D+00
 Gap=     0.275 Goal=   None    Shift=    0.000
 Gap=     0.312 Goal=   None    Shift=    0.000
 RMSDP=1.74D-08 MaxDP=1.38D-06 DE=-5.02D-11 OVMax= 1.93D-06

 Cycle  13  Pass 1  IDiag  1:
 RMSU=  1.04D-08    CP:  9.62D-01  7.84D-01  1.04D+00  7.78D-01  1.11D+00
                    CP:  1.42D+00  1.28D+00  1.60D+00  1.29D+00  1.33D+00
                    CP:  1.26D+00  1.22D+00
 E= -232.967385516242     Delta-E=       -0.000000000009 Rises=F Damp=F
 DIIS: error= 4.82D-08 at cycle  13 NSaved=  13.
 NSaved=13 IEnMin=13 EnMin= -232.967385516242     IErMin=13 ErrMin= 4.82D-08
 ErrMax= 4.82D-08  0.00D+00 EMaxC= 1.00D-01 BMatC= 3.01D-12 BMatP= 1.36D-11
 IDIUse=1 WtCom= 1.00D+00 WtEn= 0.00D+00
 Coeff-Com: -0.232D-05 0.483D-05 0.199D-04 0.290D-04-0.649D-05-0.407D-03
 Coeff-Com: -0.818D-04 0.401D-02 0.299D-02-0.407D-01-0.980D-01 0.311D+00
 Coeff-Com:  0.821D+00
 Coeff:     -0.232D-05 0.483D-05 0.199D-04 0.290D-04-0.649D-05-0.407D-03
 Coeff:     -0.818D-04 0.401D-02 0.299D-02-0.407D-01-0.980D-01 0.311D+00
 Coeff:      0.821D+00
 Gap=     0.275 Goal=   None    Shift=    0.000
 Gap=     0.312 Goal=   None    Shift=    0.000
 RMSDP=8.13D-09 MaxDP=5.40D-07 DE=-9.44D-12 OVMax= 9.70D-07

 SCF Done:  E(UM062X) =  -232.967385516     A.U. after   13 cycles
            NFock= 13  Conv=0.81D-08     -V/T= 2.0039
 <Sx>= 0.0000 <Sy>= 0.0000 <Sz>= 0.5000 <S**2>= 0.7553 S= 0.5026
 <L.S>= 0.000000000000E+00
 KE= 2.320713684212D+02 PE=-9.002921823468D+02 EE= 2.566509122935D+02
 Annihilation of the first spin contaminant:
 S**2 before annihilation     0.7553,   after     0.7500
 Leave Link  502 at Wed Mar 13 04:10:14 2019, MaxMem=   671088640 cpu:             784.6 elap:              39.3
 (Enter /shared/centos7/gaussian/g16/l801.exe)
 DoSCS=F DFT=T ScalE2(SS,OS)=  1.000000  1.000000
 Range of M.O.s used for correlation:     1   251
 NBasis=   251 NAE=    21 NBE=    20 NFC=     0 NFV=     0
 NROrb=    251 NOA=    21 NOB=    20 NVA=   230 NVB=   231

 **** Warning!!: The largest alpha MO coefficient is  0.49315382D+02


 **** Warning!!: The largest beta MO coefficient is  0.45467660D+02

 Leave Link  801 at Wed Mar 13 04:10:14 2019, MaxMem=   671088640 cpu:               0.4 elap:               0.0
 (Enter /shared/centos7/gaussian/g16/l1101.exe)
 Using compressed storage, NAtomX=    14.
 Will process     15 centers per pass.
 Leave Link 1101 at Wed Mar 13 04:10:14 2019, MaxMem=   671088640 cpu:               6.4 elap:               0.3
 (Enter /shared/centos7/gaussian/g16/l1102.exe)
 Symmetrizing basis deriv contribution to polar:
 IMax=3 JMax=2 DiffMx= 0.00D+00
 Leave Link 1102 at Wed Mar 13 04:10:14 2019, MaxMem=   671088640 cpu:               0.5 elap:               0.0
 (Enter /shared/centos7/gaussian/g16/l1110.exe)
 Forming Gx(P) for the SCF density, NAtomX=    14.
 Integral derivatives from FoFJK, PRISM(SPDF).
 Do as many integral derivatives as possible in FoFJK.
 G2DrvN: MDV=     671087496.
 G2DrvN: will do    15 centers at a time, making    1 passes.
 Calling FoFCou, ICntrl=  3107 FMM=F I1Cent=   0 AccDes= 0.00D+00.
 FoFJK:  IHMeth= 1 ICntrl=    3107 DoSepK=F KAlg= 0 I1Cent=           0 FoldK=F
 IRaf=         0 NMat=       1 IRICut=       1 DoRegI=T DoRafI=F ISym2E= 0 IDoP0=0 IntGTp=1.
 FoFCou: FMM=F IPFlag=           0 FMFlag=      100000 FMFlg1=           0
         NFxFlg=           0 DoJE=F BraDBF=F KetDBF=F FulRan=T
         wScrn=  0.000000 ICntrl=      3107 IOpCl=  1 I1Cent=           0 NGrid=           0
         NMat0=    1 NMatS0=      1 NMatT0=    0 NMatD0=    1 NMtDS0=    0 NMtDT0=    0
 Symmetry not used in FoFCou.
 End of G2Drv F.D. properties file   721 does not exist.
 End of G2Drv F.D. properties file   722 does not exist.
 End of G2Drv F.D. properties file   788 does not exist.
 Leave Link 1110 at Wed Mar 13 04:11:34 2019, MaxMem=   671088640 cpu:            1607.4 elap:              80.4
 (Enter /shared/centos7/gaussian/g16/l1002.exe)
 Minotr:  UHF open shell wavefunction.
          IDoAtm=11111111111111
          Direct CPHF calculation.
          Differentiating once with respect to nuclear coordinates.
          Requested convergence is 1.0D-08 RMS, and 1.0D-07 maximum.
          Secondary convergence is 1.0D-12 RMS, and 1.0D-12 maximum.
          NewPWx=T KeepS1=F KeepF1=F KeepIn=T MapXYZ=F SortEE=F KeepMc=T.
         4264 words used for storage of precomputed grid.
 Two-electron integrals replicated using symmetry.
          MDV=     671088640 using IRadAn=       1.
          Solving linear equations simultaneously, MaxMat=     380.
 FoF2E skips out because all densities are zero.
 CalDSu exits because no D1Ps are significant.
 FoFJK:  IHMeth= 1 ICntrl=       0 DoSepK=F KAlg= 0 I1Cent=           0 FoldK=F
 IRaf= 960000000 NMat=      42 IRICut=     105 DoRegI=T DoRafI=T ISym2E= 2 IDoP0=3 IntGTp=3.
 FoFCou: FMM=F IPFlag=           0 FMFlag=      100000 FMFlg1=           0
         NFxFlg=           0 DoJE=F BraDBF=F KetDBF=F FulRan=T
         wScrn=  0.000000 ICntrl=         0 IOpCl=  1 I1Cent=           0 NGrid=           0
         NMat0=   42 NMatS0=     42 NMatT0=    0 NMatD0=   42 NMtDS0=    0 NMtDT0=    0
 Integrals replicated using symmetry in FoFCou.
 Raff kept on since  94.94% of shell-pairs survive, threshold=   0.20 IRatSp=95.
          There are    45 degrees of freedom in the 1st order CPHF.  IDoFFX=6 NUNeed=     0.
     39 vectors produced by pass  0 Test12= 2.10D-14 2.22D-09 XBig12= 1.53D-01 9.85D-02.
 AX will form    39 AO Fock derivatives at one time.
     39 vectors produced by pass  1 Test12= 2.10D-14 2.22D-09 XBig12= 4.77D-03 1.37D-02.
     39 vectors produced by pass  2 Test12= 2.10D-14 2.22D-09 XBig12= 1.55D-04 2.66D-03.
     39 vectors produced by pass  3 Test12= 2.10D-14 2.22D-09 XBig12= 3.16D-06 2.91D-04.
     39 vectors produced by pass  4 Test12= 2.10D-14 2.22D-09 XBig12= 3.84D-08 2.07D-05.
     39 vectors produced by pass  5 Test12= 2.10D-14 2.22D-09 XBig12= 4.05D-10 1.79D-06.
     38 vectors produced by pass  6 Test12= 2.10D-14 2.22D-09 XBig12= 3.77D-12 2.05D-07.
     15 vectors produced by pass  7 Test12= 2.10D-14 2.22D-09 XBig12= 3.00D-14 1.52D-08.
 InvSVY:  IOpt=1 It=  1 EMax= 2.00D-15
 Solved reduced A of dimension   287 with    39 vectors.
 End of Minotr F.D. properties file   721 does not exist.
 End of Minotr F.D. properties file   722 does not exist.
 End of Minotr F.D. properties file   788 does not exist.
 Leave Link 1002 at Wed Mar 13 04:13:40 2019, MaxMem=   671088640 cpu:            2519.5 elap:             126.0
 (Enter /shared/centos7/gaussian/g16/l601.exe)
 Copying SCF densities to generalized density rwf, IOpCl= 1 IROHF=0.

 **********************************************************************

            Population analysis using the SCF density.

 **********************************************************************

 Orbital symmetries:
 Alpha Orbitals:
       Occupied  (A) (A) (A) (A) (A) (A) (A) (A) (A) (A) (A) (A)
                 (A) (A) (A) (A) (A) (A) (A) (A) (A)
       Virtual   (A) (A) (A) (A) (A) (A) (A) (A) (A) (A) (A) (A)
                 (A) (A) (A) (A) (A) (A) (A) (A) (A) (A) (A) (A)
                 (A) (A) (A) (A) (A) (A) (A) (A) (A) (A) (A) (A)
                 (A) (A) (A) (A) (A) (A) (A) (A) (A) (A) (A) (A)
                 (A) (A) (A) (A) (A) (A) (A) (A) (A) (A) (A) (A)
                 (A) (A) (A) (A) (A) (A) (A) (A) (A) (A) (A) (A)
                 (A) (A) (A) (A) (A) (A) (A) (A) (A) (A) (A) (A)
                 (A) (A) (A) (A) (A) (A) (A) (A) (A) (A) (A) (A)
                 (A) (A) (A) (A) (A) (A) (A) (A) (A) (A) (A) (A)
                 (A) (A) (A) (A) (A) (A) (A) (A) (A) (A) (A) (A)
                 (A) (A) (A) (A) (A) (A) (A) (A) (A) (A) (A) (A)
                 (A) (A) (A) (A) (A) (A) (A) (A) (A) (A) (A) (A)
                 (A) (A) (A) (A) (A) (A) (A) (A) (A) (A) (A) (A)
                 (A) (A) (A) (A) (A) (A) (A) (A) (A) (A) (A) (A)
                 (A) (A) (A) (A) (A) (A) (A) (A) (A) (A) (A) (A)
                 (A) (A) (A) (A) (A) (A) (A) (A) (A) (A) (A) (A)
                 (A) (A) (A) (A) (A) (A) (A) (A) (A) (A) (A) (A)
                 (A) (A) (A) (A) (A) (A) (A) (A) (A) (A) (A) (A)
                 (A) (A) (A) (A) (A) (A) (A) (A) (A) (A) (A) (A)
                 (A) (A)
 Beta  Orbitals:
       Occupied  (A) (A) (A) (A) (A) (A) (A) (A) (A) (A) (A) (A)
                 (A) (A) (A) (A) (A) (A) (A) (A)
       Virtual   (A) (A) (A) (A) (A) (A) (A) (A) (A) (A) (A) (A)
                 (A) (A) (A) (A) (A) (A) (A) (A) (A) (A) (A) (A)
                 (A) (A) (A) (A) (A) (A) (A) (A) (A) (A) (A) (A)
                 (A) (A) (A) (A) (A) (A) (A) (A) (A) (A) (A) (A)
                 (A) (A) (A) (A) (A) (A) (A) (A) (A) (A) (A) (A)
                 (A) (A) (A) (A) (A) (A) (A) (A) (A) (A) (A) (A)
                 (A) (A) (A) (A) (A) (A) (A) (A) (A) (A) (A) (A)
                 (A) (A) (A) (A) (A) (A) (A) (A) (A) (A) (A) (A)
                 (A) (A) (A) (A) (A) (A) (A) (A) (A) (A) (A) (A)
                 (A) (A) (A) (A) (A) (A) (A) (A) (A) (A) (A) (A)
                 (A) (A) (A) (A) (A) (A) (A) (A) (A) (A) (A) (A)
                 (A) (A) (A) (A) (A) (A) (A) (A) (A) (A) (A) (A)
                 (A) (A) (A) (A) (A) (A) (A) (A) (A) (A) (A) (A)
                 (A) (A) (A) (A) (A) (A) (A) (A) (A) (A) (A) (A)
                 (A) (A) (A) (A) (A) (A) (A) (A) (A) (A) (A) (A)
                 (A) (A) (A) (A) (A) (A) (A) (A) (A) (A) (A) (A)
                 (A) (A) (A) (A) (A) (A) (A) (A) (A) (A) (A) (A)
                 (A) (A) (A) (A) (A) (A) (A) (A) (A) (A) (A) (A)
                 (A) (A) (A) (A) (A) (A) (A) (A) (A) (A) (A) (A)
                 (A) (A) (A)
 The electronic state is 2-A.
 Alpha  occ. eigenvalues --  -19.62010 -10.58320 -10.54672 -10.53560 -10.52595
 Alpha  occ. eigenvalues --   -1.14429  -0.89994  -0.82006  -0.72820  -0.66440
 Alpha  occ. eigenvalues --   -0.57168  -0.54922  -0.52268  -0.50313  -0.48740
 Alpha  occ. eigenvalues --   -0.43430  -0.42235  -0.41656  -0.39516  -0.35529
 Alpha  occ. eigenvalues --   -0.25636
 Alpha virt. eigenvalues --    0.01848   0.02814   0.03695   0.03806   0.05777
 Alpha virt. eigenvalues --    0.06361   0.06687   0.08224   0.08779   0.09314
 Alpha virt. eigenvalues --    0.10740   0.11499   0.13263   0.14214   0.16603
 Alpha virt. eigenvalues --    0.17410   0.19263   0.19804   0.19847   0.20792
 Alpha virt. eigenvalues --    0.22825   0.23890   0.24599   0.25619   0.25773
 Alpha virt. eigenvalues --    0.27056   0.27940   0.28599   0.30665   0.31478
 Alpha virt. eigenvalues --    0.32606   0.32961   0.36857   0.42177   0.43718
 Alpha virt. eigenvalues --    0.44438   0.46626   0.48666   0.51798   0.53877
 Alpha virt. eigenvalues --    0.54509   0.55022   0.55443   0.57049   0.57584
 Alpha virt. eigenvalues --    0.58883   0.60453   0.61403   0.62096   0.63663
 Alpha virt. eigenvalues --    0.65079   0.65488   0.66157   0.67135   0.69421
 Alpha virt. eigenvalues --    0.71159   0.72336   0.73993   0.78232   0.82255
 Alpha virt. eigenvalues --    0.83714   0.85939   0.88326   0.90604   0.93191
 Alpha virt. eigenvalues --    0.95157   0.97704   0.99672   1.01976   1.03950
 Alpha virt. eigenvalues --    1.06757   1.08540   1.09637   1.13644   1.14817
 Alpha virt. eigenvalues --    1.16762   1.17349   1.18975   1.20549   1.21737
 Alpha virt. eigenvalues --    1.22765   1.24547   1.25619   1.26947   1.28501
 Alpha virt. eigenvalues --    1.29498   1.30567   1.35688   1.36928   1.39101
 Alpha virt. eigenvalues --    1.42401   1.43344   1.43810   1.45546   1.46358
 Alpha virt. eigenvalues --    1.48144   1.49374   1.51535   1.52954   1.53993
 Alpha virt. eigenvalues --    1.55046   1.57334   1.60245   1.61723   1.63226
 Alpha virt. eigenvalues --    1.67046   1.69845   1.72324   1.75720   1.93931
 Alpha virt. eigenvalues --    2.06407   2.10530   2.27280   2.30477   2.41463
 Alpha virt. eigenvalues --    2.45546   2.48835   2.53088   2.53535   2.57865
 Alpha virt. eigenvalues --    2.59858   2.64062   2.72056   2.77010   2.78972
 Alpha virt. eigenvalues --    2.79530   2.83751   2.87289   2.89353   2.92159
 Alpha virt. eigenvalues --    2.95573   2.98150   2.98955   3.00884   3.05004
 Alpha virt. eigenvalues --    3.09932   3.11766   3.13636   3.14487   3.15620
 Alpha virt. eigenvalues --    3.19014   3.21665   3.24490   3.25403   3.27586
 Alpha virt. eigenvalues --    3.31807   3.33447   3.34826   3.37909   3.38422
 Alpha virt. eigenvalues --    3.40086   3.42693   3.46011   3.49993   3.53429
 Alpha virt. eigenvalues --    3.55099   3.58096   3.58895   3.61280   3.63817
 Alpha virt. eigenvalues --    3.65573   3.71298   3.71617   3.75309   3.77540
 Alpha virt. eigenvalues --    3.82001   3.82676   3.83587   3.89917   3.92874
 Alpha virt. eigenvalues --    3.95312   3.99527   3.99683   4.01732   4.04714
 Alpha virt. eigenvalues --    4.06155   4.10831   4.11332   4.15130   4.17316
 Alpha virt. eigenvalues --    4.18521   4.21404   4.23487   4.24610   4.26512
 Alpha virt. eigenvalues --    4.30238   4.31891   4.33802   4.34770   4.38962
 Alpha virt. eigenvalues --    4.43451   4.47099   4.47538   4.50939   4.55111
 Alpha virt. eigenvalues --    4.56287   4.60310   4.64197   4.69298   4.75861
 Alpha virt. eigenvalues --    4.95952   5.03884   5.15566   5.22642   5.23757
 Alpha virt. eigenvalues --    5.28022   5.37891   5.42210   5.47419   5.49595
 Alpha virt. eigenvalues --    5.57637   5.58748   5.59226   5.60501   5.65236
 Alpha virt. eigenvalues --    5.68453   5.82256   5.93685   6.48726   6.97776
 Alpha virt. eigenvalues --    7.18761   7.19274   7.22224   7.51692   7.63244
 Alpha virt. eigenvalues --   24.17891  24.36112  24.44496  24.53743  50.12859
  Beta  occ. eigenvalues --  -19.61909 -10.58387 -10.54021 -10.53615 -10.52572
  Beta  occ. eigenvalues --   -1.14025  -0.88595  -0.81100  -0.72286  -0.64709
  Beta  occ. eigenvalues --   -0.56717  -0.54057  -0.51036  -0.49683  -0.48289
  Beta  occ. eigenvalues --   -0.43006  -0.41758  -0.40905  -0.39004  -0.35143
  Beta virt. eigenvalues --   -0.03922   0.01579   0.02688   0.03258   0.04016
  Beta virt. eigenvalues --    0.05657   0.06150   0.06662   0.07506   0.08594
  Beta virt. eigenvalues --    0.08980   0.10255   0.10766   0.12688   0.13996
  Beta virt. eigenvalues --    0.15463   0.17118   0.19053   0.19651   0.20180
  Beta virt. eigenvalues --    0.20873   0.22486   0.24208   0.24541   0.25320
  Beta virt. eigenvalues --    0.26587   0.27053   0.28104   0.28354   0.30728
  Beta virt. eigenvalues --    0.31882   0.33118   0.33597   0.37137   0.42296
  Beta virt. eigenvalues --    0.43938   0.44784   0.46712   0.49133   0.51686
  Beta virt. eigenvalues --    0.53758   0.54529   0.55268   0.56375   0.57205
  Beta virt. eigenvalues --    0.57796   0.59466   0.60607   0.61587   0.62058
  Beta virt. eigenvalues --    0.64025   0.65560   0.65719   0.66079   0.67555
  Beta virt. eigenvalues --    0.69308   0.71189   0.72454   0.74303   0.78089
  Beta virt. eigenvalues --    0.82265   0.83509   0.86039   0.88205   0.90442
  Beta virt. eigenvalues --    0.92884   0.94479   0.97875   0.99366   1.02410
  Beta virt. eigenvalues --    1.03803   1.06545   1.08728   1.09502   1.13721
  Beta virt. eigenvalues --    1.14438   1.16879   1.17498   1.18913   1.20585
  Beta virt. eigenvalues --    1.21521   1.22747   1.24550   1.25315   1.26977
  Beta virt. eigenvalues --    1.28592   1.29497   1.30820   1.36395   1.37371
  Beta virt. eigenvalues --    1.39237   1.42348   1.43589   1.43707   1.45536
  Beta virt. eigenvalues --    1.46427   1.48253   1.49238   1.51500   1.53262
  Beta virt. eigenvalues --    1.53845   1.55867   1.57279   1.60609   1.61624
  Beta virt. eigenvalues --    1.63211   1.67354   1.70028   1.73121   1.76106
  Beta virt. eigenvalues --    1.94166   2.06927   2.10832   2.27325   2.30589
  Beta virt. eigenvalues --    2.41822   2.45831   2.49268   2.53931   2.54456
  Beta virt. eigenvalues --    2.58745   2.60335   2.64527   2.73553   2.78085
  Beta virt. eigenvalues --    2.80988   2.82468   2.85031   2.90631   2.92612
  Beta virt. eigenvalues --    2.93702   2.97347   2.98978   3.00878   3.02527
  Beta virt. eigenvalues --    3.06700   3.10349   3.12699   3.14158   3.15865
  Beta virt. eigenvalues --    3.16260   3.19938   3.22795   3.25895   3.26568
  Beta virt. eigenvalues --    3.30148   3.32734   3.34770   3.35873   3.39446
  Beta virt. eigenvalues --    3.41414   3.43765   3.44144   3.46422   3.51554
  Beta virt. eigenvalues --    3.54021   3.57544   3.58794   3.60684   3.62085
  Beta virt. eigenvalues --    3.64450   3.66898   3.71731   3.72608   3.76135
  Beta virt. eigenvalues --    3.78327   3.82680   3.82935   3.84017   3.90280
  Beta virt. eigenvalues --    3.93675   3.96203   3.99869   4.00784   4.02627
  Beta virt. eigenvalues --    4.05480   4.07324   4.12214   4.12263   4.16987
  Beta virt. eigenvalues --    4.18300   4.19263   4.23004   4.24124   4.25051
  Beta virt. eigenvalues --    4.26945   4.31510   4.32283   4.34606   4.35735
  Beta virt. eigenvalues --    4.40096   4.44908   4.47383   4.49036   4.52386
  Beta virt. eigenvalues --    4.55860   4.58005   4.61341   4.65390   4.70250
  Beta virt. eigenvalues --    4.79290   4.98574   5.07465   5.16948   5.22819
  Beta virt. eigenvalues --    5.24391   5.28725   5.37885   5.42331   5.48759
  Beta virt. eigenvalues --    5.52417   5.58634   5.58822   5.59900   5.62013
  Beta virt. eigenvalues --    5.65638   5.68960   5.82499   5.93800   6.48702
  Beta virt. eigenvalues --    6.97980   7.18914   7.19652   7.22552   7.51787
  Beta virt. eigenvalues --    7.63529  24.18739  24.36213  24.44530  24.54428
  Beta virt. eigenvalues --   50.12750
          Condensed to atoms (all electrons):
               1          2          3          4          5          6
     1  O    8.121417   0.102761   0.149899  -0.025217  -0.144684  -0.001906
     2  C    0.102761   5.713466  -0.023186  -0.036062  -0.256254   0.436425
     3  C    0.149899  -0.023186   5.009346  -0.020950   0.243156  -0.019604
     4  C   -0.025217  -0.036062  -0.020950   5.221016   0.153311  -0.032796
     5  C   -0.144684  -0.256254   0.243156   0.153311   5.998349  -0.038235
     6  H   -0.001906   0.436425  -0.019604  -0.032796  -0.038235   0.547243
     7  H   -0.004370   0.452706   0.026959  -0.031905  -0.086328  -0.039010
     8  H   -0.000098  -0.020937  -0.005075   0.413908  -0.008419   0.005661
     9  H    0.000159  -0.045410   0.000543   0.409917   0.020900  -0.003628
    10  H   -0.000103  -0.010570   0.005510   0.409072  -0.031469  -0.008451
    11  H   -0.033961   0.039805   0.413003  -0.002227  -0.061174  -0.000368
    12  H   -0.068840  -0.028147   0.449442  -0.002186  -0.024050   0.001977
    13  H    0.006009  -0.001426  -0.025267  -0.014891   0.386652  -0.001168
    14  H    0.239998  -0.006393  -0.002359  -0.005417   0.004845  -0.000130
               7          8          9         10         11         12
     1  O   -0.004370  -0.000098   0.000159  -0.000103  -0.033961  -0.068840
     2  C    0.452706  -0.020937  -0.045410  -0.010570   0.039805  -0.028147
     3  C    0.026959  -0.005075   0.000543   0.005510   0.413003   0.449442
     4  C   -0.031905   0.413908   0.409917   0.409072  -0.002227  -0.002186
     5  C   -0.086328  -0.008419   0.020900  -0.031469  -0.061174  -0.024050
     6  H   -0.039010   0.005661  -0.003628  -0.008451  -0.000368   0.001977
     7  H    0.509973  -0.007224  -0.005266   0.006292  -0.000254  -0.002002
     8  H   -0.007224   0.546050  -0.023734  -0.036846  -0.000025  -0.000030
     9  H   -0.005266  -0.023734   0.537559  -0.026337   0.000016   0.000008
    10  H    0.006292  -0.036846  -0.026337   0.555656  -0.000042   0.000003
    11  H   -0.000254  -0.000025   0.000016  -0.000042   0.556229  -0.034521
    12  H   -0.002002  -0.000030   0.000008   0.000003  -0.034521   0.553294
    13  H    0.003210  -0.001101  -0.000024   0.002501  -0.005151   0.003180
    14  H   -0.001246  -0.000181   0.000007   0.000022  -0.005702   0.008960
              13         14
     1  O    0.006009   0.239998
     2  C   -0.001426  -0.006393
     3  C   -0.025267  -0.002359
     4  C   -0.014891  -0.005417
     5  C    0.386652   0.004845
     6  H   -0.001168  -0.000130
     7  H    0.003210  -0.001246
     8  H   -0.001101  -0.000181
     9  H   -0.000024   0.000007
    10  H    0.002501   0.000022
    11  H   -0.005151  -0.005702
    12  H    0.003180   0.008960
    13  H    0.458415   0.000441
    14  H    0.000441   0.522190
          Atomic-Atomic Spin Densities.
               1          2          3          4          5          6
     1  O    0.069423   0.013613   0.006763   0.001889  -0.060935  -0.001884
     2  C    0.013613   0.010904   0.035310   0.012499  -0.188912   0.026394
     3  C    0.006763   0.035310  -0.049913  -0.007732  -0.062431  -0.004656
     4  C    0.001889   0.012499  -0.007732   0.025031   0.000459  -0.011586
     5  C   -0.060935  -0.188912  -0.062431   0.000459   1.437156  -0.023943
     6  H   -0.001884   0.026394  -0.004656  -0.011586  -0.023943   0.069305
     7  H    0.004534   0.012144   0.004808   0.008538  -0.030804  -0.012177
     8  H    0.000039   0.005618   0.001839   0.004781  -0.011020   0.000332
     9  H   -0.000038  -0.002464  -0.000941  -0.004887   0.007665   0.001174
    10  H    0.000039   0.002143   0.000404  -0.002128  -0.001450  -0.001655
    11  H    0.004036   0.001254   0.004859   0.001047  -0.012075  -0.000260
    12  H   -0.014547   0.001490   0.014992  -0.001895  -0.014842   0.003484
    13  H    0.000686   0.018214   0.010825   0.001281  -0.032081  -0.000552
    14  H    0.001869   0.002589   0.007190   0.001282  -0.006677   0.000136
               7          8          9         10         11         12
     1  O    0.004534   0.000039  -0.000038   0.000039   0.004036  -0.014547
     2  C    0.012144   0.005618  -0.002464   0.002143   0.001254   0.001490
     3  C    0.004808   0.001839  -0.000941   0.000404   0.004859   0.014992
     4  C    0.008538   0.004781  -0.004887  -0.002128   0.001047  -0.001895
     5  C   -0.030804  -0.011020   0.007665  -0.001450  -0.012075  -0.014842
     6  H   -0.012177   0.000332   0.001174  -0.001655  -0.000260   0.003484
     7  H    0.028560  -0.000390  -0.000789   0.000418   0.000217  -0.002077
     8  H   -0.000390  -0.009176   0.001322  -0.000529  -0.000015   0.000023
     9  H   -0.000789   0.001322  -0.000864   0.000096  -0.000001   0.000016
    10  H    0.000418  -0.000529   0.000096   0.001272   0.000008  -0.000038
    11  H    0.000217  -0.000015  -0.000001   0.000008   0.009201  -0.003807
    12  H   -0.002077   0.000023   0.000016  -0.000038  -0.003807   0.051900
    13  H    0.000145   0.000277  -0.000043  -0.000074   0.000459  -0.000576
    14  H   -0.000220   0.000034   0.000002  -0.000011  -0.000377   0.000487
              13         14
     1  O    0.000686   0.001869
     2  C    0.018214   0.002589
     3  C    0.010825   0.007190
     4  C    0.001281   0.001282
     5  C   -0.032081  -0.006677
     6  H   -0.000552   0.000136
     7  H    0.000145  -0.000220
     8  H    0.000277   0.000034
     9  H   -0.000043   0.000002
    10  H   -0.000074  -0.000011
    11  H    0.000459  -0.000377
    12  H   -0.000576   0.000487
    13  H   -0.052015   0.000103
    14  H    0.000103  -0.007406
 Mulliken charges and spin densities:
               1          2
     1  O   -0.341063   0.025488
     2  C   -0.316777  -0.049203
     3  C   -0.201420  -0.038683
     4  C   -0.435573   0.028582
     5  C   -0.156600   1.000112
     6  H    0.153990   0.044112
     7  H    0.178466   0.012908
     8  H    0.138052  -0.006864
     9  H    0.135291   0.000249
    10  H    0.134763  -0.001507
    11  H    0.134373   0.004546
    12  H    0.142911   0.034610
    13  H    0.188621  -0.053351
    14  H    0.244965  -0.000999
 Sum of Mulliken charges =  -0.00000   1.00000
 Mulliken charges and spin densities with hydrogens summed into heavy atoms:
               1          2
     1  O   -0.096098   0.024489
     2  C    0.015679   0.007817
     3  C    0.075865   0.000473
     4  C   -0.027467   0.020460
     5  C    0.032021   0.946761
 APT charges:
               1
     1  O   -0.616455
     2  C   -0.742289
     3  C   -0.749555
     4  C   -1.232233
     5  C   -0.292289
     6  H    0.388601
     7  H    0.314928
     8  H    0.292641
     9  H    0.512828
    10  H    0.389568
    11  H    0.472152
    12  H    0.368420
    13  H    0.427896
    14  H    0.465788
 Sum of APT charges =  -0.00000
 APT charges with hydrogens summed into heavy atoms:
               1
     1  O   -0.150667
     2  C   -0.038760
     3  C    0.091017
     4  C   -0.037196
     5  C    0.135607
 Electronic spatial extent (au):  <R**2>=            582.9926
 Charge=             -0.0000 electrons
 Dipole moment (field-independent basis, Debye):
    X=              1.0715    Y=              0.9102    Z=             -0.8163  Tot=              1.6257
 Quadrupole moment (field-independent basis, Debye-Ang):
   XX=            -36.1732   YY=            -32.7926   ZZ=            -31.4204
   XY=             -2.2760   XZ=              2.1998   YZ=              1.4558
 Traceless Quadrupole moment (field-independent basis, Debye-Ang):
   XX=             -2.7111   YY=              0.6695   ZZ=              2.0416
   XY=             -2.2760   XZ=              2.1998   YZ=              1.4558
 Octapole moment (field-independent basis, Debye-Ang**2):
  XXX=              1.8414  YYY=             -3.9269  ZZZ=             -0.4318  XYY=             -1.6134
  XXY=              4.7504  XXZ=             -2.3688  XZZ=             -5.8843  YZZ=             -2.3805
  YYZ=             -3.5002  XYZ=             -3.4416
 Hexadecapole moment (field-independent basis, Debye-Ang**3):
 XXXX=           -606.6244 YYYY=           -122.1890 ZZZZ=            -82.5984 XXXY=             -9.4854
 XXXZ=             11.1433 YYYX=              7.0138 YYYZ=              1.4410 ZZZX=              4.1931
 ZZZY=              4.9491 XXYY=           -116.2902 XXZZ=           -103.9555 YYZZ=            -30.2269
 XXYZ=              3.4035 YYXZ=              4.7540 ZZXY=              4.0161
 N-N= 1.786025161158D+02 E-N=-9.002921781659D+02  KE= 2.320713684212D+02
  Exact polarizability:   0.000   0.000   0.000   0.000   0.000   0.000
 Approx polarizability:  62.061   0.452  60.618  -0.202   0.289  61.312
                          Isotropic Fermi Contact Couplings
        Atom                 a.u.       MegaHertz       Gauss      10(-4) cm-1
     1  O(17)              0.04347     -26.35403      -9.40377      -8.79076
     2  C(13)             -0.02899     -32.59508     -11.63074     -10.87255
     3  C(13)             -0.03484     -39.16547     -13.97521     -13.06420
     4  C(13)              0.01813      20.38139       7.27259       6.79850
     5  C(13)              0.16673     187.43480      66.88140      62.52152
     6  H(1)               0.02602     116.29672      41.49756      38.79241
     7  H(1)               0.00684      30.57074      10.90840      10.19730
     8  H(1)              -0.00038      -1.70488      -0.60835      -0.56869
     9  H(1)               0.00009       0.41535       0.14821       0.13855
    10  H(1)              -0.00024      -1.07185      -0.38246      -0.35753
    11  H(1)               0.00109       4.87001       1.73774       1.62446
    12  H(1)               0.01791      80.07441      28.57254      26.70995
    13  H(1)              -0.01548     -69.17431     -24.68311     -23.07407
    14  H(1)              -0.00096      -4.29569      -1.53281      -1.43289
 --------------------------------------------------------
       Center         ----  Spin Dipole Couplings  ----
                      3XX-RR        3YY-RR        3ZZ-RR
 --------------------------------------------------------
     1   Atom        0.048302      0.030138     -0.078440
     2   Atom       -0.002479     -0.002244      0.004723
     3   Atom        0.007193     -0.005415     -0.001778
     4   Atom        0.022019     -0.011570     -0.010449
     5   Atom       -0.527441      0.168446      0.358995
     6   Atom        0.000746     -0.007561      0.006815
     7   Atom       -0.006476      0.006385      0.000091
     8   Atom        0.005772     -0.002432     -0.003339
     9   Atom        0.004658     -0.001867     -0.002791
    10   Atom        0.010311     -0.005268     -0.005043
    11   Atom        0.017740     -0.008592     -0.009148
    12   Atom        0.008589     -0.007998     -0.000591
    13   Atom       -0.056911      0.039743      0.017168
    14   Atom       -0.000230      0.001049     -0.000819
 --------------------------------------------------------
                        XY            XZ            YZ
 --------------------------------------------------------
     1   Atom        0.131523     -0.051412     -0.034003
     2   Atom       -0.002684      0.010320      0.006099
     3   Atom        0.006211     -0.010648     -0.007512
     4   Atom       -0.004504     -0.002458      0.000245
     5   Atom        0.038756      0.040217      0.779770
     6   Atom       -0.004162      0.012204     -0.002170
     7   Atom       -0.006811      0.004236     -0.011448
     8   Atom       -0.007869     -0.003731      0.003348
     9   Atom       -0.003801      0.001449     -0.000457
    10   Atom        0.001280     -0.001728     -0.000070
    11   Atom       -0.005313      0.003131      0.001412
    12   Atom        0.001957     -0.011527      0.002365
    13   Atom        0.033211     -0.024373     -0.029472
    14   Atom        0.013011      0.000830      0.008926
 --------------------------------------------------------


 ---------------------------------------------------------------------------------
              Anisotropic Spin Dipole Couplings in Principal Axis System
 ---------------------------------------------------------------------------------

       Atom             a.u.   MegaHertz   Gauss  10(-4) cm-1        Axes

              Baa    -0.1025     7.417     2.647     2.474  0.5962 -0.4150  0.6873
     1 O(17)  Bbb    -0.0826     5.976     2.132     1.993 -0.3593  0.6276  0.6906
              Bcc     0.1851   -13.394    -4.779    -4.468  0.7179  0.6587 -0.2251
 
              Baa    -0.0130    -1.743    -0.622    -0.581  0.6725  0.4852 -0.5589
     2 C(13)  Bbb     0.0001     0.012     0.004     0.004 -0.5352  0.8404  0.0856
              Bcc     0.0129     1.732     0.618     0.578  0.5112  0.2415  0.8248
 
              Baa    -0.0116    -1.561    -0.557    -0.521  0.1771  0.6811  0.7104
     3 C(13)  Bbb    -0.0064    -0.857    -0.306    -0.286  0.6368 -0.6297  0.4450
              Bcc     0.0180     2.418     0.863     0.807  0.7504  0.3736 -0.5453
 
              Baa    -0.0122    -1.633    -0.583    -0.545  0.1340  0.9897  0.0507
     4 C(13)  Bbb    -0.0106    -1.426    -0.509    -0.476  0.0667 -0.0601  0.9960
              Bcc     0.0228     3.059     1.092     1.020  0.9887 -0.1301 -0.0741
 
              Baa    -0.5301   -71.133   -25.382   -23.727  0.9608 -0.2286  0.1570
     5 C(13)  Bbb    -0.5212   -69.936   -24.955   -23.328  0.2751  0.7134 -0.6446
              Bcc     1.0513   141.069    50.337    47.056  0.0353  0.6625  0.7483
 
              Baa    -0.0105    -5.592    -1.995    -1.865  0.6557  0.6518 -0.3809
     6 H(1)   Bbb    -0.0066    -3.533    -1.260    -1.178 -0.4353  0.7387  0.5147
              Bcc     0.0171     9.124     3.256     3.044  0.6169 -0.1717  0.7681
 
              Baa    -0.0096    -5.139    -1.834    -1.714  0.7706  0.5535  0.3160
     7 H(1)   Bbb    -0.0081    -4.329    -1.545    -1.444 -0.5550  0.3390  0.7596
              Bcc     0.0177     9.468     3.378     3.158 -0.3133  0.7607 -0.5685
 
              Baa    -0.0075    -4.006    -1.430    -1.336  0.4183  0.8534 -0.3110
     8 H(1)   Bbb    -0.0046    -2.459    -0.877    -0.820  0.4173  0.1236  0.9003
              Bcc     0.0121     6.466     2.307     2.157  0.8068 -0.5064 -0.3044
 
              Baa    -0.0037    -1.958    -0.699    -0.653  0.4385  0.8543 -0.2791
     9 H(1)   Bbb    -0.0030    -1.588    -0.567    -0.530 -0.0204  0.3200  0.9472
              Bcc     0.0066     3.546     1.265     1.183  0.8985 -0.4097  0.1577
 
              Baa    -0.0054    -2.882    -1.028    -0.961 -0.1169  0.9156 -0.3846
    10 H(1)   Bbb    -0.0052    -2.777    -0.991    -0.926  0.0696  0.3939  0.9165
              Bcc     0.0106     5.659     2.019     1.888  0.9907  0.0804 -0.1097
 
              Baa    -0.0115    -6.137    -2.190    -2.047  0.2005  0.6992 -0.6862
    11 H(1)   Bbb    -0.0076    -4.029    -1.437    -1.344  0.0560  0.6911  0.7206
              Bcc     0.0191    10.165     3.627     3.391  0.9781 -0.1829  0.0994
 
              Baa    -0.0113    -6.011    -2.145    -2.005 -0.4158  0.6832 -0.6003
    12 H(1)   Bbb    -0.0051    -2.744    -0.979    -0.915  0.3753  0.7301  0.5711
              Bcc     0.0164     8.755     3.124     2.920  0.8284  0.0122 -0.5600
 
              Baa    -0.0700   -37.336   -13.323   -12.454  0.9532 -0.2386  0.1859
    13 H(1)   Bbb    -0.0031    -1.646    -0.587    -0.549 -0.0156  0.5750  0.8180
              Bcc     0.0731    38.982    13.910    13.003  0.3020  0.7826 -0.5444
 
              Baa    -0.0151    -8.046    -2.871    -2.684 -0.5902  0.6993 -0.4034
    14 H(1)   Bbb    -0.0014    -0.749    -0.267    -0.250 -0.5655 -0.0016  0.8247
              Bcc     0.0165     8.796     3.139     2.934  0.5761  0.7148  0.3964
 

 ---------------------------------------------------------------------------------

 No NMR shielding tensors so no spin-rotation constants.
 Leave Link  601 at Wed Mar 13 04:13:41 2019, MaxMem=   671088640 cpu:               8.5 elap:               0.5
 (Enter /shared/centos7/gaussian/g16/l701.exe)
 SCFChk:  SCF convergence  8.13D-09 required  1.00D-08
 ... and contract with generalized density number  0.
 Compute integral second derivatives.
 Entering OneElI...
 Calculate overlap and kinetic energy integrals
    NBasis = 276  MinDer = 2  MaxDer = 2
 Requested accuracy = 0.1000D-12
 PrmmSu-InSpLW:  IPartL=    0 NPrtUS=   20 NPrtUL=    1 DoSpLW=F IThBeg=    0 IThEnd=   19 NThAct=   20.
 PrsmSu:  NPrtUS=  20 ThrOK=T IAlg=1 NPAlg=1 LenDen=           0 ISkipM=0 DoSpLW=F IThBeg=    0 IThEnd=   19.
 Prism:   IPart=     0 DynPar=F LinDyn=F Incr=           1.
 PRISM was handed    33458031 working-precision words and  3645 shell-pairs
 PRISM was handed    33458031 working-precision words and  3645 shell-pairs
 PRISM was handed    33458031 working-precision words and  3645 shell-pairs
 PRISM was handed    33458031 working-precision words and  3645 shell-pairs
 PRISM was handed    33458031 working-precision words and  3645 shell-pairs
 PRISM was handed    33458031 working-precision words and  3645 shell-pairs
 PRISM was handed    33458031 working-precision words and  3645 shell-pairs
 PRISM was handed    33458031 working-precision words and  3645 shell-pairs
 PRISM was handed    33458031 working-precision words and  3645 shell-pairs
 PRISM was handed    33458031 working-precision words and  3645 shell-pairs
 PRISM was handed    33458031 working-precision words and  3645 shell-pairs
 PRISM was handed    33458031 working-precision words and  3645 shell-pairs
 PRISM was handed    33458031 working-precision words and  3645 shell-pairs
 PRISM was handed    33458031 working-precision words and  3645 shell-pairs
 PRISM was handed    33458031 working-precision words and  3645 shell-pairs
 PRISM was handed    33458031 working-precision words and  3645 shell-pairs
 PRISM was handed    33458031 working-precision words and  3645 shell-pairs
 PRISM was handed    33458031 working-precision words and  3645 shell-pairs
 PRISM was handed    33458031 working-precision words and  3645 shell-pairs
 PRISM was handed    33458031 working-precision words and  3645 shell-pairs
 IPart=  8 NShTot=         183 NBatch=          35 AvBLen=         5.2
 IPart=  9 NShTot=         180 NBatch=          34 AvBLen=         5.3
 IPart=  7 NShTot=         184 NBatch=          35 AvBLen=         5.3
 IPart=  0 NShTot=         222 NBatch=          60 AvBLen=         3.7
 IPart= 11 NShTot=         175 NBatch=          33 AvBLen=         5.3
 IPart= 17 NShTot=         164 NBatch=          28 AvBLen=         5.9
 IPart= 12 NShTot=         173 NBatch=          32 AvBLen=         5.4
 IPart= 16 NShTot=         164 NBatch=          28 AvBLen=         5.9
 IPart= 10 NShTot=         177 NBatch=          34 AvBLen=         5.2
 IPart=  1 NShTot=         210 NBatch=          52 AvBLen=         4.0
 IPart= 15 NShTot=         165 NBatch=          29 AvBLen=         5.7
 IPart=  2 NShTot=         205 NBatch=          50 AvBLen=         4.1
 IPart=  3 NShTot=         201 NBatch=          47 AvBLen=         4.3
 IPart= 19 NShTot=         163 NBatch=          28 AvBLen=         5.8
 IPart=  5 NShTot=         189 NBatch=          38 AvBLen=         5.0
 IPart= 14 NShTot=         170 NBatch=          31 AvBLen=         5.5
 IPart=  6 NShTot=         188 NBatch=          37 AvBLen=         5.1
 IPart= 18 NShTot=         163 NBatch=          28 AvBLen=         5.8
 IPart= 13 NShTot=         172 NBatch=          32 AvBLen=         5.4
 IPart=  4 NShTot=         197 NBatch=          46 AvBLen=         4.3
 PrSmSu:  NxtVal=             21.
 Entering OneElI...
 Calculate potential energy integrals
    NBasis = 276  MinDer = 2  MaxDer = 2
 Requested accuracy = 0.1000D-12
 PrmmSu-InSpLW:  IPartL=    0 NPrtUS=   20 NPrtUL=    1 DoSpLW=F IThBeg=    0 IThEnd=   19 NThAct=   20.
 PrsmSu:  NPrtUS=  20 ThrOK=T IAlg=1 NPAlg=1 LenDen=           0 ISkipM=0 DoSpLW=F IThBeg=    0 IThEnd=   19.
 Prism:   IPart=     0 DynPar=F LinDyn=F Incr=          24.
 PRISM was handed    33470465 working-precision words and  3458 shell-pairs
 PRISM was handed    33470465 working-precision words and  3458 shell-pairs
 PRISM was handed    33470465 working-precision words and  3458 shell-pairs
 PRISM was handed    33470465 working-precision words and  3458 shell-pairs
 PRISM was handed    33470465 working-precision words and  3458 shell-pairs
 PRISM was handed    33470465 working-precision words and  3458 shell-pairs
 PRISM was handed    33470465 working-precision words and  3458 shell-pairs
 PRISM was handed    33470465 working-precision words and  3458 shell-pairs
 PRISM was handed    33470465 working-precision words and  3458 shell-pairs
 PRISM was handed    33470465 working-precision words and  3458 shell-pairs
 PRISM was handed    33470465 working-precision words and  3458 shell-pairs
 PRISM was handed    33470465 working-precision words and  3458 shell-pairs
 PRISM was handed    33470465 working-precision words and  3458 shell-pairs
 PRISM was handed    33470465 working-precision words and  3458 shell-pairs
 PRISM was handed    33470465 working-precision words and  3458 shell-pairs
 PRISM was handed    33470465 working-precision words and  3458 shell-pairs
 PRISM was handed    33470465 working-precision words and  3458 shell-pairs
 PRISM was handed    33470465 working-precision words and  3458 shell-pairs
 PRISM was handed    33470465 working-precision words and  3458 shell-pairs
 PRISM was handed    33470465 working-precision words and  3458 shell-pairs
 IPart= 16 NShTot=        2212 NBatch=         158 AvBLen=        14.0
 IPart= 19 NShTot=        2142 NBatch=         153 AvBLen=        14.0
 IPart= 17 NShTot=        2198 NBatch=         157 AvBLen=        14.0
 IPart= 12 NShTot=        2324 NBatch=         166 AvBLen=        14.0
 IPart= 11 NShTot=        2338 NBatch=         167 AvBLen=        14.0
 IPart= 14 NShTot=        2254 NBatch=         161 AvBLen=        14.0
 IPart=  9 NShTot=        2380 NBatch=         170 AvBLen=        14.0
 IPart=  8 NShTot=        2422 NBatch=         173 AvBLen=        14.0
 IPart= 15 NShTot=        2212 NBatch=         158 AvBLen=        14.0
 IPart=  7 NShTot=        2464 NBatch=         176 AvBLen=        14.0
 IPart= 10 NShTot=        2352 NBatch=         168 AvBLen=        14.0
 IPart=  5 NShTot=        2548 NBatch=         182 AvBLen=        14.0
 IPart= 18 NShTot=        2170 NBatch=         155 AvBLen=        14.0
 IPart=  2 NShTot=        2688 NBatch=         192 AvBLen=        14.0
 IPart=  0 NShTot=        2884 NBatch=         206 AvBLen=        14.0
 IPart=  1 NShTot=        2758 NBatch=         197 AvBLen=        14.0
 IPart=  6 NShTot=        2506 NBatch=         179 AvBLen=        14.0
 IPart= 13 NShTot=        2268 NBatch=         162 AvBLen=        14.0
 IPart=  4 NShTot=        2632 NBatch=         188 AvBLen=        14.0
 IPart=  3 NShTot=        2660 NBatch=         190 AvBLen=        14.0
 PrSmSu:  NxtVal=            481.
 Polarizability after L701:
                1             2             3 
      1  0.000000D+00
      2  0.000000D+00  0.000000D+00
      3  0.000000D+00  0.000000D+00  0.000000D+00
 Dipole Derivatives after L701:
                 1             2             3             4             5 
      1  -0.403554D+00 -0.648013D+00 -0.509064D+00 -0.162595D+00 -0.699404D-01
      2   0.729166D-01 -0.624259D+00 -0.338875D+00 -0.372440D+00 -0.101041D+01
      3   0.103108D+00 -0.115108D+00 -0.821552D+00  0.477960D-01  0.914753D-01
                 6             7             8             9            10 
      1  -0.702855D+00 -0.783694D+00  0.116611D+01  0.208466D+00 -0.180901D+01
      2   0.224960D-01  0.366239D+00 -0.731407D+00 -0.965653D-01  0.139703D+00
      3  -0.105386D+01 -0.623415D-01 -0.111664D-01 -0.733565D+00 -0.118128D+00
                11            12            13            14            15 
      1   0.122784D+00  0.493505D+00 -0.147396D+00 -0.160062D+00  0.504101D-01
      2  -0.990228D+00 -0.763047D-01 -0.194958D+00 -0.392264D+00  0.474878D+00
      3  -0.957644D-02 -0.897459D+00  0.623997D-01  0.244198D+00 -0.337207D+00
                16            17            18            19            20 
      1   0.270458D+00  0.243413D+00  0.424992D+00  0.948212D-01 -0.223896D+00
      2   0.422136D-01  0.261007D+00  0.168192D+00  0.180716D+00  0.566340D+00
      3   0.128183D+00  0.297616D+00  0.634340D+00 -0.122938D+00 -0.294434D+00
                21            22            23            24            25 
      1   0.104558D+00  0.163641D-01 -0.404203D+00 -0.734704D+00  0.102861D+01
      2  -0.108285D+00  0.752525D-01  0.314004D+00  0.317958D+00 -0.242837D+00
      3   0.283622D+00  0.838897D-01  0.263696D+00  0.547554D+00  0.109487D+00
                26            27            28            29            30 
      1  -0.652538D+00  0.731070D+00  0.551041D+00  0.962787D+00 -0.326095D+00
      2   0.284926D+00 -0.205968D+00  0.120709D+00  0.431292D+00 -0.763656D-01
      3  -0.924188D-01  0.224946D+00 -0.939719D-01 -0.184411D+00  0.186372D+00
                31            32            33            34            35 
      1   0.687100D+00 -0.549536D+00  0.527094D+00  0.251166D+00 -0.179430D+00
      2  -0.277416D+00  0.452818D+00 -0.283875D+00 -0.245483D-01  0.264631D+00
      3   0.142755D+00 -0.128279D+00  0.276539D+00 -0.767936D-01  0.950249D-01
                36            37            38            39            40 
      1  -0.718591D+00  0.217118D+00  0.948503D-01 -0.761812D-01  0.189572D+00
      2   0.289910D+00  0.188760D+00  0.682010D+00 -0.474319D+00 -0.743112D-01
      3   0.589463D+00 -0.101007D+00 -0.321408D+00  0.384560D+00 -0.102438D+00
                41            42 
      1   0.297673D+00  0.527394D+00
      2   0.491543D+00  0.387124D+00
      3   0.164791D+00  0.716249D+00
 Hessian after L701:
                1             2             3             4             5 
      1  0.936362D+01
      2 -0.230287D+01  0.499145D+01
      3  0.409446D+00 -0.211697D+01  0.845774D+01
      4  0.455428D+00  0.371427D+00  0.388244D-01  0.105765D+02
      5  0.435515D+00 -0.291937D+00  0.245864D-01  0.679610D+00  0.137047D+02
      6 -0.280010D-02  0.760427D-02 -0.451830D+00 -0.151629D-01  0.553820D+00
      7 -0.559757D+01  0.213973D+01  0.285283D+00  0.141942D+00 -0.145002D+00
      8  0.208445D+01 -0.275483D+00  0.938273D+00 -0.112376D+00 -0.475538D-01
      9  0.295470D+00  0.940893D+00 -0.622216D+01  0.124708D+00 -0.461313D-01
     10  0.850563D-01 -0.401179D-01 -0.135298D-01 -0.153868D+01 -0.511507D+00
     11  0.645394D-02 -0.711889D-01 -0.687002D-02 -0.493394D+00 -0.466614D+01
     12  0.289054D-01 -0.119117D-03 -0.708757D-01 -0.179622D+01  0.328014D+00
     13  0.424954D+00  0.295445D+00  0.269095D-01 -0.260859D+01 -0.150912D+01
     14  0.352730D+00  0.223855D+00 -0.258911D-01 -0.157023D+01 -0.382399D+01
     15  0.139491D+00  0.458273D-01 -0.103368D+00  0.144949D+01 -0.102016D+01
     16  0.129757D-01  0.791922D-02  0.126362D-01 -0.357221D+01  0.241046D+00
     17  0.231948D-01 -0.700436D-02  0.935221D-02  0.219888D+00 -0.313715D+01
     18  0.352326D-01  0.853001D-02 -0.351566D-02  0.421926D+00  0.980563D+00
     19  0.479671D-01 -0.296280D-01  0.424734D-01 -0.365218D+01  0.802737D+00
     20 -0.906949D-01 -0.257804D-01 -0.268834D-01  0.958810D+00 -0.182940D+01
     21  0.719516D-01 -0.180135D-01 -0.202559D-01 -0.378356D+00 -0.829468D+00
     22  0.212011D-01 -0.155020D-02 -0.117579D-01  0.344431D-02  0.257482D-01
     23 -0.139617D-01 -0.117934D-01  0.674769D-02  0.137357D-02  0.388668D-01
     24 -0.347355D-01  0.578199D-02 -0.306753D-03  0.111996D-01  0.304337D-01
     25  0.346995D-01 -0.517506D-02 -0.115415D-02 -0.148002D-01  0.135957D-01
     26 -0.958583D-02 -0.673046D-02  0.804334D-03 -0.179150D-02  0.329783D-01
     27  0.139018D-01 -0.307230D-02 -0.105047D-01  0.390026D-01 -0.314129D-01
     28  0.212529D-01  0.642633D-02 -0.660730D-02  0.193814D-01 -0.183819D-01
     29  0.236048D-01 -0.475866D-02 -0.647176D-02  0.461996D-01  0.500935D-01
     30 -0.757534D-02 -0.998830D-03 -0.709989D-02  0.578778D-02  0.158906D-01
     31  0.681511D-01 -0.223120D+00  0.100022D+00  0.157058D+00 -0.877184D-01
     32 -0.192503D+00  0.991518D-01 -0.173078D+00 -0.126816D+00 -0.363997D-01
     33  0.791610D-01 -0.187622D+00  0.112949D+00  0.911976D-01 -0.293675D-01
     34  0.100461D+00 -0.483827D-01 -0.381345D-01  0.266996D-01  0.372268D-02
     35 -0.732954D-01 -0.201335D+00 -0.770828D-01 -0.127073D-01  0.534475D-02
     36 -0.311697D-01 -0.324642D-01  0.246828D+00 -0.182806D-01 -0.455251D-02
     37  0.244411D-01  0.786733D-01 -0.323830D-01 -0.635458D-02  0.612322D-01
     38  0.106520D+00  0.646077D-01 -0.518227D-01  0.221155D-01  0.145634D-02
     39 -0.519165D-01 -0.554579D-01 -0.238558D-01 -0.132997D-01  0.490336D-02
     40 -0.506263D+01 -0.248779D+00 -0.812027D+00  0.123610D-01  0.852555D-02
     41 -0.349561D+00 -0.448305D+01  0.150530D+01  0.178916D-01 -0.884835D-03
     42 -0.945362D+00  0.140608D+01 -0.190374D+01  0.391849D-01  0.228855D-01
                6             7             8             9            10 
      6  0.135923D+02
      7 -0.249640D-02  0.131674D+02
      8 -0.345050D-01 -0.157542D+01  0.124274D+02
      9 -0.720201D-01  0.196614D+00 -0.507444D+00  0.165488D+02
     10 -0.176815D+01  0.165281D+00 -0.590390D-02 -0.957603D-03  0.962549D+01
     11  0.312986D+00 -0.378028D-01 -0.923520D-01 -0.547304D-03  0.590843D+00
     12 -0.365544D+01  0.974154D-02  0.328702D-02 -0.888900D-01  0.883689D+00
     13  0.146423D+01 -0.112990D+01  0.963098D+00 -0.908137D+00  0.187974D+00
     14 -0.102503D+01  0.928751D+00 -0.578535D+01 -0.239321D+00 -0.266276D+00
     15 -0.402695D+01 -0.876673D+00 -0.275495D+00 -0.562942D+01 -0.229431D-01
     16  0.467592D+00  0.216520D-01  0.991101D-02  0.131634D-01  0.308564D-02
     17  0.977440D+00  0.686923D-02  0.447777D-02  0.806460D-02  0.125795D-01
     18 -0.173251D+01  0.157440D-01  0.160803D-01  0.113671D-01  0.206457D-01
     19 -0.296388D+00 -0.118251D-02 -0.495070D-01  0.292370D-01  0.121619D-01
     20 -0.786313D+00 -0.113920D+00 -0.313178D-02 -0.512097D-01  0.376700D-01
[...]
 ! A21   A(2,5,13)             118.9133         -DE/DX =    0.0                 !
 ! A22   A(3,5,13)             119.1909         -DE/DX =    0.0                 !
 ! D1    D(14,1,3,5)           -54.3327         -DE/DX =    0.0                 !
 ! D2    D(14,1,3,11)           70.0785         -DE/DX =    0.0                 !
 ! D3    D(14,1,3,12)         -174.7347         -DE/DX =    0.0                 !
 ! D4    D(5,2,4,8)            -61.3508         -DE/DX =    0.0                 !
 ! D5    D(5,2,4,9)            178.2603         -DE/DX =    0.0                 !
 ! D6    D(5,2,4,10)            58.0899         -DE/DX =    0.0                 !
 ! D7    D(6,2,4,8)            176.9682         -DE/DX =    0.0                 !
 ! D8    D(6,2,4,9)             56.5792         -DE/DX =    0.0                 !
 ! D9    D(6,2,4,10)           -63.5911         -DE/DX =    0.0                 !
 ! D10   D(7,2,4,8)             61.2916         -DE/DX =    0.0                 !
 ! D11   D(7,2,4,9)            -59.0974         -DE/DX =    0.0                 !
 ! D12   D(7,2,4,10)          -179.2677         -DE/DX =    0.0                 !
 ! D13   D(4,2,5,3)            155.792          -DE/DX =    0.0                 !
 ! D14   D(4,2,5,13)           -36.9115         -DE/DX =    0.0                 !
 ! D15   D(6,2,5,3)            -82.6465         -DE/DX =    0.0                 !
 ! D16   D(6,2,5,13)            84.65           -DE/DX =    0.0                 !
 ! D17   D(7,2,5,3)             32.3768         -DE/DX =    0.0                 !
 ! D18   D(7,2,5,13)          -160.3267         -DE/DX =    0.0                 !
 ! D19   D(1,3,5,2)            -57.9806         -DE/DX =    0.0                 !
 ! D20   D(1,3,5,13)           134.7577         -DE/DX =    0.0                 !
 ! D21   D(11,3,5,2)           177.5988         -DE/DX =    0.0                 !
 ! D22   D(11,3,5,13)           10.3371         -DE/DX =    0.0                 !
 ! D23   D(12,3,5,2)            58.6041         -DE/DX =    0.0                 !
 ! D24   D(12,3,5,13)         -108.6576         -DE/DX =    0.0                 !
 --------------------------------------------------------------------------------
 GradGradGradGradGradGradGradGradGradGradGradGradGradGradGradGradGradGrad

 Leave Link  103 at Wed Mar 13 04:23:01 2019, MaxMem=   671088640 cpu:               0.5 elap:               0.1
 (Enter /shared/centos7/gaussian/g16/l9999.exe)

 ----------------------------------------------------------------------

 Electric dipole moment (input orientation):
 (Debye = 10**-18 statcoulomb cm , SI units = C m)
                  (au)            (Debye)         (10**-30 SI)
   Tot        0.636628D+00      0.161815D+01      0.539756D+01
   x         -0.419276D+00     -0.106569D+01     -0.355477D+01
   y          0.353701D+00      0.899018D+00      0.299880D+01
   z          0.323108D+00      0.821259D+00      0.273942D+01

 Dipole polarizability, Alpha (input orientation).
 (esu units = cm**3 , SI units = C**2 m**2 J**-1)
 Alpha(0;0):
               (au)            (10**-24 esu)      (10**-40 SI)
   iso        0.550753D+02      0.816132D+01      0.908070D+01
   aniso      0.123598D+02      0.183154D+01      0.203786D+01
   xx         0.632198D+02      0.936821D+01      0.104235D+02
   yx         0.105743D+01      0.156694D+00      0.174346D+00
   yy         0.510944D+02      0.757141D+01      0.842433D+01
   zx        -0.206796D+00     -0.306440D-01     -0.340960D-01
   zy        -0.580914D-01     -0.860825D-02     -0.957797D-02
   zz         0.509118D+02      0.754435D+01      0.839423D+01

 ----------------------------------------------------------------------

 Dipole orientation:
     8          2.26631105         -0.39036176         -3.18803601
     6         -2.02924119         -0.00042730          0.67229682
     6          2.13602922          1.56660651         -1.34446574
     6         -2.90034955         -1.69346246          2.84004910
     6          0.64988067          0.81649618          0.92032498
     1         -3.25148988          1.67804229          0.59127808
     1         -2.27887529         -0.95844539         -1.13877775
     1         -1.78586989         -3.42446139          2.90480036
     1         -4.88133607         -2.21218179          2.63582603
     1         -2.67716602         -0.73486924          4.65081534
     1          4.03092191          2.18443552         -0.80116137
     1          1.23255639          3.14588017         -2.33175625
     1          1.38806157          1.23592863          2.78236768
     1          2.90458212         -1.88257018         -2.37568912

 Electric dipole moment (dipole orientation):
 (Debye = 10**-18 statcoulomb cm , SI units = C m)
                  (au)            (Debye)         (10**-30 SI)
   Tot        0.636628D+00      0.161815D+01      0.539756D+01
   x          0.000000D+00      0.000000D+00      0.000000D+00
   y          0.000000D+00      0.000000D+00      0.000000D+00
   z          0.636628D+00      0.161815D+01      0.539756D+01

 Dipole polarizability, Alpha (dipole orientation).
 (esu units = cm**3 , SI units = C**2 m**2 J**-1)
 Alpha(0;0):
               (au)            (10**-24 esu)      (10**-40 SI)
   iso        0.550753D+02      0.816132D+01      0.908070D+01
   aniso      0.123598D+02      0.183154D+01      0.203786D+01
   xx         0.573201D+02      0.849396D+01      0.945080D+01
   yx         0.285053D+01      0.422405D+00      0.469989D+00
   yy         0.522677D+02      0.774527D+01      0.861778D+01
   zx        -0.551313D+01     -0.816962D+00     -0.908993D+00
   zy        -0.240465D+01     -0.356332D+00     -0.396472D+00
   zz         0.556383D+02      0.824474D+01      0.917351D+01

 ----------------------------------------------------------------------

 Test job not archived.
 1\1\GINC-C0302\Freq\UM062X\6-311+G(2df,2p)\C4H9O1(2)\UNDERKOFFLER.C\13
 -Mar-2019\0\\#P Geom=AllCheck Guess=TCheck SCRF=Check Test GenChk UM06
 2X/6-311+G(2df,2p) Freq\\Gaussian input prepared by ASE\\0,2\O,1.91515
 39118,-0.8104812514,0.0483778591\C,-0.999228993,-0.0631579609,-0.52652
 41369\C,1.4748973797,0.5383423507,-0.0772469552\C,-2.3005079751,-0.250
 1899733,0.2498435838\C,0.0290845029,0.6976510695,0.2336125035\H,-1.216
 1071036,0.4623797038,-1.4677242692\H,-0.585192445,-1.030840366,-0.8182
 705041\H,-2.1253281959,-0.816457841,1.1645598966\H,-3.042641963,-0.782
 9599279,-0.3428939059\H,-2.7243330823,0.714246503,0.5321197653\H,2.079
 1368538,1.2014531657,0.5474156605\H,1.6812779419,0.7966328842,-1.12158
 71118\H,-0.2877452125,1.516416537,0.8676566864\H,1.6809643804,-1.11762
 88934,0.927709928\\Version=EM64L-G16RevA.03\State=2-A\HF=-232.9673876\
 S2=0.755231\S2-1=0.\S2A=0.750023\RMSD=3.365e-09\RMSF=7.775e-07\ZeroPoi
 nt=0.1234187\Thermal=0.1305764\Dipole=-0.4192759,0.3537009,0.323108\Di
 poleDeriv=-0.7115132,0.1531008,-0.0913621,0.218607,-0.8388238,0.035968
 1,-0.0954876,0.0703451,-0.3037829,0.004398,-0.0050548,0.0077605,0.0319
 366,0.0687565,-0.0593327,-0.0338277,-0.0937102,0.0640052,0.4707922,-0.
 1326201,0.0091376,-0.2165069,0.6765759,-0.0675817,0.0404363,-0.0787305
 ,0.2917926,0.0457268,-0.0106249,0.025214,-0.0407006,0.0917917,0.003752
 ,-0.0187898,-0.0024587,0.069809,-0.0047441,0.0465869,0.0184364,-0.0193
 243,-0.085885,0.2288151,0.0609972,0.2122846,-0.1054429,-0.0206956,-0.0
 161794,-0.0318617,-0.0241026,0.0229421,0.0900176,-0.038177,0.0632594,-
 0.1101214,0.0118742,0.0402776,0.0337494,0.0211424,-0.0582722,-0.054678
 8,0.0377448,-0.0248018,0.0436196,0.0283484,0.0344705,-0.0451842,0.0049
 112,0.0117627,0.0833726,0.0225315,0.0864466,-0.079441,-0.0857013,-0.06
 91502,-0.0385099,-0.0871276,0.0226986,-0.0458807,-0.074503,-0.0600839,
 0.002146,0.0124628,0.0285611,0.0293841,0.0879597,-0.1020742,-0.054752,
 0.0453682,-0.0280749,0.0387162,-0.0605888,-0.0750925,-0.0552898,-0.046
 8079,-0.0956003,-0.0482148,-0.0817736,-0.0984974,-0.0094863,0.0060468,
 -0.0061978,0.0214617,0.0479151,0.0284144,0.0210064,0.0684257,0.0611937
 ,-0.1098435,-0.0351737,0.0341374,0.0152428,0.0278731,-0.00768,-0.10696
 71,-0.0034124,-0.1112827,0.0524616,0.3387674,-0.0222146,0.1018211,-0.0
 057752,0.2653935,-0.025524,0.0704675,0.0041107,0.1555679\Polar=63.2198
 08,1.0574267,51.0943971,-0.206796,-0.0580914,50.9118298\Quadrupole=-2.
 0175515,0.555188,1.4623635,1.6708229,1.6631889,-1.1084372\PG=C01 [X(C4
 H9O1)]\NImag=0\\0.12444025,-0.05199034,0.37502239,-0.13256904,-0.16171
 534,0.52844358,0.00148162,-0.00063972,-0.00019650,0.48857217,0.0001395
 0,-0.00129728,-0.00048195,-0.03475885,0.54963540,-0.00130875,-0.002134
 22,0.00033549,-0.00331647,0.01724415,0.49679208,-0.07334050,0.04517615
 ,-0.00413827,-0.02024336,-0.00368603,0.00559476,0.50740007,0.03811890,
 -0.21532651,0.03025800,-0.01463278,0.00510013,0.00770122,0.05837213,0.
 48066587,0.00500441,-0.00291743,-0.08474626,-0.01747744,0.00290066,0.0
 0900320,0.01966038,0.03158600,0.57659360,0.00038019,0.00020384,-0.0000
 8739,-0.16072022,-0.01243117,0.05713435,-0.00073973,-0.00281885,-0.001
 32061,0.50668116,0.00043472,0.00122215,0.00048335,-0.01084563,-0.08286
 214,0.00627169,-0.00085286,-0.00268009,-0.00202340,-0.00555907,0.57444
 858,-0.00012193,0.00091716,0.00014195,0.05528297,0.00451233,-0.1097181
 1,-0.00195541,-0.00312017,-0.00289175,0.04788358,0.00813569,0.55051283
 ,-0.01714150,0.02025482,0.00471338,-0.15021306,-0.04644631,-0.04809538
 ,-0.22525572,-0.00239739,0.02810760,-0.03013364,-0.01721463,-0.0158319
 1,0.53221213,0.03951921,-0.01648286,-0.00907335,-0.05102819,-0.1097820
 5,-0.06035161,0.00622018,-0.07031168,-0.02369022,-0.00494717,-0.001372
 21,0.00007575,-0.01825458,0.39506022,0.00522175,-0.00551528,0.00370887
 ,-0.05008610,-0.06023128,-0.10616022,0.02670085,-0.02211051,-0.0769472
 6,0.00866361,0.00867714,0.01014246,-0.02646016,0.25424782,0.32187751,-
 0.00069788,-0.00009365,0.00027842,-0.05154735,0.02931254,-0.04592830,0
 .00192911,-0.00044012,-0.00016157,0.00356973,-0.01534221,0.02730640,-0
 .00961435,0.00560012,-0.02066059,0.06189917,0.00038487,0.00050774,0.00
 031441,0.02226698,-0.10168536,0.09553048,0.00126007,-0.00046070,0.0001
 5800,0.00105548,-0.00200919,0.00384368,-0.00493507,0.00836693,-0.01501
 220,-0.02474879,0.11022054,-0.00005115,0.00023964,0.00008465,-0.037534
 91,0.10541454,-0.21636230,0.00093927,-0.00052604,-0.00055761,-0.001571
 56,0.00923165,-0.01514383,-0.01106274,0.00069042,-0.01737198,0.0466190
 0,-0.11111354,0.24223047,-0.00051867,0.00074360,0.00010288,-0.08495260
 ,0.08569982,0.02698969,0.00030934,-0.00081586,0.00050257,-0.01182878,0
 .02514437,0.00697918,0.01026005,-0.02029330,-0.00800144,-0.00244626,0.
 00618015,0.00136953,0.09445665,0.00096529,0.00171250,0.00085918,0.0867
 1822,-0.25515923,-0.05932720,0.00142813,-0.00137675,-0.00043223,-0.002
 40638,0.00679465,0.00183810,0.00359510,-0.01527098,-0.00746486,0.00645
 010,-0.01524584,-0.00273009,-0.09335464,0.27749264,0.00074504,0.001188
 52,0.00006372,0.02637514,-0.05807025,-0.06204668,0.00041023,-0.0002714
 6,0.00043308,0.00650770,-0.01529935,-0.00478028,0.00498921,-0.01820135
 ,-0.00848797,-0.01046576,0.02543435,0.00650853,-0.02752802,0.06685419,
 0.07017033,0.00012347,0.00004946,-0.00003912,0.00366888,-0.01660261,0.
 02536524,-0.00020024,0.00004665,0.00012883,-0.05466822,0.02492529,-0.0
 4064910,0.00209535,0.00086878,0.00062995,-0.00508333,-0.00121741,0.003
 14627,0.00144933,0.00035008,-0.00074784,0.05950947,-0.00007479,-0.0001
 0948,-0.00006362,0.00013815,-0.00179208,0.00202859,-0.00010062,0.00005
 503,-0.00011414,0.02427386,-0.12146031,0.11678050,0.00041335,0.0003038
 6,0.00032111,-0.00064823,0.00101971,-0.00001990,-0.00038871,0.00040808
 ,-0.00040029,-0.02631210,0.12717037,0.00007664,-0.00024758,0.00006011,
 -0.00170355,0.00843005,-0.01372350,-0.00008789,0.00025099,0.00003958,-
 0.03978122,0.11671621,-0.23413256,-0.00098224,-0.00075880,0.00055141,0
 .00348276,0.00012864,-0.00074945,-0.00035039,-0.00042318,0.00005052,0.
 04021372,-0.12904662,0.25402541,-0.00015991,0.00050958,0.00003790,-0.0
 1790719,-0.01389112,-0.01565367,-0.00008271,-0.00161449,-0.00100201,-0
 .16935932,-0.08893604,-0.10085676,-0.00450305,0.00088120,0.00408703,0.
 00137874,-0.00000116,-0.00009838,0.00059359,0.00065186,-0.00059044,-0.
 00386314,-0.00204622,-0.00256350,0.18483485,-0.00013425,0.00014472,-0.
 00001681,-0.00094105,-0.00204225,-0.00187442,0.00016098,-0.00015554,-0
 .00012894,-0.08928134,-0.11305278,-0.07296923,-0.00114257,0.00085821,0
 .00053228,-0.00007467,-0.00030576,0.00003579,0.00010531,0.00031562,0.0
 0037797,0.01275218,0.00938197,0.00929317,0.09865858,0.11819535,-0.0000
 9121,-0.00007775,-0.00002196,0.01343484,0.01067387,0.01062186,0.000671
 57,0.00057778,0.00091273,-0.10223739,-0.07391672,-0.13110967,0.0028329
 1,-0.00063976,-0.00176676,-0.00094838,0.00008327,0.00077045,-0.0008685
 3,-0.00021912,0.00055679,-0.01721685,-0.01448444,-0.01429385,0.1087399
 8,0.08042173,0.13939293,-0.00011148,-0.00046817,-0.00021392,-0.0129163
 7,0.02614447,0.00740641,-0.00014535,0.00018206,-0.00010787,-0.08470658
 ,0.08940917,0.02401745,0.00191600,0.00164024,0.00082434,0.00122855,-0.
 00034197,-0.00052326,-0.00446246,-0.00175030,0.00313536,-0.00304871,0.
 00475242,0.00130532,0.00945218,-0.02024261,-0.00461524,0.09295158,-0.0
 0004265,0.00005501,-0.00004985,-0.00226635,0.00502950,0.00115824,0.000
 11011,0.00017516,0.00020511,0.09037135,-0.25971538,-0.05977864,-0.0003
 1835,0.00089137,0.00031068,0.00048903,0.00058511,-0.00051603,-0.001508
 20,0.00123432,0.00047597,0.00535382,-0.01466405,-0.00460597,0.00581554
 ,-0.01354315,-0.00274728,-0.09863491,0.27993543,0.00013425,0.00011384,
 0.00010072,0.00778427,-0.01647393,-0.00546858,0.00005505,-0.00003079,-
 0.00007583,0.02407321,-0.05913700,-0.06407754,-0.00134589,0.00026918,0
 .00020203,-0.00072698,-0.00044914,0.00016722,0.00316450,0.00106948,-0.
 00120155,-0.01048511,0.02494263,0.00816218,0.00775979,-0.01595716,-0.0
 0496144,-0.03053207,0.06550030,0.06678978,0.00955429,0.01089068,0.0079
 5762,-0.00411875,0.00197896,0.00384437,-0.13325008,-0.08270631,-0.0847
 9103,-0.00076182,-0.00079990,-0.00134132,-0.01968966,-0.01992721,-0.02
 085989,0.00000636,0.00010101,-0.00018492,0.00039479,0.00006494,0.00020
 416,0.00001955,-0.00005111,0.00007838,-0.00053871,-0.00008879,0.000347
 99,-0.00005900,0.00007700,0.00002009,0.14312804,-0.00886304,-0.0382675
 4,-0.01551508,0.00092926,0.00115044,-0.00084722,-0.08393560,-0.1296245
 4,-0.08291396,0.00021453,0.00016441,0.00010211,0.00063747,0.00343621,0
 .00163127,-0.00028050,-0.00011444,-0.00016490,0.00020593,0.00001737,0.
 00018298,0.00002847,-0.00000728,-0.00002482,0.00008981,-0.00001199,-0.
 00003887,-0.00001621,0.00000384,-0.00000385,0.08762843,0.15694468,0.00
 453793,0.00247964,0.00846216,0.00088853,-0.00041143,0.00066399,-0.0861
 5327,-0.08684354,-0.14310815,0.00023947,0.00006942,0.00009445,0.007683
 44,0.00542990,0.00494984,0.00035993,0.00010723,0.00022564,0.00013348,0
 .00016626,-0.00005067,-0.00005041,-0.00001357,0.00002456,0.00005411,0.
 00000604,-0.00003956,-0.00003850,0.00000219,0.00001834,0.09050520,0.09
 561786,0.14573172,0.00465125,0.00668120,-0.01116150,0.00199236,0.00099
 477,-0.00119462,-0.05742378,-0.01874577,0.05052827,-0.00000811,0.00006
 836,-0.00005144,-0.01105712,-0.00180693,0.03089552,-0.00081093,-0.0001
 7212,-0.00068520,-0.00025238,-0.00042322,0.00001678,0.00014036,0.00009
 872,-0.00007881,-0.00001985,-0.00004035,-0.00014833,0.00015601,-0.0000
 3429,-0.00001717,0.00441265,0.00368568,-0.01833672,0.06097869,-0.00280
 476,-0.02428374,0.03976686,-0.00020106,0.00004970,0.00037021,-0.012144
 69,-0.05153576,0.03887016,-0.00008568,-0.00004328,0.00001868,0.0013145
 8,0.00318633,-0.00352050,0.00013200,0.00013574,0.00024835,0.00015544,-
 0.00002737,0.00012785,-0.00000136,-0.00001337,-0.00003392,0.00003049,-
 0.00000114,0.00003057,0.00000310,-0.00002295,-0.00003617,0.00334832,0.
 00574845,-0.01716741,0.00752893,0.07424826,0.00026903,0.00657269,-0.00
 393508,-0.00021171,-0.00054276,0.00112465,0.03703293,0.05252706,-0.278
 11170,0.00012183,0.00000158,0.00016531,0.00819042,-0.00183141,-0.00546
 068,0.00086210,0.00042377,0.00022427,0.00022524,0.00014392,-0.00007646
 ,-0.00013336,-0.00003576,-0.00000041,0.00007327,0.00003494,0.00001324,
 -0.00007191,-0.00001569,0.00000155,0.00340034,0.00254653,-0.01812036,-
 0.04972309,-0.06101893,0.30284681,-0.00504309,0.00288895,0.00088091,0.
 00758785,-0.01637886,-0.01086621,-0.00102480,0.01935710,0.01458144,0.0
 0240108,-0.00047771,-0.00056385,-0.08039457,0.06218420,0.04983339,-0.0
 0009333,0.00025503,-0.00047308,-0.00276748,-0.00221785,-0.00245288,-0.
 00000084,-0.00001503,0.00025112,0.00009240,0.00025591,0.00004499,-0.00
 030586,0.00066677,0.00010263,0.00096095,0.00004299,-0.00080000,-0.0022
 7618,-0.00008170,0.00093769,0.08064768,0.00138984,-0.00161836,0.000795
 75,0.00518531,-0.00670157,-0.00587540,-0.00373636,0.00401354,-0.001764
 87,0.00138576,0.00063358,-0.00014794,0.06445935,-0.20096717,-0.1514612
 5,-0.00018186,-0.00079797,-0.00067550,-0.00188301,-0.00081601,-0.00224
 173,-0.00023619,-0.00034183,0.00021395,-0.00004190,0.00023915,0.000344
 56,-0.00071915,0.00006633,0.00015442,0.00044552,0.00028938,0.00030139,
 0.00002661,-0.00077880,0.00109063,-0.06620585,0.20701339,-0.00026314,0
 .00239559,-0.00034163,0.00696355,-0.01310695,-0.00500969,-0.00087085,-
 0.00664774,0.00216840,0.00040772,0.00090410,0.00068298,0.04810276,-0.1
 4572651,-0.12578116,-0.00006019,0.00076101,0.00006627,-0.00225843,-0.0
 0024012,-0.00065679,-0.00010102,0.00003812,0.00000172,-0.00001648,0.00
 021796,-0.00006082,-0.00065792,0.00008192,0.00038956,0.00040719,0.0007
 7244,0.00037599,0.00037392,0.00080603,-0.00057128,-0.05178723,0.159566
 91,0.12902173,-0.04361804,-0.03420640,0.13443462,-0.00068400,-0.000075
 12,0.00002857,0.00206774,0.00809474,-0.01365297,-0.00010575,0.00004613
 ,-0.00009787,0.00151915,-0.00065655,-0.00078827,0.00028177,-0.00008707
 ,0.00011112,-0.00023512,-0.00007132,-0.00059869,-0.00014194,-0.0000396
 9,0.00013966,0.00008211,0.00001266,0.00005365,0.00005150,-0.00007888,0
 .00001344,-0.00005861,-0.00036723,0.00097681,-0.00048298,0.00280640,-0
 .00097277,0.00021621,0.00011193,-0.00023987,0.04110796,-0.01704249,-0.
 08127875,0.11443845,0.00007572,0.00035677,0.00010550,-0.00827158,-0.01
 853816,0.04026526,0.00002484,-0.00006800,-0.00020804,0.00003421,0.0020
 8383,-0.00040441,-0.00017377,-0.00021650,-0.00011440,0.00000910,-0.000
 07901,-0.00015740,-0.00000506,0.00004937,0.00010788,-0.00010615,-0.000
 02242,-0.00000785,0.00004185,-0.00003053,0.00003817,-0.00096154,0.0002
 7103,0.00025603,0.00213841,-0.00666208,0.00010344,-0.00027395,-0.00023
 366,0.00017724,0.02451041,0.10436810,0.11841616,0.15870052,-0.45235633
 ,-0.00020262,0.00014294,-0.00005220,0.00214065,-0.00335080,-0.00271203
 ,-0.00003332,-0.00011434,0.00011375,-0.00084140,-0.00044007,0.00054391
 ,0.00004317,-0.00020996,-0.00009231,-0.00046026,-0.00009434,-0.0004825
 7,-0.00006120,0.00006741,-0.00001573,0.00002917,0.00002668,-0.00001395
 ,0.00007181,-0.00002097,-0.00004643,0.00041183,-0.00134449,0.00077206,
 -0.00041762,0.00153822,0.00190013,0.00031107,-0.00030093,-0.00028528,-
 0.11940742,-0.15459987,0.45272698\\-0.00000013,-0.00000043,-0.00000119
 ,-0.00000004,0.00000074,-0.00000009,0.00000003,-0.00000017,0.00000042,
 -0.00000003,0.00000008,-0.00000022,0.00000013,-0.00000032,0.00000073,-
 0.00000005,0.00000186,0.00000051,-0.00000026,0.00000101,-0.00000125,-0
 .00000007,-0.00000102,-0.00000090,-0.00000018,0.00000087,-0.00000079,0
 .00000015,-0.00000019,0.00000092,0.00000023,-0.00000103,0.00000112,0.0
 0000004,0.00000098,0.00000068,0.00000031,-0.00000098,0.00000161,-0.000
 00013,-0.00000139,-0.00000154\\\@


 BLESSED ARE THOSE WHO NOUGHT EXPECT,
 FOR THEY SHALL NOT BE DISAPPOINTED..  WALCOT - ODE TO PITT
 Job cpu time:       0 days  1 hours 40 minutes  7.9 seconds.
 Elapsed time:       0 days  0 hours  5 minutes  0.8 seconds.
 File lengths (MBytes):  RWF=   1376 Int=      0 D2E=      0 Chk=     32 Scr=     32
 Normal termination of Gaussian 16 at Wed Mar 13 04:23:01 2019.
