 Entering Gaussian System, Link 0=g16
 Input=GIXGVIVAHMJKNP-UHFFFAOYSA-N_12by30.0_tor24_a2.com
 Output=GIXGVIVAHMJKNP-UHFFFAOYSA-N_12by30.0_tor24_a2.log
 Initial command:
 /shared/centos7/gaussian/g16/l1.exe "/scratch/underkoffler.c/gaussian_scratch/Gau-34370.inp" -scrdir="/scratch/underkoffler.c/gaussian_scratch/"
 Entering Link 1 = /shared/centos7/gaussian/g16/l1.exe PID=     34371.
  
 Copyright (c) 1988,1990,1992,1993,1995,1998,2003,2009,2016,
            Gaussian, Inc.  All Rights Reserved.
  
 This is part of the Gaussian(R) 16 program.  It is based on
 the Gaussian(R) 09 system (copyright 2009, Gaussian, Inc.),
 the Gaussian(R) 03 system (copyright 2003, Gaussian, Inc.),
 the Gaussian(R) 98 system (copyright 1998, Gaussian, Inc.),
 the Gaussian(R) 94 system (copyright 1995, Gaussian, Inc.),
 the Gaussian 92(TM) system (copyright 1992, Gaussian, Inc.),
 the Gaussian 90(TM) system (copyright 1990, Gaussian, Inc.),
 the Gaussian 88(TM) system (copyright 1988, Gaussian, Inc.),
 the Gaussian 86(TM) system (copyright 1986, Carnegie Mellon
 University), and the Gaussian 82(TM) system (copyright 1983,
 Carnegie Mellon University). Gaussian is a federally registered
 trademark of Gaussian, Inc.
  
 This software contains proprietary and confidential information,
 including trade secrets, belonging to Gaussian, Inc.
  
 This software is provided under written license and may be
 used, copied, transmitted, or stored only in accord with that
 written license.
  
 The following legend is applicable only to US Government
 contracts under FAR:
  
                    RESTRICTED RIGHTS LEGEND
  
 Use, reproduction and disclosure by the US Government is
 subject to restrictions as set forth in subparagraphs (a)
 and (c) of the Commercial Computer Software - Restricted
 Rights clause in FAR 52.227-19.
  
 Gaussian, Inc.
 340 Quinnipiac St., Bldg. 40, Wallingford CT 06492
  
  
 ---------------------------------------------------------------
 Warning -- This program may not be used in any manner that
 competes with the business of Gaussian, Inc. or will provide
 assistance to any competitor of Gaussian, Inc.  The licensee
 of this program is prohibited from giving any competitor of
 Gaussian, Inc. access to this program.  By using this program,
 the user acknowledges that Gaussian, Inc. is engaged in the
 business of creating and licensing software in the field of
 computational chemistry and represents and warrants to the
 licensee that it is not a competitor of Gaussian, Inc. and that
 it will not use this program in any manner prohibited above.
 ---------------------------------------------------------------
  

 Cite this work as:
 Gaussian 16, Revision A.03,
 M. J. Frisch, G. W. Trucks, H. B. Schlegel, G. E. Scuseria, 
 M. A. Robb, J. R. Cheeseman, G. Scalmani, V. Barone, 
 G. A. Petersson, H. Nakatsuji, X. Li, M. Caricato, A. V. Marenich, 
 J. Bloino, B. G. Janesko, R. Gomperts, B. Mennucci, H. P. Hratchian, 
 J. V. Ortiz, A. F. Izmaylov, J. L. Sonnenberg, D. Williams-Young, 
 F. Ding, F. Lipparini, F. Egidi, J. Goings, B. Peng, A. Petrone, 
 T. Henderson, D. Ranasinghe, V. G. Zakrzewski, J. Gao, N. Rega, 
 G. Zheng, W. Liang, M. Hada, M. Ehara, K. Toyota, R. Fukuda, 
 J. Hasegawa, M. Ishida, T. Nakajima, Y. Honda, O. Kitao, H. Nakai, 
 T. Vreven, K. Throssell, J. A. Montgomery, Jr., J. E. Peralta, 
 F. Ogliaro, M. J. Bearpark, J. J. Heyd, E. N. Brothers, K. N. Kudin, 
 V. N. Staroverov, T. A. Keith, R. Kobayashi, J. Normand, 
 K. Raghavachari, A. P. Rendell, J. C. Burant, S. S. Iyengar, 
 J. Tomasi, M. Cossi, J. M. Millam, M. Klene, C. Adamo, R. Cammi, 
 J. W. Ochterski, R. L. Martin, K. Morokuma, O. Farkas, 
 J. B. Foresman, and D. J. Fox, Gaussian, Inc., Wallingford CT, 2016.
 
 ******************************************
 Gaussian 16:  EM64L-G16RevA.03 25-Dec-2016
                29-Mar-2019 
 ******************************************
 %nprocshared=20
 Will use up to   20 processors via shared memory.
 %mem=5GB
 ----------------------------------------------
 #p m062x/6-311+g(2df,2p) Opt=(CalcFC,ModRedun)
 ----------------------------------------------
 1/10=4,18=120,19=15,26=3,38=1/1,3;
 2/9=110,12=2,17=6,18=5,40=1/2;
 3/5=4,6=6,7=214,11=2,25=1,30=1,71=2,74=-55,140=1/1,2,3;
 4//1;
 5/5=2,38=5/2;
 8/6=4,10=90,11=11/1;
 11/6=1,8=1,9=11,15=111,16=1/1,2,10;
 10/6=1,13=1/2;
 6/7=2,8=2,9=2,10=2,28=1/1;
 7/10=1,18=20,25=1/1,2,3,16;
 1/10=4,18=20,19=15,26=3/3(2);
 2/9=110/2;
 99//99;
 2/9=110/2;
 3/5=4,6=6,7=214,11=2,25=1,30=1,71=1,74=-55/1,2,3;
 4/5=5,16=3,69=1/1;
 5/5=2,38=5/2;
 7//1,2,3,16;
 1/18=20,19=15,26=3/3(-5);
 2/9=110/2;
 6/7=2,8=2,9=2,10=2,19=2,28=1/1;
 99/9=1/99;
 Leave Link    1 at Fri Mar 29 07:33:45 2019, MaxMem=   671088640 cpu:              25.4 elap:               1.3
 (Enter /shared/centos7/gaussian/g16/l101.exe)
 ----------------------------------------
 Gaussian Input Prepared from Scan Object
 ----------------------------------------
 Symbolic Z-matrix:
 Charge =  0 Multiplicity = 2
 O                     1.91515  -0.81048   0.04838 
 C                    -0.99923  -0.06316  -0.52652 
 C                     1.4749    0.53834  -0.07725 
 C                    -2.30051  -0.25019   0.24984 
 C                     0.02908   0.69765   0.23361 
 H                    -1.21611   0.46238  -1.46772 
 H                    -0.58519  -1.03084  -0.81827 
 H                    -2.12533  -0.81646   1.16456 
 H                    -3.04264  -0.78296  -0.34289 
 H                    -2.72433   0.71425   0.53212 
 H                     2.07914   1.20145   0.54742 
 H                     1.68128   0.79663  -1.12159 
 H                    -0.28775   1.51642   0.86766 
 H                     1.68096  -1.11763   0.92771 
 
 The following ModRedundant input section has been read:
 B       2       7 B                                                           
 B       1      14 B                                                           
 B       1       3 B                                                           
 B       4      10 B                                                           
 B       2       6 B                                                           
 B       4       9 B                                                           
 B       3      11 B                                                           
 B       3      12 B                                                           
 B       3       5 B                                                           
 B       2       4 B                                                           
 B       2       5 B                                                           
 B       5      13 B                                                           
 B       4       8 B                                                           
 D      12       3       5      13 S  12 30.000                                
 
 ITRead=  0  0  0  0  0  0  0  0  0  0  0  0  0  0
 MicOpt= -1 -1 -1 -1 -1 -1 -1 -1 -1 -1 -1 -1 -1 -1
 NAtoms=     14 NQM=       14 NQMF=       0 NMMI=      0 NMMIF=      0
                NMic=       0 NMicF=      0.
                    Isotopes and Nuclear Properties:
 (Nuclear quadrupole moments (NQMom) in fm**2, nuclear magnetic moments (NMagM)
  in nuclear magnetons)

  Atom         1           2           3           4           5           6           7           8           9          10
 IAtWgt=          16          12          12          12          12           1           1           1           1           1
 AtmWgt=  15.9949146  12.0000000  12.0000000  12.0000000  12.0000000   1.0078250   1.0078250   1.0078250   1.0078250   1.0078250
 NucSpn=           0           0           0           0           0           1           1           1           1           1
 AtZEff=  -0.0000000  -0.0000000  -0.0000000  -0.0000000  -0.0000000  -0.0000000  -0.0000000  -0.0000000  -0.0000000  -0.0000000
 NQMom=    0.0000000   0.0000000   0.0000000   0.0000000   0.0000000   0.0000000   0.0000000   0.0000000   0.0000000   0.0000000
 NMagM=    0.0000000   0.0000000   0.0000000   0.0000000   0.0000000   2.7928460   2.7928460   2.7928460   2.7928460   2.7928460
 AtZNuc=   8.0000000   6.0000000   6.0000000   6.0000000   6.0000000   1.0000000   1.0000000   1.0000000   1.0000000   1.0000000

  Atom        11          12          13          14
 IAtWgt=           1           1           1           1
 AtmWgt=   1.0078250   1.0078250   1.0078250   1.0078250
 NucSpn=           1           1           1           1
 AtZEff=  -0.0000000  -0.0000000  -0.0000000  -0.0000000
 NQMom=    0.0000000   0.0000000   0.0000000   0.0000000
 NMagM=    2.7928460   2.7928460   2.7928460   2.7928460
 AtZNuc=   1.0000000   1.0000000   1.0000000   1.0000000
 Leave Link  101 at Fri Mar 29 07:33:46 2019, MaxMem=   671088640 cpu:               5.1 elap:               0.3
 (Enter /shared/centos7/gaussian/g16/l103.exe)

 GradGradGradGradGradGradGradGradGradGradGradGradGradGradGradGradGradGrad
 Berny optimization.
 Initialization pass.
                           ----------------------------
                           !    Initial Parameters    !
                           ! (Angstroms and Degrees)  !
 --------------------------                            --------------------------
 ! Name  Definition              Value          Derivative Info.                !
 --------------------------------------------------------------------------------
 ! R1    R(1,3)                  1.4244         calculate D2E/DX2 analytically  !
 ! R2    R(1,14)                 0.9604         calculate D2E/DX2 analytically  !
 ! R3    R(2,4)                  1.5268         calculate D2E/DX2 analytically  !
 ! R4    R(2,5)                  1.488          calculate D2E/DX2 analytically  !
 ! R5    R(2,6)                  1.0996         calculate D2E/DX2 analytically  !
 ! R6    R(2,7)                  1.0922         calculate D2E/DX2 analytically  !
 ! R7    R(3,5)                  1.4874         calculate D2E/DX2 analytically  !
 ! R8    R(3,11)                 1.0932         calculate D2E/DX2 analytically  !
 ! R9    R(3,12)                 1.0954         calculate D2E/DX2 analytically  !
 ! R10   R(4,8)                  1.09           calculate D2E/DX2 analytically  !
 ! R11   R(4,9)                  1.089          calculate D2E/DX2 analytically  !
 ! R12   R(4,10)                 1.0906         calculate D2E/DX2 analytically  !
 ! R13   R(5,13)                 1.0829         calculate D2E/DX2 analytically  !
 ! A1    A(3,1,14)             107.9518         calculate D2E/DX2 analytically  !
 ! A2    A(4,2,5)              113.0714         calculate D2E/DX2 analytically  !
 ! A3    A(4,2,6)              109.0079         calculate D2E/DX2 analytically  !
 ! A4    A(4,2,7)              110.5107         calculate D2E/DX2 analytically  !
 ! A5    A(5,2,6)              109.2204         calculate D2E/DX2 analytically  !
 ! A6    A(5,2,7)              109.1162         calculate D2E/DX2 analytically  !
 ! A7    A(6,2,7)              105.639          calculate D2E/DX2 analytically  !
 ! A8    A(1,3,5)              112.5461         calculate D2E/DX2 analytically  !
 ! A9    A(1,3,11)             110.6812         calculate D2E/DX2 analytically  !
 ! A10   A(1,3,12)             104.426          calculate D2E/DX2 analytically  !
 ! A11   A(5,3,11)             110.6641         calculate D2E/DX2 analytically  !
 ! A12   A(5,3,12)             110.9239         calculate D2E/DX2 analytically  !
 ! A13   A(11,3,12)            107.314          calculate D2E/DX2 analytically  !
 ! A14   A(2,4,8)              110.6953         calculate D2E/DX2 analytically  !
 ! A15   A(2,4,9)              111.345          calculate D2E/DX2 analytically  !
 ! A16   A(2,4,10)             110.7626         calculate D2E/DX2 analytically  !
 ! A17   A(8,4,9)              108.1879         calculate D2E/DX2 analytically  !
 ! A18   A(8,4,10)             107.7381         calculate D2E/DX2 analytically  !
 ! A19   A(9,4,10)             107.979          calculate D2E/DX2 analytically  !
 ! A20   A(2,5,3)              120.679          calculate D2E/DX2 analytically  !
 ! A21   A(2,5,13)             118.9132         calculate D2E/DX2 analytically  !
 ! A22   A(3,5,13)             119.1909         calculate D2E/DX2 analytically  !
 ! D1    D(14,1,3,5)           -54.3328         calculate D2E/DX2 analytically  !
 ! D2    D(14,1,3,11)           70.0784         calculate D2E/DX2 analytically  !
 ! D3    D(14,1,3,12)         -174.7348         calculate D2E/DX2 analytically  !
 ! D4    D(5,2,4,8)            -61.3508         calculate D2E/DX2 analytically  !
 ! D5    D(5,2,4,9)            178.2603         calculate D2E/DX2 analytically  !
 ! D6    D(5,2,4,10)            58.0899         calculate D2E/DX2 analytically  !
 ! D7    D(6,2,4,8)            176.9682         calculate D2E/DX2 analytically  !
 ! D8    D(6,2,4,9)             56.5792         calculate D2E/DX2 analytically  !
 ! D9    D(6,2,4,10)           -63.5911         calculate D2E/DX2 analytically  !
 ! D10   D(7,2,4,8)             61.2916         calculate D2E/DX2 analytically  !
 ! D11   D(7,2,4,9)            -59.0973         calculate D2E/DX2 analytically  !
 ! D12   D(7,2,4,10)          -179.2677         calculate D2E/DX2 analytically  !
 ! D13   D(4,2,5,3)            155.7925         calculate D2E/DX2 analytically  !
 ! D14   D(4,2,5,13)           -36.9116         calculate D2E/DX2 analytically  !
 ! D15   D(6,2,5,3)            -82.646          calculate D2E/DX2 analytically  !
 ! D16   D(6,2,5,13)            84.6499         calculate D2E/DX2 analytically  !
 ! D17   D(7,2,5,3)             32.3773         calculate D2E/DX2 analytically  !
 ! D18   D(7,2,5,13)          -160.3268         calculate D2E/DX2 analytically  !
 ! D19   D(1,3,5,2)            -57.98           calculate D2E/DX2 analytically  !
 ! D20   D(1,3,5,13)           134.759          calculate D2E/DX2 analytically  !
 ! D21   D(11,3,5,2)           177.5993         calculate D2E/DX2 analytically  !
 ! D22   D(11,3,5,13)           10.3383         calculate D2E/DX2 analytically  !
 ! D23   D(12,3,5,2)            58.6047         calculate D2E/DX2 analytically  !
 ! D24   D(12,3,5,13)         -108.6564         Scan                            !
 --------------------------------------------------------------------------------
 Trust Radius=3.00D-01 FncErr=1.00D-07 GrdErr=1.00D-06 EigMax=2.50D+02 EigMin=1.00D-04
 Number of optimizations in scan=  13
 Number of steps in this run=     69 maximum allowed number of steps=    100.
 GradGradGradGradGradGradGradGradGradGradGradGradGradGradGradGradGradGrad

 Leave Link  103 at Fri Mar 29 07:33:46 2019, MaxMem=   671088640 cpu:               0.2 elap:               0.0
 (Enter /shared/centos7/gaussian/g16/l202.exe)
                          Input orientation:                          
 ---------------------------------------------------------------------
 Center     Atomic      Atomic             Coordinates (Angstroms)
 Number     Number       Type             X           Y           Z
 ---------------------------------------------------------------------
      1          8           0        1.915154   -0.810481    0.048378
      2          6           0       -0.999229   -0.063158   -0.526524
      3          6           0        1.474897    0.538342   -0.077247
      4          6           0       -2.300508   -0.250190    0.249844
      5          6           0        0.029085    0.697651    0.233613
      6          1           0       -1.216107    0.462380   -1.467724
      7          1           0       -0.585192   -1.030840   -0.818271
      8          1           0       -2.125328   -0.816458    1.164560
      9          1           0       -3.042642   -0.782960   -0.342894
     10          1           0       -2.724333    0.714247    0.532120
     11          1           0        2.079137    1.201453    0.547416
     12          1           0        1.681278    0.796633   -1.121587
     13          1           0       -0.287745    1.516417    0.867657
     14          1           0        1.680964   -1.117629    0.927710
 ---------------------------------------------------------------------
                    Distance matrix (angstroms):
                    1          2          3          4          5
     1  O    0.000000
     2  C    3.063108   0.000000
     3  C    1.424406   2.585528   0.000000
     4  C    4.257502   1.526779   3.870718   0.000000
     5  C    2.421989   1.487974   1.487410   2.515088   0.000000
     6  H    3.704529   1.099583   3.029967   2.152608   2.121415
     7  H    2.655441   1.092223   2.693589   2.166239   2.114587
     8  H    4.191825   2.166870   4.042177   1.089979   2.792970
     9  H    4.973288   2.174252   4.714294   1.089011   3.458334
    10  H    4.907509   2.168195   4.246858   1.090617   2.769601
    11  H    2.079377   3.496988   1.093172   4.623538   2.134245
    12  H    2.001582   2.877231   1.095424   4.339502   2.139184
    13  H    3.307331   2.223737   2.226293   2.748419   1.082945
    14  H    0.960421   3.226475   1.947984   4.130869   2.550631
                    6          7          8          9         10
     6  H    0.000000
     7  H    1.746296   0.000000
     8  H    3.064478   2.519840   0.000000
     9  H    2.480392   2.515251   1.764937   0.000000
    10  H    2.517451   3.073240   1.761205   1.763121   0.000000
    11  H    3.932639   3.734553   4.704291   5.564455   4.828139
    12  H    2.937069   2.927208   4.724276   5.041517   4.706479
    13  H    2.725225   3.069095   2.984487   3.787086   2.587088
    14  H    4.077690   2.862070   3.825528   4.902948   4.787369
                   11         12         13         14
    11  H    0.000000
    12  H    1.762879   0.000000
    13  H    2.409126   2.890023   0.000000
    14  H    2.383549   2.804285   3.289015   0.000000
 Stoichiometry    C4H9O(2)
 Framework group  C1[X(C4H9O)]
 Deg. of freedom    36
 Full point group                 C1      NOp   1
 Largest Abelian subgroup         C1      NOp   1
 Largest concise Abelian subgroup C1      NOp   1
                         Standard orientation:                         
 ---------------------------------------------------------------------
 Center     Atomic      Atomic             Coordinates (Angstroms)
 Number     Number       Type             X           Y           Z
 ---------------------------------------------------------------------
      1          8           0       -1.914565   -0.810076   -0.067413
      2          6           0        0.998144   -0.071320    0.526719
      3          6           0       -1.475111    0.536651    0.081376
      4          6           0        2.301364   -0.245168   -0.249458
      5          6           0       -0.028611    0.701512   -0.223329
      6          1           0        1.212555    0.438786    1.476931
      7          1           0        0.583762   -1.043792    0.801557
      8          1           0        2.128603   -0.796419   -1.173758
      9          1           0        3.042261   -0.787341    0.336259
     10          1           0        2.725513    0.723907   -0.514857
     11          1           0       -2.078085    1.209716   -0.533792
     12          1           0       -1.684109    0.777716    1.129307
     13          1           0        0.289447    1.530668   -0.843095
     14          1           0       -1.678139   -1.102687   -0.951093
 ---------------------------------------------------------------------
 Rotational constants (GHZ):          12.0487638           2.4527447           2.2692375
 Leave Link  202 at Fri Mar 29 07:33:46 2019, MaxMem=   671088640 cpu:               0.1 elap:               0.0
 (Enter /shared/centos7/gaussian/g16/l301.exe)
 Standard basis: 6-311+G(2df,2p) (5D, 7F)
 Ernie: Thresh=  0.10000D-02 Tol=  0.10000D-05 Strict=F.
 There are   276 symmetry adapted cartesian basis functions of A   symmetry.
 There are   251 symmetry adapted basis functions of A   symmetry.
   251 basis functions,   359 primitive gaussians,   276 cartesian basis functions
    21 alpha electrons       20 beta electrons
       nuclear repulsion energy       178.6112922122 Hartrees.
 IExCor= 4336 DFT=T Ex+Corr=M062X ExCW=0 ScaHFX=  0.540000
 ScaDFX=  1.000000  1.000000  1.000000  1.000000 ScalE2=  1.000000  1.000000
 IRadAn=      5 IRanWt=     -1 IRanGd=            0 ICorTp=0 IEmpDi=  4
 NAtoms=   14 NActive=   14 NUniq=   14 SFac= 1.00D+00 NAtFMM=   60 NAOKFM=F Big=F
 Integral buffers will be    131072 words long.
 Raffenetti 2 integral format.
 Two-electron integral symmetry is turned on.
 Leave Link  301 at Fri Mar 29 07:33:46 2019, MaxMem=   671088640 cpu:               0.8 elap:               0.1
 (Enter /shared/centos7/gaussian/g16/l302.exe)
 NPDir=0 NMtPBC=     1 NCelOv=     1 NCel=       1 NClECP=     1 NCelD=      1
         NCelK=      1 NCelE2=     1 NClLst=     1 CellRange=     0.0.
 One-electron integrals computed using PRISM.
 One-electron integral symmetry used in STVInt
 NBasis=   251 RedAO= T EigKep=  3.66D-05  NBF=   251
 NBsUse=   251 1.00D-06 EigRej= -1.00D+00 NBFU=   251
 Precomputing XC quadrature grid using
 IXCGrd= 4 IRadAn=           5 IRanWt=          -1 IRanGd=           0 AccXCQ= 0.00D+00.
 Generated NRdTot=       0 NPtTot=           0 NUsed=           0 NTot=          32
 NSgBfM=   276   276   276   276   276 MxSgAt=    14 MxSgA2=    14.
 Leave Link  302 at Fri Mar 29 07:33:46 2019, MaxMem=   671088640 cpu:               5.3 elap:               0.3
 (Enter /shared/centos7/gaussian/g16/l303.exe)
 DipDrv:  MaxL=1.
 Leave Link  303 at Fri Mar 29 07:33:46 2019, MaxMem=   671088640 cpu:               0.5 elap:               0.0
 (Enter /shared/centos7/gaussian/g16/l401.exe)
 ExpMin= 4.38D-02 ExpMax= 8.59D+03 ExpMxC= 1.30D+03 IAcc=3 IRadAn=         5 AccDes= 0.00D+00
 Harris functional with IExCor= 1009 and IRadAn=       5 diagonalized for initial guess.
 HarFok:  IExCor= 1009 AccDes= 0.00D+00 IRadAn=         5 IDoV= 1 UseB2=F ITyADJ=14
 ICtDFT=  3500011 ScaDFX=  1.000000  1.000000  1.000000  1.000000
 FoFCou: FMM=F IPFlag=           0 FMFlag=      100000 FMFlg1=           0
         NFxFlg=           0 DoJE=T BraDBF=F KetDBF=T FulRan=T
         wScrn=  0.000000 ICntrl=       500 IOpCl=  0 I1Cent=   200000004 NGrid=           0
         NMat0=    1 NMatS0=      1 NMatT0=    0 NMatD0=    1 NMtDS0=    0 NMtDT0=    0
 Petite list used in FoFCou.
 Harris En= -232.903492552472    
 JPrj=0 DoOrth=F DoCkMO=F.
 Initial guess <Sx>= 0.0000 <Sy>= 0.0000 <Sz>= 0.5000 <S**2>= 0.7500 S= 0.5000
 Leave Link  401 at Fri Mar 29 07:33:47 2019, MaxMem=   671088640 cpu:              16.4 elap:               0.8
 (Enter /shared/centos7/gaussian/g16/l502.exe)
 Integral symmetry usage will be decided dynamically.
 UHF open shell SCF:
 Using DIIS extrapolation, IDIIS=  1040.
 NGot=   671088640 LenX=   670928170 LenY=   670851553
 Requested convergence on RMS density matrix=1.00D-08 within 128 cycles.
 Requested convergence on MAX density matrix=1.00D-06.
 Requested convergence on             energy=1.00D-06.
 No special actions if energy rises.
 Fock matrices will be formed incrementally for  20 cycles.

 Cycle   1  Pass 1  IDiag  1:
 FoFJK:  IHMeth= 1 ICntrl=       0 DoSepK=F KAlg= 0 I1Cent=           0 FoldK=F
 IRaf= 970000000 NMat=       1 IRICut=       1 DoRegI=T DoRafI=F ISym2E= 0 IDoP0=0 IntGTp=1.
 FoFCou: FMM=F IPFlag=           0 FMFlag=      100000 FMFlg1=           0
         NFxFlg=           0 DoJE=F BraDBF=F KetDBF=F FulRan=T
         wScrn=  0.000000 ICntrl=         0 IOpCl=  1 I1Cent=           0 NGrid=           0
         NMat0=    1 NMatS0=      1 NMatT0=    0 NMatD0=    1 NMtDS0=    0 NMtDT0=    0
 Symmetry not used in FoFCou.
 E= -232.770069943827    
 DIIS: error= 2.00D-02 at cycle   1 NSaved=   1.
 NSaved= 1 IEnMin= 1 EnMin= -232.770069943827     IErMin= 1 ErrMin= 2.00D-02
 ErrMax= 2.00D-02  0.00D+00 EMaxC= 1.00D-01 BMatC= 9.40D-01 BMatP= 9.40D-01
 IDIUse=3 WtCom= 8.00D-01 WtEn= 2.00D-01
 Coeff-Com:  0.100D+01
 Coeff-En:   0.100D+01
 Coeff:      0.100D+01
 Gap=     0.236 Goal=   None    Shift=    0.000
 Gap=     0.312 Goal=   None    Shift=    0.000
 GapD=    0.236 DampG=1.000 DampE=0.500 DampFc=0.5000 IDamp=-1.
 Damping current iteration by 5.00D-01
 RMSDP=3.78D-03 MaxDP=2.82D-01              OVMax= 1.56D-01

 Cycle   2  Pass 1  IDiag  1:
 RMSU=  1.89D-03    CP:  9.88D-01
 E= -232.868597168437     Delta-E=       -0.098527224610 Rises=F Damp=T
 DIIS: error= 5.25D-03 at cycle   2 NSaved=   2.
 NSaved= 2 IEnMin= 2 EnMin= -232.868597168437     IErMin= 2 ErrMin= 5.25D-03
 ErrMax= 5.25D-03  0.00D+00 EMaxC= 1.00D-01 BMatC= 5.83D-02 BMatP= 9.40D-01
 IDIUse=3 WtCom= 9.47D-01 WtEn= 5.25D-02
 Coeff-Com: -0.761D-01 0.108D+01
 Coeff-En:   0.000D+00 0.100D+01
 Coeff:     -0.721D-01 0.107D+01
 Gap=     0.275 Goal=   None    Shift=    0.000
 Gap=     0.330 Goal=   None    Shift=    0.000
 RMSDP=1.43D-03 MaxDP=1.31D-01 DE=-9.85D-02 OVMax= 7.80D-02

 Cycle   3  Pass 1  IDiag  1:
 RMSU=  1.33D-03    CP:  9.63D-01  7.45D-01
 E= -232.964510117284     Delta-E=       -0.095912948847 Rises=F Damp=F
 DIIS: error= 3.86D-03 at cycle   3 NSaved=   3.
 NSaved= 3 IEnMin= 3 EnMin= -232.964510117284     IErMin= 3 ErrMin= 3.86D-03
 ErrMax= 3.86D-03  0.00D+00 EMaxC= 1.00D-01 BMatC= 1.50D-02 BMatP= 5.83D-02
 IDIUse=3 WtCom= 9.61D-01 WtEn= 3.86D-02
 Coeff-Com: -0.759D-01 0.330D+00 0.746D+00
 Coeff-En:   0.000D+00 0.000D+00 0.100D+01
 Coeff:     -0.730D-01 0.317D+00 0.756D+00
 Gap=     0.277 Goal=   None    Shift=    0.000
 Gap=     0.307 Goal=   None    Shift=    0.000
 RMSDP=2.72D-04 MaxDP=2.27D-02 DE=-9.59D-02 OVMax= 1.52D-02

 Cycle   4  Pass 1  IDiag  1:
 RMSU=  2.32D-04    CP:  9.64D-01  8.20D-01  9.89D-01
 E= -232.966639233095     Delta-E=       -0.002129115811 Rises=F Damp=F
 DIIS: error= 1.44D-03 at cycle   4 NSaved=   4.
 NSaved= 4 IEnMin= 4 EnMin= -232.966639233095     IErMin= 4 ErrMin= 1.44D-03
 ErrMax= 1.44D-03  0.00D+00 EMaxC= 1.00D-01 BMatC= 3.53D-03 BMatP= 1.50D-02
 IDIUse=3 WtCom= 9.86D-01 WtEn= 1.44D-02
 Coeff-Com: -0.273D-01 0.652D-01 0.365D+00 0.597D+00
 Coeff-En:   0.000D+00 0.000D+00 0.992D-01 0.901D+00
 Coeff:     -0.269D-01 0.643D-01 0.362D+00 0.601D+00
 Gap=     0.273 Goal=   None    Shift=    0.000
 Gap=     0.312 Goal=   None    Shift=    0.000
 RMSDP=1.30D-04 MaxDP=1.38D-02 DE=-2.13D-03 OVMax= 6.54D-03

 Cycle   5  Pass 1  IDiag  1:
 RMSU=  7.27D-05    CP:  9.61D-01  7.92D-01  1.03D+00  6.93D-01
 E= -232.967337574893     Delta-E=       -0.000698341798 Rises=F Damp=F
 DIIS: error= 2.78D-04 at cycle   5 NSaved=   5.
 NSaved= 5 IEnMin= 5 EnMin= -232.967337574893     IErMin= 5 ErrMin= 2.78D-04
 ErrMax= 2.78D-04  0.00D+00 EMaxC= 1.00D-01 BMatC= 1.10D-04 BMatP= 3.53D-03
 IDIUse=3 WtCom= 9.97D-01 WtEn= 2.78D-03
 Coeff-Com: -0.979D-04-0.972D-02 0.212D-01 0.139D+00 0.850D+00
 Coeff-En:   0.000D+00 0.000D+00 0.000D+00 0.000D+00 0.100D+01
 Coeff:     -0.976D-04-0.970D-02 0.212D-01 0.139D+00 0.850D+00
 Gap=     0.274 Goal=   None    Shift=    0.000
 Gap=     0.311 Goal=   None    Shift=    0.000
 RMSDP=5.12D-05 MaxDP=4.62D-03 DE=-6.98D-04 OVMax= 3.02D-03

 Cycle   6  Pass 1  IDiag  1:
 RMSU=  4.48D-05    CP:  9.62D-01  7.93D-01  1.04D+00  7.70D-01  1.00D+00
 E= -232.967378488437     Delta-E=       -0.000040913544 Rises=F Damp=F
 DIIS: error= 1.11D-04 at cycle   6 NSaved=   6.
 NSaved= 6 IEnMin= 6 EnMin= -232.967378488437     IErMin= 6 ErrMin= 1.11D-04
 ErrMax= 1.11D-04  0.00D+00 EMaxC= 1.00D-01 BMatC= 1.29D-05 BMatP= 1.10D-04
 IDIUse=3 WtCom= 9.99D-01 WtEn= 1.11D-03
 Coeff-Com:  0.365D-02-0.956D-02-0.474D-01-0.700D-01 0.446D-01 0.108D+01
 Coeff-En:   0.000D+00 0.000D+00 0.000D+00 0.000D+00 0.000D+00 0.100D+01
 Coeff:      0.364D-02-0.955D-02-0.474D-01-0.699D-01 0.446D-01 0.108D+01
 Gap=     0.275 Goal=   None    Shift=    0.000
 Gap=     0.312 Goal=   None    Shift=    0.000
 RMSDP=1.98D-05 MaxDP=1.16D-03 DE=-4.09D-05 OVMax= 1.49D-03

 Cycle   7  Pass 1  IDiag  1:
 RMSU=  1.14D-05    CP:  9.62D-01  7.91D-01  1.04D+00  7.81D-01  1.11D+00
                    CP:  1.29D+00
 E= -232.967386411715     Delta-E=       -0.000007923278 Rises=F Damp=F
 DIIS: error= 4.32D-05 at cycle   7 NSaved=   7.
 NSaved= 7 IEnMin= 7 EnMin= -232.967386411715     IErMin= 7 ErrMin= 4.32D-05
 ErrMax= 4.32D-05  0.00D+00 EMaxC= 1.00D-01 BMatC= 3.16D-06 BMatP= 1.29D-05
 IDIUse=1 WtCom= 1.00D+00 WtEn= 0.00D+00
 Coeff-Com:  0.128D-02-0.217D-02-0.204D-01-0.457D-01-0.981D-01 0.422D+00
 Coeff-Com:  0.743D+00
 Coeff:      0.128D-02-0.217D-02-0.204D-01-0.457D-01-0.981D-01 0.422D+00
 Coeff:      0.743D+00
 Gap=     0.275 Goal=   None    Shift=    0.000
 Gap=     0.312 Goal=   None    Shift=    0.000
 RMSDP=7.25D-06 MaxDP=4.76D-04 DE=-7.92D-06 OVMax= 5.46D-04

 Cycle   8  Pass 1  IDiag  1:
 RMSU=  3.56D-06    CP:  9.62D-01  7.92D-01  1.04D+00  7.85D-01  1.12D+00
                    CP:  1.42D+00  1.13D+00
 E= -232.967387509422     Delta-E=       -0.000001097707 Rises=F Damp=F
 DIIS: error= 1.00D-05 at cycle   8 NSaved=   8.
 NSaved= 8 IEnMin= 8 EnMin= -232.967387509422     IErMin= 8 ErrMin= 1.00D-05
 ErrMax= 1.00D-05  0.00D+00 EMaxC= 1.00D-01 BMatC= 1.59D-07 BMatP= 3.16D-06
 IDIUse=1 WtCom= 1.00D+00 WtEn= 0.00D+00
 Coeff-Com: -0.306D-03 0.830D-03 0.279D-02 0.109D-02-0.175D-01-0.561D-01
 Coeff-Com:  0.873D-01 0.982D+00
 Coeff:     -0.306D-03 0.830D-03 0.279D-02 0.109D-02-0.175D-01-0.561D-01
 Coeff:      0.873D-01 0.982D+00
 Gap=     0.275 Goal=   None    Shift=    0.000
 Gap=     0.312 Goal=   None    Shift=    0.000
 RMSDP=2.87D-06 MaxDP=1.22D-04 DE=-1.10D-06 OVMax= 1.52D-04

 Cycle   9  Pass 1  IDiag  1:
 RMSU=  1.54D-06    CP:  9.62D-01  7.92D-01  1.04D+00  7.84D-01  1.12D+00
                    CP:  1.44D+00  1.24D+00  1.35D+00
 E= -232.967387585657     Delta-E=       -0.000000076235 Rises=F Damp=F
 DIIS: error= 4.86D-06 at cycle   9 NSaved=   9.
 NSaved= 9 IEnMin= 9 EnMin= -232.967387585657     IErMin= 9 ErrMin= 4.86D-06
 ErrMax= 4.86D-06  0.00D+00 EMaxC= 1.00D-01 BMatC= 1.56D-08 BMatP= 1.59D-07
 IDIUse=1 WtCom= 1.00D+00 WtEn= 0.00D+00
 Coeff-Com: -0.194D-03 0.407D-03 0.263D-02 0.478D-02 0.678D-02-0.529D-01
 Coeff-Com: -0.618D-01 0.188D+00 0.912D+00
 Coeff:     -0.194D-03 0.407D-03 0.263D-02 0.478D-02 0.678D-02-0.529D-01
 Coeff:     -0.618D-01 0.188D+00 0.912D+00
 Gap=     0.275 Goal=   None    Shift=    0.000
 Gap=     0.312 Goal=   None    Shift=    0.000
 RMSDP=1.34D-06 MaxDP=1.21D-04 DE=-7.62D-08 OVMax= 6.05D-05

 Cycle  10  Pass 1  IDiag  1:
 RMSU=  6.92D-07    CP:  9.62D-01  7.92D-01  1.04D+00  7.83D-01  1.12D+00
                    CP:  1.43D+00  1.28D+00  1.54D+00  1.16D+00
 E= -232.967387593563     Delta-E=       -0.000000007906 Rises=F Damp=F
 DIIS: error= 9.17D-07 at cycle  10 NSaved=  10.
 NSaved=10 IEnMin=10 EnMin= -232.967387593563     IErMin=10 ErrMin= 9.17D-07
 ErrMax= 9.17D-07  0.00D+00 EMaxC= 1.00D-01 BMatC= 9.60D-10 BMatP= 1.56D-08
 IDIUse=1 WtCom= 1.00D+00 WtEn= 0.00D+00
 Coeff-Com:  0.167D-04-0.396D-04-0.583D-04 0.152D-03 0.137D-02 0.858D-03
 Coeff-Com: -0.907D-02-0.644D-01 0.668D-01 0.100D+01
 Coeff:      0.167D-04-0.396D-04-0.583D-04 0.152D-03 0.137D-02 0.858D-03
 Coeff:     -0.907D-02-0.644D-01 0.668D-01 0.100D+01
 Gap=     0.275 Goal=   None    Shift=    0.000
 Gap=     0.312 Goal=   None    Shift=    0.000
 RMSDP=3.49D-07 MaxDP=3.52D-05 DE=-7.91D-09 OVMax= 1.47D-05

 Cycle  11  Pass 1  IDiag  1:
 RMSU=  1.03D-07    CP:  9.62D-01  7.92D-01  1.04D+00  7.83D-01  1.12D+00
                    CP:  1.43D+00  1.28D+00  1.59D+00  1.28D+00  1.23D+00
 E= -232.967387594161     Delta-E=       -0.000000000597 Rises=F Damp=F
 DIIS: error= 2.90D-07 at cycle  11 NSaved=  11.
 NSaved=11 IEnMin=11 EnMin= -232.967387594161     IErMin=11 ErrMin= 2.90D-07
 ErrMax= 2.90D-07  0.00D+00 EMaxC= 1.00D-01 BMatC= 7.61D-11 BMatP= 9.60D-10
 IDIUse=1 WtCom= 1.00D+00 WtEn= 0.00D+00
 Coeff-Com:  0.157D-04-0.339D-04-0.193D-03-0.317D-03-0.294D-03 0.378D-02
 Coeff-Com:  0.367D-02-0.197D-01-0.594D-01 0.831D-01 0.989D+00
 Coeff:      0.157D-04-0.339D-04-0.193D-03-0.317D-03-0.294D-03 0.378D-02
 Coeff:      0.367D-02-0.197D-01-0.594D-01 0.831D-01 0.989D+00
 Gap=     0.275 Goal=   None    Shift=    0.000
 Gap=     0.312 Goal=   None    Shift=    0.000
 RMSDP=9.35D-08 MaxDP=1.07D-05 DE=-5.97D-10 OVMax= 4.42D-06

 Cycle  12  Pass 1  IDiag  1:
 RMSU=  3.26D-08    CP:  9.62D-01  7.92D-01  1.04D+00  7.83D-01  1.12D+00
                    CP:  1.43D+00  1.28D+00  1.60D+00  1.30D+00  1.31D+00
                    CP:  1.19D+00
 E= -232.967387594211     Delta-E=       -0.000000000051 Rises=F Damp=F
 DIIS: error= 1.08D-07 at cycle  12 NSaved=  12.
 NSaved=12 IEnMin=12 EnMin= -232.967387594211     IErMin=12 ErrMin= 1.08D-07
 ErrMax= 1.08D-07  0.00D+00 EMaxC= 1.00D-01 BMatC= 1.32D-11 BMatP= 7.61D-11
 IDIUse=1 WtCom= 1.00D+00 WtEn= 0.00D+00
 Coeff-Com:  0.823D-06-0.197D-05-0.308D-04-0.680D-04-0.169D-03 0.607D-03
 Coeff-Com:  0.151D-02 0.225D-02-0.177D-01-0.727D-01 0.206D+00 0.881D+00
 Coeff:      0.823D-06-0.197D-05-0.308D-04-0.680D-04-0.169D-03 0.607D-03
 Coeff:      0.151D-02 0.225D-02-0.177D-01-0.727D-01 0.206D+00 0.881D+00
 Gap=     0.275 Goal=   None    Shift=    0.000
 Gap=     0.312 Goal=   None    Shift=    0.000
 RMSDP=1.66D-08 MaxDP=1.22D-06 DE=-5.07D-11 OVMax= 1.78D-06

 Cycle  13  Pass 1  IDiag  1:
 RMSU=  1.02D-08    CP:  9.62D-01  7.92D-01  1.04D+00  7.83D-01  1.12D+00
                    CP:  1.43D+00  1.28D+00  1.60D+00  1.30D+00  1.32D+00
                    CP:  1.25D+00  1.22D+00
 E= -232.967387594217     Delta-E=       -0.000000000005 Rises=F Damp=F
 DIIS: error= 4.86D-08 at cycle  13 NSaved=  13.
 NSaved=13 IEnMin=13 EnMin= -232.967387594217     IErMin=13 ErrMin= 4.86D-08
 ErrMax= 4.86D-08  0.00D+00 EMaxC= 1.00D-01 BMatC= 2.92D-12 BMatP= 1.32D-11
 IDIUse=1 WtCom= 1.00D+00 WtEn= 0.00D+00
 Coeff-Com: -0.227D-05 0.471D-05 0.193D-04 0.281D-04-0.698D-05-0.395D-03
 Coeff-Com: -0.745D-04 0.395D-02 0.280D-02-0.402D-01-0.959D-01 0.312D+00
 Coeff-Com:  0.818D+00
 Coeff:     -0.227D-05 0.471D-05 0.193D-04 0.281D-04-0.698D-05-0.395D-03
 Coeff:     -0.745D-04 0.395D-02 0.280D-02-0.402D-01-0.959D-01 0.312D+00
 Coeff:      0.818D+00
 Gap=     0.275 Goal=   None    Shift=    0.000
 Gap=     0.312 Goal=   None    Shift=    0.000
 RMSDP=8.05D-09 MaxDP=5.31D-07 DE=-5.29D-12 OVMax= 8.93D-07

 SCF Done:  E(UM062X) =  -232.967387594     A.U. after   13 cycles
            NFock= 13  Conv=0.81D-08     -V/T= 2.0039
 <Sx>= 0.0000 <Sy>= 0.0000 <Sz>= 0.5000 <S**2>= 0.7552 S= 0.5026
 <L.S>= 0.000000000000E+00
 KE= 2.320713766875D+02 PE=-9.003096774173D+02 EE= 2.566596209234D+02
 Annihilation of the first spin contaminant:
 S**2 before annihilation     0.7552,   after     0.7500
 Leave Link  502 at Fri Mar 29 07:34:25 2019, MaxMem=   671088640 cpu:             764.3 elap:              38.3
 (Enter /shared/centos7/gaussian/g16/l801.exe)
 DoSCS=F DFT=T ScalE2(SS,OS)=  1.000000  1.000000
 Range of M.O.s used for correlation:     1   251
 NBasis=   251 NAE=    21 NBE=    20 NFC=     0 NFV=     0
 NROrb=    251 NOA=    21 NOB=    20 NVA=   230 NVB=   231

 **** Warning!!: The largest alpha MO coefficient is  0.50055334D+02


 **** Warning!!: The largest beta MO coefficient is  0.45815312D+02

 Leave Link  801 at Fri Mar 29 07:34:25 2019, MaxMem=   671088640 cpu:               0.3 elap:               0.0
 (Enter /shared/centos7/gaussian/g16/l1101.exe)
 Using compressed storage, NAtomX=    14.
 Will process     15 centers per pass.
 Leave Link 1101 at Fri Mar 29 07:34:25 2019, MaxMem=   671088640 cpu:               5.4 elap:               0.3
 (Enter /shared/centos7/gaussian/g16/l1102.exe)
 Symmetrizing basis deriv contribution to polar:
 IMax=3 JMax=2 DiffMx= 0.00D+00
 Leave Link 1102 at Fri Mar 29 07:34:26 2019, MaxMem=   671088640 cpu:               0.5 elap:               0.0
 (Enter /shared/centos7/gaussian/g16/l1110.exe)
 Forming Gx(P) for the SCF density, NAtomX=    14.
 Integral derivatives from FoFJK, PRISM(SPDF).
 Do as many integral derivatives as possible in FoFJK.
 G2DrvN: MDV=     671087496.
 G2DrvN: will do    15 centers at a time, making    1 passes.
 Calling FoFCou, ICntrl=  3107 FMM=F I1Cent=   0 AccDes= 0.00D+00.
 FoFJK:  IHMeth= 1 ICntrl=    3107 DoSepK=F KAlg= 0 I1Cent=           0 FoldK=F
 IRaf=         0 NMat=       1 IRICut=       1 DoRegI=T DoRafI=F ISym2E= 0 IDoP0=0 IntGTp=1.
 FoFCou: FMM=F IPFlag=           0 FMFlag=      100000 FMFlg1=           0
         NFxFlg=           0 DoJE=F BraDBF=F KetDBF=F FulRan=T
         wScrn=  0.000000 ICntrl=      3107 IOpCl=  1 I1Cent=           0 NGrid=           0
         NMat0=    1 NMatS0=      1 NMatT0=    0 NMatD0=    1 NMtDS0=    0 NMtDT0=    0
 Symmetry not used in FoFCou.
 End of G2Drv F.D. properties file   721 does not exist.
 End of G2Drv F.D. properties file   722 does not exist.
 End of G2Drv F.D. properties file   788 does not exist.
 Leave Link 1110 at Fri Mar 29 07:35:46 2019, MaxMem=   671088640 cpu:            1608.6 elap:              80.5
 (Enter /shared/centos7/gaussian/g16/l1002.exe)
 Minotr:  UHF open shell wavefunction.
          IDoAtm=11111111111111
          Direct CPHF calculation.
          Differentiating once with respect to nuclear coordinates.
          Requested convergence is 1.0D-08 RMS, and 1.0D-07 maximum.
          Secondary convergence is 1.0D-12 RMS, and 1.0D-12 maximum.
          NewPWx=T KeepS1=F KeepF1=F KeepIn=T MapXYZ=F SortEE=F KeepMc=T.
         4264 words used for storage of precomputed grid.
 Two-electron integrals replicated using symmetry.
          MDV=     671088640 using IRadAn=       1.
          Solving linear equations simultaneously, MaxMat=     380.
 FoF2E skips out because all densities are zero.
 CalDSu exits because no D1Ps are significant.
 FoFJK:  IHMeth= 1 ICntrl=       0 DoSepK=F KAlg= 0 I1Cent=           0 FoldK=F
 IRaf= 960000000 NMat=      42 IRICut=     105 DoRegI=T DoRafI=T ISym2E= 2 IDoP0=3 IntGTp=3.
 FoFCou: FMM=F IPFlag=           0 FMFlag=      100000 FMFlg1=           0
         NFxFlg=           0 DoJE=F BraDBF=F KetDBF=F FulRan=T
         wScrn=  0.000000 ICntrl=         0 IOpCl=  1 I1Cent=           0 NGrid=           0
         NMat0=   42 NMatS0=     42 NMatT0=    0 NMatD0=   42 NMtDS0=    0 NMtDT0=    0
 Integrals replicated using symmetry in FoFCou.
 Raff kept on since  94.94% of shell-pairs survive, threshold=   0.20 IRatSp=95.
          There are    45 degrees of freedom in the 1st order CPHF.  IDoFFX=6 NUNeed=     0.
     39 vectors produced by pass  0 Test12= 2.10D-14 2.22D-09 XBig12= 1.53D-01 9.88D-02.
 AX will form    39 AO Fock derivatives at one time.
     39 vectors produced by pass  1 Test12= 2.10D-14 2.22D-09 XBig12= 4.74D-03 1.40D-02.
     39 vectors produced by pass  2 Test12= 2.10D-14 2.22D-09 XBig12= 1.55D-04 2.71D-03.
     39 vectors produced by pass  3 Test12= 2.10D-14 2.22D-09 XBig12= 3.15D-06 2.87D-04.
     39 vectors produced by pass  4 Test12= 2.10D-14 2.22D-09 XBig12= 3.87D-08 2.09D-05.
     39 vectors produced by pass  5 Test12= 2.10D-14 2.22D-09 XBig12= 3.96D-10 1.76D-06.
     38 vectors produced by pass  6 Test12= 2.10D-14 2.22D-09 XBig12= 3.73D-12 2.12D-07.
     15 vectors produced by pass  7 Test12= 2.10D-14 2.22D-09 XBig12= 2.93D-14 1.55D-08.
 InvSVY:  IOpt=1 It=  1 EMax= 1.78D-15
 Solved reduced A of dimension   287 with    39 vectors.
 End of Minotr F.D. properties file   721 does not exist.
 End of Minotr F.D. properties file   722 does not exist.
 End of Minotr F.D. properties file   788 does not exist.
 Leave Link 1002 at Fri Mar 29 07:37:51 2019, MaxMem=   671088640 cpu:            2491.7 elap:             124.6
 (Enter /shared/centos7/gaussian/g16/l601.exe)
 Copying SCF densities to generalized density rwf, IOpCl= 1 IROHF=0.

 **********************************************************************

            Population analysis using the SCF density.

 **********************************************************************

 Orbital symmetries:
 Alpha Orbitals:
       Occupied  (A) (A) (A) (A) (A) (A) (A) (A) (A) (A) (A) (A)
                 (A) (A) (A) (A) (A) (A) (A) (A) (A)
       Virtual   (A) (A) (A) (A) (A) (A) (A) (A) (A) (A) (A) (A)
                 (A) (A) (A) (A) (A) (A) (A) (A) (A) (A) (A) (A)
                 (A) (A) (A) (A) (A) (A) (A) (A) (A) (A) (A) (A)
                 (A) (A) (A) (A) (A) (A) (A) (A) (A) (A) (A) (A)
                 (A) (A) (A) (A) (A) (A) (A) (A) (A) (A) (A) (A)
                 (A) (A) (A) (A) (A) (A) (A) (A) (A) (A) (A) (A)
                 (A) (A) (A) (A) (A) (A) (A) (A) (A) (A) (A) (A)
                 (A) (A) (A) (A) (A) (A) (A) (A) (A) (A) (A) (A)
                 (A) (A) (A) (A) (A) (A) (A) (A) (A) (A) (A) (A)
                 (A) (A) (A) (A) (A) (A) (A) (A) (A) (A) (A) (A)
                 (A) (A) (A) (A) (A) (A) (A) (A) (A) (A) (A) (A)
                 (A) (A) (A) (A) (A) (A) (A) (A) (A) (A) (A) (A)
                 (A) (A) (A) (A) (A) (A) (A) (A) (A) (A) (A) (A)
                 (A) (A) (A) (A) (A) (A) (A) (A) (A) (A) (A) (A)
                 (A) (A) (A) (A) (A) (A) (A) (A) (A) (A) (A) (A)
                 (A) (A) (A) (A) (A) (A) (A) (A) (A) (A) (A) (A)
                 (A) (A) (A) (A) (A) (A) (A) (A) (A) (A) (A) (A)
                 (A) (A) (A) (A) (A) (A) (A) (A) (A) (A) (A) (A)
                 (A) (A) (A) (A) (A) (A) (A) (A) (A) (A) (A) (A)
                 (A) (A)
 Beta  Orbitals:
       Occupied  (A) (A) (A) (A) (A) (A) (A) (A) (A) (A) (A) (A)
                 (A) (A) (A) (A) (A) (A) (A) (A)
       Virtual   (A) (A) (A) (A) (A) (A) (A) (A) (A) (A) (A) (A)
                 (A) (A) (A) (A) (A) (A) (A) (A) (A) (A) (A) (A)
                 (A) (A) (A) (A) (A) (A) (A) (A) (A) (A) (A) (A)
                 (A) (A) (A) (A) (A) (A) (A) (A) (A) (A) (A) (A)
                 (A) (A) (A) (A) (A) (A) (A) (A) (A) (A) (A) (A)
                 (A) (A) (A) (A) (A) (A) (A) (A) (A) (A) (A) (A)
                 (A) (A) (A) (A) (A) (A) (A) (A) (A) (A) (A) (A)
                 (A) (A) (A) (A) (A) (A) (A) (A) (A) (A) (A) (A)
                 (A) (A) (A) (A) (A) (A) (A) (A) (A) (A) (A) (A)
                 (A) (A) (A) (A) (A) (A) (A) (A) (A) (A) (A) (A)
                 (A) (A) (A) (A) (A) (A) (A) (A) (A) (A) (A) (A)
                 (A) (A) (A) (A) (A) (A) (A) (A) (A) (A) (A) (A)
                 (A) (A) (A) (A) (A) (A) (A) (A) (A) (A) (A) (A)
                 (A) (A) (A) (A) (A) (A) (A) (A) (A) (A) (A) (A)
                 (A) (A) (A) (A) (A) (A) (A) (A) (A) (A) (A) (A)
                 (A) (A) (A) (A) (A) (A) (A) (A) (A) (A) (A) (A)
                 (A) (A) (A) (A) (A) (A) (A) (A) (A) (A) (A) (A)
                 (A) (A) (A) (A) (A) (A) (A) (A) (A) (A) (A) (A)
                 (A) (A) (A) (A) (A) (A) (A) (A) (A) (A) (A) (A)
                 (A) (A) (A)
 The electronic state is 2-A.
 Alpha  occ. eigenvalues --  -19.62014 -10.58326 -10.54668 -10.53552 -10.52590
 Alpha  occ. eigenvalues --   -1.14441  -0.89987  -0.82008  -0.72824  -0.66424
 Alpha  occ. eigenvalues --   -0.57180  -0.54920  -0.52275  -0.50312  -0.48739
 Alpha  occ. eigenvalues --   -0.43408  -0.42241  -0.41659  -0.39511  -0.35530
 Alpha  occ. eigenvalues --   -0.25630
 Alpha virt. eigenvalues --    0.01851   0.02817   0.03714   0.03789   0.05783
 Alpha virt. eigenvalues --    0.06370   0.06675   0.08238   0.08771   0.09311
 Alpha virt. eigenvalues --    0.10735   0.11521   0.13240   0.14246   0.16612
 Alpha virt. eigenvalues --    0.17436   0.19269   0.19777   0.19884   0.20804
 Alpha virt. eigenvalues --    0.22845   0.23920   0.24595   0.25603   0.25744
 Alpha virt. eigenvalues --    0.27056   0.27941   0.28599   0.30656   0.31458
 Alpha virt. eigenvalues --    0.32599   0.32938   0.36923   0.42184   0.43775
 Alpha virt. eigenvalues --    0.44447   0.46613   0.48687   0.51796   0.53786
 Alpha virt. eigenvalues --    0.54491   0.55075   0.55432   0.57031   0.57565
 Alpha virt. eigenvalues --    0.58899   0.60561   0.61415   0.62097   0.63636
 Alpha virt. eigenvalues --    0.65071   0.65494   0.66177   0.67227   0.69417
 Alpha virt. eigenvalues --    0.71197   0.72325   0.74082   0.78200   0.82158
 Alpha virt. eigenvalues --    0.83772   0.85838   0.88438   0.90731   0.93305
 Alpha virt. eigenvalues --    0.95000   0.97581   0.99543   1.01931   1.04036
 Alpha virt. eigenvalues --    1.06761   1.08465   1.09622   1.13619   1.14831
 Alpha virt. eigenvalues --    1.16891   1.17348   1.18947   1.20495   1.21762
 Alpha virt. eigenvalues --    1.22721   1.24589   1.25591   1.26947   1.28477
 Alpha virt. eigenvalues --    1.29512   1.30586   1.35711   1.36923   1.39047
 Alpha virt. eigenvalues --    1.42611   1.43278   1.43755   1.45543   1.46337
 Alpha virt. eigenvalues --    1.48274   1.49351   1.51454   1.53006   1.54101
 Alpha virt. eigenvalues --    1.54980   1.57314   1.60256   1.61726   1.63199
 Alpha virt. eigenvalues --    1.66906   1.69702   1.72486   1.75747   1.93908
 Alpha virt. eigenvalues --    2.06600   2.10631   2.27272   2.30653   2.41413
 Alpha virt. eigenvalues --    2.45648   2.48828   2.53116   2.53408   2.58011
 Alpha virt. eigenvalues --    2.59799   2.64100   2.72022   2.76977   2.78993
 Alpha virt. eigenvalues --    2.79615   2.83737   2.87261   2.89358   2.92288
 Alpha virt. eigenvalues --    2.95455   2.98146   2.98987   3.00813   3.05080
 Alpha virt. eigenvalues --    3.09756   3.11647   3.13630   3.14624   3.15749
 Alpha virt. eigenvalues --    3.19180   3.21618   3.24516   3.25343   3.27553
 Alpha virt. eigenvalues --    3.31839   3.33255   3.34791   3.37906   3.38506
 Alpha virt. eigenvalues --    3.40129   3.42734   3.45974   3.49985   3.53388
 Alpha virt. eigenvalues --    3.55138   3.58162   3.58946   3.61263   3.63781
 Alpha virt. eigenvalues --    3.65568   3.71081   3.71602   3.75409   3.77480
 Alpha virt. eigenvalues --    3.82137   3.82718   3.83601   3.89899   3.92981
 Alpha virt. eigenvalues --    3.95299   3.99398   3.99660   4.01801   4.04642
 Alpha virt. eigenvalues --    4.06113   4.10906   4.11455   4.15123   4.17301
 Alpha virt. eigenvalues --    4.18528   4.21366   4.23481   4.24730   4.26582
 Alpha virt. eigenvalues --    4.30143   4.31863   4.33849   4.34857   4.38966
 Alpha virt. eigenvalues --    4.43376   4.47063   4.47484   4.50885   4.55092
 Alpha virt. eigenvalues --    4.56232   4.60283   4.64349   4.69334   4.75773
 Alpha virt. eigenvalues --    4.95755   5.03877   5.15575   5.22696   5.23782
 Alpha virt. eigenvalues --    5.28077   5.37807   5.42401   5.47486   5.49479
 Alpha virt. eigenvalues --    5.57532   5.58791   5.59247   5.60416   5.65243
 Alpha virt. eigenvalues --    5.68452   5.82303   5.93793   6.48819   6.97802
 Alpha virt. eigenvalues --    7.18802   7.19301   7.22305   7.51787   7.63246
 Alpha virt. eigenvalues --   24.17875  24.36155  24.44545  24.53715  50.12864
  Beta  occ. eigenvalues --  -19.61917 -10.58393 -10.54016 -10.53607 -10.52566
  Beta  occ. eigenvalues --   -1.14052  -0.88589  -0.81104  -0.72288  -0.64695
  Beta  occ. eigenvalues --   -0.56731  -0.54051  -0.51044  -0.49688  -0.48289
  Beta  occ. eigenvalues --   -0.42988  -0.41763  -0.40904  -0.39003  -0.35148
  Beta virt. eigenvalues --   -0.03958   0.01606   0.02692   0.03265   0.03990
  Beta virt. eigenvalues --    0.05662   0.06159   0.06644   0.07506   0.08589
  Beta virt. eigenvalues --    0.08971   0.10279   0.10748   0.12683   0.14020
  Beta virt. eigenvalues --    0.15457   0.17141   0.19032   0.19688   0.20161
  Beta virt. eigenvalues --    0.20893   0.22483   0.24210   0.24540   0.25321
  Beta virt. eigenvalues --    0.26556   0.27055   0.28101   0.28349   0.30727
  Beta virt. eigenvalues --    0.31852   0.33107   0.33598   0.37204   0.42303
  Beta virt. eigenvalues --    0.43994   0.44795   0.46688   0.49161   0.51669
  Beta virt. eigenvalues --    0.53646   0.54509   0.55312   0.56367   0.57194
  Beta virt. eigenvalues --    0.57801   0.59497   0.60658   0.61600   0.62047
  Beta virt. eigenvalues --    0.64003   0.65535   0.65749   0.66082   0.67629
  Beta virt. eigenvalues --    0.69296   0.71218   0.72461   0.74389   0.78035
  Beta virt. eigenvalues --    0.82167   0.83564   0.85931   0.88312   0.90564
  Beta virt. eigenvalues --    0.92999   0.94293   0.97712   0.99314   1.02352
  Beta virt. eigenvalues --    1.03886   1.06559   1.08622   1.09531   1.13697
  Beta virt. eigenvalues --    1.14439   1.17008   1.17492   1.18877   1.20540
  Beta virt. eigenvalues --    1.21537   1.22703   1.24549   1.25327   1.26964
  Beta virt. eigenvalues --    1.28581   1.29496   1.30848   1.36402   1.37344
  Beta virt. eigenvalues --    1.39191   1.42533   1.43547   1.43650   1.45537
  Beta virt. eigenvalues --    1.46405   1.48375   1.49214   1.51420   1.53293
  Beta virt. eigenvalues --    1.53933   1.55797   1.57259   1.60647   1.61622
  Beta virt. eigenvalues --    1.63186   1.67209   1.69901   1.73265   1.76115
  Beta virt. eigenvalues --    1.94139   2.07107   2.10930   2.27317   2.30759
  Beta virt. eigenvalues --    2.41771   2.45936   2.49254   2.53978   2.54341
  Beta virt. eigenvalues --    2.58889   2.60249   2.64569   2.73540   2.78080
  Beta virt. eigenvalues --    2.80954   2.82528   2.85040   2.90667   2.92503
  Beta virt. eigenvalues --    2.93814   2.97237   2.98988   3.00938   3.02462
  Beta virt. eigenvalues --    3.06773   3.10193   3.12555   3.14211   3.15965
  Beta virt. eigenvalues --    3.16366   3.20094   3.22756   3.25903   3.26527
  Beta virt. eigenvalues --    3.30103   3.32780   3.34585   3.35851   3.39282
  Beta virt. eigenvalues --    3.41459   3.43812   3.44202   3.46390   3.51574
  Beta virt. eigenvalues --    3.53977   3.57539   3.58854   3.60827   3.62072
  Beta virt. eigenvalues --    3.64462   3.66853   3.71621   3.72489   3.76201
  Beta virt. eigenvalues --    3.78245   3.82720   3.83091   3.84030   3.90253
  Beta virt. eigenvalues --    3.93795   3.96169   3.99838   4.00642   4.02695
  Beta virt. eigenvalues --    4.05456   4.07177   4.12308   4.12387   4.16921
  Beta virt. eigenvalues --    4.18335   4.19235   4.23014   4.24144   4.25189
  Beta virt. eigenvalues --    4.27005   4.31402   4.32267   4.34731   4.35697
  Beta virt. eigenvalues --    4.40133   4.44810   4.47389   4.48938   4.52329
  Beta virt. eigenvalues --    4.55827   4.57932   4.61313   4.65540   4.70345
  Beta virt. eigenvalues --    4.79140   4.98380   5.07408   5.16947   5.22865
  Beta virt. eigenvalues --    5.24390   5.28775   5.37797   5.42532   5.48788
  Beta virt. eigenvalues --    5.52370   5.58608   5.58842   5.59926   5.61863
  Beta virt. eigenvalues --    5.65643   5.68928   5.82545   5.93910   6.48801
  Beta virt. eigenvalues --    6.97998   7.18943   7.19675   7.22621   7.51877
  Beta virt. eigenvalues --    7.63521  24.18722  24.36258  24.44579  24.54398
  Beta virt. eigenvalues --   50.12760
          Condensed to atoms (all electrons):
               1          2          3          4          5          6
     1  O    8.121126   0.102331   0.149746  -0.024539  -0.144496  -0.001983
     2  C    0.102331   5.697962  -0.020706  -0.026722  -0.254012   0.436790
     3  C    0.149746  -0.020706   5.011336  -0.023113   0.240482  -0.019336
     4  C   -0.024539  -0.026722  -0.023113   5.216913   0.151651  -0.033283
     5  C   -0.144496  -0.254012   0.240482   0.151651   6.000500  -0.038599
     6  H   -0.001983   0.436790  -0.019336  -0.033283  -0.038599   0.547712
     7  H   -0.004084   0.454599   0.026304  -0.032992  -0.086481  -0.039073
     8  H   -0.000096  -0.021043  -0.004991   0.414031  -0.008639   0.005672
     9  H    0.000157  -0.045580   0.000582   0.410060   0.020884  -0.003616
    10  H   -0.000103  -0.010157   0.005504   0.408633  -0.031470  -0.008469
    11  H   -0.033823   0.039516   0.413777  -0.002058  -0.062077  -0.000373
    12  H   -0.068779  -0.028308   0.448659  -0.002258  -0.023435   0.002040
    13  H    0.006076  -0.000300  -0.025017  -0.015482   0.385359  -0.001211
    14  H    0.240276  -0.007276  -0.002815  -0.005213   0.005704  -0.000121
               7          8          9         10         11         12
     1  O   -0.004084  -0.000096   0.000157  -0.000103  -0.033823  -0.068779
     2  C    0.454599  -0.021043  -0.045580  -0.010157   0.039516  -0.028308
     3  C    0.026304  -0.004991   0.000582   0.005504   0.413777   0.448659
     4  C   -0.032992   0.414031   0.410060   0.408633  -0.002058  -0.002258
     5  C   -0.086481  -0.008639   0.020884  -0.031470  -0.062077  -0.023435
     6  H   -0.039073   0.005672  -0.003616  -0.008469  -0.000373   0.002040
     7  H    0.509605  -0.007231  -0.005251   0.006292  -0.000244  -0.001918
     8  H   -0.007231   0.546031  -0.023749  -0.036851  -0.000025  -0.000031
     9  H   -0.005251  -0.023749   0.537571  -0.026336   0.000016   0.000009
    10  H    0.006292  -0.036851  -0.026336   0.555761  -0.000043   0.000003
    11  H   -0.000244  -0.000025   0.000016  -0.000043   0.556491  -0.034653
    12  H   -0.001918  -0.000031   0.000009   0.000003  -0.034653   0.553984
    13  H    0.003201  -0.001091  -0.000022   0.002489  -0.005131   0.003145
    14  H   -0.001260  -0.000183   0.000008   0.000019  -0.005768   0.008981
              13         14
     1  O    0.006076   0.240276
     2  C   -0.000300  -0.007276
     3  C   -0.025017  -0.002815
     4  C   -0.015482  -0.005213
     5  C    0.385359   0.005704
     6  H   -0.001211  -0.000121
     7  H    0.003201  -0.001260
     8  H   -0.001091  -0.000183
     9  H   -0.000022   0.000008
    10  H    0.002489   0.000019
    11  H   -0.005131  -0.005768
    12  H    0.003145   0.008981
    13  H    0.459799   0.000483
    14  H    0.000483   0.522086
          Atomic-Atomic Spin Densities.
               1          2          3          4          5          6
     1  O    0.067285   0.013312   0.006788   0.001987  -0.059457  -0.001900
     2  C    0.013312   0.009796   0.034500   0.011985  -0.185669   0.026453
     3  C    0.006788   0.034500  -0.047609  -0.007339  -0.064848  -0.004718
     4  C    0.001987   0.011985  -0.007339   0.026384  -0.000925  -0.012220
     5  C   -0.059457  -0.185669  -0.064848  -0.000925   1.436225  -0.023299
     6  H   -0.001900   0.026453  -0.004718  -0.012220  -0.023299   0.069505
     7  H    0.004521   0.012042   0.004972   0.008892  -0.031278  -0.012234
     8  H    0.000034   0.005831   0.001794   0.004559  -0.010952   0.000331
     9  H   -0.000036  -0.002514  -0.000935  -0.004839   0.007655   0.001166
    10  H    0.000038   0.002098   0.000418  -0.002137  -0.001421  -0.001649
    11  H    0.004275   0.001419   0.005172   0.001112  -0.012973  -0.000274
    12  H   -0.014690   0.001222   0.014952  -0.002034  -0.014612   0.003543
    13  H    0.000656   0.018113   0.010992   0.001265  -0.031993  -0.000561
    14  H    0.001516   0.002671   0.007156   0.001185  -0.006392   0.000142
               7          8          9         10         11         12
     1  O    0.004521   0.000034  -0.000036   0.000038   0.004275  -0.014690
     2  C    0.012042   0.005831  -0.002514   0.002098   0.001419   0.001222
     3  C    0.004972   0.001794  -0.000935   0.000418   0.005172   0.014952
     4  C    0.008892   0.004559  -0.004839  -0.002137   0.001112  -0.002034
     5  C   -0.031278  -0.010952   0.007655  -0.001421  -0.012973  -0.014612
     6  H   -0.012234   0.000331   0.001166  -0.001649  -0.000274   0.003543
     7  H    0.028678  -0.000388  -0.000782   0.000416   0.000229  -0.002057
     8  H   -0.000388  -0.009206   0.001320  -0.000518  -0.000015   0.000023
     9  H   -0.000782   0.001320  -0.000893   0.000099  -0.000001   0.000016
    10  H    0.000416  -0.000518   0.000099   0.001278   0.000008  -0.000038
    11  H    0.000229  -0.000015  -0.000001   0.000008   0.009853  -0.004159
    12  H   -0.002057   0.000023   0.000016  -0.000038  -0.004159   0.053304
    13  H    0.000151   0.000273  -0.000042  -0.000067   0.000500  -0.000601
    14  H   -0.000242   0.000038   0.000002  -0.000011  -0.000380   0.000526
              13         14
     1  O    0.000656   0.001516
     2  C    0.018113   0.002671
     3  C    0.010992   0.007156
     4  C    0.001265   0.001185
     5  C   -0.031993  -0.006392
     6  H   -0.000561   0.000142
     7  H    0.000151  -0.000242
     8  H    0.000273   0.000038
     9  H   -0.000042   0.000002
    10  H   -0.000067  -0.000011
    11  H    0.000500  -0.000380
    12  H   -0.000601   0.000526
    13  H   -0.052094   0.000091
    14  H    0.000091  -0.007018
 Mulliken charges and spin densities:
               1          2
     1  O   -0.341808   0.024328
     2  C   -0.317094  -0.048742
     3  C   -0.200410  -0.038706
     4  C   -0.435627   0.027873
     5  C   -0.155371   1.000062
     6  H    0.153851   0.044285
     7  H    0.178532   0.012920
     8  H    0.138194  -0.006877
     9  H    0.135267   0.000216
    10  H    0.134728  -0.001487
    11  H    0.134396   0.004765
    12  H    0.142561   0.035396
    13  H    0.187702  -0.053318
    14  H    0.245078  -0.000715
 Sum of Mulliken charges =  -0.00000   1.00000
 Mulliken charges and spin densities with hydrogens summed into heavy atoms:
               1          2
     1  O   -0.096730   0.023613
     2  C    0.015289   0.008464
     3  C    0.076547   0.001455
     4  C   -0.027437   0.019724
     5  C    0.032331   0.946744
 APT charges:
               1
     1  O   -0.616078
     2  C   -0.740999
     3  C   -0.748372
     4  C   -1.232521
     5  C   -0.293475
     6  H    0.386974
     7  H    0.314929
     8  H    0.293968
     9  H    0.512412
    10  H    0.389482
    11  H    0.471497
    12  H    0.368865
    13  H    0.427677
    14  H    0.465641
 Sum of APT charges =  -0.00000
 APT charges with hydrogens summed into heavy atoms:
               1
     1  O   -0.150437
     2  C   -0.039095
     3  C    0.091990
     4  C   -0.036659
     5  C    0.134202
 Electronic spatial extent (au):  <R**2>=            583.1478
 Charge=             -0.0000 electrons
 Dipole moment (field-independent basis, Debye):
    X=              1.0673    Y=              0.9127    Z=             -0.8038  Tot=              1.6181
 Quadrupole moment (field-independent basis, Debye-Ang):
   XX=            -36.1843   YY=            -32.7648   ZZ=            -31.4354
   XY=             -2.2884   XZ=              2.1879   YZ=              1.4653
 Traceless Quadrupole moment (field-independent basis, Debye-Ang):
   XX=             -2.7228   YY=              0.6967   ZZ=              2.0261
   XY=             -2.2884   XZ=              2.1879   YZ=              1.4653
 Octapole moment (field-independent basis, Debye-Ang**2):
  XXX=              1.8191  YYY=             -3.8035  ZZZ=             -0.4388  XYY=             -1.5831
  XXY=              4.7445  XXZ=             -2.3426  XZZ=             -5.9349  YZZ=             -2.4586
  YYZ=             -3.4890  XYZ=             -3.4112
 Hexadecapole moment (field-independent basis, Debye-Ang**3):
 XXXX=           -607.3500 YYYY=           -122.0702 ZZZZ=            -81.9698 XXXY=             -9.5943
 XXXZ=             11.0575 YYYX=              6.9919 YYYZ=              1.3320 ZZZX=              4.2582
 ZZZY=              5.1477 XXYY=           -116.3677 XXZZ=           -103.9586 YYZZ=            -30.3485
 XXYZ=              3.4149 YYXZ=              4.7596 ZZXY=              3.9694
 N-N= 1.786112922122D+02 E-N=-9.003096732706D+02  KE= 2.320713766875D+02
  Exact polarizability:   0.000   0.000   0.000   0.000   0.000   0.000
 Approx polarizability:  62.041   0.421  60.631  -0.215   0.260  61.288
                          Isotropic Fermi Contact Couplings
        Atom                 a.u.       MegaHertz       Gauss      10(-4) cm-1
     1  O(17)              0.04238     -25.68907      -9.16650      -8.56895
     2  C(13)             -0.02874     -32.30709     -11.52797     -10.77648
     3  C(13)             -0.03488     -39.20619     -13.98974     -13.07778
     4  C(13)              0.01801      20.25122       7.22614       6.75508
     5  C(13)              0.16800     188.86113      67.39035      62.99729
     6  H(1)               0.02603     116.36025      41.52023      38.81360
     7  H(1)               0.00682      30.47574      10.87450      10.16561
     8  H(1)              -0.00038      -1.70248      -0.60749      -0.56789
     9  H(1)               0.00008       0.35309       0.12599       0.11778
    10  H(1)              -0.00024      -1.08206      -0.38611      -0.36094
    11  H(1)               0.00130       5.79167       2.06661       1.93189
    12  H(1)               0.01840      82.26142      29.35292      27.43946
    13  H(1)              -0.01541     -68.88682     -24.58053     -22.97817
    14  H(1)              -0.00092      -4.10404      -1.46442      -1.36896
 --------------------------------------------------------
       Center         ----  Spin Dipole Couplings  ----
                      3XX-RR        3YY-RR        3ZZ-RR
 --------------------------------------------------------
     1   Atom        0.046087      0.029656     -0.075744
     2   Atom       -0.002452     -0.002845      0.005297
     3   Atom        0.007195     -0.005437     -0.001758
     4   Atom        0.021973     -0.011543     -0.010430
     5   Atom       -0.527426      0.127488      0.399938
     6   Atom        0.000591     -0.007441      0.006850
     7   Atom       -0.006541      0.006893     -0.000352
     8   Atom        0.005884     -0.002630     -0.003254
     9   Atom        0.004656     -0.001864     -0.002792
    10   Atom        0.010334     -0.005271     -0.005063
    11   Atom        0.017723     -0.008660     -0.009064
    12   Atom        0.008639     -0.008035     -0.000603
    13   Atom       -0.056600      0.041682      0.014918
    14   Atom       -0.000043      0.001085     -0.001042
 --------------------------------------------------------
                        XY            XZ            YZ
 --------------------------------------------------------
     1   Atom        0.126708     -0.049127     -0.032200
     2   Atom       -0.002929      0.010480      0.005718
     3   Atom        0.006577     -0.010837     -0.007765
     4   Atom       -0.004360     -0.002252      0.000180
     5   Atom        0.035076      0.038019      0.773352
     6   Atom       -0.004410      0.012017     -0.002479
     7   Atom       -0.006871      0.004085     -0.011356
     8   Atom       -0.007798     -0.003858      0.003299
     9   Atom       -0.003817      0.001410     -0.000450
    10   Atom        0.001358     -0.001580     -0.000067
    11   Atom       -0.005444      0.003188      0.001380
    12   Atom        0.001962     -0.011413      0.002412
    13   Atom        0.034034     -0.023681     -0.028568
    14   Atom        0.012976      0.000919      0.008658
 --------------------------------------------------------


 ---------------------------------------------------------------------------------
              Anisotropic Spin Dipole Couplings in Principal Axis System
 ---------------------------------------------------------------------------------

       Atom             a.u.   MegaHertz   Gauss  10(-4) cm-1        Axes

              Baa    -0.0989     7.155     2.553     2.387  0.5958 -0.4152  0.6875
     1 O(17)  Bbb    -0.0792     5.729     2.044     1.911 -0.3617  0.6256  0.6913
              Bcc     0.1781   -12.884    -4.597    -4.298  0.7170  0.6605 -0.2226
 
              Baa    -0.0130    -1.748    -0.624    -0.583  0.6759  0.4991 -0.5424
     2 C(13)  Bbb    -0.0002    -0.026    -0.009    -0.009 -0.5240  0.8428  0.1225
              Bcc     0.0132     1.774     0.633     0.592  0.5183  0.2014  0.8312
 
              Baa    -0.0118    -1.589    -0.567    -0.530  0.1647  0.6879  0.7068
     3 C(13)  Bbb    -0.0067    -0.893    -0.318    -0.298  0.6454 -0.6171  0.4502
              Bcc     0.0185     2.482     0.885     0.828  0.7458  0.3821 -0.5457
 
              Baa    -0.0121    -1.625    -0.580    -0.542  0.1311  0.9889  0.0702
     4 C(13)  Bbb    -0.0106    -1.419    -0.506    -0.473  0.0583 -0.0784  0.9952
              Bcc     0.0227     3.044     1.086     1.015  0.9896 -0.1264 -0.0680
 
              Baa    -0.5298   -71.098   -25.369   -23.716  0.9592 -0.2355  0.1567
     5 C(13)  Bbb    -0.5208   -69.891   -24.939   -23.313  0.2810  0.7292 -0.6240
              Bcc     1.0507   140.989    50.308    47.029  0.0327  0.6425  0.7655
 
              Baa    -0.0105    -5.582    -1.992    -1.862  0.6566  0.6622 -0.3610
     6 H(1)   Bbb    -0.0066    -3.504    -1.250    -1.169 -0.4408  0.7253  0.5288
              Bcc     0.0170     9.087     3.242     3.031  0.6120 -0.1881  0.7682
 
              Baa    -0.0097    -5.152    -1.838    -1.719  0.7749  0.5433  0.3229
     7 H(1)   Bbb    -0.0081    -4.342    -1.549    -1.448 -0.5502  0.3285  0.7677
              Bcc     0.0178     9.494     3.388     3.167 -0.3110  0.7726 -0.5535
 
              Baa    -0.0075    -4.012    -1.432    -1.338  0.4183  0.8614 -0.2880
     8 H(1)   Bbb    -0.0046    -2.466    -0.880    -0.822  0.4099  0.1039  0.9062
              Bcc     0.0121     6.478     2.311     2.161  0.8106 -0.4971 -0.3097
 
              Baa    -0.0037    -1.960    -0.699    -0.654  0.4384  0.8596 -0.2624
     9 H(1)   Bbb    -0.0030    -1.585    -0.566    -0.529 -0.0244  0.3032  0.9526
              Bcc     0.0066     3.545     1.265     1.182  0.8985 -0.4112  0.1539
 
              Baa    -0.0054    -2.888    -1.031    -0.963 -0.1145  0.9338 -0.3389
    10 H(1)   Bbb    -0.0052    -2.773    -0.990    -0.925  0.0648  0.3475  0.9354
              Bcc     0.0106     5.661     2.020     1.888  0.9913  0.0852 -0.1003
 
              Baa    -0.0115    -6.146    -2.193    -2.050  0.2059  0.7145 -0.6686
    11 H(1)   Bbb    -0.0076    -4.041    -1.442    -1.348  0.0523  0.6743  0.7366
              Bcc     0.0191    10.188     3.635     3.398  0.9772 -0.1866  0.1015
 
              Baa    -0.0113    -6.011    -2.145    -2.005 -0.4091  0.6922 -0.5945
    12 H(1)   Bbb    -0.0051    -2.704    -0.965    -0.902  0.3791  0.7216  0.5793
              Bcc     0.0163     8.715     3.110     2.907  0.8300  0.0116 -0.5576
 
              Baa    -0.0699   -37.281   -13.303   -12.436  0.9523 -0.2434  0.1839
    13 H(1)   Bbb    -0.0032    -1.713    -0.611    -0.571 -0.0214  0.5482  0.8361
              Bcc     0.0731    38.994    13.914    13.007  0.3044  0.8001 -0.5169
 
              Baa    -0.0148    -7.903    -2.820    -2.636 -0.5905  0.7004 -0.4010
    14 H(1)   Bbb    -0.0016    -0.845    -0.301    -0.282 -0.5560  0.0071  0.8311
              Bcc     0.0164     8.747     3.121     2.918  0.5850  0.7137  0.3852
 

 ---------------------------------------------------------------------------------

 No NMR shielding tensors so no spin-rotation constants.
 Leave Link  601 at Fri Mar 29 07:37:51 2019, MaxMem=   671088640 cpu:               7.4 elap:               0.4
 (Enter /shared/centos7/gaussian/g16/l701.exe)
 ... and contract with generalized density number  0.
 Compute integral second derivatives.
 Leave Link  701 at Fri Mar 29 07:37:51 2019, MaxMem=   671088640 cpu:               6.4 elap:               0.3
 (Enter /shared/centos7/gaussian/g16/l702.exe)
 L702 exits ... SP integral derivatives will be done elsewhere.
 Leave Link  702 at Fri Mar 29 07:37:51 2019, MaxMem=   671088640 cpu:               0.3 elap:               0.0
 (Enter /shared/centos7/gaussian/g16/l703.exe)
 Integral derivatives from FoFJK, PRISM(SPDF).
 Compute integral second derivatives, UseDBF=F ICtDFT=           0.
 Calling FoFJK, ICntrl=    100147 FMM=F ISym2X=0 I1Cent= 0 IOpClX= 1 NMat=1 NMatS=1 NMatT=0.
 FoFJK:  IHMeth= 1 ICntrl=  100147 DoSepK=F KAlg= 0 I1Cent=           0 FoldK=F
 IRaf=         0 NMat=       1 IRICut=       1 DoRegI=T DoRafI=F ISym2E= 0 IDoP0=0 IntGTp=1.
 FoFCou: FMM=F IPFlag=           0 FMFlag=      100000 FMFlg1=         800
         NFxFlg=           0 DoJE=F BraDBF=F KetDBF=F FulRan=T
         wScrn=  0.000000 ICntrl=    100147 IOpCl=  1 I1Cent=           0 NGrid=           0
         NMat0=    1 NMatS0=      1 NMatT0=    0 NMatD0=    1 NMtDS0=    0 NMtDT0=    0
 Symmetry not used in FoFCou.
 Leave Link  703 at Fri Mar 29 07:39:10 2019, MaxMem=   671088640 cpu:            1564.1 elap:              78.2
 (Enter /shared/centos7/gaussian/g16/l716.exe)
 Dipole        = 4.19924326D-01 3.59089701D-01-3.16249666D-01
 Polarizability= 0.00000000D+00 0.00000000D+00 0.00000000D+00
                 0.00000000D+00 0.00000000D+00 0.00000000D+00
 ***** Axes restored to original set *****
 -------------------------------------------------------------------
 Center     Atomic                   Forces (Hartrees/Bohr)
 Number     Number              X              Y              Z
 -------------------------------------------------------------------
      1        8           0.000000148    0.000000421    0.000001194
      2        6           0.000000074   -0.000000748    0.000000139
      3        6          -0.000000098    0.000000247   -0.000000466
      4        6           0.000000034   -0.000000052    0.000000233
      5        6          -0.000000107    0.000000302   -0.000000710
      6        1           0.000000050   -0.000001857   -0.000000515
      7        1           0.000000248   -0.000001016    0.000001251
      8        1           0.000000064    0.000001018    0.000000894
      9        1           0.000000160   -0.000000881    0.000000780
     10        1          -0.000000143    0.000000178   -0.000000921
     11        1          -0.000000227    0.000001016   -0.000001117
     12        1          -0.000000024   -0.000000982   -0.000000670
     13        1          -0.000000309    0.000000970   -0.000001633
     14        1           0.000000129    0.000001384    0.000001542
 -------------------------------------------------------------------
 Cartesian Forces:  Max     0.000001857 RMS     0.000000778
 FormGI is forming the generalized inverse of G from B-inverse, IUseBI=4.
 Leave Link  716 at Fri Mar 29 07:39:10 2019, MaxMem=   671088640 cpu:               0.4 elap:               0.0
 (Enter /shared/centos7/gaussian/g16/l103.exe)

 GradGradGradGradGradGradGradGradGradGradGradGradGradGradGradGradGradGrad
 Berny optimization.
 Red2BG is reusing G-inverse.
 Internal  Forces:  Max     0.000000035 RMS     0.000000010
 Search for a local minimum.
 Step number   1 out of a maximum of   69 on scan point     1 out of    13
 All quantities printed in internal units (Hartrees-Bohrs-Radians)
 RMS Force = .10264D-07 SwitMx=.10000D-02 MixMth= 2
 Mixed Optimization -- En-DIIS/RFO-DIIS
 Second derivative matrix not updated -- analytic derivatives used.
 ITU=  0
     Eigenvalues ---    0.00047   0.00249   0.00337   0.00658   0.03694
     Eigenvalues ---    0.04024   0.04222   0.04542   0.04555   0.06586
     Eigenvalues ---    0.07642   0.10016   0.10221   0.11143   0.12124
     Eigenvalues ---    0.12293   0.13491   0.15298   0.16001   0.16904
     Eigenvalues ---    0.20256   0.22494   0.29972   0.30581   0.31536
     Eigenvalues ---    0.32426   0.32720   0.33294   0.33995   0.34204
     Eigenvalues ---    0.34529   0.35121   0.35915   0.38857   0.54130
     Eigenvalues --- 1000.000001000.000001000.000001000.000001000.00000
     Eigenvalues --- 1000.000001000.000001000.000001000.000001000.00000
     Eigenvalues --- 1000.000001000.000001000.000001000.000001000.00000
     Eigenvalues --- 1000.000001000.000001000.000001000.000001000.00000
     Eigenvalues --- 1000.000001000.000001000.000001000.00000
 RFO step:  Lambda= 0.00000000D+00 EMin= 4.66665626D-04
 Linear search not attempted -- first point.
 Iteration  1 RMS(Cart)=  0.00001051 RMS(Int)=  0.00000000
 Iteration  2 RMS(Cart)=  0.00000000 RMS(Int)=  0.00000000
 Iteration  1 RMS(Cart)=  0.00000000 RMS(Int)=  0.00000000
 ITry= 1 IFail=0 DXMaxC= 2.28D-05 DCOld= 1.00D+10 DXMaxT= 3.00D-01 DXLimC= 3.00D+00 Rises=F
 Variable       Old X    -DE/DX   Delta X   Delta X   Delta X     New X
                                 (Linear)    (Quad)   (Total)
    R1        2.69174   0.00000   0.00000   0.00000   0.00000   2.69174
    R2        1.81493   0.00000   0.00000   0.00000   0.00000   1.81493
    R3        2.88519   0.00000   0.00000  -0.00000  -0.00000   2.88519
    R4        2.81186  -0.00000   0.00000  -0.00000  -0.00000   2.81186
    R5        2.07791   0.00000   0.00000   0.00000   0.00000   2.07791
    R6        2.06400   0.00000   0.00000   0.00000   0.00000   2.06400
    R7        2.81080  -0.00000   0.00000  -0.00000  -0.00000   2.81080
    R8        2.06580   0.00000   0.00000   0.00000   0.00000   2.06580
    R9        2.07005  -0.00000   0.00000  -0.00000  -0.00000   2.07005
   R10        2.05976  -0.00000   0.00000  -0.00000  -0.00000   2.05976
   R11        2.05793   0.00000   0.00000   0.00000   0.00000   2.05793
   R12        2.06097  -0.00000   0.00000  -0.00000  -0.00000   2.06097
   R13        2.04647   0.00000   0.00000  -0.00000  -0.00000   2.04647
    A1        1.88411   0.00000   0.00000  -0.00000  -0.00000   1.88411
    A2        1.97347   0.00000   0.00000   0.00000   0.00000   1.97347
    A3        1.90255  -0.00000   0.00000   0.00000   0.00000   1.90255
    A4        1.92878  -0.00000   0.00000   0.00000   0.00000   1.92878
    A5        1.90626  -0.00000   0.00000  -0.00000  -0.00000   1.90625
    A6        1.90444   0.00000   0.00000   0.00000   0.00000   1.90444
    A7        1.84375   0.00000   0.00000  -0.00000  -0.00000   1.84375
    A8        1.96430  -0.00000   0.00000  -0.00000  -0.00000   1.96430
    A9        1.93175  -0.00000   0.00000  -0.00000  -0.00000   1.93175
   A10        1.82258   0.00000   0.00000   0.00000   0.00000   1.82258
   A11        1.93145   0.00000   0.00000  -0.00000  -0.00000   1.93145
   A12        1.93599   0.00000   0.00000   0.00000   0.00000   1.93599
   A13        1.87298  -0.00000   0.00000  -0.00000  -0.00000   1.87298
   A14        1.93200   0.00000   0.00000   0.00000   0.00000   1.93200
   A15        1.94334   0.00000   0.00000   0.00000   0.00000   1.94334
   A16        1.93317  -0.00000   0.00000  -0.00000  -0.00000   1.93317
   A17        1.88824  -0.00000   0.00000  -0.00000  -0.00000   1.88824
   A18        1.88038   0.00000   0.00000   0.00000   0.00000   1.88038
   A19        1.88459  -0.00000   0.00000  -0.00000  -0.00000   1.88459
   A20        2.10625   0.00000   0.00000  -0.00000  -0.00000   2.10625
   A21        2.07543  -0.00000   0.00000   0.00000   0.00000   2.07543
   A22        2.08027  -0.00000   0.00000  -0.00000  -0.00000   2.08027
    D1       -0.94829   0.00000   0.00000  -0.00000  -0.00000  -0.94829
    D2        1.22310  -0.00000   0.00000  -0.00000  -0.00000   1.22310
    D3       -3.04970  -0.00000   0.00000  -0.00000  -0.00000  -3.04970
    D4       -1.07077  -0.00000   0.00000   0.00000   0.00000  -1.07077
    D5        3.11123  -0.00000   0.00000   0.00000   0.00000   3.11123
    D6        1.01386  -0.00000   0.00000   0.00000   0.00000   1.01386
    D7        3.08868   0.00000   0.00000   0.00000   0.00000   3.08868
    D8        0.98749   0.00000   0.00000   0.00000   0.00000   0.98749
    D9       -1.10987   0.00000   0.00000   0.00000   0.00000  -1.10987
   D10        1.06974   0.00000   0.00000   0.00000   0.00000   1.06974
   D11       -1.03144   0.00000   0.00000   0.00000   0.00000  -1.03144
   D12       -3.12881   0.00000   0.00000   0.00000   0.00000  -3.12881
   D13        2.71909   0.00000   0.00000   0.00002   0.00002   2.71911
   D14       -0.64423   0.00000   0.00000   0.00002   0.00002  -0.64421
   D15       -1.44244   0.00000   0.00000   0.00002   0.00002  -1.44243
   D16        1.47742   0.00000   0.00000   0.00002   0.00002   1.47744
   D17        0.56509   0.00000   0.00000   0.00002   0.00002   0.56511
   D18       -2.79823   0.00000   0.00000   0.00002   0.00002  -2.79822
   D19       -1.01194  -0.00000   0.00000  -0.00000  -0.00000  -1.01194
   D20        2.35199  -0.00000   0.00000  -0.00000  -0.00000   2.35199
   D21        3.09969   0.00000   0.00000  -0.00000  -0.00000   3.09969
   D22        0.18044   0.00000   0.00000   0.00000   0.00000   0.18044
   D23        1.02284  -0.00000   0.00000  -0.00000  -0.00000   1.02284
   D24       -1.89641  -0.00000   0.00000   0.00000  -0.00000  -1.89641
         Item               Value     Threshold  Converged?
 Maximum Force            0.000000     0.000450     YES
 RMS     Force            0.000000     0.000300     YES
 Maximum Displacement     0.000023     0.001800     YES
 RMS     Displacement     0.000011     0.001200     YES
 Predicted change in Energy=-4.602627D-13
 Optimization completed.
    -- Stationary point found.
                           ----------------------------
                           !   Optimized Parameters   !
                           ! (Angstroms and Degrees)  !
 --------------------------                            --------------------------
 ! Name  Definition              Value          Derivative Info.                !
 --------------------------------------------------------------------------------
 ! R1    R(1,3)                  1.4244         -DE/DX =    0.0                 !
 ! R2    R(1,14)                 0.9604         -DE/DX =    0.0                 !
 ! R3    R(2,4)                  1.5268         -DE/DX =    0.0                 !
 ! R4    R(2,5)                  1.488          -DE/DX =    0.0                 !
 ! R5    R(2,6)                  1.0996         -DE/DX =    0.0                 !
 ! R6    R(2,7)                  1.0922         -DE/DX =    0.0                 !
 ! R7    R(3,5)                  1.4874         -DE/DX =    0.0                 !
 ! R8    R(3,11)                 1.0932         -DE/DX =    0.0                 !
 ! R9    R(3,12)                 1.0954         -DE/DX =    0.0                 !
 ! R10   R(4,8)                  1.09           -DE/DX =    0.0                 !
 ! R11   R(4,9)                  1.089          -DE/DX =    0.0                 !
 ! R12   R(4,10)                 1.0906         -DE/DX =    0.0                 !
 ! R13   R(5,13)                 1.0829         -DE/DX =    0.0                 !
 ! A1    A(3,1,14)             107.9518         -DE/DX =    0.0                 !
 ! A2    A(4,2,5)              113.0714         -DE/DX =    0.0                 !
 ! A3    A(4,2,6)              109.0079         -DE/DX =    0.0                 !
 ! A4    A(4,2,7)              110.5107         -DE/DX =    0.0                 !
 ! A5    A(5,2,6)              109.2204         -DE/DX =    0.0                 !
 ! A6    A(5,2,7)              109.1162         -DE/DX =    0.0                 !
 ! A7    A(6,2,7)              105.639          -DE/DX =    0.0                 !
 ! A8    A(1,3,5)              112.5461         -DE/DX =    0.0                 !
 ! A9    A(1,3,11)             110.6812         -DE/DX =    0.0                 !
 ! A10   A(1,3,12)             104.426          -DE/DX =    0.0                 !
 ! A11   A(5,3,11)             110.6641         -DE/DX =    0.0                 !
 ! A12   A(5,3,12)             110.9239         -DE/DX =    0.0                 !
 ! A13   A(11,3,12)            107.314          -DE/DX =    0.0                 !
 ! A14   A(2,4,8)              110.6953         -DE/DX =    0.0                 !
 ! A15   A(2,4,9)              111.345          -DE/DX =    0.0                 !
 ! A16   A(2,4,10)             110.7626         -DE/DX =    0.0                 !
 ! A17   A(8,4,9)              108.1879         -DE/DX =    0.0                 !
 ! A18   A(8,4,10)             107.7381         -DE/DX =    0.0                 !
 ! A19   A(9,4,10)             107.979          -DE/DX =    0.0                 !
 ! A20   A(2,5,3)              120.679          -DE/DX =    0.0                 !
 ! A21   A(2,5,13)             118.9132         -DE/DX =    0.0                 !
 ! A22   A(3,5,13)             119.1909         -DE/DX =    0.0                 !
 ! D1    D(14,1,3,5)           -54.3328         -DE/DX =    0.0                 !
[...]
  Beta virt. eigenvalues --    0.82174   0.83565   0.85925   0.88302   0.90561
  Beta virt. eigenvalues --    0.93005   0.94295   0.97712   0.99314   1.02352
  Beta virt. eigenvalues --    1.03878   1.06557   1.08625   1.09533   1.13699
  Beta virt. eigenvalues --    1.14442   1.17004   1.17490   1.18881   1.20544
  Beta virt. eigenvalues --    1.21537   1.22708   1.24553   1.25331   1.26965
  Beta virt. eigenvalues --    1.28582   1.29498   1.30847   1.36398   1.37345
  Beta virt. eigenvalues --    1.39188   1.42524   1.43556   1.43648   1.45535
  Beta virt. eigenvalues --    1.46407   1.48377   1.49214   1.51417   1.53299
  Beta virt. eigenvalues --    1.53930   1.55799   1.57261   1.60649   1.61624
  Beta virt. eigenvalues --    1.63187   1.67206   1.69900   1.73265   1.76107
  Beta virt. eigenvalues --    1.94150   2.07107   2.10926   2.27324   2.30757
  Beta virt. eigenvalues --    2.41773   2.45927   2.49262   2.53973   2.54334
  Beta virt. eigenvalues --    2.58898   2.60257   2.64568   2.73541   2.78079
  Beta virt. eigenvalues --    2.80953   2.82529   2.85039   2.90662   2.92511
  Beta virt. eigenvalues --    2.93817   2.97243   2.98987   3.00949   3.02456
  Beta virt. eigenvalues --    3.06773   3.10198   3.12560   3.14214   3.15967
  Beta virt. eigenvalues --    3.16362   3.20093   3.22761   3.25903   3.26530
  Beta virt. eigenvalues --    3.30106   3.32781   3.34589   3.35850   3.39278
  Beta virt. eigenvalues --    3.41451   3.43809   3.44203   3.46389   3.51567
  Beta virt. eigenvalues --    3.53971   3.57542   3.58854   3.60833   3.62067
  Beta virt. eigenvalues --    3.64467   3.66853   3.71628   3.72490   3.76205
  Beta virt. eigenvalues --    3.78247   3.82721   3.83091   3.84029   3.90251
  Beta virt. eigenvalues --    3.93791   3.96178   3.99840   4.00632   4.02695
  Beta virt. eigenvalues --    4.05455   4.07183   4.12306   4.12390   4.16927
  Beta virt. eigenvalues --    4.18338   4.19236   4.23010   4.24147   4.25189
  Beta virt. eigenvalues --    4.27001   4.31411   4.32268   4.34736   4.35687
  Beta virt. eigenvalues --    4.40133   4.44816   4.47400   4.48945   4.52334
  Beta virt. eigenvalues --    4.55824   4.57935   4.61310   4.65538   4.70352
  Beta virt. eigenvalues --    4.79139   4.98372   5.07405   5.16954   5.22867
  Beta virt. eigenvalues --    5.24387   5.28773   5.37807   5.42536   5.48786
  Beta virt. eigenvalues --    5.52360   5.58612   5.58845   5.59932   5.61863
  Beta virt. eigenvalues --    5.65645   5.68931   5.82542   5.93904   6.48803
  Beta virt. eigenvalues --    6.98000   7.18943   7.19671   7.22622   7.51874
  Beta virt. eigenvalues --    7.63522  24.18723  24.36258  24.44580  24.54402
  Beta virt. eigenvalues --   50.12760
          Condensed to atoms (all electrons):
               1          2          3          4          5          6
     1  O    8.121135   0.102356   0.149662  -0.024589  -0.144428  -0.001980
     2  C    0.102356   5.698390  -0.020680  -0.027186  -0.253951   0.436788
     3  C    0.149662  -0.020680   5.011234  -0.023080   0.240526  -0.019328
     4  C   -0.024589  -0.027186  -0.023080   5.217185   0.151758  -0.033274
     5  C   -0.144428  -0.253951   0.240526   0.151758   6.000309  -0.038608
     6  H   -0.001980   0.436788  -0.019328  -0.033274  -0.038608   0.547720
     7  H   -0.004115   0.454521   0.026337  -0.032941  -0.086464  -0.039071
     8  H   -0.000097  -0.021072  -0.004990   0.414045  -0.008623   0.005671
     9  H    0.000157  -0.045570   0.000582   0.410055   0.020879  -0.003617
    10  H   -0.000104  -0.010140   0.005503   0.408629  -0.031484  -0.008470
    11  H   -0.033801   0.039499   0.413740  -0.002060  -0.062017  -0.000373
    12  H   -0.068780  -0.028273   0.448713  -0.002263  -0.023519   0.002038
    13  H    0.006079  -0.000253  -0.024986  -0.015505   0.385304  -0.001219
    14  H    0.240277  -0.007256  -0.002816  -0.005214   0.005706  -0.000121
               7          8          9         10         11         12
     1  O   -0.004115  -0.000097   0.000157  -0.000104  -0.033801  -0.068780
     2  C    0.454521  -0.021072  -0.045570  -0.010140   0.039499  -0.028273
     3  C    0.026337  -0.004990   0.000582   0.005503   0.413740   0.448713
     4  C   -0.032941   0.414045   0.410055   0.408629  -0.002060  -0.002263
     5  C   -0.086464  -0.008623   0.020879  -0.031484  -0.062017  -0.023519
     6  H   -0.039071   0.005671  -0.003617  -0.008470  -0.000373   0.002038
     7  H    0.509592  -0.007225  -0.005251   0.006292  -0.000245  -0.001923
     8  H   -0.007225   0.546023  -0.023748  -0.036852  -0.000025  -0.000031
     9  H   -0.005251  -0.023748   0.537582  -0.026341   0.000016   0.000009
    10  H    0.006292  -0.036852  -0.026341   0.555777  -0.000043   0.000003
    11  H   -0.000245  -0.000025   0.000016  -0.000043   0.556441  -0.034635
    12  H   -0.001923  -0.000031   0.000009   0.000003  -0.034635   0.553961
    13  H    0.003201  -0.001088  -0.000022   0.002490  -0.005129   0.003143
    14  H   -0.001258  -0.000183   0.000008   0.000019  -0.005779   0.008981
              13         14
     1  O    0.006079   0.240277
     2  C   -0.000253  -0.007256
     3  C   -0.024986  -0.002816
     4  C   -0.015505  -0.005214
     5  C    0.385304   0.005706
     6  H   -0.001219  -0.000121
     7  H    0.003201  -0.001258
     8  H   -0.001088  -0.000183
     9  H   -0.000022   0.000008
    10  H    0.002490   0.000019
    11  H   -0.005129  -0.005779
    12  H    0.003143   0.008981
    13  H    0.459815   0.000483
    14  H    0.000483   0.522079
          Atomic-Atomic Spin Densities.
               1          2          3          4          5          6
     1  O    0.067284   0.013317   0.006770   0.001986  -0.059443  -0.001898
     2  C    0.013317   0.009963   0.034518   0.011984  -0.185840   0.026455
     3  C    0.006770   0.034518  -0.047710  -0.007367  -0.064709  -0.004701
     4  C    0.001986   0.011984  -0.007367   0.026356  -0.000843  -0.012223
     5  C   -0.059443  -0.185840  -0.064709  -0.000843   1.436118  -0.023313
     6  H   -0.001898   0.026455  -0.004701  -0.012223  -0.023313   0.069486
     7  H    0.004517   0.012027   0.004950   0.008874  -0.031211  -0.012220
     8  H    0.000034   0.005835   0.001797   0.004558  -0.010959   0.000330
     9  H   -0.000037  -0.002523  -0.000935  -0.004832   0.007658   0.001166
    10  H    0.000038   0.002108   0.000416  -0.002147  -0.001422  -0.001648
    11  H    0.004269   0.001419   0.005162   0.001112  -0.012956  -0.000274
    12  H   -0.014684   0.001227   0.014972  -0.002035  -0.014633   0.003544
    13  H    0.000659   0.018127   0.010994   0.001261  -0.032009  -0.000563
    14  H    0.001523   0.002669   0.007167   0.001186  -0.006407   0.000142
               7          8          9         10         11         12
     1  O    0.004517   0.000034  -0.000037   0.000038   0.004269  -0.014684
     2  C    0.012027   0.005835  -0.002523   0.002108   0.001419   0.001227
     3  C    0.004950   0.001797  -0.000935   0.000416   0.005162   0.014972
     4  C    0.008874   0.004558  -0.004832  -0.002147   0.001112  -0.002035
     5  C   -0.031211  -0.010959   0.007658  -0.001422  -0.012956  -0.014633
     6  H   -0.012220   0.000330   0.001166  -0.001648  -0.000274   0.003544
     7  H    0.028628  -0.000387  -0.000781   0.000415   0.000228  -0.002057
     8  H   -0.000387  -0.009207   0.001319  -0.000517  -0.000015   0.000023
     9  H   -0.000781   0.001319  -0.000892   0.000099  -0.000001   0.000016
    10  H    0.000415  -0.000517   0.000099   0.001280   0.000008  -0.000038
    11  H    0.000228  -0.000015  -0.000001   0.000008   0.009841  -0.004154
    12  H   -0.002057   0.000023   0.000016  -0.000038  -0.004154   0.053285
    13  H    0.000151   0.000272  -0.000042  -0.000067   0.000500  -0.000603
    14  H   -0.000240   0.000038   0.000002  -0.000011  -0.000380   0.000525
              13         14
     1  O    0.000659   0.001523
     2  C    0.018127   0.002669
     3  C    0.010994   0.007167
     4  C    0.001261   0.001186
     5  C   -0.032009  -0.006407
     6  H   -0.000563   0.000142
     7  H    0.000151  -0.000240
     8  H    0.000272   0.000038
     9  H   -0.000042   0.000002
    10  H   -0.000067  -0.000011
    11  H    0.000500  -0.000380
    12  H   -0.000603   0.000525
    13  H   -0.052075   0.000091
    14  H    0.000091  -0.007025
 Mulliken charges and spin densities:
               1          2
     1  O   -0.341773   0.024334
     2  C   -0.317174  -0.048713
     3  C   -0.200418  -0.038675
     4  C   -0.435559   0.027870
     5  C   -0.155389   1.000030
     6  H    0.153842   0.044282
     7  H    0.178549   0.012895
     8  H    0.138192  -0.006877
     9  H    0.135262   0.000218
    10  H    0.134720  -0.001486
    11  H    0.134412   0.004758
    12  H    0.142575   0.035387
    13  H    0.187688  -0.053303
    14  H    0.245074  -0.000720
 Sum of Mulliken charges =  -0.00000   1.00000
 Mulliken charges and spin densities with hydrogens summed into heavy atoms:
               1          2
     1  O   -0.096699   0.023614
     2  C    0.015217   0.008464
     3  C    0.076568   0.001470
     4  C   -0.027385   0.019725
     5  C    0.032299   0.946727
 Electronic spatial extent (au):  <R**2>=            583.1403
 Charge=             -0.0000 electrons
 Dipole moment (field-independent basis, Debye):
    X=              1.0658    Y=              0.9134    Z=             -0.8043  Tot=              1.6178
 Quadrupole moment (field-independent basis, Debye-Ang):
   XX=            -36.1793   YY=            -32.7659   ZZ=            -31.4348
   XY=             -2.2867   XZ=              2.1912   YZ=              1.4657
 Traceless Quadrupole moment (field-independent basis, Debye-Ang):
   XX=             -2.7193   YY=              0.6941   ZZ=              2.0252
   XY=             -2.2867   XZ=              2.1912   YZ=              1.4657
 Octapole moment (field-independent basis, Debye-Ang**2):
  XXX=              1.8070  YYY=             -3.8008  ZZZ=             -0.4380  XYY=             -1.5845
  XXY=              4.7396  XXZ=             -2.3527  XZZ=             -5.9375  YZZ=             -2.4588
  YYZ=             -3.4886  XYZ=             -3.4139
 Hexadecapole moment (field-independent basis, Debye-Ang**3):
 XXXX=           -607.3035 YYYY=           -122.0734 ZZZZ=            -81.9866 XXXY=             -9.5764
 XXXZ=             11.0826 YYYX=              6.9933 YYYZ=              1.3337 ZZZX=              4.2615
 ZZZY=              5.1455 XXYY=           -116.3624 XXZZ=           -103.9479 YYZZ=            -30.3458
 XXYZ=              3.4217 YYXZ=              4.7611 ZZXY=              3.9742
 N-N= 1.786117180549D+02 E-N=-9.003107330151D+02  KE= 2.320714541250D+02
                          Isotropic Fermi Contact Couplings
        Atom                 a.u.       MegaHertz       Gauss      10(-4) cm-1
     1  O(17)              0.04240     -25.70447      -9.17199      -8.57409
     2  C(13)             -0.02873     -32.29464     -11.52353     -10.77233
     3  C(13)             -0.03487     -39.20504     -13.98933     -13.07739
     4  C(13)              0.01804      20.28409       7.23787       6.76605
     5  C(13)              0.16807     188.94374      67.41983      63.02485
     6  H(1)               0.02603     116.35936      41.51991      38.81331
     7  H(1)               0.00681      30.42065      10.85484      10.14724
     8  H(1)              -0.00038      -1.70292      -0.60764      -0.56803
     9  H(1)               0.00008       0.35648       0.12720       0.11891
    10  H(1)              -0.00024      -1.08209      -0.38611      -0.36094
    11  H(1)               0.00129       5.77355       2.06015       1.92585
    12  H(1)               0.01840      82.23163      29.34229      27.42952
    13  H(1)              -0.01541     -68.86506     -24.57276     -22.97091
    14  H(1)              -0.00092      -4.10107      -1.46336      -1.36797
 --------------------------------------------------------
       Center         ----  Spin Dipole Couplings  ----
                      3XX-RR        3YY-RR        3ZZ-RR
 --------------------------------------------------------
     1   Atom        0.046048      0.029660     -0.075708
     2   Atom       -0.002440     -0.002853      0.005292
     3   Atom        0.007203     -0.005442     -0.001762
     4   Atom        0.021988     -0.011552     -0.010435
     5   Atom       -0.527414      0.127955      0.399458
     6   Atom        0.000595     -0.007443      0.006848
     7   Atom       -0.006544      0.006876     -0.000332
     8   Atom        0.005881     -0.002623     -0.003258
     9   Atom        0.004656     -0.001865     -0.002791
    10   Atom        0.010335     -0.005271     -0.005063
    11   Atom        0.017724     -0.008659     -0.009066
    12   Atom        0.008631     -0.008036     -0.000595
    13   Atom       -0.056606      0.041691      0.014915
    14   Atom       -0.000039      0.001075     -0.001036
 --------------------------------------------------------
                        XY            XZ            YZ
 --------------------------------------------------------
     1   Atom        0.126707     -0.049182     -0.032255
     2   Atom       -0.002922      0.010489      0.005719
     3   Atom        0.006580     -0.010845     -0.007766
     4   Atom       -0.004370     -0.002260      0.000182
     5   Atom        0.035019      0.037928      0.773408
     6   Atom       -0.004400      0.012020     -0.002466
     7   Atom       -0.006869      0.004092     -0.011363
     8   Atom       -0.007803     -0.003852      0.003301
     9   Atom       -0.003817      0.001413     -0.000451
    10   Atom        0.001358     -0.001582     -0.000068
    11   Atom       -0.005443      0.003179      0.001381
    12   Atom        0.001962     -0.011415      0.002412
    13   Atom        0.034016     -0.023680     -0.028574
    14   Atom        0.012979      0.000929      0.008653
 --------------------------------------------------------


 ---------------------------------------------------------------------------------
              Anisotropic Spin Dipole Couplings in Principal Axis System
 ---------------------------------------------------------------------------------

       Atom             a.u.   MegaHertz   Gauss  10(-4) cm-1        Axes

              Baa    -0.0989     7.155     2.553     2.387  0.5962 -0.4152  0.6872
     1 O(17)  Bbb    -0.0792     5.730     2.045     1.911 -0.3613  0.6255  0.6915
              Bcc     0.1781   -12.885    -4.598    -4.298  0.7169  0.6605 -0.2229
 
              Baa    -0.0130    -1.748    -0.624    -0.583  0.6755  0.4991 -0.5427
     2 C(13)  Bbb    -0.0002    -0.027    -0.010    -0.009 -0.5239  0.8428  0.1230
              Bcc     0.0132     1.775     0.633     0.592  0.5188  0.2012  0.8309
 
              Baa    -0.0118    -1.590    -0.567    -0.530  0.1649  0.6878  0.7069
     3 C(13)  Bbb    -0.0067    -0.893    -0.319    -0.298  0.6452 -0.6173  0.4501
              Bcc     0.0185     2.483     0.886     0.828  0.7460  0.3819 -0.5456
 
              Baa    -0.0121    -1.626    -0.580    -0.542  0.1313  0.9889  0.0696
     4 C(13)  Bbb    -0.0106    -1.420    -0.507    -0.474  0.0586 -0.0778  0.9952
              Bcc     0.0227     3.046     1.087     1.016  0.9896 -0.1266 -0.0682
 
              Baa    -0.5298   -71.095   -25.369   -23.715  0.9592 -0.2353  0.1567
     5 C(13)  Bbb    -0.5208   -69.888   -24.938   -23.312  0.2808  0.7290 -0.6242
              Bcc     1.0506   140.984    50.306    47.027  0.0327  0.6428  0.7654
 
              Baa    -0.0105    -5.581    -1.992    -1.862  0.6566  0.6618 -0.3617
     6 H(1)   Bbb    -0.0066    -3.504    -1.250    -1.169 -0.4406  0.7258  0.5282
              Bcc     0.0170     9.085     3.242     3.030  0.6121 -0.1875  0.7682
 
              Baa    -0.0097    -5.153    -1.839    -1.719  0.7757  0.5431  0.3215
     7 H(1)   Bbb    -0.0081    -4.343    -1.550    -1.449 -0.5492  0.3298  0.7678
              Bcc     0.0178     9.496     3.388     3.168 -0.3110  0.7721 -0.5541
 
              Baa    -0.0075    -4.013    -1.432    -1.339  0.4183  0.8612 -0.2888
     8 H(1)   Bbb    -0.0046    -2.465    -0.880    -0.822  0.4101  0.1046  0.9060
              Bcc     0.0121     6.478     2.312     2.161  0.8104 -0.4975 -0.3094
 
              Baa    -0.0037    -1.960    -0.699    -0.654  0.4384  0.8596 -0.2625
     9 H(1)   Bbb    -0.0030    -1.585    -0.566    -0.529 -0.0246  0.3034  0.9525
              Bcc     0.0066     3.546     1.265     1.183  0.8984 -0.4112  0.1542
 
              Baa    -0.0054    -2.888    -1.031    -0.963 -0.1144  0.9349 -0.3359
    10 H(1)   Bbb    -0.0052    -2.774    -0.990    -0.925  0.0652  0.3445  0.9365
              Bcc     0.0106     5.662     2.020     1.889  0.9913  0.0852 -0.1004
 
              Baa    -0.0115    -6.146    -2.193    -2.050  0.2057  0.7144 -0.6688
    11 H(1)   Bbb    -0.0076    -4.042    -1.442    -1.348  0.0525  0.6744  0.7365
              Bcc     0.0191    10.187     3.635     3.398  0.9772 -0.1866  0.1012
 
              Baa    -0.0113    -6.011    -2.145    -2.005 -0.4092  0.6924 -0.5943
    12 H(1)   Bbb    -0.0051    -2.704    -0.965    -0.902  0.3794  0.7214  0.5793
              Bcc     0.0163     8.714     3.109     2.907  0.8298  0.0116 -0.5579
 
              Baa    -0.0699   -37.279   -13.302   -12.435  0.9523 -0.2433  0.1840
    13 H(1)   Bbb    -0.0032    -1.715    -0.612    -0.572 -0.0215  0.5483  0.8360
              Bcc     0.0731    38.995    13.914    13.007  0.3042  0.8001 -0.5169
 
              Baa    -0.0148    -7.901    -2.819    -2.636 -0.5905  0.7007 -0.4004
    14 H(1)   Bbb    -0.0016    -0.846    -0.302    -0.282 -0.5556  0.0067  0.8314
              Bcc     0.0164     8.748     3.121     2.918  0.5852  0.7134  0.3854
 

 ---------------------------------------------------------------------------------

 No NMR shielding tensors so no spin-rotation constants.
 Leave Link  601 at Fri Mar 29 08:55:41 2019, MaxMem=   671088640 cpu:               7.4 elap:               0.4
 (Enter /shared/centos7/gaussian/g16/l9999.exe)
 1\1\GINC-C0257\Scan\UM062X\6-311+G(2df,2p)\C4H9O1(2)\UNDERKOFFLER.C\29
 -Mar-2019\0\\#p m062x/6-311+g(2df,2p) Opt=(CalcFC,ModRedun)\\Gaussian 
 Input Prepared from Scan Object\\0,2\O,1.8230332799,1.1016732134,0.382
 4918325\C,-0.9091451703,-0.2704913482,0.5708777919\C,1.4904800968,-0.0
 619646158,-0.3687015374\C,-2.3280587873,0.1706255353,0.22005508\C,0.02
 5511928,-0.2017613242,-0.5848652311\H,-0.9385648648,-1.3015716679,0.95
 18516259\H,-0.5114342371,0.3343203097,1.3887764727\H,-2.3379407735,1.2
 091186798,-0.1108252885\H,-2.9944070122,0.0804378635,1.0766705103\H,-2
 .7339256976,-0.4393419768,-0.5878184587\H,2.0238839027,-0.0710711198,-
 1.3228453265\H,1.8786313878,-0.8932584269,0.2298332889\H,-0.3405521877
 ,-0.4615078088,-1.5704021459\H,1.4319181353,1.8601986866,-0.058049614\
 \Version=EM64L-G16RevA.03\State=2-A\HF=-232.9673876,-232.9667512,-232.
 9644932,-232.9651907,-232.9656511,-232.965915,-232.9669385,-232.966507
 8,-232.9653857,-232.9648049,-232.9661954,-232.9670096,-232.9673876\S2=
 0.755231,0.754965,0.755194,0.755368,0.755371,0.75544,0.755109,0.755162
 ,0.755253,0.755108,0.755416,0.755546,0.75523\S2-1=0.,0.,0.,0.,0.,0.,0.
 ,0.,0.,0.,0.,0.,0.\S2A=0.750023,0.75002,0.750022,0.750023,0.750023,0.7
 50024,0.750022,0.750022,0.750022,0.750021,0.750024,0.750025,0.750023\R
 MSD=8.052e-09,3.778e-09,9.336e-09,3.844e-09,4.519e-09,8.006e-09,9.277e
 -09,2.267e-09,8.485e-09,4.667e-09,7.490e-09,9.046e-09,2.820e-09\PG=C01
  [X(C4H9O1)]\\@


 ON A CLEAR DISK YOU CAN SEEK FOREVER.
 Job cpu time:       1 days  3 hours  2 minutes 48.7 seconds.
 Elapsed time:       0 days  1 hours 21 minutes 46.2 seconds.
 File lengths (MBytes):  RWF=   1376 Int=      0 D2E=      0 Chk=     32 Scr=     32
 Normal termination of Gaussian 16 at Fri Mar 29 08:55:41 2019.
