 Entering Gaussian System, Link 0=g16
 Input=GIXGVIVAHMJKNP-UHFFFAOYSA-N_GeoFreq_c4_a1.com
 Output=GIXGVIVAHMJKNP-UHFFFAOYSA-N_GeoFreq_c4_a1.log
 Initial command:
 /shared/centos7/gaussian/g16/l1.exe "/scratch/underkoffler.c/gaussian_scratch/Gau-20893.inp" -scrdir="/scratch/underkoffler.c/gaussian_scratch/"
 Entering Link 1 = /shared/centos7/gaussian/g16/l1.exe PID=     20894.
  
 Copyright (c) 1988,1990,1992,1993,1995,1998,2003,2009,2016,
            Gaussian, Inc.  All Rights Reserved.
  
 This is part of the Gaussian(R) 16 program.  It is based on
 the Gaussian(R) 09 system (copyright 2009, Gaussian, Inc.),
 the Gaussian(R) 03 system (copyright 2003, Gaussian, Inc.),
 the Gaussian(R) 98 system (copyright 1998, Gaussian, Inc.),
 the Gaussian(R) 94 system (copyright 1995, Gaussian, Inc.),
 the Gaussian 92(TM) system (copyright 1992, Gaussian, Inc.),
 the Gaussian 90(TM) system (copyright 1990, Gaussian, Inc.),
 the Gaussian 88(TM) system (copyright 1988, Gaussian, Inc.),
 the Gaussian 86(TM) system (copyright 1986, Carnegie Mellon
 University), and the Gaussian 82(TM) system (copyright 1983,
 Carnegie Mellon University). Gaussian is a federally registered
 trademark of Gaussian, Inc.
  
 This software contains proprietary and confidential information,
 including trade secrets, belonging to Gaussian, Inc.
  
 This software is provided under written license and may be
 used, copied, transmitted, or stored only in accord with that
 written license.
  
 The following legend is applicable only to US Government
 contracts under FAR:
  
                    RESTRICTED RIGHTS LEGEND
  
 Use, reproduction and disclosure by the US Government is
 subject to restrictions as set forth in subparagraphs (a)
 and (c) of the Commercial Computer Software - Restricted
 Rights clause in FAR 52.227-19.
  
 Gaussian, Inc.
 340 Quinnipiac St., Bldg. 40, Wallingford CT 06492
  
  
 ---------------------------------------------------------------
 Warning -- This program may not be used in any manner that
 competes with the business of Gaussian, Inc. or will provide
 assistance to any competitor of Gaussian, Inc.  The licensee
 of this program is prohibited from giving any competitor of
 Gaussian, Inc. access to this program.  By using this program,
 the user acknowledges that Gaussian, Inc. is engaged in the
 business of creating and licensing software in the field of
 computational chemistry and represents and warrants to the
 licensee that it is not a competitor of Gaussian, Inc. and that
 it will not use this program in any manner prohibited above.
 ---------------------------------------------------------------
  

 Cite this work as:
 Gaussian 16, Revision A.03,
 M. J. Frisch, G. W. Trucks, H. B. Schlegel, G. E. Scuseria, 
 M. A. Robb, J. R. Cheeseman, G. Scalmani, V. Barone, 
 G. A. Petersson, H. Nakatsuji, X. Li, M. Caricato, A. V. Marenich, 
 J. Bloino, B. G. Janesko, R. Gomperts, B. Mennucci, H. P. Hratchian, 
 J. V. Ortiz, A. F. Izmaylov, J. L. Sonnenberg, D. Williams-Young, 
 F. Ding, F. Lipparini, F. Egidi, J. Goings, B. Peng, A. Petrone, 
 T. Henderson, D. Ranasinghe, V. G. Zakrzewski, J. Gao, N. Rega, 
 G. Zheng, W. Liang, M. Hada, M. Ehara, K. Toyota, R. Fukuda, 
 J. Hasegawa, M. Ishida, T. Nakajima, Y. Honda, O. Kitao, H. Nakai, 
 T. Vreven, K. Throssell, J. A. Montgomery, Jr., J. E. Peralta, 
 F. Ogliaro, M. J. Bearpark, J. J. Heyd, E. N. Brothers, K. N. Kudin, 
 V. N. Staroverov, T. A. Keith, R. Kobayashi, J. Normand, 
 K. Raghavachari, A. P. Rendell, J. C. Burant, S. S. Iyengar, 
 J. Tomasi, M. Cossi, J. M. Millam, M. Klene, C. Adamo, R. Cammi, 
 J. W. Ochterski, R. L. Martin, K. Morokuma, O. Farkas, 
 J. B. Foresman, and D. J. Fox, Gaussian, Inc., Wallingford CT, 2016.
 
 ******************************************
 Gaussian 16:  EM64L-G16RevA.03 25-Dec-2016
                 9-Apr-2019 
 ******************************************
 %nprocshared=20
 Will use up to   20 processors via shared memory.
 %mem=5GB
 ----------------------------------------------------------------------
 #p m062x/6-311+g(2df,2p) opt=(calcfc,verytight,gdiis,maxcycles=900) fr
 eq iop(7/33=1,2/16=3)
 ----------------------------------------------------------------------

 Warning!  Use of Opt=GDIIS is deprecated since it is seldom a good choice.

 1/6=900,7=1,10=4,18=20,19=11,26=3,38=1/1,3;
 2/9=110,12=2,16=3,17=6,18=5,40=1/2;
 3/5=4,6=6,7=214,11=2,25=1,30=1,71=2,74=-55,140=1/1,2,3;
 4//1;
 5/5=2,38=5/2;
 8/6=4,10=90,11=11/1;
 11/6=1,8=1,9=11,15=111,16=1/1,2,10;
 10/6=1,13=1/2;
 6/7=2,8=2,9=2,10=2,28=1/1;
 7/10=1,18=20,25=1,33=1/1,2,3,16;
 1/6=900,7=1,10=4,18=20,19=11,26=3/3(2);
 2/9=110,16=3/2;
 99//99;
 2/9=110,16=3/2;
 3/5=4,6=6,7=214,11=2,25=1,30=1,71=1,74=-55/1,2,3;
 4/5=5,16=3,69=1/1;
 5/5=2,38=5/2;
 7/33=1/1,2,3,16;
 1/6=900,7=1,18=20,19=11,26=3/3(-5);
 2/9=110,16=3/2;
 6/7=2,8=2,9=2,10=2,19=2,28=1/1;
 99/9=1/99;
 Leave Link    1 at Tue Apr  9 00:59:04 2019, MaxMem=   671088640 cpu:              26.6 elap:               1.4
 (Enter /shared/centos7/gaussian/g16/l101.exe)
 ------------------------------
 Gaussian input prepared by ASE
 ------------------------------
 Symbolic Z-matrix:
 Charge =  0 Multiplicity = 2
 O                    -0.88101  -0.86332  -12.50217 
 C                    -2.10006   2.70008  -11.7739 
 C                    -0.81314   0.5384   -12.52583 
 C                    -3.5389    3.17179  -11.699 
 C                    -1.94894   1.20864  -11.81442 
 H                    -1.56186   3.10433  -10.90308 
 H                    -1.60799   3.1523   -12.67219 
 H                    -4.10686   2.85197  -12.58558 
 H                    -4.04614   2.75927  -10.7918 
 H                    -3.57622   4.28628  -11.64068 
 H                     0.16757   0.81545  -12.0616 
 H                    -0.75039   0.8946   -13.56018 
 H                    -2.55553   0.61065  -11.12211 
 H                    -1.79611  -1.11093  -12.74908 
 
 ITRead=  0  0  0  0  0  0  0  0  0  0  0  0  0  0
 MicOpt= -1 -1 -1 -1 -1 -1 -1 -1 -1 -1 -1 -1 -1 -1
 NAtoms=     14 NQM=       14 NQMF=       0 NMMI=      0 NMMIF=      0
                NMic=       0 NMicF=      0.
                    Isotopes and Nuclear Properties:
 (Nuclear quadrupole moments (NQMom) in fm**2, nuclear magnetic moments (NMagM)
  in nuclear magnetons)

  Atom         1           2           3           4           5           6           7           8           9          10
 IAtWgt=          16          12          12          12          12           1           1           1           1           1
 AtmWgt=  15.9949146  12.0000000  12.0000000  12.0000000  12.0000000   1.0078250   1.0078250   1.0078250   1.0078250   1.0078250
 NucSpn=           0           0           0           0           0           1           1           1           1           1
 AtZEff=  -0.0000000  -0.0000000  -0.0000000  -0.0000000  -0.0000000  -0.0000000  -0.0000000  -0.0000000  -0.0000000  -0.0000000
 NQMom=    0.0000000   0.0000000   0.0000000   0.0000000   0.0000000   0.0000000   0.0000000   0.0000000   0.0000000   0.0000000
 NMagM=    0.0000000   0.0000000   0.0000000   0.0000000   0.0000000   2.7928460   2.7928460   2.7928460   2.7928460   2.7928460
 AtZNuc=   8.0000000   6.0000000   6.0000000   6.0000000   6.0000000   1.0000000   1.0000000   1.0000000   1.0000000   1.0000000

  Atom        11          12          13          14
 IAtWgt=           1           1           1           1
 AtmWgt=   1.0078250   1.0078250   1.0078250   1.0078250
 NucSpn=           1           1           1           1
 AtZEff=  -0.0000000  -0.0000000  -0.0000000  -0.0000000
 NQMom=    0.0000000   0.0000000   0.0000000   0.0000000
 NMagM=    2.7928460   2.7928460   2.7928460   2.7928460
 AtZNuc=   1.0000000   1.0000000   1.0000000   1.0000000
 Leave Link  101 at Tue Apr  9 00:59:04 2019, MaxMem=   671088640 cpu:               4.9 elap:               0.3
 (Enter /shared/centos7/gaussian/g16/l103.exe)

 GradGradGradGradGradGradGradGradGradGradGradGradGradGradGradGradGradGrad
 Berny optimization.
 Initialization pass.
                           ----------------------------
                           !    Initial Parameters    !
                           ! (Angstroms and Degrees)  !
 --------------------------                            --------------------------
 ! Name  Definition              Value          Derivative Info.                !
 --------------------------------------------------------------------------------
 ! R1    R(1,3)                  1.4036         calculate D2E/DX2 analytically  !
 ! R2    R(1,14)                 0.9796         calculate D2E/DX2 analytically  !
 ! R3    R(2,4)                  1.516          calculate D2E/DX2 analytically  !
 ! R4    R(2,5)                  1.4996         calculate D2E/DX2 analytically  !
 ! R5    R(2,6)                  1.1006         calculate D2E/DX2 analytically  !
 ! R6    R(2,7)                  1.1196         calculate D2E/DX2 analytically  !
 ! R7    R(3,5)                  1.4985         calculate D2E/DX2 analytically  !
 ! R8    R(3,11)                 1.1198         calculate D2E/DX2 analytically  !
 ! R9    R(3,12)                 1.0958         calculate D2E/DX2 analytically  !
 ! R10   R(4,8)                  1.1004         calculate D2E/DX2 analytically  !
 ! R11   R(4,9)                  1.1182         calculate D2E/DX2 analytically  !
 ! R12   R(4,10)                 1.1166         calculate D2E/DX2 analytically  !
 ! R13   R(5,13)                 1.0977         calculate D2E/DX2 analytically  !
 ! A1    A(3,1,14)             107.0582         calculate D2E/DX2 analytically  !
 ! A2    A(4,2,5)              113.9803         calculate D2E/DX2 analytically  !
 ! A3    A(4,2,6)              108.103          calculate D2E/DX2 analytically  !
 ! A4    A(4,2,7)              109.3344         calculate D2E/DX2 analytically  !
 ! A5    A(5,2,6)              109.7174         calculate D2E/DX2 analytically  !
 ! A6    A(5,2,7)              109.6167         calculate D2E/DX2 analytically  !
 ! A7    A(6,2,7)              105.7554         calculate D2E/DX2 analytically  !
 ! A8    A(1,3,5)              113.7065         calculate D2E/DX2 analytically  !
 ! A9    A(1,3,11)             106.4052         calculate D2E/DX2 analytically  !
 ! A10   A(1,3,12)             110.0791         calculate D2E/DX2 analytically  !
 ! A11   A(5,3,11)             110.8753         calculate D2E/DX2 analytically  !
 ! A12   A(5,3,12)             110.2533         calculate D2E/DX2 analytically  !
 ! A13   A(11,3,12)            105.1137         calculate D2E/DX2 analytically  !
 ! A14   A(2,4,8)              111.0773         calculate D2E/DX2 analytically  !
 ! A15   A(2,4,9)              110.8427         calculate D2E/DX2 analytically  !
 ! A16   A(2,4,10)             110.1723         calculate D2E/DX2 analytically  !
 ! A17   A(8,4,9)              108.1977         calculate D2E/DX2 analytically  !
 ! A18   A(8,4,10)             108.3551         calculate D2E/DX2 analytically  !
 ! A19   A(9,4,10)             108.0983         calculate D2E/DX2 analytically  !
 ! A20   A(2,5,3)              122.2802         calculate D2E/DX2 analytically  !
 ! A21   A(2,5,13)             117.9752         calculate D2E/DX2 analytically  !
 ! A22   A(3,5,13)             118.3359         calculate D2E/DX2 analytically  !
 ! D1    D(14,1,3,5)            47.3311         calculate D2E/DX2 analytically  !
 ! D2    D(14,1,3,11)          169.6729         calculate D2E/DX2 analytically  !
 ! D3    D(14,1,3,12)          -76.9358         calculate D2E/DX2 analytically  !
 ! D4    D(5,2,4,8)            -61.6407         calculate D2E/DX2 analytically  !
 ! D5    D(5,2,4,9)             58.6812         calculate D2E/DX2 analytically  !
 ! D6    D(5,2,4,10)           178.2844         calculate D2E/DX2 analytically  !
 ! D7    D(6,2,4,8)            176.0902         calculate D2E/DX2 analytically  !
 ! D8    D(6,2,4,9)            -63.588          calculate D2E/DX2 analytically  !
 ! D9    D(6,2,4,10)            56.0152         calculate D2E/DX2 analytically  !
 ! D10   D(7,2,4,8)             61.4166         calculate D2E/DX2 analytically  !
 ! D11   D(7,2,4,9)           -178.2616         calculate D2E/DX2 analytically  !
 ! D12   D(7,2,4,10)           -58.6584         calculate D2E/DX2 analytically  !
 ! D13   D(4,2,5,3)            149.4077         calculate D2E/DX2 analytically  !
 ! D14   D(4,2,5,13)           -44.3736         calculate D2E/DX2 analytically  !
 ! D15   D(6,2,5,3)            -89.2143         calculate D2E/DX2 analytically  !
 ! D16   D(6,2,5,13)            77.0044         calculate D2E/DX2 analytically  !
 ! D17   D(7,2,5,3)             26.5044         calculate D2E/DX2 analytically  !
 ! D18   D(7,2,5,13)          -167.277          calculate D2E/DX2 analytically  !
 ! D19   D(1,3,5,2)           -177.214          calculate D2E/DX2 analytically  !
 ! D20   D(1,3,5,13)            16.6148         calculate D2E/DX2 analytically  !
 ! D21   D(11,3,5,2)            62.9454         calculate D2E/DX2 analytically  !
 ! D22   D(11,3,5,13)         -103.2258         calculate D2E/DX2 analytically  !
 ! D23   D(12,3,5,2)           -53.0412         calculate D2E/DX2 analytically  !
 ! D24   D(12,3,5,13)          140.7876         calculate D2E/DX2 analytically  !
 --------------------------------------------------------------------------------
 Trust Radius=3.00D-01 FncErr=1.00D-07 GrdErr=1.00D-06 EigMax=2.50D+02 EigMin=1.00D-04
 Number of steps in this run=    100 maximum allowed number of steps=    100.
 GradGradGradGradGradGradGradGradGradGradGradGradGradGradGradGradGradGrad

 Leave Link  103 at Tue Apr  9 00:59:04 2019, MaxMem=   671088640 cpu:               0.1 elap:               0.0
 (Enter /shared/centos7/gaussian/g16/l202.exe)
                          Input orientation:                          
 ---------------------------------------------------------------------
 Center     Atomic      Atomic             Coordinates (Angstroms)
 Number     Number       Type             X           Y           Z
 ---------------------------------------------------------------------
      1          8           0       -0.881006   -0.863320  -12.502172
      2          6           0       -2.100065    2.700082  -11.773897
      3          6           0       -0.813144    0.538404  -12.525829
      4          6           0       -3.538899    3.171785  -11.699003
      5          6           0       -1.948941    1.208644  -11.814417
      6          1           0       -1.561863    3.104330  -10.903078
      7          1           0       -1.607993    3.152300  -12.672191
      8          1           0       -4.106863    2.851971  -12.585584
      9          1           0       -4.046135    2.759273  -10.791802
     10          1           0       -3.576220    4.286280  -11.640679
     11          1           0        0.167569    0.815453  -12.061602
     12          1           0       -0.750387    0.894597  -13.560181
     13          1           0       -2.555534    0.610647  -11.122110
     14          1           0       -1.796110   -1.110933  -12.749083
 ---------------------------------------------------------------------
                    Distance matrix (angstroms):
                    1          2          3          4          5
     1  O    0.000000
     2  C    3.835925   0.000000
     3  C    1.403564   2.625722   0.000000
     4  C    4.898117   1.516033   3.879185   0.000000
     5  C    2.430335   1.499622   1.498453   2.528875   0.000000
     6  H    4.331618   1.100638   3.126960   2.132303   2.138689
     7  H    4.084436   1.119629   2.735993   2.162377   2.151701
     8  H    4.921026   2.170056   4.025512   1.100405   2.819902
     9  H    5.105545   2.180643   4.288513   1.118243   2.801502
    10  H    5.875775   2.170900   4.739689   1.116644   3.485694
    11  H    2.027779   2.962560   1.119849   4.407004   2.166867
    12  H    2.055897   2.876146   1.095763   4.052823   2.140759
    13  H    2.623204   2.235624   2.238653   2.803433   1.097654
    14  H    0.979639   3.945530   1.932970   4.741482   2.505473
                    6          7          8          9         10
     6  H    0.000000
     7  H    1.770365   0.000000
     8  H    3.061296   2.518343   0.000000
     9  H    2.510589   3.104009   1.797201   0.000000
    10  H    2.449223   2.494764   1.797685   1.809188   0.000000
    11  H    3.093876   2.997714   4.763688   4.811043   5.122477
    12  H    3.549875   2.573176   4.005881   4.690724   4.813869
    13  H    2.693290   3.124193   3.093850   2.635828   3.849804
    14  H    4.607716   4.268073   4.590306   4.885904   5.790272
                   11         12         13         14
    11  H    0.000000
    12  H    1.759161   0.000000
    13  H    2.887885   3.046863   0.000000
    14  H    2.835423   2.402824   2.487490   0.000000
 Stoichiometry    C4H9O(2)
 Framework group  C1[X(C4H9O)]
 Deg. of freedom    36
 Full point group                 C1      NOp   1
 Largest Abelian subgroup         C1      NOp   1
 Largest concise Abelian subgroup C1      NOp   1
                         Standard orientation:                         
 ---------------------------------------------------------------------
 Center     Atomic      Atomic             Coordinates (Angstroms)
 Number     Number       Type             X           Y           Z
 ---------------------------------------------------------------------
      1          8           0       -2.458593   -0.368347   -0.001838
      2          6           0        1.269530    0.525751   -0.128351
      3          6           0       -1.343551    0.474782    0.123891
      4          6           0        2.436500   -0.395470    0.168111
      5          6           0       -0.048292   -0.179605   -0.249530
      6          1           0        1.488816    1.065917   -1.061913
      7          1           0        1.204414    1.309692    0.668370
      8          1           0        2.299513   -0.910415    1.130897
      9          1           0        2.544152   -1.170853   -0.630426
     10          1           0        3.386671    0.189292    0.214162
     11          1           0       -1.543970    1.363465   -0.527366
     12          1           0       -1.286882    0.874162    1.142704
     13          1           0       -0.083183   -1.108947   -0.832583
     14          1           0       -2.225909   -1.218282    0.426137
 ---------------------------------------------------------------------
 Rotational constants (GHZ):          17.9141191           2.0058077           1.9024471
 Leave Link  202 at Tue Apr  9 00:59:04 2019, MaxMem=   671088640 cpu:               0.2 elap:               0.0
 (Enter /shared/centos7/gaussian/g16/l301.exe)
 Standard basis: 6-311+G(2df,2p) (5D, 7F)
 Ernie: Thresh=  0.10000D-02 Tol=  0.10000D-05 Strict=F.
 There are   276 symmetry adapted cartesian basis functions of A   symmetry.
 There are   251 symmetry adapted basis functions of A   symmetry.
   251 basis functions,   359 primitive gaussians,   276 cartesian basis functions
    21 alpha electrons       20 beta electrons
       nuclear repulsion energy       174.7460558473 Hartrees.
 IExCor= 4336 DFT=T Ex+Corr=M062X ExCW=0 ScaHFX=  0.540000
 ScaDFX=  1.000000  1.000000  1.000000  1.000000 ScalE2=  1.000000  1.000000
 IRadAn=      5 IRanWt=     -1 IRanGd=            0 ICorTp=0 IEmpDi=  4
 NAtoms=   14 NActive=   14 NUniq=   14 SFac= 1.00D+00 NAtFMM=   60 NAOKFM=F Big=F
 Integral buffers will be    131072 words long.
 Raffenetti 2 integral format.
 Two-electron integral symmetry is turned on.
 Leave Link  301 at Tue Apr  9 00:59:04 2019, MaxMem=   671088640 cpu:               0.8 elap:               0.1
 (Enter /shared/centos7/gaussian/g16/l302.exe)
 NPDir=0 NMtPBC=     1 NCelOv=     1 NCel=       1 NClECP=     1 NCelD=      1
         NCelK=      1 NCelE2=     1 NClLst=     1 CellRange=     0.0.
 One-electron integrals computed using PRISM.
 One-electron integral symmetry used in STVInt
 NBasis=   251 RedAO= T EigKep=  4.17D-05  NBF=   251
 NBsUse=   251 1.00D-06 EigRej= -1.00D+00 NBFU=   251
 Precomputing XC quadrature grid using
 IXCGrd= 4 IRadAn=           5 IRanWt=          -1 IRanGd=           0 AccXCQ= 0.00D+00.
 Generated NRdTot=       0 NPtTot=           0 NUsed=           0 NTot=          32
 NSgBfM=   276   276   276   276   276 MxSgAt=    14 MxSgA2=    14.
 Leave Link  302 at Tue Apr  9 00:59:04 2019, MaxMem=   671088640 cpu:               5.2 elap:               0.3
 (Enter /shared/centos7/gaussian/g16/l303.exe)
 DipDrv:  MaxL=1.
 Leave Link  303 at Tue Apr  9 00:59:04 2019, MaxMem=   671088640 cpu:               0.5 elap:               0.0
 (Enter /shared/centos7/gaussian/g16/l401.exe)
 ExpMin= 4.38D-02 ExpMax= 8.59D+03 ExpMxC= 1.30D+03 IAcc=3 IRadAn=         5 AccDes= 0.00D+00
 Harris functional with IExCor= 1009 and IRadAn=       5 diagonalized for initial guess.
 HarFok:  IExCor= 1009 AccDes= 0.00D+00 IRadAn=         5 IDoV= 1 UseB2=F ITyADJ=14
 ICtDFT=  3500011 ScaDFX=  1.000000  1.000000  1.000000  1.000000
 FoFCou: FMM=F IPFlag=           0 FMFlag=      100000 FMFlg1=           0
         NFxFlg=           0 DoJE=T BraDBF=F KetDBF=T FulRan=T
         wScrn=  0.000000 ICntrl=       500 IOpCl=  0 I1Cent=   200000004 NGrid=           0
         NMat0=    1 NMatS0=      1 NMatT0=    0 NMatD0=    1 NMtDS0=    0 NMtDT0=    0
 Petite list used in FoFCou.
 Harris En= -232.890776821100    
 JPrj=0 DoOrth=F DoCkMO=F.
 Initial guess <Sx>= 0.0000 <Sy>= 0.0000 <Sz>= 0.5000 <S**2>= 0.7500 S= 0.5000
 Leave Link  401 at Tue Apr  9 00:59:05 2019, MaxMem=   671088640 cpu:              17.4 elap:               0.9
 (Enter /shared/centos7/gaussian/g16/l502.exe)
 Integral symmetry usage will be decided dynamically.
 UHF open shell SCF:
 Using DIIS extrapolation, IDIIS=  1040.
 NGot=   671088640 LenX=   670928170 LenY=   670851553
 Requested convergence on RMS density matrix=1.00D-08 within 128 cycles.
 Requested convergence on MAX density matrix=1.00D-06.
 Requested convergence on             energy=1.00D-06.
 No special actions if energy rises.
 Fock matrices will be formed incrementally for  20 cycles.

 Cycle   1  Pass 1  IDiag  1:
 FoFJK:  IHMeth= 1 ICntrl=       0 DoSepK=F KAlg= 0 I1Cent=           0 FoldK=F
 IRaf= 960000000 NMat=       1 IRICut=       1 DoRegI=T DoRafI=F ISym2E= 0 IDoP0=0 IntGTp=1.
 FoFCou: FMM=F IPFlag=           0 FMFlag=      100000 FMFlg1=           0
         NFxFlg=           0 DoJE=F BraDBF=F KetDBF=F FulRan=T
         wScrn=  0.000000 ICntrl=         0 IOpCl=  1 I1Cent=           0 NGrid=           0
         NMat0=    1 NMatS0=      1 NMatT0=    0 NMatD0=    1 NMtDS0=    0 NMtDT0=    0
 Symmetry not used in FoFCou.
 E= -232.772222349282    
 DIIS: error= 1.96D-02 at cycle   1 NSaved=   1.
 NSaved= 1 IEnMin= 1 EnMin= -232.772222349282     IErMin= 1 ErrMin= 1.96D-02
 ErrMax= 1.96D-02  0.00D+00 EMaxC= 1.00D-01 BMatC= 9.07D-01 BMatP= 9.07D-01
 IDIUse=3 WtCom= 8.04D-01 WtEn= 1.96D-01
 Coeff-Com:  0.100D+01
 Coeff-En:   0.100D+01
 Coeff:      0.100D+01
 Gap=     0.248 Goal=   None    Shift=    0.000
 Gap=     0.322 Goal=   None    Shift=    0.000
 GapD=    0.248 DampG=1.000 DampE=0.500 DampFc=0.5000 IDamp=-1.
 Damping current iteration by 5.00D-01
 RMSDP=3.87D-03 MaxDP=3.21D-01              OVMax= 1.50D-01

 Cycle   2  Pass 1  IDiag  1:
 RMSU=  1.94D-03    CP:  9.94D-01
 E= -232.867887280360     Delta-E=       -0.095664931079 Rises=F Damp=T
 DIIS: error= 4.94D-03 at cycle   2 NSaved=   2.
 NSaved= 2 IEnMin= 2 EnMin= -232.867887280360     IErMin= 2 ErrMin= 4.94D-03
 ErrMax= 4.94D-03  0.00D+00 EMaxC= 1.00D-01 BMatC= 5.51D-02 BMatP= 9.07D-01
 IDIUse=3 WtCom= 9.51D-01 WtEn= 4.94D-02
 Coeff-Com: -0.754D-01 0.108D+01
 Coeff-En:   0.000D+00 0.100D+01
 Coeff:     -0.717D-01 0.107D+01
 Gap=     0.265 Goal=   None    Shift=    0.000
 Gap=     0.341 Goal=   None    Shift=    0.000
 RMSDP=1.27D-03 MaxDP=1.12D-01 DE=-9.57D-02 OVMax= 7.43D-02

 Cycle   3  Pass 1  IDiag  1:
 RMSU=  1.20D-03    CP:  9.79D-01  7.90D-01
 E= -232.961270332889     Delta-E=       -0.093383052528 Rises=F Damp=F
 DIIS: error= 2.68D-03 at cycle   3 NSaved=   3.
 NSaved= 3 IEnMin= 3 EnMin= -232.961270332889     IErMin= 3 ErrMin= 2.68D-03
 ErrMax= 2.68D-03  0.00D+00 EMaxC= 1.00D-01 BMatC= 1.11D-02 BMatP= 5.51D-02
 IDIUse=3 WtCom= 9.73D-01 WtEn= 2.68D-02
 Coeff-Com: -0.707D-01 0.286D+00 0.785D+00
 Coeff-En:   0.000D+00 0.000D+00 0.100D+01
 Coeff:     -0.688D-01 0.278D+00 0.791D+00
 Gap=     0.269 Goal=   None    Shift=    0.000
 Gap=     0.315 Goal=   None    Shift=    0.000
 RMSDP=2.38D-04 MaxDP=1.71D-02 DE=-9.34D-02 OVMax= 1.31D-02

 Cycle   4  Pass 1  IDiag  1:
 RMSU=  2.03D-04    CP:  9.82D-01  8.54D-01  1.00D+00
 E= -232.962830557590     Delta-E=       -0.001560224702 Rises=F Damp=F
 DIIS: error= 1.33D-03 at cycle   4 NSaved=   4.
 NSaved= 4 IEnMin= 4 EnMin= -232.962830557590     IErMin= 4 ErrMin= 1.33D-03
 ErrMax= 1.33D-03  0.00D+00 EMaxC= 1.00D-01 BMatC= 2.98D-03 BMatP= 1.11D-02
 IDIUse=3 WtCom= 9.87D-01 WtEn= 1.33D-02
 Coeff-Com: -0.265D-01 0.587D-01 0.384D+00 0.584D+00
 Coeff-En:   0.000D+00 0.000D+00 0.972D-01 0.903D+00
 Coeff:     -0.261D-01 0.579D-01 0.380D+00 0.588D+00
 Gap=     0.265 Goal=   None    Shift=    0.000
 Gap=     0.322 Goal=   None    Shift=    0.000
 RMSDP=1.22D-04 MaxDP=1.19D-02 DE=-1.56D-03 OVMax= 6.08D-03

 Cycle   5  Pass 1  IDiag  1:
 RMSU=  7.26D-05    CP:  9.79D-01  8.29D-01  1.05D+00  7.01D-01
 E= -232.963424883056     Delta-E=       -0.000594325465 Rises=F Damp=F
 DIIS: error= 3.14D-04 at cycle   5 NSaved=   5.
 NSaved= 5 IEnMin= 5 EnMin= -232.963424883056     IErMin= 5 ErrMin= 3.14D-04
 ErrMax= 3.14D-04  0.00D+00 EMaxC= 1.00D-01 BMatC= 9.84D-05 BMatP= 2.98D-03
 IDIUse=3 WtCom= 9.97D-01 WtEn= 3.14D-03
 Coeff-Com:  0.131D-02-0.125D-01 0.318D-02 0.117D+00 0.891D+00
 Coeff-En:   0.000D+00 0.000D+00 0.000D+00 0.000D+00 0.100D+01
 Coeff:      0.131D-02-0.125D-01 0.317D-02 0.116D+00 0.892D+00
 Gap=     0.267 Goal=   None    Shift=    0.000
 Gap=     0.321 Goal=   None    Shift=    0.000
 RMSDP=5.51D-05 MaxDP=4.86D-03 DE=-5.94D-04 OVMax= 2.68D-03

 Cycle   6  Pass 1  IDiag  1:
 RMSU=  3.84D-05    CP:  9.80D-01  8.32D-01  1.06D+00  8.48D-01  1.22D+00
 E= -232.963465709409     Delta-E=       -0.000040826353 Rises=F Damp=F
 DIIS: error= 1.09D-04 at cycle   6 NSaved=   6.
 NSaved= 6 IEnMin= 6 EnMin= -232.963465709409     IErMin= 6 ErrMin= 1.09D-04
 ErrMax= 1.09D-04  0.00D+00 EMaxC= 1.00D-01 BMatC= 1.38D-05 BMatP= 9.84D-05
 IDIUse=3 WtCom= 9.99D-01 WtEn= 1.09D-03
 Coeff-Com:  0.396D-02-0.103D-01-0.536D-01-0.696D-01 0.105D+00 0.102D+01
 Coeff-En:   0.000D+00 0.000D+00 0.000D+00 0.000D+00 0.000D+00 0.100D+01
 Coeff:      0.395D-02-0.103D-01-0.535D-01-0.695D-01 0.105D+00 0.102D+01
 Gap=     0.267 Goal=   None    Shift=    0.000
 Gap=     0.321 Goal=   None    Shift=    0.000
 RMSDP=1.92D-05 MaxDP=9.85D-04 DE=-4.08D-05 OVMax= 1.55D-03

 Cycle   7  Pass 1  IDiag  1:
 RMSU=  1.14D-05    CP:  9.80D-01  8.28D-01  1.07D+00  8.71D-01  1.36D+00
                    CP:  1.17D+00
 E= -232.963473590395     Delta-E=       -0.000007880986 Rises=F Damp=F
 DIIS: error= 4.22D-05 at cycle   7 NSaved=   7.
 NSaved= 7 IEnMin= 7 EnMin= -232.963473590395     IErMin= 7 ErrMin= 4.22D-05
 ErrMax= 4.22D-05  0.00D+00 EMaxC= 1.00D-01 BMatC= 3.38D-06 BMatP= 1.38D-05
 IDIUse=1 WtCom= 1.00D+00 WtEn= 0.00D+00
 Coeff-Com:  0.127D-02-0.215D-02-0.213D-01-0.450D-01-0.876D-01 0.412D+00
 Coeff-Com:  0.743D+00
 Coeff:      0.127D-02-0.215D-02-0.213D-01-0.450D-01-0.876D-01 0.412D+00
 Coeff:      0.743D+00
 Gap=     0.267 Goal=   None    Shift=    0.000
 Gap=     0.321 Goal=   None    Shift=    0.000
 RMSDP=6.47D-06 MaxDP=3.39D-04 DE=-7.88D-06 OVMax= 4.48D-04

 Cycle   8  Pass 1  IDiag  1:
 RMSU=  4.10D-06    CP:  9.80D-01  8.29D-01  1.07D+00  8.80D-01  1.38D+00
                    CP:  1.27D+00  1.15D+00
 E= -232.963474730052     Delta-E=       -0.000001139657 Rises=F Damp=F
 DIIS: error= 9.60D-06 at cycle   8 NSaved=   8.
 NSaved= 8 IEnMin= 8 EnMin= -232.963474730052     IErMin= 8 ErrMin= 9.60D-06
 ErrMax= 9.60D-06  0.00D+00 EMaxC= 1.00D-01 BMatC= 1.49D-07 BMatP= 3.38D-06
 IDIUse=1 WtCom= 1.00D+00 WtEn= 0.00D+00
 Coeff-Com: -0.312D-03 0.848D-03 0.276D-02 0.303D-03-0.225D-01-0.390D-01
 Coeff-Com:  0.940D-01 0.964D+00
 Coeff:     -0.312D-03 0.848D-03 0.276D-02 0.303D-03-0.225D-01-0.390D-01
 Coeff:      0.940D-01 0.964D+00
 Gap=     0.267 Goal=   None    Shift=    0.000
 Gap=     0.321 Goal=   None    Shift=    0.000
 RMSDP=2.89D-06 MaxDP=1.64D-04 DE=-1.14D-06 OVMax= 1.45D-04

 Cycle   9  Pass 1  IDiag  1:
 RMSU=  1.48D-06    CP:  9.80D-01  8.29D-01  1.07D+00  8.79D-01  1.38D+00
                    CP:  1.28D+00  1.27D+00  1.34D+00
 E= -232.963474797794     Delta-E=       -0.000000067742 Rises=F Damp=F
 DIIS: error= 3.25D-06 at cycle   9 NSaved=   9.
 NSaved= 9 IEnMin= 9 EnMin= -232.963474797794     IErMin= 9 ErrMin= 3.25D-06
 ErrMax= 3.25D-06  0.00D+00 EMaxC= 1.00D-01 BMatC= 1.40D-08 BMatP= 1.49D-07
 IDIUse=1 WtCom= 1.00D+00 WtEn= 0.00D+00
 Coeff-Com: -0.183D-03 0.377D-03 0.262D-02 0.458D-02 0.597D-02-0.480D-01
 Coeff-Com: -0.676D-01 0.154D+00 0.949D+00
 Coeff:     -0.183D-03 0.377D-03 0.262D-02 0.458D-02 0.597D-02-0.480D-01
 Coeff:     -0.676D-01 0.154D+00 0.949D+00
 Gap=     0.267 Goal=   None    Shift=    0.000
 Gap=     0.321 Goal=   None    Shift=    0.000
 RMSDP=1.58D-06 MaxDP=1.68D-04 DE=-6.77D-08 OVMax= 5.71D-05

 Cycle  10  Pass 1  IDiag  1:
 RMSU=  5.47D-07    CP:  9.80D-01  8.29D-01  1.06D+00  8.77D-01  1.38D+00
                    CP:  1.26D+00  1.33D+00  1.54D+00  1.17D+00
 E= -232.963474804849     Delta-E=       -0.000000007055 Rises=F Damp=F
 DIIS: error= 8.06D-07 at cycle  10 NSaved=  10.
 NSaved=10 IEnMin=10 EnMin= -232.963474804849     IErMin=10 ErrMin= 8.06D-07
 ErrMax= 8.06D-07  0.00D+00 EMaxC= 1.00D-01 BMatC= 7.70D-10 BMatP= 1.40D-08
 IDIUse=1 WtCom= 1.00D+00 WtEn= 0.00D+00
 Coeff-Com:  0.167D-04-0.385D-04-0.631D-04 0.116D-03 0.129D-02 0.119D-03
 Coeff-Com: -0.801D-02-0.514D-01 0.587D-01 0.999D+00
 Coeff:      0.167D-04-0.385D-04-0.631D-04 0.116D-03 0.129D-02 0.119D-03
 Coeff:     -0.801D-02-0.514D-01 0.587D-01 0.999D+00
 Gap=     0.267 Goal=   None    Shift=    0.000
 Gap=     0.321 Goal=   None    Shift=    0.000
 RMSDP=3.01D-07 MaxDP=3.15D-05 DE=-7.06D-09 OVMax= 1.54D-05

 Cycle  11  Pass 1  IDiag  1:
 RMSU=  8.52D-08    CP:  9.80D-01  8.29D-01  1.06D+00  8.77D-01  1.38D+00
                    CP:  1.26D+00  1.33D+00  1.58D+00  1.27D+00  1.22D+00
 E= -232.963474805271     Delta-E=       -0.000000000422 Rises=F Damp=F
 DIIS: error= 4.36D-07 at cycle  11 NSaved=  11.
 NSaved=11 IEnMin=11 EnMin= -232.963474805271     IErMin=11 ErrMin= 4.36D-07
 ErrMax= 4.36D-07  0.00D+00 EMaxC= 1.00D-01 BMatC= 1.66D-10 BMatP= 7.70D-10
 IDIUse=1 WtCom= 1.00D+00 WtEn= 0.00D+00
 Coeff-Com:  0.218D-04-0.470D-04-0.249D-03-0.349D-03-0.562D-05 0.423D-02
 Coeff-Com:  0.321D-02-0.320D-01-0.654D-01 0.319D+00 0.771D+00
 Coeff:      0.218D-04-0.470D-04-0.249D-03-0.349D-03-0.562D-05 0.423D-02
 Coeff:      0.321D-02-0.320D-01-0.654D-01 0.319D+00 0.771D+00
 Gap=     0.267 Goal=   None    Shift=    0.000
 Gap=     0.321 Goal=   None    Shift=    0.000
 RMSDP=8.03D-08 MaxDP=7.75D-06 DE=-4.22D-10 OVMax= 3.22D-06

 Cycle  12  Pass 1  IDiag  1:
 RMSU=  3.52D-08    CP:  9.80D-01  8.29D-01  1.06D+00  8.77D-01  1.38D+00
                    CP:  1.26D+00  1.33D+00  1.59D+00  1.29D+00  1.28D+00
                    CP:  1.15D+00
 E= -232.963474805329     Delta-E=       -0.000000000058 Rises=F Damp=F
 DIIS: error= 1.02D-07 at cycle  12 NSaved=  12.
 NSaved=12 IEnMin=12 EnMin= -232.963474805329     IErMin=12 ErrMin= 1.02D-07
 ErrMax= 1.02D-07  0.00D+00 EMaxC= 1.00D-01 BMatC= 1.73D-11 BMatP= 1.66D-10
 IDIUse=1 WtCom= 1.00D+00 WtEn= 0.00D+00
 Coeff-Com:  0.182D-05-0.419D-05-0.459D-04-0.846D-04-0.152D-03 0.841D-03
 Coeff-Com:  0.172D-02 0.123D-03-0.212D-01-0.585D-01 0.185D+00 0.893D+00
 Coeff:      0.182D-05-0.419D-05-0.459D-04-0.846D-04-0.152D-03 0.841D-03
 Coeff:      0.172D-02 0.123D-03-0.212D-01-0.585D-01 0.185D+00 0.893D+00
 Gap=     0.267 Goal=   None    Shift=    0.000
 Gap=     0.321 Goal=   None    Shift=    0.000
 RMSDP=2.01D-08 MaxDP=9.55D-07 DE=-5.81D-11 OVMax= 1.30D-06

 Cycle  13  Pass 1  IDiag  1:
 RMSU=  1.22D-08    CP:  9.80D-01  8.29D-01  1.06D+00  8.77D-01  1.38D+00
                    CP:  1.26D+00  1.33D+00  1.59D+00  1.29D+00  1.30D+00
                    CP:  1.25D+00  1.19D+00
 E= -232.963474805336     Delta-E=       -0.000000000006 Rises=F Damp=F
 DIIS: error= 4.26D-08 at cycle  13 NSaved=  13.
 NSaved=13 IEnMin=13 EnMin= -232.963474805336     IErMin=13 ErrMin= 4.26D-08
 ErrMax= 4.26D-08  0.00D+00 EMaxC= 1.00D-01 BMatC= 1.51D-12 BMatP= 1.73D-11
 IDIUse=1 WtCom= 1.00D+00 WtEn= 0.00D+00
 Coeff-Com: -0.178D-05 0.367D-05 0.136D-04 0.158D-04-0.260D-04-0.234D-03
 Coeff-Com:  0.295D-04 0.308D-02 0.172D-02-0.424D-01-0.484D-01 0.152D+00
 Coeff-Com:  0.935D+00
 Coeff:     -0.178D-05 0.367D-05 0.136D-04 0.158D-04-0.260D-04-0.234D-03
 Coeff:      0.295D-04 0.308D-02 0.172D-02-0.424D-01-0.484D-01 0.152D+00
 Coeff:      0.935D+00
 Gap=     0.267 Goal=   None    Shift=    0.000
 Gap=     0.321 Goal=   None    Shift=    0.000
 RMSDP=9.58D-09 MaxDP=8.52D-07 DE=-6.48D-12 OVMax= 4.20D-07

 SCF Done:  E(UM062X) =  -232.963474805     A.U. after   13 cycles
            NFock= 13  Conv=0.96D-08     -V/T= 2.0047
 <Sx>= 0.0000 <Sy>= 0.0000 <Sz>= 0.5000 <S**2>= 0.7554 S= 0.5027
 <L.S>= 0.000000000000E+00
 KE= 2.318653674379D+02 PE=-8.923359621763D+02 EE= 2.527610640858D+02
 Annihilation of the first spin contaminant:
 S**2 before annihilation     0.7554,   after     0.7500
 Leave Link  502 at Tue Apr  9 00:59:43 2019, MaxMem=   671088640 cpu:             751.9 elap:              37.6
 (Enter /shared/centos7/gaussian/g16/l801.exe)
 DoSCS=F DFT=T ScalE2(SS,OS)=  1.000000  1.000000
 Range of M.O.s used for correlation:     1   251
 NBasis=   251 NAE=    21 NBE=    20 NFC=     0 NFV=     0
 NROrb=    251 NOA=    21 NOB=    20 NVA=   230 NVB=   231

 **** Warning!!: The largest alpha MO coefficient is  0.50126329D+02


 **** Warning!!: The largest beta MO coefficient is  0.47385431D+02

 Leave Link  801 at Tue Apr  9 00:59:43 2019, MaxMem=   671088640 cpu:               0.4 elap:               0.0
 (Enter /shared/centos7/gaussian/g16/l1101.exe)
 Using compressed storage, NAtomX=    14.
 Will process     15 centers per pass.
 Leave Link 1101 at Tue Apr  9 00:59:43 2019, MaxMem=   671088640 cpu:               6.8 elap:               0.4
 (Enter /shared/centos7/gaussian/g16/l1102.exe)
 Symmetrizing basis deriv contribution to polar:
 IMax=3 JMax=2 DiffMx= 0.00D+00
 Leave Link 1102 at Tue Apr  9 00:59:43 2019, MaxMem=   671088640 cpu:               0.5 elap:               0.1
 (Enter /shared/centos7/gaussian/g16/l1110.exe)
 Forming Gx(P) for the SCF density, NAtomX=    14.
 Integral derivatives from FoFJK, PRISM(SPDF).
 Do as many integral derivatives as possible in FoFJK.
 G2DrvN: MDV=     671087496.
 G2DrvN: will do    15 centers at a time, making    1 passes.
 Calling FoFCou, ICntrl=  3107 FMM=F I1Cent=   0 AccDes= 0.00D+00.
 FoFJK:  IHMeth= 1 ICntrl=    3107 DoSepK=F KAlg= 0 I1Cent=           0 FoldK=F
 IRaf=         0 NMat=       1 IRICut=       1 DoRegI=T DoRafI=F ISym2E= 0 IDoP0=0 IntGTp=1.
 FoFCou: FMM=F IPFlag=           0 FMFlag=      100000 FMFlg1=           0
         NFxFlg=           0 DoJE=F BraDBF=F KetDBF=F FulRan=T
         wScrn=  0.000000 ICntrl=      3107 IOpCl=  1 I1Cent=           0 NGrid=           0
         NMat0=    1 NMatS0=      1 NMatT0=    0 NMatD0=    1 NMtDS0=    0 NMtDT0=    0
 Symmetry not used in FoFCou.
 End of G2Drv F.D. properties file   721 does not exist.
 End of G2Drv F.D. properties file   722 does not exist.
 End of G2Drv F.D. properties file   788 does not exist.
 Leave Link 1110 at Tue Apr  9 01:01:01 2019, MaxMem=   671088640 cpu:            1541.6 elap:              77.1
 (Enter /shared/centos7/gaussian/g16/l1002.exe)
 Minotr:  UHF open shell wavefunction.
          IDoAtm=11111111111111
          Direct CPHF calculation.
          Differentiating once with respect to nuclear coordinates.
          Requested convergence is 1.0D-08 RMS, and 1.0D-07 maximum.
          Secondary convergence is 1.0D-12 RMS, and 1.0D-12 maximum.
          NewPWx=T KeepS1=F KeepF1=F KeepIn=T MapXYZ=F SortEE=F KeepMc=T.
         4264 words used for storage of precomputed grid.
 Two-electron integrals replicated using symmetry.
          MDV=     671088640 using IRadAn=       1.
          Solving linear equations simultaneously, MaxMat=     380.
 FoF2E skips out because all densities are zero.
 CalDSu exits because no D1Ps are significant.
 FoFJK:  IHMeth= 1 ICntrl=       0 DoSepK=F KAlg= 0 I1Cent=           0 FoldK=F
 IRaf= 950000000 NMat=      42 IRICut=     105 DoRegI=T DoRafI=T ISym2E= 2 IDoP0=3 IntGTp=3.
 FoFCou: FMM=F IPFlag=           0 FMFlag=      100000 FMFlg1=           0
         NFxFlg=           0 DoJE=F BraDBF=F KetDBF=F FulRan=T
         wScrn=  0.000000 ICntrl=         0 IOpCl=  1 I1Cent=           0 NGrid=           0
         NMat0=   42 NMatS0=     42 NMatT0=    0 NMatD0=   42 NMtDS0=    0 NMtDT0=    0
 Integrals replicated using symmetry in FoFCou.
 Raff kept on since  93.79% of shell-pairs survive, threshold=   0.20 IRatSp=94.
          There are    45 degrees of freedom in the 1st order CPHF.  IDoFFX=6 NUNeed=     0.
     39 vectors produced by pass  0 Test12= 2.10D-14 2.22D-09 XBig12= 1.41D-01 7.54D-02.
 AX will form    39 AO Fock derivatives at one time.
     39 vectors produced by pass  1 Test12= 2.10D-14 2.22D-09 XBig12= 7.38D-03 1.15D-02.
     39 vectors produced by pass  2 Test12= 2.10D-14 2.22D-09 XBig12= 2.75D-04 2.57D-03.
     39 vectors produced by pass  3 Test12= 2.10D-14 2.22D-09 XBig12= 5.27D-06 2.62D-04.
     39 vectors produced by pass  4 Test12= 2.10D-14 2.22D-09 XBig12= 5.94D-08 2.73D-05.
     39 vectors produced by pass  5 Test12= 2.10D-14 2.22D-09 XBig12= 6.89D-10 2.84D-06.
     38 vectors produced by pass  6 Test12= 2.10D-14 2.22D-09 XBig12= 6.53D-12 3.05D-07.
     15 vectors produced by pass  7 Test12= 2.10D-14 2.22D-09 XBig12= 5.32D-14 2.54D-08.
 InvSVY:  IOpt=1 It=  1 EMax= 1.44D-15
 Solved reduced A of dimension   287 with    39 vectors.
 End of Minotr F.D. properties file   721 does not exist.
 End of Minotr F.D. properties file   722 does not exist.
 End of Minotr F.D. properties file   788 does not exist.
 Leave Link 1002 at Tue Apr  9 01:03:01 2019, MaxMem=   671088640 cpu:            2410.1 elap:             120.5
 (Enter /shared/centos7/gaussian/g16/l601.exe)
 Copying SCF densities to generalized density rwf, IOpCl= 1 IROHF=0.

 **********************************************************************

            Population analysis using the SCF density.

 **********************************************************************

 Orbital symmetries:
 Alpha Orbitals:
       Occupied  (A) (A) (A) (A) (A) (A) (A) (A) (A) (A) (A) (A)
                 (A) (A) (A) (A) (A) (A) (A) (A) (A)
       Virtual   (A) (A) (A) (A) (A) (A) (A) (A) (A) (A) (A) (A)
                 (A) (A) (A) (A) (A) (A) (A) (A) (A) (A) (A) (A)
                 (A) (A) (A) (A) (A) (A) (A) (A) (A) (A) (A) (A)
                 (A) (A) (A) (A) (A) (A) (A) (A) (A) (A) (A) (A)
                 (A) (A) (A) (A) (A) (A) (A) (A) (A) (A) (A) (A)
                 (A) (A) (A) (A) (A) (A) (A) (A) (A) (A) (A) (A)
                 (A) (A) (A) (A) (A) (A) (A) (A) (A) (A) (A) (A)
                 (A) (A) (A) (A) (A) (A) (A) (A) (A) (A) (A) (A)
                 (A) (A) (A) (A) (A) (A) (A) (A) (A) (A) (A) (A)
                 (A) (A) (A) (A) (A) (A) (A) (A) (A) (A) (A) (A)
                 (A) (A) (A) (A) (A) (A) (A) (A) (A) (A) (A) (A)
                 (A) (A) (A) (A) (A) (A) (A) (A) (A) (A) (A) (A)
                 (A) (A) (A) (A) (A) (A) (A) (A) (A) (A) (A) (A)
                 (A) (A) (A) (A) (A) (A) (A) (A) (A) (A) (A) (A)
                 (A) (A) (A) (A) (A) (A) (A) (A) (A) (A) (A) (A)
                 (A) (A) (A) (A) (A) (A) (A) (A) (A) (A) (A) (A)
                 (A) (A) (A) (A) (A) (A) (A) (A) (A) (A) (A) (A)
                 (A) (A) (A) (A) (A) (A) (A) (A) (A) (A) (A) (A)
                 (A) (A) (A) (A) (A) (A) (A) (A) (A) (A) (A) (A)
                 (A) (A)
 Beta  Orbitals:
       Occupied  (A) (A) (A) (A) (A) (A) (A) (A) (A) (A) (A) (A)
                 (A) (A) (A) (A) (A) (A) (A) (A)
       Virtual   (A) (A) (A) (A) (A) (A) (A) (A) (A) (A) (A) (A)
                 (A) (A) (A) (A) (A) (A) (A) (A) (A) (A) (A) (A)
                 (A) (A) (A) (A) (A) (A) (A) (A) (A) (A) (A) (A)
                 (A) (A) (A) (A) (A) (A) (A) (A) (A) (A) (A) (A)
                 (A) (A) (A) (A) (A) (A) (A) (A) (A) (A) (A) (A)
                 (A) (A) (A) (A) (A) (A) (A) (A) (A) (A) (A) (A)
                 (A) (A) (A) (A) (A) (A) (A) (A) (A) (A) (A) (A)
                 (A) (A) (A) (A) (A) (A) (A) (A) (A) (A) (A) (A)
                 (A) (A) (A) (A) (A) (A) (A) (A) (A) (A) (A) (A)
                 (A) (A) (A) (A) (A) (A) (A) (A) (A) (A) (A) (A)
                 (A) (A) (A) (A) (A) (A) (A) (A) (A) (A) (A) (A)
                 (A) (A) (A) (A) (A) (A) (A) (A) (A) (A) (A) (A)
                 (A) (A) (A) (A) (A) (A) (A) (A) (A) (A) (A) (A)
                 (A) (A) (A) (A) (A) (A) (A) (A) (A) (A) (A) (A)
                 (A) (A) (A) (A) (A) (A) (A) (A) (A) (A) (A) (A)
                 (A) (A) (A) (A) (A) (A) (A) (A) (A) (A) (A) (A)
                 (A) (A) (A) (A) (A) (A) (A) (A) (A) (A) (A) (A)
                 (A) (A) (A) (A) (A) (A) (A) (A) (A) (A) (A) (A)
                 (A) (A) (A) (A) (A) (A) (A) (A) (A) (A) (A) (A)
                 (A) (A) (A)
 The electronic state is 2-A.
 Alpha  occ. eigenvalues --  -19.62348 -10.58799 -10.54820 -10.54489 -10.53500
 Alpha  occ. eigenvalues --   -1.14723  -0.89972  -0.81605  -0.72368  -0.66348
 Alpha  occ. eigenvalues --   -0.58535  -0.53010  -0.52177  -0.51862  -0.46364
 Alpha  occ. eigenvalues --   -0.45326  -0.43057  -0.40677  -0.39590  -0.35656
 Alpha  occ. eigenvalues --   -0.24957
 Alpha virt. eigenvalues --    0.01792   0.02807   0.03103   0.04057   0.05494
 Alpha virt. eigenvalues --    0.05958   0.06640   0.07823   0.08522   0.10025
 Alpha virt. eigenvalues --    0.10533   0.11645   0.12815   0.14074   0.16727
 Alpha virt. eigenvalues --    0.16997   0.17961   0.19597   0.20252   0.21310
 Alpha virt. eigenvalues --    0.22895   0.23676   0.23902   0.24495   0.25172
 Alpha virt. eigenvalues --    0.25886   0.27088   0.28531   0.29972   0.32207
 Alpha virt. eigenvalues --    0.32893   0.33466   0.36896   0.41842   0.42391
 Alpha virt. eigenvalues --    0.46138   0.47008   0.47634   0.49977   0.52601
 Alpha virt. eigenvalues --    0.53185   0.54001   0.54877   0.56244   0.56747
 Alpha virt. eigenvalues --    0.57588   0.59382   0.60188   0.61960   0.62561
 Alpha virt. eigenvalues --    0.64244   0.65923   0.66509   0.67879   0.68390
 Alpha virt. eigenvalues --    0.69789   0.71921   0.75392   0.77870   0.80591
 Alpha virt. eigenvalues --    0.82628   0.83700   0.88623   0.90642   0.92009
 Alpha virt. eigenvalues --    0.93190   0.96097   1.00126   1.02034   1.02602
 Alpha virt. eigenvalues --    1.06061   1.07804   1.09210   1.11690   1.13183
 Alpha virt. eigenvalues --    1.15851   1.17541   1.18737   1.19081   1.20766
 Alpha virt. eigenvalues --    1.21299   1.22732   1.24251   1.26443   1.28098
 Alpha virt. eigenvalues --    1.29537   1.30774   1.34876   1.36462   1.39536
 Alpha virt. eigenvalues --    1.40908   1.41636   1.43327   1.44002   1.44800
 Alpha virt. eigenvalues --    1.46534   1.47793   1.49791   1.50770   1.52661
 Alpha virt. eigenvalues --    1.54153   1.56108   1.59307   1.60155   1.62683
 Alpha virt. eigenvalues --    1.65068   1.69523   1.71563   1.76566   1.90301
 Alpha virt. eigenvalues --    2.07134   2.10951   2.26638   2.31511   2.39362
 Alpha virt. eigenvalues --    2.45342   2.49455   2.53610   2.56839   2.60542
 Alpha virt. eigenvalues --    2.62654   2.66140   2.71053   2.76785   2.78561
 Alpha virt. eigenvalues --    2.80999   2.83522   2.86298   2.87086   2.89130
 Alpha virt. eigenvalues --    2.93012   2.96988   2.97216   2.99022   3.01911
 Alpha virt. eigenvalues --    3.07393   3.10299   3.12565   3.13659   3.16085
 Alpha virt. eigenvalues --    3.18315   3.18907   3.22786   3.23708   3.27637
 Alpha virt. eigenvalues --    3.31302   3.31724   3.34134   3.36509   3.38341
 Alpha virt. eigenvalues --    3.41289   3.45687   3.46569   3.50382   3.51913
 Alpha virt. eigenvalues --    3.54469   3.57387   3.58689   3.59150   3.63649
 Alpha virt. eigenvalues --    3.64938   3.66257   3.68864   3.72692   3.74680
 Alpha virt. eigenvalues --    3.79531   3.80073   3.85834   3.87093   3.90856
 Alpha virt. eigenvalues --    3.93763   3.97085   3.98458   3.99604   4.01065
 Alpha virt. eigenvalues --    4.03486   4.05460   4.08813   4.11184   4.15730
 Alpha virt. eigenvalues --    4.16061   4.17874   4.20753   4.23579   4.24620
 Alpha virt. eigenvalues --    4.26376   4.28352   4.30497   4.31801   4.36378
 Alpha virt. eigenvalues --    4.39386   4.44359   4.46295   4.48793   4.51008
 Alpha virt. eigenvalues --    4.54535   4.55811   4.61390   4.68849   4.71436
 Alpha virt. eigenvalues --    4.89592   4.99809   5.15552   5.21442   5.25478
 Alpha virt. eigenvalues --    5.28495   5.37345   5.38913   5.42694   5.48476
 Alpha virt. eigenvalues --    5.51189   5.52299   5.54556   5.56162   5.56422
 Alpha virt. eigenvalues --    5.60920   5.87055   5.94830   6.53195   6.96848
 Alpha virt. eigenvalues --    7.09593   7.19259   7.22273   7.50114   7.63936
 Alpha virt. eigenvalues --   24.15078  24.27658  24.40914  24.48844  50.11583
  Beta  occ. eigenvalues --  -19.62347 -10.58865 -10.54554 -10.54139 -10.53465
  Beta  occ. eigenvalues --   -1.14674  -0.88660  -0.80631  -0.71725  -0.64655
  Beta  occ. eigenvalues --   -0.57956  -0.52156  -0.51681  -0.51001  -0.45944
  Beta  occ. eigenvalues --   -0.44767  -0.42207  -0.40307  -0.39059  -0.35241
  Beta virt. eigenvalues --   -0.03096   0.01701   0.02359   0.03019   0.03700
  Beta virt. eigenvalues --    0.05280   0.05829   0.06593   0.07337   0.08563
  Beta virt. eigenvalues --    0.09712   0.10234   0.10900   0.12429   0.13708
  Beta virt. eigenvalues --    0.15604   0.16718   0.17814   0.19656   0.20373
  Beta virt. eigenvalues --    0.21480   0.22771   0.23192   0.24113   0.24613
  Beta virt. eigenvalues --    0.25662   0.25908   0.27312   0.28420   0.29881
  Beta virt. eigenvalues --    0.32754   0.33112   0.34150   0.37152   0.42046
  Beta virt. eigenvalues --    0.42471   0.46315   0.47182   0.48033   0.50806
  Beta virt. eigenvalues --    0.52463   0.53187   0.54020   0.55291   0.55880
  Beta virt. eigenvalues --    0.57142   0.58491   0.59474   0.60084   0.62108
  Beta virt. eigenvalues --    0.63408   0.64590   0.66087   0.66681   0.67583
  Beta virt. eigenvalues --    0.68782   0.69847   0.72152   0.75577   0.77597
  Beta virt. eigenvalues --    0.80833   0.82493   0.83635   0.88106   0.90537
  Beta virt. eigenvalues --    0.91630   0.92960   0.96217   1.00034   1.02039
  Beta virt. eigenvalues --    1.02604   1.06098   1.07616   1.09412   1.11980
  Beta virt. eigenvalues --    1.13195   1.16033   1.17598   1.18788   1.19345
  Beta virt. eigenvalues --    1.20666   1.21353   1.22699   1.24173   1.26309
  Beta virt. eigenvalues --    1.27991   1.30003   1.30911   1.35380   1.36892
  Beta virt. eigenvalues --    1.39393   1.41007   1.41542   1.43136   1.44006
  Beta virt. eigenvalues --    1.44573   1.46938   1.47659   1.49587   1.51135
  Beta virt. eigenvalues --    1.52547   1.54496   1.56200   1.59236   1.60508
  Beta virt. eigenvalues --    1.62607   1.65815   1.69728   1.71964   1.77100
  Beta virt. eigenvalues --    1.90419   2.07619   2.11216   2.26678   2.31572
  Beta virt. eigenvalues --    2.39764   2.45894   2.49670   2.54271   2.57341
  Beta virt. eigenvalues --    2.61219   2.63430   2.66641   2.72645   2.79061
  Beta virt. eigenvalues --    2.80195   2.83719   2.84328   2.87935   2.90793
  Beta virt. eigenvalues --    2.91404   2.95020   2.97432   2.98871   3.00658
  Beta virt. eigenvalues --    3.03435   3.08182   3.10810   3.13701   3.15519
  Beta virt. eigenvalues --    3.16816   3.19178   3.20236   3.24073   3.25128
  Beta virt. eigenvalues --    3.28397   3.32148   3.33757   3.35476   3.37725
  Beta virt. eigenvalues --    3.40948   3.42786   3.47476   3.48356   3.51620
  Beta virt. eigenvalues --    3.52814   3.57278   3.58473   3.59358   3.62008
  Beta virt. eigenvalues --    3.63872   3.66035   3.66643   3.69144   3.72987
  Beta virt. eigenvalues --    3.76311   3.79571   3.80430   3.86100   3.87373
  Beta virt. eigenvalues --    3.91969   3.94415   3.97730   3.98893   4.01179
  Beta virt. eigenvalues --    4.01836   4.04126   4.06898   4.09560   4.12373
  Beta virt. eigenvalues --    4.16418   4.16803   4.19478   4.21368   4.24146
  Beta virt. eigenvalues --    4.25566   4.27058   4.29714   4.30712   4.32338
  Beta virt. eigenvalues --    4.36950   4.42615   4.44916   4.47120   4.49657
  Beta virt. eigenvalues --    4.52223   4.55595   4.57491   4.62550   4.70447
  Beta virt. eigenvalues --    4.73655   4.91899   5.02347   5.16940   5.21469
  Beta virt. eigenvalues --    5.25814   5.30100   5.37266   5.38874   5.45509
  Beta virt. eigenvalues --    5.50255   5.51962   5.53815   5.54593   5.56429
  Beta virt. eigenvalues --    5.57068   5.60663   5.87262   5.95008   6.53238
  Beta virt. eigenvalues --    6.96880   7.09657   7.19312   7.22314   7.50139
  Beta virt. eigenvalues --    7.63985  24.15902  24.27854  24.40945  24.49396
  Beta virt. eigenvalues --   50.11580
          Condensed to atoms (all electrons):
               1          2          3          4          5          6
     1  O    8.103377   0.025779   0.158837  -0.002533  -0.073357  -0.000876
     2  C    0.025779   5.693801  -0.050733   0.020170  -0.231841   0.449276
     3  C    0.158837  -0.050733   5.043718   0.017277   0.214874  -0.020295
     4  C   -0.002533   0.020170   0.017277   5.150121   0.112157  -0.046181
     5  C   -0.073357  -0.231841   0.214874   0.112157   5.987559  -0.035954
     6  H   -0.000876   0.449276  -0.020295  -0.046181  -0.035954   0.545586
     7  H    0.000863   0.455622   0.028869  -0.036647  -0.096596  -0.038646
     8  H   -0.000035  -0.015211  -0.004980   0.409879  -0.011237   0.005854
     9  H    0.000015  -0.009926   0.005173   0.406797  -0.032556  -0.008337
    10  H    0.000023  -0.050205  -0.000247   0.406666   0.024816  -0.004100
    11  H   -0.060073  -0.012097   0.436598  -0.000407  -0.040454   0.001086
    12  H   -0.033616   0.022453   0.421613  -0.004819  -0.072583  -0.000172
    13  H    0.006876   0.005413  -0.012360  -0.013927   0.362938  -0.002327
    14  H    0.233335  -0.006937  -0.025941   0.002492   0.014100  -0.000000
               7          8          9         10         11         12
     1  O    0.000863  -0.000035   0.000015   0.000023  -0.060073  -0.033616
     2  C    0.455622  -0.015211  -0.009926  -0.050205  -0.012097   0.022453
     3  C    0.028869  -0.004980   0.005173  -0.000247   0.436598   0.421613
     4  C   -0.036647   0.409879   0.406797   0.406666  -0.000407  -0.004819
     5  C   -0.096596  -0.011237  -0.032556   0.024816  -0.040454  -0.072583
     6  H   -0.038646   0.005854  -0.008337  -0.004100   0.001086  -0.000172
     7  H    0.550819  -0.007384   0.006447  -0.005650  -0.002050   0.001685
     8  H   -0.007384   0.544024  -0.033464  -0.023994  -0.000033   0.000028
     9  H    0.006447  -0.033464   0.556640  -0.024928  -0.000007  -0.000018
    10  H   -0.005650  -0.023994  -0.024928   0.547457   0.000013   0.000020
    11  H   -0.002050  -0.000033  -0.000007   0.000013   0.583224  -0.053336
    12  H    0.001685   0.000028  -0.000018   0.000020  -0.053336   0.579792
    13  H    0.003863  -0.000677   0.002471  -0.000063   0.000070   0.004610
    14  H    0.000097  -0.000060   0.000029   0.000002   0.011101  -0.008670
              13         14
     1  O    0.006876   0.233335
     2  C    0.005413  -0.006937
     3  C   -0.012360  -0.025941
     4  C   -0.013927   0.002492
     5  C    0.362938   0.014100
     6  H   -0.002327  -0.000000
     7  H    0.003863   0.000097
     8  H   -0.000677  -0.000060
     9  H    0.002471   0.000029
    10  H   -0.000063   0.000002
    11  H    0.000070   0.011101
    12  H    0.004610  -0.008670
    13  H    0.455972   0.000439
    14  H    0.000439   0.529533
          Atomic-Atomic Spin Densities.
               1          2          3          4          5          6
     1  O    0.010029   0.001146   0.007148   0.000870  -0.015968  -0.000577
     2  C    0.001146   0.017121   0.034205   0.005748  -0.168371   0.029924
     3  C    0.007148   0.034205  -0.026044   0.001523  -0.124813  -0.003823
     4  C    0.000870   0.005748   0.001523   0.043054  -0.019517  -0.012421
     5  C   -0.015968  -0.168371  -0.124813  -0.019517   1.482601  -0.027268
     6  H   -0.000577   0.029924  -0.003823  -0.012421  -0.027268   0.062248
     7  H    0.000468   0.004253   0.010006   0.010339  -0.026488  -0.009736
     8  H   -0.000079   0.009052   0.002415   0.004005  -0.013828   0.000232
     9  H    0.000038   0.003748   0.000507  -0.003768  -0.001830  -0.001457
    10  H   -0.000001  -0.005154  -0.001485  -0.004421   0.010340   0.001549
    11  H   -0.009787   0.000551   0.008816  -0.004244  -0.009289   0.003099
    12  H    0.007449   0.009834   0.036958   0.005458  -0.068846  -0.001135
    13  H    0.002287   0.017158   0.012197   0.001858  -0.037081  -0.001387
    14  H   -0.004161   0.000926   0.001986  -0.000508   0.008100   0.000098
               7          8          9         10         11         12
     1  O    0.000468  -0.000079   0.000038  -0.000001  -0.009787   0.007449
     2  C    0.004253   0.009052   0.003748  -0.005154   0.000551   0.009834
     3  C    0.010006   0.002415   0.000507  -0.001485   0.008816   0.036958
     4  C    0.010339   0.004005  -0.003768  -0.004421  -0.004244   0.005458
     5  C   -0.026488  -0.013828  -0.001830   0.010340  -0.009289  -0.068846
     6  H   -0.009736   0.000232  -0.001457   0.001549   0.003099  -0.001135
     7  H    0.020611  -0.000461   0.000264  -0.000688  -0.002281   0.003113
     8  H   -0.000461  -0.010001  -0.000426   0.001481   0.000027  -0.000045
     9  H    0.000264  -0.000426   0.001298   0.000118  -0.000033   0.000020
    10  H   -0.000688   0.001481   0.000118  -0.000790   0.000019  -0.000030
    11  H   -0.002281   0.000027  -0.000033   0.000019   0.075621  -0.016867
    12  H    0.003113  -0.000045   0.000020  -0.000030  -0.016867   0.052296
    13  H    0.000263   0.000297   0.000031  -0.000113  -0.001490   0.000958
    14  H   -0.000120   0.000035  -0.000019   0.000001   0.001571  -0.002292
              13         14
     1  O    0.002287  -0.004161
     2  C    0.017158   0.000926
     3  C    0.012197   0.001986
     4  C    0.001858  -0.000508
     5  C   -0.037081   0.008100
     6  H   -0.001387   0.000098
     7  H    0.000263  -0.000120
     8  H    0.000297   0.000035
     9  H    0.000031  -0.000019
    10  H   -0.000113   0.000001
    11  H   -0.001490   0.001571
    12  H    0.000958  -0.002292
    13  H   -0.047171  -0.000606
    14  H   -0.000606  -0.000029
 Mulliken charges and spin densities:
               1          2
     1  O   -0.358614  -0.001138
     2  C   -0.295563  -0.039861
     3  C   -0.212404  -0.040403
     4  C   -0.421046   0.027977
     5  C   -0.121865   0.987741
     6  H    0.155086   0.039346
     7  H    0.138706   0.009544
     8  H    0.137291  -0.007295
     9  H    0.131664  -0.001509
    10  H    0.130189   0.000827
    11  H    0.136364   0.045714
    12  H    0.143010   0.026872
    13  H    0.186703  -0.052798
    14  H    0.250480   0.004983
 Sum of Mulliken charges =  -0.00000   1.00000
 Mulliken charges and spin densities with hydrogens summed into heavy atoms:
               1          2
     1  O   -0.108135   0.003845
     2  C   -0.001771   0.009029
     3  C    0.066970   0.032183
     4  C   -0.021902   0.020000
     5  C    0.064838   0.934943
 APT charges:
               1
     1  O   -0.700468
     2  C   -0.785654
     3  C   -0.546784
     4  C   -1.248146
     5  C   -0.184241
     6  H    0.391757
     7  H    0.342278
     8  H    0.297355
     9  H    0.342225
    10  H    0.555083
    11  H    0.369888
    12  H    0.339912
    13  H    0.357122
    14  H    0.469674
 Sum of APT charges =  -0.00000
 APT charges with hydrogens summed into heavy atoms:
               1
     1  O   -0.230794
     2  C   -0.051619
     3  C    0.163016
     4  C   -0.053483
     5  C    0.172881
 Electronic spatial extent (au):  <R**2>=            656.9446
 Charge=             -0.0000 electrons
 Dipole moment (field-independent basis, Debye):
    X=              1.7272    Y=             -0.1462    Z=              0.5642  Tot=              1.8229
 Quadrupole moment (field-independent basis, Debye-Ang):
   XX=            -39.4200   YY=            -30.5680   ZZ=            -32.9489
   XY=              1.2274   XZ=             -1.8990   YZ=             -0.5781
 Traceless Quadrupole moment (field-independent basis, Debye-Ang):
   XX=             -5.1077   YY=              3.7443   ZZ=              1.3634
   XY=              1.2274   XZ=             -1.8990   YZ=             -0.5781
 Octapole moment (field-independent basis, Debye-Ang**2):
  XXX=             13.1961  YYY=             -4.4218  ZZZ=              1.2322  XYY=             -9.2282
  XXY=             -0.9467  XXZ=              3.4148  XZZ=             -3.1763  YZZ=             -0.4146
  YYZ=              0.3464  XYZ=              2.9343
 Hexadecapole moment (field-independent basis, Debye-Ang**3):
 XXXX=           -770.3498 YYYY=           -105.7027 ZZZZ=            -65.6693 XXXY=             15.0687
 XXXZ=             -8.8715 YYYX=             12.0957 YYYZ=             -0.8183 ZZZX=             -2.5106
 ZZZY=             -0.8145 XXYY=           -121.8041 XXZZ=           -127.7112 YYZZ=            -26.3775
 XXYZ=             -5.7131 YYXZ=             -3.3661 ZZXY=              0.8428
 N-N= 1.747460558473D+02 E-N=-8.923359598637D+02  KE= 2.318653674379D+02
  Exact polarizability:   0.000   0.000   0.000   0.000   0.000   0.000
 Approx polarizability:  64.041   0.801  64.359  -0.293  -0.122  58.795
                          Isotropic Fermi Contact Couplings
        Atom                 a.u.       MegaHertz       Gauss      10(-4) cm-1
     1  O(17)              0.00617      -3.74176      -1.33515      -1.24812
     2  C(13)             -0.03218     -36.17168     -12.90696     -12.06558
     3  C(13)             -0.03483     -39.15510     -13.97151     -13.06074
     4  C(13)              0.02755      30.96893      11.05048      10.33012
     5  C(13)              0.17361     195.17316      69.64264      65.10276
     6  H(1)               0.02386     106.64444      38.05339      35.57276
     7  H(1)               0.00391      17.47860       6.23680       5.83023
     8  H(1)              -0.00043      -1.94139      -0.69274      -0.64758
     9  H(1)              -0.00032      -1.42915      -0.50995      -0.47671
    10  H(1)               0.00042       1.86402       0.66513       0.62177
    11  H(1)               0.02444     109.23251      38.97688      36.43604
    12  H(1)               0.01578      70.55119      25.17442      23.53334
    13  H(1)              -0.01473     -65.81985     -23.48616     -21.95514
    14  H(1)              -0.00022      -0.97465      -0.34778      -0.32511
 --------------------------------------------------------
       Center         ----  Spin Dipole Couplings  ----
                      3XX-RR        3YY-RR        3ZZ-RR
 --------------------------------------------------------
     1   Atom        0.021849     -0.002032     -0.019817
     2   Atom        0.001665     -0.001690      0.000025
     3   Atom        0.007627     -0.008614      0.000987
     4   Atom        0.024564     -0.009427     -0.015136
     5   Atom       -0.526511     -0.188173      0.714684
     6   Atom        0.006541     -0.001170     -0.005371
     7   Atom        0.000720      0.004786     -0.005506
     8   Atom        0.007444     -0.005131     -0.002314
     9   Atom        0.007504     -0.002883     -0.004621
    10   Atom        0.006580     -0.003156     -0.003424
    11   Atom        0.004695      0.004472     -0.009167
    12   Atom        0.000720     -0.000988      0.000268
    13   Atom       -0.068370      0.049886      0.018484
    14   Atom        0.012794     -0.005409     -0.007385
 --------------------------------------------------------
                        XY            XZ            YZ
 --------------------------------------------------------
     1   Atom       -0.001075      0.006740     -0.000672
     2   Atom        0.006215      0.000363     -0.007905
     3   Atom       -0.007190      0.006991     -0.002610
     4   Atom       -0.012625     -0.000490     -0.000780
     5   Atom       -0.068434      0.132328     -0.652958
     6   Atom        0.011665     -0.005147     -0.005143
     7   Atom        0.010931      0.006042      0.005449
     8   Atom       -0.003343      0.006889     -0.003789
     9   Atom       -0.005512     -0.003285      0.001557
    10   Atom        0.001301      0.001223     -0.000235
    11   Atom       -0.010967     -0.000251     -0.002234
    12   Atom       -0.009185     -0.010435      0.008817
    13   Atom        0.000625      0.006547      0.035324
    14   Atom        0.007527     -0.002955     -0.002046
 --------------------------------------------------------


 ---------------------------------------------------------------------------------
              Anisotropic Spin Dipole Couplings in Principal Axis System
 ---------------------------------------------------------------------------------

       Atom             a.u.   MegaHertz   Gauss  10(-4) cm-1        Axes

              Baa    -0.0209     1.512     0.539     0.504 -0.1551  0.0264  0.9876
     1 O(17)  Bbb    -0.0021     0.150     0.054     0.050  0.0502  0.9986 -0.0188
              Bcc     0.0230    -1.662    -0.593    -0.554  0.9866 -0.0466  0.1562
 
              Baa    -0.0108    -1.452    -0.518    -0.484 -0.3844  0.7398  0.5522
     2 C(13)  Bbb     0.0014     0.185     0.066     0.062  0.7701 -0.0729  0.6338
              Bcc     0.0094     1.267     0.452     0.423  0.5091  0.6688 -0.5417
 
              Baa    -0.0113    -1.522    -0.543    -0.508  0.3557  0.9346 -0.0038
     3 C(13)  Bbb    -0.0031    -0.421    -0.150    -0.141 -0.4512  0.1753  0.8751
              Bcc     0.0145     1.943     0.693     0.648  0.8185 -0.3095  0.4840
 
              Baa    -0.0155    -2.086    -0.745    -0.696  0.1355  0.3953  0.9085
     4 C(13)  Bbb    -0.0132    -1.770    -0.632    -0.590  0.2832  0.8633 -0.4178
              Bcc     0.0287     3.857     1.376     1.286  0.9494 -0.3139 -0.0050
 
              Baa    -0.5405   -72.527   -25.879   -24.192  0.9921 -0.0318 -0.1212
     5 C(13)  Bbb    -0.5305   -71.186   -25.401   -23.745  0.0841  0.8861  0.4557
              Bcc     1.0710   143.713    51.280    47.937  0.0929 -0.4623  0.8818
 
              Baa    -0.0101    -5.388    -1.923    -1.797 -0.4427  0.8054  0.3942
     6 H(1)   Bbb    -0.0072    -3.819    -1.363    -1.274  0.4683 -0.1673  0.8676
              Bcc     0.0173     9.208     3.286     3.071  0.7647  0.5687 -0.3032
 
              Baa    -0.0095    -5.063    -1.806    -1.689  0.6870 -0.2683 -0.6753
     7 H(1)   Bbb    -0.0073    -3.894    -1.390    -1.299  0.3901 -0.6479  0.6543
              Bcc     0.0168     8.957     3.196     2.988  0.6131  0.7129  0.3404
 
              Baa    -0.0079    -4.232    -1.510    -1.412 -0.1381  0.7343  0.6646
     8 H(1)   Bbb    -0.0044    -2.327    -0.830    -0.776  0.5177  0.6256 -0.5836
              Bcc     0.0123     6.559     2.340     2.188  0.8444 -0.2634  0.4665
 
              Baa    -0.0055    -2.954    -1.054    -0.985  0.0280 -0.4621  0.8864
     9 H(1)   Bbb    -0.0052    -2.778    -0.991    -0.927  0.4498  0.7977  0.4017
              Bcc     0.0107     5.732     2.045     1.912  0.8927 -0.3874 -0.2302
 
              Baa    -0.0039    -2.054    -0.733    -0.685 -0.1659  0.5810  0.7968
    10 H(1)   Bbb    -0.0030    -1.620    -0.578    -0.540 -0.0334  0.8043 -0.5933
              Bcc     0.0069     3.674     1.311     1.226  0.9856  0.1251  0.1141
 
              Baa    -0.0101    -5.380    -1.920    -1.795  0.2675  0.3399  0.9016
    11 H(1)   Bbb    -0.0055    -2.959    -1.056    -0.987  0.6553  0.6218 -0.4289
              Bcc     0.0156     8.339     2.976     2.782  0.7064 -0.7056  0.0564
 
              Baa    -0.0100    -5.312    -1.896    -1.772  0.7383  0.1005  0.6669
    12 H(1)   Bbb    -0.0091    -4.841    -1.727    -1.615  0.2987  0.8378 -0.4570
              Bcc     0.0190    10.153     3.623     3.387  0.6046 -0.5367 -0.5885
 
              Baa    -0.0689   -36.762   -13.118   -12.262  0.9964  0.0193 -0.0825
    13 H(1)   Bbb    -0.0041    -2.166    -0.773    -0.723  0.0795 -0.5467  0.8335
              Bcc     0.0730    38.928    13.890    12.985  0.0290  0.8371  0.5463
 
              Baa    -0.0089    -4.765    -1.700    -1.589 -0.1653  0.7352  0.6574
    14 H(1)   Bbb    -0.0071    -3.782    -1.350    -1.262  0.3318 -0.5863  0.7390
              Bcc     0.0160     8.547     3.050     2.851  0.9288  0.3403 -0.1470
 

 ---------------------------------------------------------------------------------

 No NMR shielding tensors so no spin-rotation constants.
 Leave Link  601 at Tue Apr  9 01:03:02 2019, MaxMem=   671088640 cpu:               8.5 elap:               0.5
 (Enter /shared/centos7/gaussian/g16/l701.exe)
 SCFChk:  SCF convergence  9.58D-09 required  1.00D-08
 ... and contract with generalized density number  0.
 Compute integral second derivatives.
 Entering OneElI...
 Calculate overlap and kinetic energy integrals
    NBasis = 276  MinDer = 2  MaxDer = 2
 Requested accuracy = 0.1000D-12
 PrmmSu-InSpLW:  IPartL=    0 NPrtUS=   20 NPrtUL=    1 DoSpLW=F IThBeg=    0 IThEnd=   19 NThAct=   20.
 PrsmSu:  NPrtUS=  20 ThrOK=T IAlg=1 NPAlg=1 LenDen=           0 ISkipM=0 DoSpLW=F IThBeg=    0 IThEnd=   19.
 Prism:   IPart=     0 DynPar=F LinDyn=F Incr=           1.
 PRISM was handed    33458790 working-precision words and  3628 shell-pairs
 PRISM was handed    33458790 working-precision words and  3628 shell-pairs
 PRISM was handed    33458790 working-precision words and  3628 shell-pairs
 PRISM was handed    33458790 working-precision words and  3628 shell-pairs
 PRISM was handed    33458790 working-precision words and  3628 shell-pairs
 PRISM was handed    33458790 working-precision words and  3628 shell-pairs
 PRISM was handed    33458790 working-precision words and  3628 shell-pairs
 PRISM was handed    33458790 working-precision words and  3628 shell-pairs
 PRISM was handed    33458790 working-precision words and  3628 shell-pairs
 PRISM was handed    33458790 working-precision words and  3628 shell-pairs
 PRISM was handed    33458790 working-precision words and  3628 shell-pairs
 PRISM was handed    33458790 working-precision words and  3628 shell-pairs
 PRISM was handed    33458790 working-precision words and  3628 shell-pairs
 PRISM was handed    33458790 working-precision words and  3628 shell-pairs
 PRISM was handed    33458790 working-precision words and  3628 shell-pairs
 PRISM was handed    33458790 working-precision words and  3628 shell-pairs
 PRISM was handed    33458790 working-precision words and  3628 shell-pairs
 PRISM was handed    33458790 working-precision words and  3628 shell-pairs
 PRISM was handed    33458790 working-precision words and  3628 shell-pairs
 PRISM was handed    33458790 working-precision words and  3628 shell-pairs
 IPart=  5 NShTot=         189 NBatch=          37 AvBLen=         5.1
 IPart=  2 NShTot=         202 NBatch=          47 AvBLen=         4.3
 IPart=  3 NShTot=         199 NBatch=          44 AvBLen=         4.5
 IPart=  4 NShTot=         193 NBatch=          41 AvBLen=         4.7
 IPart=  1 NShTot=         209 NBatch=          53 AvBLen=         3.9
 IPart=  6 NShTot=         189 NBatch=          37 AvBLen=         5.1
 IPart=  8 NShTot=         182 NBatch=          36 AvBLen=         5.1
 IPart=  7 NShTot=         183 NBatch=          37 AvBLen=         4.9
 IPart= 14 NShTot=         170 NBatch=          30 AvBLen=         5.7
 IPart= 12 NShTot=         173 NBatch=          31 AvBLen=         5.6
 IPart= 16 NShTot=         165 NBatch=          29 AvBLen=         5.7
 IPart= 15 NShTot=         167 NBatch=          29 AvBLen=         5.8
 IPart=  0 NShTot=         214 NBatch=          57 AvBLen=         3.8
 IPart= 17 NShTot=         164 NBatch=          29 AvBLen=         5.7
 IPart= 13 NShTot=         172 NBatch=          31 AvBLen=         5.5
 IPart= 10 NShTot=         177 NBatch=          34 AvBLen=         5.2
 IPart=  9 NShTot=         179 NBatch=          34 AvBLen=         5.3
 IPart= 19 NShTot=         161 NBatch=          28 AvBLen=         5.8
 IPart= 11 NShTot=         177 NBatch=          34 AvBLen=         5.2
 IPart= 18 NShTot=         163 NBatch=          28 AvBLen=         5.8
 PrSmSu:  NxtVal=             21.
 Entering OneElI...
 Calculate potential energy integrals
    NBasis = 276  MinDer = 2  MaxDer = 2
 Requested accuracy = 0.1000D-12
 PrmmSu-InSpLW:  IPartL=    0 NPrtUS=   20 NPrtUL=    1 DoSpLW=F IThBeg=    0 IThEnd=   19 NThAct=   20.
 PrsmSu:  NPrtUS=  20 ThrOK=T IAlg=1 NPAlg=1 LenDen=           0 ISkipM=0 DoSpLW=F IThBeg=    0 IThEnd=   19.
 Prism:   IPart=     0 DynPar=F LinDyn=F Incr=          23.
 PRISM was handed    33471306 working-precision words and  3423 shell-pairs
 PRISM was handed    33471306 working-precision words and  3423 shell-pairs
 PRISM was handed    33471306 working-precision words and  3423 shell-pairs
 PRISM was handed    33471306 working-precision words and  3423 shell-pairs
 PRISM was handed    33471306 working-precision words and  3423 shell-pairs
 PRISM was handed    33471306 working-precision words and  3423 shell-pairs
 PRISM was handed    33471306 working-precision words and  3423 shell-pairs
 PRISM was handed    33471306 working-precision words and  3423 shell-pairs
 PRISM was handed    33471306 working-precision words and  3423 shell-pairs
 PRISM was handed    33471306 working-precision words and  3423 shell-pairs
 PRISM was handed    33471306 working-precision words and  3423 shell-pairs
 PRISM was handed    33471306 working-precision words and  3423 shell-pairs
 PRISM was handed    33471306 working-precision words and  3423 shell-pairs
 PRISM was handed    33471306 working-precision words and  3423 shell-pairs
 PRISM was handed    33471306 working-precision words and  3423 shell-pairs
 PRISM was handed    33471306 working-precision words and  3423 shell-pairs
 PRISM was handed    33471306 working-precision words and  3423 shell-pairs
 PRISM was handed    33471306 working-precision words and  3423 shell-pairs
 PRISM was handed    33471306 working-precision words and  3423 shell-pairs
 PRISM was handed    33471306 working-precision words and  3423 shell-pairs
 IPart= 19 NShTot=        2114 NBatch=         151 AvBLen=        14.0
 IPart= 14 NShTot=        2212 NBatch=         158 AvBLen=        14.0
 IPart= 16 NShTot=        2184 NBatch=         156 AvBLen=        14.0
 IPart= 15 NShTot=        2184 NBatch=         156 AvBLen=        14.0
 IPart= 11 NShTot=        2310 NBatch=         165 AvBLen=        14.0
 IPart= 13 NShTot=        2254 NBatch=         161 AvBLen=        14.0
 IPart= 12 NShTot=        2310 NBatch=         165 AvBLen=        14.0
 IPart=  5 NShTot=        2506 NBatch=         179 AvBLen=        14.0
 IPart= 10 NShTot=        2338 NBatch=         167 AvBLen=        14.0
 IPart=  9 NShTot=        2380 NBatch=         170 AvBLen=        14.0
 IPart=  7 NShTot=        2464 NBatch=         176 AvBLen=        14.0
 IPart=  2 NShTot=        2660 NBatch=         190 AvBLen=        14.0
 IPart=  3 NShTot=        2604 NBatch=         186 AvBLen=        14.0
 IPart=  0 NShTot=        2842 NBatch=         203 AvBLen=        14.0
 IPart=  1 NShTot=        2758 NBatch=         197 AvBLen=        14.0
 IPart= 18 NShTot=        2156 NBatch=         154 AvBLen=        14.0
 IPart= 17 NShTot=        2156 NBatch=         154 AvBLen=        14.0
 IPart=  6 NShTot=        2478 NBatch=         177 AvBLen=        14.0
 IPart=  8 NShTot=        2422 NBatch=         173 AvBLen=        14.0
 IPart=  4 NShTot=        2590 NBatch=         185 AvBLen=        14.0
 PrSmSu:  NxtVal=            461.
 Polarizability after L701:
                1             2             3 
      1  0.000000D+00
      2  0.000000D+00  0.000000D+00
      3  0.000000D+00  0.000000D+00  0.000000D+00
 Dipole Derivatives after L701:
                 1             2             3             4             5 
      1  -0.674406D+00 -0.951597D+00  0.156320D+00 -0.225765D+00 -0.981569D+00
      2   0.124575D+00 -0.893487D+00  0.212859D+00 -0.134249D+00 -0.112801D+01
      3  -0.136725D-01  0.189414D+00 -0.533512D+00 -0.899398D-02 -0.325009D-01
                 6             7             8             9            10 
      1   0.192048D+00  0.125113D-02  0.109007D+01  0.384563D+00 -0.186427D+01
      2  -0.690377D-02  0.499911D-01 -0.849546D+00 -0.540693D-01 -0.547868D-01
      3  -0.100318D+01  0.911518D-02 -0.644235D-01 -0.792057D+00  0.309322D-01
                11            12            13            14            15 
      1   0.670678D+00 -0.214737D+00 -0.581886D-01 -0.128428D+00 -0.615929D-01
      2  -0.881776D+00 -0.269855D-01 -0.635189D-02 -0.305650D+00 -0.185983D+00
      3  -0.790412D-02 -0.998389D+00 -0.540145D-02 -0.262678D+00 -0.188884D+00
                16            17            18            19            20 
      1   0.302371D+00  0.277520D+00 -0.521090D+00  0.147912D+00  0.374883D+00
      2   0.890134D-01  0.340715D+00 -0.369171D+00 -0.946607D-02  0.520223D+00
      3  -0.845658D-01 -0.189009D+00  0.532184D+00 -0.673478D-02  0.195924D+00
                21            22            23            24            25 
      1   0.342051D+00  0.806672D-02 -0.479792D+00  0.815599D+00  0.213451D+00
      2   0.368294D+00  0.416540D-01  0.308278D+00 -0.337679D+00 -0.502284D-01
      3   0.358698D+00 -0.810410D-01 -0.236389D+00  0.575719D+00 -0.148164D-01
                26            27            28            29            30 
      1  -0.739181D+00 -0.731884D+00  0.136942D+01  0.814965D+00  0.639195D-01
      2   0.469840D+00  0.357760D+00  0.785246D-01  0.185183D+00  0.493562D-03
      3   0.196707D+00  0.343383D+00  0.794942D-01  0.479707D-01  0.110647D+00
                31            32            33            34            35 
      1   0.246553D+00 -0.538039D+00  0.372112D+00  0.155191D+00 -0.225775D+00
      2  -0.621434D-01  0.569341D+00 -0.284926D+00  0.133239D-01  0.283668D+00
      3   0.511723D-01 -0.163722D+00  0.293770D+00 -0.140854D-03  0.141435D+00
                36            37            38            39            40 
      1  -0.515300D+00  0.142817D+00  0.464475D-01  0.212067D-01  0.235601D+00
      2   0.286000D+00  0.296878D-02  0.594782D+00  0.264172D+00 -0.828250D-01
      3   0.580877D+00 -0.292388D-02  0.372224D+00  0.333766D+00  0.475769D-01
                41            42 
      1   0.769815D+00 -0.303214D+00
      2   0.786442D+00 -0.223860D+00
      3  -0.187047D+00  0.386978D+00
 Hessian after L701:
                1             2             3             4             5 
      1  0.576388D+01
      2 -0.279494D+01  0.590378D+01
      3 -0.430772D+00  0.124912D+01  0.109881D+02
      4  0.348497D+00  0.152490D+00  0.112158D+00  0.100318D+02
      5  0.136632D+00 -0.148384D+00  0.630162D-02 -0.708306D-01  0.126344D+02
      6  0.111252D+00  0.131075D-01 -0.193363D+00 -0.464243D+00 -0.528660D-01
      7 -0.217570D+01  0.344005D+01  0.242201D+00  0.557528D-01 -0.130227D+00
      8  0.341997D+01 -0.384518D+01  0.203986D+00  0.305481D-01 -0.866435D-01
      9  0.187345D+00  0.186793D+00 -0.663684D+01  0.640817D-01  0.232420D-01
     10  0.889868D-01 -0.266441D-01 -0.108876D-01 -0.217351D+01 -0.196350D+01
     11  0.132118D-01 -0.716980D-01  0.253405D-02 -0.200135D+01 -0.332920D+01
     12 -0.168865D-01  0.109534D-02 -0.694825D-01  0.617459D+00 -0.501708D+00
     13  0.623505D+00 -0.548393D-01 -0.239342D+00 -0.114131D+01  0.173809D+01
     14  0.124732D+00 -0.338457D+00 -0.193015D-01  0.172937D+01 -0.393270D+01
     15 -0.225836D+00 -0.185242D-01 -0.260616D+00  0.303963D+00  0.171051D+00
     16  0.118523D-01  0.479241D-02 -0.656172D-02 -0.351768D+01  0.294808D+00
     17  0.170160D-01 -0.885107D-02 -0.385865D-02  0.274890D+00 -0.294745D+01
     18 -0.243048D-01 -0.274603D-02 -0.432368D-02 -0.439542D+00 -0.106028D+01
     19  0.295519D-01  0.189706D-01  0.845686D-02 -0.368451D+01 -0.448360D-02
     20  0.424719D-01 -0.539458D-02  0.901317D-02 -0.853607D-01 -0.215059D+01
     21  0.264515D-01  0.751508D-02 -0.116250D-01 -0.837567D-01  0.134043D+01
     22  0.127994D-01 -0.465088D-02  0.527651D-02  0.295860D-02  0.509434D-01
     23 -0.112725D-01 -0.444252D-02 -0.333746D-02  0.196789D-02 -0.263451D-01
     24  0.221035D-01 -0.880306D-02 -0.204569D-02  0.749300D-02  0.499491D-03
     25  0.169897D-01 -0.752127D-02 -0.270455D-02  0.225910D-01  0.401290D-01
     26 -0.156037D-01 -0.106978D-02  0.168413D-02 -0.221977D-01 -0.343574D-01
     27 -0.153456D-01  0.747451D-02 -0.666381D-02 -0.288200D-01  0.325798D-01
     28  0.208893D-01 -0.314715D-02  0.231590D-02 -0.200773D-01  0.185679D-01
     29  0.959932D-02 -0.723432D-02  0.798466D-03  0.537087D-01  0.656364D-01
     30  0.106368D-02 -0.834387D-04 -0.540490D-02 -0.149707D-01 -0.351069D-02
     31 -0.342312D-01 -0.150938D+00  0.312748D-02  0.613908D-01 -0.225767D-01
     32 -0.128976D+00  0.600597D-02 -0.127732D+00 -0.431311D-01 -0.999556D-03
     33 -0.197458D-01 -0.124355D+00  0.163280D+00  0.226024D-01 -0.143636D-01
     34 -0.103764D+00 -0.544414D-01  0.628162D-01  0.553397D-01 -0.445577D-01
     35 -0.398144D-01  0.380180D-01  0.179002D+00 -0.540820D-01 -0.394282D-01
     36  0.102490D+00  0.180227D+00  0.369090D+00 -0.967092D-01  0.411930D-01
     37  0.935902D-01 -0.447683D-01 -0.329238D-01 -0.377223D-01 -0.485193D-01
     38 -0.109676D+00 -0.287352D-01  0.323450D-01  0.139684D-01 -0.588710D-02
     39 -0.748429D-01  0.325874D-01 -0.553887D-01  0.868829D-02  0.203210D-01
     40 -0.469684D+01 -0.474418D+00  0.286841D+00 -0.355573D-02  0.551889D-02
     41 -0.663356D+00 -0.148835D+01 -0.153055D+01  0.200037D-01  0.192342D-02
     42  0.357028D+00 -0.152341D+01 -0.427476D+01 -0.840368D-02 -0.288826D-02
                6             7             8             9            10 
      6  0.139202D+02
      7  0.693898D-01  0.106616D+02
      8  0.526865D-02 -0.157875D+01  0.141344D+02
      9 -0.142905D+00  0.440633D+00 -0.528563D+00  0.168515D+02
     10  0.609878D+00  0.220711D+00 -0.322866D-01 -0.597446D-02  0.943283D+01
     11 -0.508247D+00 -0.424596D-01 -0.113681D+00  0.376204D-03  0.105001D+01
     12 -0.461637D+01 -0.319788D-01  0.103543D-02 -0.132012D+00 -0.390737D+00
     13  0.277954D+00 -0.136604D+01 -0.156841D+01 -0.105677D+01  0.251541D+00
     14  0.188289D+00 -0.155540D+01 -0.506051D+01  0.416865D+00 -0.736998D-01
     15 -0.480676D+01 -0.111309D+01  0.434958D+00 -0.533518D+01  0.145023D+00
     16 -0.478402D+00  0.339164D-01  0.168622D-01 -0.768700D-02  0.251078D-01
     17 -0.107966D+01  0.136063D-01  0.762581D-02 -0.196940D-02  0.266020D-01
     18 -0.185417D+01 -0.316262D-01 -0.209947D-01  0.478344D-02 -0.249457D-01
     19 -0.140821D-01  0.689872D-01  0.579129D-01  0.210748D-01  0.611018D-02
     20  0.136197D+01  0.107997D+00 -0.286592D-01  0.207879D-01 -0.376314D-02
[...]
 ! A21   A(2,5,13)             119.1068         -DE/DX =    0.0                 !
 ! A22   A(3,5,13)             117.0185         -DE/DX =    0.0                 !
 ! D1    D(14,1,3,5)            51.008          -DE/DX =    0.0                 !
 ! D2    D(14,1,3,11)          172.3877         -DE/DX =    0.0                 !
 ! D3    D(14,1,3,12)          -72.9293         -DE/DX =    0.0                 !
 ! D4    D(5,2,4,8)            -60.0552         -DE/DX =    0.0                 !
 ! D5    D(5,2,4,9)             59.3493         -DE/DX =    0.0                 !
 ! D6    D(5,2,4,10)           179.4799         -DE/DX =    0.0                 !
 ! D7    D(6,2,4,8)            177.4311         -DE/DX =    0.0                 !
 ! D8    D(6,2,4,9)            -63.1644         -DE/DX =    0.0                 !
 ! D9    D(6,2,4,10)            56.9661         -DE/DX =    0.0                 !
 ! D10   D(7,2,4,8)             62.5841         -DE/DX =    0.0                 !
 ! D11   D(7,2,4,9)           -178.0113         -DE/DX =    0.0                 !
 ! D12   D(7,2,4,10)           -57.8808         -DE/DX =    0.0                 !
 ! D13   D(4,2,5,3)            167.6473         -DE/DX =    0.0                 !
 ! D14   D(4,2,5,13)           -30.7048         -DE/DX =    0.0                 !
 ! D15   D(6,2,5,3)            -70.3989         -DE/DX =    0.0                 !
 ! D16   D(6,2,5,13)            91.2491         -DE/DX =    0.0                 !
 ! D17   D(7,2,5,3)             44.5954         -DE/DX =    0.0                 !
 ! D18   D(7,2,5,13)          -153.7567         -DE/DX =    0.0                 !
 ! D19   D(1,3,5,2)           -159.7264         -DE/DX =    0.0                 !
 ! D20   D(1,3,5,13)            38.2602         -DE/DX =    0.0                 !
 ! D21   D(11,3,5,2)            82.3826         -DE/DX =    0.0                 !
 ! D22   D(11,3,5,13)          -79.6307         -DE/DX =    0.0                 !
 ! D23   D(12,3,5,2)           -35.1096         -DE/DX =    0.0                 !
 ! D24   D(12,3,5,13)          162.8771         -DE/DX =    0.0                 !
 --------------------------------------------------------------------------------
 GradGradGradGradGradGradGradGradGradGradGradGradGradGradGradGradGradGrad

 Leave Link  103 at Tue Apr  9 01:14:53 2019, MaxMem=   671088640 cpu:               0.4 elap:               0.0
 (Enter /shared/centos7/gaussian/g16/l9999.exe)

 ----------------------------------------------------------------------

 Electric dipole moment (input orientation):
 (Debye = 10**-18 statcoulomb cm , SI units = C m)
                  (au)            (Debye)         (10**-30 SI)
   Tot        0.754294D+00      0.191722D+01      0.639517D+01
   x         -0.345073D+00     -0.877089D+00     -0.292565D+01
   y          0.661225D+00      0.168067D+01      0.560610D+01
   z         -0.112535D+00     -0.286034D+00     -0.954107D+00

 Dipole polarizability, Alpha (input orientation).
 (esu units = cm**3 , SI units = C**2 m**2 J**-1)
 Alpha(0;0):
               (au)            (10**-24 esu)      (10**-40 SI)
   iso        0.550677D+02      0.816020D+01      0.907944D+01
   aniso      0.153788D+02      0.227890D+01      0.253562D+01
   xx         0.562823D+02      0.834018D+01      0.927971D+01
   yx        -0.493531D+01     -0.731338D+00     -0.813723D+00
   yy         0.608193D+02      0.901250D+01      0.100278D+02
   zx        -0.202550D+01     -0.300149D+00     -0.333960D+00
   zy         0.297216D+01      0.440429D+00      0.490043D+00
   zz         0.481015D+02      0.712791D+01      0.793087D+01

 ----------------------------------------------------------------------

 Dipole orientation:
     8          8.82592185         22.06950460          2.99089501
     6          8.80319861         19.49723002          9.66604993
     6          9.85035092         20.66591322          5.02577681
     6          6.65192420         19.61285685         11.58403636
     6          7.98490144         20.16344659          7.06104652
     1          9.62375845         17.58813729          9.68567581
     1         10.34183477         20.75248764         10.24504004
     1          5.85570472         21.51027758         11.66892388
     1          5.13912907         18.31774894         11.05614691
     1          7.29898976         19.10059587         13.46894631
     1         10.52557518         18.89973194          4.17736930
     1         11.51835159         21.61100603          5.81822395
     1          6.06470640         19.74265508          6.48093249
     1          8.00592687         23.53605812          3.67493649

 Electric dipole moment (dipole orientation):
 (Debye = 10**-18 statcoulomb cm , SI units = C m)
                  (au)            (Debye)         (10**-30 SI)
   Tot        0.754294D+00      0.191722D+01      0.639517D+01
   x          0.000000D+00      0.000000D+00      0.000000D+00
   y          0.000000D+00      0.000000D+00      0.000000D+00
   z          0.754294D+00      0.191722D+01      0.639517D+01

 Dipole polarizability, Alpha (dipole orientation).
 (esu units = cm**3 , SI units = C**2 m**2 J**-1)
 Alpha(0;0):
               (au)            (10**-24 esu)      (10**-40 SI)
   iso        0.550677D+02      0.816020D+01      0.907944D+01
   aniso      0.153788D+02      0.227890D+01      0.253562D+01
   xx         0.528722D+02      0.783486D+01      0.871745D+01
   yx        -0.119686D+01     -0.177356D+00     -0.197335D+00
   yy         0.498397D+02      0.738548D+01      0.821746D+01
   zx        -0.344443D+01     -0.510412D+00     -0.567910D+00
   zy        -0.468067D+01     -0.693603D+00     -0.771738D+00
   zz         0.624913D+02      0.926025D+01      0.103034D+02

 ----------------------------------------------------------------------

 Test job not archived.
 1\1\GINC-C0300\Freq\UM062X\6-311+G(2df,2p)\C4H9O1(2)\UNDERKOFFLER.C\09
 -Apr-2019\0\\#P Geom=AllCheck Guess=TCheck SCRF=Check Test GenChk UM06
 2X/6-311+G(2df,2p) Freq\\Gaussian input prepared by ASE\\0,2\O,-0.9796
 566058,-0.851959656,-12.6104842487\C,-2.1304484279,2.6913217976,-11.93
 87402547\C,-0.7697008032,0.5272483919,-12.3680324355\C,-3.5472040709,3
 .1635062078,-11.6230044814\C,-1.9770013853,1.2149858268,-11.8440263782
 \H,-1.4275109806,3.1866599451,-11.2533374131\H,-1.8364891501,3.0239686
 943,-12.9392304845\H,-4.2627528229,2.7231914548,-12.3171365735\H,-3.83
 49910153,2.8663227072,-10.614318431\H,-3.6288660031,4.2471892089,-11.6
 908323933\H,0.0540835657,0.5680248611,-11.6452098186\H,-0.4141499996,1
 .0371825055,-13.2728115893\H,-2.5899274347,0.6650569614,-11.1381731357
 \H,-1.7709762704,-0.9431863937,-13.1462903472\\Version=EM64L-G16RevA.0
 3\State=2-A\HF=-232.9670211\S2=0.75507\S2-1=0.\S2A=0.750021\RMSD=1.515
 e-09\RMSF=9.757e-07\ZeroPoint=0.1233516\Thermal=0.1304733\Dipole=-0.34
 50733,0.6612255,-0.1125345\DipoleDeriv=-0.4150766,-0.0514991,0.1063915
 ,0.0134639,-1.0023643,-0.1479853,0.1188583,-0.1780024,-0.4685974,0.089
 145,-0.0256999,0.0421677,0.0326135,0.0390883,0.0121713,0.0594436,-0.01
 94034,0.1226494,0.3069363,0.081214,0.0212364,0.0028419,0.7839572,0.108
 7327,-0.0322575,0.1544109,0.3562477,0.0518146,-0.0065538,0.0062073,0.0
 373012,0.0478901,-0.0115408,0.0037735,0.0076694,0.0893855,-0.1098529,0
 .0427834,-0.1289498,-0.0728583,0.054637,-0.0850182,-0.1273859,-0.14020
 95,-0.146566,-0.0674,-0.0446056,-0.0697343,-0.0205103,-0.0538464,-0.05
 3816,-0.0846633,-0.0724174,-0.0036959,0.0012433,0.0115272,0.0659807,0.
 0067542,0.0091003,0.0272336,0.0763147,0.065722,-0.1012218,-0.0468729,-
 0.0115482,-0.0466742,-0.068629,0.0340069,-0.062017,-0.0880881,-0.04860
 64,-0.0192966,0.0167395,0.0135838,0.0238816,-0.0202457,0.047806,0.0695
 129,0.0687561,0.0365141,-0.1017788,0.0224833,0.0220828,0.0147447,0.061
 0195,-0.1517371,0.0013384,0.0104,0.0113638,0.0698951,-0.0806655,0.0073
 131,-0.0681024,0.0368861,-0.0115834,-0.0229136,-0.097748,-0.0285474,-0
 .0104875,0.0202373,-0.0354202,0.0363745,-0.0487678,-0.0805917,0.065039
 7,0.0795067,0.0987661,-0.0904955,0.0155849,0.0086551,0.0902013,0.00421
 56,-0.0180997,0.0421327,0.0933724,0.0652709,0.0263953,0.1956838,-0.011
 8326,-0.093725,0.0359151,0.3017367,0.0571296,-0.0802827,0.0474692,0.27
 75665\Polar=56.2823447,-4.9353101,60.8193378,-2.0255039,2.972163,48.10
 15371\Quadrupole=0.2524858,-2.1388317,1.8863459,2.9387669,0.5992356,0.
 6260909\PG=C01 [X(C4H9O1)]\NImag=0\\0.44819561,0.06235453,0.37146774,0
 .26535191,0.06564833,0.22949936,-0.00300952,0.00454333,0.00192336,0.49
 065176,0.00051724,0.00076167,0.00042239,0.01518756,0.49078502,0.002055
 10,-0.00411336,-0.00066939,-0.01520839,-0.01676035,0.54449989,-0.08265
 480,-0.00868122,-0.01411090,0.00621738,0.00262377,-0.00101695,0.524704
 21,-0.04522001,-0.23684176,-0.03430353,0.02517217,-0.01109460,-0.00660
 570,0.01668342,0.49298848,-0.01679551,-0.01417997,-0.07575101,0.000192
 83,-0.00122409,0.00308881,0.00621818,-0.03383019,0.54821879,0.00050338
 ,-0.00106224,-0.00028735,-0.18481875,0.03219795,0.02411686,-0.00045584
 ,-0.00100537,-0.00025341,0.48905446,0.00121857,-0.00179047,-0.00090316
 ,0.03261499,-0.08646152,-0.00287008,-0.00196599,-0.00398700,0.00168829
 ,0.02653014,0.57802255,-0.00025529,0.00014852,0.00050837,0.02455850,-0
 .00465328,-0.08387976,0.00108123,0.00056307,-0.00029347,0.02015335,-0.
 00674397,0.56970485,0.00423762,0.00149004,-0.00133385,-0.07606845,0.01
 397852,0.01808613,-0.17934539,0.05491014,0.05911439,-0.00474560,0.0365
 8725,-0.00133875,0.42227169,0.03280631,-0.04069545,-0.01905081,0.01901
 393,-0.22741185,0.01381354,0.04693684,-0.10637926,-0.01168915,0.007451
 86,-0.01701471,-0.00163317,-0.02136870,0.54007191,0.00364724,-0.004488
 84,0.00256889,0.01763839,0.01938663,-0.06391536,0.06184730,-0.01488920
 ,-0.08554151,0.00081628,-0.01061282,0.00018881,-0.21918327,-0.09457711
 ,0.29224426,0.00011509,-0.00021091,-0.00007296,-0.13928311,-0.06227521
 ,-0.09556996,-0.00052710,-0.00044253,-0.00037437,-0.02325113,-0.012887
 47,-0.02023947,0.00371311,-0.00295583,0.00314797,0.15723912,0.00093959
 ,-0.00051531,0.00016358,-0.07321017,-0.08929655,-0.07268795,-0.0003404
 2,0.00113518,0.00141744,0.00805174,0.00518789,0.00698024,-0.01814814,-
 0.02445579,-0.01791509,0.07397690,0.10409119,0.00021447,-0.00016870,-0
 .00004686,-0.09735023,-0.06336247,-0.14148553,0.00000931,-0.00024011,0
 .00057572,0.00574387,0.00308674,0.00468568,0.00344974,-0.00209988,0.00
 394704,0.10693655,0.07607417,0.15376426,-0.00014714,0.00006229,0.00000
 589,-0.06338146,-0.01575459,0.05890350,0.00004995,0.00045929,-0.001150
 32,-0.00865525,-0.00882069,0.02942323,0.00035986,-0.00293814,-0.001382
 91,0.00478889,0.00569908,-0.01931461,0.06975901,0.00045490,0.00049297,
 -0.00071320,-0.01744876,-0.06761110,0.07203659,-0.00179844,0.00054506,
 0.00124589,0.00306322,0.00276019,-0.01097802,-0.01135403,-0.01553061,0
 .02916574,0.00347993,0.00470721,-0.01326256,0.01976310,0.07920418,-0.0
 0041498,-0.00027301,0.00039194,0.06059776,0.06948854,-0.26128150,0.000
 89318,-0.00039925,0.00006784,0.00153357,0.00067195,-0.00454505,0.00103
 897,0.00322652,0.00004764,0.00435998,0.00560881,-0.02175858,-0.0674621
 1,-0.07710812,0.28477729,0.00003971,0.00018065,0.00010192,-0.02179004,
 -0.01151455,-0.01990078,0.00004052,-0.00002254,0.00005806,-0.15781968,
 -0.07085873,-0.11161341,0.00142927,-0.00175916,0.00000502,-0.00554105,
 0.00260298,0.00183063,0.00115032,-0.00061019,0.00017265,0.17517648,-0.
 00011886,0.00012001,0.00004588,0.00777504,0.00397723,0.00769085,0.0001
 1963,-0.00007208,-0.00008088,-0.07182867,-0.09324174,-0.07067163,0.000
 16683,0.00121994,0.00025952,0.00227691,-0.00012297,-0.00022900,-0.0008
 7863,-0.00001753,0.00006012,0.07651803,0.09649414,-0.00001336,0.000134
 43,0.00000569,0.00628623,0.00360828,0.00567773,0.00006938,0.00008683,-
 0.00003700,-0.11261009,-0.07036183,-0.15991014,-0.00024980,0.00031881,
 0.00019710,0.00205184,-0.00062236,0.00088014,-0.00050980,0.00053755,0.
 00067947,0.12174362,0.07808686,0.16967625,0.00005619,0.00018207,-0.000
 09952,-0.01000409,-0.00836686,0.03111479,-0.00016963,0.00000585,0.0001
 0566,-0.06284070,-0.01867354,0.06084864,0.00106819,-0.00201877,-0.0001
 4784,0.00134222,-0.00071896,-0.00030854,-0.00575651,0.00255081,0.00089
 795,0.00574700,0.00726800,-0.01967768,0.07050434,-0.00011295,0.0000086
 9,0.00010878,0.00280720,0.00208171,-0.01030239,0.00012673,-0.00004996,
 -0.00022510,-0.01937950,-0.06845752,0.06912138,0.00016814,0.00136650,-
 0.00096498,-0.00070325,-0.00003096,0.00039634,0.00208563,-0.00015552,-
 0.00058837,0.00446137,0.00354161,-0.01323433,0.01894200,0.06975003,0.0
 0002902,-0.00018539,0.00000553,0.00184086,0.00132198,-0.00548024,-0.00
 012495,-0.00024361,0.00027353,0.06206992,0.06858845,-0.27844483,-0.000
 44024,0.00070123,0.00024487,0.00030675,-0.00012913,0.00067047,0.001084
 47,-0.00042245,0.00146085,0.00539967,0.00625309,-0.01861871,-0.0698139
 8,-0.07549868,0.30058576,-0.00045122,0.00082942,0.00037221,-0.00155946
 ,0.03238633,-0.00320836,0.00092156,0.00120972,-0.00049154,-0.04826417,
 0.01529783,-0.00143402,-0.00632509,0.00066079,0.00257076,0.00133968,-0
 .00053881,-0.00071220,0.00127444,-0.00049520,0.00017895,0.00149041,-0.
 02100359,0.00311185,-0.00050761,-0.00818770,-0.00043203,0.05227137,0.0
 0016648,-0.00035752,-0.00015258,-0.00071903,-0.00714631,0.00075042,-0.
 00035813,0.00006607,0.00048434,0.01727830,-0.31702976,0.01781645,0.002
 40363,0.00027938,-0.00091336,0.00020654,0.00040533,0.00026601,0.000090
 72,0.00021195,-0.00044560,0.00073551,-0.01186454,0.00132890,0.00012155
 ,-0.00773015,0.00025591,-0.02001779,0.34281395,0.00010481,-0.00011023,
 -0.00006538,0.00063984,-0.00743841,-0.00030155,-0.00007084,-0.00037867
 ,0.00042414,-0.00169377,0.01786272,-0.04887801,0.00139343,0.00007418,0
 .00008380,-0.00037842,0.00049729,-0.00001506,-0.00041522,-0.00028494,-
 0.00001639,0.00251259,-0.02159631,0.00166646,-0.00240682,0.03083329,-0
 .00073978,0.00034935,-0.01922660,0.04778961,-0.00485091,-0.00576743,-0
 .00607038,-0.00042933,-0.00082262,0.00049281,-0.18089776,-0.00744701,-
 0.12664870,0.00005850,0.00056238,0.00022282,-0.02580735,0.00591551,-0.
 01149625,-0.00000229,0.00112600,0.00010176,-0.00002132,0.00005942,-0.0
 0009970,0.00018134,-0.00010620,-0.00000311,-0.00000049,-0.00005489,0.0
 0001641,-0.00009550,0.00016490,0.00008501,0.20215649,-0.03380736,-0.01
 501257,-0.02852004,-0.00147158,0.00048802,-0.00059672,0.00754785,-0.04
 118073,0.00885073,-0.00002335,-0.00003078,-0.00020669,0.01307867,0.001
 06293,0.00752462,-0.00014521,-0.00084483,-0.00031490,0.00024857,0.0000
 2383,0.00000764,-0.00012151,0.00003461,0.00000121,-0.00000289,0.000030
 86,-0.00000838,-0.00002069,-0.00007258,-0.00002274,0.00661653,0.060440
 47,-0.00752299,-0.00525776,-0.00298585,-0.00097306,0.00031273,-0.00022
 178,-0.11575944,-0.00368176,-0.15739831,0.00004213,0.00009206,0.000077
 37,0.00825010,0.00129594,0.01086144,-0.00017354,-0.00019062,-0.0001239
 5,0.00006649,-0.00022601,-0.00005803,0.00000619,-0.00000024,-0.0000251
 9,-0.00001774,0.00002006,-0.00000376,-0.00005417,-0.00001883,-0.000026
 70,0.13625690,0.00694687,0.16980713,0.00087778,-0.00696320,0.00252995,
 0.00053892,-0.00147992,0.00016083,-0.07209400,-0.03061908,0.06366294,-
 0.00006744,0.00012951,-0.00035093,-0.01397131,-0.01080970,0.02524506,0
 .00004152,0.00007301,-0.00017123,0.00015778,0.00090339,-0.00064941,-0.
 00000475,-0.00003745,0.00004601,0.00019843,-0.00005446,-0.00018052,0.0
 0000696,0.00005595,-0.00005222,0.00817338,0.00972350,-0.02080941,0.079
 89057,-0.01349789,-0.03488843,0.02214444,0.00001790,0.00094309,-0.0008
 4783,-0.03171412,-0.09085279,0.08377781,0.00013780,0.00005009,-0.00034
 351,0.00352937,0.00851904,-0.00987230,0.00000602,-0.00006049,-0.000006
 53,0.00002064,0.00021395,0.00021436,-0.00002486,0.00001773,0.00001105,
 0.00005955,-0.00012615,0.00010320,-0.00005414,0.00000523,0.00004218,0.
 00058506,0.00203724,0.00167312,0.03726563,0.11476523,-0.00266006,-0.00
 273598,0.01389625,-0.00025570,0.00073336,0.00014019,0.06362627,0.08720
 325,-0.22712663,-0.00007237,-0.00039280,0.00044185,0.00510636,0.005804
 08,-0.00849438,0.00002920,-0.00017250,-0.00020657,0.00014688,-0.000847
 36,0.00039888,-0.00005198,0.00004826,-0.00002402,-0.00023904,0.0001222
 3,0.00008411,0.00007721,-0.00007013,-0.00001251,0.00604593,0.00935212,
 -0.01997668,-0.07264883,-0.09771247,0.24021482,0.00277184,0.00025074,-
 0.00236071,0.00374441,0.00298074,0.00007382,-0.01091156,-0.01571762,0.
 01903615,0.00125458,0.00018505,-0.00112607,-0.12969562,-0.07232836,0.1
 1788395,0.00005394,0.00080402,-0.00040884,0.00039807,0.00159698,-0.001
 17595,-0.00005005,-0.00018025,-0.00019336,0.00040309,-0.00013343,0.000
 21413,-0.00005166,-0.00009292,-0.00006015,0.00059373,-0.00025422,-0.00
 066450,-0.00315556,0.00281267,0.00093155,0.13457528,-0.00098687,0.0024
 5872,0.00113435,-0.01422673,-0.00982090,0.02018127,0.00884015,0.007114
 85,-0.00891257,-0.00155573,0.00182733,0.00062610,-0.07523408,-0.122761
 64,0.09750398,-0.00031476,-0.00063922,-0.00022343,0.00005586,-0.004828
 96,-0.00038565,0.00037038,-0.00003441,0.00012450,0.00065758,-0.0002066
 0,-0.00077669,0.00002112,0.00032841,-0.00028503,0.00025191,-0.00006168
 ,0.00009504,0.00242075,-0.00087862,-0.00160787,0.07989997,0.12745392,-
 0.00175826,0.00013462,0.00060350,0.00028601,-0.00177163,0.00362612,0.0
 0338937,0.00585610,-0.00192079,0.00031920,-0.00035711,0.00038603,0.126
 72797,0.10255511,-0.15235227,-0.00004605,0.00074227,-0.00091718,0.0005
 4440,0.00062168,-0.00003908,-0.00025047,0.00019686,-0.00018868,-0.0002
 7239,0.00026769,0.00000442,-0.00024375,-0.00016653,0.00007376,0.001085
 07,-0.00033837,-0.00051488,0.00225528,-0.00036332,-0.00029481,-0.13259
 748,-0.10704728,0.15228568,-0.36568362,-0.04720807,-0.24594957,-0.0008
 0826,0.00034165,-0.00009940,-0.00487755,0.00203357,-0.00267435,0.00004
 764,0.00008069,0.00007016,0.00287907,0.00139340,-0.00059171,-0.0000288
 8,-0.00031681,-0.00002070,0.00002334,-0.00016512,0.00012914,-0.0000494
 8,0.00002922,-0.00005174,-0.00004041,0.00003511,0.00003049,-0.00004972
 ,-0.00003572,-0.00000759,0.00094151,-0.00136831,0.00135305,-0.00059227
 ,0.00085637,-0.00003544,0.00006950,-0.00019955,0.00056110,0.36816913,-
 0.00471369,-0.04520831,-0.00602443,-0.00005584,-0.00019391,0.00031171,
 -0.03802007,-0.01139145,-0.02732254,0.00014384,0.00016546,-0.00002547,
 -0.00020764,0.00172960,0.00039321,-0.00001112,0.00043930,0.00008433,-0
 .00009312,-0.00001564,-0.00007794,0.00004263,-0.00005201,-0.00001990,-
 0.00000639,-0.00002255,0.00004047,-0.00008728,0.00009054,0.00003327,-0
 .00108356,-0.00691479,-0.00106060,-0.00060794,0.00025488,0.00027581,0.
 00017663,0.00004880,-0.00033009,0.04452355,0.06107007,-0.24198209,-0.0
 3455267,-0.16796104,-0.00017639,-0.00006366,0.00020236,-0.00605116,0.0
 0086277,-0.00458010,0.00012181,0.00025155,-0.00004171,-0.00062120,0.00
 126071,-0.00008034,0.00002250,0.00023387,0.00003042,0.00006010,0.00023
 521,-0.00012528,-0.00001371,-0.00006336,0.00002089,0.00001649,-0.00005
 593,-0.00004223,-0.00008426,0.00009159,0.00001761,0.00001142,-0.002675
 35,0.00058920,0.00096247,0.00117981,0.00095950,0.00044745,-0.00042670,
 -0.00075182,0.24728657,0.03372215,0.17176254\\0.00000046,0.00000045,-0
 .00000114,-0.00000002,-0.00000008,0.00000084,0.00000029,0.00000023,0.0
 0000040,-0.00000036,-0.00000026,-0.00000037,-0.00000026,-0.00000019,-0
 .00000035,-0.00000079,-0.00000078,0.00000214,0.00000117,0.00000083,0.0
 0000151,0.00000042,0.00000046,-0.00000161,-0.00000156,-0.00000118,-0.0
 0000098,-0.00000018,-0.00000019,0.00000056,-0.00000054,-0.00000054,0.0
 0000141,0.00000139,0.00000102,0.00000130,-0.00000112,-0.00000079,-0.00
 000158,0.00000108,0.00000101,-0.00000214\\\@



 IN THIS SHORT LIFE

 THAT ONLY LASTS AN HOUR

 HOW MUCH, HOW LITTLE, IS WITHIN OUR POWER....


 EMILY DICKINSON BOLTS OF MELODY NO. 521
 Job cpu time:       0 days  1 hours 38 minutes 22.2 seconds.
 Elapsed time:       0 days  0 hours  4 minutes 55.7 seconds.
 File lengths (MBytes):  RWF=   1376 Int=      0 D2E=      0 Chk=     32 Scr=     32
 Normal termination of Gaussian 16 at Tue Apr  9 01:14:53 2019.
