 Entering Gaussian System, Link 0=g16
 Input=GIXGVIVAHMJKNP-UHFFFAOYSA-N_GeoFreq_c3_a1.com
 Output=GIXGVIVAHMJKNP-UHFFFAOYSA-N_GeoFreq_c3_a1.log
 Initial command:
 /shared/centos7/gaussian/g16/l1.exe "/scratch/underkoffler.c/gaussian_scratch/Gau-1956.inp" -scrdir="/scratch/underkoffler.c/gaussian_scratch/"
 Entering Link 1 = /shared/centos7/gaussian/g16/l1.exe PID=      1957.
  
 Copyright (c) 1988,1990,1992,1993,1995,1998,2003,2009,2016,
            Gaussian, Inc.  All Rights Reserved.
  
 This is part of the Gaussian(R) 16 program.  It is based on
 the Gaussian(R) 09 system (copyright 2009, Gaussian, Inc.),
 the Gaussian(R) 03 system (copyright 2003, Gaussian, Inc.),
 the Gaussian(R) 98 system (copyright 1998, Gaussian, Inc.),
 the Gaussian(R) 94 system (copyright 1995, Gaussian, Inc.),
 the Gaussian 92(TM) system (copyright 1992, Gaussian, Inc.),
 the Gaussian 90(TM) system (copyright 1990, Gaussian, Inc.),
 the Gaussian 88(TM) system (copyright 1988, Gaussian, Inc.),
 the Gaussian 86(TM) system (copyright 1986, Carnegie Mellon
 University), and the Gaussian 82(TM) system (copyright 1983,
 Carnegie Mellon University). Gaussian is a federally registered
 trademark of Gaussian, Inc.
  
 This software contains proprietary and confidential information,
 including trade secrets, belonging to Gaussian, Inc.
  
 This software is provided under written license and may be
 used, copied, transmitted, or stored only in accord with that
 written license.
  
 The following legend is applicable only to US Government
 contracts under FAR:
  
                    RESTRICTED RIGHTS LEGEND
  
 Use, reproduction and disclosure by the US Government is
 subject to restrictions as set forth in subparagraphs (a)
 and (c) of the Commercial Computer Software - Restricted
 Rights clause in FAR 52.227-19.
  
 Gaussian, Inc.
 340 Quinnipiac St., Bldg. 40, Wallingford CT 06492
  
  
 ---------------------------------------------------------------
 Warning -- This program may not be used in any manner that
 competes with the business of Gaussian, Inc. or will provide
 assistance to any competitor of Gaussian, Inc.  The licensee
 of this program is prohibited from giving any competitor of
 Gaussian, Inc. access to this program.  By using this program,
 the user acknowledges that Gaussian, Inc. is engaged in the
 business of creating and licensing software in the field of
 computational chemistry and represents and warrants to the
 licensee that it is not a competitor of Gaussian, Inc. and that
 it will not use this program in any manner prohibited above.
 ---------------------------------------------------------------
  

 Cite this work as:
 Gaussian 16, Revision A.03,
 M. J. Frisch, G. W. Trucks, H. B. Schlegel, G. E. Scuseria, 
 M. A. Robb, J. R. Cheeseman, G. Scalmani, V. Barone, 
 G. A. Petersson, H. Nakatsuji, X. Li, M. Caricato, A. V. Marenich, 
 J. Bloino, B. G. Janesko, R. Gomperts, B. Mennucci, H. P. Hratchian, 
 J. V. Ortiz, A. F. Izmaylov, J. L. Sonnenberg, D. Williams-Young, 
 F. Ding, F. Lipparini, F. Egidi, J. Goings, B. Peng, A. Petrone, 
 T. Henderson, D. Ranasinghe, V. G. Zakrzewski, J. Gao, N. Rega, 
 G. Zheng, W. Liang, M. Hada, M. Ehara, K. Toyota, R. Fukuda, 
 J. Hasegawa, M. Ishida, T. Nakajima, Y. Honda, O. Kitao, H. Nakai, 
 T. Vreven, K. Throssell, J. A. Montgomery, Jr., J. E. Peralta, 
 F. Ogliaro, M. J. Bearpark, J. J. Heyd, E. N. Brothers, K. N. Kudin, 
 V. N. Staroverov, T. A. Keith, R. Kobayashi, J. Normand, 
 K. Raghavachari, A. P. Rendell, J. C. Burant, S. S. Iyengar, 
 J. Tomasi, M. Cossi, J. M. Millam, M. Klene, C. Adamo, R. Cammi, 
 J. W. Ochterski, R. L. Martin, K. Morokuma, O. Farkas, 
 J. B. Foresman, and D. J. Fox, Gaussian, Inc., Wallingford CT, 2016.
 
 ******************************************
 Gaussian 16:  EM64L-G16RevA.03 25-Dec-2016
                 9-Apr-2019 
 ******************************************
 %nprocshared=20
 Will use up to   20 processors via shared memory.
 %mem=5GB
 ----------------------------------------------------------------------
 #p m062x/6-311+g(2df,2p) opt=(calcfc,verytight,gdiis,maxcycles=900) fr
 eq iop(7/33=1,2/16=3)
 ----------------------------------------------------------------------

 Warning!  Use of Opt=GDIIS is deprecated since it is seldom a good choice.

 1/6=900,7=1,10=4,18=20,19=11,26=3,38=1/1,3;
 2/9=110,12=2,16=3,17=6,18=5,40=1/2;
 3/5=4,6=6,7=214,11=2,25=1,30=1,71=2,74=-55,140=1/1,2,3;
 4//1;
 5/5=2,38=5/2;
 8/6=4,10=90,11=11/1;
 11/6=1,8=1,9=11,15=111,16=1/1,2,10;
 10/6=1,13=1/2;
 6/7=2,8=2,9=2,10=2,28=1/1;
 7/10=1,18=20,25=1,33=1/1,2,3,16;
 1/6=900,7=1,10=4,18=20,19=11,26=3/3(2);
 2/9=110,16=3/2;
 99//99;
 2/9=110,16=3/2;
 3/5=4,6=6,7=214,11=2,25=1,30=1,71=1,74=-55/1,2,3;
 4/5=5,16=3,69=1/1;
 5/5=2,38=5/2;
 7/33=1/1,2,3,16;
 1/6=900,7=1,18=20,19=11,26=3/3(-5);
 2/9=110,16=3/2;
 6/7=2,8=2,9=2,10=2,19=2,28=1/1;
 99/9=1/99;
 Leave Link    1 at Tue Apr  9 00:54:22 2019, MaxMem=   671088640 cpu:              23.6 elap:               1.2
 (Enter /shared/centos7/gaussian/g16/l101.exe)
 ------------------------------
 Gaussian input prepared by ASE
 ------------------------------
 Symbolic Z-matrix:
 Charge =  0 Multiplicity = 2
 O                    -0.52737  -1.52912  -3.66229 
 C                     2.04742   1.19192  -3.89264 
 C                     0.81429  -1.11712  -3.67587 
 C                     2.30352   0.86753  -5.35125 
 C                     1.01096   0.30983  -3.26293 
 H                     1.74758   2.24548  -3.78538 
 H                     3.01555   1.09929  -3.33792 
 H                     3.30732   1.19324  -5.66299 
 H                     2.20832  -0.23406  -5.51831 
 H                     1.5571    1.37706  -6.0071 
 H                     1.36156  -1.81373  -2.99083 
 H                     1.25348  -1.26915  -4.66819 
 H                     0.30174   0.75997  -2.55637 
 H                    -1.06436  -0.77657  -3.98632 
 
 ITRead=  0  0  0  0  0  0  0  0  0  0  0  0  0  0
 MicOpt= -1 -1 -1 -1 -1 -1 -1 -1 -1 -1 -1 -1 -1 -1
 NAtoms=     14 NQM=       14 NQMF=       0 NMMI=      0 NMMIF=      0
                NMic=       0 NMicF=      0.
                    Isotopes and Nuclear Properties:
 (Nuclear quadrupole moments (NQMom) in fm**2, nuclear magnetic moments (NMagM)
  in nuclear magnetons)

  Atom         1           2           3           4           5           6           7           8           9          10
 IAtWgt=          16          12          12          12          12           1           1           1           1           1
 AtmWgt=  15.9949146  12.0000000  12.0000000  12.0000000  12.0000000   1.0078250   1.0078250   1.0078250   1.0078250   1.0078250
 NucSpn=           0           0           0           0           0           1           1           1           1           1
 AtZEff=  -0.0000000  -0.0000000  -0.0000000  -0.0000000  -0.0000000  -0.0000000  -0.0000000  -0.0000000  -0.0000000  -0.0000000
 NQMom=    0.0000000   0.0000000   0.0000000   0.0000000   0.0000000   0.0000000   0.0000000   0.0000000   0.0000000   0.0000000
 NMagM=    0.0000000   0.0000000   0.0000000   0.0000000   0.0000000   2.7928460   2.7928460   2.7928460   2.7928460   2.7928460
 AtZNuc=   8.0000000   6.0000000   6.0000000   6.0000000   6.0000000   1.0000000   1.0000000   1.0000000   1.0000000   1.0000000

  Atom        11          12          13          14
 IAtWgt=           1           1           1           1
 AtmWgt=   1.0078250   1.0078250   1.0078250   1.0078250
 NucSpn=           1           1           1           1
 AtZEff=  -0.0000000  -0.0000000  -0.0000000  -0.0000000
 NQMom=    0.0000000   0.0000000   0.0000000   0.0000000
 NMagM=    2.7928460   2.7928460   2.7928460   2.7928460
 AtZNuc=   1.0000000   1.0000000   1.0000000   1.0000000
 Leave Link  101 at Tue Apr  9 00:54:23 2019, MaxMem=   671088640 cpu:               5.6 elap:               0.3
 (Enter /shared/centos7/gaussian/g16/l103.exe)

 GradGradGradGradGradGradGradGradGradGradGradGradGradGradGradGradGradGrad
 Berny optimization.
 Initialization pass.
                           ----------------------------
                           !    Initial Parameters    !
                           ! (Angstroms and Degrees)  !
 --------------------------                            --------------------------
 ! Name  Definition              Value          Derivative Info.                !
 --------------------------------------------------------------------------------
 ! R1    R(1,3)                  1.4036         calculate D2E/DX2 analytically  !
 ! R2    R(1,14)                 0.9796         calculate D2E/DX2 analytically  !
 ! R3    R(2,4)                  1.516          calculate D2E/DX2 analytically  !
 ! R4    R(2,5)                  1.4996         calculate D2E/DX2 analytically  !
 ! R5    R(2,6)                  1.1006         calculate D2E/DX2 analytically  !
 ! R6    R(2,7)                  1.1196         calculate D2E/DX2 analytically  !
 ! R7    R(3,5)                  1.4985         calculate D2E/DX2 analytically  !
 ! R8    R(3,11)                 1.1198         calculate D2E/DX2 analytically  !
 ! R9    R(3,12)                 1.0958         calculate D2E/DX2 analytically  !
 ! R10   R(4,8)                  1.1004         calculate D2E/DX2 analytically  !
 ! R11   R(4,9)                  1.1182         calculate D2E/DX2 analytically  !
 ! R12   R(4,10)                 1.1166         calculate D2E/DX2 analytically  !
 ! R13   R(5,13)                 1.0977         calculate D2E/DX2 analytically  !
 ! A1    A(3,1,14)             107.1744         calculate D2E/DX2 analytically  !
 ! A2    A(4,2,5)              113.2596         calculate D2E/DX2 analytically  !
 ! A3    A(4,2,6)              110.1576         calculate D2E/DX2 analytically  !
 ! A4    A(4,2,7)              108.2348         calculate D2E/DX2 analytically  !
 ! A5    A(5,2,6)              109.5022         calculate D2E/DX2 analytically  !
 ! A6    A(5,2,7)              109.9328         calculate D2E/DX2 analytically  !
 ! A7    A(6,2,7)              105.4546         calculate D2E/DX2 analytically  !
 ! A8    A(1,3,5)              113.7236         calculate D2E/DX2 analytically  !
 ! A9    A(1,3,11)             106.1781         calculate D2E/DX2 analytically  !
 ! A10   A(1,3,12)             110.5585         calculate D2E/DX2 analytically  !
 ! A11   A(5,3,11)             111.0792         calculate D2E/DX2 analytically  !
 ! A12   A(5,3,12)             109.2131         calculate D2E/DX2 analytically  !
 ! A13   A(11,3,12)            105.7712         calculate D2E/DX2 analytically  !
 ! A14   A(2,4,8)              111.3047         calculate D2E/DX2 analytically  !
 ! A15   A(2,4,9)              109.8856         calculate D2E/DX2 analytically  !
 ! A16   A(2,4,10)             110.7648         calculate D2E/DX2 analytically  !
 ! A17   A(8,4,9)              109.0814         calculate D2E/DX2 analytically  !
 ! A18   A(8,4,10)             107.9578         calculate D2E/DX2 analytically  !
 ! A19   A(9,4,10)             107.7497         calculate D2E/DX2 analytically  !
 ! A20   A(2,5,3)              122.3529         calculate D2E/DX2 analytically  !
 ! A21   A(2,5,13)             118.4012         calculate D2E/DX2 analytically  !
 ! A22   A(3,5,13)             118.8886         calculate D2E/DX2 analytically  !
 ! D1    D(14,1,3,5)            38.2138         calculate D2E/DX2 analytically  !
 ! D2    D(14,1,3,11)          160.6627         calculate D2E/DX2 analytically  !
 ! D3    D(14,1,3,12)          -85.0659         calculate D2E/DX2 analytically  !
 ! D4    D(5,2,4,8)           -155.6922         calculate D2E/DX2 analytically  !
 ! D5    D(5,2,4,9)            -34.7482         calculate D2E/DX2 analytically  !
 ! D6    D(5,2,4,10)            84.1895         calculate D2E/DX2 analytically  !
 ! D7    D(6,2,4,8)             81.2919         calculate D2E/DX2 analytically  !
 ! D8    D(6,2,4,9)           -157.7641         calculate D2E/DX2 analytically  !
 ! D9    D(6,2,4,10)           -38.8264         calculate D2E/DX2 analytically  !
 ! D10   D(7,2,4,8)            -33.5306         calculate D2E/DX2 analytically  !
 ! D11   D(7,2,4,9)             87.4134         calculate D2E/DX2 analytically  !
 ! D12   D(7,2,4,10)          -153.6489         calculate D2E/DX2 analytically  !
 ! D13   D(4,2,5,3)             32.0179         calculate D2E/DX2 analytically  !
 ! D14   D(4,2,5,13)          -141.0381         calculate D2E/DX2 analytically  !
 ! D15   D(6,2,5,3)            155.395          calculate D2E/DX2 analytically  !
 ! D16   D(6,2,5,13)           -17.661          calculate D2E/DX2 analytically  !
 ! D17   D(7,2,5,3)            -89.1919         calculate D2E/DX2 analytically  !
 ! D18   D(7,2,5,13)            97.7521         calculate D2E/DX2 analytically  !
 ! D19   D(1,3,5,2)           -143.5508         calculate D2E/DX2 analytically  !
 ! D20   D(1,3,5,13)            29.4727         calculate D2E/DX2 analytically  !
 ! D21   D(11,3,5,2)            96.7426         calculate D2E/DX2 analytically  !
 ! D22   D(11,3,5,13)          -90.2339         calculate D2E/DX2 analytically  !
 ! D23   D(12,3,5,2)           -19.5399         calculate D2E/DX2 analytically  !
 ! D24   D(12,3,5,13)          153.4836         calculate D2E/DX2 analytically  !
 --------------------------------------------------------------------------------
 Trust Radius=3.00D-01 FncErr=1.00D-07 GrdErr=1.00D-06 EigMax=2.50D+02 EigMin=1.00D-04
 Number of steps in this run=    100 maximum allowed number of steps=    100.
 GradGradGradGradGradGradGradGradGradGradGradGradGradGradGradGradGradGrad

 Leave Link  103 at Tue Apr  9 00:54:23 2019, MaxMem=   671088640 cpu:               0.2 elap:               0.0
 (Enter /shared/centos7/gaussian/g16/l202.exe)
                          Input orientation:                          
 ---------------------------------------------------------------------
 Center     Atomic      Atomic             Coordinates (Angstroms)
 Number     Number       Type             X           Y           Z
 ---------------------------------------------------------------------
      1          8           0       -0.527368   -1.529125   -3.662287
      2          6           0        2.047418    1.191920   -3.892641
      3          6           0        0.814294   -1.117117   -3.675871
      4          6           0        2.303516    0.867529   -5.351251
      5          6           0        1.010959    0.309827   -3.262934
      6          1           0        1.747576    2.245482   -3.785381
      7          1           0        3.015549    1.099290   -3.337923
      8          1           0        3.307320    1.193236   -5.662991
      9          1           0        2.208323   -0.234059   -5.518312
     10          1           0        1.557097    1.377059   -6.007095
     11          1           0        1.361564   -1.813731   -2.990827
     12          1           0        1.253482   -1.269151   -4.668189
     13          1           0        0.301742    0.759966   -2.556371
     14          1           0       -1.064364   -0.776572   -3.986316
 ---------------------------------------------------------------------
                    Distance matrix (angstroms):
                    1          2          3          4          5
     1  O    0.000000
     2  C    3.753221   0.000000
     3  C    1.403564   2.626639   0.000000
     4  C    4.075592   1.516033   2.993910   0.000000
     5  C    2.430572   1.499622   1.498453   2.518492   0.000000
     6  H    4.408875   1.100638   3.491429   2.158650   2.135958
     7  H    4.423351   1.119629   3.142004   2.148067   2.155749
     8  H    5.110665   2.172899   3.937202   1.100405   3.437144
     9  H    3.550497   2.168435   2.473398   1.118243   2.610790
    10  H    4.276567   2.178441   3.493891   1.116644   2.994607
    11  H    2.024827   3.212103   1.119849   3.694324   2.169439
    12  H    2.061759   2.699755   1.095763   2.476801   2.127612
    13  H    2.674025   2.240444   2.244867   3.439480   1.097654
    14  H    0.979639   3.683331   1.934348   3.988575   2.451635
                    6          7          8          9         10
     6  H    0.000000
     7  H    1.766841   0.000000
     8  H    2.658090   2.345186   0.000000
     9  H    3.059978   2.680211   1.807180   0.000000
    10  H    2.393001   3.054295   1.793176   1.805188   0.000000
    11  H    4.154219   3.367764   4.468589   3.098475   4.395139
    12  H    3.657338   3.237901   3.357266   1.644945   2.981154
    13  H    2.409909   2.844417   4.344227   3.660086   3.723469
    14  H    4.132819   4.537065   5.079666   3.654013   3.948890
                   11         12         13         14
    11  H    0.000000
    12  H    1.766860   0.000000
    13  H    2.817071   3.079431   0.000000
    14  H    2.819898   2.465764   2.504383   0.000000
 Stoichiometry    C4H9O(2)
 Framework group  C1[X(C4H9O)]
 Deg. of freedom    36
 Full point group                 C1      NOp   1
 Largest Abelian subgroup         C1      NOp   1
 Largest concise Abelian subgroup C1      NOp   1
                         Standard orientation:                         
 ---------------------------------------------------------------------
 Center     Atomic      Atomic             Coordinates (Angstroms)
 Number     Number       Type             X           Y           Z
 ---------------------------------------------------------------------
      1          8           0       -2.220133   -0.269772   -0.268200
      2          6           0        1.409220    0.641057    0.023096
      3          6           0       -1.041636   -0.180857    0.488920
      4          6           0        1.817405   -0.810034   -0.138389
      5          6           0       -0.075689    0.846597   -0.017684
      6          1           0        1.887026    1.258090   -0.753033
      7          1           0        1.819662    1.014310    0.995612
      8          1           0        2.805255   -0.999518    0.307862
      9          1           0        1.062062   -1.474267    0.350199
     10          1           0        1.868238   -1.089152   -1.218390
     11          1           0       -1.360956    0.048921    1.537395
     12          1           0       -0.540628   -1.154203    0.536720
     13          1           0       -0.466295    1.730644   -0.538003
     14          1           0       -1.969099   -0.157228   -1.208418
 ---------------------------------------------------------------------
 Rotational constants (GHZ):          10.9118859           2.6208014           2.3480447
 Leave Link  202 at Tue Apr  9 00:54:23 2019, MaxMem=   671088640 cpu:               0.1 elap:               0.0
 (Enter /shared/centos7/gaussian/g16/l301.exe)
 Standard basis: 6-311+G(2df,2p) (5D, 7F)
 Ernie: Thresh=  0.10000D-02 Tol=  0.10000D-05 Strict=F.
 There are   276 symmetry adapted cartesian basis functions of A   symmetry.
 There are   251 symmetry adapted basis functions of A   symmetry.
   251 basis functions,   359 primitive gaussians,   276 cartesian basis functions
    21 alpha electrons       20 beta electrons
       nuclear repulsion energy       179.3656611569 Hartrees.
 IExCor= 4336 DFT=T Ex+Corr=M062X ExCW=0 ScaHFX=  0.540000
 ScaDFX=  1.000000  1.000000  1.000000  1.000000 ScalE2=  1.000000  1.000000
 IRadAn=      5 IRanWt=     -1 IRanGd=            0 ICorTp=0 IEmpDi=  4
 NAtoms=   14 NActive=   14 NUniq=   14 SFac= 1.00D+00 NAtFMM=   60 NAOKFM=F Big=F
 Integral buffers will be    131072 words long.
 Raffenetti 2 integral format.
 Two-electron integral symmetry is turned on.
 Leave Link  301 at Tue Apr  9 00:54:23 2019, MaxMem=   671088640 cpu:               0.9 elap:               0.1
 (Enter /shared/centos7/gaussian/g16/l302.exe)
 NPDir=0 NMtPBC=     1 NCelOv=     1 NCel=       1 NClECP=     1 NCelD=      1
         NCelK=      1 NCelE2=     1 NClLst=     1 CellRange=     0.0.
 One-electron integrals computed using PRISM.
 One-electron integral symmetry used in STVInt
 NBasis=   251 RedAO= T EigKep=  3.33D-05  NBF=   251
 NBsUse=   251 1.00D-06 EigRej= -1.00D+00 NBFU=   251
 Precomputing XC quadrature grid using
 IXCGrd= 4 IRadAn=           5 IRanWt=          -1 IRanGd=           0 AccXCQ= 0.00D+00.
 Generated NRdTot=       0 NPtTot=           0 NUsed=           0 NTot=          32
 NSgBfM=   276   276   276   276   276 MxSgAt=    14 MxSgA2=    14.
 Leave Link  302 at Tue Apr  9 00:54:24 2019, MaxMem=   671088640 cpu:               7.4 elap:               0.4
 (Enter /shared/centos7/gaussian/g16/l303.exe)
 DipDrv:  MaxL=1.
 Leave Link  303 at Tue Apr  9 00:54:24 2019, MaxMem=   671088640 cpu:               0.5 elap:               0.0
 (Enter /shared/centos7/gaussian/g16/l401.exe)
 ExpMin= 4.38D-02 ExpMax= 8.59D+03 ExpMxC= 1.30D+03 IAcc=3 IRadAn=         5 AccDes= 0.00D+00
 Harris functional with IExCor= 1009 and IRadAn=       5 diagonalized for initial guess.
 HarFok:  IExCor= 1009 AccDes= 0.00D+00 IRadAn=         5 IDoV= 1 UseB2=F ITyADJ=14
 ICtDFT=  3500011 ScaDFX=  1.000000  1.000000  1.000000  1.000000
 FoFCou: FMM=F IPFlag=           0 FMFlag=      100000 FMFlg1=           0
         NFxFlg=           0 DoJE=T BraDBF=F KetDBF=T FulRan=T
         wScrn=  0.000000 ICntrl=       500 IOpCl=  0 I1Cent=   200000004 NGrid=           0
         NMat0=    1 NMatS0=      1 NMatT0=    0 NMatD0=    1 NMtDS0=    0 NMtDT0=    0
 Petite list used in FoFCou.
 Harris En= -232.882920210884    
 JPrj=0 DoOrth=F DoCkMO=F.
 Initial guess <Sx>= 0.0000 <Sy>= 0.0000 <Sz>= 0.5000 <S**2>= 0.7500 S= 0.5000
 Leave Link  401 at Tue Apr  9 00:54:24 2019, MaxMem=   671088640 cpu:              15.4 elap:               0.8
 (Enter /shared/centos7/gaussian/g16/l502.exe)
 Integral symmetry usage will be decided dynamically.
 UHF open shell SCF:
 Using DIIS extrapolation, IDIIS=  1040.
 NGot=   671088640 LenX=   670928170 LenY=   670851553
 Requested convergence on RMS density matrix=1.00D-08 within 128 cycles.
 Requested convergence on MAX density matrix=1.00D-06.
 Requested convergence on             energy=1.00D-06.
 No special actions if energy rises.
 Fock matrices will be formed incrementally for  20 cycles.

 Cycle   1  Pass 1  IDiag  1:
 FoFJK:  IHMeth= 1 ICntrl=       0 DoSepK=F KAlg= 0 I1Cent=           0 FoldK=F
 IRaf= 980000000 NMat=       1 IRICut=       1 DoRegI=T DoRafI=F ISym2E= 0 IDoP0=0 IntGTp=1.
 FoFCou: FMM=F IPFlag=           0 FMFlag=      100000 FMFlg1=           0
         NFxFlg=           0 DoJE=F BraDBF=F KetDBF=F FulRan=T
         wScrn=  0.000000 ICntrl=         0 IOpCl=  1 I1Cent=           0 NGrid=           0
         NMat0=    1 NMatS0=      1 NMatT0=    0 NMatD0=    1 NMtDS0=    0 NMtDT0=    0
 Symmetry not used in FoFCou.
 E= -232.766453926185    
 DIIS: error= 2.20D-02 at cycle   1 NSaved=   1.
 NSaved= 1 IEnMin= 1 EnMin= -232.766453926185     IErMin= 1 ErrMin= 2.20D-02
 ErrMax= 2.20D-02  0.00D+00 EMaxC= 1.00D-01 BMatC= 9.01D-01 BMatP= 9.01D-01
 IDIUse=3 WtCom= 7.80D-01 WtEn= 2.20D-01
 Coeff-Com:  0.100D+01
 Coeff-En:   0.100D+01
 Coeff:      0.100D+01
 Gap=     0.226 Goal=   None    Shift=    0.000
 Gap=     0.310 Goal=   None    Shift=    0.000
 GapD=    0.226 DampG=1.000 DampE=0.500 DampFc=0.5000 IDamp=-1.
 Damping current iteration by 5.00D-01
 RMSDP=3.65D-03 MaxDP=2.03D-01              OVMax= 1.55D-01

 Cycle   2  Pass 1  IDiag  1:
 RMSU=  1.82D-03    CP:  9.98D-01
 E= -232.860008632547     Delta-E=       -0.093554706362 Rises=F Damp=T
 DIIS: error= 4.85D-03 at cycle   2 NSaved=   2.
 NSaved= 2 IEnMin= 2 EnMin= -232.860008632547     IErMin= 2 ErrMin= 4.85D-03
 ErrMax= 4.85D-03  0.00D+00 EMaxC= 1.00D-01 BMatC= 5.60D-02 BMatP= 9.01D-01
 IDIUse=3 WtCom= 9.52D-01 WtEn= 4.85D-02
 Coeff-Com: -0.728D-01 0.107D+01
 Coeff-En:   0.000D+00 0.100D+01
 Coeff:     -0.692D-01 0.107D+01
 Gap=     0.267 Goal=   None    Shift=    0.000
 Gap=     0.332 Goal=   None    Shift=    0.000
 RMSDP=1.01D-03 MaxDP=5.12D-02 DE=-9.36D-02 OVMax= 7.35D-02

 Cycle   3  Pass 1  IDiag  1:
 RMSU=  9.91D-04    CP:  9.96D-01  9.05D-01
 E= -232.952278496518     Delta-E=       -0.092269863971 Rises=F Damp=F
 DIIS: error= 2.68D-03 at cycle   3 NSaved=   3.
 NSaved= 3 IEnMin= 3 EnMin= -232.952278496518     IErMin= 3 ErrMin= 2.68D-03
 ErrMax= 2.68D-03  0.00D+00 EMaxC= 1.00D-01 BMatC= 1.13D-02 BMatP= 5.60D-02
 IDIUse=3 WtCom= 9.73D-01 WtEn= 2.68D-02
 Coeff-Com: -0.731D-01 0.286D+00 0.787D+00
 Coeff-En:   0.000D+00 0.000D+00 0.100D+01
 Coeff:     -0.711D-01 0.278D+00 0.793D+00
 Gap=     0.269 Goal=   None    Shift=    0.000
 Gap=     0.307 Goal=   None    Shift=    0.000
 RMSDP=2.57D-04 MaxDP=1.98D-02 DE=-9.23D-02 OVMax= 1.26D-02

 Cycle   4  Pass 1  IDiag  1:
 RMSU=  2.53D-04    CP:  9.93D-01  9.22D-01  9.81D-01
 E= -232.953951528634     Delta-E=       -0.001673032116 Rises=F Damp=F
 DIIS: error= 1.31D-03 at cycle   4 NSaved=   4.
 NSaved= 4 IEnMin= 4 EnMin= -232.953951528634     IErMin= 4 ErrMin= 1.31D-03
 ErrMax= 1.31D-03  0.00D+00 EMaxC= 1.00D-01 BMatC= 2.67D-03 BMatP= 1.13D-02
 IDIUse=3 WtCom= 9.87D-01 WtEn= 1.31D-02
 Coeff-Com: -0.279D-01 0.652D-01 0.376D+00 0.587D+00
 Coeff-En:   0.000D+00 0.000D+00 0.384D-01 0.962D+00
 Coeff:     -0.275D-01 0.643D-01 0.372D+00 0.592D+00
 Gap=     0.266 Goal=   None    Shift=    0.000
 Gap=     0.313 Goal=   None    Shift=    0.000
 RMSDP=9.78D-05 MaxDP=5.75D-03 DE=-1.67D-03 OVMax= 6.59D-03

 Cycle   5  Pass 1  IDiag  1:
 RMSU=  6.83D-05    CP:  9.92D-01  9.13D-01  1.01D+00  7.57D-01
 E= -232.954484126786     Delta-E=       -0.000532598152 Rises=F Damp=F
 DIIS: error= 4.52D-04 at cycle   5 NSaved=   5.
 NSaved= 5 IEnMin= 5 EnMin= -232.954484126786     IErMin= 5 ErrMin= 4.52D-04
 ErrMax= 4.52D-04  0.00D+00 EMaxC= 1.00D-01 BMatC= 1.34D-04 BMatP= 2.67D-03
 IDIUse=3 WtCom= 9.95D-01 WtEn= 4.52D-03
 Coeff-Com: -0.204D-03-0.989D-02 0.195D-01 0.166D+00 0.824D+00
 Coeff-En:   0.000D+00 0.000D+00 0.000D+00 0.000D+00 0.100D+01
 Coeff:     -0.203D-03-0.985D-02 0.194D-01 0.165D+00 0.825D+00
 Gap=     0.267 Goal=   None    Shift=    0.000
 Gap=     0.312 Goal=   None    Shift=    0.000
 RMSDP=4.34D-05 MaxDP=2.75D-03 DE=-5.33D-04 OVMax= 2.82D-03

 Cycle   6  Pass 1  IDiag  1:
 RMSU=  2.82D-05    CP:  9.92D-01  9.06D-01  1.01D+00  8.76D-01  1.07D+00
 E= -232.954533818151     Delta-E=       -0.000049691364 Rises=F Damp=F
 DIIS: error= 1.21D-04 at cycle   6 NSaved=   6.
 NSaved= 6 IEnMin= 6 EnMin= -232.954533818151     IErMin= 6 ErrMin= 1.21D-04
 ErrMax= 1.21D-04  0.00D+00 EMaxC= 1.00D-01 BMatC= 1.34D-05 BMatP= 1.34D-04
 IDIUse=3 WtCom= 9.99D-01 WtEn= 1.21D-03
 Coeff-Com:  0.422D-02-0.103D-01-0.559D-01-0.893D-01-0.148D-02 0.115D+01
 Coeff-En:   0.000D+00 0.000D+00 0.000D+00 0.000D+00 0.000D+00 0.100D+01
 Coeff:      0.422D-02-0.103D-01-0.558D-01-0.892D-01-0.147D-02 0.115D+01
 Gap=     0.268 Goal=   None    Shift=    0.000
 Gap=     0.313 Goal=   None    Shift=    0.000
 RMSDP=4.20D-05 MaxDP=4.73D-03 DE=-4.97D-05 OVMax= 2.10D-03

 Cycle   7  Pass 1  IDiag  1:
 RMSU=  1.91D-05    CP:  9.91D-01  8.96D-01  1.01D+00  9.73D-01  1.31D+00
                    CP:  1.34D+00
 E= -232.954543750837     Delta-E=       -0.000009932686 Rises=F Damp=F
 DIIS: error= 3.86D-05 at cycle   7 NSaved=   7.
 NSaved= 7 IEnMin= 7 EnMin= -232.954543750837     IErMin= 7 ErrMin= 3.86D-05
 ErrMax= 3.86D-05  0.00D+00 EMaxC= 1.00D-01 BMatC= 2.37D-06 BMatP= 1.34D-05
 IDIUse=1 WtCom= 1.00D+00 WtEn= 0.00D+00
 Coeff-Com:  0.126D-02-0.212D-02-0.199D-01-0.473D-01-0.890D-01 0.392D+00
 Coeff-Com:  0.765D+00
 Coeff:      0.126D-02-0.212D-02-0.199D-01-0.473D-01-0.890D-01 0.392D+00
 Coeff:      0.765D+00
 Gap=     0.268 Goal=   None    Shift=    0.000
 Gap=     0.313 Goal=   None    Shift=    0.000
 RMSDP=1.01D-05 MaxDP=1.08D-03 DE=-9.93D-06 OVMax= 4.56D-04

 Cycle   8  Pass 1  IDiag  1:
 RMSU=  3.63D-06    CP:  9.91D-01  8.94D-01  1.01D+00  9.95D-01  1.35D+00
                    CP:  1.47D+00  1.25D+00
 E= -232.954544622942     Delta-E=       -0.000000872105 Rises=F Damp=F
 DIIS: error= 1.21D-05 at cycle   8 NSaved=   8.
 NSaved= 8 IEnMin= 8 EnMin= -232.954544622942     IErMin= 8 ErrMin= 1.21D-05
 ErrMax= 1.21D-05  0.00D+00 EMaxC= 1.00D-01 BMatC= 2.06D-07 BMatP= 2.37D-06
 IDIUse=1 WtCom= 1.00D+00 WtEn= 0.00D+00
 Coeff-Com: -0.307D-03 0.866D-03 0.245D-02-0.370D-03-0.199D-01-0.450D-01
 Coeff-Com:  0.169D+00 0.894D+00
 Coeff:     -0.307D-03 0.866D-03 0.245D-02-0.370D-03-0.199D-01-0.450D-01
 Coeff:      0.169D+00 0.894D+00
 Gap=     0.268 Goal=   None    Shift=    0.000
 Gap=     0.313 Goal=   None    Shift=    0.000
 RMSDP=5.45D-06 MaxDP=7.15D-04 DE=-8.72D-07 OVMax= 1.63D-04

 Cycle   9  Pass 1  IDiag  1:
 RMSU=  1.71D-06    CP:  9.91D-01  8.93D-01  1.01D+00  1.00D+00  1.36D+00
                    CP:  1.50D+00  1.42D+00  1.31D+00
 E= -232.954544710950     Delta-E=       -0.000000088008 Rises=F Damp=F
 DIIS: error= 4.34D-06 at cycle   9 NSaved=   9.
 NSaved= 9 IEnMin= 9 EnMin= -232.954544710950     IErMin= 9 ErrMin= 4.34D-06
 ErrMax= 4.34D-06  0.00D+00 EMaxC= 1.00D-01 BMatC= 2.38D-08 BMatP= 2.06D-07
 IDIUse=1 WtCom= 1.00D+00 WtEn= 0.00D+00
 Coeff-Com: -0.225D-03 0.468D-03 0.303D-02 0.574D-02 0.776D-02-0.588D-01
 Coeff-Com: -0.687D-01 0.202D+00 0.909D+00
 Coeff:     -0.225D-03 0.468D-03 0.303D-02 0.574D-02 0.776D-02-0.588D-01
 Coeff:     -0.687D-01 0.202D+00 0.909D+00
 Gap=     0.268 Goal=   None    Shift=    0.000
 Gap=     0.313 Goal=   None    Shift=    0.000
 RMSDP=2.77D-06 MaxDP=3.82D-04 DE=-8.80D-08 OVMax= 7.16D-05

 Cycle  10  Pass 1  IDiag  1:
 RMSU=  5.62D-07    CP:  9.91D-01  8.93D-01  1.01D+00  1.01D+00  1.37D+00
                    CP:  1.51D+00  1.50D+00  1.52D+00  1.31D+00
 E= -232.954544722175     Delta-E=       -0.000000011225 Rises=F Damp=F
 DIIS: error= 8.36D-07 at cycle  10 NSaved=  10.
 NSaved=10 IEnMin=10 EnMin= -232.954544722175     IErMin=10 ErrMin= 8.36D-07
 ErrMax= 8.36D-07  0.00D+00 EMaxC= 1.00D-01 BMatC= 1.12D-09 BMatP= 2.38D-08
 IDIUse=1 WtCom= 1.00D+00 WtEn= 0.00D+00
 Coeff-Com:  0.208D-04-0.513D-04-0.842D-04 0.188D-03 0.155D-02 0.821D-03
 Coeff-Com: -0.144D-01-0.554D-01 0.286D-01 0.104D+01
 Coeff:      0.208D-04-0.513D-04-0.842D-04 0.188D-03 0.155D-02 0.821D-03
 Coeff:     -0.144D-01-0.554D-01 0.286D-01 0.104D+01
 Gap=     0.268 Goal=   None    Shift=    0.000
 Gap=     0.313 Goal=   None    Shift=    0.000
 RMSDP=6.70D-07 MaxDP=9.71D-05 DE=-1.12D-08 OVMax= 1.78D-05

 Cycle  11  Pass 1  IDiag  1:
 RMSU=  9.96D-08    CP:  9.91D-01  8.93D-01  1.01D+00  1.01D+00  1.37D+00
                    CP:  1.51D+00  1.52D+00  1.58D+00  1.47D+00  1.29D+00
 E= -232.954544722992     Delta-E=       -0.000000000817 Rises=F Damp=F
 DIIS: error= 3.02D-07 at cycle  11 NSaved=  11.
 NSaved=11 IEnMin=11 EnMin= -232.954544722992     IErMin=11 ErrMin= 3.02D-07
 ErrMax= 3.02D-07  0.00D+00 EMaxC= 1.00D-01 BMatC= 1.38D-10 BMatP= 1.12D-09
 IDIUse=1 WtCom= 1.00D+00 WtEn= 0.00D+00
 Coeff-Com:  0.211D-04-0.455D-04-0.262D-03-0.415D-03-0.346D-03 0.480D-02
 Coeff-Com:  0.378D-02-0.244D-01-0.715D-01 0.135D+00 0.953D+00
 Coeff:      0.211D-04-0.455D-04-0.262D-03-0.415D-03-0.346D-03 0.480D-02
 Coeff:      0.378D-02-0.244D-01-0.715D-01 0.135D+00 0.953D+00
 Gap=     0.268 Goal=   None    Shift=    0.000
 Gap=     0.313 Goal=   None    Shift=    0.000
 RMSDP=1.71D-07 MaxDP=2.63D-05 DE=-8.17D-10 OVMax= 5.21D-06

 Cycle  12  Pass 1  IDiag  1:
 RMSU=  3.90D-08    CP:  9.91D-01  8.93D-01  1.00D+00  1.01D+00  1.37D+00
                    CP:  1.51D+00  1.52D+00  1.59D+00  1.51D+00  1.41D+00
                    CP:  1.26D+00
 E= -232.954544723080     Delta-E=       -0.000000000088 Rises=F Damp=F
 DIIS: error= 1.32D-07 at cycle  12 NSaved=  12.
 NSaved=12 IEnMin=12 EnMin= -232.954544723080     IErMin=12 ErrMin= 1.32D-07
 ErrMax= 1.32D-07  0.00D+00 EMaxC= 1.00D-01 BMatC= 2.35D-11 BMatP= 1.38D-10
 IDIUse=1 WtCom= 1.00D+00 WtEn= 0.00D+00
 Coeff-Com:  0.119D-05-0.260D-05-0.448D-04-0.974D-04-0.222D-03 0.858D-03
 Coeff-Com:  0.242D-02 0.112D-02-0.196D-01-0.864D-01 0.209D+00 0.893D+00
 Coeff:      0.119D-05-0.260D-05-0.448D-04-0.974D-04-0.222D-03 0.858D-03
 Coeff:      0.242D-02 0.112D-02-0.196D-01-0.864D-01 0.209D+00 0.893D+00
 Gap=     0.268 Goal=   None    Shift=    0.000
 Gap=     0.313 Goal=   None    Shift=    0.000
 RMSDP=3.60D-08 MaxDP=4.97D-06 DE=-8.81D-11 OVMax= 1.94D-06

 Cycle  13  Pass 1  IDiag  1:
 RMSU=  1.21D-08    CP:  9.91D-01  8.93D-01  1.00D+00  1.01D+00  1.37D+00
                    CP:  1.51D+00  1.53D+00  1.59D+00  1.51D+00  1.43D+00
                    CP:  1.39D+00  1.24D+00
 E= -232.954544723095     Delta-E=       -0.000000000015 Rises=F Damp=F
 DIIS: error= 4.17D-08 at cycle  13 NSaved=  13.
 NSaved=13 IEnMin=13 EnMin= -232.954544723095     IErMin=13 ErrMin= 4.17D-08
 ErrMax= 4.17D-08  0.00D+00 EMaxC= 1.00D-01 BMatC= 3.74D-12 BMatP= 2.35D-11
 IDIUse=1 WtCom= 1.00D+00 WtEn= 0.00D+00
 Coeff-Com: -0.262D-05 0.549D-05 0.220D-04 0.295D-04-0.127D-04-0.420D-03
 Coeff-Com:  0.187D-03 0.374D-02 0.356D-02-0.422D-01-0.842D-01 0.249D+00
 Coeff-Com:  0.870D+00
 Coeff:     -0.262D-05 0.549D-05 0.220D-04 0.295D-04-0.127D-04-0.420D-03
 Coeff:      0.187D-03 0.374D-02 0.356D-02-0.422D-01-0.842D-01 0.249D+00
 Coeff:      0.870D+00
 Gap=     0.268 Goal=   None    Shift=    0.000
 Gap=     0.313 Goal=   None    Shift=    0.000
 RMSDP=9.75D-09 MaxDP=5.19D-07 DE=-1.48D-11 OVMax= 9.24D-07

 SCF Done:  E(UM062X) =  -232.954544723     A.U. after   13 cycles
            NFock= 13  Conv=0.98D-08     -V/T= 2.0045
 <Sx>= 0.0000 <Sy>= 0.0000 <Sz>= 0.5000 <S**2>= 0.7557 S= 0.5029
 <L.S>= 0.000000000000E+00
 KE= 2.319105476946D+02 PE=-9.015932712294D+02 EE= 2.573625176548D+02
 Annihilation of the first spin contaminant:
 S**2 before annihilation     0.7557,   after     0.7500
 Leave Link  502 at Tue Apr  9 00:55:04 2019, MaxMem=   671088640 cpu:             796.1 elap:              39.9
 (Enter /shared/centos7/gaussian/g16/l801.exe)
 DoSCS=F DFT=T ScalE2(SS,OS)=  1.000000  1.000000
 Range of M.O.s used for correlation:     1   251
 NBasis=   251 NAE=    21 NBE=    20 NFC=     0 NFV=     0
 NROrb=    251 NOA=    21 NOB=    20 NVA=   230 NVB=   231

 **** Warning!!: The largest alpha MO coefficient is  0.55260357D+02


 **** Warning!!: The largest beta MO coefficient is  0.57178864D+02

 Leave Link  801 at Tue Apr  9 00:55:04 2019, MaxMem=   671088640 cpu:               0.5 elap:               0.0
 (Enter /shared/centos7/gaussian/g16/l1101.exe)
 Using compressed storage, NAtomX=    14.
 Will process     15 centers per pass.
 Leave Link 1101 at Tue Apr  9 00:55:05 2019, MaxMem=   671088640 cpu:               6.0 elap:               0.3
 (Enter /shared/centos7/gaussian/g16/l1102.exe)
 Symmetrizing basis deriv contribution to polar:
 IMax=3 JMax=2 DiffMx= 0.00D+00
 Leave Link 1102 at Tue Apr  9 00:55:05 2019, MaxMem=   671088640 cpu:               0.5 elap:               0.1
 (Enter /shared/centos7/gaussian/g16/l1110.exe)
 Forming Gx(P) for the SCF density, NAtomX=    14.
 Integral derivatives from FoFJK, PRISM(SPDF).
 Do as many integral derivatives as possible in FoFJK.
 G2DrvN: MDV=     671087496.
 G2DrvN: will do    15 centers at a time, making    1 passes.
 Calling FoFCou, ICntrl=  3107 FMM=F I1Cent=   0 AccDes= 0.00D+00.
 FoFJK:  IHMeth= 1 ICntrl=    3107 DoSepK=F KAlg= 0 I1Cent=           0 FoldK=F
 IRaf=         0 NMat=       1 IRICut=       1 DoRegI=T DoRafI=F ISym2E= 0 IDoP0=0 IntGTp=1.
 FoFCou: FMM=F IPFlag=           0 FMFlag=      100000 FMFlg1=           0
         NFxFlg=           0 DoJE=F BraDBF=F KetDBF=F FulRan=T
         wScrn=  0.000000 ICntrl=      3107 IOpCl=  1 I1Cent=           0 NGrid=           0
         NMat0=    1 NMatS0=      1 NMatT0=    0 NMatD0=    1 NMtDS0=    0 NMtDT0=    0
 Symmetry not used in FoFCou.
 End of G2Drv F.D. properties file   721 does not exist.
 End of G2Drv F.D. properties file   722 does not exist.
 End of G2Drv F.D. properties file   788 does not exist.
 Leave Link 1110 at Tue Apr  9 00:56:27 2019, MaxMem=   671088640 cpu:            1640.2 elap:              82.0
 (Enter /shared/centos7/gaussian/g16/l1002.exe)
 Minotr:  UHF open shell wavefunction.
          IDoAtm=11111111111111
          Direct CPHF calculation.
          Differentiating once with respect to nuclear coordinates.
          Requested convergence is 1.0D-08 RMS, and 1.0D-07 maximum.
          Secondary convergence is 1.0D-12 RMS, and 1.0D-12 maximum.
          NewPWx=T KeepS1=F KeepF1=F KeepIn=T MapXYZ=F SortEE=F KeepMc=T.
         4250 words used for storage of precomputed grid.
 Two-electron integrals replicated using symmetry.
          MDV=     671088640 using IRadAn=       1.
          Solving linear equations simultaneously, MaxMat=     380.
 FoF2E skips out because all densities are zero.
 CalDSu exits because no D1Ps are significant.
 FoFJK:  IHMeth= 1 ICntrl=       0 DoSepK=F KAlg= 0 I1Cent=           0 FoldK=F
 IRaf= 970000000 NMat=      42 IRICut=     105 DoRegI=T DoRafI=T ISym2E= 2 IDoP0=3 IntGTp=3.
 FoFCou: FMM=F IPFlag=           0 FMFlag=      100000 FMFlg1=           0
         NFxFlg=           0 DoJE=F BraDBF=F KetDBF=F FulRan=T
         wScrn=  0.000000 ICntrl=         0 IOpCl=  1 I1Cent=           0 NGrid=           0
         NMat0=   42 NMatS0=     42 NMatT0=    0 NMatD0=   42 NMtDS0=    0 NMtDT0=    0
 Integrals replicated using symmetry in FoFCou.
 Raff kept on since  95.90% of shell-pairs survive, threshold=   0.20 IRatSp=96.
          There are    45 degrees of freedom in the 1st order CPHF.  IDoFFX=6 NUNeed=     0.
     39 vectors produced by pass  0 Test12= 2.10D-14 2.22D-09 XBig12= 1.35D-01 1.09D-01.
 AX will form    39 AO Fock derivatives at one time.
     39 vectors produced by pass  1 Test12= 2.10D-14 2.22D-09 XBig12= 5.99D-03 1.34D-02.
     39 vectors produced by pass  2 Test12= 2.10D-14 2.22D-09 XBig12= 3.18D-04 3.49D-03.
     39 vectors produced by pass  3 Test12= 2.10D-14 2.22D-09 XBig12= 8.17D-06 4.39D-04.
     39 vectors produced by pass  4 Test12= 2.10D-14 2.22D-09 XBig12= 1.22D-07 4.15D-05.
     39 vectors produced by pass  5 Test12= 2.10D-14 2.22D-09 XBig12= 1.21D-09 3.95D-06.
     39 vectors produced by pass  6 Test12= 2.10D-14 2.22D-09 XBig12= 1.10D-11 3.70D-07.
     13 vectors produced by pass  7 Test12= 2.10D-14 2.22D-09 XBig12= 7.97D-14 2.64D-08.
 InvSVY:  IOpt=1 It=  1 EMax= 1.78D-15
 Solved reduced A of dimension   286 with    39 vectors.
 End of Minotr F.D. properties file   721 does not exist.
 End of Minotr F.D. properties file   722 does not exist.
 End of Minotr F.D. properties file   788 does not exist.
 Leave Link 1002 at Tue Apr  9 00:58:35 2019, MaxMem=   671088640 cpu:            2570.4 elap:             128.5
 (Enter /shared/centos7/gaussian/g16/l601.exe)
 Copying SCF densities to generalized density rwf, IOpCl= 1 IROHF=0.

 **********************************************************************

            Population analysis using the SCF density.

 **********************************************************************

 Orbital symmetries:
 Alpha Orbitals:
       Occupied  (A) (A) (A) (A) (A) (A) (A) (A) (A) (A) (A) (A)
                 (A) (A) (A) (A) (A) (A) (A) (A) (A)
       Virtual   (A) (A) (A) (A) (A) (A) (A) (A) (A) (A) (A) (A)
                 (A) (A) (A) (A) (A) (A) (A) (A) (A) (A) (A) (A)
                 (A) (A) (A) (A) (A) (A) (A) (A) (A) (A) (A) (A)
                 (A) (A) (A) (A) (A) (A) (A) (A) (A) (A) (A) (A)
                 (A) (A) (A) (A) (A) (A) (A) (A) (A) (A) (A) (A)
                 (A) (A) (A) (A) (A) (A) (A) (A) (A) (A) (A) (A)
                 (A) (A) (A) (A) (A) (A) (A) (A) (A) (A) (A) (A)
                 (A) (A) (A) (A) (A) (A) (A) (A) (A) (A) (A) (A)
                 (A) (A) (A) (A) (A) (A) (A) (A) (A) (A) (A) (A)
                 (A) (A) (A) (A) (A) (A) (A) (A) (A) (A) (A) (A)
                 (A) (A) (A) (A) (A) (A) (A) (A) (A) (A) (A) (A)
                 (A) (A) (A) (A) (A) (A) (A) (A) (A) (A) (A) (A)
                 (A) (A) (A) (A) (A) (A) (A) (A) (A) (A) (A) (A)
                 (A) (A) (A) (A) (A) (A) (A) (A) (A) (A) (A) (A)
                 (A) (A) (A) (A) (A) (A) (A) (A) (A) (A) (A) (A)
                 (A) (A) (A) (A) (A) (A) (A) (A) (A) (A) (A) (A)
                 (A) (A) (A) (A) (A) (A) (A) (A) (A) (A) (A) (A)
                 (A) (A) (A) (A) (A) (A) (A) (A) (A) (A) (A) (A)
                 (A) (A) (A) (A) (A) (A) (A) (A) (A) (A) (A) (A)
                 (A) (A)
 Beta  Orbitals:
       Occupied  (A) (A) (A) (A) (A) (A) (A) (A) (A) (A) (A) (A)
                 (A) (A) (A) (A) (A) (A) (A) (A)
       Virtual   (A) (A) (A) (A) (A) (A) (A) (A) (A) (A) (A) (A)
                 (A) (A) (A) (A) (A) (A) (A) (A) (A) (A) (A) (A)
                 (A) (A) (A) (A) (A) (A) (A) (A) (A) (A) (A) (A)
                 (A) (A) (A) (A) (A) (A) (A) (A) (A) (A) (A) (A)
                 (A) (A) (A) (A) (A) (A) (A) (A) (A) (A) (A) (A)
                 (A) (A) (A) (A) (A) (A) (A) (A) (A) (A) (A) (A)
                 (A) (A) (A) (A) (A) (A) (A) (A) (A) (A) (A) (A)
                 (A) (A) (A) (A) (A) (A) (A) (A) (A) (A) (A) (A)
                 (A) (A) (A) (A) (A) (A) (A) (A) (A) (A) (A) (A)
                 (A) (A) (A) (A) (A) (A) (A) (A) (A) (A) (A) (A)
                 (A) (A) (A) (A) (A) (A) (A) (A) (A) (A) (A) (A)
                 (A) (A) (A) (A) (A) (A) (A) (A) (A) (A) (A) (A)
                 (A) (A) (A) (A) (A) (A) (A) (A) (A) (A) (A) (A)
                 (A) (A) (A) (A) (A) (A) (A) (A) (A) (A) (A) (A)
                 (A) (A) (A) (A) (A) (A) (A) (A) (A) (A) (A) (A)
                 (A) (A) (A) (A) (A) (A) (A) (A) (A) (A) (A) (A)
                 (A) (A) (A) (A) (A) (A) (A) (A) (A) (A) (A) (A)
                 (A) (A) (A) (A) (A) (A) (A) (A) (A) (A) (A) (A)
                 (A) (A) (A) (A) (A) (A) (A) (A) (A) (A) (A) (A)
                 (A) (A) (A)
 The electronic state is 2-A.
 Alpha  occ. eigenvalues --  -19.62206 -10.58475 -10.55032 -10.54547 -10.53403
 Alpha  occ. eigenvalues --   -1.14655  -0.90384  -0.80835  -0.73896  -0.65524
 Alpha  occ. eigenvalues --   -0.58503  -0.53551  -0.52255  -0.50519  -0.49262
 Alpha  occ. eigenvalues --   -0.43703  -0.43152  -0.40680  -0.39882  -0.35031
 Alpha  occ. eigenvalues --   -0.25129
 Alpha virt. eigenvalues --    0.01687   0.02872   0.03275   0.03833   0.05793
 Alpha virt. eigenvalues --    0.06318   0.06914   0.07630   0.08403   0.10773
 Alpha virt. eigenvalues --    0.11228   0.11948   0.12845   0.13132   0.14539
 Alpha virt. eigenvalues --    0.15366   0.17757   0.18994   0.20090   0.22410
 Alpha virt. eigenvalues --    0.23051   0.23663   0.24296   0.24899   0.26297
 Alpha virt. eigenvalues --    0.27292   0.28479   0.29034   0.31602   0.32449
 Alpha virt. eigenvalues --    0.33588   0.36092   0.37666   0.41405   0.44331
 Alpha virt. eigenvalues --    0.44512   0.46500   0.48043   0.51023   0.51505
 Alpha virt. eigenvalues --    0.53344   0.54038   0.55320   0.55795   0.57577
 Alpha virt. eigenvalues --    0.58547   0.59126   0.59694   0.60452   0.62603
 Alpha virt. eigenvalues --    0.63090   0.65220   0.65568   0.67523   0.68475
 Alpha virt. eigenvalues --    0.70685   0.71326   0.74883   0.77791   0.83371
 Alpha virt. eigenvalues --    0.84050   0.86561   0.87249   0.88824   0.93611
 Alpha virt. eigenvalues --    0.97384   1.00698   1.02135   1.02942   1.04583
 Alpha virt. eigenvalues --    1.06267   1.08437   1.09735   1.11434   1.12429
 Alpha virt. eigenvalues --    1.14586   1.17917   1.18258   1.20217   1.21964
 Alpha virt. eigenvalues --    1.22724   1.24455   1.27131   1.29807   1.30334
 Alpha virt. eigenvalues --    1.31602   1.36331   1.36913   1.37281   1.38898
 Alpha virt. eigenvalues --    1.40229   1.42035   1.43802   1.45200   1.45628
 Alpha virt. eigenvalues --    1.46257   1.47918   1.50979   1.52170   1.52632
 Alpha virt. eigenvalues --    1.55465   1.56889   1.57728   1.60365   1.64322
 Alpha virt. eigenvalues --    1.67453   1.72950   1.77336   1.80234   1.95579
 Alpha virt. eigenvalues --    2.09009   2.10556   2.26732   2.33460   2.38797
 Alpha virt. eigenvalues --    2.42390   2.45401   2.52421   2.55140   2.59616
 Alpha virt. eigenvalues --    2.60238   2.72949   2.74043   2.75432   2.79217
 Alpha virt. eigenvalues --    2.80896   2.83130   2.83587   2.86600   2.87607
 Alpha virt. eigenvalues --    2.92612   2.96587   2.98408   3.05516   3.05848
 Alpha virt. eigenvalues --    3.08264   3.09882   3.13342   3.14832   3.15590
 Alpha virt. eigenvalues --    3.19578   3.21551   3.23999   3.26191   3.29533
 Alpha virt. eigenvalues --    3.30212   3.31547   3.33967   3.34480   3.39618
 Alpha virt. eigenvalues --    3.42932   3.44505   3.47167   3.51045   3.53351
 Alpha virt. eigenvalues --    3.55379   3.58466   3.61471   3.63378   3.64144
 Alpha virt. eigenvalues --    3.68306   3.70539   3.73382   3.74672   3.76667
 Alpha virt. eigenvalues --    3.81118   3.82764   3.83289   3.85931   3.91365
 Alpha virt. eigenvalues --    3.94523   3.95593   3.98256   4.00520   4.04309
 Alpha virt. eigenvalues --    4.07686   4.08556   4.10730   4.12406   4.13904
 Alpha virt. eigenvalues --    4.15434   4.17246   4.21602   4.23897   4.26126
 Alpha virt. eigenvalues --    4.29641   4.31003   4.33646   4.35555   4.39268
 Alpha virt. eigenvalues --    4.39774   4.41153   4.47052   4.50838   4.52492
 Alpha virt. eigenvalues --    4.54643   4.56460   4.62983   4.66174   4.75234
 Alpha virt. eigenvalues --    4.91731   5.04944   5.07943   5.21082   5.25939
 Alpha virt. eigenvalues --    5.32176   5.36348   5.41053   5.43212   5.47047
 Alpha virt. eigenvalues --    5.51328   5.52426   5.55288   5.56649   5.58966
 Alpha virt. eigenvalues --    5.64134   5.87207   5.96282   6.52667   6.97493
 Alpha virt. eigenvalues --    7.10042   7.20370   7.22478   7.51015   7.64461
 Alpha virt. eigenvalues --   24.14279  24.28317  24.40834  24.49389  50.12134
  Beta  occ. eigenvalues --  -19.62149 -10.58544 -10.54615 -10.54371 -10.53371
  Beta  occ. eigenvalues --   -1.14407  -0.89084  -0.79803  -0.73112  -0.64120
  Beta  occ. eigenvalues --   -0.57859  -0.52567  -0.51558  -0.49919  -0.48651
  Beta  occ. eigenvalues --   -0.43280  -0.42373  -0.40115  -0.39199  -0.34571
  Beta virt. eigenvalues --   -0.03259   0.01375   0.02678   0.03081   0.03638
  Beta virt. eigenvalues --    0.05863   0.06173   0.06711   0.07290   0.07718
  Beta virt. eigenvalues --    0.10692   0.11219   0.11692   0.12302   0.13034
  Beta virt. eigenvalues --    0.14100   0.14557   0.17729   0.19058   0.20576
  Beta virt. eigenvalues --    0.21989   0.23081   0.23753   0.24519   0.25545
  Beta virt. eigenvalues --    0.26750   0.27267   0.28497   0.29053   0.31783
  Beta virt. eigenvalues --    0.32990   0.33961   0.36397   0.38018   0.41621
  Beta virt. eigenvalues --    0.44523   0.44753   0.46551   0.48213   0.51424
  Beta virt. eigenvalues --    0.52034   0.53342   0.54760   0.55542   0.56236
  Beta virt. eigenvalues --    0.57997   0.58802   0.59031   0.59679   0.61072
  Beta virt. eigenvalues --    0.62844   0.63395   0.65345   0.65813   0.68075
  Beta virt. eigenvalues --    0.68878   0.70964   0.71473   0.75183   0.77432
  Beta virt. eigenvalues --    0.83361   0.84020   0.86642   0.87392   0.88504
  Beta virt. eigenvalues --    0.92721   0.97364   1.00808   1.02176   1.02977
  Beta virt. eigenvalues --    1.04887   1.06156   1.08345   1.09666   1.11298
  Beta virt. eigenvalues --    1.12471   1.14551   1.18091   1.18613   1.20074
  Beta virt. eigenvalues --    1.21969   1.22958   1.24719   1.27454   1.29959
  Beta virt. eigenvalues --    1.30531   1.31951   1.36494   1.36942   1.37633
  Beta virt. eigenvalues --    1.39063   1.40554   1.42003   1.43880   1.45118
  Beta virt. eigenvalues --    1.45767   1.46384   1.47864   1.51450   1.52446
  Beta virt. eigenvalues --    1.52898   1.55355   1.56947   1.57981   1.60506
  Beta virt. eigenvalues --    1.64682   1.67610   1.73128   1.77804   1.80593
  Beta virt. eigenvalues --    1.95777   2.09522   2.10962   2.26856   2.33544
  Beta virt. eigenvalues --    2.39202   2.42953   2.45788   2.53031   2.55601
  Beta virt. eigenvalues --    2.60480   2.60892   2.74652   2.76214   2.76502
  Beta virt. eigenvalues --    2.80435   2.82845   2.84366   2.86850   2.88687
  Beta virt. eigenvalues --    2.90224   2.96201   2.98413   2.98676   3.06619
  Beta virt. eigenvalues --    3.07699   3.09099   3.11032   3.14151   3.15253
  Beta virt. eigenvalues --    3.17197   3.20380   3.22862   3.24765   3.26808
  Beta virt. eigenvalues --    3.30667   3.32295   3.33777   3.34739   3.35299
  Beta virt. eigenvalues --    3.42412   3.45727   3.47191   3.49363   3.51467
  Beta virt. eigenvalues --    3.54156   3.57445   3.60347   3.62451   3.63972
  Beta virt. eigenvalues --    3.66099   3.68280   3.70751   3.73565   3.75109
  Beta virt. eigenvalues --    3.77474   3.81294   3.83480   3.84134   3.86866
  Beta virt. eigenvalues --    3.92099   3.95044   3.96699   3.98654   4.01371
  Beta virt. eigenvalues --    4.05387   4.08641   4.09852   4.12497   4.13504
  Beta virt. eigenvalues --    4.14983   4.16177   4.18818   4.22314   4.24502
  Beta virt. eigenvalues --    4.26696   4.30968   4.32238   4.34631   4.36192
  Beta virt. eigenvalues --    4.39926   4.40377   4.41759   4.48807   4.51856
  Beta virt. eigenvalues --    4.53549   4.56227   4.58292   4.63683   4.67756
  Beta virt. eigenvalues --    4.78199   4.94527   5.07053   5.09087   5.21227
  Beta virt. eigenvalues --    5.26146   5.33693   5.36326   5.40866   5.44989
  Beta virt. eigenvalues --    5.50570   5.52076   5.52799   5.55793   5.56636
  Beta virt. eigenvalues --    5.59267   5.64908   5.87381   5.96509   6.52646
  Beta virt. eigenvalues --    6.97651   7.10102   7.20628   7.22635   7.51075
  Beta virt. eigenvalues --    7.64627  24.15001  24.28639  24.40860  24.49915
  Beta virt. eigenvalues --   50.12070
          Condensed to atoms (all electrons):
               1          2          3          4          5          6
     1  O    8.108437   0.044106   0.165197  -0.001767  -0.114926  -0.000186
     2  C    0.044106   5.471442  -0.044578   0.095976  -0.109066   0.475028
     3  C    0.165197  -0.044578   5.097998  -0.079374   0.211499   0.024317
     4  C   -0.001767   0.095976  -0.079374   5.243733   0.062582  -0.052617
     5  C   -0.114926  -0.109066   0.211499   0.062582   5.949039  -0.079735
     6  H   -0.000186   0.475028   0.024317  -0.052617  -0.079735   0.534580
     7  H   -0.000965   0.409619  -0.024078  -0.045718  -0.006103  -0.035514
     8  H   -0.000100  -0.063065  -0.001884   0.427442   0.025241  -0.000498
     9  H    0.000471  -0.002251   0.008893   0.392113  -0.047605   0.006579
    10  H   -0.000002  -0.033977  -0.006056   0.423719  -0.002092  -0.011922
    11  H   -0.064954  -0.036177   0.429057   0.008036  -0.004542  -0.000363
    12  H   -0.030967   0.047962   0.438342  -0.026541  -0.090527  -0.000163
    13  H    0.006991  -0.012682  -0.025650  -0.002675   0.393033  -0.004957
    14  H    0.234540  -0.006363  -0.009329   0.001404   0.003994  -0.000033
               7          8          9         10         11         12
     1  O   -0.000965  -0.000100   0.000471  -0.000002  -0.064954  -0.030967
     2  C    0.409619  -0.063065  -0.002251  -0.033977  -0.036177   0.047962
     3  C   -0.024078  -0.001884   0.008893  -0.006056   0.429057   0.438342
     4  C   -0.045718   0.427442   0.392113   0.423719   0.008036  -0.026541
     5  C   -0.006103   0.025241  -0.047605  -0.002092  -0.004542  -0.090527
     6  H   -0.035514  -0.000498   0.006579  -0.011922  -0.000363  -0.000163
     7  H    0.562967  -0.007918  -0.003497   0.005925   0.001732  -0.000606
     8  H   -0.007918   0.537695  -0.029233  -0.023620   0.000010   0.000870
     9  H   -0.003497  -0.029233   0.575012  -0.033806  -0.000836   0.004701
    10  H    0.005925  -0.023620  -0.033806   0.538574  -0.000043   0.001130
    11  H    0.001732   0.000010  -0.000836  -0.000043   0.578218  -0.050221
    12  H   -0.000606   0.000870   0.004701   0.001130  -0.050221   0.569973
    13  H    0.000164  -0.000214   0.000508   0.000035  -0.001428   0.003721
    14  H    0.000015  -0.000002  -0.000011  -0.000033   0.009535  -0.005503
              13         14
     1  O    0.006991   0.234540
     2  C   -0.012682  -0.006363
     3  C   -0.025650  -0.009329
     4  C   -0.002675   0.001404
     5  C    0.393033   0.003994
     6  H   -0.004957  -0.000033
     7  H    0.000164   0.000015
     8  H   -0.000214  -0.000002
     9  H    0.000508  -0.000011
    10  H    0.000035  -0.000033
    11  H   -0.001428   0.009535
    12  H    0.003721  -0.005503
    13  H    0.453648  -0.000127
    14  H   -0.000127   0.523912
          Atomic-Atomic Spin Densities.
               1          2          3          4          5          6
     1  O    0.044138   0.010842   0.004166   0.000713  -0.043312   0.000284
     2  C    0.010842   0.020080   0.053839   0.023980  -0.215375   0.017502
     3  C    0.004166   0.053839  -0.038868   0.003333  -0.111109   0.006240
     4  C    0.000713   0.023980   0.003333   0.034947  -0.018931   0.007468
     5  C   -0.043312  -0.215375  -0.111109  -0.018931   1.510101  -0.030998
     6  H    0.000284   0.017502   0.006240   0.007468  -0.030998   0.021537
     7  H   -0.000755  -0.001974  -0.012291  -0.011570   0.005541  -0.010105
     8  H   -0.000039  -0.014713  -0.003616   0.005586   0.012570  -0.000687
     9  H    0.000530   0.008210   0.006346  -0.000724  -0.015458   0.000554
    10  H   -0.000096   0.012154   0.001770  -0.008784  -0.004961  -0.000360
    11  H   -0.014997  -0.011632   0.013318   0.002020  -0.007661  -0.000314
    12  H    0.009641   0.021169   0.020789  -0.007566  -0.048994   0.000341
    13  H    0.002340   0.018492   0.011907  -0.002287  -0.030938   0.001034
    14  H   -0.000650   0.003516   0.009396  -0.001591  -0.003096  -0.000033
               7          8          9         10         11         12
     1  O   -0.000755  -0.000039   0.000530  -0.000096  -0.014997   0.009641
     2  C   -0.001974  -0.014713   0.008210   0.012154  -0.011632   0.021169
     3  C   -0.012291  -0.003616   0.006346   0.001770   0.013318   0.020789
     4  C   -0.011570   0.005586  -0.000724  -0.008784   0.002020  -0.007566
     5  C    0.005541   0.012570  -0.015458  -0.004961  -0.007661  -0.048994
     6  H   -0.010105  -0.000687   0.000554  -0.000360  -0.000314   0.000341
     7  H    0.079532   0.002302  -0.002207   0.000283   0.002494  -0.001637
     8  H    0.002302  -0.002922  -0.000186   0.001259   0.000082  -0.000341
     9  H   -0.002207  -0.000186  -0.002361  -0.000791  -0.000938   0.003119
    10  H    0.000283   0.001259  -0.000791  -0.004554   0.000037   0.000089
    11  H    0.002494   0.000082  -0.000938   0.000037   0.070043  -0.012379
    12  H   -0.001637  -0.000341   0.003119   0.000089  -0.012379   0.028661
    13  H   -0.001329  -0.000011   0.000114   0.000023  -0.000962   0.000302
    14  H    0.000057   0.000005  -0.000014   0.000050   0.001013  -0.001662
              13         14
     1  O    0.002340  -0.000650
     2  C    0.018492   0.003516
     3  C    0.011907   0.009396
     4  C   -0.002287  -0.001591
     5  C   -0.030938  -0.003096
     6  H    0.001034  -0.000033
     7  H   -0.001329   0.000057
     8  H   -0.000011   0.000005
     9  H    0.000114  -0.000014
    10  H    0.000023   0.000050
    11  H   -0.000962   0.001013
    12  H    0.000302  -0.001662
    13  H   -0.052820   0.000159
    14  H    0.000159  -0.005327
 Mulliken charges and spin densities:
               1          2
     1  O   -0.345875   0.012804
     2  C   -0.235973  -0.053910
     3  C   -0.184354  -0.034780
     4  C   -0.446312   0.026596
     5  C   -0.190792   0.997379
     6  H    0.145485   0.012461
     7  H    0.143977   0.048341
     8  H    0.135276  -0.000711
     9  H    0.128961  -0.003804
    10  H    0.142167  -0.003881
    11  H    0.131977   0.040125
    12  H    0.137829   0.011532
    13  H    0.189633  -0.053976
    14  H    0.248001   0.001824
 Sum of Mulliken charges =  -0.00000   1.00000
 Mulliken charges and spin densities with hydrogens summed into heavy atoms:
               1          2
     1  O   -0.097874   0.014628
     2  C    0.053489   0.006892
     3  C    0.085452   0.016877
     4  C   -0.039908   0.018199
     5  C   -0.001160   0.943403
 APT charges:
               1
     1  O   -0.670533
     2  C   -0.895549
     3  C   -0.467214
     4  C   -1.098074
     5  C   -0.341305
     6  H    0.455263
     7  H    0.405421
     8  H    0.538942
     9  H    0.166524
    10  H    0.358929
    11  H    0.392508
    12  H    0.264871
    13  H    0.439151
    14  H    0.451066
 Sum of APT charges =  -0.00000
 APT charges with hydrogens summed into heavy atoms:
               1
     1  O   -0.219467
     2  C   -0.034865
     3  C    0.190165
     4  C   -0.033679
     5  C    0.097846
 Electronic spatial extent (au):  <R**2>=            561.7365
 Charge=             -0.0000 electrons
 Dipole moment (field-independent basis, Debye):
    X=              1.9340    Y=              0.2928    Z=             -0.5830  Tot=              2.0410
 Quadrupole moment (field-independent basis, Debye-Ang):
   XX=            -38.8593   YY=            -33.5448   ZZ=            -30.3658
   XY=             -0.6522   XZ=              1.3072   YZ=             -0.6393
 Traceless Quadrupole moment (field-independent basis, Debye-Ang):
   XX=             -4.6027   YY=              0.7118   ZZ=              3.8908
   XY=             -0.6522   XZ=              1.3072   YZ=             -0.6393
 Octapole moment (field-independent basis, Debye-Ang**2):
  XXX=             12.3497  YYY=             -0.4168  ZZZ=             -3.9774  XYY=             -2.3234
  XXY=              2.8668  XXZ=             -2.5629  XZZ=             -7.8671  YZZ=             -0.6262
  YYZ=             -1.4990  XYZ=              0.0186
 Hexadecapole moment (field-independent basis, Debye-Ang**3):
 XXXX=           -567.3635 YYYY=           -150.1731 ZZZZ=            -72.9709 XXXY=             -4.0843
 XXXZ=             11.0721 YYYX=              3.0526 YYYZ=             -4.4069 ZZZX=              7.5218
 ZZZY=              2.0656 XXYY=           -116.0715 XXZZ=            -86.0194 YYZZ=            -37.7725
 XXYZ=             -0.8532 YYXZ=              0.7354 ZZXY=              2.0780
 N-N= 1.793656611569D+02 E-N=-9.015932669261D+02  KE= 2.319105476946D+02
  Exact polarizability:   0.000   0.000   0.000   0.000   0.000   0.000
 Approx polarizability:  65.052   0.787  59.543   0.731  -0.874  62.619
                          Isotropic Fermi Contact Couplings
        Atom                 a.u.       MegaHertz       Gauss      10(-4) cm-1
     1  O(17)              0.02551     -15.46639      -5.51879      -5.15903
     2  C(13)             -0.03338     -37.52497     -13.38984     -12.51698
     3  C(13)             -0.03500     -39.34454     -14.03911     -13.12393
     4  C(13)              0.01973      22.17801       7.91366       7.39779
     5  C(13)              0.16203     182.14918      64.99536      60.75843
     6  H(1)               0.00484      21.64381       7.72305       7.21960
     7  H(1)               0.02779     124.23085      44.32866      41.43895
     8  H(1)              -0.00022      -1.00186      -0.35749      -0.33419
     9  H(1)              -0.00069      -3.06541      -1.09381      -1.02251
    10  H(1)              -0.00053      -2.37466      -0.84734      -0.79210
    11  H(1)               0.02308     103.18353      36.81845      34.41832
    12  H(1)               0.00794      35.50609      12.66946      11.84356
    13  H(1)              -0.01626     -72.67471     -25.93214     -24.24167
    14  H(1)              -0.00109      -4.88960      -1.74473      -1.63099
 --------------------------------------------------------
       Center         ----  Spin Dipole Couplings  ----
                      3XX-RR        3YY-RR        3ZZ-RR
 --------------------------------------------------------
     1   Atom        0.081791     -0.033221     -0.048569
     2   Atom        0.002669     -0.006943      0.004274
     3   Atom        0.006079     -0.002884     -0.003195
     4   Atom       -0.008003      0.025721     -0.017718
     5   Atom       -0.535743     -0.146932      0.682675
     6   Atom        0.013761     -0.006972     -0.006789
     7   Atom        0.013695     -0.009378     -0.004318
     8   Atom        0.003736     -0.000127     -0.003609
     9   Atom       -0.001557      0.007609     -0.006052
    10   Atom        0.000830      0.001114     -0.001943
    11   Atom        0.000601     -0.004421      0.003820
    12   Atom       -0.008089      0.013699     -0.005610
    13   Atom       -0.051165      0.039122      0.012043
    14   Atom        0.007901     -0.009393      0.001492
 --------------------------------------------------------
                        XY            XZ            YZ
 --------------------------------------------------------
     1   Atom        0.073806     -0.010021     -0.013798
     2   Atom       -0.004156     -0.001150      0.007542
     3   Atom        0.001336     -0.007621     -0.000772
     4   Atom       -0.012634      0.001215     -0.003086
     5   Atom        0.009690      0.023877      0.678151
     6   Atom        0.004345     -0.007088     -0.000380
     7   Atom        0.000406      0.010005      0.001406
     8   Atom       -0.004840      0.001742     -0.000388
     9   Atom       -0.006479      0.000568     -0.003212
    10   Atom       -0.006173     -0.003186      0.004778
    11   Atom        0.009178     -0.008692     -0.006755
    12   Atom        0.007425     -0.001527     -0.006597
    13   Atom       -0.039307      0.025301     -0.026007
    14   Atom        0.009160      0.006845      0.004267
 --------------------------------------------------------


 ---------------------------------------------------------------------------------
              Anisotropic Spin Dipole Couplings in Principal Axis System
 ---------------------------------------------------------------------------------

       Atom             a.u.   MegaHertz   Gauss  10(-4) cm-1        Axes

              Baa    -0.0721     5.220     1.863     1.741 -0.3892  0.8575  0.3365
     1 O(17)  Bbb    -0.0471     3.406     1.215     1.136  0.2251 -0.2657  0.9374
              Bcc     0.1192    -8.625    -3.078    -2.877  0.8932  0.4406 -0.0896
 
              Baa    -0.0115    -1.540    -0.550    -0.514  0.2268  0.8848 -0.4070
     2 C(13)  Bbb     0.0021     0.278     0.099     0.093  0.8786 -0.0056  0.4775
              Bcc     0.0094     1.263     0.451     0.421 -0.4202  0.4660  0.7786
 
              Baa    -0.0075    -1.004    -0.358    -0.335  0.4897  0.0040  0.8719
     3 C(13)  Bbb    -0.0031    -0.411    -0.147    -0.137 -0.1015  0.9934  0.0524
              Bcc     0.0105     1.414     0.505     0.472  0.8660  0.1142 -0.4869
 
              Baa    -0.0180    -2.409    -0.860    -0.804 -0.0510  0.0557  0.9971
     4 C(13)  Bbb    -0.0122    -1.638    -0.584    -0.546  0.9475  0.3181  0.0307
              Bcc     0.0302     4.047     1.444     1.350 -0.3155  0.9464 -0.0690
 
              Baa    -0.5372   -72.084   -25.722   -24.045  0.9526  0.2577 -0.1619
     5 C(13)  Bbb    -0.5261   -70.591   -25.189   -23.547 -0.3040  0.8334 -0.4616
              Bcc     1.0632   142.676    50.910    47.591  0.0160  0.4889  0.8722
 
              Baa    -0.0095    -5.057    -1.805    -1.687  0.3366 -0.4587  0.8224
     6 H(1)   Bbb    -0.0073    -3.872    -1.382    -1.292 -0.0142  0.8708  0.4915
              Bcc     0.0167     8.929     3.186     2.978  0.9415  0.1771 -0.2866
 
              Baa    -0.0103    -5.471    -1.952    -1.825  0.2209  0.7976 -0.5612
     7 H(1)   Bbb    -0.0079    -4.230    -1.509    -1.411 -0.3445  0.6022  0.7202
              Bcc     0.0182     9.702     3.462     3.236  0.9124  0.0342  0.4079
 
              Baa    -0.0043    -2.306    -0.823    -0.769 -0.4224 -0.4127  0.8070
     8 H(1)   Bbb    -0.0029    -1.573    -0.561    -0.525  0.3788  0.7285  0.5708
              Bcc     0.0073     3.879     1.384     1.294  0.8235 -0.5468  0.1514
 
              Baa    -0.0070    -3.754    -1.339    -1.252  0.2935  0.3269  0.8983
     9 H(1)   Bbb    -0.0045    -2.391    -0.853    -0.797  0.8469  0.3469 -0.4030
              Bcc     0.0115     6.144     2.192     2.049 -0.4433  0.8791 -0.1750
 
              Baa    -0.0059    -3.163    -1.129    -1.055  0.4078  0.7298 -0.5488
    10 H(1)   Bbb    -0.0039    -2.098    -0.749    -0.700  0.6815  0.1567  0.7149
              Bcc     0.0099     5.261     1.877     1.755 -0.6077  0.6655  0.4334
 
              Baa    -0.0114    -6.096    -2.175    -2.034 -0.6016  0.7987  0.0109
    11 H(1)   Bbb    -0.0055    -2.911    -1.039    -0.971  0.5198  0.3811  0.7646
              Bcc     0.0169     9.008     3.214     3.005 -0.6065 -0.4657  0.6444
 
              Baa    -0.0105    -5.578    -1.990    -1.861  0.9320 -0.3284 -0.1533
    12 H(1)   Bbb    -0.0075    -3.988    -1.423    -1.330  0.2317  0.2144  0.9489
              Bcc     0.0179     9.565     3.413     3.191  0.2787  0.9199 -0.2759
 
              Baa    -0.0688   -36.728   -13.105   -12.251  0.9354  0.2928 -0.1985
    13 H(1)   Bbb    -0.0037    -1.984    -0.708    -0.662  0.0146  0.5286  0.8487
              Bcc     0.0726    38.712    13.813    12.913 -0.3534  0.7968 -0.4902
 
              Baa    -0.0135    -7.181    -2.562    -2.395 -0.3660  0.9256 -0.0966
    14 H(1)   Bbb    -0.0027    -1.458    -0.520    -0.486 -0.4778 -0.0978  0.8730
              Bcc     0.0162     8.639     3.083     2.882  0.7986  0.3656  0.4780
 

 ---------------------------------------------------------------------------------

 No NMR shielding tensors so no spin-rotation constants.
 Leave Link  601 at Tue Apr  9 00:58:36 2019, MaxMem=   671088640 cpu:               8.4 elap:               0.5
 (Enter /shared/centos7/gaussian/g16/l701.exe)
 SCFChk:  SCF convergence  9.75D-09 required  1.00D-08
 ... and contract with generalized density number  0.
 Compute integral second derivatives.
 Entering OneElI...
 Calculate overlap and kinetic energy integrals
    NBasis = 276  MinDer = 2  MaxDer = 2
 Requested accuracy = 0.1000D-12
 PrmmSu-InSpLW:  IPartL=    0 NPrtUS=   20 NPrtUL=    1 DoSpLW=F IThBeg=    0 IThEnd=   19 NThAct=   20.
 PrsmSu:  NPrtUS=  20 ThrOK=T IAlg=1 NPAlg=1 LenDen=           0 ISkipM=0 DoSpLW=F IThBeg=    0 IThEnd=   19.
 Prism:   IPart=     0 DynPar=F LinDyn=F Incr=           1.
 PRISM was handed    33457189 working-precision words and  3647 shell-pairs
 PRISM was handed    33457189 working-precision words and  3647 shell-pairs
 PRISM was handed    33457189 working-precision words and  3647 shell-pairs
 PRISM was handed    33457189 working-precision words and  3647 shell-pairs
 PRISM was handed    33457189 working-precision words and  3647 shell-pairs
 PRISM was handed    33457189 working-precision words and  3647 shell-pairs
 PRISM was handed    33457189 working-precision words and  3647 shell-pairs
 PRISM was handed    33457189 working-precision words and  3647 shell-pairs
 PRISM was handed    33457189 working-precision words and  3647 shell-pairs
 PRISM was handed    33457189 working-precision words and  3647 shell-pairs
 PRISM was handed    33457189 working-precision words and  3647 shell-pairs
 PRISM was handed    33457189 working-precision words and  3647 shell-pairs
 PRISM was handed    33457189 working-precision words and  3647 shell-pairs
 PRISM was handed    33457189 working-precision words and  3647 shell-pairs
 PRISM was handed    33457189 working-precision words and  3647 shell-pairs
 PRISM was handed    33457189 working-precision words and  3647 shell-pairs
 PRISM was handed    33457189 working-precision words and  3647 shell-pairs
 PRISM was handed    33457189 working-precision words and  3647 shell-pairs
 PRISM was handed    33457189 working-precision words and  3647 shell-pairs
 PRISM was handed    33457189 working-precision words and  3647 shell-pairs
 IPart=  0 NShTot=         214 NBatch=          54 AvBLen=         4.0
 IPart= 18 NShTot=         162 NBatch=          28 AvBLen=         5.8
 IPart= 15 NShTot=         166 NBatch=          31 AvBLen=         5.4
 IPart= 16 NShTot=         165 NBatch=          31 AvBLen=         5.3
 IPart= 17 NShTot=         164 NBatch=          30 AvBLen=         5.5
 IPart= 19 NShTot=         161 NBatch=          28 AvBLen=         5.8
 IPart=  6 NShTot=         188 NBatch=          38 AvBLen=         4.9
 IPart=  4 NShTot=         199 NBatch=          42 AvBLen=         4.7
 IPart=  3 NShTot=         203 NBatch=          45 AvBLen=         4.5
 IPart=  8 NShTot=         183 NBatch=          37 AvBLen=         4.9
 IPart=  9 NShTot=         182 NBatch=          36 AvBLen=         5.1
 IPart=  5 NShTot=         193 NBatch=          39 AvBLen=         4.9
 IPart= 14 NShTot=         170 NBatch=          32 AvBLen=         5.3
 IPart=  1 NShTot=         207 NBatch=          49 AvBLen=         4.2
 IPart= 10 NShTot=         180 NBatch=          36 AvBLen=         5.0
 IPart= 12 NShTot=         172 NBatch=          32 AvBLen=         5.4
 IPart=  2 NShTot=         204 NBatch=          46 AvBLen=         4.4
 IPart= 11 NShTot=         177 NBatch=          34 AvBLen=         5.2
 IPart=  7 NShTot=         187 NBatch=          38 AvBLen=         4.9
 IPart= 13 NShTot=         170 NBatch=          32 AvBLen=         5.3
 PrSmSu:  NxtVal=             21.
 Entering OneElI...
 Calculate potential energy integrals
    NBasis = 276  MinDer = 2  MaxDer = 2
 Requested accuracy = 0.1000D-12
 PrmmSu-InSpLW:  IPartL=    0 NPrtUS=   20 NPrtUL=    1 DoSpLW=F IThBeg=    0 IThEnd=   19 NThAct=   20.
 PrsmSu:  NPrtUS=  20 ThrOK=T IAlg=1 NPAlg=1 LenDen=           0 ISkipM=0 DoSpLW=F IThBeg=    0 IThEnd=   19.
 Prism:   IPart=     0 DynPar=F LinDyn=F Incr=          24.
 PRISM was handed    33469686 working-precision words and  3481 shell-pairs
 PRISM was handed    33469686 working-precision words and  3481 shell-pairs
 PRISM was handed    33469686 working-precision words and  3481 shell-pairs
 PRISM was handed    33469686 working-precision words and  3481 shell-pairs
 PRISM was handed    33469686 working-precision words and  3481 shell-pairs
 PRISM was handed    33469686 working-precision words and  3481 shell-pairs
 PRISM was handed    33469686 working-precision words and  3481 shell-pairs
 PRISM was handed    33469686 working-precision words and  3481 shell-pairs
 PRISM was handed    33469686 working-precision words and  3481 shell-pairs
 PRISM was handed    33469686 working-precision words and  3481 shell-pairs
 PRISM was handed    33469686 working-precision words and  3481 shell-pairs
 PRISM was handed    33469686 working-precision words and  3481 shell-pairs
 PRISM was handed    33469686 working-precision words and  3481 shell-pairs
 PRISM was handed    33469686 working-precision words and  3481 shell-pairs
 PRISM was handed    33469686 working-precision words and  3481 shell-pairs
 PRISM was handed    33469686 working-precision words and  3481 shell-pairs
 PRISM was handed    33469686 working-precision words and  3481 shell-pairs
 PRISM was handed    33469686 working-precision words and  3481 shell-pairs
 PRISM was handed    33469686 working-precision words and  3481 shell-pairs
 PRISM was handed    33469686 working-precision words and  3481 shell-pairs
 IPart= 19 NShTot=        2184 NBatch=         156 AvBLen=        14.0
 IPart= 18 NShTot=        2184 NBatch=         156 AvBLen=        14.0
 IPart= 15 NShTot=        2226 NBatch=         159 AvBLen=        14.0
 IPart=  0 NShTot=        2912 NBatch=         208 AvBLen=        14.0
 IPart=  5 NShTot=        2520 NBatch=         180 AvBLen=        14.0
 IPart=  6 NShTot=        2520 NBatch=         180 AvBLen=        14.0
 IPart= 12 NShTot=        2338 NBatch=         167 AvBLen=        14.0
 IPart=  9 NShTot=        2394 NBatch=         171 AvBLen=        14.0
 IPart=  7 NShTot=        2464 NBatch=         176 AvBLen=        14.0
 IPart=  3 NShTot=        2646 NBatch=         189 AvBLen=        14.0
 IPart=  2 NShTot=        2744 NBatch=         196 AvBLen=        14.0
 IPart= 17 NShTot=        2198 NBatch=         157 AvBLen=        14.0
 IPart= 16 NShTot=        2198 NBatch=         157 AvBLen=        14.0
 IPart= 13 NShTot=        2324 NBatch=         166 AvBLen=        14.0
 IPart= 10 NShTot=        2366 NBatch=         169 AvBLen=        14.0
 IPart=  1 NShTot=        2842 NBatch=         203 AvBLen=        14.0
 IPart=  8 NShTot=        2436 NBatch=         174 AvBLen=        14.0
 IPart= 14 NShTot=        2296 NBatch=         164 AvBLen=        14.0
 IPart= 11 NShTot=        2338 NBatch=         167 AvBLen=        14.0
 IPart=  4 NShTot=        2604 NBatch=         186 AvBLen=        14.0
 PrSmSu:  NxtVal=            481.
 Polarizability after L701:
                1             2             3 
      1  0.000000D+00
      2  0.000000D+00  0.000000D+00
      3  0.000000D+00  0.000000D+00  0.000000D+00
 Dipole Derivatives after L701:
                 1             2             3             4             5 
      1  -0.672341D+00  0.203461D+00 -0.810233D+00 -0.105578D+01 -0.123647D+01
      2  -0.472557D-01 -0.427704D+00 -0.708793D-01 -0.559891D+00 -0.770074D+00
      3   0.145477D+00  0.765637D-01 -0.911554D+00  0.641187D-01  0.591373D-01
                 6             7             8             9            10 
      1  -0.168256D+00  0.205904D+00 -0.401089D+00  0.731295D+00 -0.130538D+01
      2  -0.479297D-02  0.700147D-01 -0.751128D+00 -0.345591D-03  0.142456D+00
      3  -0.860797D+00  0.139333D-02  0.441486D-01 -0.856419D+00  0.997441D-02
                11            12            13            14            15 
      1   0.119569D+01  0.223775D+00 -0.165704D+00  0.371825D+00 -0.165423D+00
      2  -0.956193D+00 -0.575437D-01  0.512427D+00 -0.591029D+00  0.552743D+00
      3  -0.460740D-01 -0.103265D+01 -0.113356D+00  0.221692D+00 -0.267182D+00
                16            17            18            19            20 
      1   0.519520D+00  0.455999D+00 -0.583773D+00  0.438668D+00  0.222868D+00
      2   0.240926D+00  0.447316D+00 -0.384538D+00  0.130009D+00  0.281296D+00
      3  -0.143893D+00 -0.173219D+00  0.398953D+00  0.146901D+00  0.128014D+00
                21            22            23            24            25 
      1   0.633548D+00  0.124060D+01 -0.203239D+00  0.543944D+00 -0.166614D+00
      2   0.349292D+00 -0.387611D+00  0.200251D+00 -0.173360D+00  0.458668D+00
      3   0.496300D+00  0.137452D+00 -0.843307D-02  0.175980D+00 -0.135375D+00
                26            27            28            29            30 
      1  -0.260896D+00  0.136192D+00  0.159235D+00 -0.194937D+00 -0.771387D+00
      2   0.472694D+00 -0.240763D+00 -0.347379D-01  0.253604D+00  0.436905D+00
      3  -0.942496D-01  0.193491D+00 -0.351949D-01  0.109559D+00  0.663947D+00
                31            32            33            34            35 
      1   0.310083D+00 -0.125899D+00 -0.564259D+00  0.192316D-01  0.256847D+00
      2  -0.158576D-01  0.153734D+00  0.262111D-01 -0.246442D+00  0.587593D+00
      3  -0.149445D+00  0.133899D+00  0.713708D+00  0.114329D+00 -0.174931D+00
                36            37            38            39            40 
      1  -0.473156D-01  0.238751D+00 -0.186193D+00  0.113879D+00  0.233827D+00
      2  -0.234340D-02 -0.260371D+00  0.819312D+00 -0.481449D+00 -0.233462D-02
      3   0.187787D+00  0.611615D-01 -0.204661D+00  0.259390D+00 -0.103542D+00
                41            42 
      1  -0.979721D-01  0.728012D+00
      2   0.280328D+00  0.508649D-01
      3  -0.714453D-01  0.839042D+00
 Hessian after L701:
                1             2             3             4             5 
      1  0.555413D+01
      2 -0.109870D+01  0.113787D+02
      3 -0.248274D+01  0.938834D-01  0.587199D+01
      4  0.439663D+00  0.507050D-01  0.184482D-01  0.107463D+02
      5  0.442952D-01 -0.248839D+00 -0.797091D-03  0.544139D+00  0.121967D+02
      6  0.369573D-01 -0.671800D-03 -0.211537D+00  0.145852D+00  0.146418D-01
      7 -0.190598D+01  0.603955D+00  0.330423D+01 -0.337539D-01  0.346959D-01
      8  0.684347D+00 -0.654035D+01  0.354308D+00  0.728568D-01  0.549367D-02
      9  0.330890D+01  0.332153D+00 -0.431476D+01 -0.482410D-01 -0.509161D-01
     10  0.202233D+00 -0.512675D-01 -0.907955D-02 -0.446778D+01 -0.122215D+01
     11 -0.107096D-01 -0.122748D+00 -0.448342D-02 -0.122197D+01 -0.120709D+01
     12  0.227545D-01  0.121313D-02 -0.135719D+00 -0.873052D-01  0.407854D+00
     13  0.358871D+00  0.543405D+00  0.634578D-01 -0.559046D+00 -0.749188D+00
     14  0.397772D+00  0.617052D-01  0.610485D-01 -0.728182D+00 -0.482381D+01
     15  0.215542D+00  0.134765D+00 -0.212658D+00 -0.756357D-01 -0.488406D-02
     16  0.266249D-01  0.165792D-01 -0.114098D-01 -0.310458D+01  0.759232D+00
     17  0.253343D-01 -0.225727D-03 -0.883035D-02  0.733464D+00 -0.278391D+01
     18 -0.202795D-01 -0.985656D-02 -0.379872D-02 -0.802318D+00 -0.102403D+01
     19  0.137559D-01  0.955317D-02  0.327678D-02 -0.307741D+01  0.365793D+00
     20  0.138309D-01 -0.431168D-02  0.157240D-02  0.361504D+00 -0.314977D+01
     21  0.232046D-01  0.977293D-02 -0.854115D-02  0.838447D+00  0.755463D+00
     22  0.271525D-01 -0.394887D-02 -0.283133D-02  0.585521D-01  0.403796D-01
     23 -0.659099D-02 -0.664386D-02  0.480627D-03  0.492389D-01  0.768553D-02
     24  0.101600D-01 -0.689210D-03 -0.933959D-02  0.364775D-01 -0.842877D-02
     25  0.220447D-02 -0.127619D-01  0.506580D-02  0.261601D-01  0.511837D-01
     26 -0.396569D-01 -0.781374D-02 -0.144703D-02 -0.350506D-01 -0.694296D-01
     27  0.239763D-01 -0.867677D-02 -0.232142D-01 -0.154068D-01 -0.202620D-01
     28  0.256560D-01 -0.703988D-02 -0.133706D-01  0.412430D-01  0.215420D-01
     29 -0.134503D-01 -0.109555D-01  0.538091D-02 -0.110434D-01 -0.330459D-01
     30 -0.319455D-01  0.517596D-02  0.261831D-02 -0.243964D-01 -0.214213D-01
     31 -0.453637D-01 -0.620288D-02 -0.207600D+00  0.230286D-01 -0.655204D-02
     32  0.470721D-02  0.119117D+00  0.807898D-01 -0.114928D-02  0.157919D-01
     33 -0.188335D+00  0.105001D+00  0.810598D-01  0.865384D-02  0.165552D-01
     34  0.310622D-01 -0.224639D+00 -0.627880D-01 -0.298485D-01  0.777679D-01
     35 -0.274123D+00  0.305988D+00 -0.587659D-01  0.142636D+00  0.291162D-01
     36 -0.715561D-01 -0.539976D-01 -0.587868D-01 -0.288958D-01 -0.249167D-01
     37  0.976331D-02  0.689650D-01 -0.118579D-01 -0.651474D-01  0.363227D-01
     38  0.136728D+00  0.748968D-01 -0.387510D-01  0.415374D-01  0.666737D-01
     39 -0.427419D-01 -0.519084D-01 -0.579581D-01  0.141249D-01 -0.352126D-01
     40 -0.473977D+01  0.111398D+00 -0.592803D+00  0.258985D-02  0.253878D-02
     41  0.136216D+00 -0.499855D+01 -0.484389D+00  0.131609D-02 -0.556169D-02
     42 -0.803894D+00 -0.556165D+00 -0.919361D+00  0.201958D-01 -0.364080D-02
                6             7             8             9            10 
      6  0.139902D+02
      7 -0.186217D+00  0.116727D+02
      8 -0.740267D-01 -0.153581D+01  0.157067D+02
      9 -0.231320D-01 -0.175277D+01  0.467422D+00  0.152298D+02
     10 -0.756934D-01  0.236465D+00 -0.161257D+00  0.350698D-02  0.108802D+02
     11  0.400725D+00  0.163873D-01 -0.941275D-01 -0.363655D-02  0.932345D+00
     12 -0.475426D+01 -0.484141D-01  0.240382D-01 -0.114315D+00  0.217797D+00
     13  0.430893D-01 -0.299513D+01  0.228086D+01 -0.993865D+00  0.101173D+00
     14  0.384180D-02  0.238373D+01 -0.355165D+01 -0.862314D+00 -0.308293D+00
     15 -0.495414D+01 -0.943761D+00 -0.834878D+00 -0.547674D+01 -0.521810D-01
     16 -0.841384D+00  0.105077D+00  0.693584D-01 -0.532520D-01  0.454884D-01
     17 -0.103806D+01  0.952762D-01 -0.222759D-01 -0.263521D-01 -0.423883D-02
     18 -0.250825D+01 -0.877796D-01 -0.324531D-01 -0.302404D-01 -0.162680D-01
     19  0.887634D+00  0.430842D-01  0.257352D-02  0.184471D-01  0.676032D-01
     20  0.793219D+00  0.148826D-01  0.258962D-02  0.100527D-01  0.317789D-01
[...]
 ! A22   A(3,5,13)             117.8783         -DE/DX =    0.0                 !
 ! D1    D(14,1,3,5)            48.4245         -DE/DX =    0.0                 !
 ! D2    D(14,1,3,11)          169.6142         -DE/DX =    0.0                 !
 ! D3    D(14,1,3,12)          -75.0166         -DE/DX =    0.0                 !
 ! D4    D(5,2,4,8)           -178.0483         -DE/DX =    0.0                 !
 ! D5    D(5,2,4,9)            -58.3783         -DE/DX =    0.0                 !
 ! D6    D(5,2,4,10)            61.5599         -DE/DX =    0.0                 !
 ! D7    D(6,2,4,8)             58.9691         -DE/DX =    0.0                 !
 ! D8    D(6,2,4,9)            178.6391         -DE/DX =    0.0                 !
 ! D9    D(6,2,4,10)           -61.4227         -DE/DX =    0.0                 !
 ! D10   D(7,2,4,8)            -57.0299         -DE/DX =    0.0                 !
 ! D11   D(7,2,4,9)             62.6401         -DE/DX =    0.0                 !
 ! D12   D(7,2,4,10)          -177.4217         -DE/DX =    0.0                 !
 ! D13   D(4,2,5,3)             65.0551         -DE/DX =    0.0                 !
 ! D14   D(4,2,5,13)          -105.8042         -DE/DX =    0.0                 !
 ! D15   D(6,2,5,3)           -172.453          -DE/DX =    0.0                 !
 ! D16   D(6,2,5,13)            16.6877         -DE/DX =    0.0                 !
 ! D17   D(7,2,5,3)            -55.1201         -DE/DX =    0.0                 !
 ! D18   D(7,2,5,13)           134.0206         -DE/DX =    0.0                 !
 ! D19   D(1,3,5,2)           -108.4876         -DE/DX =    0.0                 !
 ! D20   D(1,3,5,13)            62.5944         -DE/DX =    0.0                 !
 ! D21   D(11,3,5,2)           134.1301         -DE/DX =    0.0                 !
 ! D22   D(11,3,5,13)          -54.7879         -DE/DX =    0.0                 !
 ! D23   D(12,3,5,2)            15.0625         -DE/DX =    0.0                 !
 ! D24   D(12,3,5,13)         -173.8555         -DE/DX =    0.0                 !
 --------------------------------------------------------------------------------
 GradGradGradGradGradGradGradGradGradGradGradGradGradGradGradGradGradGrad

 Leave Link  103 at Tue Apr  9 01:24:47 2019, MaxMem=   671088640 cpu:               0.5 elap:               0.1
 (Enter /shared/centos7/gaussian/g16/l9999.exe)

 ----------------------------------------------------------------------

 Electric dipole moment (input orientation):
 (Debye = 10**-18 statcoulomb cm , SI units = C m)
                  (au)            (Debye)         (10**-30 SI)
   Tot        0.834650D+00      0.212147D+01      0.707646D+01
   x          0.592244D+00      0.150533D+01      0.502125D+01
   y          0.550589D+00      0.139946D+01      0.466808D+01
   z         -0.206739D+00     -0.525478D+00     -0.175281D+01

 Dipole polarizability, Alpha (input orientation).
 (esu units = cm**3 , SI units = C**2 m**2 J**-1)
 Alpha(0;0):
               (au)            (10**-24 esu)      (10**-40 SI)
   iso        0.546370D+02      0.809637D+01      0.900843D+01
   aniso      0.101111D+02      0.149831D+01      0.166710D+01
   xx         0.538515D+02      0.797996D+01      0.887891D+01
   yx         0.506663D+01      0.750796D+00      0.835374D+00
   yy         0.547108D+02      0.810731D+01      0.902060D+01
   zx        -0.152149D+01     -0.225461D+00     -0.250860D+00
   zy        -0.235118D+01     -0.348409D+00     -0.387657D+00
   zz         0.553487D+02      0.820184D+01      0.912577D+01

 ----------------------------------------------------------------------

 Dipole orientation:
     8         -4.91205417          6.56683873         -0.29192169
     6         -3.49204290          5.16325632          6.03623256
     6         -2.77148223          6.09279898          1.28154144
     6         -5.72749085          6.97039121          6.46433738
     6         -3.32309161          4.29103181          3.36499657
     1         -3.65643970          3.55215361          7.30791321
     1         -1.75147760          6.15745900          6.55339669
     1         -5.78268555          7.63873035          8.41124766
     1         -5.57395555          8.62201455          5.23848001
     1         -7.51303980          6.02801898          6.05362917
     1         -1.33861436          5.34156654          0.00277678
     1         -2.04590754          7.87129427          2.05660566
     1         -3.87160769          2.38704871          2.86205504
     1         -6.33048720          6.93874682          0.77672372

 Electric dipole moment (dipole orientation):
 (Debye = 10**-18 statcoulomb cm , SI units = C m)
                  (au)            (Debye)         (10**-30 SI)
   Tot        0.834650D+00      0.212147D+01      0.707646D+01
   x          0.000000D+00      0.000000D+00      0.000000D+00
   y          0.000000D+00      0.000000D+00      0.000000D+00
   z          0.834650D+00      0.212147D+01      0.707646D+01

 Dipole polarizability, Alpha (dipole orientation).
 (esu units = cm**3 , SI units = C**2 m**2 J**-1)
 Alpha(0;0):
               (au)            (10**-24 esu)      (10**-40 SI)
   iso        0.546370D+02      0.809637D+01      0.900843D+01
   aniso      0.101111D+02      0.149831D+01      0.166710D+01
   xx         0.524227D+02      0.776824D+01      0.864333D+01
   yx        -0.247378D+01     -0.366576D+00     -0.407871D+00
   yy         0.511247D+02      0.757591D+01      0.842933D+01
   zx        -0.169130D+01     -0.250626D+00     -0.278858D+00
   zy         0.285494D+00      0.423059D-01      0.470716D-01
   zz         0.603636D+02      0.894496D+01      0.995261D+01

 ----------------------------------------------------------------------

 Test job not archived.
 1\1\GINC-C0206\Freq\UM062X\6-311+G(2df,2p)\C4H9O1(2)\UNDERKOFFLER.C\09
 -Apr-2019\0\\#P Geom=AllCheck Guess=TCheck SCRF=Check Test GenChk UM06
 2X/6-311+G(2df,2p) Freq\\Gaussian input prepared by ASE\\0,2\O,-0.3563
 593,-1.3897925358,-4.0985030861\C,2.1893528207,1.0210267741,-3.9048043
 602\C,0.8159894943,-1.1021203276,-3.3355062339\C,2.0032742623,0.991487
 6141,-5.4311364582\C,1.0665039678,0.3555971118,-3.1867584268\H,2.29512
 4162,2.0527939108,-3.5708164818\H,3.1302972393,0.5133962705,-3.6660840
 809\H,2.8495765429,1.4517494453,-5.9403552221\H,1.9193250589,-0.036091
 4204,-5.7893538807\H,1.0983939807,1.5273482732,-5.7187941902\H,0.63895
 36884,-1.5740800306,-2.3676273547\H,1.6891063576,-1.588504901,-3.78548
 7765\H,0.3265397368,0.9450690327,-2.6621566157\H,-0.3289694094,-0.8633
 250427,-4.9010063689\\Version=EM64L-G16RevA.03\State=2-A\HF=-232.96644
 36\S2=0.755657\S2-1=0.\S2A=0.750026\RMSD=1.566e-09\RMSF=6.527e-07\Zero
 Point=0.123816\Thermal=0.1308326\Dipole=0.5922437,0.5505886,-0.2067389
 \DipoleDeriv=-0.786867,-0.1284916,-0.1982294,-0.1016633,-0.5645298,-0.
 1126819,-0.2739557,-0.1986489,-0.5117882,0.0946004,-0.0000894,0.033518
 5,0.0091097,0.0858886,-0.0269697,0.0780606,0.0211274,0.0679226,0.59225
 69,0.0942113,0.2216937,0.1059653,0.39703,0.0276262,0.2532297,0.1074577
 ,0.402461,0.0536689,-0.0456289,0.0279139,-0.0248628,0.0579384,0.010976
 3,-0.0185111,-0.0124853,0.0180075,0.0190797,0.07323,-0.2683889,-0.0367
 402,-0.0129867,0.0093674,-0.2353301,-0.0057317,-0.2171475,0.0468058,-0
 .0258574,0.0069892,-0.0556356,-0.1231887,-0.0522454,0.0011233,-0.04145
 8,0.0022746,-0.1035573,0.0365705,-0.0230938,0.0817692,0.0120291,0.0375
 127,-0.0214162,0.0316131,0.0117319,-0.0516868,-0.0769122,0.0980372,-0.
 0698871,0.0327002,0.057386,0.0693068,0.0519868,-0.0334534,0.0544654,-0
 .012662,-0.0286758,-0.0184747,-0.1138416,-0.0724253,-0.0222614,-0.0320
 648,0.0219459,-0.0697959,0.0804525,-0.0678547,0.0668455,0.0250578,0.02
 51115,-0.0134764,0.0042957,0.0150642,0.0296161,-0.0674958,0.0356381,-0
 .0306241,-0.0111252,0.0721775,-0.0033394,0.0718474,-0.0720942,-0.15016
 79,0.0616303,0.0150894,0.0599111,0.0082306,-0.0355968,0.0620084,-0.066
 5403,-0.0015694,-0.0091726,0.021005,0.1118198,0.0115905,-0.0412345,-0.
 0270944,0.093853,-0.0081838,0.0825611,0.2807543,-0.0099622,0.0355428,0
 .0026965,0.2480317,0.0868558,0.0307083,0.0767846,0.2140839\Polar=53.85
 14596,5.0666256,54.7108359,-1.5214882,-2.3511812,55.3487275\Quadrupole
 =-1.2104233,-0.6525737,1.862997,-2.3261936,0.4494269,-0.248173\PG=C01 
 [X(C4H9O1)]\NImag=0\\0.26337053,0.07654506,0.24577662,0.10017302,-0.23
 204936,0.50417725,0.00085299,0.00146431,-0.00007255,0.52081280,-0.0010
 7269,-0.00107777,-0.00031421,-0.01345427,0.59875039,-0.00223454,-0.000
 57691,-0.00253229,0.00071128,0.02923879,0.41266087,-0.17526721,-0.0204
 9010,-0.07921658,-0.00104002,-0.02180443,-0.00222384,0.50183415,-0.029
 72149,-0.07027887,-0.00791180,-0.00572627,-0.01285993,-0.00075704,-0.0
 3570069,0.51881197,-0.04983034,0.00395217,-0.11860378,0.00156320,0.016
 06079,0.00622628,-0.08290251,-0.03676152,0.54604864,-0.00074907,-0.000
 82365,-0.00010450,-0.07223832,-0.00178505,-0.01094588,-0.00036288,0.00
 206301,-0.00035405,0.57501421,0.00038789,-0.00100528,-0.00087266,0.000
 00196,-0.07859030,-0.00064625,-0.00078755,0.00133759,0.00051339,-0.000
 34382,0.57144574,0.00000172,0.00020771,-0.00061022,-0.02494261,-0.0074
 3624,-0.17150476,0.00017410,-0.00025640,0.00237788,-0.01686109,-0.0050
 8016,0.45394547,-0.01435106,-0.03534013,-0.01025515,-0.15867289,-0.054
 38742,0.07240224,-0.07764220,-0.01553799,0.02038292,-0.00039599,0.0006
 4311,0.01214902,0.44653116,-0.01981935,-0.01357274,-0.01093239,-0.0490
 3563,-0.11826819,0.02161632,-0.00943751,-0.22800194,-0.01735598,-0.000
 15981,0.00108095,0.00669653,-0.00280233,0.53734158,-0.01117754,-0.0198
 4714,0.00070356,0.07242194,0.02530205,-0.08544412,0.02305836,-0.012160
 24,-0.06543189,0.02633449,0.01391855,-0.02335759,-0.22833012,0.0727676
 4,0.25634752,-0.00031912,-0.00045681,-0.00065195,-0.05280311,-0.019724
 23,-0.00688815,-0.00252837,-0.00005522,0.00375779,-0.00021092,-0.00408
 407,-0.00226777,-0.00259186,-0.02684262,-0.00710028,0.05368867,-0.0007
 6858,-0.00062551,-0.00030786,-0.02214905,-0.28956096,-0.07636385,-0.00
 202709,0.00087644,0.00128140,0.00031588,0.00142208,0.00014246,-0.00007
 727,-0.01404225,-0.00359798,0.02567071,0.31249838,0.00064591,0.0007602
 1,0.00047587,-0.00753154,-0.07735075,-0.06917946,0.00256962,0.00037854
 ,-0.00081326,-0.00280378,-0.03253996,-0.01292003,0.00121896,0.01815784
 ,0.00396602,0.00553492,0.08250916,0.08073198,0.00039918,-0.00051644,-0
 .00049169,-0.23026217,0.10318604,-0.05059449,0.00074791,0.00185437,0.0
 0139065,-0.00309513,0.00270879,-0.00243489,-0.02383248,0.00871976,0.00
 358029,0.00317506,-0.00095853,0.00135988,0.25383439,0.00046666,-0.0003
 1979,-0.00011270,0.09778233,-0.10741099,0.02422655,-0.00113178,0.00145
 766,0.00020678,0.00000329,0.00103155,-0.00125890,-0.01069178,0.0079331
 6,-0.00212127,0.02627424,-0.01393202,0.00702468,-0.11133069,0.11025669
 ,0.00009038,0.00019077,0.00028032,-0.04517940,0.02330861,-0.04979496,-
 0.00067111,-0.00065843,-0.00001744,-0.03059736,0.01669730,-0.01284034,
 0.01665031,-0.00688475,-0.00033540,0.00890245,-0.00401980,0.00159465,0
 .04899462,-0.02925733,0.06585479,-0.00004330,-0.00010036,-0.00009852,0
 .00476780,0.00347909,-0.00462303,-0.00011293,0.00020363,-0.00016105,-0
 .21317918,-0.08975185,0.09655640,0.00087252,-0.00055729,0.00037725,0.0
 0005003,0.00015558,0.00063804,0.00042790,0.00011876,0.00064356,0.22798
 235,-0.00009196,0.00017192,0.00026980,0.00175511,0.00039619,-0.0020878
 7,0.00003947,-0.00000394,-0.00033465,-0.08930648,-0.09646330,0.0528435
 4,-0.00048313,0.00077806,0.00025065,0.00038448,0.00023396,0.00022642,-
 0.00004361,-0.00020700,0.00033377,0.09866997,0.09997981,0.00036528,0.0
 0048290,0.00066961,0.02490959,0.01469368,-0.01587083,-0.00025621,-0.00
 110441,-0.00048443,0.09606306,0.05251501,-0.10145643,-0.00113400,-0.00
 112465,-0.00536964,0.00020413,-0.00057760,0.00132151,-0.00038486,0.000
 18477,0.00168285,-0.10497898,-0.05743061,0.11178442,-0.00016736,-0.000
 06641,-0.00037990,-0.00110849,-0.00477661,-0.00160557,0.00069812,-0.00
 015690,0.00031853,-0.04981855,-0.01803594,-0.00577619,-0.00020706,0.00
 105106,0.00022975,0.00069084,0.00013319,-0.00102169,-0.00004282,-0.000
 49976,0.00016522,-0.00144839,-0.02448669,-0.00911745,0.04923444,0.0002
 6837,0.00010029,0.00061207,0.00015963,0.00084469,-0.00044950,-0.000300
 69,-0.00023563,-0.00035167,-0.01860803,-0.28527091,-0.07904177,-0.0005
 3215,0.00050299,0.00039764,-0.00021526,0.00151395,0.00056173,-0.000175
 44,0.00053556,-0.00050606,-0.00021739,-0.01254392,-0.00388192,0.020752
 01,0.30824678,-0.00022828,0.00034073,0.00018225,-0.00210381,-0.0319728
 6,-0.01281892,0.00067794,-0.00044826,-0.00063758,-0.00584511,-0.078652
 28,-0.07105322,-0.00088129,-0.00097197,0.00207781,-0.00082114,0.000642
 12,-0.00673429,0.00006109,0.00037071,0.00166757,-0.00002407,0.01446089
 ,0.00465207,0.00719450,0.08707058,0.08063461,0.00019559,0.00003347,0.0
 0007306,-0.00278334,0.00099384,-0.00100707,-0.00016769,-0.00015619,-0.
 00011340,-0.23351277,0.11043980,-0.05534421,0.00108220,-0.00065953,0.0
 0033039,-0.00002497,-0.00026126,-0.00024964,0.00117332,-0.00049909,-0.
 00062368,-0.01971652,0.01305459,-0.00651543,0.00304344,-0.00198657,0.0
 0174933,0.25050852,-0.00037881,0.00016066,-0.00027016,-0.00215823,0.00
 091210,-0.00038790,0.00085231,-0.00039034,0.00047055,0.11056528,-0.114
 76195,0.03341063,-0.00003316,-0.00006173,-0.00036059,-0.00051533,0.000
 39649,0.00036130,-0.00022454,0.00110121,-0.00063210,-0.01226072,0.0075
 4821,-0.00470362,0.02602978,-0.01407462,0.00818623,-0.12139205,0.11965
 909,0.00012221,-0.00009232,-0.00004075,-0.02711665,0.01720193,-0.01088
 012,-0.00002330,0.00022452,-0.00032761,-0.05486540,0.03301965,-0.06177
 504,-0.00119413,-0.00065409,0.00282105,0.00025259,-0.00035087,0.001608
 37,-0.00057463,-0.00011470,-0.00682194,0.01178457,-0.00864474,0.003570
 32,0.00958896,-0.00424980,0.00195073,0.06197922,-0.03643741,0.07021283
 ,-0.00445746,0.01283037,-0.03751131,0.00029764,-0.00081297,0.00019058,
 -0.05475949,-0.01915667,0.05715216,0.00004235,0.00015751,-0.00018731,-
 0.00014596,-0.00438753,0.00265707,-0.00006351,-0.00018929,0.00005009,-
 0.00005842,-0.00008099,0.00010381,0.00001940,0.00000138,0.00004751,-0.
 00008220,0.00007231,-0.00021839,-0.00001916,-0.00020177,-0.00002701,0.
 06679579,0.00026876,0.00605480,-0.00514231,0.00175275,-0.00406062,-0.0
 0039848,-0.01469481,-0.09882961,0.10480191,-0.00023937,-0.00006251,-0.
 00040636,-0.01204548,-0.01623488,0.02391753,-0.00100786,-0.00047423,0.
 00042584,-0.00022967,0.00000824,-0.00006695,-0.00006293,0.00010272,0.0
 0022945,0.00005164,0.00012127,0.00018334,0.00003238,0.00005443,0.00002
 006,0.02394703,0.10429269,-0.00731682,0.00956983,-0.02417996,-0.000845
 67,0.00001186,-0.00013677,0.04530145,0.09419583,-0.24714165,-0.0000150
 4,-0.00016369,-0.00016547,0.00016015,0.00003242,0.00580263,-0.00015232
 ,0.00001703,-0.00011327,-0.00028244,-0.00008079,-0.00001571,-0.0000020
 7,0.00003693,0.00008353,-0.00004560,0.00003114,0.00015041,0.00002414,0
 .00000920,0.00003875,-0.03876160,-0.10775741,0.27791900,-0.03589453,0.
 00610712,-0.00314950,0.00067320,-0.00092850,-0.00030220,-0.19240797,0.
 08788348,0.08661657,0.00019409,0.00013341,0.00005938,0.00390923,-0.001
 60527,-0.00010432,0.00014252,-0.00009991,-0.00003319,0.00032270,0.0005
 5153,-0.00032097,0.00002682,-0.00009261,-0.00010304,-0.00002804,0.0000
 9428,-0.00030949,0.00003050,-0.00021683,-0.00002529,-0.00325053,0.0027
 7973,0.00460330,0.22608004,-0.00768330,0.00700378,0.00301234,0.0013332
 2,0.00138093,-0.00021187,0.08549463,-0.10323661,-0.04731268,-0.0002368
 9,-0.00037458,0.00010545,0.02642646,-0.01796440,-0.01701335,-0.0001341
 5,0.00056486,-0.00016287,-0.00105436,-0.00008323,0.00004404,-0.0000484
 0,0.00017423,0.00016501,0.00010517,-0.00008297,0.00069868,-0.00000472,
 0.00019224,-0.00014257,-0.01066678,0.00745342,0.00600762,-0.09282167,0
 .11092805,-0.02475388,0.00709858,0.00829635,0.00009966,0.00039701,-0.0
 0036989,0.08975737,-0.04763771,-0.10293539,-0.00028496,0.00030677,0.00
 008328,0.00274379,-0.00123502,-0.00047112,-0.00020027,-0.00002761,-0.0
 0002714,-0.00047786,-0.00017478,0.00014014,0.00001819,-0.00011847,0.00
 007759,0.00002134,0.00023971,-0.00032475,0.00000255,0.00002261,-0.0000
 3210,0.02172872,-0.01356659,-0.01160829,-0.08790813,0.05452879,0.10463
 175,0.00127029,0.00106928,0.00114362,-0.00803323,0.01104471,0.00758283
 ,0.00453004,-0.00460060,-0.00386438,-0.00212029,-0.00036870,-0.0004720
 2,-0.17611860,0.10569720,0.11739173,0.00078305,0.00015009,-0.00054193,
 -0.00272814,-0.00094893,0.00182291,0.00024022,0.00007377,0.00060119,0.
 00007006,0.00007711,0.00003841,0.00018903,0.00000716,0.00006612,0.0001
 0259,0.00034472,0.00021027,0.00063786,-0.00140121,-0.00020235,0.181276
 03,-0.00170279,0.00246347,0.00056134,-0.01121730,0.00964407,0.00735934
 ,0.02386339,-0.01249489,-0.01370517,-0.00101065,-0.00042539,0.00011576
 ,0.10379192,-0.14118852,-0.08150084,0.00061712,0.00113359,-0.00033338,
 -0.00216297,-0.00040067,0.00136661,0.00013580,-0.00008911,0.00045026,-
 0.00003652,0.00006131,0.00015230,0.00030914,-0.00006466,0.00000751,-0.
 00000779,0.00107156,0.00057466,-0.00151739,-0.00557289,-0.00053643,-0.
 11111705,0.14605064,0.00026747,0.00131281,0.00024546,0.00894669,-0.008
 79233,-0.00039576,0.00129231,0.00000462,0.00121311,0.00008917,0.000574
 67,-0.00062990,0.11466223,-0.07950230,-0.09281539,-0.00064304,0.000492
 50,0.00028636,-0.00019740,0.00110234,-0.00126237,-0.00018010,0.0002817
 1,-0.00034839,0.00005470,-0.00005292,0.00012882,-0.00020223,0.00015838
 ,-0.00044749,-0.00047894,-0.00080026,0.00050895,-0.00007036,0.00008992
 ,0.00143268,-0.12367700,0.08571611,0.09241549,-0.03483948,-0.04025572,
 0.03054194,-0.00046288,0.00004248,-0.00046217,-0.00352145,0.01880753,-
 0.03395609,0.00043246,-0.00110053,-0.00065452,0.00156297,-0.00016116,0
 .00033100,0.00001170,0.00010554,0.00016435,-0.00006129,-0.00001380,0.0
 0001925,0.00011328,0.00052571,0.00029920,-0.00083399,0.00061181,0.0007
 1029,0.00000185,-0.00007309,0.00003275,-0.00442104,-0.00089689,-0.0028
 7774,-0.00043589,0.00069200,-0.00054417,-0.00009890,0.00005508,0.00013
 649,0.04255265,-0.01669774,-0.17485158,0.25345791,-0.00050856,-0.00009
 961,-0.00056134,-0.00387516,0.00384810,-0.01146530,-0.00043372,0.00063
 632,-0.00004227,0.00106933,0.00169789,0.00004736,0.00008899,-0.0000047
 6,-0.00001876,0.00022731,0.00002963,0.00008432,0.00023612,-0.00007785,
 0.00010172,-0.00006404,0.00028123,-0.00006022,0.00009619,-0.00067114,0
 .00021284,-0.00150481,0.00050271,-0.00248463,-0.00026738,-0.00038283,0
 .00070315,-0.00002757,-0.00018850,-0.00058524,0.02166104,0.16928040,-0
 .00612459,0.22865003,-0.36906368,-0.00086012,-0.00034832,0.00004073,0.
 00246240,0.01289231,-0.01947288,0.00019045,0.00040966,-0.00009364,0.00
 142505,-0.00060960,0.00150655,0.00007304,0.00016089,-0.00019730,0.0000
 5171,0.00000465,-0.00013217,0.00004981,-0.00008737,-0.00031217,0.00037
 340,-0.00037923,0.00012446,-0.00010303,0.00017288,0.00012302,-0.004745
 37,-0.00143977,-0.00114213,0.00104723,0.00019150,0.00110691,-0.0000994
 0,-0.00022808,-0.00033157,0.00625941,-0.23938954,0.38784388\\-0.000000
 48,0.00000054,0.00000015,0.00000041,-0.00000041,-0.00000005,0.00000007
 ,-0.00000028,-0.00000038,-0.00000048,0.00000052,0.00000009,0.00000069,
 -0.00000046,0.00000033,0.00000099,-0.00000065,0.00000052,0.00000042,-0
 .00000087,-0.00000086,-0.00000065,0.00000052,-0.00000016,-0.00000105,0
 .00000074,-0.00000044,-0.00000049,0.00000097,0.00000095,0.00000051,-0.
 00000077,-0.00000054,-0.00000035,-0.00000032,-0.00000118,0.00000120,-0
 .00000051,0.00000112,-0.00000078,0.00000099,0.00000045\\\@


 KNOWLEDGE IS OF TWO KINDS:  WE KNOW A SUBJECT OURSELVES OR WE KNOW 
 WHERE WE CAN FIND INFORMATION UPON IT.

                                    -- SAMUEL JOHNSON
 Job cpu time:       0 days  1 hours 46 minutes 33.1 seconds.
 Elapsed time:       0 days  0 hours  5 minutes 20.1 seconds.
 File lengths (MBytes):  RWF=   1376 Int=      0 D2E=      0 Chk=     32 Scr=     32
 Normal termination of Gaussian 16 at Tue Apr  9 01:24:47 2019.
