 Entering Gaussian System, Link 0=g16
 Input=SXIFAEWFOJETOA-UHFFFAOYSA-N_72by10.0_tor12_a1.com
 Output=SXIFAEWFOJETOA-UHFFFAOYSA-N_72by10.0_tor12_a1.log
 Initial command:
 /shared/centos7/gaussian/g16/l1.exe "/scratch/underkoffler.c/gaussian_scratch/Gau-25064.inp" -scrdir="/scratch/underkoffler.c/gaussian_scratch/"
 Entering Link 1 = /shared/centos7/gaussian/g16/l1.exe PID=     25065.
  
 Copyright (c) 1988,1990,1992,1993,1995,1998,2003,2009,2016,
            Gaussian, Inc.  All Rights Reserved.
  
 This is part of the Gaussian(R) 16 program.  It is based on
 the Gaussian(R) 09 system (copyright 2009, Gaussian, Inc.),
 the Gaussian(R) 03 system (copyright 2003, Gaussian, Inc.),
 the Gaussian(R) 98 system (copyright 1998, Gaussian, Inc.),
 the Gaussian(R) 94 system (copyright 1995, Gaussian, Inc.),
 the Gaussian 92(TM) system (copyright 1992, Gaussian, Inc.),
 the Gaussian 90(TM) system (copyright 1990, Gaussian, Inc.),
 the Gaussian 88(TM) system (copyright 1988, Gaussian, Inc.),
 the Gaussian 86(TM) system (copyright 1986, Carnegie Mellon
 University), and the Gaussian 82(TM) system (copyright 1983,
 Carnegie Mellon University). Gaussian is a federally registered
 trademark of Gaussian, Inc.
  
 This software contains proprietary and confidential information,
 including trade secrets, belonging to Gaussian, Inc.
  
 This software is provided under written license and may be
 used, copied, transmitted, or stored only in accord with that
 written license.
  
 The following legend is applicable only to US Government
 contracts under FAR:
  
                    RESTRICTED RIGHTS LEGEND
  
 Use, reproduction and disclosure by the US Government is
 subject to restrictions as set forth in subparagraphs (a)
 and (c) of the Commercial Computer Software - Restricted
 Rights clause in FAR 52.227-19.
  
 Gaussian, Inc.
 340 Quinnipiac St., Bldg. 40, Wallingford CT 06492
  
  
 ---------------------------------------------------------------
 Warning -- This program may not be used in any manner that
 competes with the business of Gaussian, Inc. or will provide
 assistance to any competitor of Gaussian, Inc.  The licensee
 of this program is prohibited from giving any competitor of
 Gaussian, Inc. access to this program.  By using this program,
 the user acknowledges that Gaussian, Inc. is engaged in the
 business of creating and licensing software in the field of
 computational chemistry and represents and warrants to the
 licensee that it is not a competitor of Gaussian, Inc. and that
 it will not use this program in any manner prohibited above.
 ---------------------------------------------------------------
  

 Cite this work as:
 Gaussian 16, Revision A.03,
 M. J. Frisch, G. W. Trucks, H. B. Schlegel, G. E. Scuseria, 
 M. A. Robb, J. R. Cheeseman, G. Scalmani, V. Barone, 
 G. A. Petersson, H. Nakatsuji, X. Li, M. Caricato, A. V. Marenich, 
 J. Bloino, B. G. Janesko, R. Gomperts, B. Mennucci, H. P. Hratchian, 
 J. V. Ortiz, A. F. Izmaylov, J. L. Sonnenberg, D. Williams-Young, 
 F. Ding, F. Lipparini, F. Egidi, J. Goings, B. Peng, A. Petrone, 
 T. Henderson, D. Ranasinghe, V. G. Zakrzewski, J. Gao, N. Rega, 
 G. Zheng, W. Liang, M. Hada, M. Ehara, K. Toyota, R. Fukuda, 
 J. Hasegawa, M. Ishida, T. Nakajima, Y. Honda, O. Kitao, H. Nakai, 
 T. Vreven, K. Throssell, J. A. Montgomery, Jr., J. E. Peralta, 
 F. Ogliaro, M. J. Bearpark, J. J. Heyd, E. N. Brothers, K. N. Kudin, 
 V. N. Staroverov, T. A. Keith, R. Kobayashi, J. Normand, 
 K. Raghavachari, A. P. Rendell, J. C. Burant, S. S. Iyengar, 
 J. Tomasi, M. Cossi, J. M. Millam, M. Klene, C. Adamo, R. Cammi, 
 J. W. Ochterski, R. L. Martin, K. Morokuma, O. Farkas, 
 J. B. Foresman, and D. J. Fox, Gaussian, Inc., Wallingford CT, 2016.
 
 ******************************************
 Gaussian 16:  EM64L-G16RevA.03 25-Dec-2016
                 9-Mar-2019 
 ******************************************
 %nprocshared=20
 Will use up to   20 processors via shared memory.
 %mem=5GB
 ----------------------------------------------
 #p m062x/6-311+g(2df,2p) Opt=(CalcFC,ModRedun)
 ----------------------------------------------
 1/10=4,18=120,19=15,26=3,38=1/1,3;
 2/9=110,12=2,17=6,18=5,40=1/2;
 3/5=4,6=6,7=214,11=2,25=1,30=1,71=2,74=-55,140=1/1,2,3;
 4//1;
 5/5=2,38=5/2;
 8/6=4,10=90,11=11/1;
 11/6=1,8=1,9=11,15=111,16=1/1,2,10;
 10/6=1,13=1/2;
 6/7=2,8=2,9=2,10=2,28=1/1;
 7/10=1,18=20,25=1/1,2,3,16;
 1/10=4,18=20,19=15,26=3/3(2);
 2/9=110/2;
 99//99;
 2/9=110/2;
 3/5=4,6=6,7=214,11=2,25=1,30=1,71=1,74=-55/1,2,3;
 4/5=5,16=3,69=1/1;
 5/5=2,38=5/2;
 7//1,2,3,16;
 1/18=20,19=15,26=3/3(-5);
 2/9=110/2;
 6/7=2,8=2,9=2,10=2,19=2,28=1/1;
 99/9=1/99;
 Leave Link    1 at Sat Mar  9 13:21:35 2019, MaxMem=   671088640 cpu:              39.0 elap:               2.1
 (Enter /shared/centos7/gaussian/g16/l101.exe)
 ----------------------------------------
 Gaussian Input Prepared from Scan Object
 ----------------------------------------
 Symbolic Z-matrix:
 Charge =  0 Multiplicity = 2
 O                     1.09947  -1.28235  -0.84103 
 C                     2.21593  -0.56983   1.23046 
 C                     3.41571   0.18892   0.65376 
 C                     0.97995  -0.51954   0.34225 
 C                     3.99159  -0.42225  -0.57488 
 H                     1.9582   -0.13996   2.20077 
 H                     2.48408  -1.61556   1.40027 
 H                     4.19444   0.23999   1.42787 
 H                     3.13066   1.22618   0.45751 
 H                     0.74041   0.52488   0.10619 
 H                     0.12623  -0.93695   0.87529 
 H                     4.12166  -1.49477  -0.62659 
 H                     4.53141   0.18015  -1.29034 
 H                     1.85888  -0.96353  -1.33793 
 
 The following ModRedundant input section has been read:
 B       2       7 B                                                           
 B       3       5 B                                                           
 B       2       4 B                                                           
 B       2       3 B                                                           
 B       3       8 B                                                           
 B       2       6 B                                                           
 B       4      10 B                                                           
 B       3       9 B                                                           
 B       5      12 B                                                           
 B       4      11 B                                                           
 B       5      13 B                                                           
 B       1      14 B                                                           
 B       1       4 B                                                           
 D      14       2       3       8 S  72 10.000                                
 
 ITRead=  0  0  0  0  0  0  0  0  0  0  0  0  0  0
 MicOpt= -1 -1 -1 -1 -1 -1 -1 -1 -1 -1 -1 -1 -1 -1
 NAtoms=     14 NQM=       14 NQMF=       0 NMMI=      0 NMMIF=      0
                NMic=       0 NMicF=      0.
                    Isotopes and Nuclear Properties:
 (Nuclear quadrupole moments (NQMom) in fm**2, nuclear magnetic moments (NMagM)
  in nuclear magnetons)

  Atom         1           2           3           4           5           6           7           8           9          10
 IAtWgt=          16          12          12          12          12           1           1           1           1           1
 AtmWgt=  15.9949146  12.0000000  12.0000000  12.0000000  12.0000000   1.0078250   1.0078250   1.0078250   1.0078250   1.0078250
 NucSpn=           0           0           0           0           0           1           1           1           1           1
 AtZEff=  -0.0000000  -0.0000000  -0.0000000  -0.0000000  -0.0000000  -0.0000000  -0.0000000  -0.0000000  -0.0000000  -0.0000000
 NQMom=    0.0000000   0.0000000   0.0000000   0.0000000   0.0000000   0.0000000   0.0000000   0.0000000   0.0000000   0.0000000
 NMagM=    0.0000000   0.0000000   0.0000000   0.0000000   0.0000000   2.7928460   2.7928460   2.7928460   2.7928460   2.7928460
 AtZNuc=   8.0000000   6.0000000   6.0000000   6.0000000   6.0000000   1.0000000   1.0000000   1.0000000   1.0000000   1.0000000

  Atom        11          12          13          14
 IAtWgt=           1           1           1           1
 AtmWgt=   1.0078250   1.0078250   1.0078250   1.0078250
 NucSpn=           1           1           1           1
 AtZEff=  -0.0000000  -0.0000000  -0.0000000  -0.0000000
 NQMom=    0.0000000   0.0000000   0.0000000   0.0000000
 NMagM=    2.7928460   2.7928460   2.7928460   2.7928460
 AtZNuc=   1.0000000   1.0000000   1.0000000   1.0000000
 Leave Link  101 at Sat Mar  9 13:21:35 2019, MaxMem=   671088640 cpu:               6.5 elap:               0.4
 (Enter /shared/centos7/gaussian/g16/l103.exe)

 GradGradGradGradGradGradGradGradGradGradGradGradGradGradGradGradGradGrad
 Berny optimization.
 Initialization pass.
                           ----------------------------
                           !    Initial Parameters    !
                           ! (Angstroms and Degrees)  !
 --------------------------                            --------------------------
 ! Name  Definition              Value          Derivative Info.                !
 --------------------------------------------------------------------------------
 ! R1    R(1,4)                  1.4129         calculate D2E/DX2 analytically  !
 ! R2    R(1,14)                 0.9619         calculate D2E/DX2 analytically  !
 ! R3    R(2,3)                  1.5322         calculate D2E/DX2 analytically  !
 ! R4    R(2,4)                  1.5229         calculate D2E/DX2 analytically  !
 ! R5    R(2,6)                  1.0921         calculate D2E/DX2 analytically  !
 ! R6    R(2,7)                  1.0928         calculate D2E/DX2 analytically  !
 ! R7    R(3,5)                  1.4882         calculate D2E/DX2 analytically  !
 ! R8    R(3,8)                  1.0992         calculate D2E/DX2 analytically  !
 ! R9    R(3,9)                  1.0935         calculate D2E/DX2 analytically  !
 ! R10   R(4,10)                 1.0972         calculate D2E/DX2 analytically  !
 ! R11   R(4,11)                 1.0896         calculate D2E/DX2 analytically  !
 ! R12   R(5,12)                 1.0816         calculate D2E/DX2 analytically  !
 ! R13   R(5,13)                 1.0799         calculate D2E/DX2 analytically  !
 ! A1    A(4,1,14)             108.6914         calculate D2E/DX2 analytically  !
 ! A2    A(3,2,4)              113.5559         calculate D2E/DX2 analytically  !
 ! A3    A(3,2,6)              108.9214         calculate D2E/DX2 analytically  !
 ! A4    A(3,2,7)              109.8888         calculate D2E/DX2 analytically  !
 ! A5    A(4,2,6)              108.2805         calculate D2E/DX2 analytically  !
 ! A6    A(4,2,7)              108.7464         calculate D2E/DX2 analytically  !
 ! A7    A(6,2,7)              107.2471         calculate D2E/DX2 analytically  !
 ! A8    A(2,3,5)              114.2282         calculate D2E/DX2 analytically  !
 ! A9    A(2,3,8)              108.2207         calculate D2E/DX2 analytically  !
 ! A10   A(2,3,9)              109.461          calculate D2E/DX2 analytically  !
 ! A11   A(5,3,8)              109.0477         calculate D2E/DX2 analytically  !
 ! A12   A(5,3,9)              110.0148         calculate D2E/DX2 analytically  !
 ! A13   A(8,3,9)              105.4856         calculate D2E/DX2 analytically  !
 ! A14   A(1,4,2)              113.7015         calculate D2E/DX2 analytically  !
 ! A15   A(1,4,10)             110.6216         calculate D2E/DX2 analytically  !
 ! A16   A(1,4,11)             105.6142         calculate D2E/DX2 analytically  !
 ! A17   A(2,4,10)             109.5181         calculate D2E/DX2 analytically  !
 ! A18   A(2,4,11)             109.7516         calculate D2E/DX2 analytically  !
 ! A19   A(10,4,11)            107.3882         calculate D2E/DX2 analytically  !
 ! A20   A(3,5,12)             119.5529         calculate D2E/DX2 analytically  !
 ! A21   A(3,5,13)             120.7519         calculate D2E/DX2 analytically  !
 ! A22   A(12,5,13)            117.4747         calculate D2E/DX2 analytically  !
 ! D1    D(14,1,4,2)           -58.1787         calculate D2E/DX2 analytically  !
 ! D2    D(14,1,4,10)           65.536          calculate D2E/DX2 analytically  !
 ! D3    D(14,1,4,11)         -178.5701         calculate D2E/DX2 analytically  !
 ! D4    D(4,2,3,5)            -67.6479         calculate D2E/DX2 analytically  !
 ! D5    D(4,2,3,8)            170.6902         calculate D2E/DX2 analytically  !
 ! D6    D(4,2,3,9)             56.206          calculate D2E/DX2 analytically  !
 ! D7    D(6,2,3,5)            171.6097         calculate D2E/DX2 analytically  !
 ! D8    D(6,2,3,8)             49.9478         calculate D2E/DX2 analytically  !
 ! D9    D(6,2,3,9)            -64.5363         calculate D2E/DX2 analytically  !
 ! D10   D(7,2,3,5)             54.3951         calculate D2E/DX2 analytically  !
 ! D11   D(7,2,3,8)            -67.2668         calculate D2E/DX2 analytically  !
 ! D12   D(7,2,3,9)            178.2491         calculate D2E/DX2 analytically  !
 ! D13   D(14,2,3,8)          -155.9078         Scan                            !
 ! D14   D(3,2,4,1)             70.8934         calculate D2E/DX2 analytically  !
 ! D15   D(3,2,4,10)           -53.4188         calculate D2E/DX2 analytically  !
 ! D16   D(3,2,4,11)          -171.075          calculate D2E/DX2 analytically  !
 ! D17   D(6,2,4,1)           -168.0042         calculate D2E/DX2 analytically  !
 ! D18   D(6,2,4,10)            67.6837         calculate D2E/DX2 analytically  !
 ! D19   D(6,2,4,11)           -49.9725         calculate D2E/DX2 analytically  !
 ! D20   D(7,2,4,1)            -51.7816         calculate D2E/DX2 analytically  !
 ! D21   D(7,2,4,10)          -176.0938         calculate D2E/DX2 analytically  !
 ! D22   D(7,2,4,11)            66.25           calculate D2E/DX2 analytically  !
 ! D23   D(2,3,5,12)           -42.8826         calculate D2E/DX2 analytically  !
 ! D24   D(2,3,5,13)           154.4712         calculate D2E/DX2 analytically  !
 ! D25   D(8,3,5,12)            78.3231         calculate D2E/DX2 analytically  !
 ! D26   D(8,3,5,13)           -84.3232         calculate D2E/DX2 analytically  !
 ! D27   D(9,3,5,12)          -166.4386         calculate D2E/DX2 analytically  !
 ! D28   D(9,3,5,13)            30.9151         calculate D2E/DX2 analytically  !
 --------------------------------------------------------------------------------
 Trust Radius=3.00D-01 FncErr=1.00D-07 GrdErr=1.00D-06 EigMax=2.50D+02 EigMin=1.00D-04
 Number of optimizations in scan=  73
 Number of steps in this run=     73 maximum allowed number of steps=    100.
 GradGradGradGradGradGradGradGradGradGradGradGradGradGradGradGradGradGrad

 Leave Link  103 at Sat Mar  9 13:21:35 2019, MaxMem=   671088640 cpu:               0.2 elap:               0.0
 (Enter /shared/centos7/gaussian/g16/l202.exe)
                          Input orientation:                          
 ---------------------------------------------------------------------
 Center     Atomic      Atomic             Coordinates (Angstroms)
 Number     Number       Type             X           Y           Z
 ---------------------------------------------------------------------
      1          8           0        1.099474   -1.282349   -0.841026
      2          6           0        2.215931   -0.569831    1.230460
      3          6           0        3.415709    0.188917    0.653764
      4          6           0        0.979952   -0.519538    0.342253
      5          6           0        3.991586   -0.422250   -0.574883
      6          1           0        1.958205   -0.139962    2.200775
      7          1           0        2.484085   -1.615565    1.400271
      8          1           0        4.194436    0.239990    1.427870
      9          1           0        3.130662    1.226178    0.457511
     10          1           0        0.740412    0.524882    0.106195
     11          1           0        0.126227   -0.936947    0.875293
     12          1           0        4.121660   -1.494774   -0.626592
     13          1           0        4.531406    0.180155   -1.290340
     14          1           0        1.858880   -0.963530   -1.337933
 ---------------------------------------------------------------------
                    Distance matrix (angstroms):
                    1          2          3          4          5
     1  O    0.000000
     2  C    2.458702   0.000000
     3  C    3.124735   1.532235   0.000000
     4  C    1.412911   1.522855   2.555751   0.000000
     5  C    3.029013   2.536532   1.488198   3.149690   0.000000
     6  H    3.360807   1.092118   2.150749   2.134282   3.452333
     7  H    2.655483   1.092841   2.163642   2.140816   2.756410
     8  H    4.128462   2.146919   1.099210   3.476831   2.119134
     9  H    3.479171   2.158664   1.093471   2.772429   2.127050
    10  H    2.071772   2.153956   2.751349   1.097231   3.454137
    11  H    2.003063   2.151228   3.483868   1.089590   4.160399
    12  H    3.037221   2.817084   2.229908   3.429297   1.081620
    13  H    3.757520   3.504046   2.241517   3.970864   1.079896
    14  H    0.961904   2.622809   2.778256   1.947478   2.328876
                    6          7          8          9         10
     6  H    0.000000
     7  H    1.759193   0.000000
     8  H    2.396346   2.523717   0.000000
     9  H    2.505985   3.063064   1.745216   0.000000
    10  H    2.512430   3.049023   3.709214   2.515657   0.000000
    11  H    2.397547   2.509107   4.270930   3.725624   1.762294
    12  H    3.809207   2.608527   2.689892   3.092076   4.006098
    13  H    4.348761   3.828253   2.739671   2.472091   4.054724
    14  H    3.634636   2.883364   3.814832   3.104169   2.356235
                   11         12         13         14
    11  H    0.000000
    12  H    4.304684   0.000000
    13  H    5.034231   1.847658   0.000000
    14  H    2.810900   2.430719   2.907348   0.000000
 Stoichiometry    C4H9O(2)
 Framework group  C1[X(C4H9O)]
 Deg. of freedom    36
 Full point group                 C1      NOp   1
 Largest Abelian subgroup         C1      NOp   1
 Largest concise Abelian subgroup C1      NOp   1
                         Standard orientation:                         
 ---------------------------------------------------------------------
 Center     Atomic      Atomic             Coordinates (Angstroms)
 Number     Number       Type             X           Y           Z
 ---------------------------------------------------------------------
      1          8           0       -1.452786    0.988728   -0.091949
      2          6           0       -0.056160   -1.015879   -0.367991
      3          6           0        1.264051   -0.520605    0.231584
      4          6           0       -1.287211   -0.370966    0.254655
      5          6           0        1.574936    0.903465   -0.068593
      6          1           0       -0.126461   -2.096398   -0.225663
      7          1           0       -0.068599   -0.829401   -1.444732
      8          1           0        2.075592   -1.153911   -0.153887
      9          1           0        1.256290   -0.682061    1.313042
     10          1           0       -1.251849   -0.490330    1.344800
     11          1           0       -2.185892   -0.875344   -0.099155
     12          1           0        1.408458    1.287050   -1.066114
     13          1           0        2.209994    1.480142    0.587395
     14          1           0       -0.668942    1.474334    0.181976
 ---------------------------------------------------------------------
 Rotational constants (GHZ):           7.5427717           3.8012004           2.8243890
 Leave Link  202 at Sat Mar  9 13:21:35 2019, MaxMem=   671088640 cpu:               0.2 elap:               0.0
 (Enter /shared/centos7/gaussian/g16/l301.exe)
 Standard basis: 6-311+G(2df,2p) (5D, 7F)
 Ernie: Thresh=  0.10000D-02 Tol=  0.10000D-05 Strict=F.
 There are   276 symmetry adapted cartesian basis functions of A   symmetry.
 There are   251 symmetry adapted basis functions of A   symmetry.
   251 basis functions,   359 primitive gaussians,   276 cartesian basis functions
    21 alpha electrons       20 beta electrons
       nuclear repulsion energy       184.4289966804 Hartrees.
 IExCor= 4336 DFT=T Ex+Corr=M062X ExCW=0 ScaHFX=  0.540000
 ScaDFX=  1.000000  1.000000  1.000000  1.000000 ScalE2=  1.000000  1.000000
 IRadAn=      5 IRanWt=     -1 IRanGd=            0 ICorTp=0 IEmpDi=  4
 NAtoms=   14 NActive=   14 NUniq=   14 SFac= 1.00D+00 NAtFMM=   60 NAOKFM=F Big=F
 Integral buffers will be    131072 words long.
 Raffenetti 2 integral format.
 Two-electron integral symmetry is turned on.
 Leave Link  301 at Sat Mar  9 13:21:35 2019, MaxMem=   671088640 cpu:               1.3 elap:               0.1
 (Enter /shared/centos7/gaussian/g16/l302.exe)
 NPDir=0 NMtPBC=     1 NCelOv=     1 NCel=       1 NClECP=     1 NCelD=      1
         NCelK=      1 NCelE2=     1 NClLst=     1 CellRange=     0.0.
 One-electron integrals computed using PRISM.
 One-electron integral symmetry used in STVInt
 NBasis=   251 RedAO= T EigKep=  5.63D-05  NBF=   251
 NBsUse=   251 1.00D-06 EigRej= -1.00D+00 NBFU=   251
 Precomputing XC quadrature grid using
 IXCGrd= 4 IRadAn=           5 IRanWt=          -1 IRanGd=           0 AccXCQ= 0.00D+00.
 Generated NRdTot=       0 NPtTot=           0 NUsed=           0 NTot=          32
 NSgBfM=   276   276   276   276   276 MxSgAt=    14 MxSgA2=    14.
 Leave Link  302 at Sat Mar  9 13:21:36 2019, MaxMem=   671088640 cpu:               5.9 elap:               0.3
 (Enter /shared/centos7/gaussian/g16/l303.exe)
 DipDrv:  MaxL=1.
 Leave Link  303 at Sat Mar  9 13:21:36 2019, MaxMem=   671088640 cpu:               0.6 elap:               0.1
 (Enter /shared/centos7/gaussian/g16/l401.exe)
 ExpMin= 4.38D-02 ExpMax= 8.59D+03 ExpMxC= 1.30D+03 IAcc=3 IRadAn=         5 AccDes= 0.00D+00
 Harris functional with IExCor= 1009 and IRadAn=       5 diagonalized for initial guess.
 HarFok:  IExCor= 1009 AccDes= 0.00D+00 IRadAn=         5 IDoV= 1 UseB2=F ITyADJ=14
 ICtDFT=  3500011 ScaDFX=  1.000000  1.000000  1.000000  1.000000
 FoFCou: FMM=F IPFlag=           0 FMFlag=      100000 FMFlg1=           0
         NFxFlg=           0 DoJE=T BraDBF=F KetDBF=T FulRan=T
         wScrn=  0.000000 ICntrl=       500 IOpCl=  0 I1Cent=   200000004 NGrid=           0
         NMat0=    1 NMatS0=      1 NMatT0=    0 NMatD0=    1 NMtDS0=    0 NMtDT0=    0
 Petite list used in FoFCou.
 Harris En= -232.888158404244    
 JPrj=0 DoOrth=F DoCkMO=F.
 Initial guess <Sx>= 0.0000 <Sy>= 0.0000 <Sz>= 0.5000 <S**2>= 0.7500 S= 0.5000
 Leave Link  401 at Sat Mar  9 13:21:37 2019, MaxMem=   671088640 cpu:              19.9 elap:               1.0
 (Enter /shared/centos7/gaussian/g16/l502.exe)
 Integral symmetry usage will be decided dynamically.
 UHF open shell SCF:
 Using DIIS extrapolation, IDIIS=  1040.
 NGot=   671088640 LenX=   670928170 LenY=   670851553
 Requested convergence on RMS density matrix=1.00D-08 within 128 cycles.
 Requested convergence on MAX density matrix=1.00D-06.
 Requested convergence on             energy=1.00D-06.
 No special actions if energy rises.
 Fock matrices will be formed incrementally for  20 cycles.

 Cycle   1  Pass 1  IDiag  1:
 FoFJK:  IHMeth= 1 ICntrl=       0 DoSepK=F KAlg= 0 I1Cent=           0 FoldK=F
 IRaf= 990000000 NMat=       1 IRICut=       1 DoRegI=T DoRafI=F ISym2E= 0 IDoP0=0 IntGTp=1.
 FoFCou: FMM=F IPFlag=           0 FMFlag=      100000 FMFlg1=           0
         NFxFlg=           0 DoJE=F BraDBF=F KetDBF=F FulRan=T
         wScrn=  0.000000 ICntrl=         0 IOpCl=  1 I1Cent=           0 NGrid=           0
         NMat0=    1 NMatS0=      1 NMatT0=    0 NMatD0=    1 NMtDS0=    0 NMtDT0=    0
 Symmetry not used in FoFCou.
 E= -232.782427222615    
 DIIS: error= 2.17D-02 at cycle   1 NSaved=   1.
 NSaved= 1 IEnMin= 1 EnMin= -232.782427222615     IErMin= 1 ErrMin= 2.17D-02
 ErrMax= 2.17D-02  0.00D+00 EMaxC= 1.00D-01 BMatC= 8.80D-01 BMatP= 8.80D-01
 IDIUse=3 WtCom= 7.83D-01 WtEn= 2.17D-01
 Coeff-Com:  0.100D+01
 Coeff-En:   0.100D+01
 Coeff:      0.100D+01
 Gap=     0.247 Goal=   None    Shift=    0.000
 Gap=     0.297 Goal=   None    Shift=    0.000
 GapD=    0.247 DampG=1.000 DampE=0.500 DampFc=0.5000 IDamp=-1.
 Damping current iteration by 5.00D-01
 RMSDP=3.31D-03 MaxDP=1.73D-01              OVMax= 1.42D-01

 Cycle   2  Pass 1  IDiag  1:
 RMSU=  1.64D-03    CP:  9.79D-01
 E= -232.872834349782     Delta-E=       -0.090407127167 Rises=F Damp=T
 DIIS: error= 4.94D-03 at cycle   2 NSaved=   2.
 NSaved= 2 IEnMin= 2 EnMin= -232.872834349782     IErMin= 2 ErrMin= 4.94D-03
 ErrMax= 4.94D-03  0.00D+00 EMaxC= 1.00D-01 BMatC= 5.92D-02 BMatP= 8.80D-01
 IDIUse=3 WtCom= 9.51D-01 WtEn= 4.94D-02
 Coeff-Com: -0.794D-01 0.108D+01
 Coeff-En:   0.000D+00 0.100D+01
 Coeff:     -0.754D-01 0.108D+01
 Gap=     0.289 Goal=   None    Shift=    0.000
 Gap=     0.335 Goal=   None    Shift=    0.000
 RMSDP=1.26D-03 MaxDP=6.98D-02 DE=-9.04D-02 OVMax= 8.30D-02

 Cycle   3  Pass 1  IDiag  1:
 RMSU=  1.20D-03    CP:  9.69D-01  7.80D-01
 E= -232.961758931514     Delta-E=       -0.088924581731 Rises=F Damp=F
 DIIS: error= 3.08D-03 at cycle   3 NSaved=   3.
 NSaved= 3 IEnMin= 3 EnMin= -232.961758931514     IErMin= 3 ErrMin= 3.08D-03
 ErrMax= 3.08D-03  0.00D+00 EMaxC= 1.00D-01 BMatC= 1.45D-02 BMatP= 5.92D-02
 IDIUse=3 WtCom= 9.69D-01 WtEn= 3.08D-02
 Coeff-Com: -0.826D-01 0.328D+00 0.754D+00
 Coeff-En:   0.000D+00 0.000D+00 0.100D+01
 Coeff:     -0.800D-01 0.318D+00 0.762D+00
 Gap=     0.287 Goal=   None    Shift=    0.000
 Gap=     0.303 Goal=   None    Shift=    0.000
 RMSDP=2.22D-04 MaxDP=1.29D-02 DE=-8.89D-02 OVMax= 1.43D-02

 Cycle   4  Pass 1  IDiag  1:
 RMSU=  1.91D-04    CP:  9.68D-01  8.48D-01  9.89D-01
 E= -232.964052844650     Delta-E=       -0.002293913137 Rises=F Damp=F
 DIIS: error= 1.23D-03 at cycle   4 NSaved=   4.
 NSaved= 4 IEnMin= 4 EnMin= -232.964052844650     IErMin= 4 ErrMin= 1.23D-03
 ErrMax= 1.23D-03  0.00D+00 EMaxC= 1.00D-01 BMatC= 2.47D-03 BMatP= 1.45D-02
 IDIUse=3 WtCom= 9.88D-01 WtEn= 1.23D-02
 Coeff-Com: -0.294D-01 0.723D-01 0.339D+00 0.618D+00
 Coeff-En:   0.000D+00 0.000D+00 0.000D+00 0.100D+01
 Coeff:     -0.291D-01 0.714D-01 0.335D+00 0.623D+00
 Gap=     0.284 Goal=   None    Shift=    0.000
 Gap=     0.309 Goal=   None    Shift=    0.000
 RMSDP=9.35D-05 MaxDP=5.69D-03 DE=-2.29D-03 OVMax= 5.71D-03

 Cycle   5  Pass 1  IDiag  1:
 RMSU=  6.29D-05    CP:  9.67D-01  8.27D-01  1.01D+00  7.21D-01
 E= -232.964538067897     Delta-E=       -0.000485223247 Rises=F Damp=F
 DIIS: error= 4.38D-04 at cycle   5 NSaved=   5.
 NSaved= 5 IEnMin= 5 EnMin= -232.964538067897     IErMin= 5 ErrMin= 4.38D-04
 ErrMax= 4.38D-04  0.00D+00 EMaxC= 1.00D-01 BMatC= 1.71D-04 BMatP= 2.47D-03
 IDIUse=3 WtCom= 9.96D-01 WtEn= 4.38D-03
 Coeff-Com: -0.319D-02-0.299D-02 0.478D-01 0.222D+00 0.737D+00
 Coeff-En:   0.000D+00 0.000D+00 0.000D+00 0.000D+00 0.100D+01
 Coeff:     -0.318D-02-0.298D-02 0.475D-01 0.221D+00 0.738D+00
 Gap=     0.285 Goal=   None    Shift=    0.000
 Gap=     0.309 Goal=   None    Shift=    0.000
 RMSDP=4.05D-05 MaxDP=1.84D-03 DE=-4.85D-04 OVMax= 2.17D-03

 Cycle   6  Pass 1  IDiag  1:
 RMSU=  3.16D-05    CP:  9.67D-01  8.26D-01  1.02D+00  8.08D-01  9.10D-01
 E= -232.964587189909     Delta-E=       -0.000049122012 Rises=F Damp=F
 DIIS: error= 1.04D-04 at cycle   6 NSaved=   6.
 NSaved= 6 IEnMin= 6 EnMin= -232.964587189909     IErMin= 6 ErrMin= 1.04D-04
 ErrMax= 1.04D-04  0.00D+00 EMaxC= 1.00D-01 BMatC= 1.38D-05 BMatP= 1.71D-04
 IDIUse=3 WtCom= 9.99D-01 WtEn= 1.04D-03
 Coeff-Com:  0.435D-02-0.108D-01-0.508D-01-0.923D-01 0.484D-02 0.114D+01
 Coeff-En:   0.000D+00 0.000D+00 0.000D+00 0.000D+00 0.000D+00 0.100D+01
 Coeff:      0.435D-02-0.108D-01-0.507D-01-0.923D-01 0.483D-02 0.114D+01
 Gap=     0.286 Goal=   None    Shift=    0.000
 Gap=     0.310 Goal=   None    Shift=    0.000
 RMSDP=1.62D-05 MaxDP=8.48D-04 DE=-4.91D-05 OVMax= 1.82D-03

 Cycle   7  Pass 1  IDiag  1:
 RMSU=  1.07D-05    CP:  9.67D-01  8.23D-01  1.03D+00  8.26D-01  1.05D+00
                    CP:  1.14D+00
 E= -232.964596590625     Delta-E=       -0.000009400715 Rises=F Damp=F
 DIIS: error= 3.43D-05 at cycle   7 NSaved=   7.
 NSaved= 7 IEnMin= 7 EnMin= -232.964596590625     IErMin= 7 ErrMin= 3.43D-05
 ErrMax= 3.43D-05  0.00D+00 EMaxC= 1.00D-01 BMatC= 1.96D-06 BMatP= 1.38D-05
 IDIUse=1 WtCom= 1.00D+00 WtEn= 0.00D+00
 Coeff-Com:  0.134D-02-0.232D-02-0.177D-01-0.492D-01-0.803D-01 0.313D+00
 Coeff-Com:  0.835D+00
 Coeff:      0.134D-02-0.232D-02-0.177D-01-0.492D-01-0.803D-01 0.313D+00
 Coeff:      0.835D+00
 Gap=     0.286 Goal=   None    Shift=    0.000
 Gap=     0.310 Goal=   None    Shift=    0.000
 RMSDP=4.32D-06 MaxDP=4.05D-04 DE=-9.40D-06 OVMax= 3.95D-04

 Cycle   8  Pass 1  IDiag  1:
 RMSU=  3.21D-06    CP:  9.67D-01  8.22D-01  1.03D+00  8.26D-01  1.06D+00
                    CP:  1.21D+00  1.15D+00
 E= -232.964597406232     Delta-E=       -0.000000815607 Rises=F Damp=F
 DIIS: error= 1.26D-05 at cycle   8 NSaved=   8.
 NSaved= 8 IEnMin= 8 EnMin= -232.964597406232     IErMin= 8 ErrMin= 1.26D-05
 ErrMax= 1.26D-05  0.00D+00 EMaxC= 1.00D-01 BMatC= 2.17D-07 BMatP= 1.96D-06
 IDIUse=1 WtCom= 1.00D+00 WtEn= 0.00D+00
 Coeff-Com: -0.198D-03 0.652D-03 0.136D-02-0.301D-02-0.224D-01-0.466D-01
 Coeff-Com:  0.213D+00 0.857D+00
 Coeff:     -0.198D-03 0.652D-03 0.136D-02-0.301D-02-0.224D-01-0.466D-01
 Coeff:      0.213D+00 0.857D+00
 Gap=     0.286 Goal=   None    Shift=    0.000
 Gap=     0.310 Goal=   None    Shift=    0.000
 RMSDP=1.89D-06 MaxDP=8.60D-05 DE=-8.16D-07 OVMax= 1.81D-04

 Cycle   9  Pass 1  IDiag  1:
 RMSU=  1.41D-06    CP:  9.67D-01  8.23D-01  1.03D+00  8.26D-01  1.06D+00
                    CP:  1.22D+00  1.25D+00  1.16D+00
 E= -232.964597489710     Delta-E=       -0.000000083478 Rises=F Damp=F
 DIIS: error= 3.90D-06 at cycle   9 NSaved=   9.
 NSaved= 9 IEnMin= 9 EnMin= -232.964597489710     IErMin= 9 ErrMin= 3.90D-06
 ErrMax= 3.90D-06  0.00D+00 EMaxC= 1.00D-01 BMatC= 1.97D-08 BMatP= 2.17D-07
 IDIUse=1 WtCom= 1.00D+00 WtEn= 0.00D+00
 Coeff-Com: -0.210D-03 0.439D-03 0.246D-02 0.544D-02 0.638D-02-0.444D-01
 Coeff-Com: -0.741D-01 0.171D+00 0.933D+00
 Coeff:     -0.210D-03 0.439D-03 0.246D-02 0.544D-02 0.638D-02-0.444D-01
 Coeff:     -0.741D-01 0.171D+00 0.933D+00
 Gap=     0.286 Goal=   None    Shift=    0.000
 Gap=     0.310 Goal=   None    Shift=    0.000
 RMSDP=6.92D-07 MaxDP=2.75D-05 DE=-8.35D-08 OVMax= 3.19D-05

 Cycle  10  Pass 1  IDiag  1:
 RMSU=  3.11D-07    CP:  9.67D-01  8.23D-01  1.03D+00  8.25D-01  1.06D+00
                    CP:  1.21D+00  1.28D+00  1.28D+00  1.04D+00
 E= -232.964597497546     Delta-E=       -0.000000007836 Rises=F Damp=F
 DIIS: error= 8.99D-07 at cycle  10 NSaved=  10.
 NSaved=10 IEnMin=10 EnMin= -232.964597497546     IErMin=10 ErrMin= 8.99D-07
 ErrMax= 8.99D-07  0.00D+00 EMaxC= 1.00D-01 BMatC= 8.85D-10 BMatP= 1.97D-08
 IDIUse=1 WtCom= 1.00D+00 WtEn= 0.00D+00
 Coeff-Com: -0.817D-05 0.124D-04 0.207D-03 0.704D-03 0.172D-02-0.261D-02
 Coeff-Com: -0.199D-01-0.191D-01 0.102D+00 0.937D+00
 Coeff:     -0.817D-05 0.124D-04 0.207D-03 0.704D-03 0.172D-02-0.261D-02
 Coeff:     -0.199D-01-0.191D-01 0.102D+00 0.937D+00
 Gap=     0.286 Goal=   None    Shift=    0.000
 Gap=     0.310 Goal=   None    Shift=    0.000
 RMSDP=1.52D-07 MaxDP=8.14D-06 DE=-7.84D-09 OVMax= 8.73D-06

 Cycle  11  Pass 1  IDiag  1:
 RMSU=  1.02D-07    CP:  9.67D-01  8.23D-01  1.03D+00  8.25D-01  1.06D+00
                    CP:  1.21D+00  1.28D+00  1.30D+00  1.06D+00  1.23D+00
 E= -232.964597497928     Delta-E=       -0.000000000382 Rises=F Damp=F
 DIIS: error= 4.04D-07 at cycle  11 NSaved=  11.
 NSaved=11 IEnMin=11 EnMin= -232.964597497928     IErMin=11 ErrMin= 4.04D-07
 ErrMax= 4.04D-07  0.00D+00 EMaxC= 1.00D-01 BMatC= 2.18D-10 BMatP= 8.85D-10
 IDIUse=1 WtCom= 1.00D+00 WtEn= 0.00D+00
 Coeff-Com:  0.228D-04-0.489D-04-0.219D-03-0.392D-03-0.140D-03 0.430D-02
 Coeff-Com:  0.151D-02-0.259D-01-0.735D-01 0.319D+00 0.776D+00
 Coeff:      0.228D-04-0.489D-04-0.219D-03-0.392D-03-0.140D-03 0.430D-02
 Coeff:      0.151D-02-0.259D-01-0.735D-01 0.319D+00 0.776D+00
 Gap=     0.286 Goal=   None    Shift=    0.000
 Gap=     0.310 Goal=   None    Shift=    0.000
 RMSDP=5.64D-08 MaxDP=3.68D-06 DE=-3.82D-10 OVMax= 3.55D-06

 Cycle  12  Pass 1  IDiag  1:
 RMSU=  3.22D-08    CP:  9.67D-01  8.23D-01  1.03D+00  8.25D-01  1.06D+00
                    CP:  1.22D+00  1.28D+00  1.31D+00  1.06D+00  1.33D+00
                    CP:  1.15D+00
 E= -232.964597498004     Delta-E=       -0.000000000076 Rises=F Damp=F
 DIIS: error= 1.02D-07 at cycle  12 NSaved=  12.
 NSaved=12 IEnMin=12 EnMin= -232.964597498004     IErMin=12 ErrMin= 1.02D-07
 ErrMax= 1.02D-07  0.00D+00 EMaxC= 1.00D-01 BMatC= 1.52D-11 BMatP= 2.18D-10
 IDIUse=1 WtCom= 1.00D+00 WtEn= 0.00D+00
 Coeff-Com:  0.277D-05-0.615D-05-0.460D-04-0.112D-03-0.196D-03 0.766D-03
 Coeff-Com:  0.242D-02-0.479D-03-0.206D-01-0.788D-01 0.932D-01 0.100D+01
 Coeff:      0.277D-05-0.615D-05-0.460D-04-0.112D-03-0.196D-03 0.766D-03
 Coeff:      0.242D-02-0.479D-03-0.206D-01-0.788D-01 0.932D-01 0.100D+01
 Gap=     0.286 Goal=   None    Shift=    0.000
 Gap=     0.310 Goal=   None    Shift=    0.000
 RMSDP=2.37D-08 MaxDP=1.41D-06 DE=-7.57D-11 OVMax= 1.73D-06

 Cycle  13  Pass 1  IDiag  1:
 RMSU=  9.54D-09    CP:  9.67D-01  8.23D-01  1.03D+00  8.25D-01  1.06D+00
                    CP:  1.22D+00  1.27D+00  1.31D+00  1.06D+00  1.35D+00
                    CP:  1.31D+00  1.28D+00
 E= -232.964597498017     Delta-E=       -0.000000000013 Rises=F Damp=F
 DIIS: error= 2.98D-08 at cycle  13 NSaved=  13.
 NSaved=13 IEnMin=13 EnMin= -232.964597498017     IErMin=13 ErrMin= 2.98D-08
 ErrMax= 2.98D-08  0.00D+00 EMaxC= 1.00D-01 BMatC= 1.21D-12 BMatP= 1.52D-11
 IDIUse=1 WtCom= 1.00D+00 WtEn= 0.00D+00
 Coeff-Com: -0.162D-05 0.330D-05 0.114D-04 0.194D-04-0.126D-04-0.247D-03
 Coeff-Com:  0.146D-03 0.194D-02 0.349D-02-0.344D-01-0.582D-01 0.109D+00
 Coeff-Com:  0.978D+00
 Coeff:     -0.162D-05 0.330D-05 0.114D-04 0.194D-04-0.126D-04-0.247D-03
 Coeff:      0.146D-03 0.194D-02 0.349D-02-0.344D-01-0.582D-01 0.109D+00
 Coeff:      0.978D+00
 Gap=     0.286 Goal=   None    Shift=    0.000
 Gap=     0.310 Goal=   None    Shift=    0.000
 RMSDP=8.42D-09 MaxDP=5.20D-07 DE=-1.32D-11 OVMax= 5.97D-07

 SCF Done:  E(UM062X) =  -232.964597498     A.U. after   13 cycles
            NFock= 13  Conv=0.84D-08     -V/T= 2.0039
 <Sx>= 0.0000 <Sy>= 0.0000 <Sz>= 0.5000 <S**2>= 0.7553 S= 0.5027
 <L.S>= 0.000000000000E+00
 KE= 2.320645360353D+02 PE=-9.118508245147D+02 EE= 2.623926943010D+02
 Annihilation of the first spin contaminant:
 S**2 before annihilation     0.7553,   after     0.7500
 Leave Link  502 at Sat Mar  9 13:22:36 2019, MaxMem=   671088640 cpu:            1191.5 elap:              59.6
 (Enter /shared/centos7/gaussian/g16/l801.exe)
 DoSCS=F DFT=T ScalE2(SS,OS)=  1.000000  1.000000
 Range of M.O.s used for correlation:     1   251
 NBasis=   251 NAE=    21 NBE=    20 NFC=     0 NFV=     0
 NROrb=    251 NOA=    21 NOB=    20 NVA=   230 NVB=   231

 **** Warning!!: The largest alpha MO coefficient is  0.34957910D+02


 **** Warning!!: The largest beta MO coefficient is  0.33684248D+02

 Leave Link  801 at Sat Mar  9 13:22:36 2019, MaxMem=   671088640 cpu:               0.5 elap:               0.0
 (Enter /shared/centos7/gaussian/g16/l1101.exe)
 Using compressed storage, NAtomX=    14.
 Will process     15 centers per pass.
 Leave Link 1101 at Sat Mar  9 13:22:37 2019, MaxMem=   671088640 cpu:               7.8 elap:               0.4
 (Enter /shared/centos7/gaussian/g16/l1102.exe)
 Symmetrizing basis deriv contribution to polar:
 IMax=3 JMax=2 DiffMx= 0.00D+00
 Leave Link 1102 at Sat Mar  9 13:22:37 2019, MaxMem=   671088640 cpu:               0.7 elap:               0.1
 (Enter /shared/centos7/gaussian/g16/l1110.exe)
 Forming Gx(P) for the SCF density, NAtomX=    14.
 Integral derivatives from FoFJK, PRISM(SPDF).
 Do as many integral derivatives as possible in FoFJK.
 G2DrvN: MDV=     671087496.
 G2DrvN: will do    15 centers at a time, making    1 passes.
 Calling FoFCou, ICntrl=  3107 FMM=F I1Cent=   0 AccDes= 0.00D+00.
 FoFJK:  IHMeth= 1 ICntrl=    3107 DoSepK=F KAlg= 0 I1Cent=           0 FoldK=F
 IRaf=         0 NMat=       1 IRICut=       1 DoRegI=T DoRafI=F ISym2E= 0 IDoP0=0 IntGTp=1.
 FoFCou: FMM=F IPFlag=           0 FMFlag=      100000 FMFlg1=           0
         NFxFlg=           0 DoJE=F BraDBF=F KetDBF=F FulRan=T
         wScrn=  0.000000 ICntrl=      3107 IOpCl=  1 I1Cent=           0 NGrid=           0
         NMat0=    1 NMatS0=      1 NMatT0=    0 NMatD0=    1 NMtDS0=    0 NMtDT0=    0
 Symmetry not used in FoFCou.
 End of G2Drv F.D. properties file   721 does not exist.
 End of G2Drv F.D. properties file   722 does not exist.
 End of G2Drv F.D. properties file   788 does not exist.
 Leave Link 1110 at Sat Mar  9 13:24:46 2019, MaxMem=   671088640 cpu:            2585.7 elap:             129.3
 (Enter /shared/centos7/gaussian/g16/l1002.exe)
 Minotr:  UHF open shell wavefunction.
          IDoAtm=11111111111111
          Direct CPHF calculation.
          Differentiating once with respect to nuclear coordinates.
          Requested convergence is 1.0D-08 RMS, and 1.0D-07 maximum.
          Secondary convergence is 1.0D-12 RMS, and 1.0D-12 maximum.
          NewPWx=T KeepS1=F KeepF1=F KeepIn=T MapXYZ=F SortEE=F KeepMc=T.
         4243 words used for storage of precomputed grid.
 Two-electron integrals replicated using symmetry.
          MDV=     671088640 using IRadAn=       1.
          Solving linear equations simultaneously, MaxMat=     380.
 FoF2E skips out because all densities are zero.
 CalDSu exits because no D1Ps are significant.
 FoFJK:  IHMeth= 1 ICntrl=       0 DoSepK=F KAlg= 0 I1Cent=           0 FoldK=F
 IRaf= 980000000 NMat=      42 IRICut=     105 DoRegI=T DoRafI=T ISym2E= 2 IDoP0=3 IntGTp=3.
 FoFCou: FMM=F IPFlag=           0 FMFlag=      100000 FMFlg1=           0
         NFxFlg=           0 DoJE=F BraDBF=F KetDBF=F FulRan=T
         wScrn=  0.000000 ICntrl=         0 IOpCl=  1 I1Cent=           0 NGrid=           0
         NMat0=   42 NMatS0=     42 NMatT0=    0 NMatD0=   42 NMtDS0=    0 NMtDT0=    0
 Integrals replicated using symmetry in FoFCou.
 Raff kept on since  97.05% of shell-pairs survive, threshold=   0.20 IRatSp=97.
          There are    45 degrees of freedom in the 1st order CPHF.  IDoFFX=6 NUNeed=     0.
     39 vectors produced by pass  0 Test12= 2.10D-14 2.22D-09 XBig12= 1.22D-01 6.58D-02.
 AX will form    39 AO Fock derivatives at one time.
     39 vectors produced by pass  1 Test12= 2.10D-14 2.22D-09 XBig12= 1.13D-02 1.28D-02.
     39 vectors produced by pass  2 Test12= 2.10D-14 2.22D-09 XBig12= 5.52D-04 4.47D-03.
     39 vectors produced by pass  3 Test12= 2.10D-14 2.22D-09 XBig12= 1.10D-05 4.69D-04.
     39 vectors produced by pass  4 Test12= 2.10D-14 2.22D-09 XBig12= 1.32D-07 4.81D-05.
     39 vectors produced by pass  5 Test12= 2.10D-14 2.22D-09 XBig12= 1.28D-09 3.12D-06.
     39 vectors produced by pass  6 Test12= 2.10D-14 2.22D-09 XBig12= 8.79D-12 2.41D-07.
     14 vectors produced by pass  7 Test12= 2.10D-14 2.22D-09 XBig12= 5.90D-14 1.91D-08.
 InvSVY:  IOpt=1 It=  1 EMax= 1.89D-15
 Solved reduced A of dimension   287 with    39 vectors.
 End of Minotr F.D. properties file   721 does not exist.
 End of Minotr F.D. properties file   722 does not exist.
 End of Minotr F.D. properties file   788 does not exist.
 Leave Link 1002 at Sat Mar  9 13:28:11 2019, MaxMem=   671088640 cpu:            4088.2 elap:             204.5
 (Enter /shared/centos7/gaussian/g16/l601.exe)
 Copying SCF densities to generalized density rwf, IOpCl= 1 IROHF=0.

 **********************************************************************

            Population analysis using the SCF density.

 **********************************************************************

 Orbital symmetries:
 Alpha Orbitals:
       Occupied  (A) (A) (A) (A) (A) (A) (A) (A) (A) (A) (A) (A)
                 (A) (A) (A) (A) (A) (A) (A) (A) (A)
       Virtual   (A) (A) (A) (A) (A) (A) (A) (A) (A) (A) (A) (A)
                 (A) (A) (A) (A) (A) (A) (A) (A) (A) (A) (A) (A)
                 (A) (A) (A) (A) (A) (A) (A) (A) (A) (A) (A) (A)
                 (A) (A) (A) (A) (A) (A) (A) (A) (A) (A) (A) (A)
                 (A) (A) (A) (A) (A) (A) (A) (A) (A) (A) (A) (A)
                 (A) (A) (A) (A) (A) (A) (A) (A) (A) (A) (A) (A)
                 (A) (A) (A) (A) (A) (A) (A) (A) (A) (A) (A) (A)
                 (A) (A) (A) (A) (A) (A) (A) (A) (A) (A) (A) (A)
                 (A) (A) (A) (A) (A) (A) (A) (A) (A) (A) (A) (A)
                 (A) (A) (A) (A) (A) (A) (A) (A) (A) (A) (A) (A)
                 (A) (A) (A) (A) (A) (A) (A) (A) (A) (A) (A) (A)
                 (A) (A) (A) (A) (A) (A) (A) (A) (A) (A) (A) (A)
                 (A) (A) (A) (A) (A) (A) (A) (A) (A) (A) (A) (A)
                 (A) (A) (A) (A) (A) (A) (A) (A) (A) (A) (A) (A)
                 (A) (A) (A) (A) (A) (A) (A) (A) (A) (A) (A) (A)
                 (A) (A) (A) (A) (A) (A) (A) (A) (A) (A) (A) (A)
                 (A) (A) (A) (A) (A) (A) (A) (A) (A) (A) (A) (A)
                 (A) (A) (A) (A) (A) (A) (A) (A) (A) (A) (A) (A)
                 (A) (A) (A) (A) (A) (A) (A) (A) (A) (A) (A) (A)
                 (A) (A)
 Beta  Orbitals:
       Occupied  (A) (A) (A) (A) (A) (A) (A) (A) (A) (A) (A) (A)
                 (A) (A) (A) (A) (A) (A) (A) (A)
       Virtual   (A) (A) (A) (A) (A) (A) (A) (A) (A) (A) (A) (A)
                 (A) (A) (A) (A) (A) (A) (A) (A) (A) (A) (A) (A)
                 (A) (A) (A) (A) (A) (A) (A) (A) (A) (A) (A) (A)
                 (A) (A) (A) (A) (A) (A) (A) (A) (A) (A) (A) (A)
                 (A) (A) (A) (A) (A) (A) (A) (A) (A) (A) (A) (A)
                 (A) (A) (A) (A) (A) (A) (A) (A) (A) (A) (A) (A)
                 (A) (A) (A) (A) (A) (A) (A) (A) (A) (A) (A) (A)
                 (A) (A) (A) (A) (A) (A) (A) (A) (A) (A) (A) (A)
                 (A) (A) (A) (A) (A) (A) (A) (A) (A) (A) (A) (A)
                 (A) (A) (A) (A) (A) (A) (A) (A) (A) (A) (A) (A)
                 (A) (A) (A) (A) (A) (A) (A) (A) (A) (A) (A) (A)
                 (A) (A) (A) (A) (A) (A) (A) (A) (A) (A) (A) (A)
                 (A) (A) (A) (A) (A) (A) (A) (A) (A) (A) (A) (A)
                 (A) (A) (A) (A) (A) (A) (A) (A) (A) (A) (A) (A)
                 (A) (A) (A) (A) (A) (A) (A) (A) (A) (A) (A) (A)
                 (A) (A) (A) (A) (A) (A) (A) (A) (A) (A) (A) (A)
                 (A) (A) (A) (A) (A) (A) (A) (A) (A) (A) (A) (A)
                 (A) (A) (A) (A) (A) (A) (A) (A) (A) (A) (A) (A)
                 (A) (A) (A) (A) (A) (A) (A) (A) (A) (A) (A) (A)
                 (A) (A) (A)
 The electronic state is 2-A.
 Alpha  occ. eigenvalues --  -19.61294 -10.57741 -10.55130 -10.54553 -10.53564
 Alpha  occ. eigenvalues --   -1.13971  -0.90518  -0.81943  -0.72561  -0.66834
 Alpha  occ. eigenvalues --   -0.58826  -0.54578  -0.52606  -0.50186  -0.47743
 Alpha  occ. eigenvalues --   -0.46371  -0.41988  -0.41437  -0.39179  -0.34567
 Alpha  occ. eigenvalues --   -0.27031
 Alpha virt. eigenvalues --    0.01566   0.02860   0.03457   0.03791   0.06302
 Alpha virt. eigenvalues --    0.06598   0.06991   0.07116   0.07480   0.10639
 Alpha virt. eigenvalues --    0.11139   0.11439   0.11642   0.11787   0.15705
 Alpha virt. eigenvalues --    0.16488   0.18785   0.19535   0.21275   0.22645
 Alpha virt. eigenvalues --    0.23383   0.24455   0.24863   0.25470   0.26876
 Alpha virt. eigenvalues --    0.27616   0.28227   0.29041   0.29353   0.30969
 Alpha virt. eigenvalues --    0.31962   0.33087   0.37455   0.41828   0.43807
 Alpha virt. eigenvalues --    0.44047   0.47384   0.48382   0.52163   0.52662
 Alpha virt. eigenvalues --    0.54453   0.55021   0.55965   0.57277   0.58860
 Alpha virt. eigenvalues --    0.59665   0.60351   0.60919   0.62072   0.64083
 Alpha virt. eigenvalues --    0.64273   0.65019   0.65735   0.67258   0.69352
 Alpha virt. eigenvalues --    0.69965   0.71374   0.76418   0.78336   0.80816
 Alpha virt. eigenvalues --    0.83710   0.85334   0.88454   0.93235   0.96068
 Alpha virt. eigenvalues --    0.98865   1.00070   1.00464   1.02517   1.03305
 Alpha virt. eigenvalues --    1.05412   1.09246   1.11235   1.12726   1.14848
 Alpha virt. eigenvalues --    1.15866   1.17436   1.19586   1.21618   1.22811
 Alpha virt. eigenvalues --    1.24422   1.25208   1.26443   1.29484   1.32061
 Alpha virt. eigenvalues --    1.32909   1.35171   1.36283   1.36861   1.39854
 Alpha virt. eigenvalues --    1.40892   1.42702   1.44858   1.46418   1.47211
 Alpha virt. eigenvalues --    1.49257   1.50794   1.51812   1.53524   1.54368
 Alpha virt. eigenvalues --    1.55547   1.57895   1.59466   1.62949   1.65253
 Alpha virt. eigenvalues --    1.68185   1.70515   1.75903   1.81388   1.99440
 Alpha virt. eigenvalues --    2.10857   2.15841   2.29203   2.32067   2.41584
 Alpha virt. eigenvalues --    2.46726   2.47681   2.51882   2.53683   2.64454
 Alpha virt. eigenvalues --    2.66311   2.72370   2.74040   2.77208   2.80128
 Alpha virt. eigenvalues --    2.82111   2.85951   2.87598   2.89940   2.90851
 Alpha virt. eigenvalues --    2.93619   2.96223   2.96757   2.99608   3.03081
 Alpha virt. eigenvalues --    3.06713   3.08293   3.11842   3.14970   3.16614
 Alpha virt. eigenvalues --    3.19685   3.20230   3.23844   3.27910   3.28716
 Alpha virt. eigenvalues --    3.31426   3.32445   3.35144   3.36981   3.38810
 Alpha virt. eigenvalues --    3.41998   3.42487   3.47144   3.51169   3.54736
 Alpha virt. eigenvalues --    3.57121   3.60826   3.63735   3.64317   3.66373
 Alpha virt. eigenvalues --    3.68426   3.70453   3.71333   3.76013   3.77190
 Alpha virt. eigenvalues --    3.78545   3.84489   3.86822   3.88592   3.92598
 Alpha virt. eigenvalues --    3.96467   3.97118   3.99371   4.01849   4.06283
 Alpha virt. eigenvalues --    4.08035   4.14017   4.14114   4.16839   4.18467
 Alpha virt. eigenvalues --    4.20057   4.20584   4.23523   4.27619   4.29397
 Alpha virt. eigenvalues --    4.31004   4.33768   4.36631   4.39480   4.41138
 Alpha virt. eigenvalues --    4.42968   4.46675   4.47655   4.52971   4.55547
 Alpha virt. eigenvalues --    4.58758   4.58957   4.65311   4.73145   4.75779
 Alpha virt. eigenvalues --    4.94202   5.04555   5.19773   5.24215   5.26984
 Alpha virt. eigenvalues --    5.29281   5.39893   5.41864   5.45827   5.50062
 Alpha virt. eigenvalues --    5.51966   5.55127   5.58782   5.60739   5.65290
 Alpha virt. eigenvalues --    5.69427   5.86761   5.96562   6.52631   7.01768
 Alpha virt. eigenvalues --    7.20298   7.23936   7.24842   7.52724   7.64400
 Alpha virt. eigenvalues --   24.22382  24.32774  24.44491  24.49513  50.15446
  Beta  occ. eigenvalues --  -19.61225 -10.57744 -10.54616 -10.54465 -10.53539
  Beta  occ. eigenvalues --   -1.13752  -0.89664  -0.80583  -0.71030  -0.65654
  Beta  occ. eigenvalues --   -0.58507  -0.54013  -0.51769  -0.49858  -0.46940
  Beta  occ. eigenvalues --   -0.45464  -0.41421  -0.41068  -0.38585  -0.34334
  Beta virt. eigenvalues --   -0.03325   0.01192   0.02525   0.03330   0.03803
  Beta virt. eigenvalues --    0.06423   0.06535   0.06671   0.07189   0.07871
  Beta virt. eigenvalues --    0.10324   0.10863   0.11295   0.11644   0.11732
  Beta virt. eigenvalues --    0.15127   0.16507   0.18913   0.20170   0.21502
  Beta virt. eigenvalues --    0.22602   0.23534   0.24598   0.25055   0.25706
  Beta virt. eigenvalues --    0.27154   0.27848   0.28123   0.29050   0.29470
  Beta virt. eigenvalues --    0.31016   0.32351   0.33204   0.37471   0.42094
  Beta virt. eigenvalues --    0.43949   0.44153   0.47563   0.49140   0.52545
  Beta virt. eigenvalues --    0.53417   0.54156   0.55348   0.55962   0.57609
  Beta virt. eigenvalues --    0.58877   0.59820   0.61089   0.61271   0.62744
  Beta virt. eigenvalues --    0.64191   0.64808   0.65427   0.66348   0.67497
  Beta virt. eigenvalues --    0.69468   0.70097   0.71908   0.76544   0.77811
  Beta virt. eigenvalues --    0.81181   0.83712   0.85827   0.88650   0.93316
  Beta virt. eigenvalues --    0.96129   0.98649   0.99912   1.00474   1.02542
  Beta virt. eigenvalues --    1.03453   1.05574   1.09329   1.11383   1.12763
  Beta virt. eigenvalues --    1.15124   1.16056   1.17666   1.19611   1.21839
  Beta virt. eigenvalues --    1.23074   1.24470   1.25343   1.26663   1.29607
  Beta virt. eigenvalues --    1.32132   1.33299   1.35441   1.36669   1.37155
  Beta virt. eigenvalues --    1.40050   1.41378   1.42688   1.44747   1.46658
  Beta virt. eigenvalues --    1.47756   1.49935   1.51095   1.51638   1.53594
  Beta virt. eigenvalues --    1.55067   1.55756   1.58577   1.59983   1.63168
  Beta virt. eigenvalues --    1.65347   1.68401   1.70511   1.76132   1.81584
  Beta virt. eigenvalues --    1.99687   2.10865   2.16040   2.29276   2.32291
  Beta virt. eigenvalues --    2.42295   2.47297   2.48373   2.52009   2.54246
  Beta virt. eigenvalues --    2.65009   2.67712   2.73328   2.75994   2.78862
  Beta virt. eigenvalues --    2.81744   2.83639   2.86749   2.89224   2.91457
  Beta virt. eigenvalues --    2.93546   2.94897   2.98102   2.99077   3.03199
  Beta virt. eigenvalues --    3.04051   3.09180   3.10427   3.13540   3.15901
  Beta virt. eigenvalues --    3.18441   3.20415   3.23128   3.25205   3.30228
  Beta virt. eigenvalues --    3.31332   3.33632   3.35223   3.35974   3.38561
  Beta virt. eigenvalues --    3.40072   3.43931   3.46004   3.49037   3.51350
  Beta virt. eigenvalues --    3.55088   3.59006   3.62368   3.63917   3.64675
  Beta virt. eigenvalues --    3.68779   3.69847   3.70951   3.71623   3.76881
  Beta virt. eigenvalues --    3.77963   3.79205   3.85606   3.87449   3.89778
  Beta virt. eigenvalues --    3.93204   3.97200   3.98235   4.00283   4.02447
  Beta virt. eigenvalues --    4.07589   4.09178   4.14547   4.15642   4.18622
  Beta virt. eigenvalues --    4.19521   4.20350   4.23521   4.24781   4.28444
  Beta virt. eigenvalues --    4.30738   4.31440   4.35456   4.37042   4.40063
  Beta virt. eigenvalues --    4.42774   4.44690   4.47323   4.47982   4.53493
  Beta virt. eigenvalues --    4.56378   4.59159   4.59396   4.65514   4.73476
  Beta virt. eigenvalues --    4.78443   4.97162   5.07571   5.20261   5.24339
  Beta virt. eigenvalues --    5.27185   5.30693   5.40088   5.41673   5.46535
  Beta virt. eigenvalues --    5.53529   5.55513   5.58100   5.58965   5.61047
  Beta virt. eigenvalues --    5.65115   5.69751   5.86826   5.96691   6.52627
  Beta virt. eigenvalues --    7.02115   7.20470   7.24010   7.25134   7.52867
  Beta virt. eigenvalues --    7.64661  24.23315  24.32862  24.44885  24.49670
  Beta virt. eigenvalues --   50.15359
          Condensed to atoms (all electrons):
               1          2          3          4          5          6
     1  O    8.092369   0.015447  -0.035320   0.143338  -0.028633   0.007372
     2  C    0.015447   5.437621  -0.023055   0.231113  -0.085397   0.423714
     3  C   -0.035320  -0.023055   5.510966  -0.092831   0.026946  -0.038796
     4  C    0.143338   0.231113  -0.092831   5.076130   0.099711  -0.034616
     5  C   -0.028633  -0.085397   0.026946   0.099711   5.791113   0.017667
     6  H    0.007372   0.423714  -0.038796  -0.034616   0.017667   0.517704
     7  H   -0.010464   0.460786  -0.003605  -0.055947  -0.031264  -0.024048
     8  H   -0.001025  -0.060307   0.419511   0.014767  -0.028209  -0.004392
     9  H   -0.000037   0.002026   0.466854  -0.022368  -0.080810  -0.006549
    10  H   -0.042798   0.013637  -0.024094   0.412251  -0.011979  -0.002712
    11  H   -0.058959  -0.070250   0.027846   0.458470  -0.001855  -0.004317
    12  H   -0.000607   0.005402  -0.022396  -0.002348   0.383316  -0.000194
    13  H    0.000334   0.017659  -0.044381  -0.002482   0.411083  -0.000249
    14  H    0.257692  -0.030097   0.006017  -0.012871   0.038809  -0.000159
               7          8          9         10         11         12
     1  O   -0.010464  -0.001025  -0.000037  -0.042798  -0.058959  -0.000607
     2  C    0.460786  -0.060307   0.002026   0.013637  -0.070250   0.005402
     3  C   -0.003605   0.419511   0.466854  -0.024094   0.027846  -0.022396
     4  C   -0.055947   0.014767  -0.022368   0.412251   0.458470  -0.002348
     5  C   -0.031264  -0.028209  -0.080810  -0.011979  -0.001855   0.383316
     6  H   -0.024048  -0.004392  -0.006549  -0.002712  -0.004317  -0.000194
     7  H    0.478313  -0.006042   0.003826   0.004109  -0.004257   0.000559
     8  H   -0.006042   0.552453  -0.032844   0.000015  -0.000342  -0.001987
     9  H    0.003826  -0.032844   0.499130   0.001036  -0.000132   0.003817
    10  H    0.004109   0.000015   0.001036   0.551988  -0.034866   0.000026
    11  H   -0.004257  -0.000342  -0.000132  -0.034866   0.537818  -0.000083
    12  H    0.000559  -0.001987   0.003817   0.000026  -0.000083   0.457968
    13  H    0.000047  -0.001633  -0.002992   0.000168   0.000023  -0.019420
    14  H    0.000156   0.000460  -0.001182  -0.006549   0.008997  -0.003802
              13         14
     1  O    0.000334   0.257692
     2  C    0.017659  -0.030097
     3  C   -0.044381   0.006017
     4  C   -0.002482  -0.012871
     5  C    0.411083   0.038809
     6  H   -0.000249  -0.000159
     7  H    0.000047   0.000156
     8  H   -0.001633   0.000460
     9  H   -0.002992  -0.001182
    10  H    0.000168  -0.006549
    11  H    0.000023   0.008997
    12  H   -0.019420  -0.003802
    13  H    0.463985  -0.000825
    14  H   -0.000825   0.497185
          Atomic-Atomic Spin Densities.
               1          2          3          4          5          6
     1  O    0.034818   0.004020   0.005095  -0.009517  -0.032139  -0.000241
     2  C    0.004020   0.077470   0.018303  -0.024829  -0.046856  -0.004358
     3  C    0.005095   0.018303  -0.033652  -0.006900  -0.092060   0.000801
     4  C   -0.009517  -0.024829  -0.006900   0.029296   0.024374   0.000377
     5  C   -0.032139  -0.046856  -0.092060   0.024374   1.274299   0.003211
     6  H   -0.000241  -0.004358   0.000801   0.000377   0.003211  -0.003163
     7  H    0.000239   0.005364  -0.001953  -0.003751  -0.001053   0.000822
     8  H   -0.000801  -0.037104   0.032649   0.008106  -0.027826   0.001523
     9  H    0.001006   0.023714  -0.000472  -0.007319  -0.018785  -0.000488
    10  H   -0.001034   0.001647  -0.001328  -0.001973   0.000847   0.000174
    11  H    0.000609   0.001485   0.001252  -0.001616  -0.002370  -0.000398
    12  H    0.001273   0.006759   0.001938  -0.001087  -0.016033  -0.000090
    13  H    0.000485   0.002809   0.011803  -0.001204  -0.018992  -0.000015
    14  H    0.012755   0.002522  -0.000585   0.003490   0.012986   0.000094
               7          8          9         10         11         12
     1  O    0.000239  -0.000801   0.001006  -0.001034   0.000609   0.001273
     2  C    0.005364  -0.037104   0.023714   0.001647   0.001485   0.006759
     3  C   -0.001953   0.032649  -0.000472  -0.001328   0.001252   0.001938
     4  C   -0.003751   0.008106  -0.007319  -0.001973  -0.001616  -0.001087
     5  C   -0.001053  -0.027826  -0.018785   0.000847  -0.002370  -0.016033
     6  H    0.000822   0.001523  -0.000488   0.000174  -0.000398  -0.000090
     7  H   -0.002716  -0.001102   0.000208  -0.000004   0.000329   0.000017
     8  H   -0.001102   0.091599  -0.012103  -0.000067  -0.000124  -0.001931
     9  H    0.000208  -0.012103   0.023081   0.000080   0.000151   0.000338
    10  H   -0.000004  -0.000067   0.000080  -0.002746   0.000519  -0.000016
    11  H    0.000329  -0.000124   0.000151   0.000519   0.002845   0.000035
    12  H    0.000017  -0.001931   0.000338  -0.000016   0.000035  -0.051489
    13  H    0.000012  -0.001966   0.001345   0.000006   0.000003   0.006652
    14  H   -0.000142   0.000476  -0.000653   0.000660  -0.001445   0.000014
              13         14
     1  O    0.000485   0.012755
     2  C    0.002809   0.002522
     3  C    0.011803  -0.000585
     4  C   -0.001204   0.003490
     5  C   -0.018992   0.012986
     6  H   -0.000015   0.000094
     7  H    0.000012  -0.000142
     8  H   -0.001966   0.000476
     9  H    0.001345  -0.000653
    10  H    0.000006   0.000660
    11  H    0.000003  -0.001445
    12  H    0.006652   0.000014
    13  H   -0.046069  -0.000339
    14  H   -0.000339  -0.034195
 Mulliken charges and spin densities:
               1          2
     1  O   -0.338709   0.016569
     2  C   -0.338299   0.030947
     3  C   -0.173662  -0.065110
     4  C   -0.212317   0.007449
     5  C   -0.500497   1.059604
     6  H    0.149575  -0.001751
     7  H    0.187830  -0.003728
     8  H    0.149577   0.051329
     9  H    0.170225   0.010103
    10  H    0.139768  -0.003235
    11  H    0.141907   0.001275
    12  H    0.199749  -0.053620
    13  H    0.178683  -0.045469
    14  H    0.246170  -0.004362
 Sum of Mulliken charges =  -0.00000   1.00000
 Mulliken charges and spin densities with hydrogens summed into heavy atoms:
               1          2
     1  O   -0.092539   0.012207
     2  C   -0.000894   0.025468
     3  C    0.146140  -0.003678
     4  C    0.069358   0.005489
     5  C   -0.122065   0.960515
 APT charges:
               1
     1  O   -0.535798
     2  C   -0.821105
     3  C   -0.810803
     4  C   -0.690815
     5  C   -0.890052
     6  H    0.449186
     7  H    0.357850
     8  H    0.472090
     9  H    0.369518
    10  H    0.338045
    11  H    0.492778
    12  H    0.342429
    13  H    0.539847
    14  H    0.386831
 Sum of APT charges =  -0.00000
 APT charges with hydrogens summed into heavy atoms:
               1
     1  O   -0.148967
     2  C   -0.014069
     3  C    0.030804
     4  C    0.140007
     5  C   -0.007776
 Electronic spatial extent (au):  <R**2>=            485.7126
 Charge=             -0.0000 electrons
 Dipole moment (field-independent basis, Debye):
    X=              1.7433    Y=             -1.1572    Z=              0.5759  Tot=              2.1703
 Quadrupole moment (field-independent basis, Debye-Ang):
   XX=            -35.8699   YY=            -32.5078   ZZ=            -32.6034
   XY=              3.4389   XZ=             -0.3303   YZ=              0.6195
 Traceless Quadrupole moment (field-independent basis, Debye-Ang):
   XX=             -2.2095   YY=              1.1526   ZZ=              1.0570
   XY=              3.4389   XZ=             -0.3303   YZ=              0.6195
 Octapole moment (field-independent basis, Debye-Ang**2):
  XXX=             -2.2180  YYY=              3.5689  ZZZ=              0.0111  XYY=              1.4081
  XXY=             -5.9093  XXZ=              1.5816  XZZ=             -0.9930  YZZ=              1.1022
  YYZ=              0.5992  XYZ=             -0.3631
 Hexadecapole moment (field-independent basis, Debye-Ang**3):
 XXXX=           -387.5860 YYYY=           -195.3733 ZZZZ=            -73.3276 XXXY=              7.9240
 XXXZ=              5.3146 YYYX=             -2.3777 YYYZ=              0.6978 ZZZX=              0.1004
 ZZZY=             -1.2808 XXYY=            -99.8421 XXZZ=            -76.0693 YYZZ=            -47.0998
 XXYZ=              4.1454 YYXZ=              0.0550 ZZXY=              0.1050
 N-N= 1.844289966804D+02 E-N=-9.118508231793D+02  KE= 2.320645360353D+02
  Exact polarizability:   0.000   0.000   0.000   0.000   0.000   0.000
 Approx polarizability:  61.097   1.049  63.211   0.571  -0.598  58.989
                          Isotropic Fermi Contact Couplings
        Atom                 a.u.       MegaHertz       Gauss      10(-4) cm-1
     1  O(17)              0.00666      -4.03877      -1.44113      -1.34719
     2  C(13)              0.01403      15.77252       5.62803       5.26115
     3  C(13)             -0.03128     -35.16600     -12.54810     -11.73011
     4  C(13)             -0.00233      -2.61868      -0.93441      -0.87350
     5  C(13)              0.16996     191.06603      68.17711      63.73277
     6  H(1)              -0.00046      -2.06113      -0.73546      -0.68752
     7  H(1)              -0.00032      -1.42107      -0.50707      -0.47402
     8  H(1)               0.03125     139.68996      49.84485      46.59555
     9  H(1)               0.00561      25.08731       8.95178       8.36823
    10  H(1)               0.00001       0.05719       0.02041       0.01908
    11  H(1)               0.00098       4.36721       1.55833       1.45674
    12  H(1)              -0.01472     -65.78183     -23.47259     -21.94246
    13  H(1)              -0.01462     -65.34446     -23.31653     -21.79657
    14  H(1)              -0.00373     -16.66669      -5.94709      -5.55941
 --------------------------------------------------------
       Center         ----  Spin Dipole Couplings  ----
                      3XX-RR        3YY-RR        3ZZ-RR
 --------------------------------------------------------
     1   Atom        0.146500     -0.070746     -0.075754
     2   Atom        0.017376     -0.002750     -0.014626
     3   Atom        0.003082      0.008429     -0.011510
     4   Atom        0.006897     -0.000806     -0.006091
     5   Atom        0.634425     -0.325828     -0.308597
     6   Atom       -0.000612      0.005080     -0.004469
     7   Atom       -0.000442      0.000239      0.000203
     8   Atom       -0.006029      0.016372     -0.010342
     9   Atom       -0.007909      0.007135      0.000774
    10   Atom        0.003032     -0.001014     -0.002018
    11   Atom        0.002602     -0.000214     -0.002388
    12   Atom       -0.017118     -0.043746      0.060864
    13   Atom        0.026321     -0.020758     -0.005563
    14   Atom        0.037913     -0.015329     -0.022584
 --------------------------------------------------------
                        XY            XZ            YZ
 --------------------------------------------------------
     1   Atom        0.042115      0.025910      0.004869
     2   Atom        0.017344      0.012494      0.006076
     3   Atom       -0.007921     -0.009243      0.003383
     4   Atom        0.006518     -0.001504     -0.000717
     5   Atom       -0.491344     -0.501894      0.214237
     6   Atom        0.004210      0.000488      0.000563
     7   Atom        0.005265      0.005397      0.005594
     8   Atom       -0.005179     -0.002260      0.000420
     9   Atom        0.001568     -0.001568     -0.013330
    10   Atom        0.003898     -0.003440     -0.002486
    11   Atom        0.002755      0.000302      0.000193
    12   Atom       -0.029105      0.001458     -0.037461
    13   Atom        0.023327      0.030098      0.057049
    14   Atom        0.003741      0.005446      0.004986
 --------------------------------------------------------


 ---------------------------------------------------------------------------------
              Anisotropic Spin Dipole Couplings in Principal Axis System
 ---------------------------------------------------------------------------------

       Atom             a.u.   MegaHertz   Gauss  10(-4) cm-1        Axes

              Baa    -0.0787     5.698     2.033     1.900 -0.0745 -0.2023  0.9765
     1 O(17)  Bbb    -0.0786     5.689     2.030     1.898 -0.2012  0.9621  0.1840
              Bcc     0.1574   -11.386    -4.063    -3.798  0.9767  0.1827  0.1124
 
              Baa    -0.0189    -2.540    -0.906    -0.847 -0.3199 -0.0128  0.9474
     2 C(13)  Bbb    -0.0126    -1.691    -0.603    -0.564 -0.4513  0.8812 -0.1405
              Bcc     0.0315     4.231     1.510     1.411  0.8330  0.4725  0.2877
 
              Baa    -0.0160    -2.147    -0.766    -0.716  0.4424  0.0193  0.8966
     3 C(13)  Bbb    -0.0006    -0.082    -0.029    -0.027  0.6442  0.6887 -0.3327
              Bcc     0.0166     2.229     0.795     0.744 -0.6239  0.7248  0.2923
 
              Baa    -0.0063    -0.841    -0.300    -0.280  0.1198 -0.0127  0.9927
     4 C(13)  Bbb    -0.0045    -0.606    -0.216    -0.202 -0.4877  0.8702  0.0700
              Bcc     0.0108     1.447     0.516     0.483  0.8647  0.4926 -0.0980
 
              Baa    -0.5336   -71.599   -25.548   -23.883  0.2544  0.9174 -0.3061
     5 C(13)  Bbb    -0.5255   -70.512   -25.160   -23.520  0.4505  0.1677  0.8769
              Bcc     1.0590   142.110    50.709    47.403  0.8558 -0.3610 -0.3706
 
              Baa    -0.0045    -2.417    -0.862    -0.806 -0.1156 -0.0076  0.9933
     6 H(1)   Bbb    -0.0028    -1.510    -0.539    -0.504  0.8756 -0.4730  0.0983
              Bcc     0.0074     3.927     1.401     1.310  0.4690  0.8811  0.0613
 
              Baa    -0.0055    -2.948    -1.052    -0.984  0.7223  0.0114 -0.6915
     7 H(1)   Bbb    -0.0053    -2.840    -1.013    -0.947 -0.4123  0.8099 -0.4173
              Bcc     0.0108     5.788     2.065     1.931  0.5553  0.5864  0.5897
 
              Baa    -0.0114    -6.095    -2.175    -2.033  0.4408  0.0686  0.8950
     8 H(1)   Bbb    -0.0061    -3.264    -1.165    -1.089  0.8708  0.2089 -0.4450
              Bcc     0.0175     9.359     3.339     3.122 -0.2174  0.9755  0.0323
 
              Baa    -0.0098    -5.223    -1.864    -1.742  0.1506  0.6030  0.7834
     9 H(1)   Bbb    -0.0081    -4.299    -1.534    -1.434  0.9849 -0.1598 -0.0663
              Bcc     0.0178     9.523     3.398     3.176  0.0852  0.7815 -0.6180
 
              Baa    -0.0041    -2.173    -0.775    -0.725  0.1062  0.5421  0.8336
    10 H(1)   Bbb    -0.0032    -1.732    -0.618    -0.578 -0.6274  0.6869 -0.3668
              Bcc     0.0073     3.905     1.393     1.303  0.7714  0.4841 -0.4130
 
              Baa    -0.0024    -1.284    -0.458    -0.428 -0.0388 -0.0389  0.9985
    11 H(1)   Bbb    -0.0019    -1.014    -0.362    -0.338 -0.5226  0.8525  0.0129
              Bcc     0.0043     2.298     0.820     0.766  0.8517  0.5213  0.0534
 
              Baa    -0.0700   -37.363   -13.332   -12.463  0.4629  0.8535  0.2391
    12 H(1)   Bbb    -0.0041    -2.191    -0.782    -0.731  0.8783 -0.4054 -0.2534
              Bcc     0.0741    39.554    14.114    13.194  0.1194 -0.3274  0.9373
 
              Baa    -0.0708   -37.762   -13.474   -12.596  0.0269  0.7462 -0.6652
    13 H(1)   Bbb    -0.0037    -1.956    -0.698    -0.653  0.7840 -0.4286 -0.4490
              Bcc     0.0744    39.718    14.172    13.249  0.6201  0.5095  0.5966
 
              Baa    -0.0253   -13.492    -4.814    -4.500 -0.0521 -0.4314  0.9007
    14 H(1)   Bbb    -0.0134    -7.169    -2.558    -2.391 -0.1105  0.8988  0.4241
              Bcc     0.0387    20.661     7.372     6.892  0.9925  0.0774  0.0945
 

 ---------------------------------------------------------------------------------

 No NMR shielding tensors so no spin-rotation constants.
 Leave Link  601 at Sat Mar  9 13:28:11 2019, MaxMem=   671088640 cpu:              11.2 elap:               0.6
 (Enter /shared/centos7/gaussian/g16/l701.exe)
 ... and contract with generalized density number  0.
 Compute integral second derivatives.
 Leave Link  701 at Sat Mar  9 13:28:12 2019, MaxMem=   671088640 cpu:               8.0 elap:               0.4
 (Enter /shared/centos7/gaussian/g16/l702.exe)
 L702 exits ... SP integral derivatives will be done elsewhere.
 Leave Link  702 at Sat Mar  9 13:28:12 2019, MaxMem=   671088640 cpu:               0.4 elap:               0.0
 (Enter /shared/centos7/gaussian/g16/l703.exe)
 Integral derivatives from FoFJK, PRISM(SPDF).
 Compute integral second derivatives, UseDBF=F ICtDFT=           0.
 Calling FoFJK, ICntrl=    100147 FMM=F ISym2X=0 I1Cent= 0 IOpClX= 1 NMat=1 NMatS=1 NMatT=0.
 FoFJK:  IHMeth= 1 ICntrl=  100147 DoSepK=F KAlg= 0 I1Cent=           0 FoldK=F
 IRaf=         0 NMat=       1 IRICut=       1 DoRegI=T DoRafI=F ISym2E= 0 IDoP0=0 IntGTp=1.
 FoFCou: FMM=F IPFlag=           0 FMFlag=      100000 FMFlg1=         800
         NFxFlg=           0 DoJE=F BraDBF=F KetDBF=F FulRan=T
         wScrn=  0.000000 ICntrl=    100147 IOpCl=  1 I1Cent=           0 NGrid=           0
         NMat0=    1 NMatS0=      1 NMatT0=    0 NMatD0=    1 NMtDS0=    0 NMtDT0=    0
 Symmetry not used in FoFCou.
 Leave Link  703 at Sat Mar  9 13:30:14 2019, MaxMem=   671088640 cpu:            2432.0 elap:             121.6
 (Enter /shared/centos7/gaussian/g16/l716.exe)
 Dipole        = 6.85875562D-01-4.55295168D-01 2.26595216D-01
 Polarizability= 0.00000000D+00 0.00000000D+00 0.00000000D+00
                 0.00000000D+00 0.00000000D+00 0.00000000D+00
 ***** Axes restored to original set *****
 -------------------------------------------------------------------
 Center     Atomic                   Forces (Hartrees/Bohr)
 Number     Number              X              Y              Z
 -------------------------------------------------------------------
      1        8           0.000000303   -0.000000578    0.000000100
      2        6          -0.000000516    0.000000998    0.000000072
      3        6           0.000000036   -0.000000006   -0.000000078
      4        6          -0.000000098    0.000000523   -0.000000604
      5        6           0.000000438   -0.000001423    0.000000834
      6        1          -0.000000867    0.000002061   -0.000000527
      7        1          -0.000001020    0.000001149    0.000001187
      8        1          -0.000000345    0.000000506    0.000000190
      9        1           0.000000499   -0.000000036   -0.000001288
     10        1           0.000000417    0.000000478   -0.000001798
     11        1          -0.000000509    0.000001457   -0.000000602
     12        1           0.000000074   -0.000001477    0.000001878
     13        1           0.000001000   -0.000002253    0.000000396
     14        1           0.000000588   -0.000001398    0.000000241
 -------------------------------------------------------------------
 Cartesian Forces:  Max     0.000002253 RMS     0.000000943
 FormGI is forming the generalized inverse of G from B-inverse, IUseBI=4.
 Leave Link  716 at Sat Mar  9 13:30:14 2019, MaxMem=   671088640 cpu:               0.6 elap:               0.1
 (Enter /shared/centos7/gaussian/g16/l103.exe)

 GradGradGradGradGradGradGradGradGradGradGradGradGradGradGradGradGradGrad
 Berny optimization.
 Red2BG is reusing G-inverse.
 Internal  Forces:  Max     0.000000063 RMS     0.000000021
 Search for a local minimum.
 Step number   1 out of a maximum of   73 on scan point     1 out of    73
 All quantities printed in internal units (Hartrees-Bohrs-Radians)
 RMS Force = .21641D-07 SwitMx=.10000D-02 MixMth= 2
 Mixed Optimization -- En-DIIS/RFO-DIIS
 Second derivative matrix not updated -- analytic derivatives used.
 ITU=  0
     Eigenvalues ---    0.00197   0.00287   0.00439   0.01050   0.02251
     Eigenvalues ---    0.03726   0.03788   0.04213   0.04914   0.06055
     Eigenvalues ---    0.07006   0.07239   0.08318   0.10222   0.10502
     Eigenvalues ---    0.11048   0.12259   0.12698   0.17382   0.20006
     Eigenvalues ---    0.21508   0.23941   0.27609   0.30422   0.31950
     Eigenvalues ---    0.32425   0.33422   0.33517   0.33893   0.33990
     Eigenvalues ---    0.34939   0.36274   0.36727   0.40171   0.53072
     Eigenvalues --- 1000.000001000.000001000.000001000.000001000.00000
     Eigenvalues --- 1000.000001000.000001000.000001000.000001000.00000
     Eigenvalues --- 1000.000001000.000001000.000001000.000001000.00000
     Eigenvalues --- 1000.000001000.000001000.000001000.000001000.00000
     Eigenvalues --- 1000.000001000.000001000.000001000.000001000.00000
     Eigenvalues --- 1000.000001000.000001000.00000
 RFO step:  Lambda= 0.00000000D+00 EMin= 1.96520829D-03
 Linear search not attempted -- first point.
 Iteration  1 RMS(Cart)=  0.00000173 RMS(Int)=  0.00000000
 Iteration  2 RMS(Cart)=  0.00000000 RMS(Int)=  0.00000000
 Iteration  1 RMS(Cart)=  0.00000000 RMS(Int)=  0.00000000
 ITry= 1 IFail=0 DXMaxC= 8.23D-06 DCOld= 1.00D+10 DXMaxT= 3.00D-01 DXLimC= 3.00D+00 Rises=F
 Variable       Old X    -DE/DX   Delta X   Delta X   Delta X     New X
                                 (Linear)    (Quad)   (Total)
    R1        2.67001   0.00000   0.00000   0.00000   0.00000   2.67001
    R2        1.81774  -0.00000   0.00000  -0.00000  -0.00000   1.81774
    R3        2.89550   0.00000   0.00000   0.00000   0.00000   2.89550
    R4        2.87778   0.00000   0.00000   0.00000   0.00000   2.87778
    R5        2.06380  -0.00000   0.00000  -0.00000  -0.00000   2.06380
    R6        2.06517  -0.00000   0.00000  -0.00000  -0.00000   2.06517
    R7        2.81229   0.00000   0.00000   0.00000   0.00000   2.81229
    R8        2.07721  -0.00000   0.00000  -0.00000  -0.00000   2.07721
    R9        2.06636   0.00000   0.00000   0.00000   0.00000   2.06636
   R10        2.07347   0.00000   0.00000   0.00000   0.00000   2.07347
   R11        2.05903   0.00000   0.00000   0.00000   0.00000   2.05903
   R12        2.04396  -0.00000   0.00000  -0.00000  -0.00000   2.04396
   R13        2.04071   0.00000   0.00000   0.00000   0.00000   2.04071
    A1        1.89702   0.00000   0.00000   0.00000   0.00000   1.89702
    A2        1.98192  -0.00000   0.00000  -0.00000  -0.00000   1.98192
    A3        1.90104   0.00000   0.00000  -0.00000  -0.00000   1.90104
    A4        1.91792   0.00000   0.00000   0.00000   0.00000   1.91792
    A5        1.88985  -0.00000   0.00000  -0.00000  -0.00000   1.88985
    A6        1.89798  -0.00000   0.00000  -0.00000  -0.00000   1.89798
    A7        1.87182  -0.00000   0.00000  -0.00000  -0.00000   1.87182
    A8        1.99366   0.00000   0.00000   0.00000   0.00000   1.99366
    A9        1.88881   0.00000   0.00000   0.00000   0.00000   1.88881
   A10        1.91046  -0.00000   0.00000  -0.00000  -0.00000   1.91046
   A11        1.90324  -0.00000   0.00000   0.00000   0.00000   1.90324
   A12        1.92012  -0.00000   0.00000  -0.00000  -0.00000   1.92012
   A13        1.84107   0.00000   0.00000   0.00000   0.00000   1.84107
   A14        1.98446  -0.00000   0.00000   0.00000   0.00000   1.98446
   A15        1.93071  -0.00000   0.00000  -0.00000  -0.00000   1.93071
   A16        1.84332   0.00000   0.00000   0.00000   0.00000   1.84332
   A17        1.91145   0.00000   0.00000  -0.00000  -0.00000   1.91145
   A18        1.91553  -0.00000   0.00000  -0.00000  -0.00000   1.91553
   A19        1.87428  -0.00000   0.00000  -0.00000  -0.00000   1.87428
   A20        2.08659   0.00000   0.00000   0.00000   0.00000   2.08659
   A21        2.10752  -0.00000   0.00000   0.00000   0.00000   2.10752
   A22        2.05032  -0.00000   0.00000   0.00000   0.00000   2.05032
    D1       -1.01541   0.00000   0.00000   0.00000   0.00000  -1.01541
    D2        1.14382  -0.00000   0.00000   0.00000   0.00000   1.14382
    D3       -3.11664   0.00000   0.00000   0.00000   0.00000  -3.11663
    D4       -1.18068   0.00000   0.00000  -0.00000  -0.00000  -1.18068
    D5        2.97911  -0.00000   0.00000  -0.00000  -0.00000   2.97911
    D6        0.98098  -0.00000   0.00000  -0.00000  -0.00000   0.98098
    D7        2.99515   0.00000   0.00000  -0.00000  -0.00000   2.99515
    D8        0.87175   0.00000   0.00000  -0.00000  -0.00000   0.87175
    D9       -1.12637   0.00000   0.00000  -0.00000  -0.00000  -1.12637
   D10        0.94937  -0.00000   0.00000  -0.00000  -0.00000   0.94937
   D11       -1.17403  -0.00000   0.00000  -0.00000  -0.00000  -1.17403
   D12        3.11103  -0.00000   0.00000  -0.00000  -0.00000   3.11103
   D13       -2.72111   0.00000   0.00000   0.00000   0.00000  -2.72111
   D14        1.23732  -0.00000   0.00000   0.00000   0.00000   1.23732
   D15       -0.93233   0.00000   0.00000   0.00000   0.00000  -0.93233
   D16       -2.98582   0.00000   0.00000   0.00000   0.00000  -2.98582
   D17       -2.93223  -0.00000   0.00000   0.00000   0.00000  -2.93223
   D18        1.18130   0.00000   0.00000   0.00000   0.00000   1.18130
   D19       -0.87218   0.00000   0.00000   0.00000   0.00000  -0.87218
   D20       -0.90376  -0.00000   0.00000   0.00000   0.00000  -0.90376
   D21       -3.07342  -0.00000   0.00000   0.00000   0.00000  -3.07342
   D22        1.15628   0.00000   0.00000   0.00000   0.00000   1.15628
   D23       -0.74844  -0.00000   0.00000  -0.00000  -0.00000  -0.74845
   D24        2.69603  -0.00000   0.00000  -0.00001  -0.00001   2.69602
   D25        1.36700   0.00000   0.00000  -0.00000  -0.00000   1.36699
   D26       -1.47172  -0.00000   0.00000  -0.00001  -0.00001  -1.47172
   D27       -2.90490  -0.00000   0.00000  -0.00000  -0.00000  -2.90491
   D28        0.53957  -0.00000   0.00000  -0.00001  -0.00001   0.53956
         Item               Value     Threshold  Converged?
 Maximum Force            0.000000     0.000450     YES
 RMS     Force            0.000000     0.000300     YES
 Maximum Displacement     0.000008     0.001800     YES
 RMS     Displacement     0.000002     0.001200     YES
 Predicted change in Energy=-2.654560D-13
 Optimization completed.
    -- Stationary point found.
                           ----------------------------
                           !   Optimized Parameters   !
                           ! (Angstroms and Degrees)  !
 --------------------------                            --------------------------
 ! Name  Definition              Value          Derivative Info.                !
 --------------------------------------------------------------------------------
 ! R1    R(1,4)                  1.4129         -DE/DX =    0.0                 !
 ! R2    R(1,14)                 0.9619         -DE/DX =    0.0                 !
 ! R3    R(2,3)                  1.5322         -DE/DX =    0.0                 !
 ! R4    R(2,4)                  1.5229         -DE/DX =    0.0                 !
 ! R5    R(2,6)                  1.0921         -DE/DX =    0.0                 !
 ! R6    R(2,7)                  1.0928         -DE/DX =    0.0                 !
 ! R7    R(3,5)                  1.4882         -DE/DX =    0.0                 !
 ! R8    R(3,8)                  1.0992         -DE/DX =    0.0                 !
 ! R9    R(3,9)                  1.0935         -DE/DX =    0.0                 !
 ! R10   R(4,10)                 1.0972         -DE/DX =    0.0                 !
 ! R11   R(4,11)                 1.0896         -DE/DX =    0.0                 !
 ! R12   R(5,12)                 1.0816         -DE/DX =    0.0                 !
 ! R13   R(5,13)                 1.0799         -DE/DX =    0.0                 !
 ! A1    A(4,1,14)             108.6914         -DE/DX =    0.0                 !
 ! A2    A(3,2,4)              113.5559         -DE/DX =    0.0                 !
 ! A3    A(3,2,6)              108.9214         -DE/DX =    0.0                 !
 ! A4    A(3,2,7)              109.8888         -DE/DX =    0.0                 !
 ! A5    A(4,2,6)              108.2805         -DE/DX =    0.0                 !
 ! A6    A(4,2,7)              108.7464         -DE/DX =    0.0                 !
 ! A7    A(6,2,7)              107.2471         -DE/DX =    0.0                 !
 ! A8    A(2,3,5)              114.2282         -DE/DX =    0.0                 !
 ! A9    A(2,3,8)              108.2207         -DE/DX =    0.0                 !
 ! A10   A(2,3,9)              109.461          -DE/DX =    0.0                 !
 ! A11   A(5,3,8)              109.0477         -DE/DX =    0.0                 !
 ! A12   A(5,3,9)              110.0148         -DE/DX =    0.0                 !
 ! A13   A(8,3,9)              105.4856         -DE/DX =    0.0                 !
 ! A14   A(1,4,2)              113.7015         -DE/DX =    0.0                 !
 ! A15   A(1,4,10)             110.6216         -DE/DX =    0.0                 !
[...]
     14        1          -0.000000854    0.001041705   -0.000979690
 -------------------------------------------------------------------
 Cartesian Forces:  Max     0.003525707 RMS     0.000938088
 Leave Link  716 at Sat Mar  9 14:53:51 2019, MaxMem=   671088640 cpu:               0.4 elap:               0.0
 (Enter /shared/centos7/gaussian/g16/l103.exe)

 GradGradGradGradGradGradGradGradGradGradGradGradGradGradGradGradGradGrad
 Berny optimization.
 Using GEDIIS/GDIIS optimizer.
 FormGI is forming the generalized inverse of G from B-inverse, IUseBI=4.
 Internal  Forces:  Max     0.002803627 RMS     0.000641371
 Search for a local minimum.
 Step number   2 out of a maximum of   73 on scan point    16 out of    73
 All quantities printed in internal units (Hartrees-Bohrs-Radians)
 RMS Force = .29232D-03 SwitMx=.10000D-02 MixMth= 2
 Mixed Optimization -- En-DIIS/RFO-DIIS
 Update second derivatives using D2CorX and points    1    2
 DE= -2.38D-03 DEPred=-2.43D-03 R= 9.80D-01
 TightC=F SS=  1.41D+00  RLast= 2.85D-01 DXNew= 1.4655D+00 8.5521D-01
 Trust test= 9.80D-01 RLast= 2.85D-01 DXMaxT set to 8.71D-01
 ITU=  1  0
 Use linear search instead of GDIIS.
     Eigenvalues ---    0.00098   0.00245   0.00427   0.00895   0.02180
     Eigenvalues ---    0.03855   0.03938   0.04082   0.04936   0.06208
     Eigenvalues ---    0.06877   0.07399   0.08856   0.10268   0.10548
     Eigenvalues ---    0.10732   0.12303   0.13760   0.17217   0.20743
     Eigenvalues ---    0.22691   0.23672   0.28962   0.31547   0.31898
     Eigenvalues ---    0.32915   0.33462   0.33607   0.34012   0.34087
     Eigenvalues ---    0.34961   0.36275   0.37549   0.41802   0.53638
     Eigenvalues --- 1000.000001000.000001000.000001000.000001000.00000
     Eigenvalues --- 1000.000001000.000001000.000001000.000001000.00000
     Eigenvalues --- 1000.000001000.000001000.000001000.000001000.00000
     Eigenvalues --- 1000.000001000.000001000.000001000.000001000.00000
     Eigenvalues --- 1000.000001000.000001000.000001000.000001000.00000
     Eigenvalues --- 1000.000001000.000001000.00000
 RFO step:  Lambda=-2.98265065D-05 EMin= 9.78416077D-04
 Quartic linear search produced a step of  0.07515.
 Iteration  1 RMS(Cart)=  0.00539167 RMS(Int)=  0.00004790
 Iteration  2 RMS(Cart)=  0.00004664 RMS(Int)=  0.00002446
 Iteration  3 RMS(Cart)=  0.00000000 RMS(Int)=  0.00002446
 Iteration  1 RMS(Cart)=  0.00001770 RMS(Int)=  0.00001114
 Iteration  2 RMS(Cart)=  0.00001097 RMS(Int)=  0.00001239
 Iteration  3 RMS(Cart)=  0.00000680 RMS(Int)=  0.00001418
 Iteration  4 RMS(Cart)=  0.00000421 RMS(Int)=  0.00001555
 Iteration  5 RMS(Cart)=  0.00000261 RMS(Int)=  0.00001647
 Iteration  6 RMS(Cart)=  0.00000162 RMS(Int)=  0.00001707
 Iteration  7 RMS(Cart)=  0.00000100 RMS(Int)=  0.00001745
 Iteration  8 RMS(Cart)=  0.00000062 RMS(Int)=  0.00001768
 ITry= 1 IFail=0 DXMaxC= 1.90D-02 DCOld= 1.00D+10 DXMaxT= 8.71D-01 DXLimC= 3.00D+00 Rises=F
 Variable       Old X    -DE/DX   Delta X   Delta X   Delta X     New X
                                 (Linear)    (Quad)   (Total)
    R1        2.68007  -0.00179  -0.00183  -0.00170  -0.00356   2.67651
    R2        1.81253  -0.00006  -0.00069   0.00102   0.00032   1.81285
    R3        2.89859  -0.00032   0.00021  -0.00069  -0.00048   2.89812
    R4        2.87415   0.00067   0.00230  -0.00142   0.00092   2.87506
    R5        2.06509  -0.00013  -0.00006  -0.00028  -0.00034   2.06475
    R6        2.06245  -0.00006   0.00001  -0.00014  -0.00013   2.06232
    R7        2.81340   0.00001   0.00013  -0.00119  -0.00106   2.81233
    R8        2.06949  -0.00007  -0.00001  -0.00005  -0.00005   2.06943
    R9        2.07296   0.00002  -0.00010   0.00049   0.00039   2.07335
   R10        2.07179   0.00008   0.00001   0.00065   0.00066   2.07245
   R11        2.05771  -0.00010  -0.00001  -0.00021  -0.00022   2.05749
   R12        2.03995  -0.00031   0.00005  -0.00095  -0.00090   2.03905
   R13        2.04228   0.00011  -0.00005   0.00028   0.00023   2.04251
    A1        1.91667  -0.00153  -0.00308  -0.00321  -0.00633   1.91034
    A2        1.96235   0.00077   0.00144   0.00150   0.00295   1.96530
    A3        1.89809   0.00015   0.00094  -0.00031   0.00066   1.89876
    A4        1.93637  -0.00086  -0.00145  -0.00363  -0.00514   1.93123
    A5        1.91436  -0.00084  -0.00285  -0.00099  -0.00388   1.91049
    A6        1.87936   0.00058   0.00172   0.00294   0.00471   1.88407
    A7        1.87113   0.00017   0.00006   0.00046   0.00054   1.87167
    A8        1.95980   0.00008   0.00080   0.00087   0.00168   1.96147
    A9        1.93243  -0.00065  -0.00058  -0.00443  -0.00507   1.92736
   A10        1.91055  -0.00006  -0.00071  -0.00007  -0.00081   1.90974
   A11        1.88506   0.00107   0.00175   0.00595   0.00774   1.89280
   A12        1.92461   0.00005   0.00024   0.00118   0.00143   1.92604
   A13        1.84805  -0.00053  -0.00156  -0.00371  -0.00534   1.84272
   A14        1.95775   0.00137   0.00613  -0.00226   0.00398   1.96173
   A15        1.93779  -0.00111  -0.00346  -0.00163  -0.00515   1.93265
   A16        1.83770  -0.00022  -0.00060   0.00154   0.00094   1.83864
   A17        1.91894   0.00013  -0.00081   0.00061  -0.00018   1.91875
   A18        1.92695  -0.00033  -0.00211   0.00216   0.00000   1.92695
   A19        1.88186   0.00011   0.00064  -0.00029   0.00032   1.88218
   A20        2.11890  -0.00016   0.00001  -0.00061  -0.00060   2.11830
   A21        2.09317   0.00016  -0.00002   0.00050   0.00048   2.09365
   A22        2.05512  -0.00001   0.00004   0.00024   0.00028   2.05540
    D1       -0.95824  -0.00028   0.00566   0.01640   0.02208  -0.93615
    D2        1.19650   0.00006   0.00665   0.01433   0.02091   1.21742
    D3       -3.05465  -0.00049   0.00526   0.01405   0.01927  -3.03538
    D4        1.34873  -0.00033   0.00338   0.00185   0.00520   1.35393
    D5       -0.75984  -0.00131   0.00103  -0.00324  -0.00228  -0.76212
    D6       -2.79080  -0.00026   0.00373   0.00390   0.00760  -2.78320
    D7       -0.77482   0.00012   0.00538   0.00234   0.00771  -0.76711
    D8       -2.88339  -0.00085   0.00303  -0.00275   0.00023  -2.88316
    D9        1.36884   0.00020   0.00573   0.00439   0.01011   1.37895
   D10       -2.82866   0.00033   0.00557   0.00408   0.00964  -2.81902
   D11        1.34595  -0.00064   0.00321  -0.00100   0.00216   1.34811
   D12       -0.68501   0.00041   0.00591   0.00614   0.01204  -0.67297
   D13       -0.10311  -0.00280   0.00000   0.00000  -0.00000  -0.10311
   D14        1.30916  -0.00049   0.00213  -0.00471  -0.00257   1.30659
   D15       -0.85612  -0.00012   0.00283  -0.00144   0.00139  -0.85472
   D16       -2.93032  -0.00013   0.00390  -0.00280   0.00111  -2.92922
   D17       -2.85976  -0.00037   0.00234  -0.00480  -0.00247  -2.86224
   D18        1.25814  -0.00000   0.00303  -0.00152   0.00149   1.25963
   D19       -0.81607  -0.00001   0.00410  -0.00289   0.00120  -0.81486
   D20       -0.82913  -0.00030   0.00189  -0.00314  -0.00128  -0.83041
   D21       -2.99441   0.00007   0.00259   0.00013   0.00268  -2.99173
   D22        1.21457   0.00007   0.00366  -0.00123   0.00239   1.21696
   D23       -2.66909   0.00002  -0.00027   0.00294   0.00264  -2.66645
   D24        0.66804   0.00003  -0.00046   0.00213   0.00165   0.66969
   D25       -0.53345  -0.00000   0.00067   0.00203   0.00272  -0.53072
   D26        2.80368   0.00001   0.00049   0.00122   0.00173   2.80541
   D27        1.47838  -0.00000  -0.00008   0.00157   0.00149   1.47987
   D28       -1.46767   0.00001  -0.00027   0.00076   0.00049  -1.46718
         Item               Value     Threshold  Converged?
 Maximum Force            0.001371     0.000450     NO 
 RMS     Force            0.000292     0.000300     YES
 Maximum Displacement     0.019008     0.001800     NO 
 RMS     Displacement     0.005389     0.001200     NO 
 Predicted change in Energy=-2.613651D-05
 Lowest energy point so far.  Saving SCF results.
 GradGradGradGradGradGradGradGradGradGradGradGradGradGradGradGradGradGrad

 Leave Link  103 at Sat Mar  9 14:53:51 2019, MaxMem=   671088640 cpu:               0.8 elap:               0.1
 (Enter /shared/centos7/gaussian/g16/l202.exe)
                          Input orientation:                          
 ---------------------------------------------------------------------
 Center     Atomic      Atomic             Coordinates (Angstroms)
 Number     Number       Type             X           Y           Z
 ---------------------------------------------------------------------
      1          8           0        1.064361   -2.203281    0.149859
      2          6           0        2.098241   -0.190821    1.068592
      3          6           0        3.538343   -0.336111    0.561659
      4          6           0        1.078061   -0.787548    0.110539
      5          6           0        3.869332    0.656123   -0.496984
      6          1           0        1.882315    0.870077    1.215866
      7          1           0        1.979176   -0.682390    2.035642
      8          1           0        3.702033   -1.340943    0.158228
      9          1           0        4.233413   -0.240389    1.405162
     10          1           0        1.267783   -0.429284   -0.908473
     11          1           0        0.071038   -0.481778    0.389558
     12          1           0        4.620021    0.450768   -1.244369
     13          1           0        3.491933    1.666501   -0.426717
     14          1           0        1.952575   -2.535547    0.005057
 ---------------------------------------------------------------------
                    Distance matrix (angstroms):
                    1          2          3          4          5
     1  O    0.000000
     2  C    2.441920   0.000000
     3  C    3.126739   1.533619   0.000000
     4  C    1.416346   1.521419   2.541711   0.000000
     5  C    4.057396   2.510997   1.488223   3.200698   0.000000
     6  H    3.354243   1.092620   2.150652   2.148555   2.632085
     7  H    2.589628   1.091331   2.173370   2.128165   3.431983
     8  H    2.775069   2.173405   1.095097   2.682116   2.108451
     9  H    3.933399   2.162105   1.097170   3.454227   2.134116
    10  H    2.075696   2.157617   2.706550   1.096693   2.848769
    11  H    2.001928   2.157613   3.474628   1.088779   4.062981
    12  H    4.650868   3.481494   2.247430   3.989321   1.079021
    13  H    4.604429   2.761879   2.233718   3.483932   1.080848
    14  H    0.959319   2.578772   2.768030   1.957397   3.756695
                    6          7          8          9         10
     6  H    0.000000
     7  H    1.758286   0.000000
     8  H    3.052635   2.631845   0.000000
     9  H    2.607035   2.382112   1.745975   0.000000
    10  H    2.564918   3.039401   2.809723   3.766106   0.000000
    11  H    2.406454   2.528009   3.738422   4.291280   1.766307
    12  H    3.704539   4.360800   2.453612   2.765353   3.482071
    13  H    2.433772   3.724103   3.070998   2.746235   3.093743
    14  H    3.615145   2.749213   2.123945   3.525659   2.395793
                   11         12         13         14
    11  H    0.000000
    12  H    4.922662   0.000000
    13  H    4.121157   1.849093   0.000000
    14  H    2.811759   4.194569   4.495917   0.000000
 Stoichiometry    C4H9O(2)
 Framework group  C1[X(C4H9O)]
 Deg. of freedom    36
 Full point group                 C1      NOp   1
 RotChk:  IX=1 Diff= 9.15D-03
 Largest Abelian subgroup         C1      NOp   1
 Largest concise Abelian subgroup C1      NOp   1
                         Standard orientation:                         
 ---------------------------------------------------------------------
 Center     Atomic      Atomic             Coordinates (Angstroms)
 Number     Number       Type             X           Y           Z
 ---------------------------------------------------------------------
      1          8           0       -1.955966    0.602095   -0.064960
      2          6           0       -0.005656   -0.831919   -0.385690
      3          6           0        1.096561    0.209157   -0.616482
      4          6           0       -1.092641   -0.333938    0.555157
      5          6           0        2.046108    0.292082    0.526449
      6          1           0        0.446117   -1.737250    0.026735
      7          1           0       -0.478459   -1.107642   -1.329850
      8          1           0        0.658912    1.200237   -0.776052
      9          1           0        1.634303   -0.028155   -1.542927
     10          1           0       -0.639096    0.094461    1.457103
     11          1           0       -1.734445   -1.157617    0.863511
     12          1           0        2.584535    1.201379    0.744536
     13          1           0        2.345753   -0.607356    1.045542
     14          1           0       -1.436129    1.312896   -0.445521
 ---------------------------------------------------------------------
 Rotational constants (GHZ):           9.9921716           2.7418262           2.6722918
 Leave Link  202 at Sat Mar  9 14:53:51 2019, MaxMem=   671088640 cpu:               0.2 elap:               0.0
 (Enter /shared/centos7/gaussian/g16/l301.exe)
 Standard basis: 6-311+G(2df,2p) (5D, 7F)
 Ernie: Thresh=  0.10000D-02 Tol=  0.10000D-05 Strict=F.
 There are   276 symmetry adapted cartesian basis functions of A   symmetry.
 There are   251 symmetry adapted basis functions of A   symmetry.
   251 basis functions,   359 primitive gaussians,   276 cartesian basis functions
    21 alpha electrons       20 beta electrons
       nuclear repulsion energy       181.8701775443 Hartrees.
 IExCor= 4336 DFT=T Ex+Corr=M062X ExCW=0 ScaHFX=  0.540000
 ScaDFX=  1.000000  1.000000  1.000000  1.000000 ScalE2=  1.000000  1.000000
 IRadAn=      5 IRanWt=     -1 IRanGd=            0 ICorTp=0 IEmpDi=  4
 NAtoms=   14 NActive=   14 NUniq=   14 SFac= 1.00D+00 NAtFMM=   60 NAOKFM=F Big=F
 Integral buffers will be    131072 words long.
 Raffenetti 2 integral format.
 Two-electron integral symmetry is turned on.
 Leave Link  301 at Sat Mar  9 14:53:51 2019, MaxMem=   671088640 cpu:               1.3 elap:               0.1
 (Enter /shared/centos7/gaussian/g16/l302.exe)
 NPDir=0 NMtPBC=     1 NCelOv=     1 NCel=       1 NClECP=     1 NCelD=      1
         NCelK=      1 NCelE2=     1 NClLst=     1 CellRange=     0.0.
 One-electron integrals computed using PRISM.
 One-electron integral symmetry used in STVInt
 NBasis=   251 RedAO= T EigKep=  5.11D-05  NBF=   251
 NBsUse=   251 1.00D-06 EigRej= -1.00D+00 NBFU=   251
 Precomputing XC quadrature grid using
 IXCGrd= 4 IRadAn=           5 IRanWt=          -1 IRanGd=           0 AccXCQ= 0.00D+00.
 Generated NRdTot=       0 NPtTot=           0 NUsed=           0 NTot=          32
 NSgBfM=   276   276   276   276   276 MxSgAt=    14 MxSgA2=    14.
 Leave Link  302 at Sat Mar  9 14:53:51 2019, MaxMem=   671088640 cpu:               6.0 elap:               0.3
 (Enter /shared/centos7/gaussian/g16/l303.exe)
 DipDrv:  MaxL=1.
 Leave Link  303 at Sat Mar  9 14:53:51 2019, MaxMem=   671088640 cpu:               0.8 elap:               0.1
 (Enter /shared/centos7/gaussian/g16/l401.exe)
 Initial guess from the checkpoint file:  "/scratch/underkoffler.c/gaussian_scratch/Gau-25065.chk"
 B after Tr=    -0.000000   -0.000000    0.000000
         Rot=    0.999993   -0.003601    0.000172   -0.000081 Ang=  -0.41 deg.
 Guess basis will be translated and rotated to current coordinates.
 JPrj=2 DoOrth=T DoCkMO=T.
 Initial guess <Sx>= 0.0000 <Sy>= 0.0000 <Sz>= 0.5000 <S**2>= 0.7552 S= 0.5026
 Leave Link  401 at Sat Mar  9 14:53:51 2019, MaxMem=   671088640 cpu:               4.8 elap:               0.3
 (Enter /shared/centos7/gaussian/g16/l502.exe)
 Integral symmetry usage will be decided dynamically.
 UHF open shell SCF:
 Using DIIS extrapolation, IDIIS=  1040.
 NGot=   671088640 LenX=   670928170 LenY=   670851553
 Requested convergence on RMS density matrix=1.00D-08 within 128 cycles.
 Requested convergence on MAX density matrix=1.00D-06.
 Requested convergence on             energy=1.00D-06.
 No special actions if energy rises.
 Fock matrices will be formed incrementally for  20 cycles.

 Cycle   1  Pass 1  IDiag  1:
 FoFJK:  IHMeth= 1 ICntrl=       0 DoSepK=F KAlg= 0 I1Cent=           0 FoldK=F
 IRaf= 980000000 NMat=       1 IRICut=       1 DoRegI=T DoRafI=F ISym2E= 0 IDoP0=0 IntGTp=1.
 FoFCou: FMM=F IPFlag=           0 FMFlag=      100000 FMFlg1=           0
         NFxFlg=           0 DoJE=F BraDBF=F KetDBF=F FulRan=T
         wScrn=  0.000000 ICntrl=         0 IOpCl=  1 I1Cent=           0 NGrid=           0
         NMat0=    1 NMatS0=      1 NMatT0=    0 NMatD0=    1 NMtDS0=    0 NMtDT0=    0
 Symmetry not used in FoFCou.
 E= -232.961674703718    
 DIIS: error= 2.88D-04 at cycle   1 NSaved=   1.
 NSaved= 1 IEnMin= 1 EnMin= -232.961674703718     IErMin= 1 ErrMin= 2.88D-04
 ErrMax= 2.88D-04  0.00D+00 EMaxC= 1.00D-01 BMatC= 2.10D-04 BMatP= 2.10D-04
 IDIUse=3 WtCom= 9.97D-01 WtEn= 2.88D-03
 Coeff-Com:  0.100D+01
 Coeff-En:   0.100D+01
 Coeff:      0.100D+01
 Gap=     0.540 Goal=   None    Shift=    0.000
 Gap=     0.608 Goal=   None    Shift=    0.000
 RMSDP=6.73D-05 MaxDP=2.80D-03              OVMax= 2.62D-03

 Cycle   2  Pass 1  IDiag  1:
 RMSU=  6.73D-05    CP:  1.00D+00
 E= -232.961732726096     Delta-E=       -0.000058022377 Rises=F Damp=F
 DIIS: error= 4.82D-05 at cycle   2 NSaved=   2.
 NSaved= 2 IEnMin= 2 EnMin= -232.961732726096     IErMin= 2 ErrMin= 4.82D-05
 ErrMax= 4.82D-05  0.00D+00 EMaxC= 1.00D-01 BMatC= 5.39D-06 BMatP= 2.10D-04
 IDIUse=1 WtCom= 1.00D+00 WtEn= 0.00D+00
 Coeff-Com: -0.121D+00 0.112D+01
 Coeff:     -0.121D+00 0.112D+01
 Gap=     0.281 Goal=   None    Shift=    0.000
 Gap=     0.317 Goal=   None    Shift=    0.000
 RMSDP=1.32D-05 MaxDP=5.59D-04 DE=-5.80D-05 OVMax= 7.71D-04

 Cycle   3  Pass 1  IDiag  1:
 RMSU=  6.68D-06    CP:  1.00D+00  1.17D+00
 E= -232.961735342526     Delta-E=       -0.000002616431 Rises=F Damp=F
 DIIS: error= 1.67D-05 at cycle   3 NSaved=   3.
 NSaved= 3 IEnMin= 3 EnMin= -232.961735342526     IErMin= 3 ErrMin= 1.67D-05
 ErrMax= 1.67D-05  0.00D+00 EMaxC= 1.00D-01 BMatC= 4.45D-07 BMatP= 5.39D-06
 IDIUse=1 WtCom= 1.00D+00 WtEn= 0.00D+00
 Coeff-Com: -0.291D-01 0.152D+00 0.877D+00
 Coeff:     -0.291D-01 0.152D+00 0.877D+00
 Gap=     0.281 Goal=   None    Shift=    0.000
 Gap=     0.317 Goal=   None    Shift=    0.000
 RMSDP=2.28D-06 MaxDP=6.68D-05 DE=-2.62D-06 OVMax= 1.72D-04

 Cycle   4  Pass 1  IDiag  1:
 RMSU=  1.96D-06    CP:  1.00D+00  1.18D+00  1.13D+00
 E= -232.961735491250     Delta-E=       -0.000000148724 Rises=F Damp=F
 DIIS: error= 8.41D-06 at cycle   4 NSaved=   4.
 NSaved= 4 IEnMin= 4 EnMin= -232.961735491250     IErMin= 4 ErrMin= 8.41D-06
 ErrMax= 8.41D-06  0.00D+00 EMaxC= 1.00D-01 BMatC= 1.68D-07 BMatP= 4.45D-07
 IDIUse=1 WtCom= 1.00D+00 WtEn= 0.00D+00
 Coeff-Com:  0.245D-02-0.743D-01 0.358D+00 0.714D+00
 Coeff:      0.245D-02-0.743D-01 0.358D+00 0.714D+00
 Gap=     0.281 Goal=   None    Shift=    0.000
 Gap=     0.317 Goal=   None    Shift=    0.000
 RMSDP=1.38D-06 MaxDP=7.90D-05 DE=-1.49D-07 OVMax= 8.04D-05

 Cycle   5  Pass 1  IDiag  1:
 RMSU=  9.72D-07    CP:  1.00D+00  1.19D+00  1.25D+00  9.62D-01
 E= -232.961735538972     Delta-E=       -0.000000047722 Rises=F Damp=F
 DIIS: error= 4.18D-06 at cycle   5 NSaved=   5.
 NSaved= 5 IEnMin= 5 EnMin= -232.961735538972     IErMin= 5 ErrMin= 4.18D-06
 ErrMax= 4.18D-06  0.00D+00 EMaxC= 1.00D-01 BMatC= 1.66D-08 BMatP= 1.68D-07
 IDIUse=1 WtCom= 1.00D+00 WtEn= 0.00D+00
 Coeff-Com:  0.434D-02-0.466D-01 0.165D-01 0.246D+00 0.780D+00
 Coeff:      0.434D-02-0.466D-01 0.165D-01 0.246D+00 0.780D+00
 Gap=     0.281 Goal=   None    Shift=    0.000
 Gap=     0.317 Goal=   None    Shift=    0.000
 RMSDP=5.46D-07 MaxDP=2.89D-05 DE=-4.77D-08 OVMax= 3.79D-05

 Cycle   6  Pass 1  IDiag  1:
 RMSU=  4.15D-07    CP:  1.00D+00  1.19D+00  1.29D+00  1.07D+00  1.04D+00
