 Entering Gaussian System, Link 0=g16
 Input=SXIFAEWFOJETOA-UHFFFAOYSA-N_72by10.0_tor03_a1.com
 Output=SXIFAEWFOJETOA-UHFFFAOYSA-N_72by10.0_tor03_a1.log
 Initial command:
 /shared/centos7/gaussian/g16/l1.exe "/scratch/underkoffler.c/gaussian_scratch/Gau-655.inp" -scrdir="/scratch/underkoffler.c/gaussian_scratch/"
 Entering Link 1 = /shared/centos7/gaussian/g16/l1.exe PID=       656.
  
 Copyright (c) 1988,1990,1992,1993,1995,1998,2003,2009,2016,
            Gaussian, Inc.  All Rights Reserved.
  
 This is part of the Gaussian(R) 16 program.  It is based on
 the Gaussian(R) 09 system (copyright 2009, Gaussian, Inc.),
 the Gaussian(R) 03 system (copyright 2003, Gaussian, Inc.),
 the Gaussian(R) 98 system (copyright 1998, Gaussian, Inc.),
 the Gaussian(R) 94 system (copyright 1995, Gaussian, Inc.),
 the Gaussian 92(TM) system (copyright 1992, Gaussian, Inc.),
 the Gaussian 90(TM) system (copyright 1990, Gaussian, Inc.),
 the Gaussian 88(TM) system (copyright 1988, Gaussian, Inc.),
 the Gaussian 86(TM) system (copyright 1986, Carnegie Mellon
 University), and the Gaussian 82(TM) system (copyright 1983,
 Carnegie Mellon University). Gaussian is a federally registered
 trademark of Gaussian, Inc.
  
 This software contains proprietary and confidential information,
 including trade secrets, belonging to Gaussian, Inc.
  
 This software is provided under written license and may be
 used, copied, transmitted, or stored only in accord with that
 written license.
  
 The following legend is applicable only to US Government
 contracts under FAR:
  
                    RESTRICTED RIGHTS LEGEND
  
 Use, reproduction and disclosure by the US Government is
 subject to restrictions as set forth in subparagraphs (a)
 and (c) of the Commercial Computer Software - Restricted
 Rights clause in FAR 52.227-19.
  
 Gaussian, Inc.
 340 Quinnipiac St., Bldg. 40, Wallingford CT 06492
  
  
 ---------------------------------------------------------------
 Warning -- This program may not be used in any manner that
 competes with the business of Gaussian, Inc. or will provide
 assistance to any competitor of Gaussian, Inc.  The licensee
 of this program is prohibited from giving any competitor of
 Gaussian, Inc. access to this program.  By using this program,
 the user acknowledges that Gaussian, Inc. is engaged in the
 business of creating and licensing software in the field of
 computational chemistry and represents and warrants to the
 licensee that it is not a competitor of Gaussian, Inc. and that
 it will not use this program in any manner prohibited above.
 ---------------------------------------------------------------
  

 Cite this work as:
 Gaussian 16, Revision A.03,
 M. J. Frisch, G. W. Trucks, H. B. Schlegel, G. E. Scuseria, 
 M. A. Robb, J. R. Cheeseman, G. Scalmani, V. Barone, 
 G. A. Petersson, H. Nakatsuji, X. Li, M. Caricato, A. V. Marenich, 
 J. Bloino, B. G. Janesko, R. Gomperts, B. Mennucci, H. P. Hratchian, 
 J. V. Ortiz, A. F. Izmaylov, J. L. Sonnenberg, D. Williams-Young, 
 F. Ding, F. Lipparini, F. Egidi, J. Goings, B. Peng, A. Petrone, 
 T. Henderson, D. Ranasinghe, V. G. Zakrzewski, J. Gao, N. Rega, 
 G. Zheng, W. Liang, M. Hada, M. Ehara, K. Toyota, R. Fukuda, 
 J. Hasegawa, M. Ishida, T. Nakajima, Y. Honda, O. Kitao, H. Nakai, 
 T. Vreven, K. Throssell, J. A. Montgomery, Jr., J. E. Peralta, 
 F. Ogliaro, M. J. Bearpark, J. J. Heyd, E. N. Brothers, K. N. Kudin, 
 V. N. Staroverov, T. A. Keith, R. Kobayashi, J. Normand, 
 K. Raghavachari, A. P. Rendell, J. C. Burant, S. S. Iyengar, 
 J. Tomasi, M. Cossi, J. M. Millam, M. Klene, C. Adamo, R. Cammi, 
 J. W. Ochterski, R. L. Martin, K. Morokuma, O. Farkas, 
 J. B. Foresman, and D. J. Fox, Gaussian, Inc., Wallingford CT, 2016.
 
 ******************************************
 Gaussian 16:  EM64L-G16RevA.03 25-Dec-2016
                 9-Mar-2019 
 ******************************************
 %nprocshared=20
 Will use up to   20 processors via shared memory.
 %mem=5GB
 ----------------------------------------------
 #p m062x/6-311+g(2df,2p) Opt=(CalcFC,ModRedun)
 ----------------------------------------------
 1/10=4,18=120,19=15,26=3,38=1/1,3;
 2/9=110,12=2,17=6,18=5,40=1/2;
 3/5=4,6=6,7=214,11=2,25=1,30=1,71=2,74=-55,140=1/1,2,3;
 4//1;
 5/5=2,38=5/2;
 8/6=4,10=90,11=11/1;
 11/6=1,8=1,9=11,15=111,16=1/1,2,10;
 10/6=1,13=1/2;
 6/7=2,8=2,9=2,10=2,28=1/1;
 7/10=1,18=20,25=1/1,2,3,16;
 1/10=4,18=20,19=15,26=3/3(2);
 2/9=110/2;
 99//99;
 2/9=110/2;
 3/5=4,6=6,7=214,11=2,25=1,30=1,71=1,74=-55/1,2,3;
 4/5=5,16=3,69=1/1;
 5/5=2,38=5/2;
 7//1,2,3,16;
 1/18=20,19=15,26=3/3(-5);
 2/9=110/2;
 6/7=2,8=2,9=2,10=2,19=2,28=1/1;
 99/9=1/99;
 Leave Link    1 at Sat Mar  9 13:21:35 2019, MaxMem=   671088640 cpu:              35.4 elap:               1.9
 (Enter /shared/centos7/gaussian/g16/l101.exe)
 ----------------------------------------
 Gaussian Input Prepared from Scan Object
 ----------------------------------------
 Symbolic Z-matrix:
 Charge =  0 Multiplicity = 2
 O                     1.09947  -1.28235  -0.84103 
 C                     2.21593  -0.56983   1.23046 
 C                     3.41571   0.18892   0.65376 
 C                     0.97995  -0.51954   0.34225 
 C                     3.99159  -0.42225  -0.57488 
 H                     1.9582   -0.13996   2.20077 
 H                     2.48408  -1.61556   1.40027 
 H                     4.19444   0.23999   1.42787 
 H                     3.13066   1.22618   0.45751 
 H                     0.74041   0.52488   0.10619 
 H                     0.12623  -0.93695   0.87529 
 H                     4.12166  -1.49477  -0.62659 
 H                     4.53141   0.18015  -1.29034 
 H                     1.85888  -0.96353  -1.33793 
 
 The following ModRedundant input section has been read:
 B       2       7 B                                                           
 B       3       5 B                                                           
 B       2       4 B                                                           
 B       2       3 B                                                           
 B       3       8 B                                                           
 B       2       6 B                                                           
 B       4      10 B                                                           
 B       3       9 B                                                           
 B       5      12 B                                                           
 B       4      11 B                                                           
 B       5      13 B                                                           
 B       1      14 B                                                           
 B       1       4 B                                                           
 D      14       1       4      11 S  72 10.000                                
 
 ITRead=  0  0  0  0  0  0  0  0  0  0  0  0  0  0
 MicOpt= -1 -1 -1 -1 -1 -1 -1 -1 -1 -1 -1 -1 -1 -1
 NAtoms=     14 NQM=       14 NQMF=       0 NMMI=      0 NMMIF=      0
                NMic=       0 NMicF=      0.
                    Isotopes and Nuclear Properties:
 (Nuclear quadrupole moments (NQMom) in fm**2, nuclear magnetic moments (NMagM)
  in nuclear magnetons)

  Atom         1           2           3           4           5           6           7           8           9          10
 IAtWgt=          16          12          12          12          12           1           1           1           1           1
 AtmWgt=  15.9949146  12.0000000  12.0000000  12.0000000  12.0000000   1.0078250   1.0078250   1.0078250   1.0078250   1.0078250
 NucSpn=           0           0           0           0           0           1           1           1           1           1
 AtZEff=  -0.0000000  -0.0000000  -0.0000000  -0.0000000  -0.0000000  -0.0000000  -0.0000000  -0.0000000  -0.0000000  -0.0000000
 NQMom=    0.0000000   0.0000000   0.0000000   0.0000000   0.0000000   0.0000000   0.0000000   0.0000000   0.0000000   0.0000000
 NMagM=    0.0000000   0.0000000   0.0000000   0.0000000   0.0000000   2.7928460   2.7928460   2.7928460   2.7928460   2.7928460
 AtZNuc=   8.0000000   6.0000000   6.0000000   6.0000000   6.0000000   1.0000000   1.0000000   1.0000000   1.0000000   1.0000000

  Atom        11          12          13          14
 IAtWgt=           1           1           1           1
 AtmWgt=   1.0078250   1.0078250   1.0078250   1.0078250
 NucSpn=           1           1           1           1
 AtZEff=  -0.0000000  -0.0000000  -0.0000000  -0.0000000
 NQMom=    0.0000000   0.0000000   0.0000000   0.0000000
 NMagM=    2.7928460   2.7928460   2.7928460   2.7928460
 AtZNuc=   1.0000000   1.0000000   1.0000000   1.0000000
 Leave Link  101 at Sat Mar  9 13:21:35 2019, MaxMem=   671088640 cpu:               6.3 elap:               0.4
 (Enter /shared/centos7/gaussian/g16/l103.exe)

 GradGradGradGradGradGradGradGradGradGradGradGradGradGradGradGradGradGrad
 Berny optimization.
 Initialization pass.
                           ----------------------------
                           !    Initial Parameters    !
                           ! (Angstroms and Degrees)  !
 --------------------------                            --------------------------
 ! Name  Definition              Value          Derivative Info.                !
 --------------------------------------------------------------------------------
 ! R1    R(1,4)                  1.4129         calculate D2E/DX2 analytically  !
 ! R2    R(1,14)                 0.9619         calculate D2E/DX2 analytically  !
 ! R3    R(2,3)                  1.5322         calculate D2E/DX2 analytically  !
 ! R4    R(2,4)                  1.5229         calculate D2E/DX2 analytically  !
 ! R5    R(2,6)                  1.0921         calculate D2E/DX2 analytically  !
 ! R6    R(2,7)                  1.0928         calculate D2E/DX2 analytically  !
 ! R7    R(3,5)                  1.4882         calculate D2E/DX2 analytically  !
 ! R8    R(3,8)                  1.0992         calculate D2E/DX2 analytically  !
 ! R9    R(3,9)                  1.0935         calculate D2E/DX2 analytically  !
 ! R10   R(4,10)                 1.0972         calculate D2E/DX2 analytically  !
 ! R11   R(4,11)                 1.0896         calculate D2E/DX2 analytically  !
 ! R12   R(5,12)                 1.0816         calculate D2E/DX2 analytically  !
 ! R13   R(5,13)                 1.0799         calculate D2E/DX2 analytically  !
 ! A1    A(4,1,14)             108.6914         calculate D2E/DX2 analytically  !
 ! A2    A(3,2,4)              113.5559         calculate D2E/DX2 analytically  !
 ! A3    A(3,2,6)              108.9214         calculate D2E/DX2 analytically  !
 ! A4    A(3,2,7)              109.8888         calculate D2E/DX2 analytically  !
 ! A5    A(4,2,6)              108.2805         calculate D2E/DX2 analytically  !
 ! A6    A(4,2,7)              108.7464         calculate D2E/DX2 analytically  !
 ! A7    A(6,2,7)              107.2471         calculate D2E/DX2 analytically  !
 ! A8    A(2,3,5)              114.2282         calculate D2E/DX2 analytically  !
 ! A9    A(2,3,8)              108.2207         calculate D2E/DX2 analytically  !
 ! A10   A(2,3,9)              109.461          calculate D2E/DX2 analytically  !
 ! A11   A(5,3,8)              109.0477         calculate D2E/DX2 analytically  !
 ! A12   A(5,3,9)              110.0148         calculate D2E/DX2 analytically  !
 ! A13   A(8,3,9)              105.4856         calculate D2E/DX2 analytically  !
 ! A14   A(1,4,2)              113.7015         calculate D2E/DX2 analytically  !
 ! A15   A(1,4,10)             110.6216         calculate D2E/DX2 analytically  !
 ! A16   A(1,4,11)             105.6142         calculate D2E/DX2 analytically  !
 ! A17   A(2,4,10)             109.5181         calculate D2E/DX2 analytically  !
 ! A18   A(2,4,11)             109.7516         calculate D2E/DX2 analytically  !
 ! A19   A(10,4,11)            107.3882         calculate D2E/DX2 analytically  !
 ! A20   A(3,5,12)             119.5529         calculate D2E/DX2 analytically  !
 ! A21   A(3,5,13)             120.7519         calculate D2E/DX2 analytically  !
 ! A22   A(12,5,13)            117.4747         calculate D2E/DX2 analytically  !
 ! D1    D(14,1,4,2)           -58.1787         calculate D2E/DX2 analytically  !
 ! D2    D(14,1,4,10)           65.536          calculate D2E/DX2 analytically  !
 ! D3    D(14,1,4,11)         -178.5701         Scan                            !
 ! D4    D(4,2,3,5)            -67.6479         calculate D2E/DX2 analytically  !
 ! D5    D(4,2,3,8)            170.6902         calculate D2E/DX2 analytically  !
 ! D6    D(4,2,3,9)             56.206          calculate D2E/DX2 analytically  !
 ! D7    D(6,2,3,5)            171.6097         calculate D2E/DX2 analytically  !
 ! D8    D(6,2,3,8)             49.9478         calculate D2E/DX2 analytically  !
 ! D9    D(6,2,3,9)            -64.5363         calculate D2E/DX2 analytically  !
 ! D10   D(7,2,3,5)             54.3951         calculate D2E/DX2 analytically  !
 ! D11   D(7,2,3,8)            -67.2668         calculate D2E/DX2 analytically  !
 ! D12   D(7,2,3,9)            178.2491         calculate D2E/DX2 analytically  !
 ! D13   D(3,2,4,1)             70.8934         calculate D2E/DX2 analytically  !
 ! D14   D(3,2,4,10)           -53.4188         calculate D2E/DX2 analytically  !
 ! D15   D(3,2,4,11)          -171.075          calculate D2E/DX2 analytically  !
 ! D16   D(6,2,4,1)           -168.0042         calculate D2E/DX2 analytically  !
 ! D17   D(6,2,4,10)            67.6837         calculate D2E/DX2 analytically  !
 ! D18   D(6,2,4,11)           -49.9725         calculate D2E/DX2 analytically  !
 ! D19   D(7,2,4,1)            -51.7816         calculate D2E/DX2 analytically  !
 ! D20   D(7,2,4,10)          -176.0938         calculate D2E/DX2 analytically  !
 ! D21   D(7,2,4,11)            66.25           calculate D2E/DX2 analytically  !
 ! D22   D(2,3,5,12)           -42.8826         calculate D2E/DX2 analytically  !
 ! D23   D(2,3,5,13)           154.4712         calculate D2E/DX2 analytically  !
 ! D24   D(8,3,5,12)            78.3231         calculate D2E/DX2 analytically  !
 ! D25   D(8,3,5,13)           -84.3232         calculate D2E/DX2 analytically  !
 ! D26   D(9,3,5,12)          -166.4386         calculate D2E/DX2 analytically  !
 ! D27   D(9,3,5,13)            30.9151         calculate D2E/DX2 analytically  !
 --------------------------------------------------------------------------------
 Trust Radius=3.00D-01 FncErr=1.00D-07 GrdErr=1.00D-06 EigMax=2.50D+02 EigMin=1.00D-04
 Number of optimizations in scan=  73
 Number of steps in this run=     72 maximum allowed number of steps=    100.
 GradGradGradGradGradGradGradGradGradGradGradGradGradGradGradGradGradGrad

 Leave Link  103 at Sat Mar  9 13:21:35 2019, MaxMem=   671088640 cpu:               0.2 elap:               0.1
 (Enter /shared/centos7/gaussian/g16/l202.exe)
                          Input orientation:                          
 ---------------------------------------------------------------------
 Center     Atomic      Atomic             Coordinates (Angstroms)
 Number     Number       Type             X           Y           Z
 ---------------------------------------------------------------------
      1          8           0        1.099474   -1.282349   -0.841026
      2          6           0        2.215931   -0.569831    1.230460
      3          6           0        3.415709    0.188917    0.653764
      4          6           0        0.979952   -0.519538    0.342253
      5          6           0        3.991586   -0.422250   -0.574883
      6          1           0        1.958205   -0.139962    2.200775
      7          1           0        2.484085   -1.615565    1.400271
      8          1           0        4.194436    0.239990    1.427870
      9          1           0        3.130662    1.226178    0.457511
     10          1           0        0.740412    0.524882    0.106195
     11          1           0        0.126227   -0.936947    0.875293
     12          1           0        4.121660   -1.494774   -0.626592
     13          1           0        4.531406    0.180155   -1.290340
     14          1           0        1.858880   -0.963530   -1.337933
 ---------------------------------------------------------------------
                    Distance matrix (angstroms):
                    1          2          3          4          5
     1  O    0.000000
     2  C    2.458702   0.000000
     3  C    3.124735   1.532235   0.000000
     4  C    1.412911   1.522855   2.555751   0.000000
     5  C    3.029013   2.536532   1.488198   3.149690   0.000000
     6  H    3.360807   1.092118   2.150749   2.134282   3.452333
     7  H    2.655483   1.092841   2.163642   2.140816   2.756410
     8  H    4.128462   2.146919   1.099210   3.476831   2.119134
     9  H    3.479171   2.158664   1.093471   2.772429   2.127050
    10  H    2.071772   2.153956   2.751349   1.097231   3.454137
    11  H    2.003063   2.151228   3.483868   1.089590   4.160399
    12  H    3.037221   2.817084   2.229908   3.429297   1.081620
    13  H    3.757520   3.504046   2.241517   3.970864   1.079896
    14  H    0.961904   2.622809   2.778256   1.947478   2.328876
                    6          7          8          9         10
     6  H    0.000000
     7  H    1.759193   0.000000
     8  H    2.396346   2.523717   0.000000
     9  H    2.505985   3.063064   1.745216   0.000000
    10  H    2.512430   3.049023   3.709214   2.515657   0.000000
    11  H    2.397547   2.509107   4.270930   3.725624   1.762294
    12  H    3.809207   2.608527   2.689892   3.092076   4.006098
    13  H    4.348761   3.828253   2.739671   2.472091   4.054724
    14  H    3.634636   2.883364   3.814832   3.104169   2.356235
                   11         12         13         14
    11  H    0.000000
    12  H    4.304684   0.000000
    13  H    5.034231   1.847658   0.000000
    14  H    2.810900   2.430719   2.907348   0.000000
 Stoichiometry    C4H9O(2)
 Framework group  C1[X(C4H9O)]
 Deg. of freedom    36
 Full point group                 C1      NOp   1
 Largest Abelian subgroup         C1      NOp   1
 Largest concise Abelian subgroup C1      NOp   1
                         Standard orientation:                         
 ---------------------------------------------------------------------
 Center     Atomic      Atomic             Coordinates (Angstroms)
 Number     Number       Type             X           Y           Z
 ---------------------------------------------------------------------
      1          8           0       -1.452786    0.988728   -0.091949
      2          6           0       -0.056160   -1.015879   -0.367991
      3          6           0        1.264051   -0.520605    0.231584
      4          6           0       -1.287211   -0.370966    0.254655
      5          6           0        1.574936    0.903465   -0.068593
      6          1           0       -0.126461   -2.096398   -0.225663
      7          1           0       -0.068599   -0.829401   -1.444732
      8          1           0        2.075592   -1.153911   -0.153887
      9          1           0        1.256290   -0.682061    1.313042
     10          1           0       -1.251849   -0.490330    1.344800
     11          1           0       -2.185892   -0.875344   -0.099155
     12          1           0        1.408458    1.287050   -1.066114
     13          1           0        2.209994    1.480142    0.587395
     14          1           0       -0.668942    1.474334    0.181976
 ---------------------------------------------------------------------
 Rotational constants (GHZ):           7.5427717           3.8012004           2.8243890
 Leave Link  202 at Sat Mar  9 13:21:35 2019, MaxMem=   671088640 cpu:               0.2 elap:               0.0
 (Enter /shared/centos7/gaussian/g16/l301.exe)
 Standard basis: 6-311+G(2df,2p) (5D, 7F)
 Ernie: Thresh=  0.10000D-02 Tol=  0.10000D-05 Strict=F.
 There are   276 symmetry adapted cartesian basis functions of A   symmetry.
 There are   251 symmetry adapted basis functions of A   symmetry.
   251 basis functions,   359 primitive gaussians,   276 cartesian basis functions
    21 alpha electrons       20 beta electrons
       nuclear repulsion energy       184.4289966804 Hartrees.
 IExCor= 4336 DFT=T Ex+Corr=M062X ExCW=0 ScaHFX=  0.540000
 ScaDFX=  1.000000  1.000000  1.000000  1.000000 ScalE2=  1.000000  1.000000
 IRadAn=      5 IRanWt=     -1 IRanGd=            0 ICorTp=0 IEmpDi=  4
 NAtoms=   14 NActive=   14 NUniq=   14 SFac= 1.00D+00 NAtFMM=   60 NAOKFM=F Big=F
 Integral buffers will be    131072 words long.
 Raffenetti 2 integral format.
 Two-electron integral symmetry is turned on.
 Leave Link  301 at Sat Mar  9 13:21:35 2019, MaxMem=   671088640 cpu:               1.0 elap:               0.1
 (Enter /shared/centos7/gaussian/g16/l302.exe)
 NPDir=0 NMtPBC=     1 NCelOv=     1 NCel=       1 NClECP=     1 NCelD=      1
         NCelK=      1 NCelE2=     1 NClLst=     1 CellRange=     0.0.
 One-electron integrals computed using PRISM.
 One-electron integral symmetry used in STVInt
 NBasis=   251 RedAO= T EigKep=  5.63D-05  NBF=   251
 NBsUse=   251 1.00D-06 EigRej= -1.00D+00 NBFU=   251
 Precomputing XC quadrature grid using
 IXCGrd= 4 IRadAn=           5 IRanWt=          -1 IRanGd=           0 AccXCQ= 0.00D+00.
 Generated NRdTot=       0 NPtTot=           0 NUsed=           0 NTot=          32
 NSgBfM=   276   276   276   276   276 MxSgAt=    14 MxSgA2=    14.
 Leave Link  302 at Sat Mar  9 13:21:36 2019, MaxMem=   671088640 cpu:               5.8 elap:               0.3
 (Enter /shared/centos7/gaussian/g16/l303.exe)
 DipDrv:  MaxL=1.
 Leave Link  303 at Sat Mar  9 13:21:36 2019, MaxMem=   671088640 cpu:               0.6 elap:               0.1
 (Enter /shared/centos7/gaussian/g16/l401.exe)
 ExpMin= 4.38D-02 ExpMax= 8.59D+03 ExpMxC= 1.30D+03 IAcc=3 IRadAn=         5 AccDes= 0.00D+00
 Harris functional with IExCor= 1009 and IRadAn=       5 diagonalized for initial guess.
 HarFok:  IExCor= 1009 AccDes= 0.00D+00 IRadAn=         5 IDoV= 1 UseB2=F ITyADJ=14
 ICtDFT=  3500011 ScaDFX=  1.000000  1.000000  1.000000  1.000000
 FoFCou: FMM=F IPFlag=           0 FMFlag=      100000 FMFlg1=           0
         NFxFlg=           0 DoJE=T BraDBF=F KetDBF=T FulRan=T
         wScrn=  0.000000 ICntrl=       500 IOpCl=  0 I1Cent=   200000004 NGrid=           0
         NMat0=    1 NMatS0=      1 NMatT0=    0 NMatD0=    1 NMtDS0=    0 NMtDT0=    0
 Petite list used in FoFCou.
 Harris En= -232.888158404244    
 JPrj=0 DoOrth=F DoCkMO=F.
 Initial guess <Sx>= 0.0000 <Sy>= 0.0000 <Sz>= 0.5000 <S**2>= 0.7500 S= 0.5000
 Leave Link  401 at Sat Mar  9 13:21:37 2019, MaxMem=   671088640 cpu:              19.5 elap:               1.0
 (Enter /shared/centos7/gaussian/g16/l502.exe)
 Integral symmetry usage will be decided dynamically.
 UHF open shell SCF:
 Using DIIS extrapolation, IDIIS=  1040.
 NGot=   671088640 LenX=   670928170 LenY=   670851553
 Requested convergence on RMS density matrix=1.00D-08 within 128 cycles.
 Requested convergence on MAX density matrix=1.00D-06.
 Requested convergence on             energy=1.00D-06.
 No special actions if energy rises.
 Fock matrices will be formed incrementally for  20 cycles.

 Cycle   1  Pass 1  IDiag  1:
 FoFJK:  IHMeth= 1 ICntrl=       0 DoSepK=F KAlg= 0 I1Cent=           0 FoldK=F
 IRaf= 990000000 NMat=       1 IRICut=       1 DoRegI=T DoRafI=F ISym2E= 0 IDoP0=0 IntGTp=1.
 FoFCou: FMM=F IPFlag=           0 FMFlag=      100000 FMFlg1=           0
         NFxFlg=           0 DoJE=F BraDBF=F KetDBF=F FulRan=T
         wScrn=  0.000000 ICntrl=         0 IOpCl=  1 I1Cent=           0 NGrid=           0
         NMat0=    1 NMatS0=      1 NMatT0=    0 NMatD0=    1 NMtDS0=    0 NMtDT0=    0
 Symmetry not used in FoFCou.
 E= -232.782427222612    
 DIIS: error= 2.17D-02 at cycle   1 NSaved=   1.
 NSaved= 1 IEnMin= 1 EnMin= -232.782427222612     IErMin= 1 ErrMin= 2.17D-02
 ErrMax= 2.17D-02  0.00D+00 EMaxC= 1.00D-01 BMatC= 8.80D-01 BMatP= 8.80D-01
 IDIUse=3 WtCom= 7.83D-01 WtEn= 2.17D-01
 Coeff-Com:  0.100D+01
 Coeff-En:   0.100D+01
 Coeff:      0.100D+01
 Gap=     0.247 Goal=   None    Shift=    0.000
 Gap=     0.297 Goal=   None    Shift=    0.000
 GapD=    0.247 DampG=1.000 DampE=0.500 DampFc=0.5000 IDamp=-1.
 Damping current iteration by 5.00D-01
 RMSDP=3.31D-03 MaxDP=1.73D-01              OVMax= 1.42D-01

 Cycle   2  Pass 1  IDiag  1:
 RMSU=  1.64D-03    CP:  9.79D-01
 E= -232.872834349781     Delta-E=       -0.090407127169 Rises=F Damp=T
 DIIS: error= 4.94D-03 at cycle   2 NSaved=   2.
 NSaved= 2 IEnMin= 2 EnMin= -232.872834349781     IErMin= 2 ErrMin= 4.94D-03
 ErrMax= 4.94D-03  0.00D+00 EMaxC= 1.00D-01 BMatC= 5.92D-02 BMatP= 8.80D-01
 IDIUse=3 WtCom= 9.51D-01 WtEn= 4.94D-02
 Coeff-Com: -0.794D-01 0.108D+01
 Coeff-En:   0.000D+00 0.100D+01
 Coeff:     -0.754D-01 0.108D+01
 Gap=     0.289 Goal=   None    Shift=    0.000
 Gap=     0.335 Goal=   None    Shift=    0.000
 RMSDP=1.26D-03 MaxDP=6.98D-02 DE=-9.04D-02 OVMax= 8.30D-02

 Cycle   3  Pass 1  IDiag  1:
 RMSU=  1.20D-03    CP:  9.69D-01  7.80D-01
 E= -232.961758931516     Delta-E=       -0.088924581735 Rises=F Damp=F
 DIIS: error= 3.08D-03 at cycle   3 NSaved=   3.
 NSaved= 3 IEnMin= 3 EnMin= -232.961758931516     IErMin= 3 ErrMin= 3.08D-03
 ErrMax= 3.08D-03  0.00D+00 EMaxC= 1.00D-01 BMatC= 1.45D-02 BMatP= 5.92D-02
 IDIUse=3 WtCom= 9.69D-01 WtEn= 3.08D-02
 Coeff-Com: -0.826D-01 0.328D+00 0.754D+00
 Coeff-En:   0.000D+00 0.000D+00 0.100D+01
 Coeff:     -0.800D-01 0.318D+00 0.762D+00
 Gap=     0.287 Goal=   None    Shift=    0.000
 Gap=     0.303 Goal=   None    Shift=    0.000
 RMSDP=2.22D-04 MaxDP=1.29D-02 DE=-8.89D-02 OVMax= 1.43D-02

 Cycle   4  Pass 1  IDiag  1:
 RMSU=  1.91D-04    CP:  9.68D-01  8.48D-01  9.89D-01
 E= -232.964052844652     Delta-E=       -0.002293913136 Rises=F Damp=F
 DIIS: error= 1.23D-03 at cycle   4 NSaved=   4.
 NSaved= 4 IEnMin= 4 EnMin= -232.964052844652     IErMin= 4 ErrMin= 1.23D-03
 ErrMax= 1.23D-03  0.00D+00 EMaxC= 1.00D-01 BMatC= 2.47D-03 BMatP= 1.45D-02
 IDIUse=3 WtCom= 9.88D-01 WtEn= 1.23D-02
 Coeff-Com: -0.294D-01 0.723D-01 0.339D+00 0.618D+00
 Coeff-En:   0.000D+00 0.000D+00 0.000D+00 0.100D+01
 Coeff:     -0.291D-01 0.714D-01 0.335D+00 0.623D+00
 Gap=     0.284 Goal=   None    Shift=    0.000
 Gap=     0.309 Goal=   None    Shift=    0.000
 RMSDP=9.35D-05 MaxDP=5.69D-03 DE=-2.29D-03 OVMax= 5.71D-03

 Cycle   5  Pass 1  IDiag  1:
 RMSU=  6.29D-05    CP:  9.67D-01  8.27D-01  1.01D+00  7.21D-01
 E= -232.964538067895     Delta-E=       -0.000485223243 Rises=F Damp=F
 DIIS: error= 4.38D-04 at cycle   5 NSaved=   5.
 NSaved= 5 IEnMin= 5 EnMin= -232.964538067895     IErMin= 5 ErrMin= 4.38D-04
 ErrMax= 4.38D-04  0.00D+00 EMaxC= 1.00D-01 BMatC= 1.71D-04 BMatP= 2.47D-03
 IDIUse=3 WtCom= 9.96D-01 WtEn= 4.38D-03
 Coeff-Com: -0.319D-02-0.299D-02 0.478D-01 0.222D+00 0.737D+00
 Coeff-En:   0.000D+00 0.000D+00 0.000D+00 0.000D+00 0.100D+01
 Coeff:     -0.318D-02-0.298D-02 0.475D-01 0.221D+00 0.738D+00
 Gap=     0.285 Goal=   None    Shift=    0.000
 Gap=     0.309 Goal=   None    Shift=    0.000
 RMSDP=4.05D-05 MaxDP=1.84D-03 DE=-4.85D-04 OVMax= 2.17D-03

 Cycle   6  Pass 1  IDiag  1:
 RMSU=  3.16D-05    CP:  9.67D-01  8.26D-01  1.02D+00  8.08D-01  9.10D-01
 E= -232.964587189910     Delta-E=       -0.000049122015 Rises=F Damp=F
 DIIS: error= 1.04D-04 at cycle   6 NSaved=   6.
 NSaved= 6 IEnMin= 6 EnMin= -232.964587189910     IErMin= 6 ErrMin= 1.04D-04
 ErrMax= 1.04D-04  0.00D+00 EMaxC= 1.00D-01 BMatC= 1.38D-05 BMatP= 1.71D-04
 IDIUse=3 WtCom= 9.99D-01 WtEn= 1.04D-03
 Coeff-Com:  0.435D-02-0.108D-01-0.508D-01-0.923D-01 0.484D-02 0.114D+01
 Coeff-En:   0.000D+00 0.000D+00 0.000D+00 0.000D+00 0.000D+00 0.100D+01
 Coeff:      0.435D-02-0.108D-01-0.507D-01-0.923D-01 0.483D-02 0.114D+01
 Gap=     0.286 Goal=   None    Shift=    0.000
 Gap=     0.310 Goal=   None    Shift=    0.000
 RMSDP=1.62D-05 MaxDP=8.48D-04 DE=-4.91D-05 OVMax= 1.82D-03

 Cycle   7  Pass 1  IDiag  1:
 RMSU=  1.07D-05    CP:  9.67D-01  8.23D-01  1.03D+00  8.26D-01  1.05D+00
                    CP:  1.14D+00
 E= -232.964596590623     Delta-E=       -0.000009400713 Rises=F Damp=F
 DIIS: error= 3.43D-05 at cycle   7 NSaved=   7.
 NSaved= 7 IEnMin= 7 EnMin= -232.964596590623     IErMin= 7 ErrMin= 3.43D-05
 ErrMax= 3.43D-05  0.00D+00 EMaxC= 1.00D-01 BMatC= 1.96D-06 BMatP= 1.38D-05
 IDIUse=1 WtCom= 1.00D+00 WtEn= 0.00D+00
 Coeff-Com:  0.134D-02-0.232D-02-0.177D-01-0.492D-01-0.803D-01 0.313D+00
 Coeff-Com:  0.835D+00
 Coeff:      0.134D-02-0.232D-02-0.177D-01-0.492D-01-0.803D-01 0.313D+00
 Coeff:      0.835D+00
 Gap=     0.286 Goal=   None    Shift=    0.000
 Gap=     0.310 Goal=   None    Shift=    0.000
 RMSDP=4.32D-06 MaxDP=4.05D-04 DE=-9.40D-06 OVMax= 3.95D-04

 Cycle   8  Pass 1  IDiag  1:
 RMSU=  3.21D-06    CP:  9.67D-01  8.22D-01  1.03D+00  8.26D-01  1.06D+00
                    CP:  1.21D+00  1.15D+00
 E= -232.964597406227     Delta-E=       -0.000000815604 Rises=F Damp=F
 DIIS: error= 1.26D-05 at cycle   8 NSaved=   8.
 NSaved= 8 IEnMin= 8 EnMin= -232.964597406227     IErMin= 8 ErrMin= 1.26D-05
 ErrMax= 1.26D-05  0.00D+00 EMaxC= 1.00D-01 BMatC= 2.17D-07 BMatP= 1.96D-06
 IDIUse=1 WtCom= 1.00D+00 WtEn= 0.00D+00
 Coeff-Com: -0.198D-03 0.652D-03 0.136D-02-0.301D-02-0.224D-01-0.466D-01
 Coeff-Com:  0.213D+00 0.857D+00
 Coeff:     -0.198D-03 0.652D-03 0.136D-02-0.301D-02-0.224D-01-0.466D-01
 Coeff:      0.213D+00 0.857D+00
 Gap=     0.286 Goal=   None    Shift=    0.000
 Gap=     0.310 Goal=   None    Shift=    0.000
 RMSDP=1.89D-06 MaxDP=8.60D-05 DE=-8.16D-07 OVMax= 1.81D-04

 Cycle   9  Pass 1  IDiag  1:
 RMSU=  1.41D-06    CP:  9.67D-01  8.23D-01  1.03D+00  8.26D-01  1.06D+00
                    CP:  1.22D+00  1.25D+00  1.16D+00
 E= -232.964597489709     Delta-E=       -0.000000083481 Rises=F Damp=F
 DIIS: error= 3.90D-06 at cycle   9 NSaved=   9.
 NSaved= 9 IEnMin= 9 EnMin= -232.964597489709     IErMin= 9 ErrMin= 3.90D-06
 ErrMax= 3.90D-06  0.00D+00 EMaxC= 1.00D-01 BMatC= 1.97D-08 BMatP= 2.17D-07
 IDIUse=1 WtCom= 1.00D+00 WtEn= 0.00D+00
 Coeff-Com: -0.210D-03 0.439D-03 0.246D-02 0.544D-02 0.638D-02-0.444D-01
 Coeff-Com: -0.741D-01 0.171D+00 0.933D+00
 Coeff:     -0.210D-03 0.439D-03 0.246D-02 0.544D-02 0.638D-02-0.444D-01
 Coeff:     -0.741D-01 0.171D+00 0.933D+00
 Gap=     0.286 Goal=   None    Shift=    0.000
 Gap=     0.310 Goal=   None    Shift=    0.000
 RMSDP=6.92D-07 MaxDP=2.75D-05 DE=-8.35D-08 OVMax= 3.19D-05

 Cycle  10  Pass 1  IDiag  1:
 RMSU=  3.11D-07    CP:  9.67D-01  8.23D-01  1.03D+00  8.25D-01  1.06D+00
                    CP:  1.21D+00  1.28D+00  1.28D+00  1.04D+00
 E= -232.964597497547     Delta-E=       -0.000000007838 Rises=F Damp=F
 DIIS: error= 8.99D-07 at cycle  10 NSaved=  10.
 NSaved=10 IEnMin=10 EnMin= -232.964597497547     IErMin=10 ErrMin= 8.99D-07
 ErrMax= 8.99D-07  0.00D+00 EMaxC= 1.00D-01 BMatC= 8.85D-10 BMatP= 1.97D-08
 IDIUse=1 WtCom= 1.00D+00 WtEn= 0.00D+00
 Coeff-Com: -0.817D-05 0.124D-04 0.207D-03 0.704D-03 0.172D-02-0.261D-02
 Coeff-Com: -0.199D-01-0.191D-01 0.102D+00 0.937D+00
 Coeff:     -0.817D-05 0.124D-04 0.207D-03 0.704D-03 0.172D-02-0.261D-02
 Coeff:     -0.199D-01-0.191D-01 0.102D+00 0.937D+00
 Gap=     0.286 Goal=   None    Shift=    0.000
 Gap=     0.310 Goal=   None    Shift=    0.000
 RMSDP=1.52D-07 MaxDP=8.14D-06 DE=-7.84D-09 OVMax= 8.73D-06

 Cycle  11  Pass 1  IDiag  1:
 RMSU=  1.02D-07    CP:  9.67D-01  8.23D-01  1.03D+00  8.25D-01  1.06D+00
                    CP:  1.21D+00  1.28D+00  1.30D+00  1.06D+00  1.23D+00
 E= -232.964597497927     Delta-E=       -0.000000000380 Rises=F Damp=F
 DIIS: error= 4.04D-07 at cycle  11 NSaved=  11.
 NSaved=11 IEnMin=11 EnMin= -232.964597497927     IErMin=11 ErrMin= 4.04D-07
 ErrMax= 4.04D-07  0.00D+00 EMaxC= 1.00D-01 BMatC= 2.18D-10 BMatP= 8.85D-10
 IDIUse=1 WtCom= 1.00D+00 WtEn= 0.00D+00
 Coeff-Com:  0.228D-04-0.489D-04-0.219D-03-0.392D-03-0.140D-03 0.430D-02
 Coeff-Com:  0.151D-02-0.259D-01-0.735D-01 0.319D+00 0.776D+00
 Coeff:      0.228D-04-0.489D-04-0.219D-03-0.392D-03-0.140D-03 0.430D-02
 Coeff:      0.151D-02-0.259D-01-0.735D-01 0.319D+00 0.776D+00
 Gap=     0.286 Goal=   None    Shift=    0.000
 Gap=     0.310 Goal=   None    Shift=    0.000
 RMSDP=5.64D-08 MaxDP=3.68D-06 DE=-3.80D-10 OVMax= 3.55D-06

 Cycle  12  Pass 1  IDiag  1:
 RMSU=  3.22D-08    CP:  9.67D-01  8.23D-01  1.03D+00  8.25D-01  1.06D+00
                    CP:  1.22D+00  1.28D+00  1.31D+00  1.06D+00  1.33D+00
                    CP:  1.15D+00
 E= -232.964597498006     Delta-E=       -0.000000000079 Rises=F Damp=F
 DIIS: error= 1.02D-07 at cycle  12 NSaved=  12.
 NSaved=12 IEnMin=12 EnMin= -232.964597498006     IErMin=12 ErrMin= 1.02D-07
 ErrMax= 1.02D-07  0.00D+00 EMaxC= 1.00D-01 BMatC= 1.52D-11 BMatP= 2.18D-10
 IDIUse=1 WtCom= 1.00D+00 WtEn= 0.00D+00
 Coeff-Com:  0.277D-05-0.615D-05-0.460D-04-0.112D-03-0.196D-03 0.766D-03
 Coeff-Com:  0.242D-02-0.479D-03-0.206D-01-0.788D-01 0.932D-01 0.100D+01
 Coeff:      0.277D-05-0.615D-05-0.460D-04-0.112D-03-0.196D-03 0.766D-03
 Coeff:      0.242D-02-0.479D-03-0.206D-01-0.788D-01 0.932D-01 0.100D+01
 Gap=     0.286 Goal=   None    Shift=    0.000
 Gap=     0.310 Goal=   None    Shift=    0.000
 RMSDP=2.37D-08 MaxDP=1.41D-06 DE=-7.93D-11 OVMax= 1.73D-06

 Cycle  13  Pass 1  IDiag  1:
 RMSU=  9.54D-09    CP:  9.67D-01  8.23D-01  1.03D+00  8.25D-01  1.06D+00
                    CP:  1.22D+00  1.27D+00  1.31D+00  1.06D+00  1.35D+00
                    CP:  1.31D+00  1.28D+00
 E= -232.964597498016     Delta-E=       -0.000000000009 Rises=F Damp=F
 DIIS: error= 2.98D-08 at cycle  13 NSaved=  13.
 NSaved=13 IEnMin=13 EnMin= -232.964597498016     IErMin=13 ErrMin= 2.98D-08
 ErrMax= 2.98D-08  0.00D+00 EMaxC= 1.00D-01 BMatC= 1.21D-12 BMatP= 1.52D-11
 IDIUse=1 WtCom= 1.00D+00 WtEn= 0.00D+00
 Coeff-Com: -0.162D-05 0.330D-05 0.114D-04 0.194D-04-0.126D-04-0.247D-03
 Coeff-Com:  0.146D-03 0.194D-02 0.349D-02-0.344D-01-0.582D-01 0.109D+00
 Coeff-Com:  0.978D+00
 Coeff:     -0.162D-05 0.330D-05 0.114D-04 0.194D-04-0.126D-04-0.247D-03
 Coeff:      0.146D-03 0.194D-02 0.349D-02-0.344D-01-0.582D-01 0.109D+00
 Coeff:      0.978D+00
 Gap=     0.286 Goal=   None    Shift=    0.000
 Gap=     0.310 Goal=   None    Shift=    0.000
 RMSDP=8.42D-09 MaxDP=5.20D-07 DE=-9.32D-12 OVMax= 5.97D-07

 SCF Done:  E(UM062X) =  -232.964597498     A.U. after   13 cycles
            NFock= 13  Conv=0.84D-08     -V/T= 2.0039
 <Sx>= 0.0000 <Sy>= 0.0000 <Sz>= 0.5000 <S**2>= 0.7553 S= 0.5027
 <L.S>= 0.000000000000E+00
 KE= 2.320645360353D+02 PE=-9.118508245147D+02 EE= 2.623926943010D+02
 Annihilation of the first spin contaminant:
 S**2 before annihilation     0.7553,   after     0.7500
 Leave Link  502 at Sat Mar  9 13:22:23 2019, MaxMem=   671088640 cpu:             924.9 elap:              46.3
 (Enter /shared/centos7/gaussian/g16/l801.exe)
 DoSCS=F DFT=T ScalE2(SS,OS)=  1.000000  1.000000
 Range of M.O.s used for correlation:     1   251
 NBasis=   251 NAE=    21 NBE=    20 NFC=     0 NFV=     0
 NROrb=    251 NOA=    21 NOB=    20 NVA=   230 NVB=   231

 **** Warning!!: The largest alpha MO coefficient is  0.34957910D+02


 **** Warning!!: The largest beta MO coefficient is  0.33684248D+02

 Leave Link  801 at Sat Mar  9 13:22:23 2019, MaxMem=   671088640 cpu:               0.5 elap:               0.1
 (Enter /shared/centos7/gaussian/g16/l1101.exe)
 Using compressed storage, NAtomX=    14.
 Will process     15 centers per pass.
 Leave Link 1101 at Sat Mar  9 13:22:24 2019, MaxMem=   671088640 cpu:               6.3 elap:               0.4
 (Enter /shared/centos7/gaussian/g16/l1102.exe)
 Symmetrizing basis deriv contribution to polar:
 IMax=3 JMax=2 DiffMx= 0.00D+00
 Leave Link 1102 at Sat Mar  9 13:22:24 2019, MaxMem=   671088640 cpu:               0.6 elap:               0.1
 (Enter /shared/centos7/gaussian/g16/l1110.exe)
 Forming Gx(P) for the SCF density, NAtomX=    14.
 Integral derivatives from FoFJK, PRISM(SPDF).
 Do as many integral derivatives as possible in FoFJK.
 G2DrvN: MDV=     671087496.
 G2DrvN: will do    15 centers at a time, making    1 passes.
 Calling FoFCou, ICntrl=  3107 FMM=F I1Cent=   0 AccDes= 0.00D+00.
 FoFJK:  IHMeth= 1 ICntrl=    3107 DoSepK=F KAlg= 0 I1Cent=           0 FoldK=F
 IRaf=         0 NMat=       1 IRICut=       1 DoRegI=T DoRafI=F ISym2E= 0 IDoP0=0 IntGTp=1.
 FoFCou: FMM=F IPFlag=           0 FMFlag=      100000 FMFlg1=           0
         NFxFlg=           0 DoJE=F BraDBF=F KetDBF=F FulRan=T
         wScrn=  0.000000 ICntrl=      3107 IOpCl=  1 I1Cent=           0 NGrid=           0
         NMat0=    1 NMatS0=      1 NMatT0=    0 NMatD0=    1 NMtDS0=    0 NMtDT0=    0
 Symmetry not used in FoFCou.
 End of G2Drv F.D. properties file   721 does not exist.
 End of G2Drv F.D. properties file   722 does not exist.
 End of G2Drv F.D. properties file   788 does not exist.
 Leave Link 1110 at Sat Mar  9 13:24:00 2019, MaxMem=   671088640 cpu:            1916.6 elap:              95.9
 (Enter /shared/centos7/gaussian/g16/l1002.exe)
 Minotr:  UHF open shell wavefunction.
          IDoAtm=11111111111111
          Direct CPHF calculation.
          Differentiating once with respect to nuclear coordinates.
          Requested convergence is 1.0D-08 RMS, and 1.0D-07 maximum.
          Secondary convergence is 1.0D-12 RMS, and 1.0D-12 maximum.
          NewPWx=T KeepS1=F KeepF1=F KeepIn=T MapXYZ=F SortEE=F KeepMc=T.
         4243 words used for storage of precomputed grid.
 Two-electron integrals replicated using symmetry.
          MDV=     671088640 using IRadAn=       1.
          Solving linear equations simultaneously, MaxMat=     380.
 FoF2E skips out because all densities are zero.
 CalDSu exits because no D1Ps are significant.
 FoFJK:  IHMeth= 1 ICntrl=       0 DoSepK=F KAlg= 0 I1Cent=           0 FoldK=F
 IRaf= 980000000 NMat=      42 IRICut=     105 DoRegI=T DoRafI=T ISym2E= 2 IDoP0=3 IntGTp=3.
 FoFCou: FMM=F IPFlag=           0 FMFlag=      100000 FMFlg1=           0
         NFxFlg=           0 DoJE=F BraDBF=F KetDBF=F FulRan=T
         wScrn=  0.000000 ICntrl=         0 IOpCl=  1 I1Cent=           0 NGrid=           0
         NMat0=   42 NMatS0=     42 NMatT0=    0 NMatD0=   42 NMtDS0=    0 NMtDT0=    0
 Integrals replicated using symmetry in FoFCou.
 Raff kept on since  97.05% of shell-pairs survive, threshold=   0.20 IRatSp=97.
          There are    45 degrees of freedom in the 1st order CPHF.  IDoFFX=6 NUNeed=     0.
     39 vectors produced by pass  0 Test12= 2.10D-14 2.22D-09 XBig12= 1.22D-01 6.58D-02.
 AX will form    39 AO Fock derivatives at one time.
     39 vectors produced by pass  1 Test12= 2.10D-14 2.22D-09 XBig12= 1.13D-02 1.28D-02.
     39 vectors produced by pass  2 Test12= 2.10D-14 2.22D-09 XBig12= 5.52D-04 4.47D-03.
     39 vectors produced by pass  3 Test12= 2.10D-14 2.22D-09 XBig12= 1.10D-05 4.69D-04.
     39 vectors produced by pass  4 Test12= 2.10D-14 2.22D-09 XBig12= 1.32D-07 4.81D-05.
     39 vectors produced by pass  5 Test12= 2.10D-14 2.22D-09 XBig12= 1.28D-09 3.12D-06.
     39 vectors produced by pass  6 Test12= 2.10D-14 2.22D-09 XBig12= 8.79D-12 2.41D-07.
     14 vectors produced by pass  7 Test12= 2.10D-14 2.22D-09 XBig12= 5.90D-14 1.91D-08.
 InvSVY:  IOpt=1 It=  1 EMax= 2.89D-15
 Solved reduced A of dimension   287 with    39 vectors.
 End of Minotr F.D. properties file   721 does not exist.
 End of Minotr F.D. properties file   722 does not exist.
 End of Minotr F.D. properties file   788 does not exist.
 Leave Link 1002 at Sat Mar  9 13:26:30 2019, MaxMem=   671088640 cpu:            3004.5 elap:             150.3
 (Enter /shared/centos7/gaussian/g16/l601.exe)
 Copying SCF densities to generalized density rwf, IOpCl= 1 IROHF=0.

 **********************************************************************

            Population analysis using the SCF density.

 **********************************************************************

 Orbital symmetries:
 Alpha Orbitals:
       Occupied  (A) (A) (A) (A) (A) (A) (A) (A) (A) (A) (A) (A)
                 (A) (A) (A) (A) (A) (A) (A) (A) (A)
       Virtual   (A) (A) (A) (A) (A) (A) (A) (A) (A) (A) (A) (A)
                 (A) (A) (A) (A) (A) (A) (A) (A) (A) (A) (A) (A)
                 (A) (A) (A) (A) (A) (A) (A) (A) (A) (A) (A) (A)
                 (A) (A) (A) (A) (A) (A) (A) (A) (A) (A) (A) (A)
                 (A) (A) (A) (A) (A) (A) (A) (A) (A) (A) (A) (A)
                 (A) (A) (A) (A) (A) (A) (A) (A) (A) (A) (A) (A)
                 (A) (A) (A) (A) (A) (A) (A) (A) (A) (A) (A) (A)
                 (A) (A) (A) (A) (A) (A) (A) (A) (A) (A) (A) (A)
                 (A) (A) (A) (A) (A) (A) (A) (A) (A) (A) (A) (A)
                 (A) (A) (A) (A) (A) (A) (A) (A) (A) (A) (A) (A)
                 (A) (A) (A) (A) (A) (A) (A) (A) (A) (A) (A) (A)
                 (A) (A) (A) (A) (A) (A) (A) (A) (A) (A) (A) (A)
                 (A) (A) (A) (A) (A) (A) (A) (A) (A) (A) (A) (A)
                 (A) (A) (A) (A) (A) (A) (A) (A) (A) (A) (A) (A)
                 (A) (A) (A) (A) (A) (A) (A) (A) (A) (A) (A) (A)
                 (A) (A) (A) (A) (A) (A) (A) (A) (A) (A) (A) (A)
                 (A) (A) (A) (A) (A) (A) (A) (A) (A) (A) (A) (A)
                 (A) (A) (A) (A) (A) (A) (A) (A) (A) (A) (A) (A)
                 (A) (A) (A) (A) (A) (A) (A) (A) (A) (A) (A) (A)
                 (A) (A)
 Beta  Orbitals:
       Occupied  (A) (A) (A) (A) (A) (A) (A) (A) (A) (A) (A) (A)
                 (A) (A) (A) (A) (A) (A) (A) (A)
       Virtual   (A) (A) (A) (A) (A) (A) (A) (A) (A) (A) (A) (A)
                 (A) (A) (A) (A) (A) (A) (A) (A) (A) (A) (A) (A)
                 (A) (A) (A) (A) (A) (A) (A) (A) (A) (A) (A) (A)
                 (A) (A) (A) (A) (A) (A) (A) (A) (A) (A) (A) (A)
                 (A) (A) (A) (A) (A) (A) (A) (A) (A) (A) (A) (A)
                 (A) (A) (A) (A) (A) (A) (A) (A) (A) (A) (A) (A)
                 (A) (A) (A) (A) (A) (A) (A) (A) (A) (A) (A) (A)
                 (A) (A) (A) (A) (A) (A) (A) (A) (A) (A) (A) (A)
                 (A) (A) (A) (A) (A) (A) (A) (A) (A) (A) (A) (A)
                 (A) (A) (A) (A) (A) (A) (A) (A) (A) (A) (A) (A)
                 (A) (A) (A) (A) (A) (A) (A) (A) (A) (A) (A) (A)
                 (A) (A) (A) (A) (A) (A) (A) (A) (A) (A) (A) (A)
                 (A) (A) (A) (A) (A) (A) (A) (A) (A) (A) (A) (A)
                 (A) (A) (A) (A) (A) (A) (A) (A) (A) (A) (A) (A)
                 (A) (A) (A) (A) (A) (A) (A) (A) (A) (A) (A) (A)
                 (A) (A) (A) (A) (A) (A) (A) (A) (A) (A) (A) (A)
                 (A) (A) (A) (A) (A) (A) (A) (A) (A) (A) (A) (A)
                 (A) (A) (A) (A) (A) (A) (A) (A) (A) (A) (A) (A)
                 (A) (A) (A) (A) (A) (A) (A) (A) (A) (A) (A) (A)
                 (A) (A) (A)
 The electronic state is 2-A.
 Alpha  occ. eigenvalues --  -19.61294 -10.57741 -10.55130 -10.54553 -10.53564
 Alpha  occ. eigenvalues --   -1.13971  -0.90518  -0.81943  -0.72561  -0.66834
 Alpha  occ. eigenvalues --   -0.58826  -0.54578  -0.52606  -0.50186  -0.47743
 Alpha  occ. eigenvalues --   -0.46371  -0.41988  -0.41437  -0.39179  -0.34567
 Alpha  occ. eigenvalues --   -0.27031
 Alpha virt. eigenvalues --    0.01566   0.02860   0.03457   0.03791   0.06302
 Alpha virt. eigenvalues --    0.06598   0.06991   0.07116   0.07480   0.10639
 Alpha virt. eigenvalues --    0.11139   0.11439   0.11642   0.11787   0.15705
 Alpha virt. eigenvalues --    0.16488   0.18785   0.19535   0.21275   0.22645
 Alpha virt. eigenvalues --    0.23383   0.24455   0.24863   0.25470   0.26876
 Alpha virt. eigenvalues --    0.27616   0.28227   0.29041   0.29353   0.30969
 Alpha virt. eigenvalues --    0.31962   0.33087   0.37455   0.41828   0.43807
 Alpha virt. eigenvalues --    0.44047   0.47384   0.48382   0.52163   0.52662
 Alpha virt. eigenvalues --    0.54453   0.55021   0.55965   0.57277   0.58860
 Alpha virt. eigenvalues --    0.59665   0.60351   0.60919   0.62072   0.64083
 Alpha virt. eigenvalues --    0.64273   0.65019   0.65735   0.67258   0.69352
 Alpha virt. eigenvalues --    0.69965   0.71374   0.76418   0.78336   0.80816
 Alpha virt. eigenvalues --    0.83710   0.85334   0.88454   0.93235   0.96068
 Alpha virt. eigenvalues --    0.98865   1.00070   1.00464   1.02517   1.03305
 Alpha virt. eigenvalues --    1.05412   1.09246   1.11235   1.12726   1.14848
 Alpha virt. eigenvalues --    1.15866   1.17436   1.19586   1.21618   1.22811
 Alpha virt. eigenvalues --    1.24422   1.25208   1.26443   1.29484   1.32061
 Alpha virt. eigenvalues --    1.32909   1.35171   1.36283   1.36861   1.39854
 Alpha virt. eigenvalues --    1.40892   1.42702   1.44858   1.46418   1.47211
 Alpha virt. eigenvalues --    1.49257   1.50794   1.51812   1.53524   1.54368
 Alpha virt. eigenvalues --    1.55547   1.57895   1.59466   1.62949   1.65253
 Alpha virt. eigenvalues --    1.68185   1.70515   1.75903   1.81388   1.99440
 Alpha virt. eigenvalues --    2.10857   2.15841   2.29203   2.32067   2.41584
 Alpha virt. eigenvalues --    2.46726   2.47681   2.51882   2.53683   2.64454
 Alpha virt. eigenvalues --    2.66311   2.72370   2.74040   2.77208   2.80128
 Alpha virt. eigenvalues --    2.82111   2.85951   2.87598   2.89940   2.90851
 Alpha virt. eigenvalues --    2.93619   2.96223   2.96757   2.99608   3.03081
 Alpha virt. eigenvalues --    3.06713   3.08293   3.11842   3.14970   3.16614
 Alpha virt. eigenvalues --    3.19685   3.20230   3.23844   3.27910   3.28716
 Alpha virt. eigenvalues --    3.31426   3.32445   3.35144   3.36981   3.38810
 Alpha virt. eigenvalues --    3.41998   3.42487   3.47144   3.51169   3.54736
 Alpha virt. eigenvalues --    3.57121   3.60826   3.63735   3.64317   3.66373
 Alpha virt. eigenvalues --    3.68426   3.70453   3.71333   3.76013   3.77190
 Alpha virt. eigenvalues --    3.78545   3.84489   3.86822   3.88592   3.92598
 Alpha virt. eigenvalues --    3.96467   3.97118   3.99371   4.01849   4.06283
 Alpha virt. eigenvalues --    4.08035   4.14017   4.14114   4.16839   4.18467
 Alpha virt. eigenvalues --    4.20057   4.20584   4.23523   4.27619   4.29397
 Alpha virt. eigenvalues --    4.31004   4.33768   4.36631   4.39480   4.41138
 Alpha virt. eigenvalues --    4.42968   4.46675   4.47655   4.52971   4.55547
 Alpha virt. eigenvalues --    4.58758   4.58957   4.65311   4.73145   4.75779
 Alpha virt. eigenvalues --    4.94202   5.04555   5.19773   5.24215   5.26984
 Alpha virt. eigenvalues --    5.29281   5.39893   5.41864   5.45827   5.50062
 Alpha virt. eigenvalues --    5.51966   5.55127   5.58782   5.60739   5.65290
 Alpha virt. eigenvalues --    5.69427   5.86761   5.96562   6.52631   7.01768
 Alpha virt. eigenvalues --    7.20298   7.23936   7.24842   7.52724   7.64400
 Alpha virt. eigenvalues --   24.22382  24.32774  24.44491  24.49513  50.15446
  Beta  occ. eigenvalues --  -19.61225 -10.57744 -10.54616 -10.54465 -10.53539
  Beta  occ. eigenvalues --   -1.13752  -0.89664  -0.80583  -0.71030  -0.65654
  Beta  occ. eigenvalues --   -0.58507  -0.54013  -0.51769  -0.49858  -0.46940
  Beta  occ. eigenvalues --   -0.45464  -0.41421  -0.41068  -0.38585  -0.34334
  Beta virt. eigenvalues --   -0.03325   0.01192   0.02525   0.03330   0.03803
  Beta virt. eigenvalues --    0.06423   0.06535   0.06671   0.07189   0.07871
  Beta virt. eigenvalues --    0.10324   0.10863   0.11295   0.11644   0.11732
  Beta virt. eigenvalues --    0.15127   0.16507   0.18913   0.20170   0.21502
  Beta virt. eigenvalues --    0.22602   0.23534   0.24598   0.25055   0.25706
  Beta virt. eigenvalues --    0.27154   0.27848   0.28123   0.29050   0.29470
  Beta virt. eigenvalues --    0.31016   0.32351   0.33204   0.37471   0.42094
  Beta virt. eigenvalues --    0.43949   0.44153   0.47563   0.49140   0.52545
  Beta virt. eigenvalues --    0.53417   0.54156   0.55348   0.55962   0.57609
  Beta virt. eigenvalues --    0.58877   0.59820   0.61089   0.61271   0.62744
  Beta virt. eigenvalues --    0.64191   0.64808   0.65427   0.66348   0.67497
  Beta virt. eigenvalues --    0.69468   0.70097   0.71908   0.76544   0.77811
  Beta virt. eigenvalues --    0.81181   0.83712   0.85827   0.88650   0.93316
  Beta virt. eigenvalues --    0.96129   0.98649   0.99912   1.00474   1.02542
  Beta virt. eigenvalues --    1.03453   1.05574   1.09329   1.11383   1.12763
  Beta virt. eigenvalues --    1.15124   1.16056   1.17666   1.19611   1.21839
  Beta virt. eigenvalues --    1.23074   1.24470   1.25343   1.26663   1.29607
  Beta virt. eigenvalues --    1.32132   1.33299   1.35441   1.36669   1.37155
  Beta virt. eigenvalues --    1.40050   1.41378   1.42688   1.44747   1.46658
  Beta virt. eigenvalues --    1.47756   1.49935   1.51095   1.51638   1.53594
  Beta virt. eigenvalues --    1.55067   1.55756   1.58577   1.59983   1.63168
  Beta virt. eigenvalues --    1.65347   1.68401   1.70511   1.76132   1.81584
  Beta virt. eigenvalues --    1.99687   2.10865   2.16040   2.29276   2.32291
  Beta virt. eigenvalues --    2.42295   2.47297   2.48373   2.52009   2.54246
  Beta virt. eigenvalues --    2.65009   2.67712   2.73328   2.75994   2.78862
  Beta virt. eigenvalues --    2.81744   2.83639   2.86749   2.89224   2.91457
  Beta virt. eigenvalues --    2.93546   2.94897   2.98102   2.99077   3.03199
  Beta virt. eigenvalues --    3.04051   3.09180   3.10427   3.13540   3.15901
  Beta virt. eigenvalues --    3.18441   3.20415   3.23128   3.25205   3.30228
  Beta virt. eigenvalues --    3.31332   3.33632   3.35223   3.35974   3.38561
  Beta virt. eigenvalues --    3.40072   3.43931   3.46004   3.49037   3.51350
  Beta virt. eigenvalues --    3.55088   3.59006   3.62368   3.63917   3.64675
  Beta virt. eigenvalues --    3.68779   3.69847   3.70951   3.71623   3.76881
  Beta virt. eigenvalues --    3.77963   3.79205   3.85606   3.87449   3.89778
  Beta virt. eigenvalues --    3.93204   3.97200   3.98235   4.00283   4.02447
  Beta virt. eigenvalues --    4.07589   4.09178   4.14547   4.15642   4.18622
  Beta virt. eigenvalues --    4.19521   4.20350   4.23521   4.24781   4.28444
  Beta virt. eigenvalues --    4.30738   4.31440   4.35456   4.37042   4.40063
  Beta virt. eigenvalues --    4.42774   4.44690   4.47323   4.47982   4.53493
  Beta virt. eigenvalues --    4.56378   4.59159   4.59396   4.65514   4.73476
  Beta virt. eigenvalues --    4.78443   4.97162   5.07571   5.20261   5.24339
  Beta virt. eigenvalues --    5.27185   5.30693   5.40088   5.41673   5.46535
  Beta virt. eigenvalues --    5.53529   5.55513   5.58100   5.58965   5.61047
  Beta virt. eigenvalues --    5.65115   5.69751   5.86826   5.96691   6.52627
  Beta virt. eigenvalues --    7.02115   7.20470   7.24010   7.25134   7.52867
  Beta virt. eigenvalues --    7.64661  24.23315  24.32862  24.44885  24.49670
  Beta virt. eigenvalues --   50.15359
          Condensed to atoms (all electrons):
               1          2          3          4          5          6
     1  O    8.092369   0.015447  -0.035320   0.143338  -0.028633   0.007372
     2  C    0.015447   5.437621  -0.023055   0.231113  -0.085397   0.423714
     3  C   -0.035320  -0.023055   5.510966  -0.092831   0.026946  -0.038796
     4  C    0.143338   0.231113  -0.092831   5.076130   0.099711  -0.034616
     5  C   -0.028633  -0.085397   0.026946   0.099711   5.791113   0.017667
     6  H    0.007372   0.423714  -0.038796  -0.034616   0.017667   0.517704
     7  H   -0.010464   0.460786  -0.003605  -0.055947  -0.031264  -0.024048
     8  H   -0.001025  -0.060307   0.419511   0.014767  -0.028209  -0.004392
     9  H   -0.000037   0.002026   0.466854  -0.022368  -0.080810  -0.006549
    10  H   -0.042798   0.013637  -0.024094   0.412251  -0.011979  -0.002712
    11  H   -0.058959  -0.070250   0.027846   0.458470  -0.001855  -0.004317
    12  H   -0.000607   0.005402  -0.022396  -0.002348   0.383316  -0.000194
    13  H    0.000334   0.017659  -0.044381  -0.002482   0.411083  -0.000249
    14  H    0.257692  -0.030097   0.006017  -0.012871   0.038809  -0.000159
               7          8          9         10         11         12
     1  O   -0.010464  -0.001025  -0.000037  -0.042798  -0.058959  -0.000607
     2  C    0.460786  -0.060307   0.002026   0.013637  -0.070250   0.005402
     3  C   -0.003605   0.419511   0.466854  -0.024094   0.027846  -0.022396
     4  C   -0.055947   0.014767  -0.022368   0.412251   0.458470  -0.002348
     5  C   -0.031264  -0.028209  -0.080810  -0.011979  -0.001855   0.383316
     6  H   -0.024048  -0.004392  -0.006549  -0.002712  -0.004317  -0.000194
     7  H    0.478313  -0.006042   0.003826   0.004109  -0.004257   0.000559
     8  H   -0.006042   0.552453  -0.032844   0.000015  -0.000342  -0.001987
     9  H    0.003826  -0.032844   0.499130   0.001036  -0.000132   0.003817
    10  H    0.004109   0.000015   0.001036   0.551988  -0.034866   0.000026
    11  H   -0.004257  -0.000342  -0.000132  -0.034866   0.537818  -0.000083
    12  H    0.000559  -0.001987   0.003817   0.000026  -0.000083   0.457968
    13  H    0.000047  -0.001633  -0.002992   0.000168   0.000023  -0.019420
    14  H    0.000156   0.000460  -0.001182  -0.006549   0.008997  -0.003802
              13         14
     1  O    0.000334   0.257692
     2  C    0.017659  -0.030097
     3  C   -0.044381   0.006017
     4  C   -0.002482  -0.012871
     5  C    0.411083   0.038809
     6  H   -0.000249  -0.000159
     7  H    0.000047   0.000156
     8  H   -0.001633   0.000460
     9  H   -0.002992  -0.001182
    10  H    0.000168  -0.006549
    11  H    0.000023   0.008997
    12  H   -0.019420  -0.003802
    13  H    0.463985  -0.000825
    14  H   -0.000825   0.497185
          Atomic-Atomic Spin Densities.
               1          2          3          4          5          6
     1  O    0.034818   0.004020   0.005095  -0.009517  -0.032139  -0.000241
     2  C    0.004020   0.077470   0.018303  -0.024829  -0.046856  -0.004358
     3  C    0.005095   0.018303  -0.033652  -0.006900  -0.092060   0.000801
     4  C   -0.009517  -0.024829  -0.006900   0.029296   0.024374   0.000377
     5  C   -0.032139  -0.046856  -0.092060   0.024374   1.274299   0.003211
     6  H   -0.000241  -0.004358   0.000801   0.000377   0.003211  -0.003163
     7  H    0.000239   0.005364  -0.001953  -0.003751  -0.001053   0.000822
     8  H   -0.000801  -0.037104   0.032649   0.008106  -0.027826   0.001523
     9  H    0.001006   0.023714  -0.000472  -0.007319  -0.018785  -0.000488
    10  H   -0.001034   0.001647  -0.001328  -0.001973   0.000847   0.000174
    11  H    0.000609   0.001485   0.001252  -0.001616  -0.002370  -0.000398
    12  H    0.001273   0.006759   0.001938  -0.001087  -0.016033  -0.000090
    13  H    0.000485   0.002809   0.011803  -0.001204  -0.018992  -0.000015
    14  H    0.012755   0.002522  -0.000585   0.003490   0.012986   0.000094
               7          8          9         10         11         12
     1  O    0.000239  -0.000801   0.001006  -0.001034   0.000609   0.001273
     2  C    0.005364  -0.037104   0.023714   0.001647   0.001485   0.006759
     3  C   -0.001953   0.032649  -0.000472  -0.001328   0.001252   0.001938
     4  C   -0.003751   0.008106  -0.007319  -0.001973  -0.001616  -0.001087
     5  C   -0.001053  -0.027826  -0.018785   0.000847  -0.002370  -0.016033
     6  H    0.000822   0.001523  -0.000488   0.000174  -0.000398  -0.000090
     7  H   -0.002716  -0.001102   0.000208  -0.000004   0.000329   0.000017
     8  H   -0.001102   0.091599  -0.012103  -0.000067  -0.000124  -0.001931
     9  H    0.000208  -0.012103   0.023081   0.000080   0.000151   0.000338
    10  H   -0.000004  -0.000067   0.000080  -0.002746   0.000519  -0.000016
    11  H    0.000329  -0.000124   0.000151   0.000519   0.002845   0.000035
    12  H    0.000017  -0.001931   0.000338  -0.000016   0.000035  -0.051489
    13  H    0.000012  -0.001966   0.001345   0.000006   0.000003   0.006652
    14  H   -0.000142   0.000476  -0.000653   0.000660  -0.001445   0.000014
              13         14
     1  O    0.000485   0.012755
     2  C    0.002809   0.002522
     3  C    0.011803  -0.000585
     4  C   -0.001204   0.003490
     5  C   -0.018992   0.012986
     6  H   -0.000015   0.000094
     7  H    0.000012  -0.000142
     8  H   -0.001966   0.000476
     9  H    0.001345  -0.000653
    10  H    0.000006   0.000660
    11  H    0.000003  -0.001445
    12  H    0.006652   0.000014
    13  H   -0.046069  -0.000339
    14  H   -0.000339  -0.034195
 Mulliken charges and spin densities:
               1          2
     1  O   -0.338709   0.016569
     2  C   -0.338299   0.030947
     3  C   -0.173662  -0.065110
     4  C   -0.212317   0.007449
     5  C   -0.500497   1.059604
     6  H    0.149575  -0.001751
     7  H    0.187830  -0.003728
     8  H    0.149577   0.051329
     9  H    0.170225   0.010103
    10  H    0.139768  -0.003235
    11  H    0.141907   0.001275
    12  H    0.199749  -0.053620
    13  H    0.178683  -0.045469
    14  H    0.246170  -0.004362
 Sum of Mulliken charges =  -0.00000   1.00000
 Mulliken charges and spin densities with hydrogens summed into heavy atoms:
               1          2
     1  O   -0.092539   0.012207
     2  C   -0.000894   0.025468
     3  C    0.146140  -0.003678
     4  C    0.069358   0.005489
     5  C   -0.122065   0.960515
 APT charges:
               1
     1  O   -0.535798
     2  C   -0.821105
     3  C   -0.810803
     4  C   -0.690815
     5  C   -0.890052
     6  H    0.449186
     7  H    0.357850
     8  H    0.472090
     9  H    0.369518
    10  H    0.338045
    11  H    0.492778
    12  H    0.342429
    13  H    0.539847
    14  H    0.386831
 Sum of APT charges =  -0.00000
 APT charges with hydrogens summed into heavy atoms:
               1
     1  O   -0.148967
     2  C   -0.014069
     3  C    0.030804
     4  C    0.140007
     5  C   -0.007776
 Electronic spatial extent (au):  <R**2>=            485.7126
 Charge=             -0.0000 electrons
 Dipole moment (field-independent basis, Debye):
    X=              1.7433    Y=             -1.1572    Z=              0.5759  Tot=              2.1703
 Quadrupole moment (field-independent basis, Debye-Ang):
   XX=            -35.8699   YY=            -32.5078   ZZ=            -32.6034
   XY=              3.4389   XZ=             -0.3303   YZ=              0.6195
 Traceless Quadrupole moment (field-independent basis, Debye-Ang):
   XX=             -2.2095   YY=              1.1526   ZZ=              1.0570
   XY=              3.4389   XZ=             -0.3303   YZ=              0.6195
 Octapole moment (field-independent basis, Debye-Ang**2):
  XXX=             -2.2180  YYY=              3.5689  ZZZ=              0.0111  XYY=              1.4081
  XXY=             -5.9093  XXZ=              1.5816  XZZ=             -0.9930  YZZ=              1.1022
  YYZ=              0.5992  XYZ=             -0.3631
 Hexadecapole moment (field-independent basis, Debye-Ang**3):
 XXXX=           -387.5860 YYYY=           -195.3733 ZZZZ=            -73.3276 XXXY=              7.9240
 XXXZ=              5.3146 YYYX=             -2.3777 YYYZ=              0.6978 ZZZX=              0.1004
 ZZZY=             -1.2808 XXYY=            -99.8421 XXZZ=            -76.0693 YYZZ=            -47.0998
 XXYZ=              4.1454 YYXZ=              0.0550 ZZXY=              0.1050
 N-N= 1.844289966804D+02 E-N=-9.118508231793D+02  KE= 2.320645360353D+02
  Exact polarizability:   0.000   0.000   0.000   0.000   0.000   0.000
 Approx polarizability:  61.097   1.049  63.211   0.571  -0.598  58.989
                          Isotropic Fermi Contact Couplings
        Atom                 a.u.       MegaHertz       Gauss      10(-4) cm-1
     1  O(17)              0.00666      -4.03877      -1.44113      -1.34719
     2  C(13)              0.01403      15.77252       5.62803       5.26115
     3  C(13)             -0.03128     -35.16600     -12.54810     -11.73011
     4  C(13)             -0.00233      -2.61868      -0.93441      -0.87350
     5  C(13)              0.16996     191.06603      68.17711      63.73277
     6  H(1)              -0.00046      -2.06113      -0.73546      -0.68752
     7  H(1)              -0.00032      -1.42107      -0.50707      -0.47402
     8  H(1)               0.03125     139.68996      49.84485      46.59555
     9  H(1)               0.00561      25.08731       8.95178       8.36823
    10  H(1)               0.00001       0.05719       0.02041       0.01908
    11  H(1)               0.00098       4.36721       1.55833       1.45674
    12  H(1)              -0.01472     -65.78183     -23.47259     -21.94246
    13  H(1)              -0.01462     -65.34446     -23.31653     -21.79657
    14  H(1)              -0.00373     -16.66669      -5.94709      -5.55941
 --------------------------------------------------------
       Center         ----  Spin Dipole Couplings  ----
                      3XX-RR        3YY-RR        3ZZ-RR
 --------------------------------------------------------
     1   Atom        0.146500     -0.070746     -0.075754
     2   Atom        0.017376     -0.002750     -0.014626
     3   Atom        0.003082      0.008429     -0.011510
     4   Atom        0.006897     -0.000806     -0.006091
     5   Atom        0.634425     -0.325828     -0.308597
     6   Atom       -0.000612      0.005080     -0.004469
     7   Atom       -0.000442      0.000239      0.000203
     8   Atom       -0.006029      0.016372     -0.010342
     9   Atom       -0.007909      0.007135      0.000774
    10   Atom        0.003032     -0.001014     -0.002018
    11   Atom        0.002602     -0.000214     -0.002388
    12   Atom       -0.017118     -0.043746      0.060864
    13   Atom        0.026321     -0.020758     -0.005563
    14   Atom        0.037913     -0.015329     -0.022584
 --------------------------------------------------------
                        XY            XZ            YZ
 --------------------------------------------------------
     1   Atom        0.042115      0.025910      0.004869
     2   Atom        0.017344      0.012494      0.006076
     3   Atom       -0.007921     -0.009243      0.003383
     4   Atom        0.006518     -0.001504     -0.000717
     5   Atom       -0.491344     -0.501894      0.214237
     6   Atom        0.004210      0.000488      0.000563
     7   Atom        0.005265      0.005397      0.005594
     8   Atom       -0.005179     -0.002260      0.000420
     9   Atom        0.001568     -0.001568     -0.013330
    10   Atom        0.003898     -0.003440     -0.002486
    11   Atom        0.002755      0.000302      0.000193
    12   Atom       -0.029105      0.001458     -0.037461
    13   Atom        0.023327      0.030098      0.057049
    14   Atom        0.003741      0.005446      0.004986
 --------------------------------------------------------


 ---------------------------------------------------------------------------------
              Anisotropic Spin Dipole Couplings in Principal Axis System
 ---------------------------------------------------------------------------------

       Atom             a.u.   MegaHertz   Gauss  10(-4) cm-1        Axes

              Baa    -0.0787     5.698     2.033     1.900 -0.0745 -0.2023  0.9765
     1 O(17)  Bbb    -0.0786     5.689     2.030     1.898 -0.2012  0.9621  0.1840
              Bcc     0.1574   -11.386    -4.063    -3.798  0.9767  0.1827  0.1124
 
              Baa    -0.0189    -2.540    -0.906    -0.847 -0.3199 -0.0128  0.9474
     2 C(13)  Bbb    -0.0126    -1.691    -0.603    -0.564 -0.4513  0.8812 -0.1405
              Bcc     0.0315     4.231     1.510     1.411  0.8330  0.4725  0.2877
 
              Baa    -0.0160    -2.147    -0.766    -0.716  0.4424  0.0193  0.8966
     3 C(13)  Bbb    -0.0006    -0.082    -0.029    -0.027  0.6442  0.6887 -0.3327
              Bcc     0.0166     2.229     0.795     0.744 -0.6239  0.7248  0.2923
 
              Baa    -0.0063    -0.841    -0.300    -0.280  0.1198 -0.0127  0.9927
     4 C(13)  Bbb    -0.0045    -0.606    -0.216    -0.202 -0.4877  0.8702  0.0700
              Bcc     0.0108     1.447     0.516     0.483  0.8647  0.4926 -0.0980
 
              Baa    -0.5336   -71.599   -25.548   -23.883  0.2544  0.9174 -0.3061
     5 C(13)  Bbb    -0.5255   -70.512   -25.160   -23.520  0.4505  0.1677  0.8769
              Bcc     1.0590   142.110    50.709    47.403  0.8558 -0.3610 -0.3706
 
              Baa    -0.0045    -2.417    -0.862    -0.806 -0.1156 -0.0076  0.9933
     6 H(1)   Bbb    -0.0028    -1.510    -0.539    -0.504  0.8756 -0.4730  0.0983
              Bcc     0.0074     3.927     1.401     1.310  0.4690  0.8811  0.0613
 
              Baa    -0.0055    -2.948    -1.052    -0.984  0.7223  0.0114 -0.6915
     7 H(1)   Bbb    -0.0053    -2.840    -1.013    -0.947 -0.4123  0.8099 -0.4173
              Bcc     0.0108     5.788     2.065     1.931  0.5553  0.5864  0.5897
 
              Baa    -0.0114    -6.095    -2.175    -2.033  0.4408  0.0686  0.8950
     8 H(1)   Bbb    -0.0061    -3.264    -1.165    -1.089  0.8708  0.2089 -0.4450
              Bcc     0.0175     9.359     3.339     3.122 -0.2174  0.9755  0.0323
 
              Baa    -0.0098    -5.223    -1.864    -1.742  0.1506  0.6030  0.7834
     9 H(1)   Bbb    -0.0081    -4.299    -1.534    -1.434  0.9849 -0.1598 -0.0663
              Bcc     0.0178     9.523     3.398     3.176  0.0852  0.7815 -0.6180
 
              Baa    -0.0041    -2.173    -0.775    -0.725  0.1062  0.5421  0.8336
    10 H(1)   Bbb    -0.0032    -1.732    -0.618    -0.578 -0.6274  0.6869 -0.3668
              Bcc     0.0073     3.905     1.393     1.303  0.7714  0.4841 -0.4130
 
              Baa    -0.0024    -1.284    -0.458    -0.428 -0.0388 -0.0389  0.9985
    11 H(1)   Bbb    -0.0019    -1.014    -0.362    -0.338 -0.5226  0.8525  0.0129
              Bcc     0.0043     2.298     0.820     0.766  0.8517  0.5213  0.0534
 
              Baa    -0.0700   -37.363   -13.332   -12.463  0.4629  0.8535  0.2391
    12 H(1)   Bbb    -0.0041    -2.191    -0.782    -0.731  0.8783 -0.4054 -0.2534
              Bcc     0.0741    39.554    14.114    13.194  0.1194 -0.3274  0.9373
 
              Baa    -0.0708   -37.762   -13.474   -12.596  0.0269  0.7462 -0.6652
    13 H(1)   Bbb    -0.0037    -1.956    -0.698    -0.653  0.7840 -0.4286 -0.4490
              Bcc     0.0744    39.718    14.172    13.249  0.6201  0.5095  0.5966
 
              Baa    -0.0253   -13.492    -4.814    -4.500 -0.0521 -0.4314  0.9007
    14 H(1)   Bbb    -0.0134    -7.169    -2.558    -2.391 -0.1105  0.8988  0.4241
              Bcc     0.0387    20.661     7.372     6.892  0.9925  0.0774  0.0945
 

 ---------------------------------------------------------------------------------

 No NMR shielding tensors so no spin-rotation constants.
 Leave Link  601 at Sat Mar  9 13:26:30 2019, MaxMem=   671088640 cpu:               8.0 elap:               0.4
 (Enter /shared/centos7/gaussian/g16/l701.exe)
 ... and contract with generalized density number  0.
 Compute integral second derivatives.
 Leave Link  701 at Sat Mar  9 13:26:31 2019, MaxMem=   671088640 cpu:               8.6 elap:               0.5
 (Enter /shared/centos7/gaussian/g16/l702.exe)
 L702 exits ... SP integral derivatives will be done elsewhere.
 Leave Link  702 at Sat Mar  9 13:26:31 2019, MaxMem=   671088640 cpu:               0.3 elap:               0.0
 (Enter /shared/centos7/gaussian/g16/l703.exe)
 Integral derivatives from FoFJK, PRISM(SPDF).
 Compute integral second derivatives, UseDBF=F ICtDFT=           0.
 Calling FoFJK, ICntrl=    100147 FMM=F ISym2X=0 I1Cent= 0 IOpClX= 1 NMat=1 NMatS=1 NMatT=0.
 FoFJK:  IHMeth= 1 ICntrl=  100147 DoSepK=F KAlg= 0 I1Cent=           0 FoldK=F
 IRaf=         0 NMat=       1 IRICut=       1 DoRegI=T DoRafI=F ISym2E= 0 IDoP0=0 IntGTp=1.
 FoFCou: FMM=F IPFlag=           0 FMFlag=      100000 FMFlg1=         800
         NFxFlg=           0 DoJE=F BraDBF=F KetDBF=F FulRan=T
         wScrn=  0.000000 ICntrl=    100147 IOpCl=  1 I1Cent=           0 NGrid=           0
         NMat0=    1 NMatS0=      1 NMatT0=    0 NMatD0=    1 NMtDS0=    0 NMtDT0=    0
 Symmetry not used in FoFCou.
 Leave Link  703 at Sat Mar  9 13:28:01 2019, MaxMem=   671088640 cpu:            1792.6 elap:              89.7
 (Enter /shared/centos7/gaussian/g16/l716.exe)
 Dipole        = 6.85875562D-01-4.55295168D-01 2.26595216D-01
 Polarizability= 0.00000000D+00 0.00000000D+00 0.00000000D+00
                 0.00000000D+00 0.00000000D+00 0.00000000D+00
 ***** Axes restored to original set *****
 -------------------------------------------------------------------
 Center     Atomic                   Forces (Hartrees/Bohr)
 Number     Number              X              Y              Z
 -------------------------------------------------------------------
      1        8           0.000000303   -0.000000578    0.000000100
      2        6          -0.000000516    0.000000998    0.000000072
      3        6           0.000000036   -0.000000006   -0.000000078
      4        6          -0.000000098    0.000000523   -0.000000604
      5        6           0.000000438   -0.000001423    0.000000834
      6        1          -0.000000867    0.000002061   -0.000000527
      7        1          -0.000001020    0.000001149    0.000001187
      8        1          -0.000000345    0.000000506    0.000000190
      9        1           0.000000499   -0.000000036   -0.000001288
     10        1           0.000000417    0.000000478   -0.000001798
     11        1          -0.000000509    0.000001457   -0.000000602
     12        1           0.000000074   -0.000001477    0.000001878
     13        1           0.000001000   -0.000002253    0.000000396
     14        1           0.000000588   -0.000001398    0.000000241
 -------------------------------------------------------------------
 Cartesian Forces:  Max     0.000002253 RMS     0.000000943
 FormGI is forming the generalized inverse of G from B-inverse, IUseBI=4.
 Leave Link  716 at Sat Mar  9 13:28:01 2019, MaxMem=   671088640 cpu:               0.9 elap:               0.1
 (Enter /shared/centos7/gaussian/g16/l103.exe)

 GradGradGradGradGradGradGradGradGradGradGradGradGradGradGradGradGradGrad
 Berny optimization.
 Red2BG is reusing G-inverse.
 Internal  Forces:  Max     0.000000063 RMS     0.000000022
 Search for a local minimum.
 Step number   1 out of a maximum of   72 on scan point     1 out of    73
 All quantities printed in internal units (Hartrees-Bohrs-Radians)
 RMS Force = .21819D-07 SwitMx=.10000D-02 MixMth= 2
 Mixed Optimization -- En-DIIS/RFO-DIIS
 Second derivative matrix not updated -- analytic derivatives used.
 ITU=  0
     Eigenvalues ---    0.00141   0.00422   0.00472   0.01057   0.03429
     Eigenvalues ---    0.03787   0.04012   0.04299   0.04353   0.05958
     Eigenvalues ---    0.07012   0.07737   0.08483   0.09948   0.10267
     Eigenvalues ---    0.10910   0.12260   0.13530   0.17516   0.19964
     Eigenvalues ---    0.22509   0.25346   0.28110   0.30415   0.32020
     Eigenvalues ---    0.32484   0.33456   0.33878   0.33976   0.34046
     Eigenvalues ---    0.36225   0.36408   0.36982   0.40200   0.53170
     Eigenvalues --- 1000.000001000.000001000.000001000.000001000.00000
     Eigenvalues --- 1000.000001000.000001000.000001000.000001000.00000
     Eigenvalues --- 1000.000001000.000001000.000001000.000001000.00000
     Eigenvalues --- 1000.000001000.000001000.000001000.000001000.00000
     Eigenvalues --- 1000.000001000.000001000.000001000.000001000.00000
     Eigenvalues --- 1000.000001000.00000
 RFO step:  Lambda= 0.00000000D+00 EMin= 1.40833424D-03
 Linear search not attempted -- first point.
 Iteration  1 RMS(Cart)=  0.00000231 RMS(Int)=  0.00000000
 Iteration  2 RMS(Cart)=  0.00000000 RMS(Int)=  0.00000000
 Iteration  1 RMS(Cart)=  0.00000000 RMS(Int)=  0.00000000
 ITry= 1 IFail=0 DXMaxC= 1.03D-05 DCOld= 1.00D+10 DXMaxT= 3.00D-01 DXLimC= 3.00D+00 Rises=F
 Variable       Old X    -DE/DX   Delta X   Delta X   Delta X     New X
                                 (Linear)    (Quad)   (Total)
    R1        2.67001   0.00000   0.00000   0.00000   0.00000   2.67001
    R2        1.81774  -0.00000   0.00000  -0.00000  -0.00000   1.81774
    R3        2.89550   0.00000   0.00000   0.00000   0.00000   2.89550
    R4        2.87778   0.00000   0.00000   0.00000   0.00000   2.87778
    R5        2.06380  -0.00000   0.00000  -0.00000  -0.00000   2.06380
    R6        2.06517  -0.00000   0.00000  -0.00000  -0.00000   2.06517
    R7        2.81229   0.00000   0.00000   0.00000   0.00000   2.81229
    R8        2.07721  -0.00000   0.00000  -0.00000  -0.00000   2.07721
    R9        2.06636   0.00000   0.00000   0.00000   0.00000   2.06636
   R10        2.07347   0.00000   0.00000   0.00000   0.00000   2.07347
   R11        2.05903   0.00000   0.00000   0.00000   0.00000   2.05903
   R12        2.04396  -0.00000   0.00000  -0.00000  -0.00000   2.04396
   R13        2.04071   0.00000   0.00000   0.00000   0.00000   2.04071
    A1        1.89702   0.00000   0.00000   0.00000   0.00000   1.89702
    A2        1.98192  -0.00000   0.00000  -0.00000  -0.00000   1.98192
    A3        1.90104   0.00000   0.00000  -0.00000  -0.00000   1.90104
    A4        1.91792   0.00000   0.00000   0.00000   0.00000   1.91792
    A5        1.88985  -0.00000   0.00000   0.00000   0.00000   1.88985
    A6        1.89798  -0.00000   0.00000  -0.00000  -0.00000   1.89798
    A7        1.87182  -0.00000   0.00000  -0.00000  -0.00000   1.87182
    A8        1.99366   0.00000   0.00000   0.00000   0.00000   1.99366
    A9        1.88881   0.00000   0.00000  -0.00000  -0.00000   1.88881
   A10        1.91046  -0.00000   0.00000  -0.00000  -0.00000   1.91046
   A11        1.90324  -0.00000   0.00000  -0.00000  -0.00000   1.90324
   A12        1.92012  -0.00000   0.00000  -0.00000  -0.00000   1.92012
   A13        1.84107   0.00000   0.00000   0.00000   0.00000   1.84107
   A14        1.98446  -0.00000   0.00000  -0.00000  -0.00000   1.98446
   A15        1.93071  -0.00000   0.00000  -0.00000  -0.00000   1.93071
   A16        1.84332   0.00000   0.00000   0.00000   0.00000   1.84332
   A17        1.91145   0.00000   0.00000  -0.00000  -0.00000   1.91145
   A18        1.91553  -0.00000   0.00000   0.00000   0.00000   1.91553
   A19        1.87428  -0.00000   0.00000  -0.00000  -0.00000   1.87428
   A20        2.08659   0.00000   0.00000   0.00000   0.00000   2.08659
   A21        2.10752  -0.00000   0.00000   0.00000   0.00000   2.10752
   A22        2.05032  -0.00000   0.00000  -0.00000  -0.00000   2.05032
    D1       -1.01541   0.00000   0.00000   0.00000   0.00000  -1.01541
    D2        1.14382  -0.00000   0.00000   0.00000   0.00000   1.14382
    D3       -3.11664   0.00000   0.00000   0.00000  -0.00000  -3.11664
    D4       -1.18068   0.00000   0.00000   0.00000   0.00000  -1.18068
    D5        2.97911   0.00000   0.00000   0.00000   0.00000   2.97911
    D6        0.98098  -0.00000   0.00000   0.00000   0.00000   0.98098
    D7        2.99515   0.00000   0.00000   0.00000   0.00000   2.99516
    D8        0.87175   0.00000   0.00000   0.00000   0.00000   0.87175
    D9       -1.12637   0.00000   0.00000   0.00000   0.00000  -1.12637
   D10        0.94937  -0.00000   0.00000   0.00000   0.00000   0.94938
   D11       -1.17403  -0.00000   0.00000   0.00000   0.00000  -1.17403
   D12        3.11103  -0.00000   0.00000   0.00000   0.00000   3.11103
   D13        1.23732  -0.00000   0.00000   0.00000   0.00000   1.23732
   D14       -0.93233   0.00000   0.00000   0.00000   0.00000  -0.93233
   D15       -2.98582   0.00000   0.00000   0.00000   0.00000  -2.98582
   D16       -2.93223  -0.00000   0.00000   0.00000   0.00000  -2.93222
   D17        1.18130   0.00000   0.00000   0.00000   0.00000   1.18130
   D18       -0.87218   0.00000   0.00000   0.00000   0.00000  -0.87218
   D19       -0.90376  -0.00000   0.00000   0.00000   0.00000  -0.90376
   D20       -3.07342  -0.00000   0.00000   0.00000   0.00000  -3.07342
   D21        1.15628   0.00000   0.00000   0.00000   0.00000   1.15628
   D22       -0.74844  -0.00000   0.00000  -0.00001  -0.00001  -0.74845
   D23        2.69603  -0.00000   0.00000  -0.00001  -0.00001   2.69602
   D24        1.36700   0.00000   0.00000  -0.00001  -0.00001   1.36699
   D25       -1.47172  -0.00000   0.00000  -0.00001  -0.00001  -1.47172
   D26       -2.90490  -0.00000   0.00000  -0.00001  -0.00001  -2.90491
   D27        0.53957  -0.00000   0.00000  -0.00001  -0.00001   0.53956
         Item               Value     Threshold  Converged?
 Maximum Force            0.000000     0.000450     YES
 RMS     Force            0.000000     0.000300     YES
 Maximum Displacement     0.000010     0.001800     YES
 RMS     Displacement     0.000002     0.001200     YES
 Predicted change in Energy=-2.973523D-13
 Optimization completed.
    -- Stationary point found.
                           ----------------------------
                           !   Optimized Parameters   !
                           ! (Angstroms and Degrees)  !
 --------------------------                            --------------------------
 ! Name  Definition              Value          Derivative Info.                !
 --------------------------------------------------------------------------------
 ! R1    R(1,4)                  1.4129         -DE/DX =    0.0                 !
 ! R2    R(1,14)                 0.9619         -DE/DX =    0.0                 !
 ! R3    R(2,3)                  1.5322         -DE/DX =    0.0                 !
 ! R4    R(2,4)                  1.5229         -DE/DX =    0.0                 !
 ! R5    R(2,6)                  1.0921         -DE/DX =    0.0                 !
 ! R6    R(2,7)                  1.0928         -DE/DX =    0.0                 !
 ! R7    R(3,5)                  1.4882         -DE/DX =    0.0                 !
 ! R8    R(3,8)                  1.0992         -DE/DX =    0.0                 !
 ! R9    R(3,9)                  1.0935         -DE/DX =    0.0                 !
 ! R10   R(4,10)                 1.0972         -DE/DX =    0.0                 !
 ! R11   R(4,11)                 1.0896         -DE/DX =    0.0                 !
 ! R12   R(5,12)                 1.0816         -DE/DX =    0.0                 !
 ! R13   R(5,13)                 1.0799         -DE/DX =    0.0                 !
 ! A1    A(4,1,14)             108.6914         -DE/DX =    0.0                 !
 ! A2    A(3,2,4)              113.5559         -DE/DX =    0.0                 !
 ! A3    A(3,2,6)              108.9214         -DE/DX =    0.0                 !
 ! A4    A(3,2,7)              109.8888         -DE/DX =    0.0                 !
 ! A5    A(4,2,6)              108.2805         -DE/DX =    0.0                 !
 ! A6    A(4,2,7)              108.7464         -DE/DX =    0.0                 !
 ! A7    A(6,2,7)              107.2471         -DE/DX =    0.0                 !
 ! A8    A(2,3,5)              114.2282         -DE/DX =    0.0                 !
 ! A9    A(2,3,8)              108.2207         -DE/DX =    0.0                 !
 ! A10   A(2,3,9)              109.461          -DE/DX =    0.0                 !
 ! A11   A(5,3,8)              109.0477         -DE/DX =    0.0                 !
 ! A12   A(5,3,9)              110.0148         -DE/DX =    0.0                 !
 ! A13   A(8,3,9)              105.4856         -DE/DX =    0.0                 !
 ! A14   A(1,4,2)              113.7015         -DE/DX =    0.0                 !
 ! A15   A(1,4,10)             110.6216         -DE/DX =    0.0                 !
 ! A16   A(1,4,11)             105.6142         -DE/DX =    0.0                 !
 ! A17   A(2,4,10)             109.5181         -DE/DX =    0.0                 !
[...]
                    CP:  1.42D+00  1.39D+00  1.46D+00  1.40D+00  1.24D+00
 E= -232.961038920649     Delta-E=       -0.000000000006 Rises=F Damp=F
 DIIS: error= 1.59D-08 at cycle  11 NSaved=  11.
 NSaved=11 IEnMin=11 EnMin= -232.961038920649     IErMin=11 ErrMin= 1.59D-08
 ErrMax= 1.59D-08  0.00D+00 EMaxC= 1.00D-01 BMatC= 4.26D-13 BMatP= 9.04D-12
 IDIUse=1 WtCom= 1.00D+00 WtEn= 0.00D+00
 Coeff-Com:  0.861D-06 0.747D-05-0.652D-04-0.106D-03 0.122D-03 0.258D-02
 Coeff-Com:  0.209D-02-0.307D-01-0.380D-01 0.110D+00 0.954D+00
 Coeff:      0.861D-06 0.747D-05-0.652D-04-0.106D-03 0.122D-03 0.258D-02
 Coeff:      0.209D-02-0.307D-01-0.380D-01 0.110D+00 0.954D+00
 Gap=     0.260 Goal=   None    Shift=    0.000
 Gap=     0.332 Goal=   None    Shift=    0.000
 RMSDP=5.12D-09 MaxDP=2.63D-07 DE=-5.85D-12 OVMax= 3.49D-07

 SCF Done:  E(UM062X) =  -232.961038921     A.U. after   11 cycles
            NFock= 11  Conv=0.51D-08     -V/T= 2.0039
 <Sx>= 0.0000 <Sy>= 0.0000 <Sz>= 0.5000 <S**2>= 0.7553 S= 0.5027
 <L.S>= 0.000000000000E+00
 KE= 2.320552803646D+02 PE=-9.109777848394D+02 EE= 2.620916438295D+02
 Annihilation of the first spin contaminant:
 S**2 before annihilation     0.7553,   after     0.7500
 Leave Link  502 at Sat Mar  9 14:54:15 2019, MaxMem=   671088640 cpu:             702.6 elap:              35.2
 (Enter /shared/centos7/gaussian/g16/l701.exe)
 ... and contract with generalized density number  0.
 Compute integral first derivatives.
 Leave Link  701 at Sat Mar  9 14:54:15 2019, MaxMem=   671088640 cpu:               4.8 elap:               0.3
 (Enter /shared/centos7/gaussian/g16/l702.exe)
 L702 exits ... SP integral derivatives will be done elsewhere.
 Leave Link  702 at Sat Mar  9 14:54:15 2019, MaxMem=   671088640 cpu:               0.3 elap:               0.0
 (Enter /shared/centos7/gaussian/g16/l703.exe)
 Integral derivatives from FoFJK, PRISM(SPDF).
 Compute integral first derivatives, UseDBF=F ICtDFT=           0.
 Calling FoFJK, ICntrl=      2127 FMM=F ISym2X=0 I1Cent= 0 IOpClX= 1 NMat=1 NMatS=1 NMatT=0.
 FoFJK:  IHMeth= 1 ICntrl=    2127 DoSepK=F KAlg= 0 I1Cent=           0 FoldK=F
 IRaf=         0 NMat=       1 IRICut=       1 DoRegI=T DoRafI=F ISym2E= 0 IDoP0=0 IntGTp=1.
 FoFCou: FMM=F IPFlag=           0 FMFlag=      100000 FMFlg1=         800
         NFxFlg=           0 DoJE=F BraDBF=F KetDBF=F FulRan=T
         wScrn=  0.000000 ICntrl=      2127 IOpCl=  1 I1Cent=           0 NGrid=           0
         NMat0=    1 NMatS0=      1 NMatT0=    0 NMatD0=    1 NMtDS0=    0 NMtDT0=    0
 Symmetry not used in FoFCou.
 Leave Link  703 at Sat Mar  9 14:54:22 2019, MaxMem=   671088640 cpu:             135.1 elap:               6.8
 (Enter /shared/centos7/gaussian/g16/l716.exe)
 Dipole        =-2.15588484D-01-3.13781825D-01 5.13358574D-01
 ***** Axes restored to original set *****
 -------------------------------------------------------------------
 Center     Atomic                   Forces (Hartrees/Bohr)
 Number     Number              X              Y              Z
 -------------------------------------------------------------------
      1        8           0.000695795    0.000579651   -0.000139391
      2        6          -0.000454430   -0.000295660   -0.000479093
      3        6          -0.000210629    0.000449358   -0.000103730
      4        6           0.000964631   -0.000266513    0.000933529
      5        6           0.000199373    0.000626716   -0.000218709
      6        1          -0.000026440    0.000041498    0.000092008
      7        1           0.000070111    0.000016409   -0.000090439
      8        1          -0.000043025    0.000047880   -0.000183438
      9        1           0.000360695   -0.000684970   -0.000000590
     10        1          -0.000190197   -0.000085157   -0.000139134
     11        1          -0.000326209    0.000373731   -0.000421895
     12        1          -0.000216988   -0.000388731    0.000123248
     13        1          -0.000441556   -0.000134148    0.000437488
     14        1          -0.000381132   -0.000280064    0.000190145
 -------------------------------------------------------------------
 Cartesian Forces:  Max     0.000964631 RMS     0.000377940
 Leave Link  716 at Sat Mar  9 14:54:22 2019, MaxMem=   671088640 cpu:               0.5 elap:               0.0
 (Enter /shared/centos7/gaussian/g16/l103.exe)

 GradGradGradGradGradGradGradGradGradGradGradGradGradGradGradGradGradGrad
 Berny optimization.
 Using GEDIIS/GDIIS optimizer.
 FormGI is forming the generalized inverse of G from B-inverse, IUseBI=4.
 Internal  Forces:  Max     0.000877124 RMS     0.000290441
 Search for a local minimum.
 Step number   2 out of a maximum of   72 on scan point    27 out of    73
 All quantities printed in internal units (Hartrees-Bohrs-Radians)
 RMS Force = .27734D-03 SwitMx=.10000D-02 MixMth= 2
 Mixed Optimization -- En-DIIS/RFO-DIIS
 Update second derivatives using D2CorX and points    1    2
 DE= -1.24D-03 DEPred=-1.29D-03 R= 9.63D-01
 TightC=F SS=  1.41D+00  RLast= 1.96D-01 DXNew= 5.7192D-01 5.8882D-01
 Trust test= 9.63D-01 RLast= 1.96D-01 DXMaxT set to 5.72D-01
 ITU=  1  0
 Use linear search instead of GDIIS.
     Eigenvalues ---    0.00048   0.00109   0.00415   0.00665   0.03379
     Eigenvalues ---    0.03802   0.04128   0.04342   0.04500   0.06189
     Eigenvalues ---    0.07064   0.07693   0.08112   0.10131   0.10490
     Eigenvalues ---    0.11185   0.12812   0.13754   0.15448   0.19970
     Eigenvalues ---    0.21062   0.24287   0.28189   0.30891   0.31796
     Eigenvalues ---    0.32400   0.33473   0.33849   0.33988   0.34333
     Eigenvalues ---    0.35793   0.36592   0.37274   0.41398   0.53732
     Eigenvalues --- 1000.000001000.000001000.000001000.000001000.00000
     Eigenvalues --- 1000.000001000.000001000.000001000.000001000.00000
     Eigenvalues --- 1000.000001000.000001000.000001000.000001000.00000
     Eigenvalues --- 1000.000001000.000001000.000001000.000001000.00000
     Eigenvalues --- 1000.000001000.000001000.000001000.000001000.00000
     Eigenvalues --- 1000.000001000.00000
 RFO step:  Lambda=-2.18872114D-05 EMin= 4.82186530D-04
 Quartic linear search produced a step of -0.00271.
 Iteration  1 RMS(Cart)=  0.01344268 RMS(Int)=  0.00007620
 Iteration  2 RMS(Cart)=  0.00010667 RMS(Int)=  0.00000258
 Iteration  3 RMS(Cart)=  0.00000001 RMS(Int)=  0.00000258
 Iteration  1 RMS(Cart)=  0.00000026 RMS(Int)=  0.00000023
 ITry= 1 IFail=0 DXMaxC= 4.57D-02 DCOld= 1.00D+10 DXMaxT= 5.72D-01 DXLimC= 3.00D+00 Rises=F
 Variable       Old X    -DE/DX   Delta X   Delta X   Delta X     New X
                                 (Linear)    (Quad)   (Total)
    R1        2.68040  -0.00017  -0.00000   0.00039   0.00039   2.68079
    R2        1.80975   0.00002   0.00000   0.00008   0.00008   1.80983
    R3        2.89085  -0.00033  -0.00000  -0.00000  -0.00001   2.89085
    R4        2.87196  -0.00088  -0.00001  -0.00233  -0.00234   2.86962
    R5        2.06277   0.00010   0.00000   0.00018   0.00018   2.06295
    R6        2.06547  -0.00001  -0.00000  -0.00010  -0.00010   2.06537
    R7        2.80986  -0.00051  -0.00000  -0.00069  -0.00070   2.80917
    R8        2.07827  -0.00016  -0.00000  -0.00038  -0.00038   2.07789
    R9        2.07186  -0.00076  -0.00001  -0.00256  -0.00257   2.06929
   R10        2.07001   0.00001   0.00000   0.00019   0.00019   2.07020
   R11        2.06840  -0.00007   0.00000  -0.00021  -0.00021   2.06819
   R12        2.03739   0.00036   0.00000   0.00092   0.00092   2.03831
   R13        2.04173  -0.00058  -0.00001  -0.00162  -0.00163   2.04010
    A1        1.91411  -0.00009  -0.00001  -0.00033  -0.00034   1.91377
    A2        1.99500  -0.00070  -0.00000  -0.00322  -0.00322   1.99177
    A3        1.90179   0.00025   0.00000   0.00082   0.00082   1.90261
    A4        1.92152   0.00011  -0.00000  -0.00061  -0.00062   1.92090
    A5        1.88934   0.00027   0.00000   0.00340   0.00341   1.89275
    A6        1.88483   0.00018   0.00000  -0.00089  -0.00089   1.88394
    A7        1.86694  -0.00008   0.00000   0.00079   0.00079   1.86773
    A8        2.00119  -0.00061  -0.00001  -0.00239  -0.00240   1.99879
    A9        1.88290   0.00026   0.00000   0.00151   0.00152   1.88442
   A10        1.90363   0.00030   0.00000   0.00125   0.00125   1.90488
   A11        1.91717   0.00018   0.00000   0.00084   0.00084   1.91801
   A12        1.91890   0.00002  -0.00000  -0.00138  -0.00138   1.91752
   A13        1.83215  -0.00011  -0.00000   0.00048   0.00047   1.83262
   A14        1.90457  -0.00058  -0.00010  -0.00242  -0.00252   1.90205
   A15        1.93375  -0.00007   0.00008  -0.00127  -0.00119   1.93255
   A16        1.91628   0.00012   0.00010  -0.00011  -0.00001   1.91628
   A17        1.91119   0.00040  -0.00003   0.00238   0.00235   1.91354
   A18        1.91030   0.00051  -0.00021   0.00330   0.00309   1.91339
   A19        1.88761  -0.00038   0.00015  -0.00178  -0.00163   1.88598
   A20        2.10320  -0.00021  -0.00000  -0.00250  -0.00250   2.10070
   A21        2.10245  -0.00014  -0.00000  -0.00048  -0.00048   2.10197
   A22        2.06190   0.00036   0.00001   0.00271   0.00272   2.06462
    D1       -2.76825  -0.00020  -0.00027   0.00249   0.00223  -2.76603
    D2       -0.66266  -0.00011  -0.00032   0.00308   0.00277  -0.65989
    D3        1.42122  -0.00055  -0.00000   0.00000  -0.00000   1.42122
    D4       -1.11099   0.00018  -0.00000   0.01637   0.01637  -1.09462
    D5        3.03020   0.00017  -0.00001   0.01577   0.01577   3.04597
    D6        1.04919   0.00000  -0.00001   0.01381   0.01380   1.06299
    D7        3.05623   0.00012  -0.00000   0.01356   0.01355   3.06979
    D8        0.91424   0.00011  -0.00001   0.01296   0.01295   0.92719
    D9       -1.06677  -0.00006  -0.00001   0.01099   0.01098  -1.05579
   D10        1.01385   0.00001  -0.00001   0.01247   0.01246   1.02631
   D11       -1.12815  -0.00001  -0.00001   0.01187   0.01187  -1.11628
   D12       -3.10915  -0.00017  -0.00001   0.00991   0.00989  -3.09926
   D13        1.34278  -0.00020  -0.00000   0.01101   0.01101   1.35380
   D14       -0.77657  -0.00001  -0.00002   0.01261   0.01260  -0.76397
   D15       -2.84301  -0.00009  -0.00006   0.01140   0.01134  -2.83167
   D16       -2.81758  -0.00015  -0.00000   0.01241   0.01241  -2.80517
   D17        1.34625   0.00004  -0.00002   0.01401   0.01400   1.36025
   D18       -0.72019  -0.00004  -0.00006   0.01280   0.01274  -0.70745
   D19       -0.80207  -0.00001   0.00000   0.01464   0.01464  -0.78743
   D20       -2.92142   0.00018  -0.00001   0.01624   0.01623  -2.90520
   D21        1.29532   0.00010  -0.00005   0.01503   0.01497   1.31029
   D22       -0.50487   0.00001   0.00004  -0.01715  -0.01711  -0.52198
   D23        2.82931  -0.00006  -0.00001  -0.01585  -0.01586   2.81345
   D24        1.61853   0.00005   0.00004  -0.01623  -0.01618   1.60235
   D25       -1.33048  -0.00001  -0.00001  -0.01492  -0.01493  -1.34541
   D26       -2.65689   0.00004   0.00004  -0.01596  -0.01592  -2.67280
   D27        0.67729  -0.00003  -0.00001  -0.01465  -0.01466   0.66262
         Item               Value     Threshold  Converged?
 Maximum Force            0.000877     0.000450     NO 
 RMS     Force            0.000277     0.000300     YES
 Maximum Displacement     0.045662     0.001800     NO 
 RMS     Displacement     0.013441     0.001200     NO 
 Predicted change in Energy=-1.115938D-05
 Lowest energy point so far.  Saving SCF results.
 GradGradGradGradGradGradGradGradGradGradGradGradGradGradGradGradGradGrad

 Leave Link  103 at Sat Mar  9 14:54:22 2019, MaxMem=   671088640 cpu:               0.6 elap:               0.1
 (Enter /shared/centos7/gaussian/g16/l202.exe)
                          Input orientation:                          
 ---------------------------------------------------------------------
 Center     Atomic      Atomic             Coordinates (Angstroms)
 Number     Number       Type             X           Y           Z
 ---------------------------------------------------------------------
      1          8           0        1.374699   -1.536193   -0.741552
      2          6           0        2.287447   -0.558163    1.240868
      3          6           0        3.456914    0.274548    0.712536
      4          6           0        1.094653   -0.618065    0.302992
      5          6           0        4.067947   -0.244400   -0.539324
      6          1           0        1.956626   -0.141934    2.194310
      7          1           0        2.614512   -1.582705    1.435473
      8          1           0        4.217641    0.331790    1.504422
      9          1           0        3.124201    1.307164    0.563947
     10          1           0        0.893907    0.380018   -0.101552
     11          1           0        0.208339   -0.944653    0.855788
     12          1           0        4.060730   -1.301852   -0.751887
     13          1           0        4.676995    0.397691   -1.157597
     14          1           0        0.814015   -1.347870   -1.494807
 ---------------------------------------------------------------------
                    Distance matrix (angstroms):
                    1          2          3          4          5
     1  O    0.000000
     2  C    2.391577   0.000000
     3  C    3.119099   1.529771   0.000000
     4  C    1.418610   1.518537   2.558273   0.000000
     5  C    2.993862   2.537265   1.486547   3.112811   0.000000
     6  H    3.301800   1.091668   2.149413   2.132318   3.455565
     7  H    2.505740   1.092945   2.163717   2.126738   2.793449
     8  H    4.076282   2.141758   1.099574   3.478320   2.128685
     9  H    3.584656   2.153561   1.095021   2.809567   2.124903
    10  H    2.076686   2.150402   2.691258   1.095502   3.264363
    11  H    2.064415   2.149500   3.472782   1.094439   4.163324
    12  H    2.696254   2.769238   2.234764   3.221482   1.078629
    13  H    3.849436   3.517987   2.236327   3.999781   1.079575
    14  H    0.957719   3.206019   3.806511   1.960473   3.566324
                    6          7          8          9         10
     6  H    0.000000
     7  H    1.756266   0.000000
     8  H    2.410922   2.498013   0.000000
     9  H    2.474105   3.061157   1.741108   0.000000
    10  H    2.583174   3.029061   3.691704   2.505334   0.000000
    11  H    2.343610   2.555937   4.257292   3.695687   1.772359
    12  H    3.801676   2.637228   2.790043   3.068464   3.644227
    13  H    4.350504   3.860028   2.702165   2.490386   3.927760
    14  H    4.045915   3.447242   4.837489   4.077332   2.221068
                   11         12         13         14
    11  H    0.000000
    12  H    4.189645   0.000000
    13  H    5.081781   1.852790   0.000000
    14  H    2.460634   3.330947   4.252448   0.000000
 Stoichiometry    C4H9O(2)
 Framework group  C1[X(C4H9O)]
 Deg. of freedom    36
 Full point group                 C1      NOp   1
 RotChk:  IX=0 Diff= 8.03D-03
 Largest Abelian subgroup         C1      NOp   1
 Largest concise Abelian subgroup C1      NOp   1
                         Standard orientation:                         
 ---------------------------------------------------------------------
 Center     Atomic      Atomic             Coordinates (Angstroms)
 Number     Number       Type             X           Y           Z
 ---------------------------------------------------------------------
      1          8           0       -1.453378    0.882977   -0.191537
      2          6           0        0.005809   -1.004073   -0.363161
      3          6           0        1.334510   -0.467561    0.172476
      4          6           0       -1.219166   -0.420007    0.318203
      5          6           0        1.533671    0.992680   -0.022088
      6          1           0       -0.015029   -2.088657   -0.240761
      7          1           0       -0.075889   -0.801484   -1.434055
      8          1           0        2.146959   -1.024399   -0.316322
      9          1           0        1.419871   -0.716388    1.235429
     10          1           0       -1.058490   -0.389483    1.401427
     11          1           0       -2.087604   -1.056446    0.121841
     12          1           0        1.084667    1.496847   -0.863308
     13          1           0        2.265750    1.527618    0.563901
     14          1           0       -1.982155    1.382339    0.431566
 ---------------------------------------------------------------------
 Rotational constants (GHZ):           7.6303777           3.7573138           2.8194148
 Leave Link  202 at Sat Mar  9 14:54:22 2019, MaxMem=   671088640 cpu:               0.2 elap:               0.0
 (Enter /shared/centos7/gaussian/g16/l301.exe)
 Standard basis: 6-311+G(2df,2p) (5D, 7F)
 Ernie: Thresh=  0.10000D-02 Tol=  0.10000D-05 Strict=F.
 There are   276 symmetry adapted cartesian basis functions of A   symmetry.
 There are   251 symmetry adapted basis functions of A   symmetry.
   251 basis functions,   359 primitive gaussians,   276 cartesian basis functions
    21 alpha electrons       20 beta electrons
       nuclear repulsion energy       184.0323009627 Hartrees.
 IExCor= 4336 DFT=T Ex+Corr=M062X ExCW=0 ScaHFX=  0.540000
 ScaDFX=  1.000000  1.000000  1.000000  1.000000 ScalE2=  1.000000  1.000000
 IRadAn=      5 IRanWt=     -1 IRanGd=            0 ICorTp=0 IEmpDi=  4
 NAtoms=   14 NActive=   14 NUniq=   14 SFac= 1.00D+00 NAtFMM=   60 NAOKFM=F Big=F
 Integral buffers will be    131072 words long.
 Raffenetti 2 integral format.
 Two-electron integral symmetry is turned on.
 Leave Link  301 at Sat Mar  9 14:54:22 2019, MaxMem=   671088640 cpu:               1.2 elap:               0.1
 (Enter /shared/centos7/gaussian/g16/l302.exe)
 NPDir=0 NMtPBC=     1 NCelOv=     1 NCel=       1 NClECP=     1 NCelD=      1
         NCelK=      1 NCelE2=     1 NClLst=     1 CellRange=     0.0.
 One-electron integrals computed using PRISM.
 One-electron integral symmetry used in STVInt
 NBasis=   251 RedAO= T EigKep=  5.05D-05  NBF=   251
 NBsUse=   251 1.00D-06 EigRej= -1.00D+00 NBFU=   251
 Precomputing XC quadrature grid using
 IXCGrd= 4 IRadAn=           5 IRanWt=          -1 IRanGd=           0 AccXCQ= 0.00D+00.
 Generated NRdTot=       0 NPtTot=           0 NUsed=           0 NTot=          32
 NSgBfM=   276   276   276   276   276 MxSgAt=    14 MxSgA2=    14.
 Leave Link  302 at Sat Mar  9 14:54:22 2019, MaxMem=   671088640 cpu:               5.4 elap:               0.3
 (Enter /shared/centos7/gaussian/g16/l303.exe)
 DipDrv:  MaxL=1.
 Leave Link  303 at Sat Mar  9 14:54:22 2019, MaxMem=   671088640 cpu:               0.5 elap:               0.0
 (Enter /shared/centos7/gaussian/g16/l401.exe)
 Initial guess from the checkpoint file:  "/scratch/underkoffler.c/gaussian_scratch/Gau-656.chk"
 B after Tr=     0.000000    0.000000   -0.000000
         Rot=    0.999997    0.000819   -0.000944   -0.002095 Ang=   0.28 deg.
 Guess basis will be translated and rotated to current coordinates.
 JPrj=2 DoOrth=T DoCkMO=T.
 Initial guess <Sx>= 0.0000 <Sy>= 0.0000 <Sz>= 0.5000 <S**2>= 0.7553 S= 0.5027
 Generating alternative initial guess.
 ExpMin= 4.38D-02 ExpMax= 8.59D+03 ExpMxC= 1.30D+03 IAcc=2 IRadAn=         4 AccDes= 0.00D+00
 Harris functional with IExCor= 1009 and IRadAn=       4 diagonalized for initial guess.
 HarFok:  IExCor= 1009 AccDes= 0.00D+00 IRadAn=         4 IDoV= 1 UseB2=F ITyADJ=14
 ICtDFT=  3500011 ScaDFX=  1.000000  1.000000  1.000000  1.000000
 FoFCou: FMM=F IPFlag=           0 FMFlag=      100000 FMFlg1=           0
         NFxFlg=           0 DoJE=T BraDBF=F KetDBF=T FulRan=T
         wScrn=  0.000000 ICntrl=       500 IOpCl=  0 I1Cent=   200000004 NGrid=           0
         NMat0=    1 NMatS0=      1 NMatT0=    0 NMatD0=    1 NMtDS0=    0 NMtDT0=    0
 Petite list used in FoFCou.
 Harris En= -232.887560200548    
 Leave Link  401 at Sat Mar  9 14:54:23 2019, MaxMem=   671088640 cpu:              16.7 elap:               0.9
