 Entering Gaussian System, Link 0=g16
 Input=GIXGVIVAHMJKNP-UHFFFAOYSA-N_72by10.0_tor24_a1.com
 Output=GIXGVIVAHMJKNP-UHFFFAOYSA-N_72by10.0_tor24_a1.log
 Initial command:
 /shared/centos7/gaussian/g16/l1.exe "/scratch/underkoffler.c/gaussian_scratch/Gau-18893.inp" -scrdir="/scratch/underkoffler.c/gaussian_scratch/"
 Entering Link 1 = /shared/centos7/gaussian/g16/l1.exe PID=     18894.
  
 Copyright (c) 1988,1990,1992,1993,1995,1998,2003,2009,2016,
            Gaussian, Inc.  All Rights Reserved.
  
 This is part of the Gaussian(R) 16 program.  It is based on
 the Gaussian(R) 09 system (copyright 2009, Gaussian, Inc.),
 the Gaussian(R) 03 system (copyright 2003, Gaussian, Inc.),
 the Gaussian(R) 98 system (copyright 1998, Gaussian, Inc.),
 the Gaussian(R) 94 system (copyright 1995, Gaussian, Inc.),
 the Gaussian 92(TM) system (copyright 1992, Gaussian, Inc.),
 the Gaussian 90(TM) system (copyright 1990, Gaussian, Inc.),
 the Gaussian 88(TM) system (copyright 1988, Gaussian, Inc.),
 the Gaussian 86(TM) system (copyright 1986, Carnegie Mellon
 University), and the Gaussian 82(TM) system (copyright 1983,
 Carnegie Mellon University). Gaussian is a federally registered
 trademark of Gaussian, Inc.
  
 This software contains proprietary and confidential information,
 including trade secrets, belonging to Gaussian, Inc.
  
 This software is provided under written license and may be
 used, copied, transmitted, or stored only in accord with that
 written license.
  
 The following legend is applicable only to US Government
 contracts under FAR:
  
                    RESTRICTED RIGHTS LEGEND
  
 Use, reproduction and disclosure by the US Government is
 subject to restrictions as set forth in subparagraphs (a)
 and (c) of the Commercial Computer Software - Restricted
 Rights clause in FAR 52.227-19.
  
 Gaussian, Inc.
 340 Quinnipiac St., Bldg. 40, Wallingford CT 06492
  
  
 ---------------------------------------------------------------
 Warning -- This program may not be used in any manner that
 competes with the business of Gaussian, Inc. or will provide
 assistance to any competitor of Gaussian, Inc.  The licensee
 of this program is prohibited from giving any competitor of
 Gaussian, Inc. access to this program.  By using this program,
 the user acknowledges that Gaussian, Inc. is engaged in the
 business of creating and licensing software in the field of
 computational chemistry and represents and warrants to the
 licensee that it is not a competitor of Gaussian, Inc. and that
 it will not use this program in any manner prohibited above.
 ---------------------------------------------------------------
  

 Cite this work as:
 Gaussian 16, Revision A.03,
 M. J. Frisch, G. W. Trucks, H. B. Schlegel, G. E. Scuseria, 
 M. A. Robb, J. R. Cheeseman, G. Scalmani, V. Barone, 
 G. A. Petersson, H. Nakatsuji, X. Li, M. Caricato, A. V. Marenich, 
 J. Bloino, B. G. Janesko, R. Gomperts, B. Mennucci, H. P. Hratchian, 
 J. V. Ortiz, A. F. Izmaylov, J. L. Sonnenberg, D. Williams-Young, 
 F. Ding, F. Lipparini, F. Egidi, J. Goings, B. Peng, A. Petrone, 
 T. Henderson, D. Ranasinghe, V. G. Zakrzewski, J. Gao, N. Rega, 
 G. Zheng, W. Liang, M. Hada, M. Ehara, K. Toyota, R. Fukuda, 
 J. Hasegawa, M. Ishida, T. Nakajima, Y. Honda, O. Kitao, H. Nakai, 
 T. Vreven, K. Throssell, J. A. Montgomery, Jr., J. E. Peralta, 
 F. Ogliaro, M. J. Bearpark, J. J. Heyd, E. N. Brothers, K. N. Kudin, 
 V. N. Staroverov, T. A. Keith, R. Kobayashi, J. Normand, 
 K. Raghavachari, A. P. Rendell, J. C. Burant, S. S. Iyengar, 
 J. Tomasi, M. Cossi, J. M. Millam, M. Klene, C. Adamo, R. Cammi, 
 J. W. Ochterski, R. L. Martin, K. Morokuma, O. Farkas, 
 J. B. Foresman, and D. J. Fox, Gaussian, Inc., Wallingford CT, 2016.
 
 ******************************************
 Gaussian 16:  EM64L-G16RevA.03 25-Dec-2016
                 9-Mar-2019 
 ******************************************
 %nprocshared=20
 Will use up to   20 processors via shared memory.
 %mem=5GB
 ----------------------------------------------
 #p m062x/6-311+g(2df,2p) Opt=(CalcFC,ModRedun)
 ----------------------------------------------
 1/10=4,18=120,19=15,26=3,38=1/1,3;
 2/9=110,12=2,17=6,18=5,40=1/2;
 3/5=4,6=6,7=214,11=2,25=1,30=1,71=2,74=-55,140=1/1,2,3;
 4//1;
 5/5=2,38=5/2;
 8/6=4,10=90,11=11/1;
 11/6=1,8=1,9=11,15=111,16=1/1,2,10;
 10/6=1,13=1/2;
 6/7=2,8=2,9=2,10=2,28=1/1;
 7/10=1,18=20,25=1/1,2,3,16;
 1/10=4,18=20,19=15,26=3/3(2);
 2/9=110/2;
 99//99;
 2/9=110/2;
 3/5=4,6=6,7=214,11=2,25=1,30=1,71=1,74=-55/1,2,3;
 4/5=5,16=3,69=1/1;
 5/5=2,38=5/2;
 7//1,2,3,16;
 1/18=20,19=15,26=3/3(-5);
 2/9=110/2;
 6/7=2,8=2,9=2,10=2,19=2,28=1/1;
 99/9=1/99;
 Leave Link    1 at Sat Mar  9 13:21:35 2019, MaxMem=   671088640 cpu:              38.0 elap:               2.0
 (Enter /shared/centos7/gaussian/g16/l101.exe)
 ----------------------------------------
 Gaussian Input Prepared from Scan Object
 ----------------------------------------
 Symbolic Z-matrix:
 Charge =  0 Multiplicity = 2
 O                     57.39146  -18.75863  -2.87272 
 C                     54.21507  -16.77527  -3.28958 
 C                     56.51824  -17.91239  -3.60007 
 C                     54.3636  -15.56079  -4.2231 
 C                     55.51899  -17.23184  -2.73608 
 H                     53.75238  -17.591   -3.85362 
 H                     53.53198  -16.52156  -2.47839 
 H                     54.81006  -14.72045  -3.69189 
 H                     53.39519  -15.24617  -4.6111 
 H                     55.00592  -15.80112  -5.0705 
 H                     57.17513  -17.19031  -4.09865 
 H                     56.00229  -18.46701  -4.39522 
 H                     55.87471  -16.83373  -1.79329 
 H                     56.85774  -19.32192  -2.30736 
 
 The following ModRedundant input section has been read:
 B       4       8 B                                                           
 B       5      13 B                                                           
 B       1      14 B                                                           
 B       4      10 B                                                           
 B       2       4 B                                                           
 B       2       6 B                                                           
 B       4       9 B                                                           
 B       1       3 B                                                           
 B       3      11 B                                                           
 B       2       7 B                                                           
 B       3      12 B                                                           
 B       3       5 B                                                           
 B       2       5 B                                                           
 D      14       3       5      13 S  72 10.000                                
 
 ITRead=  0  0  0  0  0  0  0  0  0  0  0  0  0  0
 MicOpt= -1 -1 -1 -1 -1 -1 -1 -1 -1 -1 -1 -1 -1 -1
 NAtoms=     14 NQM=       14 NQMF=       0 NMMI=      0 NMMIF=      0
                NMic=       0 NMicF=      0.
                    Isotopes and Nuclear Properties:
 (Nuclear quadrupole moments (NQMom) in fm**2, nuclear magnetic moments (NMagM)
  in nuclear magnetons)

  Atom         1           2           3           4           5           6           7           8           9          10
 IAtWgt=          16          12          12          12          12           1           1           1           1           1
 AtmWgt=  15.9949146  12.0000000  12.0000000  12.0000000  12.0000000   1.0078250   1.0078250   1.0078250   1.0078250   1.0078250
 NucSpn=           0           0           0           0           0           1           1           1           1           1
 AtZEff=  -0.0000000  -0.0000000  -0.0000000  -0.0000000  -0.0000000  -0.0000000  -0.0000000  -0.0000000  -0.0000000  -0.0000000
 NQMom=    0.0000000   0.0000000   0.0000000   0.0000000   0.0000000   0.0000000   0.0000000   0.0000000   0.0000000   0.0000000
 NMagM=    0.0000000   0.0000000   0.0000000   0.0000000   0.0000000   2.7928460   2.7928460   2.7928460   2.7928460   2.7928460
 AtZNuc=   8.0000000   6.0000000   6.0000000   6.0000000   6.0000000   1.0000000   1.0000000   1.0000000   1.0000000   1.0000000

  Atom        11          12          13          14
 IAtWgt=           1           1           1           1
 AtmWgt=   1.0078250   1.0078250   1.0078250   1.0078250
 NucSpn=           1           1           1           1
 AtZEff=  -0.0000000  -0.0000000  -0.0000000  -0.0000000
 NQMom=    0.0000000   0.0000000   0.0000000   0.0000000
 NMagM=    2.7928460   2.7928460   2.7928460   2.7928460
 AtZNuc=   1.0000000   1.0000000   1.0000000   1.0000000
 Leave Link  101 at Sat Mar  9 13:21:35 2019, MaxMem=   671088640 cpu:               6.1 elap:               0.3
 (Enter /shared/centos7/gaussian/g16/l103.exe)

 GradGradGradGradGradGradGradGradGradGradGradGradGradGradGradGradGradGrad
 Berny optimization.
 Initialization pass.
                           ----------------------------
                           !    Initial Parameters    !
                           ! (Angstroms and Degrees)  !
 --------------------------                            --------------------------
 ! Name  Definition              Value          Derivative Info.                !
 --------------------------------------------------------------------------------
 ! R1    R(1,3)                  1.4169         calculate D2E/DX2 analytically  !
 ! R2    R(1,14)                 0.9601         calculate D2E/DX2 analytically  !
 ! R3    R(2,4)                  1.539          calculate D2E/DX2 analytically  !
 ! R4    R(2,5)                  1.4883         calculate D2E/DX2 analytically  !
 ! R5    R(2,6)                  1.0944         calculate D2E/DX2 analytically  !
 ! R6    R(2,7)                  1.0904         calculate D2E/DX2 analytically  !
 ! R7    R(3,5)                  1.486          calculate D2E/DX2 analytically  !
 ! R8    R(3,11)                 1.0961         calculate D2E/DX2 analytically  !
 ! R9    R(3,12)                 1.0982         calculate D2E/DX2 analytically  !
 ! R10   R(4,8)                  1.0898         calculate D2E/DX2 analytically  !
 ! R11   R(4,9)                  1.0897         calculate D2E/DX2 analytically  !
 ! R12   R(4,10)                 1.0901         calculate D2E/DX2 analytically  !
 ! R13   R(5,13)                 1.0835         calculate D2E/DX2 analytically  !
 ! A1    A(3,1,14)             108.0639         calculate D2E/DX2 analytically  !
 ! A2    A(4,2,5)              112.5272         calculate D2E/DX2 analytically  !
 ! A3    A(4,2,6)              108.4448         calculate D2E/DX2 analytically  !
 ! A4    A(4,2,7)              109.1533         calculate D2E/DX2 analytically  !
 ! A5    A(5,2,6)              109.477          calculate D2E/DX2 analytically  !
 ! A6    A(5,2,7)              110.0935         calculate D2E/DX2 analytically  !
 ! A7    A(6,2,7)              106.9773         calculate D2E/DX2 analytically  !
 ! A8    A(1,3,5)              112.9221         calculate D2E/DX2 analytically  !
 ! A9    A(1,3,11)             104.9272         calculate D2E/DX2 analytically  !
 ! A10   A(1,3,12)             111.0747         calculate D2E/DX2 analytically  !
 ! A11   A(5,3,11)             111.4544         calculate D2E/DX2 analytically  !
 ! A12   A(5,3,12)             109.6549         calculate D2E/DX2 analytically  !
 ! A13   A(11,3,12)            106.5527         calculate D2E/DX2 analytically  !
 ! A14   A(2,4,8)              110.632          calculate D2E/DX2 analytically  !
 ! A15   A(2,4,9)              110.9816         calculate D2E/DX2 analytically  !
 ! A16   A(2,4,10)             110.7567         calculate D2E/DX2 analytically  !
 ! A17   A(8,4,9)              108.3611         calculate D2E/DX2 analytically  !
 ! A18   A(8,4,10)             107.9096         calculate D2E/DX2 analytically  !
 ! A19   A(9,4,10)             108.0903         calculate D2E/DX2 analytically  !
 ! A20   A(2,5,3)              120.8908         calculate D2E/DX2 analytically  !
 ! A21   A(2,5,13)             119.9036         calculate D2E/DX2 analytically  !
 ! A22   A(3,5,13)             116.9652         calculate D2E/DX2 analytically  !
 ! D1    D(14,1,3,5)            49.5356         calculate D2E/DX2 analytically  !
 ! D2    D(14,1,3,11)          171.1178         calculate D2E/DX2 analytically  !
 ! D3    D(14,1,3,12)          -74.1287         calculate D2E/DX2 analytically  !
 ! D4    D(5,2,4,8)            -59.5077         calculate D2E/DX2 analytically  !
 ! D5    D(5,2,4,9)           -179.8314         calculate D2E/DX2 analytically  !
 ! D6    D(5,2,4,10)            60.1026         calculate D2E/DX2 analytically  !
 ! D7    D(6,2,4,8)            179.2368         calculate D2E/DX2 analytically  !
 ! D8    D(6,2,4,9)             58.913          calculate D2E/DX2 analytically  !
 ! D9    D(6,2,4,10)           -61.1529         calculate D2E/DX2 analytically  !
 ! D10   D(7,2,4,8)             63.0254         calculate D2E/DX2 analytically  !
 ! D11   D(7,2,4,9)            -57.2983         calculate D2E/DX2 analytically  !
 ! D12   D(7,2,4,10)          -177.3643         calculate D2E/DX2 analytically  !
 ! D13   D(4,2,5,3)            -71.3971         calculate D2E/DX2 analytically  !
 ! D14   D(4,2,5,13)            91.0859         calculate D2E/DX2 analytically  !
 ! D15   D(6,2,5,3)             49.2673         calculate D2E/DX2 analytically  !
 ! D16   D(6,2,5,13)          -148.2497         calculate D2E/DX2 analytically  !
 ! D17   D(7,2,5,3)            166.6007         calculate D2E/DX2 analytically  !
 ! D18   D(7,2,5,13)           -30.9163         calculate D2E/DX2 analytically  !
 ! D19   D(1,3,5,2)           -154.6198         calculate D2E/DX2 analytically  !
 ! D20   D(1,3,5,13)            42.4024         calculate D2E/DX2 analytically  !
 ! D21   D(11,3,5,2)            87.5611         calculate D2E/DX2 analytically  !
 ! D22   D(11,3,5,13)          -75.4167         calculate D2E/DX2 analytically  !
 ! D23   D(12,3,5,2)           -30.1757         calculate D2E/DX2 analytically  !
 ! D24   D(12,3,5,13)          166.8466         calculate D2E/DX2 analytically  !
 ! D25   D(14,3,5,13)           63.3934         Scan                            !
 --------------------------------------------------------------------------------
 Trust Radius=3.00D-01 FncErr=1.00D-07 GrdErr=1.00D-06 EigMax=2.50D+02 EigMin=1.00D-04
 Number of optimizations in scan=  73
 Number of steps in this run=     70 maximum allowed number of steps=    100.
 GradGradGradGradGradGradGradGradGradGradGradGradGradGradGradGradGradGrad

 Leave Link  103 at Sat Mar  9 13:21:35 2019, MaxMem=   671088640 cpu:               0.1 elap:               0.0
 (Enter /shared/centos7/gaussian/g16/l202.exe)
                          Input orientation:                          
 ---------------------------------------------------------------------
 Center     Atomic      Atomic             Coordinates (Angstroms)
 Number     Number       Type             X           Y           Z
 ---------------------------------------------------------------------
      1          8           0       57.391462  -18.758629   -2.872721
      2          6           0       54.215071  -16.775273   -3.289580
      3          6           0       56.518235  -17.912391   -3.600069
      4          6           0       54.363599  -15.560790   -4.223104
      5          6           0       55.518989  -17.231840   -2.736077
      6          1           0       53.752382  -17.591004   -3.853617
      7          1           0       53.531977  -16.521562   -2.478393
      8          1           0       54.810057  -14.720446   -3.691886
      9          1           0       53.395190  -15.246168   -4.611099
     10          1           0       55.005919  -15.801123   -5.070502
     11          1           0       57.175131  -17.190312   -4.098648
     12          1           0       56.002293  -18.467014   -4.395223
     13          1           0       55.874707  -16.833731   -1.793285
     14          1           0       56.857737  -19.321919   -2.307365
 ---------------------------------------------------------------------
                    Distance matrix (angstroms):
                    1          2          3          4          5
     1  O    0.000000
     2  C    3.767883   0.000000
     3  C    1.416926   2.587278   0.000000
     4  C    4.606264   1.538992   3.249717   0.000000
     5  C    2.419899   1.488296   1.485975   2.517655   0.000000
     6  H    3.945682   1.094366   2.795982   2.152180   2.121037
     7  H    4.478347   1.090418   3.479985   2.158401   2.125821
     8  H    4.862264   2.176734   3.621438   1.089814   2.779075
     9  H    5.597279   2.181003   4.228987   1.089652   3.459642
    10  H    4.389522   2.178553   2.984414   1.090146   2.785630
    11  H    2.002327   3.096579   1.096125   3.252006   2.145024
    12  H    2.081549   2.697888   1.098214   3.340821   2.124148
    13  H    2.677866   2.235332   2.200478   3.131748   1.083458
    14  H    0.960097   3.799189   1.942451   4.902742   2.518823
                    6          7          8          9         10
     6  H    0.000000
     7  H    1.755998   0.000000
     8  H    3.063484   2.519935   0.000000
     9  H    2.489904   2.488729   1.767253   0.000000
    10  H    2.501167   3.067665   1.762614   1.764504   0.000000
    11  H    3.454823   4.042897   3.443729   4.281385   2.753149
    12  H    2.474435   3.682592   3.994106   4.149390   2.925019
    13  H    3.053309   2.460732   3.033832   4.075344   3.544182
    14  H    3.876879   4.351084   5.223356   5.823072   4.843569
                   11         12         13         14
    11  H    0.000000
    12  H    1.758827   0.000000
    13  H    2.670758   3.074732   0.000000
    14  H    2.802353   2.412841   2.724281   0.000000
 Stoichiometry    C4H9O(2)
 Framework group  C1[X(C4H9O)]
 Deg. of freedom    36
 Full point group                 C1      NOp   1
 Largest Abelian subgroup         C1      NOp   1
 Largest concise Abelian subgroup C1      NOp   1
                         Standard orientation:                         
 ---------------------------------------------------------------------
 Center     Atomic      Atomic             Coordinates (Angstroms)
 Number     Number       Type             X           Y           Z
 ---------------------------------------------------------------------
      1          8           0        2.409217   -0.080021   -0.062110
      2          6           0       -1.272545    0.637289    0.294313
      3          6           0        1.062447   -0.467347    0.147341
      4          6           0       -2.174113   -0.532902   -0.137339
      5          6           0        0.087975    0.559694   -0.304008
      6          1           0       -1.192263    0.628228    1.385693
      7          1           0       -1.750223    1.577757    0.017993
      8          1           0       -2.289572   -0.549290   -1.220896
      9          1           0       -3.163296   -0.449690    0.312033
     10          1           0       -1.742584   -1.486215    0.168271
     11          1           0        0.947320   -1.402675   -0.412478
     12          1           0        0.880957   -0.710119    1.202897
     13          1           0        0.290399    1.046648   -1.250466
     14          1           0        2.522935    0.805118    0.291984
 ---------------------------------------------------------------------
 Rotational constants (GHZ):          14.7898991           2.2669444           2.1233039
 Leave Link  202 at Sat Mar  9 13:21:35 2019, MaxMem=   671088640 cpu:               0.2 elap:               0.0
 (Enter /shared/centos7/gaussian/g16/l301.exe)
 Standard basis: 6-311+G(2df,2p) (5D, 7F)
 Ernie: Thresh=  0.10000D-02 Tol=  0.10000D-05 Strict=F.
 There are   276 symmetry adapted cartesian basis functions of A   symmetry.
 There are   251 symmetry adapted basis functions of A   symmetry.
   251 basis functions,   359 primitive gaussians,   276 cartesian basis functions
    21 alpha electrons       20 beta electrons
       nuclear repulsion energy       177.7157679985 Hartrees.
 IExCor= 4336 DFT=T Ex+Corr=M062X ExCW=0 ScaHFX=  0.540000
 ScaDFX=  1.000000  1.000000  1.000000  1.000000 ScalE2=  1.000000  1.000000
 IRadAn=      5 IRanWt=     -1 IRanGd=            0 ICorTp=0 IEmpDi=  4
 NAtoms=   14 NActive=   14 NUniq=   14 SFac= 1.00D+00 NAtFMM=   60 NAOKFM=F Big=F
 Integral buffers will be    131072 words long.
 Raffenetti 2 integral format.
 Two-electron integral symmetry is turned on.
 Leave Link  301 at Sat Mar  9 13:21:35 2019, MaxMem=   671088640 cpu:               0.9 elap:               0.1
 (Enter /shared/centos7/gaussian/g16/l302.exe)
 NPDir=0 NMtPBC=     1 NCelOv=     1 NCel=       1 NClECP=     1 NCelD=      1
         NCelK=      1 NCelE2=     1 NClLst=     1 CellRange=     0.0.
 One-electron integrals computed using PRISM.
 One-electron integral symmetry used in STVInt
 NBasis=   251 RedAO= T EigKep=  5.39D-05  NBF=   251
 NBsUse=   251 1.00D-06 EigRej= -1.00D+00 NBFU=   251
 Precomputing XC quadrature grid using
 IXCGrd= 4 IRadAn=           5 IRanWt=          -1 IRanGd=           0 AccXCQ= 0.00D+00.
 Generated NRdTot=       0 NPtTot=           0 NUsed=           0 NTot=          32
 NSgBfM=   276   276   276   276   276 MxSgAt=    14 MxSgA2=    14.
 Leave Link  302 at Sat Mar  9 13:21:36 2019, MaxMem=   671088640 cpu:               6.9 elap:               0.4
 (Enter /shared/centos7/gaussian/g16/l303.exe)
 DipDrv:  MaxL=1.
 Leave Link  303 at Sat Mar  9 13:21:36 2019, MaxMem=   671088640 cpu:               0.7 elap:               0.1
 (Enter /shared/centos7/gaussian/g16/l401.exe)
 ExpMin= 4.38D-02 ExpMax= 8.59D+03 ExpMxC= 1.30D+03 IAcc=3 IRadAn=         5 AccDes= 0.00D+00
 Harris functional with IExCor= 1009 and IRadAn=       5 diagonalized for initial guess.
 HarFok:  IExCor= 1009 AccDes= 0.00D+00 IRadAn=         5 IDoV= 1 UseB2=F ITyADJ=14
 ICtDFT=  3500011 ScaDFX=  1.000000  1.000000  1.000000  1.000000
 FoFCou: FMM=F IPFlag=           0 FMFlag=      100000 FMFlg1=           0
         NFxFlg=           0 DoJE=T BraDBF=F KetDBF=T FulRan=T
         wScrn=  0.000000 ICntrl=       500 IOpCl=  0 I1Cent=   200000004 NGrid=           0
         NMat0=    1 NMatS0=      1 NMatT0=    0 NMatD0=    1 NMtDS0=    0 NMtDT0=    0
 Petite list used in FoFCou.
 Harris En= -232.901273811292    
 JPrj=0 DoOrth=F DoCkMO=F.
 Initial guess <Sx>= 0.0000 <Sy>= 0.0000 <Sz>= 0.5000 <S**2>= 0.7500 S= 0.5000
 Leave Link  401 at Sat Mar  9 13:21:37 2019, MaxMem=   671088640 cpu:              16.2 elap:               0.8
 (Enter /shared/centos7/gaussian/g16/l502.exe)
 Integral symmetry usage will be decided dynamically.
 UHF open shell SCF:
 Using DIIS extrapolation, IDIIS=  1040.
 NGot=   671088640 LenX=   670928170 LenY=   670851553
 Requested convergence on RMS density matrix=1.00D-08 within 128 cycles.
 Requested convergence on MAX density matrix=1.00D-06.
 Requested convergence on             energy=1.00D-06.
 No special actions if energy rises.
 Fock matrices will be formed incrementally for  20 cycles.

 Cycle   1  Pass 1  IDiag  1:
 FoFJK:  IHMeth= 1 ICntrl=       0 DoSepK=F KAlg= 0 I1Cent=           0 FoldK=F
 IRaf= 970000000 NMat=       1 IRICut=       1 DoRegI=T DoRafI=F ISym2E= 0 IDoP0=0 IntGTp=1.
 FoFCou: FMM=F IPFlag=           0 FMFlag=      100000 FMFlg1=           0
         NFxFlg=           0 DoJE=F BraDBF=F KetDBF=F FulRan=T
         wScrn=  0.000000 ICntrl=         0 IOpCl=  1 I1Cent=           0 NGrid=           0
         NMat0=    1 NMatS0=      1 NMatT0=    0 NMatD0=    1 NMtDS0=    0 NMtDT0=    0
 Symmetry not used in FoFCou.
 E= -232.771054008762    
 DIIS: error= 2.32D-02 at cycle   1 NSaved=   1.
 NSaved= 1 IEnMin= 1 EnMin= -232.771054008762     IErMin= 1 ErrMin= 2.32D-02
 ErrMax= 2.32D-02  0.00D+00 EMaxC= 1.00D-01 BMatC= 9.34D-01 BMatP= 9.34D-01
 IDIUse=3 WtCom= 7.68D-01 WtEn= 2.32D-01
 Coeff-Com:  0.100D+01
 Coeff-En:   0.100D+01
 Coeff:      0.100D+01
 Gap=     0.213 Goal=   None    Shift=    0.000
 Gap=     0.322 Goal=   None    Shift=    0.000
 GapD=    0.213 DampG=1.000 DampE=0.500 DampFc=0.5000 IDamp=-1.
 Damping current iteration by 5.00D-01
 RMSDP=4.04D-03 MaxDP=3.69D-01              OVMax= 1.57D-01

 Cycle   2  Pass 1  IDiag  1:
 RMSU=  2.01D-03    CP:  1.01D+00
 E= -232.868839795584     Delta-E=       -0.097785786822 Rises=F Damp=T
 DIIS: error= 5.23D-03 at cycle   2 NSaved=   2.
 NSaved= 2 IEnMin= 2 EnMin= -232.868839795584     IErMin= 2 ErrMin= 5.23D-03
 ErrMax= 5.23D-03  0.00D+00 EMaxC= 1.00D-01 BMatC= 5.73D-02 BMatP= 9.34D-01
 IDIUse=3 WtCom= 9.48D-01 WtEn= 5.23D-02
 Coeff-Com: -0.784D-01 0.108D+01
 Coeff-En:   0.000D+00 0.100D+01
 Coeff:     -0.743D-01 0.107D+01
 Gap=     0.269 Goal=   None    Shift=    0.000
 Gap=     0.341 Goal=   None    Shift=    0.000
 RMSDP=1.33D-03 MaxDP=1.35D-01 DE=-9.78D-02 OVMax= 8.04D-02

 Cycle   3  Pass 1  IDiag  1:
 RMSU=  1.21D-03    CP:  9.85D-01  7.57D-01
 E= -232.964393960153     Delta-E=       -0.095554164569 Rises=F Damp=F
 DIIS: error= 3.17D-03 at cycle   3 NSaved=   3.
 NSaved= 3 IEnMin= 3 EnMin= -232.964393960153     IErMin= 3 ErrMin= 3.17D-03
 ErrMax= 3.17D-03  0.00D+00 EMaxC= 1.00D-01 BMatC= 1.19D-02 BMatP= 5.73D-02
 IDIUse=3 WtCom= 9.68D-01 WtEn= 3.17D-02
 Coeff-Com: -0.735D-01 0.295D+00 0.779D+00
 Coeff-En:   0.000D+00 0.000D+00 0.100D+01
 Coeff:     -0.712D-01 0.285D+00 0.786D+00
 Gap=     0.270 Goal=   None    Shift=    0.000
 Gap=     0.312 Goal=   None    Shift=    0.000
 RMSDP=2.77D-04 MaxDP=2.07D-02 DE=-9.56D-02 OVMax= 1.36D-02

 Cycle   4  Pass 1  IDiag  1:
 RMSU=  2.28D-04    CP:  9.88D-01  8.34D-01  1.01D+00
 E= -232.966103296602     Delta-E=       -0.001709336449 Rises=F Damp=F
 DIIS: error= 1.55D-03 at cycle   4 NSaved=   4.
 NSaved= 4 IEnMin= 4 EnMin= -232.966103296602     IErMin= 4 ErrMin= 1.55D-03
 ErrMax= 1.55D-03  0.00D+00 EMaxC= 1.00D-01 BMatC= 2.91D-03 BMatP= 1.19D-02
 IDIUse=3 WtCom= 9.84D-01 WtEn= 1.55D-02
 Coeff-Com: -0.276D-01 0.660D-01 0.376D+00 0.585D+00
 Coeff-En:   0.000D+00 0.000D+00 0.654D-01 0.935D+00
 Coeff:     -0.272D-01 0.650D-01 0.372D+00 0.591D+00
 Gap=     0.266 Goal=   None    Shift=    0.000
 Gap=     0.318 Goal=   None    Shift=    0.000
 RMSDP=1.29D-04 MaxDP=1.37D-02 DE=-1.71D-03 OVMax= 6.69D-03

 Cycle   5  Pass 1  IDiag  1:
 RMSU=  8.52D-05    CP:  9.84D-01  8.07D-01  1.05D+00  7.48D-01
 E= -232.966680398788     Delta-E=       -0.000577102187 Rises=F Damp=F
 DIIS: error= 3.26D-04 at cycle   5 NSaved=   5.
 NSaved= 5 IEnMin= 5 EnMin= -232.966680398788     IErMin= 5 ErrMin= 3.26D-04
 ErrMax= 3.26D-04  0.00D+00 EMaxC= 1.00D-01 BMatC= 1.23D-04 BMatP= 2.91D-03
 IDIUse=3 WtCom= 9.97D-01 WtEn= 3.26D-03
 Coeff-Com:  0.424D-03-0.110D-01 0.104D-01 0.148D+00 0.852D+00
 Coeff-En:   0.000D+00 0.000D+00 0.000D+00 0.000D+00 0.100D+01
 Coeff:      0.422D-03-0.110D-01 0.103D-01 0.147D+00 0.853D+00
 Gap=     0.268 Goal=   None    Shift=    0.000
 Gap=     0.318 Goal=   None    Shift=    0.000
 RMSDP=4.01D-05 MaxDP=3.09D-03 DE=-5.77D-04 OVMax= 2.83D-03

 Cycle   6  Pass 1  IDiag  1:
 RMSU=  3.33D-05    CP:  9.85D-01  8.07D-01  1.05D+00  8.42D-01  9.95D-01
 E= -232.966727656852     Delta-E=       -0.000047258064 Rises=F Damp=F
 DIIS: error= 8.82D-05 at cycle   6 NSaved=   6.
 NSaved= 6 IEnMin= 6 EnMin= -232.966727656852     IErMin= 6 ErrMin= 8.82D-05
 ErrMax= 8.82D-05  0.00D+00 EMaxC= 1.00D-01 BMatC= 1.26D-05 BMatP= 1.23D-04
 IDIUse=1 WtCom= 1.00D+00 WtEn= 0.00D+00
 Coeff-Com:  0.376D-02-0.934D-02-0.520D-01-0.840D-01-0.449D-02 0.115D+01
 Coeff:      0.376D-02-0.934D-02-0.520D-01-0.840D-01-0.449D-02 0.115D+01
 Gap=     0.268 Goal=   None    Shift=    0.000
 Gap=     0.319 Goal=   None    Shift=    0.000
 RMSDP=2.24D-05 MaxDP=1.11D-03 DE=-4.73D-05 OVMax= 1.87D-03

 Cycle   7  Pass 1  IDiag  1:
 RMSU=  1.29D-05    CP:  9.85D-01  8.03D-01  1.05D+00  8.67D-01  1.13D+00
                    CP:  1.29D+00
 E= -232.966736282875     Delta-E=       -0.000008626023 Rises=F Damp=F
 DIIS: error= 4.06D-05 at cycle   7 NSaved=   7.
 NSaved= 7 IEnMin= 7 EnMin= -232.966736282875     IErMin= 7 ErrMin= 4.06D-05
 ErrMax= 4.06D-05  0.00D+00 EMaxC= 1.00D-01 BMatC= 2.66D-06 BMatP= 1.26D-05
 IDIUse=1 WtCom= 1.00D+00 WtEn= 0.00D+00
 Coeff-Com:  0.123D-02-0.211D-02-0.203D-01-0.477D-01-0.905D-01 0.438D+00
 Coeff-Com:  0.721D+00
 Coeff:      0.123D-02-0.211D-02-0.203D-01-0.477D-01-0.905D-01 0.438D+00
 Coeff:      0.721D+00
 Gap=     0.268 Goal=   None    Shift=    0.000
 Gap=     0.319 Goal=   None    Shift=    0.000
 RMSDP=5.85D-06 MaxDP=2.96D-04 DE=-8.63D-06 OVMax= 3.46D-04

 Cycle   8  Pass 1  IDiag  1:
 RMSU=  3.81D-06    CP:  9.85D-01  8.03D-01  1.05D+00  8.64D-01  1.13D+00
                    CP:  1.40D+00  1.11D+00
 E= -232.966737157524     Delta-E=       -0.000000874649 Rises=F Damp=F
 DIIS: error= 8.54D-06 at cycle   8 NSaved=   8.
 NSaved= 8 IEnMin= 8 EnMin= -232.966737157524     IErMin= 8 ErrMin= 8.54D-06
 ErrMax= 8.54D-06  0.00D+00 EMaxC= 1.00D-01 BMatC= 1.59D-07 BMatP= 2.66D-06
 IDIUse=1 WtCom= 1.00D+00 WtEn= 0.00D+00
 Coeff-Com: -0.334D-03 0.877D-03 0.302D-02 0.181D-02-0.134D-01-0.616D-01
 Coeff-Com:  0.111D+00 0.958D+00
 Coeff:     -0.334D-03 0.877D-03 0.302D-02 0.181D-02-0.134D-01-0.616D-01
 Coeff:      0.111D+00 0.958D+00
 Gap=     0.268 Goal=   None    Shift=    0.000
 Gap=     0.319 Goal=   None    Shift=    0.000
 RMSDP=3.45D-06 MaxDP=2.19D-04 DE=-8.75D-07 OVMax= 1.65D-04

 Cycle   9  Pass 1  IDiag  1:
 RMSU=  1.46D-06    CP:  9.85D-01  8.03D-01  1.05D+00  8.60D-01  1.12D+00
                    CP:  1.43D+00  1.25D+00  1.34D+00
 E= -232.966737230751     Delta-E=       -0.000000073227 Rises=F Damp=F
 DIIS: error= 3.35D-06 at cycle   9 NSaved=   9.
 NSaved= 9 IEnMin= 9 EnMin= -232.966737230751     IErMin= 9 ErrMin= 3.35D-06
 ErrMax= 3.35D-06  0.00D+00 EMaxC= 1.00D-01 BMatC= 1.72D-08 BMatP= 1.59D-07
 IDIUse=1 WtCom= 1.00D+00 WtEn= 0.00D+00
 Coeff-Com: -0.190D-03 0.397D-03 0.265D-02 0.493D-02 0.664D-02-0.568D-01
 Coeff-Com: -0.563D-01 0.207D+00 0.892D+00
 Coeff:     -0.190D-03 0.397D-03 0.265D-02 0.493D-02 0.664D-02-0.568D-01
 Coeff:     -0.563D-01 0.207D+00 0.892D+00
 Gap=     0.268 Goal=   None    Shift=    0.000
 Gap=     0.319 Goal=   None    Shift=    0.000
 RMSDP=1.01D-06 MaxDP=5.24D-05 DE=-7.32D-08 OVMax= 5.03D-05

 Cycle  10  Pass 1  IDiag  1:
 RMSU=  3.98D-07    CP:  9.85D-01  8.03D-01  1.05D+00  8.59D-01  1.12D+00
                    CP:  1.43D+00  1.28D+00  1.49D+00  1.14D+00
 E= -232.966737238215     Delta-E=       -0.000000007464 Rises=F Damp=F
 DIIS: error= 8.75D-07 at cycle  10 NSaved=  10.
 NSaved=10 IEnMin=10 EnMin= -232.966737238215     IErMin=10 ErrMin= 8.75D-07
 ErrMax= 8.75D-07  0.00D+00 EMaxC= 1.00D-01 BMatC= 8.01D-10 BMatP= 1.72D-08
 IDIUse=1 WtCom= 1.00D+00 WtEn= 0.00D+00
 Coeff-Com:  0.199D-04-0.459D-04-0.651D-04 0.154D-03 0.140D-02 0.103D-02
 Coeff-Com: -0.119D-01-0.574D-01 0.467D-01 0.102D+01
 Coeff:      0.199D-04-0.459D-04-0.651D-04 0.154D-03 0.140D-02 0.103D-02
 Coeff:     -0.119D-01-0.574D-01 0.467D-01 0.102D+01
 Gap=     0.268 Goal=   None    Shift=    0.000
 Gap=     0.319 Goal=   None    Shift=    0.000
 RMSDP=2.78D-07 MaxDP=1.64D-05 DE=-7.46D-09 OVMax= 1.34D-05

 Cycle  11  Pass 1  IDiag  1:
 RMSU=  9.79D-08    CP:  9.85D-01  8.03D-01  1.05D+00  8.59D-01  1.12D+00
                    CP:  1.43D+00  1.28D+00  1.53D+00  1.22D+00  1.25D+00
 E= -232.966737238699     Delta-E=       -0.000000000485 Rises=F Damp=F
 DIIS: error= 2.29D-07 at cycle  11 NSaved=  11.
 NSaved=11 IEnMin=11 EnMin= -232.966737238699     IErMin=11 ErrMin= 2.29D-07
 ErrMax= 2.29D-07  0.00D+00 EMaxC= 1.00D-01 BMatC= 8.44D-11 BMatP= 8.01D-10
 IDIUse=1 WtCom= 1.00D+00 WtEn= 0.00D+00
 Coeff-Com:  0.164D-04-0.357D-04-0.192D-03-0.292D-03-0.183D-03 0.380D-02
 Coeff-Com:  0.167D-02-0.226D-01-0.473D-01 0.166D+00 0.899D+00
 Coeff:      0.164D-04-0.357D-04-0.192D-03-0.292D-03-0.183D-03 0.380D-02
 Coeff:      0.167D-02-0.226D-01-0.473D-01 0.166D+00 0.899D+00
 Gap=     0.268 Goal=   None    Shift=    0.000
 Gap=     0.319 Goal=   None    Shift=    0.000
 RMSDP=5.52D-08 MaxDP=3.00D-06 DE=-4.85D-10 OVMax= 3.53D-06

 Cycle  12  Pass 1  IDiag  1:
 RMSU=  2.69D-08    CP:  9.85D-01  8.03D-01  1.05D+00  8.59D-01  1.12D+00
                    CP:  1.43D+00  1.28D+00  1.54D+00  1.23D+00  1.33D+00
                    CP:  1.23D+00
 E= -232.966737238742     Delta-E=       -0.000000000043 Rises=F Damp=F
 DIIS: error= 9.25D-08 at cycle  12 NSaved=  12.
 NSaved=12 IEnMin=12 EnMin= -232.966737238742     IErMin=12 ErrMin= 9.25D-08
 ErrMax= 9.25D-08  0.00D+00 EMaxC= 1.00D-01 BMatC= 1.73D-11 BMatP= 8.44D-11
 IDIUse=1 WtCom= 1.00D+00 WtEn= 0.00D+00
 Coeff-Com:  0.158D-05-0.370D-05-0.437D-04-0.902D-04-0.196D-03 0.896D-03
 Coeff-Com:  0.183D-02 0.478D-03-0.192D-01-0.853D-01 0.261D+00 0.841D+00
 Coeff:      0.158D-05-0.370D-05-0.437D-04-0.902D-04-0.196D-03 0.896D-03
 Coeff:      0.183D-02 0.478D-03-0.192D-01-0.853D-01 0.261D+00 0.841D+00
 Gap=     0.268 Goal=   None    Shift=    0.000
 Gap=     0.319 Goal=   None    Shift=    0.000
 RMSDP=2.33D-08 MaxDP=1.16D-06 DE=-4.25D-11 OVMax= 1.36D-06

 Cycle  13  Pass 1  IDiag  1:
 RMSU=  1.07D-08    CP:  9.85D-01  8.03D-01  1.05D+00  8.59D-01  1.12D+00
                    CP:  1.43D+00  1.28D+00  1.54D+00  1.22D+00  1.34D+00
                    CP:  1.35D+00  1.28D+00
 E= -232.966737238746     Delta-E=       -0.000000000005 Rises=F Damp=F
 DIIS: error= 2.93D-08 at cycle  13 NSaved=  13.
 NSaved=13 IEnMin=13 EnMin= -232.966737238746     IErMin=13 ErrMin= 2.93D-08
 ErrMax= 2.93D-08  0.00D+00 EMaxC= 1.00D-01 BMatC= 1.39D-12 BMatP= 1.73D-11
 IDIUse=1 WtCom= 1.00D+00 WtEn= 0.00D+00
 Coeff-Com: -0.184D-05 0.384D-05 0.158D-04 0.224D-04 0.213D-07-0.313D-03
 Coeff-Com:  0.251D-04 0.273D-02 0.329D-02-0.332D-01-0.685D-01 0.140D+00
 Coeff-Com:  0.956D+00
 Coeff:     -0.184D-05 0.384D-05 0.158D-04 0.224D-04 0.213D-07-0.313D-03
 Coeff:      0.251D-04 0.273D-02 0.329D-02-0.332D-01-0.685D-01 0.140D+00
 Coeff:      0.956D+00
 Gap=     0.268 Goal=   None    Shift=    0.000
 Gap=     0.319 Goal=   None    Shift=    0.000
 RMSDP=1.07D-08 MaxDP=7.28D-07 DE=-4.60D-12 OVMax= 5.32D-07

 Cycle  14  Pass 1  IDiag  1:
 RMSU=  3.69D-09    CP:  9.85D-01  8.03D-01  1.05D+00  8.59D-01  1.12D+00
                    CP:  1.43D+00  1.28D+00  1.54D+00  1.22D+00  1.34D+00
                    CP:  1.40D+00  1.44D+00  1.28D+00
 E= -232.966737238756     Delta-E=       -0.000000000010 Rises=F Damp=F
 DIIS: error= 9.43D-09 at cycle  14 NSaved=  14.
 NSaved=14 IEnMin=14 EnMin= -232.966737238756     IErMin=14 ErrMin= 9.43D-09
 ErrMax= 9.43D-09  0.00D+00 EMaxC= 1.00D-01 BMatC= 8.04D-14 BMatP= 1.39D-12
 IDIUse=1 WtCom= 1.00D+00 WtEn= 0.00D+00
 Coeff-Com: -0.393D-07 0.170D-06 0.240D-05 0.481D-05 0.865D-05-0.510D-04
 Coeff-Com: -0.113D-03-0.311D-04 0.140D-02 0.546D-02-0.198D-01-0.603D-01
 Coeff-Com: -0.190D-01 0.109D+01
 Coeff:     -0.393D-07 0.170D-06 0.240D-05 0.481D-05 0.865D-05-0.510D-04
 Coeff:     -0.113D-03-0.311D-04 0.140D-02 0.546D-02-0.198D-01-0.603D-01
 Coeff:     -0.190D-01 0.109D+01
 Gap=     0.268 Goal=   None    Shift=    0.000
 Gap=     0.319 Goal=   None    Shift=    0.000
 RMSDP=3.85D-09 MaxDP=2.69D-07 DE=-1.02D-11 OVMax= 2.43D-07

 SCF Done:  E(UM062X) =  -232.966737239     A.U. after   14 cycles
            NFock= 14  Conv=0.38D-08     -V/T= 2.0039
 <Sx>= 0.0000 <Sy>= 0.0000 <Sz>= 0.5000 <S**2>= 0.7552 S= 0.5026
 <L.S>= 0.000000000000E+00
 KE= 2.320705438860D+02 PE=-8.984378141678D+02 EE= 2.556847650445D+02
 Annihilation of the first spin contaminant:
 S**2 before annihilation     0.7552,   after     0.7500
 Leave Link  502 at Sat Mar  9 13:22:18 2019, MaxMem=   671088640 cpu:             824.4 elap:              41.3
 (Enter /shared/centos7/gaussian/g16/l801.exe)
 DoSCS=F DFT=T ScalE2(SS,OS)=  1.000000  1.000000
 Range of M.O.s used for correlation:     1   251
 NBasis=   251 NAE=    21 NBE=    20 NFC=     0 NFV=     0
 NROrb=    251 NOA=    21 NOB=    20 NVA=   230 NVB=   231

 **** Warning!!: The largest alpha MO coefficient is  0.45317418D+02


 **** Warning!!: The largest beta MO coefficient is  0.57076623D+02

 Leave Link  801 at Sat Mar  9 13:22:18 2019, MaxMem=   671088640 cpu:               0.5 elap:               0.0
 (Enter /shared/centos7/gaussian/g16/l1101.exe)
 Using compressed storage, NAtomX=    14.
 Will process     15 centers per pass.
 Leave Link 1101 at Sat Mar  9 13:22:18 2019, MaxMem=   671088640 cpu:               5.8 elap:               0.4
 (Enter /shared/centos7/gaussian/g16/l1102.exe)
 Symmetrizing basis deriv contribution to polar:
 IMax=3 JMax=2 DiffMx= 0.00D+00
 Leave Link 1102 at Sat Mar  9 13:22:19 2019, MaxMem=   671088640 cpu:               1.5 elap:               0.1
 (Enter /shared/centos7/gaussian/g16/l1110.exe)
 Forming Gx(P) for the SCF density, NAtomX=    14.
 Integral derivatives from FoFJK, PRISM(SPDF).
 Do as many integral derivatives as possible in FoFJK.
 G2DrvN: MDV=     671087496.
 G2DrvN: will do    15 centers at a time, making    1 passes.
 Calling FoFCou, ICntrl=  3107 FMM=F I1Cent=   0 AccDes= 0.00D+00.
 FoFJK:  IHMeth= 1 ICntrl=    3107 DoSepK=F KAlg= 0 I1Cent=           0 FoldK=F
 IRaf=         0 NMat=       1 IRICut=       1 DoRegI=T DoRafI=F ISym2E= 0 IDoP0=0 IntGTp=1.
 FoFCou: FMM=F IPFlag=           0 FMFlag=      100000 FMFlg1=           0
         NFxFlg=           0 DoJE=F BraDBF=F KetDBF=F FulRan=T
         wScrn=  0.000000 ICntrl=      3107 IOpCl=  1 I1Cent=           0 NGrid=           0
         NMat0=    1 NMatS0=      1 NMatT0=    0 NMatD0=    1 NMtDS0=    0 NMtDT0=    0
 Symmetry not used in FoFCou.
 End of G2Drv F.D. properties file   721 does not exist.
 End of G2Drv F.D. properties file   722 does not exist.
 End of G2Drv F.D. properties file   788 does not exist.
 Leave Link 1110 at Sat Mar  9 13:23:38 2019, MaxMem=   671088640 cpu:            1582.7 elap:              79.2
 (Enter /shared/centos7/gaussian/g16/l1002.exe)
 Minotr:  UHF open shell wavefunction.
          IDoAtm=11111111111111
          Direct CPHF calculation.
          Differentiating once with respect to nuclear coordinates.
          Requested convergence is 1.0D-08 RMS, and 1.0D-07 maximum.
          Secondary convergence is 1.0D-12 RMS, and 1.0D-12 maximum.
          NewPWx=T KeepS1=F KeepF1=F KeepIn=T MapXYZ=F SortEE=F KeepMc=T.
         4250 words used for storage of precomputed grid.
 Two-electron integrals replicated using symmetry.
          MDV=     671088640 using IRadAn=       1.
          Solving linear equations simultaneously, MaxMat=     380.
 FoF2E skips out because all densities are zero.
 CalDSu exits because no D1Ps are significant.
 FoFJK:  IHMeth= 1 ICntrl=       0 DoSepK=F KAlg= 0 I1Cent=           0 FoldK=F
 IRaf= 960000000 NMat=      42 IRICut=     105 DoRegI=T DoRafI=T ISym2E= 2 IDoP0=3 IntGTp=3.
 FoFCou: FMM=F IPFlag=           0 FMFlag=      100000 FMFlg1=           0
         NFxFlg=           0 DoJE=F BraDBF=F KetDBF=F FulRan=T
         wScrn=  0.000000 ICntrl=         0 IOpCl=  1 I1Cent=           0 NGrid=           0
         NMat0=   42 NMatS0=     42 NMatT0=    0 NMatD0=   42 NMtDS0=    0 NMtDT0=    0
 Integrals replicated using symmetry in FoFCou.
 Raff kept on since  95.02% of shell-pairs survive, threshold=   0.20 IRatSp=95.
          There are    45 degrees of freedom in the 1st order CPHF.  IDoFFX=6 NUNeed=     0.
     39 vectors produced by pass  0 Test12= 2.10D-14 2.22D-09 XBig12= 1.44D-01 9.96D-02.
 AX will form    39 AO Fock derivatives at one time.
     39 vectors produced by pass  1 Test12= 2.10D-14 2.22D-09 XBig12= 1.23D-02 1.47D-02.
     39 vectors produced by pass  2 Test12= 2.10D-14 2.22D-09 XBig12= 5.90D-04 3.12D-03.
     39 vectors produced by pass  3 Test12= 2.10D-14 2.22D-09 XBig12= 1.30D-05 6.03D-04.
     39 vectors produced by pass  4 Test12= 2.10D-14 2.22D-09 XBig12= 2.04D-07 5.70D-05.
     39 vectors produced by pass  5 Test12= 2.10D-14 2.22D-09 XBig12= 3.18D-09 5.91D-06.
     37 vectors produced by pass  6 Test12= 2.10D-14 2.22D-09 XBig12= 2.43D-11 6.01D-07.
     15 vectors produced by pass  7 Test12= 2.10D-14 2.22D-09 XBig12= 1.60D-13 3.91D-08.
      1 vectors produced by pass  8 Test12= 2.10D-14 2.22D-09 XBig12= 9.50D-16 3.06D-09.
 InvSVY:  IOpt=1 It=  1 EMax= 2.33D-15
 Solved reduced A of dimension   287 with    39 vectors.
 End of Minotr F.D. properties file   721 does not exist.
 End of Minotr F.D. properties file   722 does not exist.
 End of Minotr F.D. properties file   788 does not exist.
 Leave Link 1002 at Sat Mar  9 13:25:44 2019, MaxMem=   671088640 cpu:            2523.6 elap:             126.2
 (Enter /shared/centos7/gaussian/g16/l601.exe)
 Copying SCF densities to generalized density rwf, IOpCl= 1 IROHF=0.

 **********************************************************************

            Population analysis using the SCF density.

 **********************************************************************

 Orbital symmetries:
 Alpha Orbitals:
       Occupied  (A) (A) (A) (A) (A) (A) (A) (A) (A) (A) (A) (A)
                 (A) (A) (A) (A) (A) (A) (A) (A) (A)
       Virtual   (A) (A) (A) (A) (A) (A) (A) (A) (A) (A) (A) (A)
                 (A) (A) (A) (A) (A) (A) (A) (A) (A) (A) (A) (A)
                 (A) (A) (A) (A) (A) (A) (A) (A) (A) (A) (A) (A)
                 (A) (A) (A) (A) (A) (A) (A) (A) (A) (A) (A) (A)
                 (A) (A) (A) (A) (A) (A) (A) (A) (A) (A) (A) (A)
                 (A) (A) (A) (A) (A) (A) (A) (A) (A) (A) (A) (A)
                 (A) (A) (A) (A) (A) (A) (A) (A) (A) (A) (A) (A)
                 (A) (A) (A) (A) (A) (A) (A) (A) (A) (A) (A) (A)
                 (A) (A) (A) (A) (A) (A) (A) (A) (A) (A) (A) (A)
                 (A) (A) (A) (A) (A) (A) (A) (A) (A) (A) (A) (A)
                 (A) (A) (A) (A) (A) (A) (A) (A) (A) (A) (A) (A)
                 (A) (A) (A) (A) (A) (A) (A) (A) (A) (A) (A) (A)
                 (A) (A) (A) (A) (A) (A) (A) (A) (A) (A) (A) (A)
                 (A) (A) (A) (A) (A) (A) (A) (A) (A) (A) (A) (A)
                 (A) (A) (A) (A) (A) (A) (A) (A) (A) (A) (A) (A)
                 (A) (A) (A) (A) (A) (A) (A) (A) (A) (A) (A) (A)
                 (A) (A) (A) (A) (A) (A) (A) (A) (A) (A) (A) (A)
                 (A) (A) (A) (A) (A) (A) (A) (A) (A) (A) (A) (A)
                 (A) (A) (A) (A) (A) (A) (A) (A) (A) (A) (A) (A)
                 (A) (A)
 Beta  Orbitals:
       Occupied  (A) (A) (A) (A) (A) (A) (A) (A) (A) (A) (A) (A)
                 (A) (A) (A) (A) (A) (A) (A) (A)
       Virtual   (A) (A) (A) (A) (A) (A) (A) (A) (A) (A) (A) (A)
                 (A) (A) (A) (A) (A) (A) (A) (A) (A) (A) (A) (A)
                 (A) (A) (A) (A) (A) (A) (A) (A) (A) (A) (A) (A)
                 (A) (A) (A) (A) (A) (A) (A) (A) (A) (A) (A) (A)
                 (A) (A) (A) (A) (A) (A) (A) (A) (A) (A) (A) (A)
                 (A) (A) (A) (A) (A) (A) (A) (A) (A) (A) (A) (A)
                 (A) (A) (A) (A) (A) (A) (A) (A) (A) (A) (A) (A)
                 (A) (A) (A) (A) (A) (A) (A) (A) (A) (A) (A) (A)
                 (A) (A) (A) (A) (A) (A) (A) (A) (A) (A) (A) (A)
                 (A) (A) (A) (A) (A) (A) (A) (A) (A) (A) (A) (A)
                 (A) (A) (A) (A) (A) (A) (A) (A) (A) (A) (A) (A)
                 (A) (A) (A) (A) (A) (A) (A) (A) (A) (A) (A) (A)
                 (A) (A) (A) (A) (A) (A) (A) (A) (A) (A) (A) (A)
                 (A) (A) (A) (A) (A) (A) (A) (A) (A) (A) (A) (A)
                 (A) (A) (A) (A) (A) (A) (A) (A) (A) (A) (A) (A)
                 (A) (A) (A) (A) (A) (A) (A) (A) (A) (A) (A) (A)
                 (A) (A) (A) (A) (A) (A) (A) (A) (A) (A) (A) (A)
                 (A) (A) (A) (A) (A) (A) (A) (A) (A) (A) (A) (A)
                 (A) (A) (A) (A) (A) (A) (A) (A) (A) (A) (A) (A)
                 (A) (A) (A)
 The electronic state is 2-A.
 Alpha  occ. eigenvalues --  -19.61973 -10.58370 -10.54577 -10.54141 -10.53132
 Alpha  occ. eigenvalues --   -1.14519  -0.90475  -0.81593  -0.73666  -0.66070
 Alpha  occ. eigenvalues --   -0.59200  -0.53085  -0.52305  -0.50678  -0.47889
 Alpha  occ. eigenvalues --   -0.45243  -0.43883  -0.40843  -0.39358  -0.35710
 Alpha  occ. eigenvalues --   -0.25400
 Alpha virt. eigenvalues --    0.01437   0.02989   0.03255   0.03671   0.05846
 Alpha virt. eigenvalues --    0.06445   0.07151   0.07419   0.08231   0.10497
 Alpha virt. eigenvalues --    0.11229   0.11704   0.12141   0.12627   0.14741
 Alpha virt. eigenvalues --    0.17336   0.18707   0.19939   0.21013   0.21503
 Alpha virt. eigenvalues --    0.22712   0.23421   0.24212   0.24985   0.26433
 Alpha virt. eigenvalues --    0.27086   0.28266   0.29514   0.31275   0.31946
 Alpha virt. eigenvalues --    0.32797   0.33574   0.35460   0.42042   0.42429
 Alpha virt. eigenvalues --    0.44764   0.45534   0.47756   0.49632   0.51607
 Alpha virt. eigenvalues --    0.53950   0.54217   0.55847   0.56110   0.58059
 Alpha virt. eigenvalues --    0.59086   0.60297   0.60879   0.62248   0.63628
 Alpha virt. eigenvalues --    0.64815   0.65632   0.67128   0.67873   0.68556
 Alpha virt. eigenvalues --    0.70539   0.73711   0.74377   0.78044   0.80028
 Alpha virt. eigenvalues --    0.82452   0.84659   0.87462   0.89593   0.94375
 Alpha virt. eigenvalues --    0.95167   0.97278   0.98028   1.04008   1.04485
 Alpha virt. eigenvalues --    1.06991   1.09033   1.12728   1.13413   1.16288
 Alpha virt. eigenvalues --    1.17091   1.17956   1.18728   1.19728   1.21380
 Alpha virt. eigenvalues --    1.21821   1.23015   1.26524   1.28328   1.29638
 Alpha virt. eigenvalues --    1.31629   1.31946   1.36309   1.36826   1.38631
 Alpha virt. eigenvalues --    1.39996   1.42439   1.42948   1.43682   1.46143
 Alpha virt. eigenvalues --    1.48032   1.49065   1.49718   1.52069   1.52358
 Alpha virt. eigenvalues --    1.55839   1.57815   1.59511   1.63182   1.65831
 Alpha virt. eigenvalues --    1.65906   1.70332   1.74621   1.78963   1.91773
 Alpha virt. eigenvalues --    2.06084   2.10350   2.26489   2.31498   2.38157
 Alpha virt. eigenvalues --    2.42712   2.48124   2.52349   2.53305   2.58407
 Alpha virt. eigenvalues --    2.60898   2.62938   2.71976   2.73696   2.80745
 Alpha virt. eigenvalues --    2.83102   2.84544   2.86300   2.88258   2.89522
 Alpha virt. eigenvalues --    2.91827   2.97774   2.99034   3.01236   3.04194
 Alpha virt. eigenvalues --    3.08154   3.11550   3.13383   3.13532   3.15923
 Alpha virt. eigenvalues --    3.18293   3.22189   3.22717   3.25250   3.27760
 Alpha virt. eigenvalues --    3.32433   3.34727   3.35312   3.36810   3.38020
 Alpha virt. eigenvalues --    3.39821   3.43857   3.44644   3.51892   3.53425
 Alpha virt. eigenvalues --    3.54945   3.57643   3.58675   3.60442   3.65684
 Alpha virt. eigenvalues --    3.68224   3.68897   3.73929   3.76146   3.78397
 Alpha virt. eigenvalues --    3.82271   3.83942   3.87156   3.90060   3.91913
 Alpha virt. eigenvalues --    3.94382   3.97693   3.98402   4.00362   4.02094
 Alpha virt. eigenvalues --    4.06728   4.08321   4.11209   4.15099   4.17323
 Alpha virt. eigenvalues --    4.18270   4.22877   4.24811   4.25206   4.25968
 Alpha virt. eigenvalues --    4.30577   4.30864   4.34193   4.38214   4.40009
 Alpha virt. eigenvalues --    4.42927   4.44649   4.47901   4.53102   4.55549
 Alpha virt. eigenvalues --    4.56890   4.57418   4.62475   4.68073   4.76231
 Alpha virt. eigenvalues --    4.91255   5.02314   5.14926   5.22028   5.25628
 Alpha virt. eigenvalues --    5.31495   5.36127   5.39377   5.47327   5.52658
 Alpha virt. eigenvalues --    5.54774   5.57360   5.59517   5.59775   5.65249
 Alpha virt. eigenvalues --    5.68344   5.83921   5.95368   6.50875   6.97413
 Alpha virt. eigenvalues --    7.18987   7.20186   7.21370   7.52223   7.62962
 Alpha virt. eigenvalues --   24.18747  24.34082  24.44659  24.53059  50.12789
  Beta  occ. eigenvalues --  -19.61918 -10.58436 -10.54207 -10.53907 -10.53033
  Beta  occ. eigenvalues --   -1.14279  -0.89067  -0.80590  -0.72933  -0.64519
  Beta  occ. eigenvalues --   -0.58648  -0.52088  -0.52028  -0.49846  -0.47202
  Beta  occ. eigenvalues --   -0.44293  -0.43288  -0.40411  -0.38851  -0.35281
  Beta virt. eigenvalues --   -0.03405   0.00960   0.03061   0.03309   0.03759
  Beta virt. eigenvalues --    0.05725   0.06372   0.06928   0.07280   0.08164
  Beta virt. eigenvalues --    0.10261   0.10729   0.11220   0.11635   0.12108
  Beta virt. eigenvalues --    0.14817   0.16991   0.18786   0.20096   0.21030
  Beta virt. eigenvalues --    0.21276   0.22664   0.23584   0.24766   0.25164
  Beta virt. eigenvalues --    0.26410   0.27276   0.28321   0.29654   0.31385
  Beta virt. eigenvalues --    0.32393   0.33044   0.33430   0.36028   0.42302
  Beta virt. eigenvalues --    0.42644   0.44995   0.45519   0.47858   0.50115
  Beta virt. eigenvalues --    0.52096   0.54148   0.54644   0.56010   0.56511
  Beta virt. eigenvalues --    0.58177   0.58793   0.60507   0.61239   0.62814
  Beta virt. eigenvalues --    0.64246   0.65074   0.65745   0.67271   0.67785
  Beta virt. eigenvalues --    0.68954   0.70695   0.73911   0.74347   0.78211
  Beta virt. eigenvalues --    0.79816   0.82096   0.84284   0.87534   0.89545
  Beta virt. eigenvalues --    0.94373   0.95189   0.97416   0.98243   1.04091
  Beta virt. eigenvalues --    1.04595   1.06884   1.08696   1.12956   1.13434
  Beta virt. eigenvalues --    1.16572   1.17216   1.18111   1.18726   1.19679
  Beta virt. eigenvalues --    1.21409   1.21754   1.23099   1.26294   1.28742
  Beta virt. eigenvalues --    1.29800   1.31766   1.32479   1.36168   1.37346
  Beta virt. eigenvalues --    1.38561   1.40273   1.42646   1.42901   1.43683
  Beta virt. eigenvalues --    1.46009   1.48321   1.49103   1.49730   1.52305
  Beta virt. eigenvalues --    1.52908   1.55853   1.57870   1.59695   1.63191
  Beta virt. eigenvalues --    1.65837   1.65994   1.70731   1.75198   1.79447
  Beta virt. eigenvalues --    1.92114   2.06546   2.10689   2.26520   2.31620
  Beta virt. eigenvalues --    2.38558   2.43078   2.48827   2.52993   2.53981
  Beta virt. eigenvalues --    2.58887   2.61726   2.63963   2.73615   2.75071
  Beta virt. eigenvalues --    2.81944   2.84472   2.87879   2.88898   2.90435
  Beta virt. eigenvalues --    2.92136   2.94030   2.98569   3.00691   3.02891
  Beta virt. eigenvalues --    3.05677   3.09029   3.13007   3.13829   3.15116
  Beta virt. eigenvalues --    3.16677   3.19758   3.23210   3.24611   3.27182
  Beta virt. eigenvalues --    3.28600   3.34141   3.35266   3.35890   3.37726
  Beta virt. eigenvalues --    3.40446   3.41774   3.45191   3.47566   3.54227
  Beta virt. eigenvalues --    3.54506   3.56734   3.57790   3.60070   3.62588
  Beta virt. eigenvalues --    3.67070   3.68942   3.69650   3.74524   3.76790
  Beta virt. eigenvalues --    3.78697   3.83713   3.85102   3.87577   3.90828
  Beta virt. eigenvalues --    3.92821   3.94806   3.98464   3.98802   4.01502
  Beta virt. eigenvalues --    4.02966   4.07821   4.09597   4.13339   4.15988
  Beta virt. eigenvalues --    4.18342   4.19329   4.23434   4.25455   4.25678
  Beta virt. eigenvalues --    4.27021   4.31592   4.32115   4.35427   4.39265
  Beta virt. eigenvalues --    4.41781   4.44872   4.45165   4.48462   4.53432
  Beta virt. eigenvalues --    4.56223   4.58166   4.58418   4.63328   4.69596
  Beta virt. eigenvalues --    4.79614   4.94439   5.04972   5.15890   5.22137
  Beta virt. eigenvalues --    5.25934   5.33056   5.36572   5.39488   5.49692
  Beta virt. eigenvalues --    5.54143   5.57336   5.58222   5.59598   5.60118
  Beta virt. eigenvalues --    5.65776   5.68451   5.84235   5.95484   6.50868
  Beta virt. eigenvalues --    6.97543   7.19144   7.20368   7.21520   7.52281
  Beta virt. eigenvalues --    7.63114  24.19566  24.34223  24.44696  24.53782
  Beta virt. eigenvalues --   50.12732
          Condensed to atoms (all electrons):
               1          2          3          4          5          6
     1  O    8.102699   0.032928   0.159273  -0.005370  -0.084284   0.000579
     2  C    0.032928   5.912330  -0.198750  -0.112319  -0.257322   0.462100
     3  C    0.159273  -0.198750   5.048501   0.081781   0.313970  -0.016008
     4  C   -0.005370  -0.112319   0.081781   5.249718   0.116083  -0.059401
     5  C   -0.084284  -0.257322   0.313970   0.116083   5.917318  -0.041396
     6  H    0.000579   0.462100  -0.016008  -0.059401  -0.041396   0.522054
     7  H   -0.000157   0.444177   0.017326  -0.028715  -0.062474  -0.026754
     8  H   -0.000070  -0.015608  -0.009151   0.412929  -0.008444   0.005584
     9  H    0.000048  -0.050193   0.000901   0.416011   0.021049  -0.002802
    10  H    0.000396  -0.011694   0.012932   0.412541  -0.036020  -0.007510
    11  H   -0.060153  -0.032422   0.439632   0.003480  -0.020610   0.000565
    12  H   -0.028389   0.090743   0.408999  -0.022619  -0.100285  -0.001993
    13  H    0.002895   0.004058  -0.034223  -0.009246   0.396843   0.003087
    14  H    0.241663  -0.010306  -0.027921   0.000004   0.026562   0.000160
               7          8          9         10         11         12
     1  O   -0.000157  -0.000070   0.000048   0.000396  -0.060153  -0.028389
     2  C    0.444177  -0.015608  -0.050193  -0.011694  -0.032422   0.090743
     3  C    0.017326  -0.009151   0.000901   0.012932   0.439632   0.408999
     4  C   -0.028715   0.412929   0.416011   0.412541   0.003480  -0.022619
     5  C   -0.062474  -0.008444   0.021049  -0.036020  -0.020610  -0.100285
     6  H   -0.026754   0.005584  -0.002802  -0.007510   0.000565  -0.001993
     7  H    0.522969  -0.006906  -0.004743   0.005666  -0.000612   0.000035
     8  H   -0.006906   0.538557  -0.024969  -0.034751   0.000554   0.000110
     9  H   -0.004743  -0.024969   0.535744  -0.025878   0.000002   0.000015
    10  H    0.005666  -0.034751  -0.025878   0.547919  -0.002454  -0.000660
    11  H   -0.000612   0.000554   0.000002  -0.002454   0.567209  -0.048088
    12  H    0.000035   0.000110   0.000015  -0.000660  -0.048088   0.563737
    13  H   -0.006127   0.000108  -0.000209   0.000316  -0.001927   0.003967
    14  H   -0.000167   0.000013   0.000002  -0.000043   0.009850  -0.007015
              13         14
     1  O    0.002895   0.241663
     2  C    0.004058  -0.010306
     3  C   -0.034223  -0.027921
     4  C   -0.009246   0.000004
     5  C    0.396843   0.026562
     6  H    0.003087   0.000160
     7  H   -0.006127  -0.000167
     8  H    0.000108   0.000013
     9  H   -0.000209   0.000002
    10  H    0.000316  -0.000043
    11  H   -0.001927   0.009850
    12  H    0.003967  -0.007015
    13  H    0.444861  -0.000969
    14  H   -0.000969   0.522765
          Atomic-Atomic Spin Densities.
               1          2          3          4          5          6
     1  O    0.043633   0.007205  -0.003834  -0.002412  -0.029011   0.000755
     2  C    0.007205  -0.005020   0.045972   0.009212  -0.156408   0.026198
     3  C   -0.003834   0.045972  -0.082151  -0.026419  -0.036161   0.012453
     4  C   -0.002412   0.009212  -0.026419   0.079256   0.010288  -0.004201
     5  C   -0.029011  -0.156408  -0.036161   0.010288   1.349675  -0.049754
     6  H    0.000755   0.026198   0.012453  -0.004201  -0.049754   0.023206
     7  H    0.000121   0.012574   0.001230  -0.007730  -0.014226   0.004387
     8  H    0.000007  -0.000125   0.003727   0.007965  -0.011322  -0.000111
     9  H    0.000024   0.003759  -0.000385  -0.006844   0.002018   0.001400
    10  H   -0.000062   0.002242  -0.000446  -0.001388  -0.001114  -0.000307
    11  H   -0.014443  -0.007549   0.027963   0.005063  -0.026560  -0.000857
    12  H    0.008572   0.012109   0.012082  -0.000922  -0.036187   0.002482
    13  H    0.002206   0.015300   0.005428  -0.002937  -0.023332   0.000199
    14  H   -0.003223   0.000291   0.011701   0.001143  -0.001751  -0.000089
               7          8          9         10         11         12
     1  O    0.000121   0.000007   0.000024  -0.000062  -0.014443   0.008572
     2  C    0.012574  -0.000125   0.003759   0.002242  -0.007549   0.012109
     3  C    0.001230   0.003727  -0.000385  -0.000446   0.027963   0.012082
     4  C   -0.007730   0.007965  -0.006844  -0.001388   0.005063  -0.000922
     5  C   -0.014226  -0.011322   0.002018  -0.001114  -0.026560  -0.036187
     6  H    0.004387  -0.000111   0.001400  -0.000307  -0.000857   0.002482
     7  H    0.008311   0.000202   0.000756  -0.000189  -0.000224   0.000246
     8  H    0.000202  -0.008780   0.000838   0.000111   0.000136  -0.000009
     9  H    0.000756   0.000838   0.003110   0.000268  -0.000161   0.000121
    10  H   -0.000189   0.000111   0.000268  -0.003359   0.000402  -0.000199
    11  H   -0.000224   0.000136  -0.000161   0.000402   0.066075  -0.011165
    12  H    0.000246  -0.000009   0.000121  -0.000199  -0.011165   0.026420
    13  H    0.000748   0.000032   0.000062   0.000029  -0.000600   0.000155
    14  H   -0.000010  -0.000001  -0.000002   0.000008   0.001391  -0.001575
              13         14
     1  O    0.002206  -0.003223
     2  C    0.015300   0.000291
     3  C    0.005428   0.011701
     4  C   -0.002937   0.001143
     5  C   -0.023332  -0.001751
     6  H    0.000199  -0.000089
     7  H    0.000748  -0.000010
     8  H    0.000032  -0.000001
     9  H    0.000062  -0.000002
    10  H    0.000029   0.000008
    11  H   -0.000600   0.001391
    12  H    0.000155  -0.001575
    13  H   -0.051237   0.000146
    14  H    0.000146  -0.004108
 Mulliken charges and spin densities:
               1          2
     1  O   -0.362059   0.009539
     2  C   -0.257720  -0.034240
     3  C   -0.197261  -0.028840
     4  C   -0.454877   0.060073
     5  C   -0.180992   0.976157
     6  H    0.161733   0.015761
     7  H    0.146482   0.006195
     8  H    0.142044  -0.007329
     9  H    0.135023   0.004962
    10  H    0.139238  -0.004002
    11  H    0.144976   0.039472
    12  H    0.141445   0.012131
    13  H    0.196567  -0.053800
    14  H    0.245401   0.003921
 Sum of Mulliken charges =  -0.00000   1.00000
 Mulliken charges and spin densities with hydrogens summed into heavy atoms:
               1          2
     1  O   -0.116658   0.013461
     2  C    0.050495  -0.012284
     3  C    0.089159   0.022763
     4  C   -0.038571   0.053704
     5  C    0.015575   0.922356
 APT charges:
               1
     1  O   -0.759734
     2  C   -0.883164
     3  C   -0.442034
     4  C   -1.175537
     5  C   -0.280654
     6  H    0.337689
     7  H    0.467099
     8  H    0.348299
     9  H    0.561821
    10  H    0.239848
    11  H    0.325750
    12  H    0.311401
    13  H    0.419703
    14  H    0.529514
 Sum of APT charges =  -0.00000
 APT charges with hydrogens summed into heavy atoms:
               1
     1  O   -0.230220
     2  C   -0.078375
     3  C    0.195117
     4  C   -0.025570
     5  C    0.139048
 Electronic spatial extent (au):  <R**2>=            602.7381
 Charge=             -0.0000 electrons
 Dipole moment (field-independent basis, Debye):
    X=             -1.6823    Y=              0.7561    Z=              0.6297  Tot=              1.9489
 Quadrupole moment (field-independent basis, Debye-Ang):
   XX=            -37.4188   YY=            -31.8737   ZZ=            -32.6064
   XY=              2.6666   XZ=              1.6571   YZ=              0.0521
 Traceless Quadrupole moment (field-independent basis, Debye-Ang):
   XX=             -3.4525   YY=              2.0926   ZZ=              1.3599
   XY=              2.6666   XZ=              1.6571   YZ=              0.0521
 Octapole moment (field-independent basis, Debye-Ang**2):
  XXX=             -6.3626  YYY=             -0.8479  ZZZ=              0.3438  XYY=              6.3002
  XXY=             10.9992  XXZ=              5.1322  XZZ=              2.7166  YZZ=              0.4529
  YYZ=             -0.6828  XYZ=              1.5842
 Hexadecapole moment (field-independent basis, Debye-Ang**3):
 XXXX=           -635.9590 YYYY=           -118.2681 ZZZZ=            -70.7345 XXXY=             26.8905
 XXXZ=              8.8834 YYYX=             -0.6535 YYYZ=             -0.5161 ZZZX=              1.8230
 ZZZY=             -0.7427 XXYY=           -113.1817 XXZZ=           -114.0365 YYZZ=            -31.6545
 XXYZ=              3.5183 YYXZ=              0.6460 ZZXY=              0.3930
 N-N= 1.777157679985D+02 E-N=-8.984378144140D+02  KE= 2.320705438860D+02
  Exact polarizability:   0.000   0.000   0.000   0.000   0.000   0.000
 Approx polarizability:  64.474   1.126  61.064  -0.876  -0.204  58.840
                          Isotropic Fermi Contact Couplings
        Atom                 a.u.       MegaHertz       Gauss      10(-4) cm-1
     1  O(17)              0.02922     -17.71165      -6.31996      -5.90797
     2  C(13)             -0.03189     -35.85431     -12.79371     -11.95971
     3  C(13)             -0.03512     -39.48664     -14.08982     -13.17133
     4  C(13)              0.07368      82.83317      29.55694      27.63017
     5  C(13)              0.17706     199.04436      71.02398      66.39405
     6  H(1)               0.00915      40.90259      14.59506      13.64363
     7  H(1)               0.00338      15.10646       5.39036       5.03897
     8  H(1)              -0.00070      -3.11499      -1.11151      -1.03905
     9  H(1)               0.00236      10.57100       3.77199       3.52610
    10  H(1)              -0.00077      -3.45501      -1.23283      -1.15247
    11  H(1)               0.02308     103.16551      36.81202      34.41231
    12  H(1)               0.00641      28.65646      10.22534       9.55877
    13  H(1)              -0.01381     -61.73499     -22.02858     -20.59258
    14  H(1)              -0.00070      -3.13829      -1.11982      -1.04682
 --------------------------------------------------------
       Center         ----  Spin Dipole Couplings  ----
                      3XX-RR        3YY-RR        3ZZ-RR
 --------------------------------------------------------
     1   Atom        0.084698     -0.019527     -0.065171
     2   Atom        0.007506     -0.001905     -0.005600
     3   Atom        0.002301      0.004525     -0.006826
     4   Atom        0.018131      0.015774     -0.033905
     5   Atom       -0.285888      0.305514     -0.019626
     6   Atom        0.003711     -0.008723      0.005012
     7   Atom        0.013522     -0.005302     -0.008219
     8   Atom        0.004943     -0.006391      0.001448
     9   Atom        0.008097     -0.003826     -0.004270
    10   Atom       -0.000543      0.008425     -0.007881
    11   Atom       -0.001482      0.011574     -0.010091
    12   Atom       -0.005346      0.002834      0.002512
    13   Atom       -0.052895     -0.003973      0.056868
    14   Atom        0.015354     -0.004926     -0.010428
 --------------------------------------------------------
                        XY            XZ            YZ
 --------------------------------------------------------
     1   Atom       -0.055564     -0.003297      0.000457
     2   Atom        0.006989     -0.001571      0.005015
     3   Atom       -0.015135     -0.005138      0.004184
     4   Atom        0.053478      0.009228      0.009953
     5   Atom        0.453489      0.352069      0.645839
     6   Atom        0.000615     -0.014184     -0.000685
     7   Atom       -0.009504     -0.002971      0.002542
     8   Atom        0.006468      0.006535      0.004507
     9   Atom        0.002583     -0.003928      0.000459
    10   Atom        0.006090     -0.001976     -0.003725
    11   Atom       -0.008480      0.002711      0.000597
    12   Atom       -0.006288      0.008384     -0.011709
    13   Atom        0.032165     -0.008907     -0.030659
    14   Atom        0.000862      0.005338      0.003444
 --------------------------------------------------------


 ---------------------------------------------------------------------------------
              Anisotropic Spin Dipole Couplings in Principal Axis System
 ---------------------------------------------------------------------------------

       Atom             a.u.   MegaHertz   Gauss  10(-4) cm-1        Axes

              Baa    -0.0653     4.723     1.685     1.575  0.0332  0.0303  0.9990
     1 O(17)  Bbb    -0.0436     3.152     1.125     1.051  0.3963  0.9172 -0.0410
              Bcc     0.1088    -7.874    -2.810    -2.627  0.9175 -0.3973 -0.0184
 
              Baa    -0.0108    -1.449    -0.517    -0.483  0.3043 -0.6380  0.7074
     2 C(13)  Bbb    -0.0005    -0.065    -0.023    -0.022 -0.3840  0.5974  0.7040
              Bcc     0.0113     1.515     0.540     0.505  0.8717  0.4859  0.0632
 
              Baa    -0.0120    -1.608    -0.574    -0.537  0.7454  0.6232  0.2367
     3 C(13)  Bbb    -0.0082    -1.100    -0.393    -0.367 -0.0201 -0.3339  0.9424
              Bcc     0.0202     2.709     0.966     0.903 -0.6664  0.7072  0.2363
 
              Baa    -0.0369    -4.950    -1.766    -1.651 -0.5770  0.6733 -0.4623
     4 C(13)  Bbb    -0.0353    -4.736    -1.690    -1.580 -0.4063  0.2544  0.8776
              Bcc     0.0722     9.685     3.456     3.231  0.7085  0.6942  0.1268
 
              Baa    -0.5319   -71.370   -25.467   -23.807  0.9131 -0.3794 -0.1492
     5 C(13)  Bbb    -0.5229   -70.171   -25.039   -23.407 -0.1061 -0.5746  0.8115
              Bcc     1.0548   141.541    50.505    47.213  0.3937  0.7252  0.5649
 
              Baa    -0.0098    -5.249    -1.873    -1.751  0.7223  0.0267  0.6911
     6 H(1)   Bbb    -0.0088    -4.670    -1.666    -1.558 -0.0426  0.9991  0.0059
              Bcc     0.0186     9.919     3.539     3.309 -0.6903 -0.0337  0.7227
 
              Baa    -0.0102    -5.456    -1.947    -1.820  0.2228  0.7510 -0.6216
     7 H(1)   Bbb    -0.0078    -4.156    -1.483    -1.386  0.3461  0.5352  0.7706
              Bcc     0.0180     9.612     3.430     3.206  0.9114 -0.3868 -0.1407
 
              Baa    -0.0096    -5.114    -1.825    -1.706 -0.3300  0.9261 -0.1828
     8 H(1)   Bbb    -0.0036    -1.895    -0.676    -0.632 -0.5854 -0.0488  0.8093
              Bcc     0.0131     7.010     2.501     2.338  0.7405  0.3741  0.5583
 
              Baa    -0.0061    -3.262    -1.164    -1.088  0.3141 -0.5149  0.7976
     9 H(1)   Bbb    -0.0035    -1.888    -0.674    -0.630 -0.0030  0.8396  0.5432
              Bcc     0.0097     5.150     1.838     1.718  0.9494  0.1730 -0.2622
 
              Baa    -0.0088    -4.674    -1.668    -1.559  0.1060  0.1746  0.9789
    10 H(1)   Bbb    -0.0036    -1.932    -0.689    -0.644  0.8904 -0.4549 -0.0153
              Bcc     0.0124     6.606     2.357     2.203  0.4426  0.8733 -0.2037
 
              Baa    -0.0114    -6.070    -2.166    -2.025 -0.3920 -0.1683  0.9044
    11 H(1)   Bbb    -0.0044    -2.341    -0.835    -0.781  0.8055  0.4120  0.4259
              Bcc     0.0158     8.411     3.001     2.806 -0.4443  0.8955 -0.0259
 
              Baa    -0.0109    -5.813    -2.074    -1.939  0.7318 -0.2161 -0.6463
    12 H(1)   Bbb    -0.0079    -4.240    -1.513    -1.414  0.5554  0.7387  0.3819
              Bcc     0.0188    10.052     3.587     3.353  0.3950 -0.6384  0.6606
 
              Baa    -0.0691   -36.881   -13.160   -12.302  0.8861 -0.4608 -0.0495
    13 H(1)   Bbb    -0.0041    -2.184    -0.779    -0.729  0.4307  0.7794  0.4549
              Bcc     0.0732    39.065    13.939    13.031 -0.1711 -0.4244  0.8892
 
              Baa    -0.0128    -6.834    -2.439    -2.280 -0.1610 -0.3803  0.9108
    14 H(1)   Bbb    -0.0037    -1.982    -0.707    -0.661 -0.1424  0.9221  0.3598
              Bcc     0.0165     8.817     3.146     2.941  0.9766  0.0718  0.2026
 

 ---------------------------------------------------------------------------------

 No NMR shielding tensors so no spin-rotation constants.
 Leave Link  601 at Sat Mar  9 13:25:44 2019, MaxMem=   671088640 cpu:               7.3 elap:               0.4
 (Enter /shared/centos7/gaussian/g16/l701.exe)
 ... and contract with generalized density number  0.
 Compute integral second derivatives.
 Leave Link  701 at Sat Mar  9 13:25:45 2019, MaxMem=   671088640 cpu:               5.2 elap:               0.3
 (Enter /shared/centos7/gaussian/g16/l702.exe)
 L702 exits ... SP integral derivatives will be done elsewhere.
 Leave Link  702 at Sat Mar  9 13:25:45 2019, MaxMem=   671088640 cpu:               0.3 elap:               0.0
 (Enter /shared/centos7/gaussian/g16/l703.exe)
 Integral derivatives from FoFJK, PRISM(SPDF).
 Compute integral second derivatives, UseDBF=F ICtDFT=           0.
 Calling FoFJK, ICntrl=    100147 FMM=F ISym2X=0 I1Cent= 0 IOpClX= 1 NMat=1 NMatS=1 NMatT=0.
 FoFJK:  IHMeth= 1 ICntrl=  100147 DoSepK=F KAlg= 0 I1Cent=           0 FoldK=F
 IRaf=         0 NMat=       1 IRICut=       1 DoRegI=T DoRafI=F ISym2E= 0 IDoP0=0 IntGTp=1.
 FoFCou: FMM=F IPFlag=           0 FMFlag=      100000 FMFlg1=         800
         NFxFlg=           0 DoJE=F BraDBF=F KetDBF=F FulRan=T
         wScrn=  0.000000 ICntrl=    100147 IOpCl=  1 I1Cent=           0 NGrid=           0
         NMat0=    1 NMatS0=      1 NMatT0=    0 NMatD0=    1 NMtDS0=    0 NMtDT0=    0
 Symmetry not used in FoFCou.
 Leave Link  703 at Sat Mar  9 13:27:02 2019, MaxMem=   671088640 cpu:            1534.1 elap:              76.7
 (Enter /shared/centos7/gaussian/g16/l716.exe)
 Dipole        =-6.61857630D-01 2.97480072D-01 2.47728645D-01
 Polarizability= 0.00000000D+00 0.00000000D+00 0.00000000D+00
                 0.00000000D+00 0.00000000D+00 0.00000000D+00
 ***** Axes restored to original set *****
 -------------------------------------------------------------------
 Center     Atomic                   Forces (Hartrees/Bohr)
 Number     Number              X              Y              Z
 -------------------------------------------------------------------
      1        8          -0.000000949   -0.000000992    0.000000373
      2        6           0.000000239    0.000000928    0.000000340
      3        6          -0.000000712   -0.000000876    0.000000109
      4        6           0.000000688    0.000000130   -0.000000647
      5        6           0.000000193    0.000000423    0.000000112
      6        1          -0.000000578    0.000000835    0.000001158
      7        1           0.000000805    0.000002018    0.000000450
      8        1           0.000001510    0.000000208   -0.000001479
      9        1           0.000000727    0.000000515   -0.000000437
     10        1           0.000000120   -0.000000958   -0.000000750
     11        1          -0.000000412   -0.000001770   -0.000000695
     12        1          -0.000001438   -0.000001168    0.000000796
     13        1           0.000000897    0.000000902   -0.000000398
     14        1          -0.000001088   -0.000000196    0.000001067
 -------------------------------------------------------------------
 Cartesian Forces:  Max     0.000002018 RMS     0.000000870
 FormGI is forming the generalized inverse of G from B-inverse, IUseBI=4.
 Leave Link  716 at Sat Mar  9 13:27:02 2019, MaxMem=   671088640 cpu:               2.8 elap:               0.2
 (Enter /shared/centos7/gaussian/g16/l103.exe)

 GradGradGradGradGradGradGradGradGradGradGradGradGradGradGradGradGradGrad
 Berny optimization.
 Red2BG is reusing G-inverse.
 Internal  Forces:  Max     0.000000023 RMS     0.000000009
 Search for a local minimum.
 Step number   1 out of a maximum of   70 on scan point     1 out of    73
 All quantities printed in internal units (Hartrees-Bohrs-Radians)
 RMS Force = .84566D-08 SwitMx=.10000D-02 MixMth= 2
 Mixed Optimization -- En-DIIS/RFO-DIIS
 Second derivative matrix not updated -- analytic derivatives used.
 ITU=  0
     Eigenvalues ---    0.00088   0.00245   0.00272   0.00465   0.03889
     Eigenvalues ---    0.04338   0.04549   0.04570   0.05182   0.05925
     Eigenvalues ---    0.07463   0.09863   0.10209   0.10691   0.11585
     Eigenvalues ---    0.11986   0.13057   0.14543   0.16147   0.16442
     Eigenvalues ---    0.18445   0.22722   0.28009   0.30831   0.31734
     Eigenvalues ---    0.32234   0.32620   0.33317   0.34083   0.34169
     Eigenvalues ---    0.34688   0.35068   0.35874   0.38821   0.52965
     Eigenvalues --- 1000.000001000.000001000.000001000.000001000.00000
     Eigenvalues --- 1000.000001000.000001000.000001000.000001000.00000
     Eigenvalues --- 1000.000001000.000001000.000001000.000001000.00000
     Eigenvalues --- 1000.000001000.000001000.000001000.000001000.00000
     Eigenvalues --- 1000.000001000.000001000.000001000.000001000.00000
 RFO step:  Lambda= 0.00000000D+00 EMin= 8.76482958D-04
 Linear search not attempted -- first point.
 Iteration  1 RMS(Cart)=  0.00000743 RMS(Int)=  0.00000000
 Iteration  2 RMS(Cart)=  0.00000000 RMS(Int)=  0.00000000
 Iteration  1 RMS(Cart)=  0.00000000 RMS(Int)=  0.00000000
 ITry= 1 IFail=0 DXMaxC= 2.12D-05 DCOld= 1.00D+10 DXMaxT= 3.00D-01 DXLimC= 3.00D+00 Rises=F
 Variable       Old X    -DE/DX   Delta X   Delta X   Delta X     New X
                                 (Linear)    (Quad)   (Total)
    R1        2.67760   0.00000   0.00000   0.00000   0.00000   2.67760
    R2        1.81432   0.00000   0.00000   0.00000   0.00000   1.81432
    R3        2.90827  -0.00000   0.00000   0.00000   0.00000   2.90827
    R4        2.81247  -0.00000   0.00000  -0.00000  -0.00000   2.81247
    R5        2.06805   0.00000   0.00000  -0.00000  -0.00000   2.06805
    R6        2.06059  -0.00000   0.00000   0.00000   0.00000   2.06059
    R7        2.80809  -0.00000   0.00000  -0.00000  -0.00000   2.80809
    R8        2.07138  -0.00000   0.00000  -0.00000  -0.00000   2.07138
    R9        2.07532   0.00000   0.00000  -0.00000  -0.00000   2.07532
   R10        2.05945  -0.00000   0.00000  -0.00000  -0.00000   2.05945
   R11        2.05914  -0.00000   0.00000   0.00000   0.00000   2.05914
   R12        2.06008  -0.00000   0.00000  -0.00000  -0.00000   2.06008
   R13        2.04744  -0.00000   0.00000   0.00000   0.00000   2.04744
    A1        1.88607   0.00000   0.00000   0.00000   0.00000   1.88607
    A2        1.96397  -0.00000   0.00000  -0.00000  -0.00000   1.96397
    A3        1.89272   0.00000   0.00000   0.00000   0.00000   1.89272
    A4        1.90508  -0.00000   0.00000  -0.00000  -0.00000   1.90508
    A5        1.91073   0.00000   0.00000   0.00000   0.00000   1.91073
    A6        1.92149   0.00000   0.00000  -0.00000  -0.00000   1.92149
    A7        1.86711  -0.00000   0.00000   0.00000   0.00000   1.86711
    A8        1.97086  -0.00000   0.00000  -0.00000  -0.00000   1.97086
    A9        1.83132  -0.00000   0.00000  -0.00000  -0.00000   1.83132
   A10        1.93862  -0.00000   0.00000  -0.00000  -0.00000   1.93862
   A11        1.94525   0.00000   0.00000   0.00000   0.00000   1.94525
   A12        1.91384   0.00000   0.00000   0.00000   0.00000   1.91384
   A13        1.85970   0.00000   0.00000   0.00000   0.00000   1.85970
   A14        1.93089  -0.00000   0.00000  -0.00000  -0.00000   1.93089
   A15        1.93699   0.00000   0.00000   0.00000   0.00000   1.93699
   A16        1.93307   0.00000   0.00000   0.00000   0.00000   1.93307
   A17        1.89126   0.00000   0.00000  -0.00000  -0.00000   1.89126
   A18        1.88338   0.00000   0.00000   0.00000   0.00000   1.88338
   A19        1.88653  -0.00000   0.00000   0.00000   0.00000   1.88653
   A20        2.10994  -0.00000   0.00000   0.00000   0.00000   2.10994
   A21        2.09271  -0.00000   0.00000  -0.00000  -0.00000   2.09271
   A22        2.04143   0.00000   0.00000  -0.00000  -0.00000   2.04143
    D1        0.86456  -0.00000   0.00000  -0.00000  -0.00000   0.86456
    D2        2.98657  -0.00000   0.00000  -0.00000  -0.00000   2.98657
    D3       -1.29379  -0.00000   0.00000  -0.00000  -0.00000  -1.29379
    D4       -1.03860   0.00000   0.00000   0.00000   0.00000  -1.03860
    D5       -3.13865   0.00000   0.00000   0.00000   0.00000  -3.13865
    D6        1.04899  -0.00000   0.00000   0.00000   0.00000   1.04899
    D7        3.12827  -0.00000   0.00000   0.00000   0.00000   3.12827
    D8        1.02823   0.00000   0.00000   0.00000   0.00000   1.02823
    D9       -1.06732  -0.00000   0.00000   0.00000   0.00000  -1.06732
   D10        1.10000  -0.00000   0.00000  -0.00000  -0.00000   1.10000
   D11       -1.00004  -0.00000   0.00000   0.00000   0.00000  -1.00004
   D12       -3.09559  -0.00000   0.00000  -0.00000  -0.00000  -3.09559
   D13       -1.24611  -0.00000   0.00000  -0.00001  -0.00001  -1.24613
   D14        1.58975  -0.00000   0.00000  -0.00001  -0.00001   1.58973
   D15        0.85988  -0.00000   0.00000  -0.00001  -0.00001   0.85987
   D16       -2.58745  -0.00000   0.00000  -0.00001  -0.00001  -2.58746
   D17        2.90773  -0.00000   0.00000  -0.00001  -0.00001   2.90772
   D18       -0.53959  -0.00000   0.00000  -0.00001  -0.00001  -0.53960
   D19       -2.69862  -0.00000   0.00000  -0.00000  -0.00000  -2.69863
   D20        0.74006   0.00000   0.00000   0.00000   0.00000   0.74006
   D21        1.52823   0.00000   0.00000  -0.00000  -0.00000   1.52823
   D22       -1.31627   0.00000   0.00000   0.00000   0.00000  -1.31627
   D23       -0.52666  -0.00000   0.00000  -0.00000  -0.00000  -0.52667
   D24        2.91202  -0.00000   0.00000   0.00000   0.00000   2.91202
   D25        1.10642  -0.00000   0.00000   0.00000   0.00000   1.10642
         Item               Value     Threshold  Converged?
 Maximum Force            0.000000     0.000450     YES
 RMS     Force            0.000000     0.000300     YES
 Maximum Displacement     0.000021     0.001800     YES
 RMS     Displacement     0.000007     0.001200     YES
 Predicted change in Energy=-4.413485D-13
 Optimization completed.
    -- Stationary point found.
                           ----------------------------
                           !   Optimized Parameters   !
                           ! (Angstroms and Degrees)  !
 --------------------------                            --------------------------
 ! Name  Definition              Value          Derivative Info.                !
 --------------------------------------------------------------------------------
 ! R1    R(1,3)                  1.4169         -DE/DX =    0.0                 !
 ! R2    R(1,14)                 0.9601         -DE/DX =    0.0                 !
 ! R3    R(2,4)                  1.539          -DE/DX =    0.0                 !
 ! R4    R(2,5)                  1.4883         -DE/DX =    0.0                 !
 ! R5    R(2,6)                  1.0944         -DE/DX =    0.0                 !
 ! R6    R(2,7)                  1.0904         -DE/DX =    0.0                 !
 ! R7    R(3,5)                  1.486          -DE/DX =    0.0                 !
 ! R8    R(3,11)                 1.0961         -DE/DX =    0.0                 !
 ! R9    R(3,12)                 1.0982         -DE/DX =    0.0                 !
 ! R10   R(4,8)                  1.0898         -DE/DX =    0.0                 !
 ! R11   R(4,9)                  1.0897         -DE/DX =    0.0                 !
 ! R12   R(4,10)                 1.0901         -DE/DX =    0.0                 !
 ! R13   R(5,13)                 1.0835         -DE/DX =    0.0                 !
 ! A1    A(3,1,14)             108.0639         -DE/DX =    0.0                 !
 ! A2    A(4,2,5)              112.5272         -DE/DX =    0.0                 !
 ! A3    A(4,2,6)              108.4448         -DE/DX =    0.0                 !
 ! A4    A(4,2,7)              109.1533         -DE/DX =    0.0                 !
 ! A5    A(5,2,6)              109.477          -DE/DX =    0.0                 !
 ! A6    A(5,2,7)              110.0935         -DE/DX =    0.0                 !
 ! A7    A(6,2,7)              106.9773         -DE/DX =    0.0                 !
 ! A8    A(1,3,5)              112.9221         -DE/DX =    0.0                 !
[...]
 Leave Link  502 at Sat Mar  9 14:53:57 2019, MaxMem=   671088640 cpu:             626.0 elap:              31.3
 (Enter /shared/centos7/gaussian/g16/l701.exe)
 ... and contract with generalized density number  0.
 Compute integral first derivatives.
 Leave Link  701 at Sat Mar  9 14:53:57 2019, MaxMem=   671088640 cpu:               4.3 elap:               0.2
 (Enter /shared/centos7/gaussian/g16/l702.exe)
 L702 exits ... SP integral derivatives will be done elsewhere.
 Leave Link  702 at Sat Mar  9 14:53:57 2019, MaxMem=   671088640 cpu:               0.4 elap:               0.0
 (Enter /shared/centos7/gaussian/g16/l703.exe)
 Integral derivatives from FoFJK, PRISM(SPDF).
 Compute integral first derivatives, UseDBF=F ICtDFT=           0.
 Calling FoFJK, ICntrl=      2127 FMM=F ISym2X=0 I1Cent= 0 IOpClX= 1 NMat=1 NMatS=1 NMatT=0.
 FoFJK:  IHMeth= 1 ICntrl=    2127 DoSepK=F KAlg= 0 I1Cent=           0 FoldK=F
 IRaf=         0 NMat=       1 IRICut=       1 DoRegI=T DoRafI=F ISym2E= 0 IDoP0=0 IntGTp=1.
 FoFCou: FMM=F IPFlag=           0 FMFlag=      100000 FMFlg1=         800
         NFxFlg=           0 DoJE=F BraDBF=F KetDBF=F FulRan=T
         wScrn=  0.000000 ICntrl=      2127 IOpCl=  1 I1Cent=           0 NGrid=           0
         NMat0=    1 NMatS0=      1 NMatT0=    0 NMatD0=    1 NMtDS0=    0 NMtDT0=    0
 Symmetry not used in FoFCou.
 Leave Link  703 at Sat Mar  9 14:54:03 2019, MaxMem=   671088640 cpu:             106.4 elap:               5.3
 (Enter /shared/centos7/gaussian/g16/l716.exe)
 Dipole        =-4.09002355D-01-3.44981355D-01 3.67420159D-01
 ***** Axes restored to original set *****
 -------------------------------------------------------------------
 Center     Atomic                   Forces (Hartrees/Bohr)
 Number     Number              X              Y              Z
 -------------------------------------------------------------------
      1        8          -0.002733604   -0.002171661   -0.032208557
      2        6          -0.000120592    0.000272065    0.000587860
      3        6           0.011277679    0.009974372    0.005322176
      4        6          -0.000087692   -0.000020217    0.000098422
      5        6          -0.002430811    0.000102239   -0.000878522
      6        1          -0.000111373   -0.000144178   -0.000169109
      7        1          -0.000072268    0.000008667   -0.000083180
      8        1           0.000024139   -0.000051264    0.000013911
      9        1           0.000010383    0.000028975   -0.000022776
     10        1          -0.000020290   -0.000020040    0.000038817
     11        1          -0.001215231   -0.003000340   -0.000292838
     12        1           0.001505307    0.006214143    0.003343284
     13        1           0.001385861    0.000013835    0.000197674
     14        1          -0.007411508   -0.011206595    0.024052839
 -------------------------------------------------------------------
 Cartesian Forces:  Max     0.032208557 RMS     0.007130492
 Leave Link  716 at Sat Mar  9 14:54:03 2019, MaxMem=   671088640 cpu:               0.3 elap:               0.0
 (Enter /shared/centos7/gaussian/g16/l103.exe)

 GradGradGradGradGradGradGradGradGradGradGradGradGradGradGradGradGradGrad
 Berny optimization.
 FormGI is forming the generalized inverse of G from B-inverse, IUseBI=4.
 Internal  Forces:  Max     0.024209453 RMS     0.004658697
 Search for a local minimum.
 Step number   1 out of a maximum of   70 on scan point    24 out of    73
 All quantities printed in internal units (Hartrees-Bohrs-Radians)
 RMS Force = .41092D-02 SwitMx=.10000D-02 MixMth= 1
 Mixed Optimization -- RFO/linear search
 Second derivative matrix not updated -- first step.
 ITU=  0
     Eigenvalues ---    0.00004   0.00186   0.00313   0.00643   0.03664
     Eigenvalues ---    0.04407   0.04548   0.04615   0.05732   0.06145
     Eigenvalues ---    0.07930   0.10031   0.10653   0.11143   0.11730
     Eigenvalues ---    0.12075   0.13445   0.14735   0.16218   0.17171
     Eigenvalues ---    0.20156   0.24102   0.29603   0.31730   0.32079
     Eigenvalues ---    0.32758   0.33046   0.34062   0.34129   0.34297
     Eigenvalues ---    0.34958   0.35487   0.36595   0.39212   0.52882
     Eigenvalues --- 1000.000001000.000001000.000001000.000001000.00000
     Eigenvalues --- 1000.000001000.000001000.000001000.000001000.00000
     Eigenvalues --- 1000.000001000.000001000.000001000.000001000.00000
     Eigenvalues --- 1000.000001000.000001000.000001000.000001000.00000
     Eigenvalues --- 1000.000001000.000001000.000001000.000001000.00000
 RFO step:  Lambda=-4.15055689D-03 EMin= 3.99496912D-05
 Linear search not attempted -- first point.
 Iteration  1 RMS(Cart)=  0.03049561 RMS(Int)=  0.00100052
 Iteration  2 RMS(Cart)=  0.00104604 RMS(Int)=  0.00011425
 Iteration  3 RMS(Cart)=  0.00000167 RMS(Int)=  0.00011424
 Iteration  4 RMS(Cart)=  0.00000000 RMS(Int)=  0.00011424
 Iteration  1 RMS(Cart)=  0.00003317 RMS(Int)=  0.00003254
 Iteration  2 RMS(Cart)=  0.00002191 RMS(Int)=  0.00003600
 Iteration  3 RMS(Cart)=  0.00001447 RMS(Int)=  0.00004139
 Iteration  4 RMS(Cart)=  0.00000956 RMS(Int)=  0.00004586
 Iteration  5 RMS(Cart)=  0.00000632 RMS(Int)=  0.00004909
 Iteration  6 RMS(Cart)=  0.00000417 RMS(Int)=  0.00005132
 Iteration  7 RMS(Cart)=  0.00000276 RMS(Int)=  0.00005284
 Iteration  8 RMS(Cart)=  0.00000182 RMS(Int)=  0.00005385
 Iteration  9 RMS(Cart)=  0.00000120 RMS(Int)=  0.00005453
 Iteration 10 RMS(Cart)=  0.00000079 RMS(Int)=  0.00005498
 ITry= 1 IFail=0 DXMaxC= 1.48D-01 DCOld= 1.00D+10 DXMaxT= 1.00D+00 DXLimC= 3.00D+00 Rises=F
 Variable       Old X    -DE/DX   Delta X   Delta X   Delta X     New X
                                 (Linear)    (Quad)   (Total)
    R1        2.66929   0.01666   0.00000   0.03357   0.03348   2.70276
    R2        1.86885  -0.02421   0.00000  -0.04740  -0.04727   1.82158
    R3        2.88030  -0.00008   0.00000  -0.00275  -0.00275   2.87755
    R4        2.81136   0.00051   0.00000   0.00027   0.00027   2.81163
    R5        2.07257   0.00019   0.00000   0.00033   0.00033   2.07289
    R6        2.07389  -0.00008   0.00000   0.00118   0.00118   2.07506
    R7        2.80804   0.00094   0.00000   0.00272   0.00272   2.81076
    R8        2.06350  -0.00010   0.00000  -0.00244  -0.00244   2.06106
    R9        2.06525   0.00124   0.00000   0.00052   0.00052   2.06577
   R10        2.06048  -0.00003   0.00000   0.00048   0.00048   2.06096
   R11        2.05749  -0.00001   0.00000  -0.00004  -0.00004   2.05745
   R12        2.06052  -0.00003   0.00000  -0.00025  -0.00025   2.06026
   R13        2.04722   0.00033   0.00000   0.00129   0.00129   2.04852
    A1        1.79142   0.01492   0.00000   0.07911   0.07886   1.87028
    A2        1.98066   0.00016   0.00000   0.00299   0.00299   1.98365
    A3        1.92212  -0.00008   0.00000   0.00301   0.00301   1.92512
    A4        1.91849  -0.00012   0.00000   0.00031   0.00032   1.91880
    A5        1.90453  -0.00006   0.00000  -0.00062  -0.00063   1.90390
    A6        1.90239   0.00002   0.00000  -0.00470  -0.00470   1.89769
    A7        1.82944   0.00007   0.00000  -0.00143  -0.00144   1.82800
    A8        1.97295  -0.00213   0.00000  -0.00898  -0.00911   1.96384
    A9        1.87808  -0.00236   0.00000  -0.03956  -0.03943   1.83865
   A10        1.86319   0.00635   0.00000   0.04435   0.04429   1.90748
   A11        1.91928   0.00178   0.00000   0.00987   0.00953   1.92881
   A12        1.94326  -0.00279   0.00000  -0.00724  -0.00732   1.93593
   A13        1.88343  -0.00073   0.00000   0.00149   0.00177   1.88520
   A14        1.93307  -0.00007   0.00000  -0.00133  -0.00133   1.93175
   A15        1.94513   0.00007   0.00000   0.00096   0.00095   1.94609
   A16        1.93163  -0.00002   0.00000   0.00137   0.00136   1.93300
   A17        1.88578   0.00001   0.00000  -0.00092  -0.00092   1.88486
   A18        1.88149   0.00004   0.00000   0.00060   0.00060   1.88209
   A19        1.88454  -0.00002   0.00000  -0.00072  -0.00072   1.88382
   A20        2.09596   0.00011   0.00000   0.00092   0.00088   2.09684
   A21        2.07295   0.00062   0.00000   0.00794   0.00786   2.08081
   A22        2.09316  -0.00099   0.00000  -0.01163  -0.01162   2.08154
    D1        1.01438   0.00089   0.00000   0.02825   0.02810   1.04248
    D2        3.13705   0.00013   0.00000   0.00749   0.00811  -3.13803
    D3       -1.12807   0.00130   0.00000   0.01200   0.01179  -1.11628
    D4       -1.03296  -0.00001   0.00000   0.01148   0.01149  -1.02147
    D5       -3.13296  -0.00001   0.00000   0.01290   0.01291  -3.12005
    D6        1.05276  -0.00002   0.00000   0.01226   0.01226   1.06502
    D7        3.10943   0.00002   0.00000   0.00789   0.00789   3.11732
    D8        1.00942   0.00001   0.00000   0.00931   0.00931   1.01873
    D9       -1.08804   0.00001   0.00000   0.00867   0.00866  -1.07938
   D10        1.10234   0.00004   0.00000   0.00772   0.00772   1.11007
   D11       -0.99766   0.00004   0.00000   0.00914   0.00914  -0.98852
   D12       -3.09513   0.00003   0.00000   0.00850   0.00850  -3.08663
   D13       -3.02904   0.00070   0.00000  -0.01587  -0.01576  -3.04480
   D14       -0.10683  -0.00080   0.00000  -0.03152  -0.03163  -0.13845
   D15       -0.87856   0.00067   0.00000  -0.01034  -0.01023  -0.88879
   D16        2.04365  -0.00083   0.00000  -0.02599  -0.02610   2.01756
   D17        1.10995   0.00073   0.00000  -0.01486  -0.01475   1.09520
   D18       -2.25102  -0.00077   0.00000  -0.03051  -0.03061  -2.28164
   D19        1.30765  -0.00177   0.00000   0.01172   0.01197   1.31962
   D20       -1.61201  -0.00046   0.00000   0.02506   0.02538  -1.58663
   D21       -0.79165   0.00141   0.00000   0.06125   0.06132  -0.73033
   D22        2.57187   0.00273   0.00000   0.07459   0.07473   2.64661
   D23       -2.87829   0.00294   0.00000   0.05755   0.05758  -2.82071
   D24        0.48523   0.00425   0.00000   0.07089   0.07100   0.55623
   D25       -1.16251  -0.01022   0.00000   0.00000   0.00000  -1.16251
         Item               Value     Threshold  Converged?
 Maximum Force            0.021047     0.000450     NO 
 RMS     Force            0.004109     0.000300     NO 
 Maximum Displacement     0.148239     0.001800     NO 
 RMS     Displacement     0.030063     0.001200     NO 
 Predicted change in Energy=-2.151410D-03
 Lowest energy point so far.  Saving SCF results.
 GradGradGradGradGradGradGradGradGradGradGradGradGradGradGradGradGradGrad

 Leave Link  103 at Sat Mar  9 14:54:03 2019, MaxMem=   671088640 cpu:               0.6 elap:               0.1
 (Enter /shared/centos7/gaussian/g16/l202.exe)
                          Input orientation:                          
 ---------------------------------------------------------------------
 Center     Atomic      Atomic             Coordinates (Angstroms)
 Number     Number       Type             X           Y           Z
 ---------------------------------------------------------------------
      1          8           0       56.297738  -19.322953   -3.526411
      2          6           0       54.581281  -16.637949   -3.150294
      3          6           0       56.727727  -18.059869   -3.011322
      4          6           0       53.901448  -15.524973   -3.936315
      5          6           0       55.972681  -16.919421   -3.595798
      6          1           0       53.991802  -17.561079   -3.210263
      7          1           0       54.597413  -16.385752   -2.081693
      8          1           0       54.469899  -14.597304   -3.860595
      9          1           0       52.894900  -15.333677   -3.567995
     10          1           0       53.828500  -15.786672   -4.992168
     11          1           0       56.562616  -18.115863   -1.934682
     12          1           0       57.801293  -17.946302   -3.183238
     13          1           0       56.349596  -16.437355   -4.490598
     14          1           0       56.435852  -19.303034   -4.480196
 ---------------------------------------------------------------------
                    Distance matrix (angstroms):
                    1          2          3          4          5
     1  O    0.000000
     2  C    3.208884   0.000000
     3  C    1.430241   2.578448   0.000000
     4  C    4.509422   1.522734   3.907577   0.000000
     5  C    2.426406   1.487849   1.487390   2.520009   0.000000
     6  H    2.919160   1.096928   2.788127   2.163572   2.117604
     7  H    3.688559   1.098076   2.864456   2.159845   2.113925
     8  H    5.077837   2.163600   4.220000   1.090614   2.778614
     9  H    5.243601   2.172436   4.736303   1.088757   3.462382
    10  H    4.555312   2.164220   4.182904   1.090244   2.798300
    11  H    2.015150   2.754565   1.090665   4.219130   2.130447
    12  H    2.067272   3.475823   1.093159   4.651747   2.137408
    13  H    3.042864   2.227911   2.227957   2.670786   1.084029
    14  H    0.963939   3.508668   1.946341   4.581785   2.584240
                    6          7          8          9         10
     6  H    0.000000
     7  H    1.738340   0.000000
     8  H    3.071721   2.525727   0.000000
     9  H    2.508482   2.492891   1.763089   0.000000
    10  H    2.519995   3.069363   1.762511   1.762124   0.000000
    11  H    2.923008   2.622387   4.524252   4.884711   4.716857
    12  H    3.829014   3.730088   4.772084   5.571942   4.870248
    13  H    2.908815   2.979200   2.704802   3.742222   2.651582
    14  H    3.258914   4.200382   5.137389   5.396873   4.407403
                   11         12         13         14
    11  H    0.000000
    12  H    1.766908   0.000000
    13  H    3.065204   2.468509   0.000000
    14  H    2.811599   2.321045   2.866995   0.000000
 Stoichiometry    C4H9O(2)
 Framework group  C1[X(C4H9O)]
 Deg. of freedom    36
 Full point group                 C1      NOp   1
 RotChk:  IX=1 Diff= 3.60D-02
 Largest Abelian subgroup         C1      NOp   1
 Largest concise Abelian subgroup C1      NOp   1
                         Standard orientation:                         
 ---------------------------------------------------------------------
 Center     Atomic      Atomic             Coordinates (Angstroms)
 Number     Number       Type             X           Y           Z
 ---------------------------------------------------------------------
      1          8           0        2.079194    0.691136    0.116849
      2          6           0       -1.034357    0.181279   -0.468625
      3          6           0        1.427750   -0.539485   -0.209924
      4          6           0       -2.396102    0.145635    0.211888
      5          6           0        0.016906   -0.579333    0.259393
      6          1           0       -0.701234    1.218195   -0.599335
      7          1           0       -1.115000   -0.216905   -1.488781
      8          1           0       -2.744460   -0.881874    0.322842
      9          1           0       -3.142652    0.693956   -0.360301
     10          1           0       -2.342747    0.589364    1.206317
     11          1           0        1.470848   -0.608982   -1.297519
     12          1           0        2.000846   -1.372767    0.205044
     13          1           0       -0.203051   -0.976259    1.243866
     14          1           0        2.058725    0.777616    1.076682
 ---------------------------------------------------------------------
 Rotational constants (GHZ):          13.9480459           2.2565866           2.1670777
 Leave Link  202 at Sat Mar  9 14:54:03 2019, MaxMem=   671088640 cpu:               0.1 elap:               0.0
 (Enter /shared/centos7/gaussian/g16/l301.exe)
 Standard basis: 6-311+G(2df,2p) (5D, 7F)
 Ernie: Thresh=  0.10000D-02 Tol=  0.10000D-05 Strict=F.
 There are   276 symmetry adapted cartesian basis functions of A   symmetry.
 There are   251 symmetry adapted basis functions of A   symmetry.
   251 basis functions,   359 primitive gaussians,   276 cartesian basis functions
    21 alpha electrons       20 beta electrons
       nuclear repulsion energy       177.5250142071 Hartrees.
 IExCor= 4336 DFT=T Ex+Corr=M062X ExCW=0 ScaHFX=  0.540000
 ScaDFX=  1.000000  1.000000  1.000000  1.000000 ScalE2=  1.000000  1.000000
 IRadAn=      5 IRanWt=     -1 IRanGd=            0 ICorTp=0 IEmpDi=  4
 NAtoms=   14 NActive=   14 NUniq=   14 SFac= 1.00D+00 NAtFMM=   60 NAOKFM=F Big=F
 Integral buffers will be    131072 words long.
 Raffenetti 2 integral format.
 Two-electron integral symmetry is turned on.
 Leave Link  301 at Sat Mar  9 14:54:03 2019, MaxMem=   671088640 cpu:               0.9 elap:               0.1
 (Enter /shared/centos7/gaussian/g16/l302.exe)
 NPDir=0 NMtPBC=     1 NCelOv=     1 NCel=       1 NClECP=     1 NCelD=      1
         NCelK=      1 NCelE2=     1 NClLst=     1 CellRange=     0.0.
 One-electron integrals computed using PRISM.
 One-electron integral symmetry used in STVInt
 NBasis=   251 RedAO= T EigKep=  2.43D-05  NBF=   251
 NBsUse=   251 1.00D-06 EigRej= -1.00D+00 NBFU=   251
 Precomputing XC quadrature grid using
 IXCGrd= 4 IRadAn=           5 IRanWt=          -1 IRanGd=           0 AccXCQ= 0.00D+00.
 Generated NRdTot=       0 NPtTot=           0 NUsed=           0 NTot=          32
 NSgBfM=   276   276   276   276   276 MxSgAt=    14 MxSgA2=    14.
 Leave Link  302 at Sat Mar  9 14:54:03 2019, MaxMem=   671088640 cpu:               6.8 elap:               0.4
 (Enter /shared/centos7/gaussian/g16/l303.exe)
 DipDrv:  MaxL=1.
 Leave Link  303 at Sat Mar  9 14:54:03 2019, MaxMem=   671088640 cpu:               0.5 elap:               0.0
 (Enter /shared/centos7/gaussian/g16/l401.exe)
 Initial guess from the checkpoint file:  "/scratch/underkoffler.c/gaussian_scratch/Gau-18894.chk"
 B after Tr=     0.000000   -0.000000    0.000000
         Rot=    0.999930    0.011745   -0.000686    0.000975 Ang=   1.35 deg.
 Guess basis will be translated and rotated to current coordinates.
 JPrj=2 DoOrth=T DoCkMO=T.
 Initial guess <Sx>= 0.0000 <Sy>= 0.0000 <Sz>= 0.5000 <S**2>= 0.7555 S= 0.5027
 Generating alternative initial guess.
 ExpMin= 4.38D-02 ExpMax= 8.59D+03 ExpMxC= 1.30D+03 IAcc=2 IRadAn=         4 AccDes= 0.00D+00
 Harris functional with IExCor= 1009 and IRadAn=       4 diagonalized for initial guess.
 HarFok:  IExCor= 1009 AccDes= 0.00D+00 IRadAn=         4 IDoV= 1 UseB2=F ITyADJ=14
 ICtDFT=  3500011 ScaDFX=  1.000000  1.000000  1.000000  1.000000
 FoFCou: FMM=F IPFlag=           0 FMFlag=      100000 FMFlg1=           0
         NFxFlg=           0 DoJE=T BraDBF=F KetDBF=T FulRan=T
         wScrn=  0.000000 ICntrl=       500 IOpCl=  0 I1Cent=   200000004 NGrid=           0
         NMat0=    1 NMatS0=      1 NMatT0=    0 NMatD0=    1 NMtDS0=    0 NMtDT0=    0
 Petite list used in FoFCou.
 Harris En= -232.902442388283    
 Leave Link  401 at Sat Mar  9 14:54:04 2019, MaxMem=   671088640 cpu:              14.8 elap:               0.8
 (Enter /shared/centos7/gaussian/g16/l502.exe)
 Integral symmetry usage will be decided dynamically.
 UHF open shell SCF:
 Using DIIS extrapolation, IDIIS=  1040.
 NGot=   671088640 LenX=   670928170 LenY=   670851553
 Requested convergence on RMS density matrix=1.00D-08 within 128 cycles.
 Requested convergence on MAX density matrix=1.00D-06.
 Requested convergence on             energy=1.00D-06.
 No special actions if energy rises.
 Fock matrices will be formed incrementally for  20 cycles.

 Cycle   1  Pass 1  IDiag  1:
 FoFJK:  IHMeth= 1 ICntrl=       0 DoSepK=F KAlg= 0 I1Cent=           0 FoldK=F
 IRaf= 970000000 NMat=       1 IRICut=       1 DoRegI=T DoRafI=F ISym2E= 0 IDoP0=0 IntGTp=1.
 FoFCou: FMM=F IPFlag=           0 FMFlag=      100000 FMFlg1=           0
         NFxFlg=           0 DoJE=F BraDBF=F KetDBF=F FulRan=T
         wScrn=  0.000000 ICntrl=         0 IOpCl=  1 I1Cent=           0 NGrid=           0
         NMat0=    1 NMatS0=      1 NMatT0=    0 NMatD0=    1 NMtDS0=    0 NMtDT0=    0
 Symmetry not used in FoFCou.
