 Entering Gaussian System, Link 0=g16
 Input=GIXGVIVAHMJKNP-UHFFFAOYSA-N_GeoFreq_a1.com
 Output=GIXGVIVAHMJKNP-UHFFFAOYSA-N_GeoFreq_a1.log
 Initial command:
 /shared/centos7/gaussian/g16/l1.exe "/scratch/underkoffler.c/gaussian_scratch/Gau-25232.inp" -scrdir="/scratch/underkoffler.c/gaussian_scratch/"
 Entering Link 1 = /shared/centos7/gaussian/g16/l1.exe PID=     25233.
  
 Copyright (c) 1988,1990,1992,1993,1995,1998,2003,2009,2016,
            Gaussian, Inc.  All Rights Reserved.
  
 This is part of the Gaussian(R) 16 program.  It is based on
 the Gaussian(R) 09 system (copyright 2009, Gaussian, Inc.),
 the Gaussian(R) 03 system (copyright 2003, Gaussian, Inc.),
 the Gaussian(R) 98 system (copyright 1998, Gaussian, Inc.),
 the Gaussian(R) 94 system (copyright 1995, Gaussian, Inc.),
 the Gaussian 92(TM) system (copyright 1992, Gaussian, Inc.),
 the Gaussian 90(TM) system (copyright 1990, Gaussian, Inc.),
 the Gaussian 88(TM) system (copyright 1988, Gaussian, Inc.),
 the Gaussian 86(TM) system (copyright 1986, Carnegie Mellon
 University), and the Gaussian 82(TM) system (copyright 1983,
 Carnegie Mellon University). Gaussian is a federally registered
 trademark of Gaussian, Inc.
  
 This software contains proprietary and confidential information,
 including trade secrets, belonging to Gaussian, Inc.
  
 This software is provided under written license and may be
 used, copied, transmitted, or stored only in accord with that
 written license.
  
 The following legend is applicable only to US Government
 contracts under FAR:
  
                    RESTRICTED RIGHTS LEGEND
  
 Use, reproduction and disclosure by the US Government is
 subject to restrictions as set forth in subparagraphs (a)
 and (c) of the Commercial Computer Software - Restricted
 Rights clause in FAR 52.227-19.
  
 Gaussian, Inc.
 340 Quinnipiac St., Bldg. 40, Wallingford CT 06492
  
  
 ---------------------------------------------------------------
 Warning -- This program may not be used in any manner that
 competes with the business of Gaussian, Inc. or will provide
 assistance to any competitor of Gaussian, Inc.  The licensee
 of this program is prohibited from giving any competitor of
 Gaussian, Inc. access to this program.  By using this program,
 the user acknowledges that Gaussian, Inc. is engaged in the
 business of creating and licensing software in the field of
 computational chemistry and represents and warrants to the
 licensee that it is not a competitor of Gaussian, Inc. and that
 it will not use this program in any manner prohibited above.
 ---------------------------------------------------------------
  

 Cite this work as:
 Gaussian 16, Revision A.03,
 M. J. Frisch, G. W. Trucks, H. B. Schlegel, G. E. Scuseria, 
 M. A. Robb, J. R. Cheeseman, G. Scalmani, V. Barone, 
 G. A. Petersson, H. Nakatsuji, X. Li, M. Caricato, A. V. Marenich, 
 J. Bloino, B. G. Janesko, R. Gomperts, B. Mennucci, H. P. Hratchian, 
 J. V. Ortiz, A. F. Izmaylov, J. L. Sonnenberg, D. Williams-Young, 
 F. Ding, F. Lipparini, F. Egidi, J. Goings, B. Peng, A. Petrone, 
 T. Henderson, D. Ranasinghe, V. G. Zakrzewski, J. Gao, N. Rega, 
 G. Zheng, W. Liang, M. Hada, M. Ehara, K. Toyota, R. Fukuda, 
 J. Hasegawa, M. Ishida, T. Nakajima, Y. Honda, O. Kitao, H. Nakai, 
 T. Vreven, K. Throssell, J. A. Montgomery, Jr., J. E. Peralta, 
 F. Ogliaro, M. J. Bearpark, J. J. Heyd, E. N. Brothers, K. N. Kudin, 
 V. N. Staroverov, T. A. Keith, R. Kobayashi, J. Normand, 
 K. Raghavachari, A. P. Rendell, J. C. Burant, S. S. Iyengar, 
 J. Tomasi, M. Cossi, J. M. Millam, M. Klene, C. Adamo, R. Cammi, 
 J. W. Ochterski, R. L. Martin, K. Morokuma, O. Farkas, 
 J. B. Foresman, and D. J. Fox, Gaussian, Inc., Wallingford CT, 2016.
 
 ******************************************
 Gaussian 16:  EM64L-G16RevA.03 25-Dec-2016
                 9-Mar-2019 
 ******************************************
 %nprocshared=20
 Will use up to   20 processors via shared memory.
 %mem=5GB
 ----------------------------------------------------------------------
 #p m062x/6-311+g(2df,2p) opt=(calcfc,verytight,gdiis,maxcycles=900) fr
 eq iop(7/33=1,2/16=3)
 ----------------------------------------------------------------------

 Warning!  Use of Opt=GDIIS is deprecated since it is seldom a good choice.

 1/6=900,7=1,10=4,18=20,19=11,26=3,38=1/1,3;
 2/9=110,12=2,16=3,17=6,18=5,40=1/2;
 3/5=4,6=6,7=214,11=2,25=1,30=1,71=2,74=-55,140=1/1,2,3;
 4//1;
 5/5=2,38=5/2;
 8/6=4,10=90,11=11/1;
 11/6=1,8=1,9=11,15=111,16=1/1,2,10;
 10/6=1,13=1/2;
 6/7=2,8=2,9=2,10=2,28=1/1;
 7/10=1,18=20,25=1,33=1/1,2,3,16;
 1/6=900,7=1,10=4,18=20,19=11,26=3/3(2);
 2/9=110,16=3/2;
 99//99;
 2/9=110,16=3/2;
 3/5=4,6=6,7=214,11=2,25=1,30=1,71=1,74=-55/1,2,3;
 4/5=5,16=3,69=1/1;
 5/5=2,38=5/2;
 7/33=1/1,2,3,16;
 1/6=900,7=1,18=20,19=11,26=3/3(-5);
 2/9=110,16=3/2;
 6/7=2,8=2,9=2,10=2,19=2,28=1/1;
 99/9=1/99;
 Leave Link    1 at Sat Mar  9 00:28:23 2019, MaxMem=   671088640 cpu:              27.8 elap:               1.5
 (Enter /shared/centos7/gaussian/g16/l101.exe)
 ------------------------------
 Gaussian input prepared by ASE
 ------------------------------
 Symbolic Z-matrix:
 Charge =  0 Multiplicity = 2
 O                     57.57129  -18.4779  -2.91074 
 C                     54.20588  -16.63808  -3.15819 
 C                     56.54432  -17.67339  -3.57538 
 C                     54.44242  -15.76919  -4.36403 
 C                     55.34248  -17.48356  -2.75833 
 H                     53.29176  -17.28633  -3.34609 
 H                     53.89649  -15.98564  -2.28658 
 H                     55.31315  -15.08486  -4.20393 
 H                     53.54369  -15.13566  -4.57159 
 H                     54.64847  -16.38436  -5.27631 
 H                     57.02639  -16.68986  -3.85954 
 H                     56.29212  -18.174   -4.57363 
 H                     55.22444  -18.09846  -1.83891 
 H                     57.06986  -19.05091  -2.29833 
 
 ITRead=  0  0  0  0  0  0  0  0  0  0  0  0  0  0
 MicOpt= -1 -1 -1 -1 -1 -1 -1 -1 -1 -1 -1 -1 -1 -1
 NAtoms=     14 NQM=       14 NQMF=       0 NMMI=      0 NMMIF=      0
                NMic=       0 NMicF=      0.
                    Isotopes and Nuclear Properties:
 (Nuclear quadrupole moments (NQMom) in fm**2, nuclear magnetic moments (NMagM)
  in nuclear magnetons)

  Atom         1           2           3           4           5           6           7           8           9          10
 IAtWgt=          16          12          12          12          12           1           1           1           1           1
 AtmWgt=  15.9949146  12.0000000  12.0000000  12.0000000  12.0000000   1.0078250   1.0078250   1.0078250   1.0078250   1.0078250
 NucSpn=           0           0           0           0           0           1           1           1           1           1
 AtZEff=  -0.0000000  -0.0000000  -0.0000000  -0.0000000  -0.0000000  -0.0000000  -0.0000000  -0.0000000  -0.0000000  -0.0000000
 NQMom=    0.0000000   0.0000000   0.0000000   0.0000000   0.0000000   0.0000000   0.0000000   0.0000000   0.0000000   0.0000000
 NMagM=    0.0000000   0.0000000   0.0000000   0.0000000   0.0000000   2.7928460   2.7928460   2.7928460   2.7928460   2.7928460
 AtZNuc=   8.0000000   6.0000000   6.0000000   6.0000000   6.0000000   1.0000000   1.0000000   1.0000000   1.0000000   1.0000000

  Atom        11          12          13          14
 IAtWgt=           1           1           1           1
 AtmWgt=   1.0078250   1.0078250   1.0078250   1.0078250
 NucSpn=           1           1           1           1
 AtZEff=  -0.0000000  -0.0000000  -0.0000000  -0.0000000
 NQMom=    0.0000000   0.0000000   0.0000000   0.0000000
 NMagM=    2.7928460   2.7928460   2.7928460   2.7928460
 AtZNuc=   1.0000000   1.0000000   1.0000000   1.0000000
 Leave Link  101 at Sat Mar  9 00:28:24 2019, MaxMem=   671088640 cpu:               6.4 elap:               0.4
 (Enter /shared/centos7/gaussian/g16/l103.exe)

 GradGradGradGradGradGradGradGradGradGradGradGradGradGradGradGradGradGrad
 Berny optimization.
 Initialization pass.
                           ----------------------------
                           !    Initial Parameters    !
                           ! (Angstroms and Degrees)  !
 --------------------------                            --------------------------
 ! Name  Definition              Value          Derivative Info.                !
 --------------------------------------------------------------------------------
 ! R1    R(1,3)                  1.4641         calculate D2E/DX2 analytically  !
 ! R2    R(1,14)                 0.9771         calculate D2E/DX2 analytically  !
 ! R3    R(2,4)                  1.505          calculate D2E/DX2 analytically  !
 ! R4    R(2,5)                  1.4719         calculate D2E/DX2 analytically  !
 ! R5    R(2,6)                  1.1363         calculate D2E/DX2 analytically  !
 ! R6    R(2,7)                  1.1319         calculate D2E/DX2 analytically  !
 ! R7    R(3,5)                  1.4656         calculate D2E/DX2 analytically  !
 ! R8    R(3,11)                 1.1316         calculate D2E/DX2 analytically  !
 ! R9    R(3,12)                 1.1449         calculate D2E/DX2 analytically  !
 ! R10   R(4,8)                  1.119          calculate D2E/DX2 analytically  !
 ! R11   R(4,9)                  1.119          calculate D2E/DX2 analytically  !
 ! R12   R(4,10)                 1.1194         calculate D2E/DX2 analytically  !
 ! R13   R(5,13)                 1.1124         calculate D2E/DX2 analytically  !
 ! A1    A(3,1,14)             104.2877         calculate D2E/DX2 analytically  !
 ! A2    A(4,2,5)              115.3358         calculate D2E/DX2 analytically  !
 ! A3    A(4,2,6)              108.8637         calculate D2E/DX2 analytically  !
 ! A4    A(4,2,7)              109.0973         calculate D2E/DX2 analytically  !
 ! A5    A(5,2,6)              109.7811         calculate D2E/DX2 analytically  !
 ! A6    A(5,2,7)              109.4496         calculate D2E/DX2 analytically  !
 ! A7    A(6,2,7)              103.6682         calculate D2E/DX2 analytically  !
 ! A8    A(1,3,5)              113.1589         calculate D2E/DX2 analytically  !
 ! A9    A(1,3,11)             107.0239         calculate D2E/DX2 analytically  !
 ! A10   A(1,3,12)             108.0622         calculate D2E/DX2 analytically  !
 ! A11   A(5,3,11)             112.1336         calculate D2E/DX2 analytically  !
 ! A12   A(5,3,12)             111.2284         calculate D2E/DX2 analytically  !
 ! A13   A(11,3,12)            104.7705         calculate D2E/DX2 analytically  !
 ! A14   A(2,4,8)              111.146          calculate D2E/DX2 analytically  !
 ! A15   A(2,4,9)              110.4418         calculate D2E/DX2 analytically  !
 ! A16   A(2,4,10)             111.3843         calculate D2E/DX2 analytically  !
 ! A17   A(8,4,9)              107.7741         calculate D2E/DX2 analytically  !
 ! A18   A(8,4,10)             108.0261         calculate D2E/DX2 analytically  !
 ! A19   A(9,4,10)             107.9263         calculate D2E/DX2 analytically  !
 ! A20   A(2,5,3)              123.7904         calculate D2E/DX2 analytically  !
 ! A21   A(2,5,13)             117.3948         calculate D2E/DX2 analytically  !
 ! A22   A(3,5,13)             118.4376         calculate D2E/DX2 analytically  !
 ! D1    D(14,1,3,5)            27.3616         calculate D2E/DX2 analytically  !
 ! D2    D(14,1,3,11)          151.3855         calculate D2E/DX2 analytically  !
 ! D3    D(14,1,3,12)          -96.2619         calculate D2E/DX2 analytically  !
 ! D4    D(5,2,4,8)            -58.3101         calculate D2E/DX2 analytically  !
 ! D5    D(5,2,4,9)           -177.8789         calculate D2E/DX2 analytically  !
 ! D6    D(5,2,4,10)            62.206          calculate D2E/DX2 analytically  !
 ! D7    D(6,2,4,8)            177.8093         calculate D2E/DX2 analytically  !
 ! D8    D(6,2,4,9)             58.2406         calculate D2E/DX2 analytically  !
 ! D9    D(6,2,4,10)           -61.6745         calculate D2E/DX2 analytically  !
 ! D10   D(7,2,4,8)             65.3177         calculate D2E/DX2 analytically  !
 ! D11   D(7,2,4,9)            -54.2511         calculate D2E/DX2 analytically  !
 ! D12   D(7,2,4,10)          -174.1662         calculate D2E/DX2 analytically  !
 ! D13   D(4,2,5,3)            -10.4107         calculate D2E/DX2 analytically  !
 ! D14   D(4,2,5,13)           176.7639         calculate D2E/DX2 analytically  !
 ! D15   D(6,2,5,3)            112.9863         calculate D2E/DX2 analytically  !
 ! D16   D(6,2,5,13)           -59.8391         calculate D2E/DX2 analytically  !
 ! D17   D(7,2,5,3)           -133.8526         calculate D2E/DX2 analytically  !
 ! D18   D(7,2,5,13)            53.322          calculate D2E/DX2 analytically  !
 ! D19   D(1,3,5,2)            175.5894         calculate D2E/DX2 analytically  !
 ! D20   D(1,3,5,13)           -11.6551         calculate D2E/DX2 analytically  !
 ! D21   D(11,3,5,2)            54.4081         calculate D2E/DX2 analytically  !
 ! D22   D(11,3,5,13)         -132.8364         calculate D2E/DX2 analytically  !
 ! D23   D(12,3,5,2)           -62.545          calculate D2E/DX2 analytically  !
 ! D24   D(12,3,5,13)          110.2106         calculate D2E/DX2 analytically  !
 --------------------------------------------------------------------------------
 Trust Radius=3.00D-01 FncErr=1.00D-07 GrdErr=1.00D-06 EigMax=2.50D+02 EigMin=1.00D-04
 Number of steps in this run=    100 maximum allowed number of steps=    100.
 GradGradGradGradGradGradGradGradGradGradGradGradGradGradGradGradGradGrad

 Leave Link  103 at Sat Mar  9 00:28:24 2019, MaxMem=   671088640 cpu:               0.2 elap:               0.0
 (Enter /shared/centos7/gaussian/g16/l202.exe)
                          Input orientation:                          
 ---------------------------------------------------------------------
 Center     Atomic      Atomic             Coordinates (Angstroms)
 Number     Number       Type             X           Y           Z
 ---------------------------------------------------------------------
      1          8           0       57.571286  -18.477901   -2.910740
      2          6           0       54.205878  -16.638076   -3.158190
      3          6           0       56.544316  -17.673386   -3.575379
      4          6           0       54.442418  -15.769193   -4.364030
      5          6           0       55.342480  -17.483564   -2.758325
      6          1           0       53.291762  -17.286326   -3.346091
      7          1           0       53.896494  -15.985636   -2.286576
      8          1           0       55.313148  -15.084863   -4.203928
      9          1           0       53.543687  -15.135657   -4.571594
     10          1           0       54.648466  -16.384365   -5.276311
     11          1           0       57.026387  -16.689861   -3.859539
     12          1           0       56.292123  -18.174005   -4.573625
     13          1           0       55.224445  -18.098461   -1.838909
     14          1           0       57.069859  -19.050909   -2.298333
 ---------------------------------------------------------------------
                    Distance matrix (angstroms):
                    1          2          3          4          5
     1  O    0.000000
     2  C    3.843456   0.000000
     3  C    1.464122   2.591178   0.000000
     4  C    4.386224   1.504979   2.943790   0.000000
     5  C    2.445304   1.471939   1.465612   2.515446   0.000000
     6  H    4.463598   1.136284   3.283519   2.159144   2.142386
     7  H    4.483867   1.131861   3.394183   2.158865   2.134763
     8  H    4.276006   2.175336   2.934502   1.118978   2.800785
     9  H    5.490955   2.166443   4.054170   1.119004   3.469333
    10  H    4.303683   2.178690   2.854644   1.119441   2.833751
    11  H    2.096239   2.906861   1.131574   2.789092   2.162909
    12  H    2.119858   2.952110   1.144865   3.041128   2.161907
    13  H    2.607769   2.216011   2.222178   3.523250   1.112365
    14  H    0.977144   3.842330   1.950541   4.684038   2.377394
                    6          7          8          9         10
     6  H    0.000000
     7  H    1.783274   0.000000
     8  H    3.109393   2.548439   0.000000
     9  H    2.488112   2.463381   1.807969   0.000000
    10  H    2.525852   3.108531   1.811218   1.810093   0.000000
    11  H    3.816650   3.573007   2.372723   3.879662   2.784794
    12  H    3.361098   3.969710   3.261574   4.097007   2.529463
    13  H    2.581942   2.535328   3.831835   4.367004   3.884019
    14  H    4.299485   4.412062   4.737811   5.738538   4.673538
                   11         12         13         14
    11  H    0.000000
    12  H    1.803260   0.000000
    13  H    3.051900   2.936719   0.000000
    14  H    2.830866   2.559451   2.126918   0.000000
 Stoichiometry    C4H9O(2)
 Framework group  C1[X(C4H9O)]
 Deg. of freedom    36
 Full point group                 C1      NOp   1
 Largest Abelian subgroup         C1      NOp   1
 Largest concise Abelian subgroup C1      NOp   1
                         Standard orientation:                         
 ---------------------------------------------------------------------
 Center     Atomic      Atomic             Coordinates (Angstroms)
 Number     Number       Type             X           Y           Z
 ---------------------------------------------------------------------
      1          8           0        2.379846   -0.167763   -0.096020
      2          6           0       -1.364717    0.690853    0.018774
      3          6           0        0.956765   -0.458059    0.088972
      4          6           0       -1.975597   -0.683353   -0.039070
      5          6           0        0.105849    0.729092   -0.031995
      6          1           0       -1.730893    1.216467    0.957276
      7          1           0       -1.787335    1.319670   -0.822114
      8          1           0       -1.670715   -1.221716   -0.971444
      9          1           0       -3.092504   -0.615083   -0.033754
     10          1           0       -1.664260   -1.305678    0.837815
     11          1           0        0.681495   -1.258258   -0.662273
     12          1           0        0.826517   -0.959144    1.110083
     13          1           0        0.591604    1.729675   -0.047237
     14          1           0        2.473525    0.764975    0.179722
 ---------------------------------------------------------------------
 Rotational constants (GHZ):          13.0069339           2.4655972           2.1659968
 Leave Link  202 at Sat Mar  9 00:28:24 2019, MaxMem=   671088640 cpu:               0.2 elap:               0.0
 (Enter /shared/centos7/gaussian/g16/l301.exe)
 Standard basis: 6-311+G(2df,2p) (5D, 7F)
 Ernie: Thresh=  0.10000D-02 Tol=  0.10000D-05 Strict=F.
 There are   276 symmetry adapted cartesian basis functions of A   symmetry.
 There are   251 symmetry adapted basis functions of A   symmetry.
   251 basis functions,   359 primitive gaussians,   276 cartesian basis functions
    21 alpha electrons       20 beta electrons
       nuclear repulsion energy       177.7898115291 Hartrees.
 IExCor= 4336 DFT=T Ex+Corr=M062X ExCW=0 ScaHFX=  0.540000
 ScaDFX=  1.000000  1.000000  1.000000  1.000000 ScalE2=  1.000000  1.000000
 IRadAn=      5 IRanWt=     -1 IRanGd=            0 ICorTp=0 IEmpDi=  4
 NAtoms=   14 NActive=   14 NUniq=   14 SFac= 1.00D+00 NAtFMM=   60 NAOKFM=F Big=F
 Integral buffers will be    131072 words long.
 Raffenetti 2 integral format.
 Two-electron integral symmetry is turned on.
 Leave Link  301 at Sat Mar  9 00:28:24 2019, MaxMem=   671088640 cpu:               1.3 elap:               0.1
 (Enter /shared/centos7/gaussian/g16/l302.exe)
 NPDir=0 NMtPBC=     1 NCelOv=     1 NCel=       1 NClECP=     1 NCelD=      1
         NCelK=      1 NCelE2=     1 NClLst=     1 CellRange=     0.0.
 One-electron integrals computed using PRISM.
 One-electron integral symmetry used in STVInt
 NBasis=   251 RedAO= T EigKep=  1.78D-05  NBF=   251
 NBsUse=   251 1.00D-06 EigRej= -1.00D+00 NBFU=   251
 Precomputing XC quadrature grid using
 IXCGrd= 4 IRadAn=           5 IRanWt=          -1 IRanGd=           0 AccXCQ= 0.00D+00.
 Generated NRdTot=       0 NPtTot=           0 NUsed=           0 NTot=          32
 NSgBfM=   276   276   276   276   276 MxSgAt=    14 MxSgA2=    14.
 Leave Link  302 at Sat Mar  9 00:28:24 2019, MaxMem=   671088640 cpu:               7.4 elap:               0.4
 (Enter /shared/centos7/gaussian/g16/l303.exe)
 DipDrv:  MaxL=1.
 Leave Link  303 at Sat Mar  9 00:28:24 2019, MaxMem=   671088640 cpu:               1.0 elap:               0.1
 (Enter /shared/centos7/gaussian/g16/l401.exe)
 ExpMin= 4.38D-02 ExpMax= 8.59D+03 ExpMxC= 1.30D+03 IAcc=3 IRadAn=         5 AccDes= 0.00D+00
 Harris functional with IExCor= 1009 and IRadAn=       5 diagonalized for initial guess.
 HarFok:  IExCor= 1009 AccDes= 0.00D+00 IRadAn=         5 IDoV= 1 UseB2=F ITyADJ=14
 ICtDFT=  3500011 ScaDFX=  1.000000  1.000000  1.000000  1.000000
 FoFCou: FMM=F IPFlag=           0 FMFlag=      100000 FMFlg1=           0
         NFxFlg=           0 DoJE=T BraDBF=F KetDBF=T FulRan=T
         wScrn=  0.000000 ICntrl=       500 IOpCl=  0 I1Cent=   200000004 NGrid=           0
         NMat0=    1 NMatS0=      1 NMatT0=    0 NMatD0=    1 NMtDS0=    0 NMtDT0=    0
 Petite list used in FoFCou.
 Harris En= -232.878272896482    
 JPrj=0 DoOrth=F DoCkMO=F.
 Initial guess <Sx>= 0.0000 <Sy>= 0.0000 <Sz>= 0.5000 <S**2>= 0.7500 S= 0.5000
 Leave Link  401 at Sat Mar  9 00:28:26 2019, MaxMem=   671088640 cpu:              27.4 elap:               1.4
 (Enter /shared/centos7/gaussian/g16/l502.exe)
 Integral symmetry usage will be decided dynamically.
 UHF open shell SCF:
 Using DIIS extrapolation, IDIIS=  1040.
 NGot=   671088640 LenX=   670928170 LenY=   670851553
 Requested convergence on RMS density matrix=1.00D-08 within 128 cycles.
 Requested convergence on MAX density matrix=1.00D-06.
 Requested convergence on             energy=1.00D-06.
 No special actions if energy rises.
 Fock matrices will be formed incrementally for  20 cycles.

 Cycle   1  Pass 1  IDiag  1:
 FoFJK:  IHMeth= 1 ICntrl=       0 DoSepK=F KAlg= 0 I1Cent=           0 FoldK=F
 IRaf= 970000000 NMat=       1 IRICut=       1 DoRegI=T DoRafI=F ISym2E= 0 IDoP0=0 IntGTp=1.
 FoFCou: FMM=F IPFlag=           0 FMFlag=      100000 FMFlg1=           0
         NFxFlg=           0 DoJE=F BraDBF=F KetDBF=F FulRan=T
         wScrn=  0.000000 ICntrl=         0 IOpCl=  1 I1Cent=           0 NGrid=           0
         NMat0=    1 NMatS0=      1 NMatT0=    0 NMatD0=    1 NMtDS0=    0 NMtDT0=    0
 Symmetry not used in FoFCou.
 E= -232.764572777254    
 DIIS: error= 2.19D-02 at cycle   1 NSaved=   1.
 NSaved= 1 IEnMin= 1 EnMin= -232.764572777254     IErMin= 1 ErrMin= 2.19D-02
 ErrMax= 2.19D-02  0.00D+00 EMaxC= 1.00D-01 BMatC= 8.99D-01 BMatP= 8.99D-01
 IDIUse=3 WtCom= 7.81D-01 WtEn= 2.19D-01
 Coeff-Com:  0.100D+01
 Coeff-En:   0.100D+01
 Coeff:      0.100D+01
 Gap=     0.243 Goal=   None    Shift=    0.000
 Gap=     0.324 Goal=   None    Shift=    0.000
 GapD=    0.243 DampG=1.000 DampE=0.500 DampFc=0.5000 IDamp=-1.
 Damping current iteration by 5.00D-01
 RMSDP=3.91D-03 MaxDP=2.56D-01              OVMax= 1.63D-01

 Cycle   2  Pass 1  IDiag  1:
 RMSU=  1.95D-03    CP:  9.83D-01
 E= -232.858319244427     Delta-E=       -0.093746467172 Rises=F Damp=T
 DIIS: error= 5.83D-03 at cycle   2 NSaved=   2.
 NSaved= 2 IEnMin= 2 EnMin= -232.858319244427     IErMin= 2 ErrMin= 5.83D-03
 ErrMax= 5.83D-03  0.00D+00 EMaxC= 1.00D-01 BMatC= 5.44D-02 BMatP= 8.99D-01
 IDIUse=3 WtCom= 9.42D-01 WtEn= 5.83D-02
 Coeff-Com: -0.605D-01 0.106D+01
 Coeff-En:   0.000D+00 0.100D+01
 Coeff:     -0.570D-01 0.106D+01
 Gap=     0.254 Goal=   None    Shift=    0.000
 Gap=     0.375 Goal=   None    Shift=    0.000
 RMSDP=1.29D-03 MaxDP=1.06D-01 DE=-9.37D-02 OVMax= 7.89D-02

 Cycle   3  Pass 1  IDiag  1:
 RMSU=  1.18D-03    CP:  9.66D-01  7.42D-01
 E= -232.952470737134     Delta-E=       -0.094151492708 Rises=F Damp=F
 DIIS: error= 2.66D-03 at cycle   3 NSaved=   3.
 NSaved= 3 IEnMin= 3 EnMin= -232.952470737134     IErMin= 3 ErrMin= 2.66D-03
 ErrMax= 2.66D-03  0.00D+00 EMaxC= 1.00D-01 BMatC= 9.91D-03 BMatP= 5.44D-02
 IDIUse=3 WtCom= 9.73D-01 WtEn= 2.66D-02
 Coeff-Com: -0.673D-01 0.262D+00 0.806D+00
 Coeff-En:   0.000D+00 0.000D+00 0.100D+01
 Coeff:     -0.655D-01 0.255D+00 0.811D+00
 Gap=     0.257 Goal=   None    Shift=    0.000
 Gap=     0.326 Goal=   None    Shift=    0.000
 RMSDP=2.29D-04 MaxDP=1.17D-02 DE=-9.42D-02 OVMax= 1.42D-02

 Cycle   4  Pass 1  IDiag  1:
 RMSU=  2.02D-04    CP:  9.65D-01  7.96D-01  1.01D+00
 E= -232.953983638491     Delta-E=       -0.001512901356 Rises=F Damp=F
 DIIS: error= 1.56D-03 at cycle   4 NSaved=   4.
 NSaved= 4 IEnMin= 4 EnMin= -232.953983638491     IErMin= 4 ErrMin= 1.56D-03
 ErrMax= 1.56D-03  0.00D+00 EMaxC= 1.00D-01 BMatC= 2.66D-03 BMatP= 9.91D-03
 IDIUse=3 WtCom= 9.84D-01 WtEn= 1.56D-02
 Coeff-Com: -0.262D-01 0.601D-01 0.390D+00 0.576D+00
 Coeff-En:   0.000D+00 0.000D+00 0.376D-01 0.962D+00
 Coeff:     -0.258D-01 0.592D-01 0.385D+00 0.582D+00
 Gap=     0.254 Goal=   None    Shift=    0.000
 Gap=     0.336 Goal=   None    Shift=    0.000
 RMSDP=1.02D-04 MaxDP=7.92D-03 DE=-1.51D-03 OVMax= 6.50D-03

 Cycle   5  Pass 1  IDiag  1:
 RMSU=  7.69D-05    CP:  9.63D-01  7.81D-01  1.03D+00  7.44D-01
 E= -232.954513363905     Delta-E=       -0.000529725415 Rises=F Damp=F
 DIIS: error= 4.67D-04 at cycle   5 NSaved=   5.
 NSaved= 5 IEnMin= 5 EnMin= -232.954513363905     IErMin= 5 ErrMin= 4.67D-04
 ErrMax= 4.67D-04  0.00D+00 EMaxC= 1.00D-01 BMatC= 1.58D-04 BMatP= 2.66D-03
 IDIUse=3 WtCom= 9.95D-01 WtEn= 4.67D-03
 Coeff-Com:  0.649D-03-0.128D-01 0.136D-01 0.174D+00 0.825D+00
 Coeff-En:   0.000D+00 0.000D+00 0.000D+00 0.000D+00 0.100D+01
 Coeff:      0.646D-03-0.127D-01 0.136D-01 0.173D+00 0.825D+00
 Gap=     0.255 Goal=   None    Shift=    0.000
 Gap=     0.336 Goal=   None    Shift=    0.000
 RMSDP=4.25D-05 MaxDP=2.63D-03 DE=-5.30D-04 OVMax= 3.06D-03

 Cycle   6  Pass 1  IDiag  1:
 RMSU=  3.41D-05    CP:  9.64D-01  7.78D-01  1.04D+00  8.50D-01  9.28D-01
 E= -232.954571723311     Delta-E=       -0.000058359405 Rises=F Damp=F
 DIIS: error= 1.58D-04 at cycle   6 NSaved=   6.
 NSaved= 6 IEnMin= 6 EnMin= -232.954571723311     IErMin= 6 ErrMin= 1.58D-04
 ErrMax= 1.58D-04  0.00D+00 EMaxC= 1.00D-01 BMatC= 1.43D-05 BMatP= 1.58D-04
 IDIUse=3 WtCom= 9.98D-01 WtEn= 1.58D-03
 Coeff-Com:  0.440D-02-0.103D-01-0.619D-01-0.981D-01-0.292D-01 0.120D+01
 Coeff-En:   0.000D+00 0.000D+00 0.000D+00 0.000D+00 0.000D+00 0.100D+01
 Coeff:      0.439D-02-0.103D-01-0.618D-01-0.979D-01-0.292D-01 0.119D+01
 Gap=     0.256 Goal=   None    Shift=    0.000
 Gap=     0.337 Goal=   None    Shift=    0.000
 RMSDP=2.19D-05 MaxDP=1.05D-03 DE=-5.84D-05 OVMax= 2.35D-03

 Cycle   7  Pass 1  IDiag  1:
 RMSU=  1.28D-05    CP:  9.63D-01  7.77D-01  1.04D+00  8.86D-01  1.06D+00
                    CP:  1.35D+00
 E= -232.954582645712     Delta-E=       -0.000010922401 Rises=F Damp=F
 DIIS: error= 4.93D-05 at cycle   7 NSaved=   7.
 NSaved= 7 IEnMin= 7 EnMin= -232.954582645712     IErMin= 7 ErrMin= 4.93D-05
 ErrMax= 4.93D-05  0.00D+00 EMaxC= 1.00D-01 BMatC= 2.40D-06 BMatP= 1.43D-05
 IDIUse=1 WtCom= 1.00D+00 WtEn= 0.00D+00
 Coeff-Com:  0.132D-02-0.220D-02-0.221D-01-0.491D-01-0.813D-01 0.430D+00
 Coeff-Com:  0.723D+00
 Coeff:      0.132D-02-0.220D-02-0.221D-01-0.491D-01-0.813D-01 0.430D+00
 Coeff:      0.723D+00
 Gap=     0.256 Goal=   None    Shift=    0.000
 Gap=     0.337 Goal=   None    Shift=    0.000
 RMSDP=4.87D-06 MaxDP=2.58D-04 DE=-1.09D-05 OVMax= 3.50D-04

 Cycle   8  Pass 1  IDiag  1:
 RMSU=  3.08D-06    CP:  9.63D-01  7.77D-01  1.04D+00  8.89D-01  1.07D+00
                    CP:  1.44D+00  1.17D+00
 E= -232.954583398377     Delta-E=       -0.000000752666 Rises=F Damp=F
 DIIS: error= 1.72D-05 at cycle   8 NSaved=   8.
 NSaved= 8 IEnMin= 8 EnMin= -232.954583398377     IErMin= 8 ErrMin= 1.72D-05
 ErrMax= 1.72D-05  0.00D+00 EMaxC= 1.00D-01 BMatC= 1.84D-07 BMatP= 2.40D-06
 IDIUse=1 WtCom= 1.00D+00 WtEn= 0.00D+00
 Coeff-Com: -0.366D-03 0.963D-03 0.355D-02 0.215D-02-0.126D-01-0.595D-01
 Coeff-Com:  0.143D+00 0.922D+00
 Coeff:     -0.366D-03 0.963D-03 0.355D-02 0.215D-02-0.126D-01-0.595D-01
 Coeff:      0.143D+00 0.922D+00
 Gap=     0.256 Goal=   None    Shift=    0.000
 Gap=     0.337 Goal=   None    Shift=    0.000
 RMSDP=2.48D-06 MaxDP=1.32D-04 DE=-7.53D-07 OVMax= 1.09D-04

 Cycle   9  Pass 1  IDiag  1:
 RMSU=  1.24D-06    CP:  9.64D-01  7.78D-01  1.04D+00  8.87D-01  1.07D+00
                    CP:  1.45D+00  1.31D+00  1.19D+00
 E= -232.954583470419     Delta-E=       -0.000000072041 Rises=F Damp=F
 DIIS: error= 5.48D-06 at cycle   9 NSaved=   9.
 NSaved= 9 IEnMin= 9 EnMin= -232.954583470419     IErMin= 9 ErrMin= 5.48D-06
 ErrMax= 5.48D-06  0.00D+00 EMaxC= 1.00D-01 BMatC= 1.75D-08 BMatP= 1.84D-07
 IDIUse=1 WtCom= 1.00D+00 WtEn= 0.00D+00
 Coeff-Com: -0.194D-03 0.402D-03 0.278D-02 0.492D-02 0.544D-02-0.533D-01
 Coeff-Com: -0.483D-01 0.196D+00 0.892D+00
 Coeff:     -0.194D-03 0.402D-03 0.278D-02 0.492D-02 0.544D-02-0.533D-01
 Coeff:     -0.483D-01 0.196D+00 0.892D+00
 Gap=     0.256 Goal=   None    Shift=    0.000
 Gap=     0.337 Goal=   None    Shift=    0.000
 RMSDP=8.83D-07 MaxDP=4.46D-05 DE=-7.20D-08 OVMax= 3.81D-05

 Cycle  10  Pass 1  IDiag  1:
 RMSU=  4.12D-07    CP:  9.64D-01  7.78D-01  1.04D+00  8.87D-01  1.07D+00
                    CP:  1.45D+00  1.34D+00  1.31D+00  1.05D+00
 E= -232.954583477748     Delta-E=       -0.000000007329 Rises=F Damp=F
 DIIS: error= 1.02D-06 at cycle  10 NSaved=  10.
 NSaved=10 IEnMin=10 EnMin= -232.954583477748     IErMin=10 ErrMin= 1.02D-06
 ErrMax= 1.02D-06  0.00D+00 EMaxC= 1.00D-01 BMatC= 1.20D-09 BMatP= 1.75D-08
 IDIUse=1 WtCom= 1.00D+00 WtEn= 0.00D+00
 Coeff-Com:  0.102D-04-0.285D-04 0.589D-04 0.423D-03 0.155D-02-0.191D-02
 Coeff-Com: -0.158D-01-0.473D-01 0.967D-01 0.966D+00
 Coeff:      0.102D-04-0.285D-04 0.589D-04 0.423D-03 0.155D-02-0.191D-02
 Coeff:     -0.158D-01-0.473D-01 0.967D-01 0.966D+00
 Gap=     0.256 Goal=   None    Shift=    0.000
 Gap=     0.337 Goal=   None    Shift=    0.000
 RMSDP=1.96D-07 MaxDP=8.60D-06 DE=-7.33D-09 OVMax= 9.06D-06

 Cycle  11  Pass 1  IDiag  1:
 RMSU=  1.09D-07    CP:  9.64D-01  7.78D-01  1.04D+00  8.87D-01  1.07D+00
                    CP:  1.45D+00  1.34D+00  1.33D+00  1.13D+00  1.16D+00
 E= -232.954583478300     Delta-E=       -0.000000000553 Rises=F Damp=F
 DIIS: error= 4.89D-07 at cycle  11 NSaved=  11.
 NSaved=11 IEnMin=11 EnMin= -232.954583478300     IErMin=11 ErrMin= 4.89D-07
 ErrMax= 4.89D-07  0.00D+00 EMaxC= 1.00D-01 BMatC= 2.09D-10 BMatP= 1.20D-09
 IDIUse=1 WtCom= 1.00D+00 WtEn= 0.00D+00
 Coeff-Com:  0.237D-04-0.516D-04-0.277D-03-0.378D-03-0.784D-04 0.475D-02
 Coeff-Com:  0.356D-03-0.334D-01-0.589D-01 0.275D+00 0.813D+00
 Coeff:      0.237D-04-0.516D-04-0.277D-03-0.378D-03-0.784D-04 0.475D-02
 Coeff:      0.356D-03-0.334D-01-0.589D-01 0.275D+00 0.813D+00
 Gap=     0.256 Goal=   None    Shift=    0.000
 Gap=     0.337 Goal=   None    Shift=    0.000
 RMSDP=5.25D-08 MaxDP=2.74D-06 DE=-5.53D-10 OVMax= 2.49D-06

 Cycle  12  Pass 1  IDiag  1:
 RMSU=  3.56D-08    CP:  9.64D-01  7.78D-01  1.04D+00  8.87D-01  1.07D+00
                    CP:  1.45D+00  1.34D+00  1.33D+00  1.14D+00  1.22D+00
                    CP:  1.21D+00
 E= -232.954583478371     Delta-E=       -0.000000000071 Rises=F Damp=F
 DIIS: error= 1.39D-07 at cycle  12 NSaved=  12.
 NSaved=12 IEnMin=12 EnMin= -232.954583478371     IErMin=12 ErrMin= 1.39D-07
 ErrMax= 1.39D-07  0.00D+00 EMaxC= 1.00D-01 BMatC= 2.31D-11 BMatP= 2.09D-10
 IDIUse=1 WtCom= 1.00D+00 WtEn= 0.00D+00
 Coeff-Com:  0.226D-05-0.510D-05-0.564D-04-0.112D-03-0.171D-03 0.109D-02
 Coeff-Com:  0.204D-02-0.462D-03-0.246D-01-0.739D-01 0.175D+00 0.922D+00
 Coeff:      0.226D-05-0.510D-05-0.564D-04-0.112D-03-0.171D-03 0.109D-02
 Coeff:      0.204D-02-0.462D-03-0.246D-01-0.739D-01 0.175D+00 0.922D+00
 Gap=     0.256 Goal=   None    Shift=    0.000
 Gap=     0.337 Goal=   None    Shift=    0.000
 RMSDP=3.30D-08 MaxDP=2.37D-06 DE=-7.11D-11 OVMax= 1.14D-06

 Cycle  13  Pass 1  IDiag  1:
 RMSU=  1.66D-08    CP:  9.64D-01  7.78D-01  1.04D+00  8.87D-01  1.07D+00
                    CP:  1.45D+00  1.34D+00  1.33D+00  1.15D+00  1.22D+00
                    CP:  1.40D+00  1.35D+00
 E= -232.954583478387     Delta-E=       -0.000000000015 Rises=F Damp=F
 DIIS: error= 3.03D-08 at cycle  13 NSaved=  13.
 NSaved=13 IEnMin=13 EnMin= -232.954583478387     IErMin=13 ErrMin= 3.03D-08
 ErrMax= 3.03D-08  0.00D+00 EMaxC= 1.00D-01 BMatC= 1.44D-12 BMatP= 2.31D-11
 IDIUse=1 WtCom= 1.00D+00 WtEn= 0.00D+00
 Coeff-Com: -0.187D-05 0.391D-05 0.166D-04 0.197D-04-0.467D-05-0.269D-03
 Coeff-Com:  0.137D-03 0.272D-02 0.202D-02-0.314D-01-0.534D-01 0.112D+00
 Coeff-Com:  0.968D+00
 Coeff:     -0.187D-05 0.391D-05 0.166D-04 0.197D-04-0.467D-05-0.269D-03
 Coeff:      0.137D-03 0.272D-02 0.202D-02-0.314D-01-0.534D-01 0.112D+00
 Coeff:      0.968D+00
 Gap=     0.256 Goal=   None    Shift=    0.000
 Gap=     0.337 Goal=   None    Shift=    0.000
 RMSDP=1.43D-08 MaxDP=1.34D-06 DE=-1.52D-11 OVMax= 4.83D-07

 Cycle  14  Pass 1  IDiag  1:
 RMSU=  4.42D-09    CP:  9.64D-01  7.78D-01  1.04D+00  8.87D-01  1.07D+00
                    CP:  1.45D+00  1.34D+00  1.33D+00  1.15D+00  1.21D+00
                    CP:  1.46D+00  1.53D+00  1.29D+00
 E= -232.954583478386     Delta-E=        0.000000000001 Rises=F Damp=F
 DIIS: error= 1.15D-08 at cycle  14 NSaved=  14.
 NSaved=14 IEnMin=13 EnMin= -232.954583478387     IErMin=14 ErrMin= 1.15D-08
 ErrMax= 1.15D-08  0.00D+00 EMaxC= 1.00D-01 BMatC= 1.47D-13 BMatP= 1.44D-12
 IDIUse=1 WtCom= 1.00D+00 WtEn= 0.00D+00
 Coeff-Com: -0.272D-06 0.662D-06 0.501D-05 0.779D-05 0.496D-05-0.916D-04
 Coeff-Com: -0.111D-03 0.345D-03 0.203D-02 0.251D-02-0.207D-01-0.561D-01
 Coeff-Com:  0.961D-01 0.976D+00
 Coeff:     -0.272D-06 0.662D-06 0.501D-05 0.779D-05 0.496D-05-0.916D-04
 Coeff:     -0.111D-03 0.345D-03 0.203D-02 0.251D-02-0.207D-01-0.561D-01
 Coeff:      0.961D-01 0.976D+00
 Gap=     0.256 Goal=   None    Shift=    0.000
 Gap=     0.337 Goal=   None    Shift=    0.000
 RMSDP=4.19D-09 MaxDP=3.64D-07 DE= 5.12D-13 OVMax= 1.33D-07

 SCF Done:  E(UM062X) =  -232.954583478     A.U. after   14 cycles
            NFock= 14  Conv=0.42D-08     -V/T= 2.0054
 <Sx>= 0.0000 <Sy>= 0.0000 <Sz>= 0.5000 <S**2>= 0.7556 S= 0.5028
 <L.S>= 0.000000000000E+00
 KE= 2.317132027070D+02 PE=-8.982705384916D+02 EE= 2.558129407771D+02
 Annihilation of the first spin contaminant:
 S**2 before annihilation     0.7556,   after     0.7500
 Leave Link  502 at Sat Mar  9 00:29:41 2019, MaxMem=   671088640 cpu:            1494.4 elap:              74.8
 (Enter /shared/centos7/gaussian/g16/l801.exe)
 DoSCS=F DFT=T ScalE2(SS,OS)=  1.000000  1.000000
 Range of M.O.s used for correlation:     1   251
 NBasis=   251 NAE=    21 NBE=    20 NFC=     0 NFV=     0
 NROrb=    251 NOA=    21 NOB=    20 NVA=   230 NVB=   231

 **** Warning!!: The largest alpha MO coefficient is  0.68557015D+02


 **** Warning!!: The largest beta MO coefficient is  0.67609340D+02

 Leave Link  801 at Sat Mar  9 00:29:41 2019, MaxMem=   671088640 cpu:               0.5 elap:               0.0
 (Enter /shared/centos7/gaussian/g16/l1101.exe)
 Using compressed storage, NAtomX=    14.
 Will process     15 centers per pass.
 Leave Link 1101 at Sat Mar  9 00:29:41 2019, MaxMem=   671088640 cpu:               9.2 elap:               0.5
 (Enter /shared/centos7/gaussian/g16/l1102.exe)
 Symmetrizing basis deriv contribution to polar:
 IMax=3 JMax=2 DiffMx= 0.00D+00
 Leave Link 1102 at Sat Mar  9 00:29:41 2019, MaxMem=   671088640 cpu:               0.7 elap:               0.1
 (Enter /shared/centos7/gaussian/g16/l1110.exe)
 Forming Gx(P) for the SCF density, NAtomX=    14.
 Integral derivatives from FoFJK, PRISM(SPDF).
 Do as many integral derivatives as possible in FoFJK.
 G2DrvN: MDV=     671087496.
 G2DrvN: will do    15 centers at a time, making    1 passes.
 Calling FoFCou, ICntrl=  3107 FMM=F I1Cent=   0 AccDes= 0.00D+00.
 FoFJK:  IHMeth= 1 ICntrl=    3107 DoSepK=F KAlg= 0 I1Cent=           0 FoldK=F
 IRaf=         0 NMat=       1 IRICut=       1 DoRegI=T DoRafI=F ISym2E= 0 IDoP0=0 IntGTp=1.
 FoFCou: FMM=F IPFlag=           0 FMFlag=      100000 FMFlg1=           0
         NFxFlg=           0 DoJE=F BraDBF=F KetDBF=F FulRan=T
         wScrn=  0.000000 ICntrl=      3107 IOpCl=  1 I1Cent=           0 NGrid=           0
         NMat0=    1 NMatS0=      1 NMatT0=    0 NMatD0=    1 NMtDS0=    0 NMtDT0=    0
 Symmetry not used in FoFCou.
 End of G2Drv F.D. properties file   721 does not exist.
 End of G2Drv F.D. properties file   722 does not exist.
 End of G2Drv F.D. properties file   788 does not exist.
 Leave Link 1110 at Sat Mar  9 00:32:03 2019, MaxMem=   671088640 cpu:            2838.0 elap:             141.9
 (Enter /shared/centos7/gaussian/g16/l1002.exe)
 Minotr:  UHF open shell wavefunction.
          IDoAtm=11111111111111
          Direct CPHF calculation.
          Differentiating once with respect to nuclear coordinates.
          Requested convergence is 1.0D-08 RMS, and 1.0D-07 maximum.
          Secondary convergence is 1.0D-12 RMS, and 1.0D-12 maximum.
          NewPWx=T KeepS1=F KeepF1=F KeepIn=T MapXYZ=F SortEE=F KeepMc=T.
         4250 words used for storage of precomputed grid.
 Two-electron integrals replicated using symmetry.
          MDV=     671088640 using IRadAn=       1.
          Solving linear equations simultaneously, MaxMat=     380.
 FoF2E skips out because all densities are zero.
 CalDSu exits because no D1Ps are significant.
 FoFJK:  IHMeth= 1 ICntrl=       0 DoSepK=F KAlg= 0 I1Cent=           0 FoldK=F
 IRaf= 970000000 NMat=      42 IRICut=     105 DoRegI=T DoRafI=T ISym2E= 2 IDoP0=3 IntGTp=3.
 FoFCou: FMM=F IPFlag=           0 FMFlag=      100000 FMFlg1=           0
         NFxFlg=           0 DoJE=F BraDBF=F KetDBF=F FulRan=T
         wScrn=  0.000000 ICntrl=         0 IOpCl=  1 I1Cent=           0 NGrid=           0
         NMat0=   42 NMatS0=     42 NMatT0=    0 NMatD0=   42 NMtDS0=    0 NMtDT0=    0
 Integrals replicated using symmetry in FoFCou.
 Raff kept on since  95.05% of shell-pairs survive, threshold=   0.20 IRatSp=95.
          There are    45 degrees of freedom in the 1st order CPHF.  IDoFFX=6 NUNeed=     0.
     39 vectors produced by pass  0 Test12= 2.10D-14 2.22D-09 XBig12= 1.44D-01 9.14D-02.
 AX will form    39 AO Fock derivatives at one time.
     39 vectors produced by pass  1 Test12= 2.10D-14 2.22D-09 XBig12= 1.43D-02 1.51D-02.
     39 vectors produced by pass  2 Test12= 2.10D-14 2.22D-09 XBig12= 4.53D-04 3.16D-03.
     39 vectors produced by pass  3 Test12= 2.10D-14 2.22D-09 XBig12= 6.01D-06 3.17D-04.
     39 vectors produced by pass  4 Test12= 2.10D-14 2.22D-09 XBig12= 5.40D-08 3.64D-05.
     39 vectors produced by pass  5 Test12= 2.10D-14 2.22D-09 XBig12= 5.66D-10 2.48D-06.
     36 vectors produced by pass  6 Test12= 2.10D-14 2.22D-09 XBig12= 4.14D-12 1.79D-07.
     15 vectors produced by pass  7 Test12= 2.10D-14 2.22D-09 XBig12= 2.53D-14 1.61D-08.
 InvSVY:  IOpt=1 It=  1 EMax= 2.33D-15
 Solved reduced A of dimension   285 with    39 vectors.
 End of Minotr F.D. properties file   721 does not exist.
 End of Minotr F.D. properties file   722 does not exist.
 End of Minotr F.D. properties file   788 does not exist.
 Leave Link 1002 at Sat Mar  9 00:35:45 2019, MaxMem=   671088640 cpu:            4438.3 elap:             222.0
 (Enter /shared/centos7/gaussian/g16/l601.exe)
 Copying SCF densities to generalized density rwf, IOpCl= 1 IROHF=0.

 **********************************************************************

            Population analysis using the SCF density.

 **********************************************************************

 Orbital symmetries:
 Alpha Orbitals:
       Occupied  (A) (A) (A) (A) (A) (A) (A) (A) (A) (A) (A) (A)
                 (A) (A) (A) (A) (A) (A) (A) (A) (A)
       Virtual   (A) (A) (A) (A) (A) (A) (A) (A) (A) (A) (A) (A)
                 (A) (A) (A) (A) (A) (A) (A) (A) (A) (A) (A) (A)
                 (A) (A) (A) (A) (A) (A) (A) (A) (A) (A) (A) (A)
                 (A) (A) (A) (A) (A) (A) (A) (A) (A) (A) (A) (A)
                 (A) (A) (A) (A) (A) (A) (A) (A) (A) (A) (A) (A)
                 (A) (A) (A) (A) (A) (A) (A) (A) (A) (A) (A) (A)
                 (A) (A) (A) (A) (A) (A) (A) (A) (A) (A) (A) (A)
                 (A) (A) (A) (A) (A) (A) (A) (A) (A) (A) (A) (A)
                 (A) (A) (A) (A) (A) (A) (A) (A) (A) (A) (A) (A)
                 (A) (A) (A) (A) (A) (A) (A) (A) (A) (A) (A) (A)
                 (A) (A) (A) (A) (A) (A) (A) (A) (A) (A) (A) (A)
                 (A) (A) (A) (A) (A) (A) (A) (A) (A) (A) (A) (A)
                 (A) (A) (A) (A) (A) (A) (A) (A) (A) (A) (A) (A)
                 (A) (A) (A) (A) (A) (A) (A) (A) (A) (A) (A) (A)
                 (A) (A) (A) (A) (A) (A) (A) (A) (A) (A) (A) (A)
                 (A) (A) (A) (A) (A) (A) (A) (A) (A) (A) (A) (A)
                 (A) (A) (A) (A) (A) (A) (A) (A) (A) (A) (A) (A)
                 (A) (A) (A) (A) (A) (A) (A) (A) (A) (A) (A) (A)
                 (A) (A) (A) (A) (A) (A) (A) (A) (A) (A) (A) (A)
                 (A) (A)
 Beta  Orbitals:
       Occupied  (A) (A) (A) (A) (A) (A) (A) (A) (A) (A) (A) (A)
                 (A) (A) (A) (A) (A) (A) (A) (A)
       Virtual   (A) (A) (A) (A) (A) (A) (A) (A) (A) (A) (A) (A)
                 (A) (A) (A) (A) (A) (A) (A) (A) (A) (A) (A) (A)
                 (A) (A) (A) (A) (A) (A) (A) (A) (A) (A) (A) (A)
                 (A) (A) (A) (A) (A) (A) (A) (A) (A) (A) (A) (A)
                 (A) (A) (A) (A) (A) (A) (A) (A) (A) (A) (A) (A)
                 (A) (A) (A) (A) (A) (A) (A) (A) (A) (A) (A) (A)
                 (A) (A) (A) (A) (A) (A) (A) (A) (A) (A) (A) (A)
                 (A) (A) (A) (A) (A) (A) (A) (A) (A) (A) (A) (A)
                 (A) (A) (A) (A) (A) (A) (A) (A) (A) (A) (A) (A)
                 (A) (A) (A) (A) (A) (A) (A) (A) (A) (A) (A) (A)
                 (A) (A) (A) (A) (A) (A) (A) (A) (A) (A) (A) (A)
                 (A) (A) (A) (A) (A) (A) (A) (A) (A) (A) (A) (A)
                 (A) (A) (A) (A) (A) (A) (A) (A) (A) (A) (A) (A)
                 (A) (A) (A) (A) (A) (A) (A) (A) (A) (A) (A) (A)
                 (A) (A) (A) (A) (A) (A) (A) (A) (A) (A) (A) (A)
                 (A) (A) (A) (A) (A) (A) (A) (A) (A) (A) (A) (A)
                 (A) (A) (A) (A) (A) (A) (A) (A) (A) (A) (A) (A)
                 (A) (A) (A) (A) (A) (A) (A) (A) (A) (A) (A) (A)
                 (A) (A) (A) (A) (A) (A) (A) (A) (A) (A) (A) (A)
                 (A) (A) (A)
 The electronic state is 2-A.
 Alpha  occ. eigenvalues --  -19.62282 -10.59580 -10.55049 -10.54876 -10.53958
 Alpha  occ. eigenvalues --   -1.12959  -0.91033  -0.81273  -0.73794  -0.65044
 Alpha  occ. eigenvalues --   -0.55926  -0.54475  -0.52682  -0.50493  -0.47944
 Alpha  occ. eigenvalues --   -0.44673  -0.42072  -0.41683  -0.40039  -0.35855
 Alpha  occ. eigenvalues --   -0.24252
 Alpha virt. eigenvalues --    0.01363   0.02340   0.02892   0.04382   0.05432
 Alpha virt. eigenvalues --    0.06339   0.07346   0.07746   0.08509   0.10236
 Alpha virt. eigenvalues --    0.10872   0.12128   0.12594   0.13718   0.15227
 Alpha virt. eigenvalues --    0.16698   0.17205   0.18698   0.19994   0.20638
 Alpha virt. eigenvalues --    0.21629   0.22876   0.24183   0.25174   0.25492
 Alpha virt. eigenvalues --    0.26650   0.27469   0.28177   0.30098   0.32144
 Alpha virt. eigenvalues --    0.33540   0.35101   0.37858   0.41200   0.44724
 Alpha virt. eigenvalues --    0.45543   0.46042   0.47317   0.49701   0.50475
 Alpha virt. eigenvalues --    0.52771   0.53195   0.54972   0.57454   0.57842
 Alpha virt. eigenvalues --    0.58299   0.58690   0.60713   0.61154   0.63362
 Alpha virt. eigenvalues --    0.63707   0.64501   0.65769   0.66173   0.67688
 Alpha virt. eigenvalues --    0.70160   0.71282   0.74931   0.78873   0.81573
 Alpha virt. eigenvalues --    0.83871   0.85344   0.87338   0.89273   0.92715
 Alpha virt. eigenvalues --    0.94736   0.96014   1.00696   1.02083   1.05283
 Alpha virt. eigenvalues --    1.06738   1.08143   1.10103   1.11447   1.13293
 Alpha virt. eigenvalues --    1.14589   1.15930   1.17631   1.18381   1.20945
 Alpha virt. eigenvalues --    1.22327   1.26037   1.26950   1.27788   1.28904
 Alpha virt. eigenvalues --    1.31383   1.32928   1.33643   1.36283   1.37469
 Alpha virt. eigenvalues --    1.38392   1.38799   1.40994   1.44920   1.47004
 Alpha virt. eigenvalues --    1.47219   1.48706   1.49322   1.50957   1.51609
 Alpha virt. eigenvalues --    1.54172   1.56688   1.58572   1.60632   1.61783
 Alpha virt. eigenvalues --    1.66275   1.69018   1.70425   1.83608   1.92963
 Alpha virt. eigenvalues --    2.05063   2.11652   2.25697   2.30125   2.40475
 Alpha virt. eigenvalues --    2.43854   2.47122   2.55455   2.58085   2.63185
 Alpha virt. eigenvalues --    2.67993   2.70692   2.73507   2.75464   2.79063
 Alpha virt. eigenvalues --    2.81055   2.81686   2.82461   2.86037   2.87921
 Alpha virt. eigenvalues --    2.90765   2.97389   3.00389   3.01094   3.03432
 Alpha virt. eigenvalues --    3.05957   3.08691   3.09942   3.12598   3.16990
 Alpha virt. eigenvalues --    3.18406   3.20064   3.22826   3.24350   3.26780
 Alpha virt. eigenvalues --    3.31353   3.32070   3.33206   3.37298   3.38722
 Alpha virt. eigenvalues --    3.39534   3.45326   3.48190   3.49335   3.50860
 Alpha virt. eigenvalues --    3.54149   3.56255   3.59690   3.61968   3.64243
 Alpha virt. eigenvalues --    3.66810   3.68682   3.69301   3.73212   3.75374
 Alpha virt. eigenvalues --    3.76987   3.80401   3.83806   3.86856   3.90651
 Alpha virt. eigenvalues --    3.91645   3.93096   3.96130   3.99990   4.01280
 Alpha virt. eigenvalues --    4.04773   4.06444   4.07457   4.13098   4.14231
 Alpha virt. eigenvalues --    4.15392   4.17334   4.20565   4.23055   4.25585
 Alpha virt. eigenvalues --    4.26719   4.28784   4.29785   4.34871   4.36802
 Alpha virt. eigenvalues --    4.42818   4.44281   4.49321   4.50589   4.54192
 Alpha virt. eigenvalues --    4.54600   4.57520   4.62283   4.64805   4.69354
 Alpha virt. eigenvalues --    4.94878   5.01398   5.07300   5.17441   5.25830
 Alpha virt. eigenvalues --    5.29107   5.33639   5.34596   5.39341   5.46080
 Alpha virt. eigenvalues --    5.47980   5.49735   5.53350   5.54895   5.56331
 Alpha virt. eigenvalues --    5.57673   5.74536   5.84617   6.39260   6.97307
 Alpha virt. eigenvalues --    7.10934   7.18006   7.22256   7.44020   7.63124
 Alpha virt. eigenvalues --   24.07214  24.26940  24.36705  24.50486  50.11302
  Beta  occ. eigenvalues --  -19.62287 -10.59659 -10.55114 -10.54199 -10.53956
  Beta  occ. eigenvalues --   -1.12927  -0.89692  -0.80243  -0.73074  -0.63710
  Beta  occ. eigenvalues --   -0.55085  -0.53362  -0.51859  -0.49758  -0.47541
  Beta  occ. eigenvalues --   -0.44349  -0.41440  -0.40868  -0.39549  -0.35268
  Beta virt. eigenvalues --   -0.01540   0.00982   0.02278   0.02759   0.03838
  Beta virt. eigenvalues --    0.05395   0.06301   0.07059   0.07360   0.08293
  Beta virt. eigenvalues --    0.10250   0.10743   0.11822   0.12531   0.13378
  Beta virt. eigenvalues --    0.14841   0.16687   0.17465   0.17730   0.20309
  Beta virt. eigenvalues --    0.20556   0.21712   0.22846   0.24354   0.25576
  Beta virt. eigenvalues --    0.25743   0.26989   0.27344   0.28227   0.30278
  Beta virt. eigenvalues --    0.32242   0.34308   0.35062   0.38416   0.41363
  Beta virt. eigenvalues --    0.44718   0.45832   0.46412   0.47358   0.49973
  Beta virt. eigenvalues --    0.50602   0.52573   0.54014   0.56577   0.57511
  Beta virt. eigenvalues --    0.57994   0.58123   0.59713   0.60724   0.61383
  Beta virt. eigenvalues --    0.63629   0.64177   0.64941   0.65765   0.66615
  Beta virt. eigenvalues --    0.67494   0.70603   0.71495   0.74900   0.78742
  Beta virt. eigenvalues --    0.81428   0.83690   0.85342   0.87290   0.89420
  Beta virt. eigenvalues --    0.92377   0.94668   0.95812   1.00752   1.01838
  Beta virt. eigenvalues --    1.05062   1.06543   1.08105   1.09929   1.11497
  Beta virt. eigenvalues --    1.13129   1.14564   1.15766   1.17576   1.18303
  Beta virt. eigenvalues --    1.20896   1.22473   1.26123   1.26993   1.27995
  Beta virt. eigenvalues --    1.29295   1.31903   1.33070   1.33957   1.36491
  Beta virt. eigenvalues --    1.37627   1.38729   1.39002   1.41130   1.44638
  Beta virt. eigenvalues --    1.47000   1.47423   1.48755   1.49290   1.51004
  Beta virt. eigenvalues --    1.51473   1.53953   1.56518   1.59263   1.60940
  Beta virt. eigenvalues --    1.62366   1.66410   1.69335   1.70681   1.84036
  Beta virt. eigenvalues --    1.93078   2.05409   2.11960   2.25823   2.30249
  Beta virt. eigenvalues --    2.40828   2.44480   2.47541   2.57078   2.58504
  Beta virt. eigenvalues --    2.63991   2.68885   2.71559   2.74624   2.76754
  Beta virt. eigenvalues --    2.80909   2.83021   2.84451   2.85876   2.87599
  Beta virt. eigenvalues --    2.89525   2.92870   2.98381   3.01768   3.01962
  Beta virt. eigenvalues --    3.04320   3.06768   3.09925   3.10961   3.13722
  Beta virt. eigenvalues --    3.17612   3.19231   3.21443   3.23302   3.26714
  Beta virt. eigenvalues --    3.28065   3.31438   3.33284   3.34034   3.40169
  Beta virt. eigenvalues --    3.40754   3.42130   3.46504   3.49214   3.50107
  Beta virt. eigenvalues --    3.52401   3.57231   3.57762   3.61428   3.62718
  Beta virt. eigenvalues --    3.64556   3.66655   3.69022   3.69411   3.73318
  Beta virt. eigenvalues --    3.76022   3.77178   3.80720   3.84331   3.87443
  Beta virt. eigenvalues --    3.91301   3.91972   3.93472   3.96307   4.01164
  Beta virt. eigenvalues --    4.02627   4.05549   4.07280   4.08129   4.13640
  Beta virt. eigenvalues --    4.15398   4.15867   4.18139   4.21614   4.23538
  Beta virt. eigenvalues --    4.26597   4.27570   4.29284   4.30609   4.35908
  Beta virt. eigenvalues --    4.36820   4.44246   4.45901   4.50013   4.51046
  Beta virt. eigenvalues --    4.55390   4.56022   4.58670   4.64529   4.67966
  Beta virt. eigenvalues --    4.71598   4.97674   5.03249   5.08086   5.17406
  Beta virt. eigenvalues --    5.26590   5.29913   5.33647   5.34474   5.39195
  Beta virt. eigenvalues --    5.45728   5.50937   5.52209   5.53102   5.54890
  Beta virt. eigenvalues --    5.56893   5.59487   5.74563   5.84914   6.39333
  Beta virt. eigenvalues --    6.97314   7.10970   7.18026   7.22289   7.44052
  Beta virt. eigenvalues --    7.63166  24.07688  24.27065  24.36843  24.51348
  Beta virt. eigenvalues --   50.11303
          Condensed to atoms (all electrons):
               1          2          3          4          5          6
     1  O    8.102794   0.015138   0.176940  -0.004689  -0.043791   0.000034
     2  C    0.015138   5.567571  -0.082198   0.059376  -0.071611   0.412959
     3  C    0.176940  -0.082198   5.153922  -0.055618   0.255987  -0.004746
     4  C   -0.004689   0.059376  -0.055618   5.302190   0.060103  -0.032142
     5  C   -0.043791  -0.071611   0.255987   0.060103   5.670232  -0.038060
     6  H    0.000034   0.412959  -0.004746  -0.032142  -0.038060   0.583161
     7  H   -0.000093   0.467417   0.015595  -0.050426  -0.082877  -0.046810
     8  H    0.000016  -0.058074  -0.021290   0.428181   0.014190   0.007416
     9  H   -0.000004  -0.055889   0.001719   0.415964   0.023881  -0.004970
    10  H    0.000602  -0.000930   0.012447   0.384992  -0.033290  -0.010092
    11  H   -0.047974  -0.043179   0.437164   0.018204  -0.041212  -0.000233
    12  H   -0.036020   0.057571   0.398217  -0.016188  -0.092305   0.000402
    13  H   -0.008467  -0.009894  -0.013120   0.000013   0.380818  -0.003022
    14  H    0.233296  -0.004665  -0.003008   0.005282  -0.016067  -0.000033
               7          8          9         10         11         12
     1  O   -0.000093   0.000016  -0.000004   0.000602  -0.047974  -0.036020
     2  C    0.467417  -0.058074  -0.055889  -0.000930  -0.043179   0.057571
     3  C    0.015595  -0.021290   0.001719   0.012447   0.437164   0.398217
     4  C   -0.050426   0.428181   0.415964   0.384992   0.018204  -0.016188
     5  C   -0.082877   0.014190   0.023881  -0.033290  -0.041212  -0.092305
     6  H   -0.046810   0.007416  -0.004970  -0.010092  -0.000233   0.000402
     7  H    0.568200  -0.008158  -0.005771   0.007039   0.000406  -0.000807
     8  H   -0.008158   0.542774  -0.021991  -0.037554  -0.001104   0.000654
     9  H   -0.005771  -0.021991   0.530115  -0.021399   0.000405   0.000026
    10  H    0.007039  -0.037554  -0.021399   0.556496  -0.003833  -0.001392
    11  H    0.000406  -0.001104   0.000405  -0.003833   0.580117  -0.060669
    12  H   -0.000807   0.000654   0.000026  -0.001392  -0.060669   0.602751
    13  H   -0.005555   0.000062  -0.000115  -0.000155   0.002959   0.002383
    14  H    0.000005  -0.000061   0.000006  -0.000080   0.008286  -0.004055
              13         14
     1  O   -0.008467   0.233296
     2  C   -0.009894  -0.004665
     3  C   -0.013120  -0.003008
     4  C    0.000013   0.005282
     5  C    0.380818  -0.016067
     6  H   -0.003022  -0.000033
     7  H   -0.005555   0.000005
     8  H    0.000062  -0.000061
     9  H   -0.000115   0.000006
    10  H   -0.000155  -0.000080
    11  H    0.002959   0.008286
    12  H    0.002383  -0.004055
    13  H    0.495806   0.007451
    14  H    0.007451   0.528038
          Atomic-Atomic Spin Densities.
               1          2          3          4          5          6
     1  O   -0.002780  -0.001887   0.000167   0.000676   0.009381   0.000130
     2  C   -0.001887   0.036888   0.029709  -0.018597  -0.169124   0.042084
     3  C    0.000167   0.029709  -0.072587   0.000288  -0.087075   0.002579
     4  C    0.000676  -0.018597   0.000288   0.006446   0.021086  -0.006829
     5  C    0.009381  -0.169124  -0.087075   0.021086   1.382663  -0.048489
     6  H    0.000130   0.042084   0.002579  -0.006829  -0.048489   0.075382
     7  H   -0.000202   0.022856   0.006727   0.003578  -0.042107  -0.020066
     8  H    0.000059   0.003839   0.000595  -0.003660   0.000719   0.001007
     9  H   -0.000004  -0.003761  -0.001226   0.001959   0.002966  -0.000091
    10  H    0.000011   0.000257   0.000251   0.000049   0.000457  -0.001796
    11  H   -0.001888   0.004993   0.035908  -0.001665  -0.047583  -0.001168
    12  H    0.000812   0.015549   0.022801  -0.002809  -0.055198   0.002941
    13  H    0.000458   0.006964   0.010527  -0.002202  -0.011410   0.000039
    14  H   -0.002559   0.001632   0.007539  -0.000509  -0.006283  -0.000108
               7          8          9         10         11         12
     1  O   -0.000202   0.000059  -0.000004   0.000011  -0.001888   0.000812
     2  C    0.022856   0.003839  -0.003761   0.000257   0.004993   0.015549
     3  C    0.006727   0.000595  -0.001226   0.000251   0.035908   0.022801
     4  C    0.003578  -0.003660   0.001959   0.000049  -0.001665  -0.002809
     5  C   -0.042107   0.000719   0.002966   0.000457  -0.047583  -0.055198
     6  H   -0.020066   0.001007  -0.000091  -0.001796  -0.001168   0.002941
     7  H    0.063080  -0.002223   0.000309   0.000638   0.001599  -0.001072
     8  H   -0.002223   0.002823   0.000169  -0.001046  -0.002456   0.000936
     9  H    0.000309   0.000169  -0.001873   0.000461   0.000051  -0.000033
    10  H    0.000638  -0.001046   0.000461   0.000916   0.000900  -0.001642
    11  H    0.001599  -0.002456   0.000051   0.000900   0.072555  -0.023376
    12  H   -0.001072   0.000936  -0.000033  -0.001642  -0.023376   0.100161
    13  H    0.000478   0.000010   0.000006   0.000016  -0.000250   0.000054
    14  H    0.000066  -0.000010   0.000001   0.000002   0.001353  -0.002170
              13         14
     1  O    0.000458  -0.002559
     2  C    0.006964   0.001632
     3  C    0.010527   0.007539
     4  C   -0.002202  -0.000509
     5  C   -0.011410  -0.006283
     6  H    0.000039  -0.000108
     7  H    0.000478   0.000066
     8  H    0.000010  -0.000010
     9  H    0.000006   0.000001
    10  H    0.000016   0.000002
    11  H   -0.000250   0.001353
    12  H    0.000054  -0.002170
    13  H   -0.058701   0.000316
    14  H    0.000316   0.002258
 Mulliken charges and spin densities:
               1          2
     1  O   -0.387782   0.002373
     2  C   -0.253592  -0.028597
     3  C   -0.272009  -0.043798
     4  C   -0.515241  -0.002190
     5  C    0.014002   0.950002
     6  H    0.136137   0.045616
     7  H    0.141836   0.033660
     8  H    0.154939   0.000762
     9  H    0.138023  -0.001065
    10  H    0.147151  -0.000526
    11  H    0.150663   0.038974
    12  H    0.149433   0.056956
    13  H    0.150837  -0.053695
    14  H    0.245605   0.001527
 Sum of Mulliken charges =  -0.00000   1.00000
 Mulliken charges and spin densities with hydrogens summed into heavy atoms:
               1          2
     1  O   -0.142177   0.003900
     2  C    0.024380   0.050679
     3  C    0.028087   0.052132
     4  C   -0.075129  -0.003018
     5  C    0.164839   0.896307
 APT charges:
               1
     1  O   -0.703757
     2  C   -0.886824
     3  C   -0.517102
     4  C   -1.181653
     5  C   -0.230582
     6  H    0.411223
     7  H    0.438960
     8  H    0.274102
     9  H    0.586294
    10  H    0.266345
    11  H    0.319633
    12  H    0.329028
    13  H    0.414229
    14  H    0.480107
 Sum of APT charges =  -0.00000
 APT charges with hydrogens summed into heavy atoms:
               1
     1  O   -0.223651
     2  C   -0.036642
     3  C    0.131558
     4  C   -0.054913
     5  C    0.183647
 Electronic spatial extent (au):  <R**2>=            585.9305
 Charge=             -0.0000 electrons
 Dipole moment (field-independent basis, Debye):
    X=             -1.8781    Y=              1.0702    Z=              0.6314  Tot=              2.2520
 Quadrupole moment (field-independent basis, Debye-Ang):
   XX=            -37.5732   YY=            -31.3484   ZZ=            -33.7963
   XY=              3.3932   XZ=              1.6047   YZ=              0.4252
 Traceless Quadrupole moment (field-independent basis, Debye-Ang):
   XX=             -3.3339   YY=              2.8909   ZZ=              0.4430
   XY=              3.3932   XZ=              1.6047   YZ=              0.4252
 Octapole moment (field-independent basis, Debye-Ang**2):
  XXX=             -7.5888  YYY=              1.7337  ZZZ=              0.5794  XYY=              6.9229
  XXY=             11.7549  XXZ=              3.4403  XZZ=              1.5567  YZZ=             -1.6116
  YYZ=             -0.3346  XYZ=              0.9939
 Hexadecapole moment (field-independent basis, Debye-Ang**3):
 XXXX=           -595.4675 YYYY=           -147.4949 ZZZZ=            -60.3039 XXXY=             28.3139
 XXXZ=              8.8863 YYYX=              1.7621 YYYZ=              0.6436 ZZZX=              0.7861
 ZZZY=              0.6106 XXYY=           -114.2213 XXZZ=           -108.0980 YYZZ=            -33.4078
 XXYZ=              2.0180 YYXZ=              0.3852 ZZXY=             -1.3912
 N-N= 1.777898115291D+02 E-N=-8.982705391086D+02  KE= 2.317132027070D+02
  Exact polarizability:   0.000   0.000   0.000   0.000   0.000   0.000
 Approx polarizability:  65.550  -0.103  64.280  -0.495  -0.011  59.447
                          Isotropic Fermi Contact Couplings
        Atom                 a.u.       MegaHertz       Gauss      10(-4) cm-1
     1  O(17)              0.00016      -0.09459      -0.03375      -0.03155
     2  C(13)             -0.03507     -39.42877     -14.06917     -13.15202
     3  C(13)             -0.04097     -46.05387     -16.43317     -15.36192
     4  C(13)              0.00124       1.39462       0.49764       0.46520
     5  C(13)              0.16042     180.33949      64.34961      60.15478
     6  H(1)               0.02625     117.34276      41.87082      39.14133
     7  H(1)               0.02015      90.07278      32.14021      30.04505
     8  H(1)               0.00007       0.29242       0.10434       0.09754
     9  H(1)              -0.00060      -2.70256      -0.96434      -0.90148
    10  H(1)              -0.00010      -0.44462      -0.15865      -0.14831
    11  H(1)               0.02103      94.00476      33.54324      31.35661
    12  H(1)               0.02927     130.83500      46.68518      43.64186
    13  H(1)              -0.01623     -72.54618     -25.88628     -24.19880
    14  H(1)              -0.00018      -0.81634      -0.29129      -0.27230
 --------------------------------------------------------
       Center         ----  Spin Dipole Couplings  ----
                      3XX-RR        3YY-RR        3ZZ-RR
 --------------------------------------------------------
     1   Atom        0.017350     -0.004322     -0.013028
     2   Atom        0.008155     -0.012443      0.004288
     3   Atom        0.000958      0.000425     -0.001383
     4   Atom        0.005884      0.000612     -0.006496
     5   Atom       -0.546206     -0.533056      1.079262
     6   Atom        0.011854     -0.007072     -0.004782
     7   Atom        0.013723     -0.006667     -0.007055
     8   Atom        0.001778      0.002590     -0.004368
     9   Atom        0.003870     -0.001014     -0.002855
    10   Atom        0.001171      0.002749     -0.003919
    11   Atom       -0.006242      0.013775     -0.007532
    12   Atom       -0.004475      0.007516     -0.003041
    13   Atom       -0.041619      0.046962     -0.005343
    14   Atom        0.015795     -0.009591     -0.006204
 --------------------------------------------------------
                        XY            XZ            YZ
 --------------------------------------------------------
     1   Atom        0.001722     -0.003210     -0.001123
     2   Atom        0.003099     -0.001973     -0.001043
     3   Atom       -0.010311      0.005687     -0.000137
     4   Atom        0.007838     -0.000290     -0.000181
     5   Atom        0.006920     -0.007596      0.076676
     6   Atom       -0.004226     -0.008971      0.003298
     7   Atom       -0.006418      0.007222     -0.002777
     8   Atom        0.007144      0.002697      0.002777
     9   Atom        0.003762     -0.000021      0.000091
    10   Atom        0.006320     -0.002529     -0.002712
    11   Atom       -0.006826     -0.001664      0.005322
    12   Atom       -0.007144      0.002486     -0.009695
    13   Atom        0.054566     -0.000581      0.002091
    14   Atom        0.000102      0.001325     -0.000171
 --------------------------------------------------------


 ---------------------------------------------------------------------------------
              Anisotropic Spin Dipole Couplings in Principal Axis System
 ---------------------------------------------------------------------------------

       Atom             a.u.   MegaHertz   Gauss  10(-4) cm-1        Axes

              Baa    -0.0135     0.974     0.348     0.325  0.0974  0.1033  0.9899
     1 O(17)  Bbb    -0.0044     0.317     0.113     0.106 -0.0925  0.9912 -0.0943
              Bcc     0.0178    -1.291    -0.461    -0.431  0.9909  0.0824 -0.1061
 
              Baa    -0.0129    -1.735    -0.619    -0.579 -0.1413  0.9890  0.0437
     2 C(13)  Bbb     0.0035     0.465     0.166     0.155  0.3800  0.0134  0.9249
              Bcc     0.0095     1.271     0.453     0.424  0.9141  0.1473 -0.3777
 
              Baa    -0.0113    -1.512    -0.540    -0.504  0.6929  0.6064 -0.3902
     3 C(13)  Bbb    -0.0011    -0.144    -0.051    -0.048  0.0597  0.4911  0.8691
              Bcc     0.0123     1.656     0.591     0.552  0.7186 -0.6254  0.3041
 
              Baa    -0.0065    -0.873    -0.311    -0.291  0.0240 -0.0009  0.9997
     4 C(13)  Bbb    -0.0050    -0.674    -0.240    -0.225 -0.5833  0.8121  0.0148
              Bcc     0.0115     1.546     0.552     0.516  0.8119  0.5835 -0.0189
 
              Baa    -0.5502   -73.827   -26.343   -24.626  0.8799 -0.4744  0.0264
     5 C(13)  Bbb    -0.5328   -71.492   -25.510   -23.847  0.4751  0.8791 -0.0396
              Bcc     1.0829   145.319    51.854    48.473 -0.0045  0.0474  0.9989
 
              Baa    -0.0098    -5.215    -1.861    -1.740  0.1924 -0.6237  0.7576
     6 H(1)   Bbb    -0.0071    -3.800    -1.356    -1.268  0.4110  0.7523  0.5149
              Bcc     0.0169     9.016     3.217     3.007  0.8911 -0.2123 -0.4010
 
              Baa    -0.0098    -5.207    -1.858    -1.737 -0.1220  0.5110  0.8509
     7 H(1)   Bbb    -0.0082    -4.372    -1.560    -1.458  0.3821  0.8154 -0.4349
              Bcc     0.0180     9.579     3.418     3.195  0.9160 -0.2721  0.2947
 
              Baa    -0.0054    -2.877    -1.027    -0.960 -0.2618 -0.0996  0.9600
     8 H(1)   Bbb    -0.0050    -2.649    -0.945    -0.884 -0.6996  0.7048 -0.1177
              Bcc     0.0104     5.526     1.972     1.843  0.6648  0.7024  0.2542
 
              Baa    -0.0031    -1.650    -0.589    -0.550 -0.4450  0.8214 -0.3567
     9 H(1)   Bbb    -0.0028    -1.505    -0.537    -0.502 -0.1726  0.3122  0.9342
              Bcc     0.0059     3.155     1.126     1.052  0.8787  0.4773  0.0029
 
              Baa    -0.0050    -2.652    -0.946    -0.885  0.3034  0.0850  0.9491
    10 H(1)   Bbb    -0.0044    -2.344    -0.836    -0.782  0.7069 -0.6880 -0.1643
              Bcc     0.0094     4.996     1.783     1.666  0.6390  0.7207 -0.2688
 
              Baa    -0.0088    -4.692    -1.674    -1.565  0.1079 -0.1971  0.9744
    11 H(1)   Bbb    -0.0083    -4.454    -1.589    -1.486  0.9516  0.3042 -0.0438
              Bcc     0.0171     9.146     3.263     3.051 -0.2878  0.9320  0.2204
 
              Baa    -0.0096    -5.138    -1.833    -1.714  0.4751  0.5747  0.6663
    12 H(1)   Bbb    -0.0063    -3.385    -1.208    -1.129  0.8108  0.0085 -0.5853
              Bcc     0.0160     8.523     3.041     2.843 -0.3420  0.8183 -0.4619
 
              Baa    -0.0676   -36.089   -12.878   -12.038  0.9025 -0.4301  0.0229
    13 H(1)   Bbb    -0.0053    -2.852    -1.018    -0.951 -0.0296 -0.0091  0.9995
              Bcc     0.0730    38.941    13.895    12.989  0.4297  0.9027  0.0209
 
              Baa    -0.0096    -5.122    -1.828    -1.709 -0.0068  0.9986  0.0529
    14 H(1)   Bbb    -0.0063    -3.348    -1.194    -1.117 -0.0596 -0.0532  0.9968
              Bcc     0.0159     8.470     3.022     2.825  0.9982  0.0036  0.0599
 

 ---------------------------------------------------------------------------------

 No NMR shielding tensors so no spin-rotation constants.
 Leave Link  601 at Sat Mar  9 00:35:46 2019, MaxMem=   671088640 cpu:              13.2 elap:               0.7
 (Enter /shared/centos7/gaussian/g16/l701.exe)
 SCFChk:  SCF convergence  4.19D-09 required  1.00D-08
 ... and contract with generalized density number  0.
 Compute integral second derivatives.
 Entering OneElI...
 Calculate overlap and kinetic energy integrals
    NBasis = 276  MinDer = 2  MaxDer = 2
 Requested accuracy = 0.1000D-12
 PrmmSu-InSpLW:  IPartL=    0 NPrtUS=   20 NPrtUL=    1 DoSpLW=F IThBeg=    0 IThEnd=   19 NThAct=   20.
 PrsmSu:  NPrtUS=  20 ThrOK=T IAlg=1 NPAlg=1 LenDen=           0 ISkipM=0 DoSpLW=F IThBeg=    0 IThEnd=   19.
 Prism:   IPart=     0 DynPar=F LinDyn=F Incr=           1.
 PRISM was handed    33457636 working-precision words and  3641 shell-pairs
 PRISM was handed    33457636 working-precision words and  3641 shell-pairs
 PRISM was handed    33457636 working-precision words and  3641 shell-pairs
 PRISM was handed    33457636 working-precision words and  3641 shell-pairs
 PRISM was handed    33457636 working-precision words and  3641 shell-pairs
 PRISM was handed    33457636 working-precision words and  3641 shell-pairs
 PRISM was handed    33457636 working-precision words and  3641 shell-pairs
 PRISM was handed    33457636 working-precision words and  3641 shell-pairs
 PRISM was handed    33457636 working-precision words and  3641 shell-pairs
 PRISM was handed    33457636 working-precision words and  3641 shell-pairs
 PRISM was handed    33457636 working-precision words and  3641 shell-pairs
 PRISM was handed    33457636 working-precision words and  3641 shell-pairs
 PRISM was handed    33457636 working-precision words and  3641 shell-pairs
 PRISM was handed    33457636 working-precision words and  3641 shell-pairs
 PRISM was handed    33457636 working-precision words and  3641 shell-pairs
 PRISM was handed    33457636 working-precision words and  3641 shell-pairs
 PRISM was handed    33457636 working-precision words and  3641 shell-pairs
 PRISM was handed    33457636 working-precision words and  3641 shell-pairs
 PRISM was handed    33457636 working-precision words and  3641 shell-pairs
 PRISM was handed    33457636 working-precision words and  3641 shell-pairs
 IPart=  0 NShTot=         218 NBatch=          58 AvBLen=         3.8
 IPart= 16 NShTot=         165 NBatch=          30 AvBLen=         5.5
 IPart= 17 NShTot=         164 NBatch=          30 AvBLen=         5.5
 IPart= 18 NShTot=         162 NBatch=          28 AvBLen=         5.8
 IPart= 19 NShTot=         161 NBatch=          28 AvBLen=         5.8
 IPart= 12 NShTot=         174 NBatch=          32 AvBLen=         5.4
 IPart= 14 NShTot=         172 NBatch=          32 AvBLen=         5.4
 IPart=  4 NShTot=         194 NBatch=          42 AvBLen=         4.6
 IPart=  1 NShTot=         207 NBatch=          48 AvBLen=         4.3
 IPart= 11 NShTot=         176 NBatch=          33 AvBLen=         5.3
 IPart=  5 NShTot=         192 NBatch=          40 AvBLen=         4.8
 IPart=  8 NShTot=         183 NBatch=          37 AvBLen=         4.9
 IPart=  9 NShTot=         181 NBatch=          36 AvBLen=         5.0
 IPart=  3 NShTot=         199 NBatch=          44 AvBLen=         4.5
 IPart=  7 NShTot=         184 NBatch=          37 AvBLen=         5.0
 IPart= 10 NShTot=         178 NBatch=          35 AvBLen=         5.1
 IPart= 15 NShTot=         166 NBatch=          30 AvBLen=         5.5
 IPart= 13 NShTot=         173 NBatch=          32 AvBLen=         5.4
 IPart=  2 NShTot=         202 NBatch=          44 AvBLen=         4.6
 IPart=  6 NShTot=         190 NBatch=          39 AvBLen=         4.9
 PrSmSu:  NxtVal=             21.
 Entering OneElI...
 Calculate potential energy integrals
    NBasis = 276  MinDer = 2  MaxDer = 2
 Requested accuracy = 0.1000D-12
 PrmmSu-InSpLW:  IPartL=    0 NPrtUS=   20 NPrtUL=    1 DoSpLW=F IThBeg=    0 IThEnd=   19 NThAct=   20.
 PrsmSu:  NPrtUS=  20 ThrOK=T IAlg=1 NPAlg=1 LenDen=           0 ISkipM=0 DoSpLW=F IThBeg=    0 IThEnd=   19.
 Prism:   IPart=     0 DynPar=F LinDyn=F Incr=          24.
 PRISM was handed    33470047 working-precision words and  3468 shell-pairs
 PRISM was handed    33470047 working-precision words and  3468 shell-pairs
 PRISM was handed    33470047 working-precision words and  3468 shell-pairs
 PRISM was handed    33470047 working-precision words and  3468 shell-pairs
 PRISM was handed    33470047 working-precision words and  3468 shell-pairs
 PRISM was handed    33470047 working-precision words and  3468 shell-pairs
 PRISM was handed    33470047 working-precision words and  3468 shell-pairs
 PRISM was handed    33470047 working-precision words and  3468 shell-pairs
 PRISM was handed    33470047 working-precision words and  3468 shell-pairs
 PRISM was handed    33470047 working-precision words and  3468 shell-pairs
 PRISM was handed    33470047 working-precision words and  3468 shell-pairs
 PRISM was handed    33470047 working-precision words and  3468 shell-pairs
 PRISM was handed    33470047 working-precision words and  3468 shell-pairs
 PRISM was handed    33470047 working-precision words and  3468 shell-pairs
 PRISM was handed    33470047 working-precision words and  3468 shell-pairs
 PRISM was handed    33470047 working-precision words and  3468 shell-pairs
 PRISM was handed    33470047 working-precision words and  3468 shell-pairs
 PRISM was handed    33470047 working-precision words and  3468 shell-pairs
 PRISM was handed    33470047 working-precision words and  3468 shell-pairs
 PRISM was handed    33470047 working-precision words and  3468 shell-pairs
 IPart=  0 NShTot=        2898 NBatch=         207 AvBLen=        14.0
 IPart= 19 NShTot=        2156 NBatch=         154 AvBLen=        14.0
 IPart= 17 NShTot=        2184 NBatch=         156 AvBLen=        14.0
 IPart= 18 NShTot=        2184 NBatch=         156 AvBLen=        14.0
 IPart= 16 NShTot=        2198 NBatch=         157 AvBLen=        14.0
 IPart= 15 NShTot=        2240 NBatch=         160 AvBLen=        14.0
 IPart=  2 NShTot=        2674 NBatch=         191 AvBLen=        14.0
 IPart= 12 NShTot=        2338 NBatch=         167 AvBLen=        14.0
 IPart=  1 NShTot=        2772 NBatch=         198 AvBLen=        14.0
 IPart= 10 NShTot=        2366 NBatch=         169 AvBLen=        14.0
 IPart=  9 NShTot=        2394 NBatch=         171 AvBLen=        14.0
 IPart= 13 NShTot=        2324 NBatch=         166 AvBLen=        14.0
 IPart=  3 NShTot=        2646 NBatch=         189 AvBLen=        14.0
 IPart=  7 NShTot=        2464 NBatch=         176 AvBLen=        14.0
 IPart=  5 NShTot=        2534 NBatch=         181 AvBLen=        14.0
 IPart=  6 NShTot=        2520 NBatch=         180 AvBLen=        14.0
 IPart=  8 NShTot=        2436 NBatch=         174 AvBLen=        14.0
 IPart= 11 NShTot=        2352 NBatch=         168 AvBLen=        14.0
 IPart= 14 NShTot=        2282 NBatch=         163 AvBLen=        14.0
 IPart=  4 NShTot=        2590 NBatch=         185 AvBLen=        14.0
 PrSmSu:  NxtVal=            481.
 Polarizability after L701:
                1             2             3 
      1  0.000000D+00
      2  0.000000D+00  0.000000D+00
      3  0.000000D+00  0.000000D+00  0.000000D+00
 Dipole Derivatives after L701:
                 1             2             3             4             5 
      1  -0.801692D+00 -0.917874D+00 -0.297769D-01 -0.785200D+00  0.133032D+01
      2   0.183962D-02 -0.816032D+00 -0.122344D+00  0.437115D+00 -0.915248D+00
      3  -0.522099D-02 -0.103406D+00 -0.493549D+00  0.657379D-01  0.154709D+00
                 6             7             8             9            10 
      1   0.180394D+00  0.103731D+00  0.486757D+00 -0.420644D+00 -0.149286D+01
      2   0.106613D+00 -0.133048D+00 -0.855057D+00  0.842047D-01 -0.198297D-01
      3  -0.960026D+00 -0.126829D+00  0.536762D-01 -0.799982D+00 -0.105661D-02
                11            12            13            14            15 
      1  -0.107987D+01 -0.133794D+00 -0.149742D+00 -0.427172D+00  0.834913D-01
      2  -0.969211D+00 -0.809442D-01 -0.481758D+00 -0.600855D+00 -0.752182D-01
      3  -0.589753D-01 -0.108289D+01  0.426036D-01 -0.142379D+00  0.588516D-01
                16            17            18            19            20 
      1   0.383548D+00 -0.337705D+00 -0.548422D+00  0.449709D+00 -0.429906D+00
      2  -0.138127D+00  0.379752D+00  0.377139D+00 -0.183949D+00  0.452404D+00
      3  -0.108677D+00  0.173909D+00  0.470367D+00  0.112887D+00 -0.189083D+00
                21            22            23            24            25 
      1   0.517732D+00 -0.757922D-01  0.334642D+00  0.538696D+00  0.153354D+01
      2  -0.380338D+00 -0.156547D+00  0.388792D+00  0.408823D+00  0.279133D+00
      3   0.414767D+00 -0.137688D+00  0.195745D+00  0.509305D+00  0.141783D-01
                26            27            28            29            30 
      1  -0.141331D+00  0.720883D-03 -0.885018D-01  0.377590D+00 -0.484388D+00
      2   0.113804D+00  0.126430D-02 -0.172861D+00  0.440167D+00 -0.396270D+00
      3  -0.779507D-03  0.111538D+00  0.118921D+00 -0.195600D+00  0.447369D+00
                31            32            33            34            35 
      1   0.629167D-01 -0.229997D+00 -0.200000D+00  0.132459D+00 -0.161787D+00
      2   0.153116D+00  0.518726D+00  0.286934D+00  0.473907D-01  0.318139D+00
      3   0.555113D-01  0.186682D+00  0.377255D+00 -0.284671D-01 -0.160331D+00
                36            37            38            39            40 
      1   0.329827D+00  0.261424D+00  0.263836D+00 -0.505354D-02  0.466460D+00
      2  -0.299620D+00  0.317454D+00  0.887848D+00 -0.125968D-01  0.500708D-01
      3   0.536486D+00 -0.104336D-01 -0.253602D-01  0.934145D-01  0.853357D-02
                41            42 
      1   0.932492D+00  0.171218D+00
      2   0.656770D+00  0.102353D+00
      3   0.111192D+00  0.317090D+00
 Hessian after L701:
                1             2             3             4             5 
      1  0.320144D+01
      2 -0.147796D+01  0.700270D+01
      3  0.509425D+00 -0.867419D+00  0.109230D+02
      4  0.297417D+00 -0.957778D-01 -0.169560D+00  0.102576D+02
      5 -0.272198D-01 -0.186585D+00  0.462468D-01 -0.523782D+00  0.123958D+02
      6 -0.124941D+00  0.306632D-01 -0.154416D+00  0.312940D-01  0.151337D+00
      7  0.563304D+00  0.143279D+01 -0.554011D+00  0.134378D+00 -0.105219D-01
      8  0.145098D+01 -0.556997D+01 -0.175502D+00 -0.553000D-01  0.243022D-01
      9 -0.478441D+00 -0.178309D+00 -0.601808D+01  0.113930D+00 -0.603930D-01
     10  0.110703D+00  0.287477D-01  0.219652D-01 -0.409610D+01  0.164386D+01
     11 -0.547027D-02 -0.851092D-01  0.865988D-03  0.166654D+01 -0.157539D+01
     12  0.253403D-02 -0.161756D-02 -0.979169D-01  0.422864D-01  0.115976D+00
     13  0.620607D+00 -0.525972D+00  0.175170D-01 -0.583710D+00  0.306123D+00
     14 -0.363377D+00 -0.178572D+00  0.272275D-02  0.270286D+00 -0.530085D+01
     15 -0.311537D-01  0.230103D-01 -0.321664D+00 -0.176882D+00 -0.302786D-02
     16  0.242580D-01 -0.160419D-01 -0.671394D-02 -0.308909D+01 -0.475108D+00
     17 -0.216783D-01 -0.129826D-02  0.451841D-02 -0.461030D+00 -0.274677D+01
     18 -0.229858D-01  0.129603D-01 -0.614625D-02 -0.698494D+00  0.101622D+01
     19  0.244091D-01 -0.168703D-01  0.536840D-02 -0.307066D+01 -0.665196D+00
     20 -0.246433D-01  0.119288D-02 -0.420452D-02 -0.646943D+00 -0.257113D+01
     21  0.203629D-01 -0.125721D-01 -0.754192D-02  0.743769D+00 -0.109537D+01
     22  0.160880D-01  0.725731D-02  0.723978D-02  0.979823D-01 -0.589543D-01
     23  0.212866D-01 -0.107535D-01  0.520497D-02  0.494391D-03 -0.673528D-01
     24  0.276381D-01  0.394870D-02 -0.604632D-02 -0.118916D-01 -0.729485D-01
     25  0.269001D-01 -0.309791D-02 -0.297074D-03  0.238065D-01 -0.664538D-01
     26  0.114901D-03 -0.561717D-02 -0.627725D-04 -0.862011D-01  0.119446D-01
     27 -0.219957D-03 -0.462635D-04 -0.647521D-02 -0.166589D-02  0.239763D-02
     28  0.213048D-01  0.869859D-02 -0.963551D-02  0.148403D-01 -0.194437D-01
     29  0.251152D-01 -0.107298D-01 -0.682252D-02  0.425740D-01 -0.542974D-01
     30 -0.276104D-01 -0.480937D-02 -0.656993D-02 -0.108321D-01 -0.771436D-02
     31 -0.545250D-01 -0.528607D-01  0.110246D+00  0.116719D-01  0.269832D-01
     32 -0.163118D-01  0.467871D-01  0.125274D+00  0.166321D-01 -0.525950D-02
     33  0.130542D+00  0.102795D+00  0.169303D+00  0.184592D-01 -0.258199D-01
     34 -0.129531D+00 -0.140044D-01 -0.850127D-01  0.340418D-01 -0.112653D+00
     35  0.511814D-02  0.625960D-01 -0.139389D+00 -0.147767D+00 -0.720735D-02
     36 -0.120376D+00 -0.121151D+00  0.337914D+00  0.114241D+00 -0.710291D-01
     37 -0.219794D-01 -0.350682D-02  0.252737D-02 -0.389878D-01 -0.183140D-01
     38 -0.636922D-01  0.554029D-01 -0.261809D-02  0.933285D-02  0.795310D-01
     39  0.280644D-02 -0.535917D-02 -0.349246D-01  0.236053D-02  0.157696D-02
     40 -0.470040D+01  0.728596D+00  0.150941D+00  0.679568D-02  0.682318D-03
     41  0.497735D+00 -0.112004D+01  0.101118D+01  0.109443D-01  0.327718D-02
     42  0.112420D+00  0.101791D+01 -0.477046D+01  0.298642D-02  0.255310D-02
[...]
 ! A21   A(2,5,13)             119.9035         -DE/DX =    0.0                 !
 ! A22   A(3,5,13)             116.9651         -DE/DX =    0.0                 !
 ! D1    D(14,1,3,5)            49.5356         -DE/DX =    0.0                 !
 ! D2    D(14,1,3,11)          171.1177         -DE/DX =    0.0                 !
 ! D3    D(14,1,3,12)          -74.1288         -DE/DX =    0.0                 !
 ! D4    D(5,2,4,8)            -59.5076         -DE/DX =    0.0                 !
 ! D5    D(5,2,4,9)           -179.8314         -DE/DX =    0.0                 !
 ! D6    D(5,2,4,10)            60.1027         -DE/DX =    0.0                 !
 ! D7    D(6,2,4,8)            179.2368         -DE/DX =    0.0                 !
 ! D8    D(6,2,4,9)             58.913          -DE/DX =    0.0                 !
 ! D9    D(6,2,4,10)           -61.1529         -DE/DX =    0.0                 !
 ! D10   D(7,2,4,8)             63.0254         -DE/DX =    0.0                 !
 ! D11   D(7,2,4,9)            -57.2983         -DE/DX =    0.0                 !
 ! D12   D(7,2,4,10)          -177.3643         -DE/DX =    0.0                 !
 ! D13   D(4,2,5,3)            -71.398          -DE/DX =    0.0                 !
 ! D14   D(4,2,5,13)            91.0847         -DE/DX =    0.0                 !
 ! D15   D(6,2,5,3)             49.2664         -DE/DX =    0.0                 !
 ! D16   D(6,2,5,13)          -148.2508         -DE/DX =    0.0                 !
 ! D17   D(7,2,5,3)            166.5999         -DE/DX =    0.0                 !
 ! D18   D(7,2,5,13)           -30.9174         -DE/DX =    0.0                 !
 ! D19   D(1,3,5,2)           -154.6201         -DE/DX =    0.0                 !
 ! D20   D(1,3,5,13)            42.4024         -DE/DX =    0.0                 !
 ! D21   D(11,3,5,2)            87.5608         -DE/DX =    0.0                 !
 ! D22   D(11,3,5,13)          -75.4167         -DE/DX =    0.0                 !
 ! D23   D(12,3,5,2)           -30.176          -DE/DX =    0.0                 !
 ! D24   D(12,3,5,13)          166.8465         -DE/DX =    0.0                 !
 --------------------------------------------------------------------------------
 GradGradGradGradGradGradGradGradGradGradGradGradGradGradGradGradGradGrad

 Leave Link  103 at Sat Mar  9 01:12:11 2019, MaxMem=   671088640 cpu:               0.8 elap:               0.1
 (Enter /shared/centos7/gaussian/g16/l9999.exe)

 ----------------------------------------------------------------------

 Electric dipole moment (input orientation):
 (Debye = 10**-18 statcoulomb cm , SI units = C m)
                  (au)            (Debye)         (10**-30 SI)
   Tot        0.766759D+00      0.194891D+01      0.650085D+01
   x         -0.744086D+00     -0.189128D+01     -0.630862D+01
   y          0.182066D+00      0.462765D+00      0.154362D+01
   z         -0.332828D-01     -0.845965D-01     -0.282183D+00

 Dipole polarizability, Alpha (input orientation).
 (esu units = cm**3 , SI units = C**2 m**2 J**-1)
 Alpha(0;0):
               (au)            (10**-24 esu)      (10**-40 SI)
   iso        0.551123D+02      0.816679D+01      0.908678D+01
   aniso      0.151430D+02      0.224395D+01      0.249674D+01
   xx         0.567524D+02      0.840984D+01      0.935721D+01
   yx        -0.704371D+01     -0.104377D+01     -0.116135D+01
   yy         0.558522D+02      0.827645D+01      0.920879D+01
   zx         0.210663D+01      0.312170D+00      0.347336D+00
   zy        -0.423479D+01     -0.627531D+00     -0.698222D+00
   zz         0.527321D+02      0.781410D+01      0.869436D+01

 ----------------------------------------------------------------------

 Dipole orientation:
     8        -12.12249550         -5.94554452       -113.42872649
     6        -12.07735897         -3.67730442       -106.67956070
     6        -13.09676126         -4.51176597       -111.38798129
     6        -13.23210212         -1.03104001       -106.33041028
     6        -11.23187497         -4.14405460       -109.32101779
     1        -13.49662115         -5.08548346       -106.15082338
     1        -10.49432694         -3.90105465       -105.37956885
     1        -11.86229857          0.42824638       -106.81564752
     1        -13.82883466         -0.73825891       -104.38149623
     1        -14.87664755         -0.78581194       -107.54665697
     1        -13.66310445         -2.70492133       -112.22772433
     1        -14.82256404         -5.37614070       -110.62546445
     1         -9.31127800         -3.69719745       -109.87204706
     1        -11.35779641         -7.44390411       -112.74908584

 Electric dipole moment (dipole orientation):
 (Debye = 10**-18 statcoulomb cm , SI units = C m)
                  (au)            (Debye)         (10**-30 SI)
   Tot        0.766759D+00      0.194891D+01      0.650085D+01
   x          0.000000D+00      0.000000D+00      0.000000D+00
   y          0.000000D+00      0.000000D+00      0.000000D+00
   z          0.766759D+00      0.194891D+01      0.650085D+01

 Dipole polarizability, Alpha (dipole orientation).
 (esu units = cm**3 , SI units = C**2 m**2 J**-1)
 Alpha(0;0):
               (au)            (10**-24 esu)      (10**-40 SI)
   iso        0.551123D+02      0.816679D+01      0.908678D+01
   aniso      0.151430D+02      0.224395D+01      0.249674D+01
   xx         0.509451D+02      0.754929D+01      0.839971D+01
   yx        -0.292980D+01     -0.434152D+00     -0.483060D+00
   yy         0.541867D+02      0.802964D+01      0.893418D+01
   zx        -0.117841D+01     -0.174623D+00     -0.194294D+00
   zy         0.666223D+01      0.987240D+00      0.109845D+01
   zz         0.602050D+02      0.892145D+01      0.992646D+01

 ----------------------------------------------------------------------

 Test job not archived.
 1\1\GINC-C0181\Freq\UM062X\6-311+G(2df,2p)\C4H9O1(2)\UNDERKOFFLER.C\09
 -Mar-2019\0\\#P Geom=AllCheck Guess=TCheck SCRF=Check Test GenChk UM06
 2X/6-311+G(2df,2p) Freq\\Gaussian input prepared by ASE\\0,2\O,57.3914
 624493,-18.7586291749,-2.8727209821\C,54.2150706085,-16.7752728814,-3.
 2895802495\C,56.5182350943,-17.912390717,-3.6000685802\C,54.3635986751
 ,-15.5607897263,-4.2231037768\C,55.5189894966,-17.2318399098,-2.736076
 7363\H,53.7523823173,-17.5910043702,-3.8536173816\H,53.5319772563,-16.
 5215621117,-2.4783929931\H,54.8100565061,-14.7204460213,-3.6918860531\
 H,53.3951898449,-15.2461683983,-4.6110987465\H,55.0059185841,-15.80112
 31356,-5.0705023396\H,57.1751307028,-17.1903119684,-4.0986475205\H,56.
 0022930916,-18.4670142226,-4.3952234589\H,55.8747067001,-16.8337306678
 ,-1.7932851901\H,56.8577370592,-19.3219190795,-2.3073647238\\Version=E
 M64L-G16RevA.03\State=2-A\HF=-232.9667372\S2=0.755244\S2-1=0.\S2A=0.75
 0023\RMSD=9.200e-10\RMSF=8.701e-07\ZeroPoint=0.1237019\Thermal=0.13074
 27\Dipole=-0.7440858,0.1820656,-0.0332828\DipoleDeriv=-0.6151578,0.310
 8164,-0.1836841,0.3408311,-0.6975096,0.0893521,-0.204581,0.0876093,-0.
 5618176,0.0963226,0.0056027,0.0010721,0.0724381,0.0704985,0.0125,-0.04
 6793,0.0175661,0.0690093,0.4751185,-0.1970728,0.1406049,-0.2671944,0.5
 579954,-0.1332993,0.1784842,-0.1580017,0.3878033,0.0277482,0.041749,-0
 .0096608,-0.0246079,0.0663503,0.0209024,0.0184198,0.0295408,0.0622385,
 0.0546795,-0.0959301,0.0702731,-0.0363858,-0.254152,0.1810987,0.130483
 5,0.1042694,-0.0021297,-0.0016254,-0.0290218,-0.0399928,-0.0678879,-0.
 0822611,-0.055539,-0.0708586,-0.0565736,-0.0090648,-0.0520348,0.046238
 2,0.0706228,0.0513118,0.0262794,-0.0140981,0.0958266,-0.0023865,-0.057
 4754,0.033497,-0.077702,-0.0313872,-0.0466395,-0.0626716,-0.0245517,-0
 .0419105,-0.0786139,-0.001592,-0.0999411,0.0772887,-0.0787621,0.056716
 3,0.0050391,0.0499848,-0.0716977,0.0648322,0.02211,-0.002618,0.0064725
 ,0.1012682,0.0309763,0.0226328,-0.0417249,0.0785537,-0.0043709,-0.0532
 902,-0.0505638,-0.0262502,0.0699933,-0.0253104,-0.0355194,0.0634268,0.
 0360658,0.0515116,0.0069164,-0.0410474,-0.0161399,-0.114335,-0.0336087
 ,-0.0133353,-0.0780781,-0.0926448,-0.0299792,-0.0973057,-0.0209518,0.0
 478294,-0.0643799,0.0085959,0.081151,-0.093667,-0.0343451,-0.07838,-0.
 0292579,0.1965744,-0.0938801,0.0683675,-0.0592348,0.3155024,0.0236932,
 0.0249971,0.0529764,0.2638557\Polar=56.7523899,-7.0437051,55.8522298,2
 .106626,-4.2347896,52.7321478\Quadrupole=-2.9611914,1.358391,1.6028004
 ,1.8290215,-0.4509983,-0.5705174\PG=C01 [X(C4H9O1)]\NImag=0\\0.3848801
 6,0.06451561,0.33868237,-0.08876050,-0.27912541,0.32104314,-0.00084669
 ,0.00040400,0.00106353,0.53523253,0.00382550,-0.00207384,-0.00029491,-
 0.00254979,0.47170815,0.00478867,-0.00344423,-0.00078291,-0.02742599,0
 .08986486,0.52745230,-0.14260652,0.06884723,-0.06670437,-0.01595910,0.
 00901586,0.01251559,0.51618222,0.04140048,-0.12982135,0.06292305,0.009
 54019,-0.00153986,-0.00560589,0.04737922,0.50946748,-0.03797412,0.0592
 6450,-0.11924250,-0.00882970,0.00438767,0.01336850,0.00939236,0.012858
 17,0.53768903,-0.00060066,0.00027750,0.00060619,-0.07456151,-0.0045061
 2,0.00603982,-0.00025292,-0.00164702,-0.00044035,0.57684271,-0.0004854
 3,0.00033778,0.00013196,-0.01740020,-0.13590713,0.04455256,0.00039720,
 0.00091586,-0.00084826,-0.01004523,0.49706846,0.00029573,0.00018370,-0
 .00047903,0.01611210,0.04661695,-0.10987971,-0.00024496,-0.00114178,0.
 00092321,0.00882145,0.05965223,0.52889116,-0.03085394,0.02564574,0.008
 82125,-0.19730684,0.05159206,-0.05058416,-0.13755568,0.04729731,0.0495
 4010,0.00046880,0.01057430,-0.00939420,0.48247801,0.02436555,-0.012892
 86,-0.00712645,0.04890455,-0.06926784,-0.00345058,0.04727246,-0.088645
 31,-0.05226359,0.02330955,-0.01122668,0.01319877,-0.11821362,0.2364264
 9,-0.01639204,0.01371148,0.01101168,-0.05167362,0.00092428,-0.10241719
 ,0.05460686,-0.05444227,-0.14248640,-0.01964112,0.01072009,-0.01123865
 ,0.09087746,0.15941872,0.53228665,0.00027664,0.00035434,0.00082891,-0.
 09406139,-0.07985874,-0.05208718,0.00093100,-0.00140144,-0.00186182,-0
 .00038781,-0.00376838,-0.00090045,-0.01311414,-0.01759854,-0.01944848,
 0.10023111,-0.00004012,0.00004467,0.00020862,-0.07696162,-0.18465404,-
 0.10197964,0.00039720,0.00066270,0.00018287,-0.01171110,-0.02351777,-0
 .01226095,0.00386151,0.00826341,0.00561577,0.08552889,0.20674897,0.000
 06104,0.00028614,0.00028403,-0.05117594,-0.10472285,-0.11443087,0.0015
 0895,0.00021003,-0.00015411,0.00914790,0.01859296,0.00955218,-0.009427
 19,-0.00628700,-0.01116345,0.06284002,0.10665693,0.12733874,-0.0015029
 9,0.00126600,0.00032310,-0.15104890,0.03722578,0.12129252,-0.00218656,
 -0.00055592,-0.00395583,-0.00114191,-0.00017901,0.00296577,-0.01932878
 ,0.01100701,0.02191822,0.00923429,-0.00237123,-0.01043903,0.16342137,0
 .00072171,-0.00024894,0.00010224,0.03778932,-0.06128343,-0.05175444,0.
 00187190,0.00076575,0.00065604,-0.01737414,0.00472121,0.02319014,0.007
 01736,-0.00502574,-0.00744573,0.01555253,-0.00575342,-0.01701995,-0.04
 499451,0.06842824,-0.00055059,0.00054735,0.00022139,0.12200399,-0.0516
 3028,-0.19508977,-0.00143787,0.00074308,-0.00126853,0.01259499,-0.0034
 2770,-0.01645587,-0.00972533,0.00482501,0.01100997,0.00964854,-0.00350
 141,-0.01228835,-0.13223631,0.04941225,0.21250829,0.00002450,-0.000110
 05,-0.00003983,-0.00174040,-0.00228161,-0.00129248,0.00005608,0.000193
 86,0.00013078,-0.09337031,-0.08363892,-0.05521236,0.00030476,0.0006591
 2,0.00070694,0.00080360,-0.00020797,0.00059339,-0.00023260,-0.00016580
 ,-0.00012126,0.09619502,0.00012068,-0.00000593,0.00006042,-0.00966958,
 -0.02114393,-0.01140395,0.00006367,-0.00025462,-0.00002133,-0.08340184
 ,-0.20325181,-0.10397982,-0.00096436,0.00179376,-0.00136972,-0.0003332
 7,-0.00328275,0.00397089,0.00006223,0.00116526,-0.00004785,0.09275245,
 0.22265284,0.00007999,0.00000839,0.00005321,0.00842753,0.01787791,0.01
 025187,-0.00023854,-0.00003302,-0.00009800,-0.05521021,-0.10446429,-0.
 11448772,0.00100795,-0.00072829,0.00154449,0.00033474,0.00432145,-0.00
 206313,0.00004345,-0.00090193,0.00103017,0.05993799,0.11031944,0.12247
 067,-0.00006362,0.00018196,-0.00013665,0.00529604,-0.00333532,0.003327
 89,0.00023378,-0.00042256,0.00011056,-0.26377142,0.06792741,-0.0845509
 3,0.00047500,0.00063803,-0.00021786,0.00021258,0.00068259,-0.00029636,
 0.00040620,0.00044557,-0.00051260,-0.01084928,0.00358627,-0.00313150,0
 .28388002,0.00034244,-0.00025224,-0.00013340,0.02358367,-0.00887877,0.
 00950990,-0.00022161,0.00062702,0.00016358,0.06755730,-0.06744964,0.02
 473284,-0.00149501,-0.00299061,0.00335894,0.00009385,0.00076350,-0.001
 08909,-0.00034164,0.00120349,-0.00055300,-0.02296940,0.00829791,-0.007
 88645,-0.07371065,0.07185042,-0.00050391,0.00016068,0.00026993,-0.0175
 4316,0.00599074,-0.00774862,0.00043285,-0.00034659,-0.00041244,-0.0844
 5273,0.02480827,-0.07993111,0.00106621,0.00374415,-0.00168572,0.000393
 55,-0.00056636,0.00077711,-0.00012476,-0.00088849,0.00025023,-0.014108
 72,0.00523169,-0.00599403,0.09226732,-0.03083582,0.08392510,0.00015792
 ,-0.00017391,-0.00009192,-0.00206250,0.00026321,0.00193967,0.00007220,
 0.00018523,0.00026339,-0.14149435,0.03742297,0.12215253,0.00048860,-0.
 00063427,-0.00082686,-0.00021973,-0.00015474,0.00007456,0.00105503,-0.
 00064133,-0.00013343,0.00856553,-0.00258090,-0.01147650,-0.01616704,0.
 00653494,0.02305444,0.14977309,-0.00011756,-0.00002591,-0.00024772,-0.
 01641293,0.00526351,0.02285043,0.00035687,0.00010579,0.00052932,0.0376
 9177,-0.06119726,-0.05026581,-0.00094887,0.00145003,-0.00103446,-0.000
 01878,0.00138871,-0.00088515,-0.00042782,-0.00427712,0.00400173,0.0160
 0723,-0.00564980,-0.01841774,0.00421911,-0.00303432,-0.00698846,-0.040
 42699,0.06630779,-0.00025582,-0.00022276,0.00049956,0.01071288,-0.0033
 7846,-0.01586675,0.00013652,0.00058001,-0.00063297,0.12185934,-0.04980
 639,-0.20736173,0.00100264,-0.00113073,0.00068930,-0.00033652,-0.00009
 013,0.00100692,-0.00002861,0.00368982,-0.00116271,0.00939520,-0.003220
 38,-0.01233546,-0.00695532,0.00273745,0.01025116,-0.13488059,0.0507151
 6,0.22475077,0.01185825,0.02028002,-0.01563317,0.00054021,0.00052921,0
 .00051083,-0.14113336,-0.11389370,0.07060004,-0.00070378,-0.00001035,0
 .00031976,-0.01606020,-0.00758387,0.01324384,0.00005703,-0.00000859,0.
 00009412,-0.00019248,0.00050525,-0.00004998,-0.00003065,0.00008595,0.0
 0006197,0.00022101,0.00018704,-0.00044373,-0.00022630,0.00019588,-0.00
 067981,0.15546433,-0.00813801,-0.02085478,0.01974062,-0.00107479,-0.00
 059712,0.00085731,-0.09449358,-0.14854883,0.06236270,0.00044906,-0.000
 23023,0.00058603,0.00851073,0.01260376,-0.00653685,0.00021889,-0.00008
 982,-0.00001429,-0.00002507,-0.00003383,-0.00007871,-0.00002032,-0.000
 12220,-0.00010663,-0.00010542,-0.00015650,0.00002428,0.00023669,-0.000
 05211,0.00001165,0.10529584,0.17255584,0.00704565,0.02138774,-0.014259
 02,0.00010566,0.00007202,-0.00120617,0.06298526,0.06936216,-0.09199445
 ,0.00022522,0.00000361,0.00006424,0.01639998,0.00726347,-0.00935202,0.
 00013879,0.00004383,0.00015782,0.00040229,-0.00019588,0.00017130,0.000
 06011,-0.00005716,-0.00009324,0.00000662,-0.00010908,0.00009960,-0.000
 13959,0.00001781,0.00012052,-0.07056861,-0.08477892,0.10668755,-0.0156
 5469,0.00105985,-0.02169023,0.00140854,0.00052375,0.00065007,-0.098028
 55,-0.05961766,-0.07592573,0.00009498,-0.00012483,-0.00009900,0.009488
 52,0.01120159,0.01707251,-0.00007106,-0.00049284,-0.00021485,0.0002197
 7,-0.00015954,0.00003834,-0.00001403,-0.00003891,0.00009545,-0.0000230
 9,0.00000520,0.00001068,0.00003210,-0.00013561,-0.00002304,-0.00857839
 ,-0.01353984,-0.01383693,0.11401349,0.01746162,0.01123506,0.02177707,-
 0.00082863,0.00015812,-0.00023144,-0.06223224,-0.12488142,-0.09423807,
 0.00029883,-0.00010609,-0.00016781,-0.00734663,-0.00560712,-0.01108992
 ,0.00062830,0.00010924,0.00025003,0.00009361,0.00021875,0.00022236,-0.
 00010829,0.00016810,0.00005329,-0.00000896,-0.00000771,0.00013297,-0.0
 0015476,-0.00028020,0.00016326,-0.01046617,-0.01156195,-0.01520891,0.0
 5992951,0.12980060,-0.01643479,0.00253713,-0.01553769,-0.00094535,0.00
 073176,0.00038170,-0.07463930,-0.09283485,-0.16696652,0.00020576,0.000
 01532,0.00028897,-0.00655953,-0.01361159,-0.01855845,0.00108732,0.0000
 9460,0.00060610,0.00003101,0.00058699,0.00029149,-0.00000717,0.0001284
 8,-0.00004987,-0.00001052,-0.00008247,0.00003932,0.00009147,-0.0002724
 1,-0.00001828,0.00571733,0.00647314,0.01058933,0.09004752,0.09936442,0
 .19056187,0.00152218,-0.00238968,-0.00116675,-0.00435159,-0.01031506,-
 0.01977641,0.00884125,0.00936042,0.01950831,-0.00145979,-0.00073236,-0
 .00013691,-0.08022586,-0.02254513,-0.08915083,-0.00392246,0.00141080,-
 0.00270104,0.00126181,-0.00053543,0.00050104,0.00030152,0.00033545,0.0
 0007666,0.00014639,0.00054057,-0.00021582,0.00005318,0.00004407,-0.000
 07728,0.00030071,-0.00061769,-0.00048726,-0.00260878,0.00232703,0.0021
 2767,0.07980130,-0.00150109,0.00119135,0.00133641,0.00458496,0.0079729
 7,0.00985886,-0.00434917,-0.00105336,-0.00949128,-0.00059008,-0.000091
 31,-0.00039984,-0.02384637,-0.06597176,-0.11121526,0.00079504,-0.00062
 402,0.00023230,-0.00051378,0.00003904,-0.00043373,-0.00013607,-0.00035
 942,-0.00006972,-0.00004369,-0.00011919,-0.00031152,0.00008594,-0.0000
 0358,0.00002697,0.00074453,-0.00035438,-0.00082745,0.00172638,-0.00063
 155,-0.00238821,0.02288062,0.06082748,0.00041560,0.00069047,0.00304451
 ,-0.00130983,-0.00644244,-0.00358969,-0.01028323,-0.00655670,-0.014455
 37,0.00038802,0.00004772,0.00019937,-0.08307794,-0.10331534,-0.2623999
 9,-0.00044858,0.00129814,0.00051222,-0.00028954,0.00067659,0.00078202,
 -0.00003792,0.00042289,-0.00024143,0.00008929,0.00014614,0.00017720,-0
 .00002281,-0.00006438,0.00007205,-0.00019832,0.00045899,0.00039531,0.0
 0292228,-0.00109584,-0.00099090,0.09174026,0.11414997,0.27662461,-0.20
 659055,-0.18015861,0.18258043,-0.00053840,-0.00012874,0.00010115,0.011
 40617,0.02218160,-0.02055799,0.00033798,0.00006285,-0.00012853,0.00074
 173,-0.00078243,-0.00107503,0.00003033,0.00006722,-0.00006557,0.000035
 76,-0.00003289,-0.00001953,-0.00001373,-0.00001785,-0.00000897,0.00000
 340,-0.00010671,0.00016775,-0.00002773,-0.00002639,0.00013041,-0.00151
 638,0.00330352,-0.00233719,-0.00027880,0.00040679,-0.00071141,0.000340
 14,0.00016278,0.00011271,0.19607009,-0.14247138,-0.18531538,0.18064751
 ,0.00009086,0.00024321,0.00037625,-0.01430501,-0.01779986,0.01645767,-
 0.00030846,-0.00006539,0.00005535,-0.00168415,0.00109047,-0.00061506,-
 0.00019270,-0.00005938,-0.00018097,-0.00024565,0.00008074,-0.00007910,
 0.00002576,-0.00000741,0.00002758,-0.00005434,0.00014661,-0.00015554,0
 .00003791,0.00000448,-0.00007548,0.00413896,-0.00255786,0.00302676,-0.
 00033705,0.00138619,-0.00074230,0.00023640,-0.00082228,-0.00041621,0.1
 5506884,0.20367586,0.14818508,0.18401482,-0.18612631,0.00047791,0.0000
 0275,-0.00044271,0.01196987,0.01428460,-0.01426946,-0.00014428,0.00002
 192,-0.00008532,0.00005275,-0.00053656,0.00275978,-0.00018885,-0.00002
 372,-0.00013520,0.00009773,-0.00010766,0.00000036,-0.00000469,-0.00003
 361,0.00001247,0.00001003,0.00004045,-0.00001774,-0.00000435,0.0000617
 0,-0.00001239,-0.00297425,0.00100067,-0.00138079,0.00095293,0.00006858
 ,-0.00063708,-0.00024164,-0.00046749,-0.00012992,-0.15818824,-0.198326
 45,0.20046430\\0.00000095,0.00000100,-0.00000038,-0.00000025,-0.000000
 93,-0.00000033,0.00000072,0.00000090,-0.00000012,-0.00000068,-0.000000
 13,0.00000065,-0.00000019,-0.00000042,-0.00000011,0.00000058,-0.000000
 84,-0.00000116,-0.00000080,-0.00000202,-0.00000045,-0.00000151,-0.0000
 0021,0.00000148,-0.00000073,-0.00000052,0.00000044,-0.00000012,0.00000
 096,0.00000075,0.00000041,0.00000176,0.00000070,0.00000144,0.00000117,
 -0.00000080,-0.00000090,-0.00000091,0.00000040,0.00000108,0.00000019,-
 0.00000106\\\@


 We make a living by what we get,
 we make a life by what we give.
                   -- Sir Winston Churchill
 Job cpu time:       0 days  3 hours  1 minutes 34.5 seconds.
 Elapsed time:       0 days  0 hours  9 minutes  5.5 seconds.
 File lengths (MBytes):  RWF=   1376 Int=      0 D2E=      0 Chk=     32 Scr=     32
 Normal termination of Gaussian 16 at Sat Mar  9 01:12:11 2019.
