 Entering Gaussian System, Link 0=g16
 Input=DBQZVPSKYUCKNT-UHFFFAOYSA-N_GeoFreq_c2_a1.com
 Output=DBQZVPSKYUCKNT-UHFFFAOYSA-N_GeoFreq_c2_a1.log
 Initial command:
 /shared/centos7/gaussian/g16/l1.exe "/scratch/underkoffler.c/gaussian_scratch/Gau-32309.inp" -scrdir="/scratch/underkoffler.c/gaussian_scratch/"
 Entering Link 1 = /shared/centos7/gaussian/g16/l1.exe PID=     32310.
  
 Copyright (c) 1988,1990,1992,1993,1995,1998,2003,2009,2016,
            Gaussian, Inc.  All Rights Reserved.
  
 This is part of the Gaussian(R) 16 program.  It is based on
 the Gaussian(R) 09 system (copyright 2009, Gaussian, Inc.),
 the Gaussian(R) 03 system (copyright 2003, Gaussian, Inc.),
 the Gaussian(R) 98 system (copyright 1998, Gaussian, Inc.),
 the Gaussian(R) 94 system (copyright 1995, Gaussian, Inc.),
 the Gaussian 92(TM) system (copyright 1992, Gaussian, Inc.),
 the Gaussian 90(TM) system (copyright 1990, Gaussian, Inc.),
 the Gaussian 88(TM) system (copyright 1988, Gaussian, Inc.),
 the Gaussian 86(TM) system (copyright 1986, Carnegie Mellon
 University), and the Gaussian 82(TM) system (copyright 1983,
 Carnegie Mellon University). Gaussian is a federally registered
 trademark of Gaussian, Inc.
  
 This software contains proprietary and confidential information,
 including trade secrets, belonging to Gaussian, Inc.
  
 This software is provided under written license and may be
 used, copied, transmitted, or stored only in accord with that
 written license.
  
 The following legend is applicable only to US Government
 contracts under FAR:
  
                    RESTRICTED RIGHTS LEGEND
  
 Use, reproduction and disclosure by the US Government is
 subject to restrictions as set forth in subparagraphs (a)
 and (c) of the Commercial Computer Software - Restricted
 Rights clause in FAR 52.227-19.
  
 Gaussian, Inc.
 340 Quinnipiac St., Bldg. 40, Wallingford CT 06492
  
  
 ---------------------------------------------------------------
 Warning -- This program may not be used in any manner that
 competes with the business of Gaussian, Inc. or will provide
 assistance to any competitor of Gaussian, Inc.  The licensee
 of this program is prohibited from giving any competitor of
 Gaussian, Inc. access to this program.  By using this program,
 the user acknowledges that Gaussian, Inc. is engaged in the
 business of creating and licensing software in the field of
 computational chemistry and represents and warrants to the
 licensee that it is not a competitor of Gaussian, Inc. and that
 it will not use this program in any manner prohibited above.
 ---------------------------------------------------------------
  

 Cite this work as:
 Gaussian 16, Revision A.03,
 M. J. Frisch, G. W. Trucks, H. B. Schlegel, G. E. Scuseria, 
 M. A. Robb, J. R. Cheeseman, G. Scalmani, V. Barone, 
 G. A. Petersson, H. Nakatsuji, X. Li, M. Caricato, A. V. Marenich, 
 J. Bloino, B. G. Janesko, R. Gomperts, B. Mennucci, H. P. Hratchian, 
 J. V. Ortiz, A. F. Izmaylov, J. L. Sonnenberg, D. Williams-Young, 
 F. Ding, F. Lipparini, F. Egidi, J. Goings, B. Peng, A. Petrone, 
 T. Henderson, D. Ranasinghe, V. G. Zakrzewski, J. Gao, N. Rega, 
 G. Zheng, W. Liang, M. Hada, M. Ehara, K. Toyota, R. Fukuda, 
 J. Hasegawa, M. Ishida, T. Nakajima, Y. Honda, O. Kitao, H. Nakai, 
 T. Vreven, K. Throssell, J. A. Montgomery, Jr., J. E. Peralta, 
 F. Ogliaro, M. J. Bearpark, J. J. Heyd, E. N. Brothers, K. N. Kudin, 
 V. N. Staroverov, T. A. Keith, R. Kobayashi, J. Normand, 
 K. Raghavachari, A. P. Rendell, J. C. Burant, S. S. Iyengar, 
 J. Tomasi, M. Cossi, J. M. Millam, M. Klene, C. Adamo, R. Cammi, 
 J. W. Ochterski, R. L. Martin, K. Morokuma, O. Farkas, 
 J. B. Foresman, and D. J. Fox, Gaussian, Inc., Wallingford CT, 2016.
 
 ******************************************
 Gaussian 16:  EM64L-G16RevA.03 25-Dec-2016
                 9-Apr-2019 
 ******************************************
 %nprocshared=20
 Will use up to   20 processors via shared memory.
 %mem=5GB
 ----------------------------------------------------------------------
 #p m062x/6-311+g(2df,2p) opt=(calcfc,verytight,gdiis,maxcycles=900) fr
 eq iop(7/33=1,2/16=3)
 ----------------------------------------------------------------------

 Warning!  Use of Opt=GDIIS is deprecated since it is seldom a good choice.

 1/6=900,7=1,10=4,18=20,19=11,26=3,38=1/1,3;
 2/9=110,12=2,16=3,17=6,18=5,40=1/2;
 3/5=4,6=6,7=214,11=2,25=1,30=1,71=2,74=-55,140=1/1,2,3;
 4//1;
 5/5=2,38=5/2;
 8/6=4,10=90,11=11/1;
 11/6=1,8=1,9=11,15=111,16=1/1,2,10;
 10/6=1,13=1/2;
 6/7=2,8=2,9=2,10=2,28=1/1;
 7/10=1,18=20,25=1,33=1/1,2,3,16;
 1/6=900,7=1,10=4,18=20,19=11,26=3/3(2);
 2/9=110,16=3/2;
 99//99;
 2/9=110,16=3/2;
 3/5=4,6=6,7=214,11=2,25=1,30=1,71=1,74=-55/1,2,3;
 4/5=5,16=3,69=1/1;
 5/5=2,38=5/2;
 7/33=1/1,2,3,16;
 1/6=900,7=1,18=20,19=11,26=3/3(-5);
 2/9=110,16=3/2;
 6/7=2,8=2,9=2,10=2,19=2,28=1/1;
 99/9=1/99;
 Leave Link    1 at Tue Apr  9 01:14:24 2019, MaxMem=   671088640 cpu:              25.5 elap:               1.3
 (Enter /shared/centos7/gaussian/g16/l101.exe)
 ------------------------------
 Gaussian input prepared by ASE
 ------------------------------
 Symbolic Z-matrix:
 Charge =  0 Multiplicity = 2
 O                     0.3731   -0.03475  -0.61138 
 C                     2.72388   0.44018  -0.85825 
 C                     1.65459  -0.4834   -0.35053 
 C                     3.54794   2.80954   0.04843 
 C                     2.46468   1.89428  -0.51349 
 H                     3.70889   0.12862  -0.46538 
 H                     2.79219   0.32598  -1.95548 
 H                     1.78961  -0.6503    0.73955 
 H                     1.7667   -1.48564  -0.83626 
 H                     3.70156   2.61708   1.12323 
 H                     4.521     2.64246  -0.46569 
 H                     3.25285   3.87346  -0.06482 
 H                     1.42057   2.19069  -0.34764 
 H                     0.38816   0.95005  -0.54722 
 
 ITRead=  0  0  0  0  0  0  0  0  0  0  0  0  0  0
 MicOpt= -1 -1 -1 -1 -1 -1 -1 -1 -1 -1 -1 -1 -1 -1
 NAtoms=     14 NQM=       14 NQMF=       0 NMMI=      0 NMMIF=      0
                NMic=       0 NMicF=      0.
                    Isotopes and Nuclear Properties:
 (Nuclear quadrupole moments (NQMom) in fm**2, nuclear magnetic moments (NMagM)
  in nuclear magnetons)

  Atom         1           2           3           4           5           6           7           8           9          10
 IAtWgt=          16          12          12          12          12           1           1           1           1           1
 AtmWgt=  15.9949146  12.0000000  12.0000000  12.0000000  12.0000000   1.0078250   1.0078250   1.0078250   1.0078250   1.0078250
 NucSpn=           0           0           0           0           0           1           1           1           1           1
 AtZEff=  -0.0000000  -0.0000000  -0.0000000  -0.0000000  -0.0000000  -0.0000000  -0.0000000  -0.0000000  -0.0000000  -0.0000000
 NQMom=    0.0000000   0.0000000   0.0000000   0.0000000   0.0000000   0.0000000   0.0000000   0.0000000   0.0000000   0.0000000
 NMagM=    0.0000000   0.0000000   0.0000000   0.0000000   0.0000000   2.7928460   2.7928460   2.7928460   2.7928460   2.7928460
 AtZNuc=   8.0000000   6.0000000   6.0000000   6.0000000   6.0000000   1.0000000   1.0000000   1.0000000   1.0000000   1.0000000

  Atom        11          12          13          14
 IAtWgt=           1           1           1           1
 AtmWgt=   1.0078250   1.0078250   1.0078250   1.0078250
 NucSpn=           1           1           1           1
 AtZEff=  -0.0000000  -0.0000000  -0.0000000  -0.0000000
 NQMom=    0.0000000   0.0000000   0.0000000   0.0000000
 NMagM=    2.7928460   2.7928460   2.7928460   2.7928460
 AtZNuc=   1.0000000   1.0000000   1.0000000   1.0000000
 Leave Link  101 at Tue Apr  9 01:14:24 2019, MaxMem=   671088640 cpu:               4.6 elap:               0.3
 (Enter /shared/centos7/gaussian/g16/l103.exe)

 GradGradGradGradGradGradGradGradGradGradGradGradGradGradGradGradGradGrad
 Berny optimization.
 Initialization pass.
                           ----------------------------
                           !    Initial Parameters    !
                           ! (Angstroms and Degrees)  !
 --------------------------                            --------------------------
 ! Name  Definition              Value          Derivative Info.                !
 --------------------------------------------------------------------------------
 ! R1    R(1,3)                  1.3826         calculate D2E/DX2 analytically  !
 ! R2    R(1,14)                 0.987          calculate D2E/DX2 analytically  !
 ! R3    R(2,3)                  1.5014         calculate D2E/DX2 analytically  !
 ! R4    R(2,5)                  1.5167         calculate D2E/DX2 analytically  !
 ! R5    R(2,6)                  1.1053         calculate D2E/DX2 analytically  !
 ! R6    R(2,7)                  1.1053         calculate D2E/DX2 analytically  !
 ! R7    R(3,8)                  1.111          calculate D2E/DX2 analytically  !
 ! R8    R(3,9)                  1.1194         calculate D2E/DX2 analytically  !
 ! R9    R(4,5)                  1.5254         calculate D2E/DX2 analytically  !
 ! R10   R(4,10)                 1.1026         calculate D2E/DX2 analytically  !
 ! R11   R(4,11)                 1.1131         calculate D2E/DX2 analytically  !
 ! R12   R(4,12)                 1.1099         calculate D2E/DX2 analytically  !
 ! R13   R(5,13)                 1.098          calculate D2E/DX2 analytically  !
 ! A1    A(3,1,14)             107.2999         calculate D2E/DX2 analytically  !
 ! A2    A(3,2,5)              113.028          calculate D2E/DX2 analytically  !
 ! A3    A(3,2,6)              109.9436         calculate D2E/DX2 analytically  !
 ! A4    A(3,2,7)              108.4309         calculate D2E/DX2 analytically  !
 ! A5    A(5,2,6)              109.9833         calculate D2E/DX2 analytically  !
 ! A6    A(5,2,7)              109.5892         calculate D2E/DX2 analytically  !
 ! A7    A(6,2,7)              105.5842         calculate D2E/DX2 analytically  !
 ! A8    A(1,3,2)              113.3722         calculate D2E/DX2 analytically  !
 ! A9    A(1,3,8)              110.2733         calculate D2E/DX2 analytically  !
 ! A10   A(1,3,9)              107.548          calculate D2E/DX2 analytically  !
 ! A11   A(2,3,8)              109.7336         calculate D2E/DX2 analytically  !
 ! A12   A(2,3,9)              109.4338         calculate D2E/DX2 analytically  !
 ! A13   A(8,3,9)              106.2056         calculate D2E/DX2 analytically  !
 ! A14   A(5,4,10)             110.6886         calculate D2E/DX2 analytically  !
 ! A15   A(5,4,11)             111.1353         calculate D2E/DX2 analytically  !
 ! A16   A(5,4,12)             110.4116         calculate D2E/DX2 analytically  !
 ! A17   A(10,4,11)            107.5904         calculate D2E/DX2 analytically  !
 ! A18   A(10,4,12)            107.6873         calculate D2E/DX2 analytically  !
 ! A19   A(11,4,12)            109.2183         calculate D2E/DX2 analytically  !
 ! A20   A(2,5,4)              122.5208         calculate D2E/DX2 analytically  !
 ! A21   A(2,5,13)             117.1071         calculate D2E/DX2 analytically  !
 ! A22   A(4,5,13)             117.2379         calculate D2E/DX2 analytically  !
 ! D1    D(14,1,3,2)           -34.69           calculate D2E/DX2 analytically  !
 ! D2    D(14,1,3,8)            88.7974         calculate D2E/DX2 analytically  !
 ! D3    D(14,1,3,9)          -155.8084         calculate D2E/DX2 analytically  !
 ! D4    D(5,2,3,1)             46.4742         calculate D2E/DX2 analytically  !
 ! D5    D(5,2,3,8)            -77.3086         calculate D2E/DX2 analytically  !
 ! D6    D(5,2,3,9)            166.5255         calculate D2E/DX2 analytically  !
 ! D7    D(6,2,3,1)            169.7904         calculate D2E/DX2 analytically  !
 ! D8    D(6,2,3,8)             46.0077         calculate D2E/DX2 analytically  !
 ! D9    D(6,2,3,9)            -70.1582         calculate D2E/DX2 analytically  !
 ! D10   D(7,2,3,1)            -75.238          calculate D2E/DX2 analytically  !
 ! D11   D(7,2,3,8)            160.9793         calculate D2E/DX2 analytically  !
 ! D12   D(7,2,3,9)             44.8134         calculate D2E/DX2 analytically  !
 ! D13   D(3,2,5,4)            134.0947         calculate D2E/DX2 analytically  !
 ! D14   D(3,2,5,13)           -25.3194         calculate D2E/DX2 analytically  !
 ! D15   D(6,2,5,4)             10.8004         calculate D2E/DX2 analytically  !
 ! D16   D(6,2,5,13)          -148.6137         calculate D2E/DX2 analytically  !
 ! D17   D(7,2,5,4)           -104.8473         calculate D2E/DX2 analytically  !
 ! D18   D(7,2,5,13)            95.7386         calculate D2E/DX2 analytically  !
 ! D19   D(10,4,5,2)           -78.3334         calculate D2E/DX2 analytically  !
 ! D20   D(10,4,5,13)           81.0555         calculate D2E/DX2 analytically  !
 ! D21   D(11,4,5,2)            41.1602         calculate D2E/DX2 analytically  !
 ! D22   D(11,4,5,13)         -159.4509         calculate D2E/DX2 analytically  !
 ! D23   D(12,4,5,2)           162.5197         calculate D2E/DX2 analytically  !
 ! D24   D(12,4,5,13)          -38.0914         calculate D2E/DX2 analytically  !
 --------------------------------------------------------------------------------
 Trust Radius=3.00D-01 FncErr=1.00D-07 GrdErr=1.00D-06 EigMax=2.50D+02 EigMin=1.00D-04
 Number of steps in this run=    100 maximum allowed number of steps=    100.
 GradGradGradGradGradGradGradGradGradGradGradGradGradGradGradGradGradGrad

 Leave Link  103 at Tue Apr  9 01:14:24 2019, MaxMem=   671088640 cpu:               0.1 elap:               0.0
 (Enter /shared/centos7/gaussian/g16/l202.exe)
                          Input orientation:                          
 ---------------------------------------------------------------------
 Center     Atomic      Atomic             Coordinates (Angstroms)
 Number     Number       Type             X           Y           Z
 ---------------------------------------------------------------------
      1          8           0        0.373103   -0.034754   -0.611382
      2          6           0        2.723879    0.440181   -0.858251
      3          6           0        1.654591   -0.483404   -0.350533
      4          6           0        3.547936    2.809537    0.048433
      5          6           0        2.464682    1.894284   -0.513495
      6          1           0        3.708890    0.128619   -0.465380
      7          1           0        2.792192    0.325975   -1.955479
      8          1           0        1.789611   -0.650297    0.739552
      9          1           0        1.766697   -1.485639   -0.836259
     10          1           0        3.701563    2.617080    1.123226
     11          1           0        4.521002    2.642458   -0.465694
     12          1           0        3.252846    3.873461   -0.064820
     13          1           0        1.420567    2.190687   -0.347642
     14          1           0        0.388158    0.950047   -0.547218
 ---------------------------------------------------------------------
                    Distance matrix (angstroms):
                    1          2          3          4          5
     1  O    0.000000
     2  C    2.410945   0.000000
     3  C    1.382585   1.501387   0.000000
     4  C    4.313341   2.667394   3.819344   0.000000
     5  C    2.847011   1.516725   2.517182   1.525415   0.000000
     6  H    3.342975   1.105289   2.146603   2.734453   2.160542
     7  H    2.790827   1.105268   2.127224   3.279465   2.155498
     8  H    2.051928   2.148249   1.111021   3.942056   2.915603
     9  H    2.024288   2.150690   1.119363   4.733290   3.466301
    10  H    4.595621   3.101775   3.996881   1.102643   2.175124
    11  H    4.939003   2.869455   4.242709   1.113148   2.188721
    12  H    4.885263   3.563250   4.649551   1.109882   2.177075
    13  H    2.473727   2.241342   2.684314   2.250678   1.097970
    14  H    0.987004   2.410871   1.922842   3.714390   2.281375
                    6          7          8          9         10
     6  H    0.000000
     7  H    1.760591   0.000000
     8  H    2.396289   3.036687   0.000000
     9  H    2.552547   2.363523   1.783676   0.000000
    10  H    2.952314   3.943924   3.805065   4.941214   0.000000
    11  H    2.641763   3.251820   4.444699   4.976414   1.787957
    12  H    3.793715   4.046165   4.822081   5.614599   1.786419
    13  H    3.082598   2.818447   3.064208   3.724772   2.747400
    14  H    3.421798   2.855178   2.486151   2.813624   4.067928
                   11         12         13         14
    11  H    0.000000
    12  H    1.812261   0.000000
    13  H    3.135400   2.503790   0.000000
    14  H    4.466687   4.121346   1.626310   0.000000
 Stoichiometry    C4H9O(2)
 Framework group  C1[X(C4H9O)]
 Deg. of freedom    36
 Full point group                 C1      NOp   1
 Largest Abelian subgroup         C1      NOp   1
 Largest concise Abelian subgroup C1      NOp   1
                         Standard orientation:                         
 ---------------------------------------------------------------------
 Center     Atomic      Atomic             Coordinates (Angstroms)
 Number     Number       Type             X           Y           Z
 ---------------------------------------------------------------------
      1          8           0        1.893689   -0.763752   -0.054876
      2          6           0        0.074732    0.797640   -0.311993
      3          6           0        1.395969    0.470038    0.321392
      4          6           0       -2.369688   -0.151503    0.176810
      5          6           0       -0.916532   -0.348280   -0.243318
      6          1           0       -0.356611    1.699033    0.160339
      7          1           0        0.251825    1.071640   -1.368014
      8          1           0        1.306492    0.528075    1.427282
      9          1           0        2.151270    1.242365    0.028125
     10          1           0       -2.449498   -0.061171    1.272845
     11          1           0       -2.794318    0.775893   -0.268977
     12          1           0       -2.984107   -1.021451   -0.135469
     13          1           0       -0.503870   -1.362765   -0.165416
     14          1           0        1.122424   -1.368972   -0.169051
 ---------------------------------------------------------------------
 Rotational constants (GHZ):          12.0732721           2.5477088           2.2798637
 Leave Link  202 at Tue Apr  9 01:14:24 2019, MaxMem=   671088640 cpu:               0.1 elap:               0.0
 (Enter /shared/centos7/gaussian/g16/l301.exe)
 Standard basis: 6-311+G(2df,2p) (5D, 7F)
 Ernie: Thresh=  0.10000D-02 Tol=  0.10000D-05 Strict=F.
 There are   276 symmetry adapted cartesian basis functions of A   symmetry.
 There are   251 symmetry adapted basis functions of A   symmetry.
   251 basis functions,   359 primitive gaussians,   276 cartesian basis functions
    21 alpha electrons       20 beta electrons
       nuclear repulsion energy       179.5998953062 Hartrees.
 IExCor= 4336 DFT=T Ex+Corr=M062X ExCW=0 ScaHFX=  0.540000
 ScaDFX=  1.000000  1.000000  1.000000  1.000000 ScalE2=  1.000000  1.000000
 IRadAn=      5 IRanWt=     -1 IRanGd=            0 ICorTp=0 IEmpDi=  4
 NAtoms=   14 NActive=   14 NUniq=   14 SFac= 1.00D+00 NAtFMM=   60 NAOKFM=F Big=F
 Integral buffers will be    131072 words long.
 Raffenetti 2 integral format.
 Two-electron integral symmetry is turned on.
 Leave Link  301 at Tue Apr  9 01:14:24 2019, MaxMem=   671088640 cpu:               0.9 elap:               0.1
 (Enter /shared/centos7/gaussian/g16/l302.exe)
 NPDir=0 NMtPBC=     1 NCelOv=     1 NCel=       1 NClECP=     1 NCelD=      1
         NCelK=      1 NCelE2=     1 NClLst=     1 CellRange=     0.0.
 One-electron integrals computed using PRISM.
 One-electron integral symmetry used in STVInt
 NBasis=   251 RedAO= T EigKep=  5.34D-05  NBF=   251
 NBsUse=   251 1.00D-06 EigRej= -1.00D+00 NBFU=   251
 Precomputing XC quadrature grid using
 IXCGrd= 4 IRadAn=           5 IRanWt=          -1 IRanGd=           0 AccXCQ= 0.00D+00.
 Generated NRdTot=       0 NPtTot=           0 NUsed=           0 NTot=          32
 NSgBfM=   276   276   276   276   276 MxSgAt=    14 MxSgA2=    14.
 Leave Link  302 at Tue Apr  9 01:14:25 2019, MaxMem=   671088640 cpu:               7.1 elap:               0.4
 (Enter /shared/centos7/gaussian/g16/l303.exe)
 DipDrv:  MaxL=1.
 Leave Link  303 at Tue Apr  9 01:14:25 2019, MaxMem=   671088640 cpu:               0.5 elap:               0.0
 (Enter /shared/centos7/gaussian/g16/l401.exe)
 ExpMin= 4.38D-02 ExpMax= 8.59D+03 ExpMxC= 1.30D+03 IAcc=3 IRadAn=         5 AccDes= 0.00D+00
 Harris functional with IExCor= 1009 and IRadAn=       5 diagonalized for initial guess.
 HarFok:  IExCor= 1009 AccDes= 0.00D+00 IRadAn=         5 IDoV= 1 UseB2=F ITyADJ=14
 ICtDFT=  3500011 ScaDFX=  1.000000  1.000000  1.000000  1.000000
 FoFCou: FMM=F IPFlag=           0 FMFlag=      100000 FMFlg1=           0
         NFxFlg=           0 DoJE=T BraDBF=F KetDBF=T FulRan=T
         wScrn=  0.000000 ICntrl=       500 IOpCl=  0 I1Cent=   200000004 NGrid=           0
         NMat0=    1 NMatS0=      1 NMatT0=    0 NMatD0=    1 NMtDS0=    0 NMtDT0=    0
 Petite list used in FoFCou.
 Harris En= -232.878778064206    
 JPrj=0 DoOrth=F DoCkMO=F.
 Initial guess <Sx>= 0.0000 <Sy>= 0.0000 <Sz>= 0.5000 <S**2>= 0.7500 S= 0.5000
 Leave Link  401 at Tue Apr  9 01:14:26 2019, MaxMem=   671088640 cpu:              15.8 elap:               0.8
 (Enter /shared/centos7/gaussian/g16/l502.exe)
 Integral symmetry usage will be decided dynamically.
 UHF open shell SCF:
 Using DIIS extrapolation, IDIIS=  1040.
 NGot=   671088640 LenX=   670928170 LenY=   670851553
 Requested convergence on RMS density matrix=1.00D-08 within 128 cycles.
 Requested convergence on MAX density matrix=1.00D-06.
 Requested convergence on             energy=1.00D-06.
 No special actions if energy rises.
 Fock matrices will be formed incrementally for  20 cycles.

 Cycle   1  Pass 1  IDiag  1:
 FoFJK:  IHMeth= 1 ICntrl=       0 DoSepK=F KAlg= 0 I1Cent=           0 FoldK=F
 IRaf= 980000000 NMat=       1 IRICut=       1 DoRegI=T DoRafI=F ISym2E= 0 IDoP0=0 IntGTp=1.
 FoFCou: FMM=F IPFlag=           0 FMFlag=      100000 FMFlg1=           0
         NFxFlg=           0 DoJE=F BraDBF=F KetDBF=F FulRan=T
         wScrn=  0.000000 ICntrl=         0 IOpCl=  1 I1Cent=           0 NGrid=           0
         NMat0=    1 NMatS0=      1 NMatT0=    0 NMatD0=    1 NMtDS0=    0 NMtDT0=    0
 Symmetry not used in FoFCou.
 E= -232.772254938680    
 DIIS: error= 2.00D-02 at cycle   1 NSaved=   1.
 NSaved= 1 IEnMin= 1 EnMin= -232.772254938680     IErMin= 1 ErrMin= 2.00D-02
 ErrMax= 2.00D-02  0.00D+00 EMaxC= 1.00D-01 BMatC= 8.89D-01 BMatP= 8.89D-01
 IDIUse=3 WtCom= 8.00D-01 WtEn= 2.00D-01
 Coeff-Com:  0.100D+01
 Coeff-En:   0.100D+01
 Coeff:      0.100D+01
 Gap=     0.253 Goal=   None    Shift=    0.000
 Gap=     0.309 Goal=   None    Shift=    0.000
 GapD=    0.253 DampG=1.000 DampE=0.500 DampFc=0.5000 IDamp=-1.
 Damping current iteration by 5.00D-01
 RMSDP=4.58D-03 MaxDP=3.39D-01              OVMax= 1.49D-01

 Cycle   2  Pass 1  IDiag  1:
 RMSU=  2.29D-03    CP:  1.01D+00
 E= -232.864855203265     Delta-E=       -0.092600264586 Rises=F Damp=T
 DIIS: error= 6.27D-03 at cycle   2 NSaved=   2.
 NSaved= 2 IEnMin= 2 EnMin= -232.864855203265     IErMin= 2 ErrMin= 6.27D-03
 ErrMax= 6.27D-03  0.00D+00 EMaxC= 1.00D-01 BMatC= 5.58D-02 BMatP= 8.89D-01
 IDIUse=3 WtCom= 9.37D-01 WtEn= 6.27D-02
 Coeff-Com: -0.820D-01 0.108D+01
 Coeff-En:   0.000D+00 0.100D+01
 Coeff:     -0.769D-01 0.108D+01
 Gap=     0.267 Goal=   None    Shift=    0.000
 Gap=     0.369 Goal=   None    Shift=    0.000
 RMSDP=1.39D-03 MaxDP=1.54D-01 DE=-9.26D-02 OVMax= 8.12D-02

 Cycle   3  Pass 1  IDiag  1:
 RMSU=  1.17D-03    CP:  9.83D-01  6.88D-01
 E= -232.954142155352     Delta-E=       -0.089286952087 Rises=F Damp=F
 DIIS: error= 3.24D-03 at cycle   3 NSaved=   3.
 NSaved= 3 IEnMin= 3 EnMin= -232.954142155352     IErMin= 3 ErrMin= 3.24D-03
 ErrMax= 3.24D-03  0.00D+00 EMaxC= 1.00D-01 BMatC= 1.25D-02 BMatP= 5.58D-02
 IDIUse=3 WtCom= 9.68D-01 WtEn= 3.24D-02
 Coeff-Com: -0.738D-01 0.310D+00 0.764D+00
 Coeff-En:   0.000D+00 0.000D+00 0.100D+01
 Coeff:     -0.714D-01 0.300D+00 0.771D+00
 Gap=     0.269 Goal=   None    Shift=    0.000
 Gap=     0.314 Goal=   None    Shift=    0.000
 RMSDP=2.78D-04 MaxDP=2.19D-02 DE=-8.93D-02 OVMax= 1.45D-02

 Cycle   4  Pass 1  IDiag  1:
 RMSU=  2.12D-04    CP:  9.86D-01  7.66D-01  9.98D-01
 E= -232.955860895563     Delta-E=       -0.001718740211 Rises=F Damp=F
 DIIS: error= 1.55D-03 at cycle   4 NSaved=   4.
 NSaved= 4 IEnMin= 4 EnMin= -232.955860895563     IErMin= 4 ErrMin= 1.55D-03
 ErrMax= 1.55D-03  0.00D+00 EMaxC= 1.00D-01 BMatC= 3.15D-03 BMatP= 1.25D-02
 IDIUse=3 WtCom= 9.84D-01 WtEn= 1.55D-02
 Coeff-Com: -0.270D-01 0.616D-01 0.372D+00 0.593D+00
 Coeff-En:   0.000D+00 0.000D+00 0.105D+00 0.895D+00
 Coeff:     -0.266D-01 0.606D-01 0.368D+00 0.598D+00
 Gap=     0.267 Goal=   None    Shift=    0.000
 Gap=     0.321 Goal=   None    Shift=    0.000
 RMSDP=1.43D-04 MaxDP=1.20D-02 DE=-1.72D-03 OVMax= 5.77D-03

 Cycle   5  Pass 1  IDiag  1:
 RMSU=  6.86D-05    CP:  9.82D-01  7.30D-01  1.04D+00  6.37D-01
 E= -232.956482569765     Delta-E=       -0.000621674202 Rises=F Damp=F
 DIIS: error= 2.76D-04 at cycle   5 NSaved=   5.
 NSaved= 5 IEnMin= 5 EnMin= -232.956482569765     IErMin= 5 ErrMin= 2.76D-04
 ErrMax= 2.76D-04  0.00D+00 EMaxC= 1.00D-01 BMatC= 9.72D-05 BMatP= 3.15D-03
 IDIUse=3 WtCom= 9.97D-01 WtEn= 2.76D-03
 Coeff-Com:  0.613D-03-0.113D-01 0.910D-02 0.121D+00 0.881D+00
 Coeff-En:   0.000D+00 0.000D+00 0.000D+00 0.000D+00 0.100D+01
 Coeff:      0.612D-03-0.113D-01 0.907D-02 0.121D+00 0.881D+00
 Gap=     0.268 Goal=   None    Shift=    0.000
 Gap=     0.321 Goal=   None    Shift=    0.000
 RMSDP=3.96D-05 MaxDP=1.78D-03 DE=-6.22D-04 OVMax= 2.52D-03

 Cycle   6  Pass 1  IDiag  1:
 RMSU=  3.26D-05    CP:  9.82D-01  7.28D-01  1.05D+00  7.27D-01  1.07D+00
 E= -232.956521272822     Delta-E=       -0.000038703056 Rises=F Damp=F
 DIIS: error= 1.49D-04 at cycle   6 NSaved=   6.
 NSaved= 6 IEnMin= 6 EnMin= -232.956521272822     IErMin= 6 ErrMin= 1.49D-04
 ErrMax= 1.49D-04  0.00D+00 EMaxC= 1.00D-01 BMatC= 1.20D-05 BMatP= 9.72D-05
 IDIUse=3 WtCom= 9.99D-01 WtEn= 1.49D-03
 Coeff-Com:  0.391D-02-0.946D-02-0.531D-01-0.813D-01 0.316D-01 0.111D+01
 Coeff-En:   0.000D+00 0.000D+00 0.000D+00 0.000D+00 0.000D+00 0.100D+01
 Coeff:      0.391D-02-0.944D-02-0.531D-01-0.812D-01 0.315D-01 0.111D+01
 Gap=     0.269 Goal=   None    Shift=    0.000
 Gap=     0.322 Goal=   None    Shift=    0.000
 RMSDP=1.95D-05 MaxDP=1.13D-03 DE=-3.87D-05 OVMax= 1.92D-03

 Cycle   7  Pass 1  IDiag  1:
 RMSU=  1.11D-05    CP:  9.82D-01  7.25D-01  1.05D+00  7.33D-01  1.25D+00
                    CP:  1.16D+00
 E= -232.956528922787     Delta-E=       -0.000007649965 Rises=F Damp=F
 DIIS: error= 4.17D-05 at cycle   7 NSaved=   7.
 NSaved= 7 IEnMin= 7 EnMin= -232.956528922787     IErMin= 7 ErrMin= 4.17D-05
 ErrMax= 4.17D-05  0.00D+00 EMaxC= 1.00D-01 BMatC= 2.74D-06 BMatP= 1.20D-05
 IDIUse=1 WtCom= 1.00D+00 WtEn= 0.00D+00
 Coeff-Com:  0.126D-02-0.212D-02-0.210D-01-0.457D-01-0.932D-01 0.429D+00
 Coeff-Com:  0.732D+00
 Coeff:      0.126D-02-0.212D-02-0.210D-01-0.457D-01-0.932D-01 0.429D+00
 Coeff:      0.732D+00
 Gap=     0.269 Goal=   None    Shift=    0.000
 Gap=     0.322 Goal=   None    Shift=    0.000
 RMSDP=5.79D-06 MaxDP=4.06D-04 DE=-7.65D-06 OVMax= 4.54D-04

 Cycle   8  Pass 1  IDiag  1:
 RMSU=  3.21D-06    CP:  9.82D-01  7.25D-01  1.05D+00  7.39D-01  1.28D+00
                    CP:  1.28D+00  1.14D+00
 E= -232.956529867524     Delta-E=       -0.000000944737 Rises=F Damp=F
 DIIS: error= 9.89D-06 at cycle   8 NSaved=   8.
 NSaved= 8 IEnMin= 8 EnMin= -232.956529867524     IErMin= 8 ErrMin= 9.89D-06
 ErrMax= 9.89D-06  0.00D+00 EMaxC= 1.00D-01 BMatC= 1.63D-07 BMatP= 2.74D-06
 IDIUse=1 WtCom= 1.00D+00 WtEn= 0.00D+00
 Coeff-Com: -0.337D-03 0.858D-03 0.332D-02 0.268D-02-0.145D-01-0.718D-01
 Coeff-Com:  0.116D+00 0.964D+00
 Coeff:     -0.337D-03 0.858D-03 0.332D-02 0.268D-02-0.145D-01-0.718D-01
 Coeff:      0.116D+00 0.964D+00
 Gap=     0.269 Goal=   None    Shift=    0.000
 Gap=     0.322 Goal=   None    Shift=    0.000
 RMSDP=2.65D-06 MaxDP=2.00D-04 DE=-9.45D-07 OVMax= 1.13D-04

 Cycle   9  Pass 1  IDiag  1:
 RMSU=  1.05D-06    CP:  9.82D-01  7.25D-01  1.05D+00  7.39D-01  1.28D+00
                    CP:  1.30D+00  1.28D+00  1.25D+00
 E= -232.956529940840     Delta-E=       -0.000000073316 Rises=F Damp=F
 DIIS: error= 3.33D-06 at cycle   9 NSaved=   9.
 NSaved= 9 IEnMin= 9 EnMin= -232.956529940840     IErMin= 9 ErrMin= 3.33D-06
 ErrMax= 3.33D-06  0.00D+00 EMaxC= 1.00D-01 BMatC= 1.37D-08 BMatP= 1.63D-07
 IDIUse=1 WtCom= 1.00D+00 WtEn= 0.00D+00
 Coeff-Com: -0.183D-03 0.379D-03 0.266D-02 0.491D-02 0.681D-02-0.560D-01
 Coeff-Com: -0.475D-01 0.162D+00 0.927D+00
 Coeff:     -0.183D-03 0.379D-03 0.266D-02 0.491D-02 0.681D-02-0.560D-01
 Coeff:     -0.475D-01 0.162D+00 0.927D+00
 Gap=     0.269 Goal=   None    Shift=    0.000
 Gap=     0.322 Goal=   None    Shift=    0.000
 RMSDP=9.70D-07 MaxDP=6.86D-05 DE=-7.33D-08 OVMax= 4.67D-05

 Cycle  10  Pass 1  IDiag  1:
 RMSU=  4.93D-07    CP:  9.82D-01  7.25D-01  1.04D+00  7.39D-01  1.28D+00
                    CP:  1.29D+00  1.33D+00  1.34D+00  1.11D+00
 E= -232.956529947430     Delta-E=       -0.000000006591 Rises=F Damp=F
 DIIS: error= 1.06D-06 at cycle  10 NSaved=  10.
 NSaved=10 IEnMin=10 EnMin= -232.956529947430     IErMin=10 ErrMin= 1.06D-06
 ErrMax= 1.06D-06  0.00D+00 EMaxC= 1.00D-01 BMatC= 1.28D-09 BMatP= 1.37D-08
 IDIUse=1 WtCom= 1.00D+00 WtEn= 0.00D+00
 Coeff-Com:  0.118D-04-0.310D-04 0.490D-04 0.382D-03 0.191D-02-0.163D-02
 Coeff-Com: -0.145D-01-0.568D-01 0.138D+00 0.932D+00
 Coeff:      0.118D-04-0.310D-04 0.490D-04 0.382D-03 0.191D-02-0.163D-02
 Coeff:     -0.145D-01-0.568D-01 0.138D+00 0.932D+00
 Gap=     0.269 Goal=   None    Shift=    0.000
 Gap=     0.322 Goal=   None    Shift=    0.000
 RMSDP=2.35D-07 MaxDP=1.42D-05 DE=-6.59D-09 OVMax= 1.26D-05

 Cycle  11  Pass 1  IDiag  1:
 RMSU=  9.09D-08    CP:  9.82D-01  7.25D-01  1.04D+00  7.39D-01  1.28D+00
                    CP:  1.29D+00  1.34D+00  1.36D+00  1.20D+00  1.25D+00
 E= -232.956529948057     Delta-E=       -0.000000000627 Rises=F Damp=F
 DIIS: error= 3.92D-07 at cycle  11 NSaved=  11.
 NSaved=11 IEnMin=11 EnMin= -232.956529948057     IErMin=11 ErrMin= 3.92D-07
 ErrMax= 3.92D-07  0.00D+00 EMaxC= 1.00D-01 BMatC= 2.66D-10 BMatP= 1.28D-09
 IDIUse=1 WtCom= 1.00D+00 WtEn= 0.00D+00
 Coeff-Com:  0.267D-04-0.576D-04-0.304D-03-0.453D-03-0.147D-03 0.619D-02
 Coeff-Com:  0.784D-03-0.384D-01-0.658D-01 0.290D+00 0.808D+00
 Coeff:      0.267D-04-0.576D-04-0.304D-03-0.453D-03-0.147D-03 0.619D-02
 Coeff:      0.784D-03-0.384D-01-0.658D-01 0.290D+00 0.808D+00
 Gap=     0.269 Goal=   None    Shift=    0.000
 Gap=     0.322 Goal=   None    Shift=    0.000
 RMSDP=9.15D-08 MaxDP=7.32D-06 DE=-6.27D-10 OVMax= 4.21D-06

 Cycle  12  Pass 1  IDiag  1:
 RMSU=  3.51D-08    CP:  9.82D-01  7.25D-01  1.04D+00  7.39D-01  1.28D+00
                    CP:  1.29D+00  1.34D+00  1.36D+00  1.22D+00  1.39D+00
                    CP:  1.15D+00
 E= -232.956529948163     Delta-E=       -0.000000000106 Rises=F Damp=F
 DIIS: error= 1.42D-07 at cycle  12 NSaved=  12.
 NSaved=12 IEnMin=12 EnMin= -232.956529948163     IErMin=12 ErrMin= 1.42D-07
 ErrMax= 1.42D-07  0.00D+00 EMaxC= 1.00D-01 BMatC= 2.84D-11 BMatP= 2.66D-10
 IDIUse=1 WtCom= 1.00D+00 WtEn= 0.00D+00
 Coeff-Com:  0.269D-05-0.594D-05-0.643D-04-0.134D-03-0.282D-03 0.135D-02
 Coeff-Com:  0.204D-02 0.113D-02-0.314D-01-0.794D-01 0.160D+00 0.947D+00
 Coeff:      0.269D-05-0.594D-05-0.643D-04-0.134D-03-0.282D-03 0.135D-02
 Coeff:      0.204D-02 0.113D-02-0.314D-01-0.794D-01 0.160D+00 0.947D+00
 Gap=     0.269 Goal=   None    Shift=    0.000
 Gap=     0.322 Goal=   None    Shift=    0.000
 RMSDP=4.00D-08 MaxDP=3.85D-06 DE=-1.06D-10 OVMax= 1.62D-06

 Cycle  13  Pass 1  IDiag  1:
 RMSU=  1.50D-08    CP:  9.82D-01  7.25D-01  1.04D+00  7.39D-01  1.28D+00
                    CP:  1.29D+00  1.34D+00  1.36D+00  1.22D+00  1.44D+00
                    CP:  1.32D+00  1.22D+00
 E= -232.956529948173     Delta-E=       -0.000000000010 Rises=F Damp=F
 DIIS: error= 4.35D-08 at cycle  13 NSaved=  13.
 NSaved=13 IEnMin=13 EnMin= -232.956529948173     IErMin=13 ErrMin= 4.35D-08
 ErrMax= 4.35D-08  0.00D+00 EMaxC= 1.00D-01 BMatC= 2.69D-12 BMatP= 2.84D-11
 IDIUse=1 WtCom= 1.00D+00 WtEn= 0.00D+00
 Coeff-Com: -0.282D-05 0.592D-05 0.241D-04 0.312D-04-0.212D-04-0.478D-03
 Coeff-Com:  0.204D-03 0.451D-02 0.220D-02-0.455D-01-0.662D-01 0.130D+00
 Coeff-Com:  0.975D+00
 Coeff:     -0.282D-05 0.592D-05 0.241D-04 0.312D-04-0.212D-04-0.478D-03
 Coeff:      0.204D-03 0.451D-02 0.220D-02-0.455D-01-0.662D-01 0.130D+00
 Coeff:      0.975D+00
 Gap=     0.269 Goal=   None    Shift=    0.000
 Gap=     0.322 Goal=   None    Shift=    0.000
 RMSDP=9.58D-09 MaxDP=6.08D-07 DE=-9.83D-12 OVMax= 5.75D-07

 SCF Done:  E(UM062X) =  -232.956529948     A.U. after   13 cycles
            NFock= 13  Conv=0.96D-08     -V/T= 2.0046
 <Sx>= 0.0000 <Sy>= 0.0000 <Sz>= 0.5000 <S**2>= 0.7556 S= 0.5028
 <L.S>= 0.000000000000E+00
 KE= 2.318806303003D+02 PE=-9.019460264541D+02 EE= 2.575089708995D+02
 Annihilation of the first spin contaminant:
 S**2 before annihilation     0.7556,   after     0.7500
 Leave Link  502 at Tue Apr  9 01:15:05 2019, MaxMem=   671088640 cpu:             792.9 elap:              39.7
 (Enter /shared/centos7/gaussian/g16/l801.exe)
 DoSCS=F DFT=T ScalE2(SS,OS)=  1.000000  1.000000
 Range of M.O.s used for correlation:     1   251
 NBasis=   251 NAE=    21 NBE=    20 NFC=     0 NFV=     0
 NROrb=    251 NOA=    21 NOB=    20 NVA=   230 NVB=   231

 **** Warning!!: The largest alpha MO coefficient is  0.37952880D+02


 **** Warning!!: The largest beta MO coefficient is  0.38123256D+02

 Leave Link  801 at Tue Apr  9 01:15:05 2019, MaxMem=   671088640 cpu:               0.4 elap:               0.0
 (Enter /shared/centos7/gaussian/g16/l1101.exe)
 Using compressed storage, NAtomX=    14.
 Will process     15 centers per pass.
 Leave Link 1101 at Tue Apr  9 01:15:06 2019, MaxMem=   671088640 cpu:               6.0 elap:               0.3
 (Enter /shared/centos7/gaussian/g16/l1102.exe)
 Symmetrizing basis deriv contribution to polar:
 IMax=3 JMax=2 DiffMx= 0.00D+00
 Leave Link 1102 at Tue Apr  9 01:15:06 2019, MaxMem=   671088640 cpu:               0.4 elap:               0.0
 (Enter /shared/centos7/gaussian/g16/l1110.exe)
 Forming Gx(P) for the SCF density, NAtomX=    14.
 Integral derivatives from FoFJK, PRISM(SPDF).
 Do as many integral derivatives as possible in FoFJK.
 G2DrvN: MDV=     671087496.
 G2DrvN: will do    15 centers at a time, making    1 passes.
 Calling FoFCou, ICntrl=  3107 FMM=F I1Cent=   0 AccDes= 0.00D+00.
 FoFJK:  IHMeth= 1 ICntrl=    3107 DoSepK=F KAlg= 0 I1Cent=           0 FoldK=F
 IRaf=         0 NMat=       1 IRICut=       1 DoRegI=T DoRafI=F ISym2E= 0 IDoP0=0 IntGTp=1.
 FoFCou: FMM=F IPFlag=           0 FMFlag=      100000 FMFlg1=           0
         NFxFlg=           0 DoJE=F BraDBF=F KetDBF=F FulRan=T
         wScrn=  0.000000 ICntrl=      3107 IOpCl=  1 I1Cent=           0 NGrid=           0
         NMat0=    1 NMatS0=      1 NMatT0=    0 NMatD0=    1 NMtDS0=    0 NMtDT0=    0
 Symmetry not used in FoFCou.
 End of G2Drv F.D. properties file   721 does not exist.
 End of G2Drv F.D. properties file   722 does not exist.
 End of G2Drv F.D. properties file   788 does not exist.
 Leave Link 1110 at Tue Apr  9 01:16:28 2019, MaxMem=   671088640 cpu:            1649.9 elap:              82.5
 (Enter /shared/centos7/gaussian/g16/l1002.exe)
 Minotr:  UHF open shell wavefunction.
          IDoAtm=11111111111111
          Direct CPHF calculation.
          Differentiating once with respect to nuclear coordinates.
          Requested convergence is 1.0D-08 RMS, and 1.0D-07 maximum.
          Secondary convergence is 1.0D-12 RMS, and 1.0D-12 maximum.
          NewPWx=T KeepS1=F KeepF1=F KeepIn=T MapXYZ=F SortEE=F KeepMc=T.
         4264 words used for storage of precomputed grid.
 Two-electron integrals replicated using symmetry.
          MDV=     671088640 using IRadAn=       1.
          Solving linear equations simultaneously, MaxMat=     380.
 FoF2E skips out because all densities are zero.
 CalDSu exits because no D1Ps are significant.
 FoFJK:  IHMeth= 1 ICntrl=       0 DoSepK=F KAlg= 0 I1Cent=           0 FoldK=F
 IRaf= 970000000 NMat=      42 IRICut=     105 DoRegI=T DoRafI=T ISym2E= 2 IDoP0=3 IntGTp=3.
 FoFCou: FMM=F IPFlag=           0 FMFlag=      100000 FMFlg1=           0
         NFxFlg=           0 DoJE=F BraDBF=F KetDBF=F FulRan=T
         wScrn=  0.000000 ICntrl=         0 IOpCl=  1 I1Cent=           0 NGrid=           0
         NMat0=   42 NMatS0=     42 NMatT0=    0 NMatD0=   42 NMtDS0=    0 NMtDT0=    0
 Integrals replicated using symmetry in FoFCou.
 Raff kept on since  95.27% of shell-pairs survive, threshold=   0.20 IRatSp=95.
          There are    45 degrees of freedom in the 1st order CPHF.  IDoFFX=6 NUNeed=     0.
     39 vectors produced by pass  0 Test12= 2.10D-14 2.22D-09 XBig12= 1.51D-01 7.62D-02.
 AX will form    39 AO Fock derivatives at one time.
     39 vectors produced by pass  1 Test12= 2.10D-14 2.22D-09 XBig12= 1.12D-02 1.60D-02.
     39 vectors produced by pass  2 Test12= 2.10D-14 2.22D-09 XBig12= 4.20D-04 2.56D-03.
     39 vectors produced by pass  3 Test12= 2.10D-14 2.22D-09 XBig12= 5.03D-06 2.46D-04.
     39 vectors produced by pass  4 Test12= 2.10D-14 2.22D-09 XBig12= 5.40D-08 3.21D-05.
     39 vectors produced by pass  5 Test12= 2.10D-14 2.22D-09 XBig12= 6.60D-10 2.94D-06.
     39 vectors produced by pass  6 Test12= 2.10D-14 2.22D-09 XBig12= 6.12D-12 3.17D-07.
     15 vectors produced by pass  7 Test12= 2.10D-14 2.22D-09 XBig12= 3.87D-14 1.65D-08.
 InvSVY:  IOpt=1 It=  1 EMax= 2.00D-15
 Solved reduced A of dimension   288 with    39 vectors.
 End of Minotr F.D. properties file   721 does not exist.
 End of Minotr F.D. properties file   722 does not exist.
 End of Minotr F.D. properties file   788 does not exist.
 Leave Link 1002 at Tue Apr  9 01:18:40 2019, MaxMem=   671088640 cpu:            2625.1 elap:             131.3
 (Enter /shared/centos7/gaussian/g16/l601.exe)
 Copying SCF densities to generalized density rwf, IOpCl= 1 IROHF=0.

 **********************************************************************

            Population analysis using the SCF density.

 **********************************************************************

 Orbital symmetries:
 Alpha Orbitals:
       Occupied  (A) (A) (A) (A) (A) (A) (A) (A) (A) (A) (A) (A)
                 (A) (A) (A) (A) (A) (A) (A) (A) (A)
       Virtual   (A) (A) (A) (A) (A) (A) (A) (A) (A) (A) (A) (A)
                 (A) (A) (A) (A) (A) (A) (A) (A) (A) (A) (A) (A)
                 (A) (A) (A) (A) (A) (A) (A) (A) (A) (A) (A) (A)
                 (A) (A) (A) (A) (A) (A) (A) (A) (A) (A) (A) (A)
                 (A) (A) (A) (A) (A) (A) (A) (A) (A) (A) (A) (A)
                 (A) (A) (A) (A) (A) (A) (A) (A) (A) (A) (A) (A)
                 (A) (A) (A) (A) (A) (A) (A) (A) (A) (A) (A) (A)
                 (A) (A) (A) (A) (A) (A) (A) (A) (A) (A) (A) (A)
                 (A) (A) (A) (A) (A) (A) (A) (A) (A) (A) (A) (A)
                 (A) (A) (A) (A) (A) (A) (A) (A) (A) (A) (A) (A)
                 (A) (A) (A) (A) (A) (A) (A) (A) (A) (A) (A) (A)
                 (A) (A) (A) (A) (A) (A) (A) (A) (A) (A) (A) (A)
                 (A) (A) (A) (A) (A) (A) (A) (A) (A) (A) (A) (A)
                 (A) (A) (A) (A) (A) (A) (A) (A) (A) (A) (A) (A)
                 (A) (A) (A) (A) (A) (A) (A) (A) (A) (A) (A) (A)
                 (A) (A) (A) (A) (A) (A) (A) (A) (A) (A) (A) (A)
                 (A) (A) (A) (A) (A) (A) (A) (A) (A) (A) (A) (A)
                 (A) (A) (A) (A) (A) (A) (A) (A) (A) (A) (A) (A)
                 (A) (A) (A) (A) (A) (A) (A) (A) (A) (A) (A) (A)
                 (A) (A)
 Beta  Orbitals:
       Occupied  (A) (A) (A) (A) (A) (A) (A) (A) (A) (A) (A) (A)
                 (A) (A) (A) (A) (A) (A) (A) (A)
       Virtual   (A) (A) (A) (A) (A) (A) (A) (A) (A) (A) (A) (A)
                 (A) (A) (A) (A) (A) (A) (A) (A) (A) (A) (A) (A)
                 (A) (A) (A) (A) (A) (A) (A) (A) (A) (A) (A) (A)
                 (A) (A) (A) (A) (A) (A) (A) (A) (A) (A) (A) (A)
                 (A) (A) (A) (A) (A) (A) (A) (A) (A) (A) (A) (A)
                 (A) (A) (A) (A) (A) (A) (A) (A) (A) (A) (A) (A)
                 (A) (A) (A) (A) (A) (A) (A) (A) (A) (A) (A) (A)
                 (A) (A) (A) (A) (A) (A) (A) (A) (A) (A) (A) (A)
                 (A) (A) (A) (A) (A) (A) (A) (A) (A) (A) (A) (A)
                 (A) (A) (A) (A) (A) (A) (A) (A) (A) (A) (A) (A)
                 (A) (A) (A) (A) (A) (A) (A) (A) (A) (A) (A) (A)
                 (A) (A) (A) (A) (A) (A) (A) (A) (A) (A) (A) (A)
                 (A) (A) (A) (A) (A) (A) (A) (A) (A) (A) (A) (A)
                 (A) (A) (A) (A) (A) (A) (A) (A) (A) (A) (A) (A)
                 (A) (A) (A) (A) (A) (A) (A) (A) (A) (A) (A) (A)
                 (A) (A) (A) (A) (A) (A) (A) (A) (A) (A) (A) (A)
                 (A) (A) (A) (A) (A) (A) (A) (A) (A) (A) (A) (A)
                 (A) (A) (A) (A) (A) (A) (A) (A) (A) (A) (A) (A)
                 (A) (A) (A) (A) (A) (A) (A) (A) (A) (A) (A) (A)
                 (A) (A) (A)
 The electronic state is 2-A.
 Alpha  occ. eigenvalues --  -19.61890 -10.58101 -10.56105 -10.54603 -10.54335
 Alpha  occ. eigenvalues --   -1.15060  -0.89677  -0.82317  -0.73456  -0.65479
 Alpha  occ. eigenvalues --   -0.58367  -0.55104  -0.52516  -0.49272  -0.48103
 Alpha  occ. eigenvalues --   -0.45875  -0.43859  -0.42259  -0.38880  -0.34457
 Alpha  occ. eigenvalues --   -0.25582
 Alpha virt. eigenvalues --    0.01315   0.02499   0.03298   0.04024   0.05483
 Alpha virt. eigenvalues --    0.06448   0.06506   0.07347   0.08596   0.09840
 Alpha virt. eigenvalues --    0.10264   0.10997   0.12889   0.14217   0.15674
 Alpha virt. eigenvalues --    0.16243   0.17943   0.19428   0.20468   0.21534
 Alpha virt. eigenvalues --    0.22459   0.23713   0.23947   0.25379   0.26509
 Alpha virt. eigenvalues --    0.27219   0.27623   0.28986   0.29204   0.30414
 Alpha virt. eigenvalues --    0.32805   0.33653   0.38215   0.41178   0.43924
 Alpha virt. eigenvalues --    0.44722   0.47154   0.48061   0.48854   0.51887
 Alpha virt. eigenvalues --    0.53569   0.54591   0.55006   0.55857   0.57821
 Alpha virt. eigenvalues --    0.58238   0.59329   0.60178   0.61064   0.61537
 Alpha virt. eigenvalues --    0.64761   0.65307   0.66287   0.67968   0.69121
 Alpha virt. eigenvalues --    0.69582   0.71140   0.73958   0.80266   0.81169
 Alpha virt. eigenvalues --    0.82758   0.86497   0.88041   0.90500   0.92006
 Alpha virt. eigenvalues --    0.94261   0.97367   0.99414   1.03617   1.05211
 Alpha virt. eigenvalues --    1.05465   1.07034   1.08816   1.12084   1.13594
 Alpha virt. eigenvalues --    1.15432   1.15735   1.17739   1.19942   1.20535
 Alpha virt. eigenvalues --    1.21248   1.24022   1.25817   1.27092   1.27846
 Alpha virt. eigenvalues --    1.29660   1.30974   1.32176   1.36454   1.38530
 Alpha virt. eigenvalues --    1.39406   1.43564   1.44487   1.45045   1.45330
 Alpha virt. eigenvalues --    1.46935   1.48213   1.49034   1.50816   1.52964
 Alpha virt. eigenvalues --    1.56090   1.57081   1.58470   1.60893   1.62510
 Alpha virt. eigenvalues --    1.66876   1.71435   1.80516   1.84221   1.94510
 Alpha virt. eigenvalues --    2.11740   2.17012   2.30219   2.37630   2.41466
 Alpha virt. eigenvalues --    2.44297   2.46875   2.53529   2.54632   2.58765
 Alpha virt. eigenvalues --    2.63037   2.64967   2.73019   2.77368   2.78505
 Alpha virt. eigenvalues --    2.79533   2.81969   2.85494   2.86464   2.89919
 Alpha virt. eigenvalues --    2.95913   2.97384   3.00197   3.02811   3.05542
 Alpha virt. eigenvalues --    3.09337   3.11274   3.12723   3.15270   3.16030
 Alpha virt. eigenvalues --    3.18256   3.19111   3.22715   3.24976   3.26286
 Alpha virt. eigenvalues --    3.28619   3.29297   3.33671   3.34750   3.38993
 Alpha virt. eigenvalues --    3.44343   3.46969   3.47485   3.50920   3.54058
 Alpha virt. eigenvalues --    3.54833   3.57275   3.58388   3.61191   3.63248
 Alpha virt. eigenvalues --    3.66242   3.67383   3.73195   3.73674   3.76282
 Alpha virt. eigenvalues --    3.77114   3.78128   3.84561   3.85348   3.89739
 Alpha virt. eigenvalues --    3.91002   3.96285   3.97736   3.99522   4.00137
 Alpha virt. eigenvalues --    4.03822   4.05621   4.10912   4.13768   4.14664
 Alpha virt. eigenvalues --    4.18052   4.18475   4.20419   4.22861   4.24910
 Alpha virt. eigenvalues --    4.28600   4.29275   4.32371   4.35340   4.36571
 Alpha virt. eigenvalues --    4.37875   4.43787   4.45428   4.48902   4.49933
 Alpha virt. eigenvalues --    4.50687   4.54873   4.60238   4.61469   4.72209
 Alpha virt. eigenvalues --    4.91341   4.98236   5.10642   5.20981   5.27405
 Alpha virt. eigenvalues --    5.28330   5.38048   5.40516   5.42135   5.45957
 Alpha virt. eigenvalues --    5.49945   5.53329   5.54579   5.57019   5.59331
 Alpha virt. eigenvalues --    5.63220   5.91709   6.01519   6.58892   6.99167
 Alpha virt. eigenvalues --    7.09687   7.25291   7.28042   7.52583   7.65987
 Alpha virt. eigenvalues --   24.15397  24.30217  24.36281  24.51422  50.14701
  Beta  occ. eigenvalues --  -19.61886 -10.58071 -10.55375 -10.54659 -10.54392
  Beta  occ. eigenvalues --   -1.15035  -0.88066  -0.81679  -0.72739  -0.63601
  Beta  occ. eigenvalues --   -0.57842  -0.54570  -0.52122  -0.47798  -0.47503
  Beta  occ. eigenvalues --   -0.45037  -0.43203  -0.41823  -0.38553  -0.34223
  Beta virt. eigenvalues --   -0.02054   0.00942   0.02486   0.03278   0.03722
  Beta virt. eigenvalues --    0.05511   0.06437   0.06531   0.06925   0.08399
  Beta virt. eigenvalues --    0.09727   0.10206   0.10763   0.12768   0.13536
  Beta virt. eigenvalues --    0.15651   0.16284   0.17409   0.19544   0.20619
  Beta virt. eigenvalues --    0.21572   0.22378   0.23799   0.23909   0.25887
  Beta virt. eigenvalues --    0.26549   0.27471   0.27711   0.29224   0.29688
  Beta virt. eigenvalues --    0.30694   0.33102   0.33788   0.38517   0.41473
  Beta virt. eigenvalues --    0.44009   0.45116   0.47211   0.48151   0.49051
  Beta virt. eigenvalues --    0.52173   0.54187   0.55418   0.55744   0.56388
  Beta virt. eigenvalues --    0.57843   0.58812   0.59739   0.60216   0.61277
  Beta virt. eigenvalues --    0.62321   0.64940   0.65419   0.66192   0.67732
  Beta virt. eigenvalues --    0.69339   0.69429   0.71169   0.74331   0.79993
  Beta virt. eigenvalues --    0.80860   0.82824   0.86379   0.88114   0.90342
  Beta virt. eigenvalues --    0.91770   0.93924   0.97430   0.99124   1.03767
  Beta virt. eigenvalues --    1.05217   1.05494   1.07015   1.09091   1.11930
  Beta virt. eigenvalues --    1.13587   1.15472   1.15622   1.17766   1.19984
  Beta virt. eigenvalues --    1.20512   1.21495   1.24207   1.26405   1.27200
  Beta virt. eigenvalues --    1.27735   1.29950   1.31303   1.33097   1.36735
  Beta virt. eigenvalues --    1.38776   1.39594   1.43906   1.44621   1.45054
  Beta virt. eigenvalues --    1.45550   1.47093   1.48282   1.48920   1.50670
  Beta virt. eigenvalues --    1.53293   1.55928   1.57104   1.58411   1.61414
  Beta virt. eigenvalues --    1.62736   1.66946   1.72005   1.80828   1.84440
  Beta virt. eigenvalues --    1.94685   2.11826   2.17227   2.30467   2.37878
  Beta virt. eigenvalues --    2.42153   2.44858   2.47576   2.54279   2.55434
  Beta virt. eigenvalues --    2.59308   2.64016   2.65500   2.74842   2.77927
  Beta virt. eigenvalues --    2.81374   2.81956   2.85126   2.87003   2.88746
  Beta virt. eigenvalues --    2.91988   2.95938   2.98771   3.02720   3.03233
  Beta virt. eigenvalues --    3.07078   3.10559   3.12357   3.13533   3.15724
  Beta virt. eigenvalues --    3.17156   3.18905   3.19705   3.22889   3.25576
  Beta virt. eigenvalues --    3.27371   3.29345   3.29809   3.35785   3.36651
  Beta virt. eigenvalues --    3.42417   3.46381   3.49064   3.49809   3.51953
  Beta virt. eigenvalues --    3.55810   3.56193   3.57913   3.58737   3.62523
  Beta virt. eigenvalues --    3.65256   3.67091   3.67816   3.73452   3.74230
  Beta virt. eigenvalues --    3.76297   3.78775   3.79395   3.85011   3.85626
  Beta virt. eigenvalues --    3.90271   3.91887   3.97423   3.99019   3.99956
  Beta virt. eigenvalues --    4.01117   4.04488   4.06883   4.11560   4.14005
  Beta virt. eigenvalues --    4.15351   4.18268   4.19314   4.21161   4.24278
  Beta virt. eigenvalues --    4.25954   4.29277   4.30770   4.32765   4.35262
  Beta virt. eigenvalues --    4.36783   4.38898   4.44419   4.48065   4.50086
  Beta virt. eigenvalues --    4.50695   4.51195   4.56549   4.61945   4.62537
  Beta virt. eigenvalues --    4.74422   4.93507   5.01119   5.11781   5.21241
  Beta virt. eigenvalues --    5.27780   5.28682   5.38401   5.41794   5.44139
  Beta virt. eigenvalues --    5.48097   5.50014   5.54081   5.54412   5.57246
  Beta virt. eigenvalues --    5.59292   5.63047   5.91745   6.01622   6.58938
  Beta virt. eigenvalues --    6.99165   7.09724   7.25308   7.28057   7.52590
  Beta virt. eigenvalues --    7.65971  24.16458  24.30272  24.36600  24.51504
  Beta virt. eigenvalues --   50.14705
          Condensed to atoms (all electrons):
               1          2          3          4          5          6
     1  O    8.109444  -0.006025   0.134491   0.002692  -0.038012   0.007768
     2  C   -0.006025   5.634499   0.069946   0.022313  -0.240695   0.409050
     3  C    0.134491   0.069946   5.066440   0.028069   0.141517  -0.020627
     4  C    0.002692   0.022313   0.028069   5.145610   0.079169   0.024967
     5  C   -0.038012  -0.240695   0.141517   0.079169   5.966842  -0.058102
     6  H    0.007768   0.409050  -0.020627   0.024967  -0.058102   0.535884
     7  H   -0.010508   0.471963  -0.046243  -0.013961  -0.065836  -0.035102
     8  H   -0.061895   0.051489   0.401856   0.002599  -0.055215  -0.008904
     9  H   -0.059847  -0.080215   0.464247  -0.002992   0.028570  -0.001313
    10  H    0.000224  -0.020402   0.001311   0.405719  -0.026689   0.000819
    11  H   -0.000217   0.000716   0.002623   0.420930  -0.059035  -0.001475
    12  H    0.000140   0.022256  -0.002784   0.403277  -0.043899  -0.000177
    13  H   -0.012030  -0.036325   0.008061  -0.032393   0.397689   0.004407
    14  H    0.259214  -0.054508   0.009081   0.012341   0.015654  -0.000061
               7          8          9         10         11         12
     1  O   -0.010508  -0.061895  -0.059847   0.000224  -0.000217   0.000140
     2  C    0.471963   0.051489  -0.080215  -0.020402   0.000716   0.022256
     3  C   -0.046243   0.401856   0.464247   0.001311   0.002623  -0.002784
     4  C   -0.013961   0.002599  -0.002992   0.405719   0.420930   0.403277
     5  C   -0.065836  -0.055215   0.028570  -0.026689  -0.059035  -0.043899
     6  H   -0.035102  -0.008904  -0.001313   0.000819  -0.001475  -0.000177
     7  H    0.527904   0.005017  -0.008450  -0.000408   0.000853  -0.000132
     8  H    0.005017   0.580280  -0.043229   0.000063   0.000027  -0.000040
     9  H   -0.008450  -0.043229   0.570260  -0.000036  -0.000031   0.000023
    10  H   -0.000408   0.000063  -0.000036   0.565921  -0.036501  -0.029172
    11  H    0.000853   0.000027  -0.000031  -0.036501   0.552775  -0.021695
    12  H   -0.000132  -0.000040   0.000023  -0.029172  -0.021695   0.545726
    13  H    0.000362  -0.001046  -0.000235   0.000107   0.004065  -0.005764
    14  H    0.001347  -0.000489   0.007804  -0.000065  -0.000023  -0.000003
              13         14
     1  O   -0.012030   0.259214
     2  C   -0.036325  -0.054508
     3  C    0.008061   0.009081
     4  C   -0.032393   0.012341
     5  C    0.397689   0.015654
     6  H    0.004407  -0.000061
     7  H    0.000362   0.001347
     8  H   -0.001046  -0.000489
     9  H   -0.000235   0.007804
    10  H    0.000107  -0.000065
    11  H    0.004065  -0.000023
    12  H   -0.005764  -0.000003
    13  H    0.511475   0.015071
    14  H    0.015071   0.492737
          Atomic-Atomic Spin Densities.
               1          2          3          4          5          6
     1  O    0.016678  -0.004004  -0.006470   0.001485  -0.003280   0.001245
     2  C   -0.004004   0.026264   0.002088   0.008025  -0.146454  -0.010758
     3  C   -0.006470   0.002088   0.028352   0.002763   0.006636   0.007198
     4  C    0.001485   0.008025   0.002763  -0.024181  -0.077077   0.002068
     5  C   -0.003280  -0.146454   0.006636  -0.077077   1.360747   0.000551
     6  H    0.001245  -0.010758   0.007198   0.002068   0.000551   0.021036
     7  H   -0.003756   0.051739  -0.003753   0.002258  -0.064783  -0.009270
     8  H   -0.001911   0.007950   0.003691   0.001190  -0.011178  -0.000870
     9  H   -0.001022   0.000395  -0.005037  -0.001021   0.005147  -0.000876
    10  H    0.000373  -0.010452   0.004076   0.029481  -0.038044   0.002459
    11  H   -0.000112   0.010350  -0.001388   0.003831  -0.016347  -0.001603
    12  H   -0.000078   0.004685  -0.000859   0.009438  -0.016212  -0.000309
    13  H   -0.000743   0.014035  -0.000984   0.000101  -0.008241  -0.000369
    14  H   -0.007435   0.004095   0.003072  -0.000818  -0.001347  -0.000193
               7          8          9         10         11         12
     1  O   -0.003756  -0.001911  -0.001022   0.000373  -0.000112  -0.000078
     2  C    0.051739   0.007950   0.000395  -0.010452   0.010350   0.004685
     3  C   -0.003753   0.003691  -0.005037   0.004076  -0.001388  -0.000859
     4  C    0.002258   0.001190  -0.001021   0.029481   0.003831   0.009438
     5  C   -0.064783  -0.011178   0.005147  -0.038044  -0.016347  -0.016212
     6  H   -0.009270  -0.000870  -0.000876   0.002459  -0.001603  -0.000309
     7  H    0.058965   0.000351   0.001788  -0.000757   0.001076   0.000256
     8  H    0.000351  -0.006182   0.001359  -0.000145   0.000021   0.000011
     9  H    0.001788   0.001359   0.000454  -0.000036   0.000016   0.000004
    10  H   -0.000757  -0.000145  -0.000036   0.077346  -0.010330  -0.009023
    11  H    0.001076   0.000021   0.000016  -0.010330   0.024514   0.003802
    12  H    0.000256   0.000011   0.000004  -0.009023   0.003802   0.016851
    13  H    0.000501   0.000166   0.000059  -0.000340  -0.000213   0.000671
    14  H    0.001023   0.000570   0.000031  -0.000112   0.000043   0.000011
              13         14
     1  O   -0.000743  -0.007435
     2  C    0.014035   0.004095
     3  C   -0.000984   0.003072
     4  C    0.000101  -0.000818
     5  C   -0.008241  -0.001347
     6  H   -0.000369  -0.000193
     7  H    0.000501   0.001023
     8  H    0.000166   0.000570
     9  H    0.000059   0.000031
    10  H   -0.000340  -0.000112
    11  H   -0.000213   0.000043
    12  H    0.000671   0.000011
    13  H   -0.058152   0.001735
    14  H    0.001735   0.005488
 Mulliken charges and spin densities:
               1          2
     1  O   -0.325439  -0.009029
     2  C   -0.244062  -0.042042
     3  C   -0.257988   0.039386
     4  C   -0.498339  -0.042457
     5  C   -0.041957   0.990120
     6  H    0.142866   0.010311
     7  H    0.173194   0.035635
     8  H    0.129486  -0.004975
     9  H    0.125444   0.001260
    10  H    0.139108   0.044495
    11  H    0.136988   0.013659
    12  H    0.132244   0.009247
    13  H    0.146556  -0.051774
    14  H    0.241900   0.006165
 Sum of Mulliken charges =  -0.00000   1.00000
 Mulliken charges and spin densities with hydrogens summed into heavy atoms:
               1          2
     1  O   -0.083539  -0.002865
     2  C    0.071998   0.003903
     3  C   -0.003058   0.035670
     4  C   -0.090000   0.024945
     5  C    0.104599   0.938347
 APT charges:
               1
     1  O   -0.499912
     2  C   -0.806642
     3  C   -0.719878
     4  C   -1.335936
     5  C   -0.066771
     6  H    0.379032
     7  H    0.396266
     8  H    0.335372
     9  H    0.479350
    10  H    0.334628
    11  H    0.394206
    12  H    0.496958
    13  H    0.284098
    14  H    0.329228
 Sum of APT charges =  -0.00000
 APT charges with hydrogens summed into heavy atoms:
               1
     1  O   -0.170684
     2  C   -0.031345
     3  C    0.094845
     4  C   -0.110144
     5  C    0.217327
 Electronic spatial extent (au):  <R**2>=            573.6321
 Charge=             -0.0000 electrons
 Dipole moment (field-independent basis, Debye):
    X=             -2.0535    Y=              0.6454    Z=              0.3557  Tot=              2.1817
 Quadrupole moment (field-independent basis, Debye-Ang):
   XX=            -37.6450   YY=            -30.9383   ZZ=            -33.9583
   XY=              2.6829   XZ=             -0.1082   YZ=              0.0036
 Traceless Quadrupole moment (field-independent basis, Debye-Ang):
   XX=             -3.4645   YY=              3.2422   ZZ=              0.2222
   XY=              2.6829   XZ=             -0.1082   YZ=              0.0036
 Octapole moment (field-independent basis, Debye-Ang**2):
  XXX=             -7.6456  YYY=             -6.0598  ZZZ=              1.7257  XYY=              1.6520
  XXY=              6.7276  XXZ=              1.0643  XZZ=              2.7244  YZZ=              0.4957
  YYZ=             -1.0543  XYZ=              0.1902
 Hexadecapole moment (field-independent basis, Debye-Ang**3):
 XXXX=           -588.8546 YYYY=           -126.9576 ZZZZ=            -71.0369 XXXY=             16.6364
 XXXZ=              2.4758 YYYX=             -6.7049 YYYZ=              2.0259 ZZZX=             -2.9389
 ZZZY=             -1.6365 XXYY=           -115.5734 XXZZ=           -108.3517 YYZZ=            -36.1061
 XXYZ=             -0.5811 YYXZ=             -0.7718 ZZXY=             -1.6815
 N-N= 1.795998953062D+02 E-N=-9.019460243088D+02  KE= 2.318806303003D+02
  Exact polarizability:   0.000   0.000   0.000   0.000   0.000   0.000
 Approx polarizability:  64.645   1.170  63.148  -1.150   0.731  58.572
                          Isotropic Fermi Contact Couplings
        Atom                 a.u.       MegaHertz       Gauss      10(-4) cm-1
     1  O(17)              0.00380      -2.30499      -0.82248      -0.76886
     2  C(13)             -0.03003     -33.75771     -12.04559     -11.26036
     3  C(13)              0.02098      23.58515       8.41577       7.86716
     4  C(13)             -0.02938     -33.03035     -11.78605     -11.01774
     5  C(13)              0.20369     228.99171      81.70994      76.38341
     6  H(1)               0.00468      20.93350       7.46959       6.98266
     7  H(1)               0.02363     105.63090      37.69173      35.23467
     8  H(1)              -0.00029      -1.28080      -0.45702      -0.42723
     9  H(1)               0.00005       0.22267       0.07946       0.07428
    10  H(1)               0.02630     117.57380      41.95326      39.21840
    11  H(1)               0.00693      30.98106      11.05481      10.33417
    12  H(1)               0.00530      23.68773       8.45237       7.90137
    13  H(1)              -0.01517     -67.81544     -24.19824     -22.62080
    14  H(1)               0.00044       1.97824       0.70589       0.65987
 --------------------------------------------------------
       Center         ----  Spin Dipole Couplings  ----
                      3XX-RR        3YY-RR        3ZZ-RR
 --------------------------------------------------------
     1   Atom       -0.005460     -0.009870      0.015331
     2   Atom       -0.004949     -0.004095      0.009045
     3   Atom        0.026290     -0.012774     -0.013516
     4   Atom       -0.001915     -0.011562      0.013477
     5   Atom       -0.501666     -0.538317      1.039984
     6   Atom       -0.005850      0.013291     -0.007441
     7   Atom       -0.000265      0.004023     -0.003758
     8   Atom        0.003561     -0.004431      0.000870
     9   Atom        0.004933     -0.001607     -0.003326
    10   Atom        0.005842     -0.009483      0.003641
    11   Atom        0.010136     -0.001663     -0.008473
    12   Atom        0.015216     -0.007285     -0.007930
    13   Atom       -0.047993      0.053408     -0.005415
    14   Atom        0.011226     -0.004417     -0.006808
 --------------------------------------------------------
                        XY            XZ            YZ
 --------------------------------------------------------
     1   Atom       -0.006325     -0.004125     -0.004175
     2   Atom        0.009228      0.009361      0.004348
     3   Atom       -0.003319      0.011445     -0.002733
     4   Atom       -0.002525     -0.005076      0.002605
     5   Atom        0.009471      0.278279      0.075991
     6   Atom        0.006147      0.002185      0.003674
     7   Atom        0.012752     -0.007254     -0.008918
     8   Atom        0.003996      0.006877      0.002024
     9   Atom        0.004224      0.000825     -0.000036
    10   Atom       -0.002934     -0.011348      0.002419
    11   Atom       -0.011577     -0.001349      0.001739
    12   Atom        0.007351     -0.003341     -0.001751
    13   Atom       -0.050017      0.015918     -0.007256
    14   Atom       -0.012118      0.000033     -0.000177
 --------------------------------------------------------


 ---------------------------------------------------------------------------------
              Anisotropic Spin Dipole Couplings in Principal Axis System
 ---------------------------------------------------------------------------------

       Atom             a.u.   MegaHertz   Gauss  10(-4) cm-1        Axes

              Baa    -0.0155     1.118     0.399     0.373  0.5789  0.7941  0.1852
     1 O(17)  Bbb    -0.0010     0.073     0.026     0.024  0.8014 -0.5960  0.0500
              Bcc     0.0165    -1.192    -0.425    -0.398 -0.1501 -0.1195  0.9814
 
              Baa    -0.0145    -1.948    -0.695    -0.650  0.7733 -0.6030 -0.1960
     2 C(13)  Bbb    -0.0025    -0.335    -0.120    -0.112  0.3991  0.7031 -0.5886
              Bcc     0.0170     2.283     0.815     0.762  0.4927  0.3769  0.7843
 
              Baa    -0.0173    -2.325    -0.830    -0.776 -0.2060  0.3889  0.8979
     3 C(13)  Bbb    -0.0124    -1.661    -0.593    -0.554  0.1837  0.9167 -0.3549
              Bcc     0.0297     3.986     1.422     1.330  0.9611 -0.0918  0.2603
 
              Baa    -0.0123    -1.645    -0.587    -0.549  0.2101  0.9760 -0.0574
     4 C(13)  Bbb    -0.0031    -0.420    -0.150    -0.140  0.9320 -0.1822  0.3134
              Bcc     0.0154     2.065     0.737     0.689 -0.2955  0.1193  0.9479
 
              Baa    -0.5518   -74.045   -26.421   -24.699  0.9177  0.3554 -0.1774
     5 C(13)  Bbb    -0.5405   -72.526   -25.879   -24.192 -0.3580  0.9335  0.0182
              Bcc     1.0923   146.571    52.300    48.891  0.1721  0.0469  0.9840
 
              Baa    -0.0090    -4.799    -1.712    -1.601 -0.6281  0.0452  0.7768
     6 H(1)   Bbb    -0.0068    -3.649    -1.302    -1.217  0.7241 -0.3315  0.6048
              Bcc     0.0158     8.448     3.014     2.818  0.2848  0.9424  0.1755
 
              Baa    -0.0111    -5.909    -2.108    -1.971  0.7304 -0.6758 -0.0996
     7 H(1)   Bbb    -0.0092    -4.923    -1.757    -1.642  0.3601  0.2570  0.8968
              Bcc     0.0203    10.832     3.865     3.613  0.5804  0.6909 -0.4311
 
              Baa    -0.0063    -3.360    -1.199    -1.121 -0.5144  0.8162  0.2631
     8 H(1)   Bbb    -0.0042    -2.247    -0.802    -0.749 -0.4121 -0.5044  0.7588
              Bcc     0.0105     5.606     2.000     1.870  0.7520  0.2819  0.5958
 
              Baa    -0.0040    -2.108    -0.752    -0.703 -0.3963  0.7231  0.5658
     9 H(1)   Bbb    -0.0031    -1.657    -0.591    -0.553  0.1968 -0.5350  0.8216
              Bcc     0.0071     3.764     1.343     1.256  0.8968  0.4370  0.0697
 
              Baa    -0.0100    -5.359    -1.912    -1.788  0.1418  0.9883 -0.0571
    10 H(1)   Bbb    -0.0067    -3.548    -1.266    -1.184  0.6647 -0.0523  0.7453
              Bcc     0.0167     8.907     3.178     2.971  0.7335 -0.1436 -0.6643
 
              Baa    -0.0095    -5.055    -1.804    -1.686 -0.3388 -0.6529  0.6774
    11 H(1)   Bbb    -0.0079    -4.225    -1.508    -1.409  0.4060  0.5480  0.7313
              Bcc     0.0174     9.281     3.312     3.096  0.8487 -0.5228 -0.0794
 
              Baa    -0.0098    -5.253    -1.874    -1.752 -0.1941  0.8687  0.4557
    12 H(1)   Bbb    -0.0081    -4.316    -1.540    -1.440  0.2535 -0.4043  0.8788
              Bcc     0.0179     9.569     3.414     3.192  0.9477  0.2861 -0.1418
 
              Baa    -0.0707   -37.746   -13.469   -12.591  0.9155  0.3581 -0.1833
    13 H(1)   Bbb    -0.0052    -2.778    -0.991    -0.927  0.1104  0.2144  0.9705
              Bcc     0.0760    40.524    14.460    13.517 -0.3868  0.9087 -0.1567
 
              Baa    -0.0110    -5.882    -2.099    -1.962  0.4780  0.8777  0.0332
    14 H(1)   Bbb    -0.0068    -3.630    -1.295    -1.211 -0.0199 -0.0269  0.9994
              Bcc     0.0178     9.512     3.394     3.173  0.8781 -0.4784  0.0046
 

 ---------------------------------------------------------------------------------

 No NMR shielding tensors so no spin-rotation constants.
 Leave Link  601 at Tue Apr  9 01:18:40 2019, MaxMem=   671088640 cpu:               8.1 elap:               0.4
 (Enter /shared/centos7/gaussian/g16/l701.exe)
 SCFChk:  SCF convergence  9.58D-09 required  1.00D-08
 ... and contract with generalized density number  0.
 Compute integral second derivatives.
 Entering OneElI...
 Calculate overlap and kinetic energy integrals
    NBasis = 276  MinDer = 2  MaxDer = 2
 Requested accuracy = 0.1000D-12
 PrmmSu-InSpLW:  IPartL=    0 NPrtUS=   20 NPrtUL=    1 DoSpLW=F IThBeg=    0 IThEnd=   19 NThAct=   20.
 PrsmSu:  NPrtUS=  20 ThrOK=T IAlg=1 NPAlg=1 LenDen=           0 ISkipM=0 DoSpLW=F IThBeg=    0 IThEnd=   19.
 Prism:   IPart=     0 DynPar=F LinDyn=F Incr=           1.
 PRISM was handed    33457718 working-precision words and  3641 shell-pairs
 PRISM was handed    33457718 working-precision words and  3641 shell-pairs
 PRISM was handed    33457718 working-precision words and  3641 shell-pairs
 PRISM was handed    33457718 working-precision words and  3641 shell-pairs
 PRISM was handed    33457718 working-precision words and  3641 shell-pairs
 PRISM was handed    33457718 working-precision words and  3641 shell-pairs
 PRISM was handed    33457718 working-precision words and  3641 shell-pairs
 PRISM was handed    33457718 working-precision words and  3641 shell-pairs
 PRISM was handed    33457718 working-precision words and  3641 shell-pairs
 PRISM was handed    33457718 working-precision words and  3641 shell-pairs
 PRISM was handed    33457718 working-precision words and  3641 shell-pairs
 PRISM was handed    33457718 working-precision words and  3641 shell-pairs
 PRISM was handed    33457718 working-precision words and  3641 shell-pairs
 PRISM was handed    33457718 working-precision words and  3641 shell-pairs
 PRISM was handed    33457718 working-precision words and  3641 shell-pairs
 PRISM was handed    33457718 working-precision words and  3641 shell-pairs
 PRISM was handed    33457718 working-precision words and  3641 shell-pairs
 PRISM was handed    33457718 working-precision words and  3641 shell-pairs
 PRISM was handed    33457718 working-precision words and  3641 shell-pairs
 PRISM was handed    33457718 working-precision words and  3641 shell-pairs
 IPart=  6 NShTot=         187 NBatch=          39 AvBLen=         4.8
 IPart=  7 NShTot=         186 NBatch=          38 AvBLen=         4.9
 IPart=  4 NShTot=         195 NBatch=          43 AvBLen=         4.5
 IPart=  3 NShTot=         200 NBatch=          44 AvBLen=         4.5
 IPart=  9 NShTot=         182 NBatch=          36 AvBLen=         5.1
 IPart=  1 NShTot=         212 NBatch=          53 AvBLen=         4.0
 IPart=  2 NShTot=         205 NBatch=          48 AvBLen=         4.3
 IPart= 13 NShTot=         172 NBatch=          32 AvBLen=         5.4
 IPart=  0 NShTot=         220 NBatch=          59 AvBLen=         3.7
 IPart= 11 NShTot=         174 NBatch=          32 AvBLen=         5.4
 IPart=  5 NShTot=         188 NBatch=          39 AvBLen=         4.8
 IPart= 12 NShTot=         174 NBatch=          32 AvBLen=         5.4
 IPart= 14 NShTot=         169 NBatch=          30 AvBLen=         5.6
 IPart= 18 NShTot=         161 NBatch=          28 AvBLen=         5.8
 IPart= 10 NShTot=         179 NBatch=          36 AvBLen=         5.0
 IPart=  8 NShTot=         184 NBatch=          36 AvBLen=         5.1
 IPart= 17 NShTot=         163 NBatch=          29 AvBLen=         5.6
 IPart= 16 NShTot=         164 NBatch=          29 AvBLen=         5.7
 IPart= 15 NShTot=         165 NBatch=          29 AvBLen=         5.7
 IPart= 19 NShTot=         161 NBatch=          28 AvBLen=         5.8
 PrSmSu:  NxtVal=             21.
 Entering OneElI...
 Calculate potential energy integrals
    NBasis = 276  MinDer = 2  MaxDer = 2
 Requested accuracy = 0.1000D-12
 PrmmSu-InSpLW:  IPartL=    0 NPrtUS=   20 NPrtUL=    1 DoSpLW=F IThBeg=    0 IThEnd=   19 NThAct=   20.
 PrsmSu:  NPrtUS=  20 ThrOK=T IAlg=1 NPAlg=1 LenDen=           0 ISkipM=0 DoSpLW=F IThBeg=    0 IThEnd=   19.
 Prism:   IPart=     0 DynPar=F LinDyn=F Incr=          24.
 PRISM was handed    33469966 working-precision words and  3469 shell-pairs
 PRISM was handed    33469966 working-precision words and  3469 shell-pairs
 PRISM was handed    33469966 working-precision words and  3469 shell-pairs
 PRISM was handed    33469966 working-precision words and  3469 shell-pairs
 PRISM was handed    33469966 working-precision words and  3469 shell-pairs
 PRISM was handed    33469966 working-precision words and  3469 shell-pairs
 PRISM was handed    33469966 working-precision words and  3469 shell-pairs
 PRISM was handed    33469966 working-precision words and  3469 shell-pairs
 PRISM was handed    33469966 working-precision words and  3469 shell-pairs
 PRISM was handed    33469966 working-precision words and  3469 shell-pairs
 PRISM was handed    33469966 working-precision words and  3469 shell-pairs
 PRISM was handed    33469966 working-precision words and  3469 shell-pairs
 PRISM was handed    33469966 working-precision words and  3469 shell-pairs
 PRISM was handed    33469966 working-precision words and  3469 shell-pairs
 PRISM was handed    33469966 working-precision words and  3469 shell-pairs
 PRISM was handed    33469966 working-precision words and  3469 shell-pairs
 PRISM was handed    33469966 working-precision words and  3469 shell-pairs
 PRISM was handed    33469966 working-precision words and  3469 shell-pairs
 PRISM was handed    33469966 working-precision words and  3469 shell-pairs
 PRISM was handed    33469966 working-precision words and  3469 shell-pairs
 IPart= 15 NShTot=        2226 NBatch=         159 AvBLen=        14.0
 IPart= 18 NShTot=        2170 NBatch=         155 AvBLen=        14.0
 IPart= 12 NShTot=        2324 NBatch=         166 AvBLen=        14.0
 IPart= 11 NShTot=        2338 NBatch=         167 AvBLen=        14.0
 IPart=  9 NShTot=        2380 NBatch=         170 AvBLen=        14.0
 IPart=  6 NShTot=        2478 NBatch=         177 AvBLen=        14.0
 IPart=  7 NShTot=        2450 NBatch=         175 AvBLen=        14.0
 IPart=  4 NShTot=        2590 NBatch=         185 AvBLen=        14.0
 IPart=  3 NShTot=        2646 NBatch=         189 AvBLen=        14.0
 IPart= 13 NShTot=        2310 NBatch=         165 AvBLen=        14.0
 IPart=  2 NShTot=        2730 NBatch=         195 AvBLen=        14.0
 IPart=  1 NShTot=        2842 NBatch=         203 AvBLen=        14.0
 IPart=  0 NShTot=        2912 NBatch=         208 AvBLen=        14.0
 IPart= 10 NShTot=        2366 NBatch=         169 AvBLen=        14.0
 IPart=  5 NShTot=        2548 NBatch=         182 AvBLen=        14.0
 IPart=  8 NShTot=        2422 NBatch=         173 AvBLen=        14.0
 IPart= 14 NShTot=        2268 NBatch=         162 AvBLen=        14.0
 IPart= 16 NShTot=        2212 NBatch=         158 AvBLen=        14.0
 IPart= 17 NShTot=        2198 NBatch=         157 AvBLen=        14.0
 IPart= 19 NShTot=        2156 NBatch=         154 AvBLen=        14.0
 PrSmSu:  NxtVal=            481.
 Polarizability after L701:
                1             2             3 
      1  0.000000D+00
      2  0.000000D+00  0.000000D+00
      3  0.000000D+00  0.000000D+00  0.000000D+00
 Dipole Derivatives after L701:
                 1             2             3             4             5 
      1  -0.359793D+00  0.654997D+00  0.268695D+00 -0.367776D+00  0.104863D+00
      2  -0.337020D+00 -0.783733D+00 -0.112284D+00  0.147885D+00 -0.993482D+00
      3  -0.945170D-01  0.140932D-01 -0.356209D+00  0.211474D+00  0.477784D-01
                 6             7             8             9            10 
      1   0.271374D+00 -0.665107D+00 -0.109132D+01 -0.641641D+00 -0.187883D+01
      2   0.212202D+00 -0.425988D+00 -0.744001D+00 -0.152768D+00 -0.134271D+00
      3  -0.105867D+01  0.483024D-01 -0.821066D-01 -0.750525D+00 -0.116519D-01
                11            12            13            14            15 
      1   0.156462D+00  0.222815D+00  0.267256D+00 -0.279750D+00  0.609013D-01
      2  -0.108507D+01  0.206449D-02  0.349173D+00 -0.562023D+00  0.854832D-01
      3  -0.333684D-01 -0.104390D+01 -0.349789D-01 -0.457155D-01  0.944553D-01
                16            17            18            19            20 
      1   0.201457D+00 -0.137719D+00 -0.730998D-01  0.212209D+00  0.329903D-01
      2  -0.275981D+00  0.744587D+00  0.291479D+00  0.102089D+00  0.273916D+00
      3  -0.380696D-01  0.627784D-01  0.191052D+00 -0.102036D+00 -0.119318D+00
                21            22            23            24            25 
      1  -0.834598D-01  0.108474D+00  0.371286D-01  0.564166D+00  0.771523D+00
      2  -0.407503D+00 -0.356405D-01  0.204196D+00  0.181286D+00  0.325325D+00
      3   0.702672D+00 -0.356728D-01  0.163817D-01  0.693446D+00 -0.100683D-01
                26            27            28            29            30 
      1   0.659312D+00 -0.267269D+00  0.209203D+00 -0.983866D-01 -0.967238D+00
      2   0.509598D+00 -0.120308D+00 -0.376685D-02  0.114985D+00 -0.317163D-01
      3   0.297548D-01  0.156930D+00 -0.965176D-02  0.400031D-01  0.679695D+00
                31            32            33            34            35 
      1   0.572935D+00 -0.101150D+01  0.419300D+00  0.850593D+00  0.105325D+01
      2  -0.124157D+00  0.421644D+00 -0.150301D+00  0.249740D+00  0.499792D+00
      3   0.385365D-01 -0.127524D+00  0.188040D+00  0.279535D-01  0.714255D-01
                36            37            38            39            40 
      1   0.346670D+00  0.660302D-01  0.241648D+00 -0.289994D-01  0.118277D-01
      2   0.145712D+00 -0.218311D+00  0.706365D+00 -0.525554D-01  0.380925D+00
      3   0.140489D+00 -0.394875D-01  0.719178D-01  0.798989D-01  0.498682D-01
                41            42 
      1  -0.321985D+00 -0.922138D-01
      2   0.693230D+00  0.109208D+00
      3   0.538999D-01  0.282627D+00
 Hessian after L701:
                1             2             3             4             5 
      1  0.767622D+01
      2  0.626144D+00  0.453787D+01
      3 -0.106140D+00 -0.183492D+01  0.121930D+02
      4  0.611867D+00 -0.623620D+00 -0.124603D+00  0.108684D+02
      5 -0.591711D+00 -0.378274D-01  0.419002D-01  0.470081D-01  0.131470D+02
      6 -0.152524D+00  0.889807D-01 -0.478560D+00 -0.501997D+00  0.302729D+00
      7 -0.627744D+01 -0.215367D+01 -0.463354D+00 -0.194356D+01 -0.104022D+01
      8 -0.222188D+01 -0.896947D+00  0.159612D+01 -0.111187D+01 -0.521967D+01
      9 -0.445978D+00  0.157899D+01 -0.665445D+01  0.151764D+01 -0.483294D+00
     10  0.183676D+00 -0.150125D-01 -0.516269D-01  0.777723D-01  0.128057D+00
     11 -0.361104D-01 -0.110771D+00  0.432074D-02  0.229665D+00 -0.966583D-01
     12 -0.428306D-01  0.653930D-02 -0.106420D+00 -0.161207D-01 -0.546628D-02
     13  0.320863D+00 -0.355678D-01  0.347086D+00 -0.268327D+01  0.214299D+01
     14 -0.271939D+00 -0.195676D+00 -0.920666D-01  0.211566D+01 -0.235698D+01
     15  0.295107D+00 -0.757965D-01 -0.152943D+00 -0.390411D-01 -0.161222D-01
     16  0.425672D-01 -0.100116D+00 -0.108517D-01 -0.340295D+01 -0.823382D+00
     17 -0.134855D+00  0.805282D-01  0.931416D-02 -0.859713D+00 -0.176927D+01
     18 -0.251529D-01  0.204500D-01 -0.469748D-01 -0.384315D+00  0.844662D+00
     19 -0.982167D-02  0.540957D-02  0.135477D-01 -0.372465D+01  0.118471D+00
     20 -0.217649D-01 -0.842901D-02 -0.255493D-01  0.147287D+00 -0.351756D+01
     21  0.511395D-01 -0.281588D-01  0.356599D-01 -0.445801D+00 -0.725158D+00
     22  0.706028D-01  0.810068D-01 -0.212334D-01 -0.160368D-01  0.452467D-01
     23  0.103039D+00 -0.181952D+00 -0.528766D-01  0.399072D-01 -0.401618D-01
     24 -0.335957D-01 -0.644721D-01  0.449468D+00  0.448163D-01  0.777027D-01
     25  0.145737D+00  0.155276D+00 -0.533352D-01 -0.694882D-01 -0.622933D-01
     26  0.132776D+00 -0.310806D-01 -0.192599D+00 -0.447727D-01  0.105921D+00
     27 -0.320811D-01 -0.190695D+00  0.698861D-01 -0.447048D-01 -0.301246D-01
     28  0.221335D-01 -0.211973D-02 -0.811551D-02  0.284391D-01  0.394180D-02
     29 -0.781601D-02 -0.117462D-01  0.164906D-02  0.114886D-01 -0.289150D-02
     30 -0.347562D-01 -0.248186D-02 -0.403501D-02 -0.316348D-01  0.341044D-02
     31  0.203279D-01 -0.432985D-02  0.296433D-02  0.274889D-01 -0.891607D-02
     32 -0.258709D-01 -0.678851D-02 -0.393390D-02 -0.309842D-01 -0.149787D-01
     33  0.878156D-02 -0.550025D-03 -0.673484D-02  0.228554D-02 -0.703897D-02
     34  0.350421D-01  0.895558D-02  0.322195D-02  0.102679D+00  0.841144D-01
     35  0.209571D-01 -0.235866D-02  0.282995D-02  0.105041D+00  0.216437D-02
     36  0.733158D-02  0.269262D-02 -0.860913D-02  0.631699D-02  0.151392D-03
     37 -0.915006D-02  0.319045D-01  0.162265D-01  0.664552D-01 -0.124066D+00
     38  0.104399D+00  0.158376D-01  0.148084D-01 -0.688225D-01 -0.989592D-01
     39  0.670738D-02  0.447898D-03 -0.347083D-01  0.416494D-02  0.163398D-01
     40 -0.283262D+01  0.202574D+01  0.456214D+00  0.568791D-01  0.807568D-01
     41  0.232463D+01 -0.315066D+01  0.531002D+00  0.437249D-01 -0.100122D+00
     42  0.503992D+00  0.498974D+00 -0.525456D+01  0.129968D-01 -0.196910D-01
                6             7             8             9            10 
      6  0.147855D+02
      7  0.148326D+01  0.139762D+02
      8 -0.523248D+00  0.157918D+01  0.124216D+02
      9 -0.487184D+01 -0.436362D+00 -0.114292D+01  0.168711D+02
     10  0.258247D-01  0.254068D+00  0.526503D-01 -0.814617D-02  0.847129D+01
     11 -0.782474D-02  0.688202D-01 -0.153477D+00 -0.491918D-02  0.272380D-01
     12 -0.228297D+00  0.264863D-01  0.138283D-03 -0.158469D+00  0.818656D+00
     13 -0.288745D-01  0.311296D+00  0.240112D+00 -0.214498D-01 -0.534320D+00
     14 -0.234885D-01  0.225255D+00 -0.293959D+00  0.279930D-01 -0.544037D+00
     15 -0.465183D+01  0.781321D-01  0.451296D-01 -0.410349D+00 -0.130740D+01
     16 -0.382469D+00  0.118876D-01  0.119027D-01 -0.219658D-02 -0.784007D-02
     17  0.882161D+00 -0.194567D-01  0.128475D-01  0.291395D-01  0.122201D+00
     18 -0.334665D+01 -0.254756D-01  0.424655D-01  0.118349D-01  0.130438D-01
     19 -0.384446D+00 -0.712312D-02  0.240407D-04 -0.929246D-01  0.231555D-01
     20 -0.778428D+00  0.134672D-02  0.719375D-01 -0.521299D-02  0.100958D-01
[...]
 ! A22   A(4,5,13)             118.9541         -DE/DX =    0.0                 !
 ! D1    D(14,1,3,2)           -53.5054         -DE/DX =    0.0                 !
 ! D2    D(14,1,3,8)            69.5726         -DE/DX =    0.0                 !
 ! D3    D(14,1,3,9)          -173.7711         -DE/DX =    0.0                 !
 ! D4    D(5,2,3,1)             63.5135         -DE/DX =    0.0                 !
 ! D5    D(5,2,3,8)            -60.0383         -DE/DX =    0.0                 !
 ! D6    D(5,2,3,9)           -178.4621         -DE/DX =    0.0                 !
 ! D7    D(6,2,3,1)           -175.1162         -DE/DX =    0.0                 !
 ! D8    D(6,2,3,8)             61.3321         -DE/DX =    0.0                 !
 ! D9    D(6,2,3,9)            -57.0918         -DE/DX =    0.0                 !
 ! D10   D(7,2,3,1)            -59.073          -DE/DX =    0.0                 !
 ! D11   D(7,2,3,8)            177.3752         -DE/DX =    0.0                 !
 ! D12   D(7,2,3,9)             58.9513         -DE/DX =    0.0                 !
 ! D13   D(3,2,5,4)             76.4662         -DE/DX =    0.0                 !
 ! D14   D(3,2,5,13)          -115.8759         -DE/DX =    0.0                 !
 ! D15   D(6,2,5,4)            -43.5115         -DE/DX =    0.0                 !
 ! D16   D(6,2,5,13)           124.1464         -DE/DX =    0.0                 !
 ! D17   D(7,2,5,4)           -162.4021         -DE/DX =    0.0                 !
 ! D18   D(7,2,5,13)             5.2558         -DE/DX =    0.0                 !
 ! D19   D(10,4,5,2)           -41.1832         -DE/DX =    0.0                 !
 ! D20   D(10,4,5,13)          151.082          -DE/DX =    0.0                 !
 ! D21   D(11,4,5,2)            77.2468         -DE/DX =    0.0                 !
 ! D22   D(11,4,5,13)          -90.4879         -DE/DX =    0.0                 !
 ! D23   D(12,4,5,2)          -162.8152         -DE/DX =    0.0                 !
 ! D24   D(12,4,5,13)           29.45           -DE/DX =    0.0                 !
 --------------------------------------------------------------------------------
 GradGradGradGradGradGradGradGradGradGradGradGradGradGradGradGradGradGrad

 Leave Link  103 at Tue Apr  9 02:00:51 2019, MaxMem=   671088640 cpu:               0.5 elap:               0.1
 (Enter /shared/centos7/gaussian/g16/l9999.exe)

 ----------------------------------------------------------------------

 Electric dipole moment (input orientation):
 (Debye = 10**-18 statcoulomb cm , SI units = C m)
                  (au)            (Debye)         (10**-30 SI)
   Tot        0.820336D+00      0.208509D+01      0.695510D+01
   x          0.656174D+00      0.166783D+01      0.556327D+01
   y          0.488675D+00      0.124209D+01      0.414316D+01
   z          0.598738D-01      0.152184D+00      0.507631D+00

 Dipole polarizability, Alpha (input orientation).
 (esu units = cm**3 , SI units = C**2 m**2 J**-1)
 Alpha(0;0):
               (au)            (10**-24 esu)      (10**-40 SI)
   iso        0.543154D+02      0.804871D+01      0.895539D+01
   aniso      0.986123D+01      0.146128D+01      0.162590D+01
   xx         0.542966D+02      0.804593D+01      0.895230D+01
   yx         0.336217D+01      0.498223D+00      0.554348D+00
   yy         0.585443D+02      0.867537D+01      0.965265D+01
   zx         0.130054D+01      0.192720D+00      0.214430D+00
   zy         0.127052D+01      0.188271D+00      0.209480D+00
   zz         0.501052D+02      0.742482D+01      0.826123D+01

 ----------------------------------------------------------------------

 Dipole orientation:
     8          0.85557978         -0.12808331          0.57972596
     6          3.35811353         -0.32979803          4.45450284
     6          1.94009865         -1.76891699          2.38027441
     6         -0.03056665          0.18137675          7.93582701
     6          1.64843703          1.31071565          5.98341563
     1          4.27937219         -1.73093239          5.67505291
     1          4.83933588          0.79041902          3.56261767
     1          0.49311336         -2.98252088          3.22973455
     1          3.24305037         -2.97933172          1.34448086
     1         -0.88468414         -1.57915496          7.27791566
     1          1.03411544         -0.29429929          9.65187030
     1         -1.54251349          1.46038617          8.49383325
     1          1.89548387          3.33711321          5.94446723
     1         -0.16431983          1.08594016          1.46638487

 Electric dipole moment (dipole orientation):
 (Debye = 10**-18 statcoulomb cm , SI units = C m)
                  (au)            (Debye)         (10**-30 SI)
   Tot        0.820336D+00      0.208509D+01      0.695510D+01
   x          0.000000D+00      0.000000D+00      0.000000D+00
   y          0.000000D+00      0.000000D+00      0.000000D+00
   z          0.820336D+00      0.208509D+01      0.695510D+01

 Dipole polarizability, Alpha (dipole orientation).
 (esu units = cm**3 , SI units = C**2 m**2 J**-1)
 Alpha(0;0):
               (au)            (10**-24 esu)      (10**-40 SI)
   iso        0.543154D+02      0.804871D+01      0.895539D+01
   aniso      0.986123D+01      0.146128D+01      0.162590D+01
   xx         0.513097D+02      0.760331D+01      0.845982D+01
   yx        -0.188303D+01     -0.279036D+00     -0.310469D+00
   yy         0.523884D+02      0.776315D+01      0.863767D+01
   zx        -0.270503D+01     -0.400845D+00     -0.446000D+00
   zy         0.173559D+01      0.257189D+00      0.286161D+00
   zz         0.592480D+02      0.877965D+01      0.976868D+01

 ----------------------------------------------------------------------

 Test job not archived.
 1\1\GINC-C0235\Freq\UM062X\6-311+G(2df,2p)\C4H9O1(2)\UNDERKOFFLER.C\09
 -Apr-2019\0\\#P Geom=AllCheck Guess=TCheck SCRF=Check Test GenChk UM06
 2X/6-311+G(2df,2p) Freq\\Gaussian input prepared by ASE\\0,2\O,0.45826
 5636,-0.0636735612,-0.2993833872\C,2.6804077781,0.4982490694,-1.145414
 1222\C,1.8376812958,-0.3320725775,-0.1716543736\C,3.3099256094,2.57304
 02254,0.2622681788\C,2.5768081619,1.9629943411,-0.8798316012\H,3.72311
 53423,0.1702757788,-1.0465422487\H,2.3560811008,0.2657612951,-2.159960
 7726\H,2.1733100415,-0.1540786546,0.8562002603\H,1.9620469776,-1.39346
 54214,-0.3816131593\H,3.2626960277,1.9428379292,1.1533630383\H,4.37552
 61047,2.6953249069,0.0278359479\H,2.9225542657,3.5572267761,0.52061369
 91\H,2.1369029916,2.6103452753,-1.6246894669\H,0.3303954045,0.88546923
 92,-0.2161325806\\Version=EM64L-G16RevA.03\State=2-A\HF=-232.9692575\S
 2=0.755273\S2-1=0.\S2A=0.750023\RMSD=2.412e-09\RMSF=7.857e-07\ZeroPoin
 t=0.1234924\Thermal=0.1305414\Dipole=0.6561738,0.4886748,0.0598738\Dip
 oleDeriv=-0.9884978,0.0004785,0.0399712,0.0724887,-0.3754169,0.0546894
 ,0.0356828,0.0652078,-0.5098672,0.0458678,-0.0219268,0.0161075,-0.0899
 626,-0.0155027,0.046276,0.0519206,0.0740201,0.0032671,0.7964941,0.0190
 936,0.0131287,-0.0690046,0.2985844,-0.0332698,0.0035919,-0.0710662,0.3
 363042,0.0618467,-0.0499112,-0.0926632,-0.0005266,-0.0159257,-0.021075
 4,-0.0417473,-0.0127628,0.0138635,-0.1969012,-0.016353,0.2148388,0.012
 6956,0.1530971,0.0397755,0.2230925,0.0665637,0.0117168,-0.1312464,0.07
 9375,0.0041251,0.0356727,-0.0073403,-0.0021841,-0.0307748,0.0093377,0.
 0615548,0.0494319,-0.0254478,-0.0620958,-0.0276811,-0.0021297,-0.03608
 6,-0.0263595,-0.0419539,-0.1002117,-0.0622664,0.0048063,-0.0473337,-0.
 014302,0.042129,-0.0457515,-0.0849694,-0.0027743,-0.1624789,0.0064863,
 -0.0166359,0.0070945,0.0291212,-0.1501632,-0.0121901,0.0086792,-0.0355
 264,0.0536408,0.0659251,-0.0073173,0.0161418,-0.0041517,0.0019335,0.10
 02342,-0.0133501,0.0552357,-0.0611492,-0.127639,-0.0557817,-0.0053739,
 -0.0163699,0.0539215,-0.0236979,0.0350584,-0.0327569,0.0379894,0.04405
 9,0.0650956,0.0116827,0.0289515,-0.0948878,-0.0623527,-0.0158149,-0.05
 5634,0.0439203,0.0965695,0.0258095,-0.0802982,0.0094498,-0.0609469,0.0
 221209,-0.0912788,0.0177422,-0.0258212,0.3398704,-0.001285,-0.0353254,
 0.0336191,0.1726477,-0.0264884,-0.0537306,-0.0356327,0.2972712\Polar=5
 4.2966228,3.3621745,58.5442701,1.300537,1.2705178,50.1051823\Quadrupol
 e=-1.7123074,0.928506,0.7838014,-2.9443983,0.1983859,0.2306854\PG=C01 
 [X(C4H9O1)]\NImag=0\\0.38266019,-0.09879924,0.61025631,0.02657901,0.04
 238284,0.06059893,-0.04321586,-0.01544891,0.02403935,0.51872744,0.0028
 2083,0.00712488,-0.00404643,-0.03142920,0.46780507,0.00005935,-0.00282
 248,0.00605561,0.07049667,0.04231103,0.55030810,-0.24279639,0.05197211
 ,-0.02293020,-0.08914343,-0.02337161,0.03363937,0.47125420,0.00771798,
 -0.10237579,-0.00172061,-0.02855717,-0.10547469,0.03980714,-0.02857366
 ,0.61152966,-0.02494079,0.00123545,-0.06720204,0.02652474,0.02852083,-
 0.12748716,0.03981973,0.04810511,0.54645396,0.00005739,-0.00031616,0.0
 0023626,0.00256177,0.00185483,0.00410801,0.00005858,0.00019164,0.00012
 100,0.48333862,-0.00066229,0.00034890,0.00025374,-0.01720546,-0.010882
 01,-0.02436656,0.00090047,-0.00000148,-0.00150524,-0.02926533,0.569799
 70,-0.00035129,0.00055860,-0.00061293,-0.00065007,-0.00617246,-0.00306
 324,0.00018138,0.00041959,0.00132241,-0.00912049,-0.01188285,0.5104182
 3,0.00092375,-0.00440799,-0.00024563,-0.05756612,0.01249639,-0.0190513
 2,-0.00086845,-0.01103107,-0.00273866,-0.09286009,-0.02535812,-0.07589
 958,0.23225544,0.00474824,-0.00023328,-0.00139303,0.02330499,-0.216879
 93,-0.03712618,-0.00887852,-0.03237664,0.00908991,-0.02465749,-0.11240
 356,-0.04589435,-0.05639117,0.54943502,0.00007592,0.00038482,0.0006450
 4,-0.01664255,-0.02296942,-0.08512263,-0.00446299,0.01871486,0.0071769
 6,-0.07614952,-0.04811224,-0.16412092,0.21966511,-0.03116313,0.4515490
 8,-0.00345492,-0.00267428,0.00435194,-0.26965864,0.06539698,-0.0242783
 1,-0.01874840,0.00694589,-0.00469193,0.00174781,-0.00028736,-0.0006283
 2,-0.00056901,0.00465164,-0.00038521,0.29741166,-0.00475476,-0.0011170
 6,0.00356487,0.07336671,-0.06259182,0.00422175,-0.01568200,0.00629993,
 -0.00340900,-0.00060616,0.00231460,0.00101660,0.02971137,-0.01782778,0
 .00525081,-0.07594296,0.07534246,0.00431556,0.00281794,-0.00204624,-0.
 02389662,0.00271985,-0.05083979,0.02083464,-0.00642437,0.00209141,0.00
 032084,-0.00005370,0.00035017,0.00383819,0.00023527,0.00192344,0.02424
 736,-0.00807508,0.04874193,0.00247867,0.00042341,-0.00135313,-0.073806
 41,-0.01451626,-0.07742508,0.00396795,0.00239440,0.01946328,0.00138404
 ,-0.00036864,-0.00047251,0.00034278,0.00042463,0.00317023,-0.00775128,
 -0.00645094,-0.02803376,0.07439501,0.00110063,0.00023971,-0.00196805,-
 0.01424311,-0.05923430,-0.05282188,0.00594520,0.00319148,0.02007975,0.
 00230200,-0.00533180,0.00019540,-0.01271763,-0.00849924,-0.03140692,0.
 00181111,0.00111204,0.00896450,0.01907009,0.06892382,-0.00035458,-0.00
 103865,0.00354789,-0.07533105,-0.05463902,-0.27711294,-0.00735522,-0.0
 0236545,-0.02442030,0.00086600,-0.00072808,0.00094096,-0.00149563,0.00
 011185,-0.00379237,-0.00056415,0.00026360,-0.00101363,0.08165660,0.055
 49602,0.30186834,-0.03155862,-0.00110424,-0.03440076,0.00646491,0.0024
 8953,0.01825897,-0.06296458,-0.01006483,-0.05981392,-0.00020531,-0.000
 16380,0.00003687,0.00026366,0.00071148,-0.00082407,0.00079558,0.000757
 02,-0.00100892,-0.00157282,-0.00297829,0.00271475,0.08588548,0.0058105
 4,0.00539382,0.00851907,0.00289070,0.00243742,0.01869986,-0.01228021,-
 0.06440049,-0.04492114,-0.00025852,-0.00031098,0.00024716,0.00101031,0
 .00156081,0.00026512,0.00027805,0.00049421,-0.00077801,-0.00186580,-0.
 00139142,0.00285731,0.01311151,0.06088901,-0.00851862,0.00273334,0.004
 12573,-0.00392140,-0.00285556,-0.02159056,-0.06237241,-0.04334105,-0.2
 7146623,-0.00010948,0.00023483,-0.00045692,-0.00058086,-0.00187159,0.0
 0025565,0.00052109,0.00000563,0.00023348,0.00276017,0.00243101,-0.0014
 2139,0.07352187,0.04465063,0.29438053,-0.01624186,0.04253575,0.0056668
 5,0.00140245,-0.01812447,-0.00399638,-0.04749547,0.01429005,0.00198025
 ,0.00007321,-0.00002607,0.00024092,-0.00065076,-0.00137633,0.00307973,
 0.00044049,0.00048693,-0.00062305,0.00048144,0.00084923,-0.00010205,0.
 00246817,-0.00800118,-0.00094612,0.06654627,0.00679165,-0.00646269,-0.
 00013418,-0.00030132,-0.01552600,-0.00356980,0.02575223,-0.30349467,-0
 .05377891,0.00003698,0.00008878,0.00028513,-0.00107826,-0.00037861,0.0
 0255164,-0.00044679,0.00032607,-0.00005278,0.00058820,0.00059353,0.000
 12393,-0.00067307,-0.00433514,-0.00166230,-0.03135827,0.32774648,-0.00
 018935,0.00474099,0.00316386,0.00023551,0.02403044,0.00325071,0.004037
 89,-0.05713149,-0.06396303,-0.00011109,0.00032698,-0.00022985,0.001517
 88,0.00095907,-0.00264377,-0.00050782,-0.00102821,0.00081781,-0.000875
 32,-0.00034337,0.00092268,0.00205529,-0.03019198,-0.00582995,-0.005278
 46,0.05661788,0.06315085,-0.00009319,0.00012240,0.00029957,0.00059053,
 0.00002151,0.00100783,-0.00002541,-0.00014416,-0.00044124,-0.04151529,
 -0.00663378,0.01211750,-0.00264313,0.01117190,-0.01663826,-0.00011897,
 -0.00004893,0.00018707,-0.00011806,0.00022051,0.00013582,-0.00012453,-
 0.00074299,0.00012202,0.00009262,0.00009771,0.00025872,0.04797556,0.00
 031348,-0.00007694,0.00006674,0.00082977,0.00031117,0.00032039,-0.0007
 3834,-0.00000546,-0.00037498,-0.00665231,-0.13856407,0.12068342,0.0008
 9578,0.01073691,-0.00948459,0.00017132,-0.00013953,-0.00006112,0.00009
 846,0.00018799,0.00020203,-0.00064625,-0.00093250,-0.00004601,0.000153
 70,0.00012194,0.00008356,0.01069741,0.14654604,0.00044375,-0.00043960,
 0.00044020,0.00028863,0.00090310,0.00120403,-0.00056448,-0.00002291,-0
 .00090072,0.01292903,0.12369702,-0.21806562,-0.00451752,0.01401779,-0.
 02051154,0.00027384,-0.00051175,-0.00025645,0.00014609,0.00009667,0.00
 020858,-0.00005393,-0.00026487,0.00084560,-0.00001204,-0.00007266,0.00
 034757,-0.00919829,-0.13589036,0.23906256,0.00001994,-0.00014504,0.000
 09091,0.00002930,0.00080899,-0.00014088,0.00006942,-0.00005581,0.00003
 635,-0.27396793,-0.02267760,0.06300254,-0.01658310,-0.00518584,-0.0080
 2713,0.00012852,-0.00089394,-0.00003415,0.00023129,-0.00010585,-0.0000
 5324,-0.00004055,-0.00000275,0.00006972,-0.00002591,-0.00005598,0.0000
 3360,-0.00257329,-0.00013600,0.00159412,0.30469121,0.00010256,-0.00015
 976,-0.00002482,-0.00026828,0.00139192,-0.00013580,0.00002109,-0.00003
 661,0.00024482,-0.02738610,-0.04644965,0.00720844,-0.01272744,-0.00238
 935,-0.00035195,0.00072304,-0.00051001,0.00004821,0.00032108,-0.000050
 88,-0.00005231,-0.00002256,0.00009955,-0.00009851,-0.00004759,-0.00003
 111,-0.00008017,-0.01935715,-0.00247584,0.00531544,0.02993973,0.047097
 90,-0.00001080,-0.00036788,0.00023864,-0.00029773,0.00129486,0.0003116
 6,0.00004288,0.00020321,-0.00052014,0.05104435,0.00466126,-0.05290574,
 -0.02630438,-0.00420186,0.00195675,0.00080298,-0.00037785,0.00012551,0
 .00027082,0.00003080,-0.00004748,0.00007417,-0.00005730,0.00023487,-0.
 00001256,-0.00007900,0.00015154,0.02615612,0.00276944,-0.00674014,-0.0
 5930198,-0.00520360,0.06088367,-0.00008619,0.00007070,0.00002301,-0.00
 122028,-0.00065338,-0.00308779,0.00024463,0.00005717,-0.00009387,-0.07
 957499,0.09165812,0.02285887,0.00502884,-0.01910718,-0.00350648,0.0001
 1149,-0.00013478,-0.00000922,0.00005337,-0.00090869,-0.00028088,0.0000
 0429,0.00004637,0.00003780,-0.00003401,0.00001187,0.00002369,-0.000322
 62,-0.00326321,-0.00118072,-0.01169512,0.02905391,0.00666348,0.0870468
 6,-0.00048560,0.00005659,0.00006502,-0.00086428,0.00085446,-0.00300652
 ,0.00058879,0.00026135,-0.00007189,0.09061412,-0.26827957,-0.05520930,
 0.00281251,-0.01194138,-0.00179835,-0.00003726,0.00029817,0.00021091,-
 0.00010380,-0.00088829,-0.00005106,0.00005121,0.00009121,-0.00010449,-
 0.00002388,-0.00000754,-0.00003914,0.00639035,-0.01532763,-0.00462178,
 -0.00098966,0.00359174,0.00118897,-0.09732424,0.29047238,-0.00001852,-
 0.00011936,0.00023600,-0.00250029,-0.00021202,-0.00319516,0.00007558,-
 0.00000908,-0.00076007,0.02249888,-0.05484271,-0.06316474,0.00888502,-
 0.02404728,-0.00384773,0.00005313,0.00032411,-0.00006533,-0.00014303,-
 0.00125475,-0.00017786,-0.00008545,-0.00007627,0.00035909,-0.00007066,
 -0.00004384,0.00021793,-0.01078480,0.02328912,0.00755859,0.00345769,-0
 .00702171,-0.00226318,-0.02211827,0.06327657,0.06440360,-0.00025208,0.
 00045339,-0.00001198,0.00442601,0.00108763,-0.00082039,-0.00098360,-0.
 00103422,0.00051510,-0.00095815,0.01038388,-0.01095113,-0.06776433,0.0
 7136855,-0.09876890,-0.00086412,0.00037075,0.00029180,0.00000267,-0.00
 018205,0.00009290,0.00008540,0.00005036,-0.00004112,-0.00005220,-0.000
 20666,-0.00010449,-0.00093410,-0.00173231,-0.00023896,-0.00048306,-0.0
 0048418,0.00067971,0.00044089,-0.00072867,0.00062899,0.06759297,-0.001
 08858,0.00082711,-0.00020820,0.01010184,-0.01092612,0.01837381,0.00279
 730,-0.00340201,-0.00151917,-0.00569100,0.01000133,-0.01105210,0.07608
 099,-0.15955625,0.11872611,-0.00022067,-0.00315354,0.00013565,-0.00029
 063,0.00125547,-0.00004036,0.00004611,0.00006122,0.00008130,-0.0008672
 7,-0.00045836,0.00071352,-0.00179519,-0.00045206,-0.00246094,-0.000682
 79,-0.00014508,-0.00004446,0.00057581,0.00093473,0.00070918,-0.0787371
 4,0.16533330,-0.00012916,0.00005063,0.00014535,0.00147792,-0.00743485,
 0.00682623,0.00086576,-0.00020833,-0.00041310,-0.00634757,0.01233866,-
 0.01065771,-0.10339519,0.12098090,-0.18358313,0.00121589,-0.00139945,0
 .00001318,0.00053654,0.00063394,0.00103573,-0.00007583,-0.00021484,0.0
 0024050,-0.00003806,-0.00009477,0.00027751,-0.00286263,-0.00157287,-0.
 00286488,-0.00055542,0.00021775,-0.00113602,0.00072162,0.00029664,0.00
 076492,0.10840924,-0.12379545,0.18974587,-0.04844082,0.02731812,-0.002
 34521,0.00040834,0.00111824,0.00122995,-0.01256906,0.04786378,0.004259
 95,-0.00013966,-0.00029401,-0.00036471,0.00069052,-0.00078489,-0.00058
 587,0.00052980,-0.00017831,-0.00042975,-0.00008866,-0.00016313,0.00007
 073,0.00049891,-0.00004640,-0.00054266,-0.00700444,0.00084171,-0.00109
 606,-0.00019013,0.00000851,0.00009049,0.00019928,0.00013190,0.00019293
 ,0.00000283,0.00010040,0.00012172,-0.00025630,-0.00022877,0.00017690,0
 .06635938,0.07638456,-0.51382180,-0.04535697,-0.00217627,0.00158996,0.
 00011524,0.00154714,-0.00971456,-0.00169554,-0.00016650,-0.00033018,-0
 .00040328,0.00070433,0.00075327,-0.00060679,-0.00036870,-0.00084774,0.
 00031272,0.00027581,-0.00010809,-0.00013980,-0.00151382,0.00034328,-0.
 00015721,0.00150941,0.00181731,0.00134193,0.00000042,0.00006997,0.0002
 5484,0.00018255,0.00006719,0.00018342,-0.00008246,-0.00011622,0.000028
 06,-0.00060934,-0.00031975,0.00020204,-0.07568713,0.52061736,0.0030395
 1,-0.05011663,-0.00933603,0.00017690,-0.00145035,0.00045514,-0.0018119
 3,0.00397338,0.00008807,-0.00028623,-0.00002110,0.00024591,0.00032256,
 0.00030264,0.00011517,-0.00041048,0.00015397,-0.00007549,0.00029909,-0
 .00013312,-0.00053821,-0.00039904,0.00126525,0.00008961,0.00011161,-0.
 00009034,0.00036615,-0.00035944,0.00001522,-0.00032778,-0.00017212,-0.
 00006579,-0.00028993,-0.00005125,-0.00013558,-0.00006605,0.00031923,0.
 00038112,-0.00039444,-0.00077841,0.04592133,0.00966790\\0.00000043,-0.
 00000081,-0.00000144,0.00000061,0.00000044,-0.00000014,0.00000051,-0.0
 0000033,-0.00000093,-0.00000087,0.00000008,0.00000105,-0.00000012,0.00
 000027,0.00000042,0.00000070,0.00000082,0.00000021,0.00000119,0.000000
 77,-0.00000039,-0.00000009,-0.00000064,-0.00000067,0.00000101,-0.00000
 018,-0.00000132,-0.00000107,-0.00000035,0.00000078,-0.00000082,0.00000
 061,0.00000164,-0.00000142,-0.00000018,0.00000133,-0.00000006,0.000000
 44,0.00000057,0.,-0.00000093,-0.00000110\\\@


 "ANNA, YOU MUSN'T SPEAK OF OXIDIZED MURIATIC ACID
 ANYMORE, FROM NOW ON YOU MUST SAY CHLORINE."
   -- JENS JACOB BERZELIUS, IN 1820, TO HIS COOK, WHO HAD
 COMPLAINED OF THE SMELL OF THE FLASK SHE WAS CLEANING.
 Job cpu time:       0 days  1 hours 48 minutes 29.7 seconds.
 Elapsed time:       0 days  0 hours  5 minutes 25.9 seconds.
 File lengths (MBytes):  RWF=   1376 Int=      0 D2E=      0 Chk=     32 Scr=     32
 Normal termination of Gaussian 16 at Tue Apr  9 02:00:51 2019.
