 Entering Gaussian System, Link 0=g16
 Input=DBQZVPSKYUCKNT-UHFFFAOYSA-N_GeoFreq_c1_a1.com
 Output=DBQZVPSKYUCKNT-UHFFFAOYSA-N_GeoFreq_c1_a1.log
 Initial command:
 /shared/centos7/gaussian/g16/l1.exe "/scratch/underkoffler.c/gaussian_scratch/Gau-34351.inp" -scrdir="/scratch/underkoffler.c/gaussian_scratch/"
 Entering Link 1 = /shared/centos7/gaussian/g16/l1.exe PID=     34352.
  
 Copyright (c) 1988,1990,1992,1993,1995,1998,2003,2009,2016,
            Gaussian, Inc.  All Rights Reserved.
  
 This is part of the Gaussian(R) 16 program.  It is based on
 the Gaussian(R) 09 system (copyright 2009, Gaussian, Inc.),
 the Gaussian(R) 03 system (copyright 2003, Gaussian, Inc.),
 the Gaussian(R) 98 system (copyright 1998, Gaussian, Inc.),
 the Gaussian(R) 94 system (copyright 1995, Gaussian, Inc.),
 the Gaussian 92(TM) system (copyright 1992, Gaussian, Inc.),
 the Gaussian 90(TM) system (copyright 1990, Gaussian, Inc.),
 the Gaussian 88(TM) system (copyright 1988, Gaussian, Inc.),
 the Gaussian 86(TM) system (copyright 1986, Carnegie Mellon
 University), and the Gaussian 82(TM) system (copyright 1983,
 Carnegie Mellon University). Gaussian is a federally registered
 trademark of Gaussian, Inc.
  
 This software contains proprietary and confidential information,
 including trade secrets, belonging to Gaussian, Inc.
  
 This software is provided under written license and may be
 used, copied, transmitted, or stored only in accord with that
 written license.
  
 The following legend is applicable only to US Government
 contracts under FAR:
  
                    RESTRICTED RIGHTS LEGEND
  
 Use, reproduction and disclosure by the US Government is
 subject to restrictions as set forth in subparagraphs (a)
 and (c) of the Commercial Computer Software - Restricted
 Rights clause in FAR 52.227-19.
  
 Gaussian, Inc.
 340 Quinnipiac St., Bldg. 40, Wallingford CT 06492
  
  
 ---------------------------------------------------------------
 Warning -- This program may not be used in any manner that
 competes with the business of Gaussian, Inc. or will provide
 assistance to any competitor of Gaussian, Inc.  The licensee
 of this program is prohibited from giving any competitor of
 Gaussian, Inc. access to this program.  By using this program,
 the user acknowledges that Gaussian, Inc. is engaged in the
 business of creating and licensing software in the field of
 computational chemistry and represents and warrants to the
 licensee that it is not a competitor of Gaussian, Inc. and that
 it will not use this program in any manner prohibited above.
 ---------------------------------------------------------------
  

 Cite this work as:
 Gaussian 16, Revision A.03,
 M. J. Frisch, G. W. Trucks, H. B. Schlegel, G. E. Scuseria, 
 M. A. Robb, J. R. Cheeseman, G. Scalmani, V. Barone, 
 G. A. Petersson, H. Nakatsuji, X. Li, M. Caricato, A. V. Marenich, 
 J. Bloino, B. G. Janesko, R. Gomperts, B. Mennucci, H. P. Hratchian, 
 J. V. Ortiz, A. F. Izmaylov, J. L. Sonnenberg, D. Williams-Young, 
 F. Ding, F. Lipparini, F. Egidi, J. Goings, B. Peng, A. Petrone, 
 T. Henderson, D. Ranasinghe, V. G. Zakrzewski, J. Gao, N. Rega, 
 G. Zheng, W. Liang, M. Hada, M. Ehara, K. Toyota, R. Fukuda, 
 J. Hasegawa, M. Ishida, T. Nakajima, Y. Honda, O. Kitao, H. Nakai, 
 T. Vreven, K. Throssell, J. A. Montgomery, Jr., J. E. Peralta, 
 F. Ogliaro, M. J. Bearpark, J. J. Heyd, E. N. Brothers, K. N. Kudin, 
 V. N. Staroverov, T. A. Keith, R. Kobayashi, J. Normand, 
 K. Raghavachari, A. P. Rendell, J. C. Burant, S. S. Iyengar, 
 J. Tomasi, M. Cossi, J. M. Millam, M. Klene, C. Adamo, R. Cammi, 
 J. W. Ochterski, R. L. Martin, K. Morokuma, O. Farkas, 
 J. B. Foresman, and D. J. Fox, Gaussian, Inc., Wallingford CT, 2016.
 
 ******************************************
 Gaussian 16:  EM64L-G16RevA.03 25-Dec-2016
                 9-Apr-2019 
 ******************************************
 %nprocshared=20
 Will use up to   20 processors via shared memory.
 %mem=5GB
 ----------------------------------------------------------------------
 #p m062x/6-311+g(2df,2p) opt=(calcfc,verytight,gdiis,maxcycles=900) fr
 eq iop(7/33=1,2/16=3)
 ----------------------------------------------------------------------

 Warning!  Use of Opt=GDIIS is deprecated since it is seldom a good choice.

 1/6=900,7=1,10=4,18=20,19=11,26=3,38=1/1,3;
 2/9=110,12=2,16=3,17=6,18=5,40=1/2;
 3/5=4,6=6,7=214,11=2,25=1,30=1,71=2,74=-55,140=1/1,2,3;
 4//1;
 5/5=2,38=5/2;
 8/6=4,10=90,11=11/1;
 11/6=1,8=1,9=11,15=111,16=1/1,2,10;
 10/6=1,13=1/2;
 6/7=2,8=2,9=2,10=2,28=1/1;
 7/10=1,18=20,25=1,33=1/1,2,3,16;
 1/6=900,7=1,10=4,18=20,19=11,26=3/3(2);
 2/9=110,16=3/2;
 99//99;
 2/9=110,16=3/2;
 3/5=4,6=6,7=214,11=2,25=1,30=1,71=1,74=-55/1,2,3;
 4/5=5,16=3,69=1/1;
 5/5=2,38=5/2;
 7/33=1/1,2,3,16;
 1/6=900,7=1,18=20,19=11,26=3/3(-5);
 2/9=110,16=3/2;
 6/7=2,8=2,9=2,10=2,19=2,28=1/1;
 99/9=1/99;
 Leave Link    1 at Tue Apr  9 01:13:16 2019, MaxMem=   671088640 cpu:              26.8 elap:               1.4
 (Enter /shared/centos7/gaussian/g16/l101.exe)
 ------------------------------
 Gaussian input prepared by ASE
 ------------------------------
 Symbolic Z-matrix:
 Charge =  0 Multiplicity = 2
 O                     1.25044  -1.06011   0.52007 
 C                     2.59638   0.40833  -0.85218 
 C                     1.23284  -0.07121  -0.44601 
 C                     3.91254   0.18273   1.43333 
 C                     3.39288   1.03219   0.27779 
 H                     3.15677  -0.44443  -1.27694 
 H                     2.47399   1.15759  -1.65545 
 H                     0.71588  -0.48558  -1.33787 
 H                     0.62002   0.79998  -0.10182 
 H                     3.08819  -0.12596   2.09739 
 H                     4.40919  -0.74622   1.07348 
 H                     4.63608   0.76457   2.04143 
 H                     3.18923   2.08653   0.50679 
 H                     1.95048  -0.82375   1.17448 
 
 ITRead=  0  0  0  0  0  0  0  0  0  0  0  0  0  0
 MicOpt= -1 -1 -1 -1 -1 -1 -1 -1 -1 -1 -1 -1 -1 -1
 NAtoms=     14 NQM=       14 NQMF=       0 NMMI=      0 NMMIF=      0
                NMic=       0 NMicF=      0.
                    Isotopes and Nuclear Properties:
 (Nuclear quadrupole moments (NQMom) in fm**2, nuclear magnetic moments (NMagM)
  in nuclear magnetons)

  Atom         1           2           3           4           5           6           7           8           9          10
 IAtWgt=          16          12          12          12          12           1           1           1           1           1
 AtmWgt=  15.9949146  12.0000000  12.0000000  12.0000000  12.0000000   1.0078250   1.0078250   1.0078250   1.0078250   1.0078250
 NucSpn=           0           0           0           0           0           1           1           1           1           1
 AtZEff=  -0.0000000  -0.0000000  -0.0000000  -0.0000000  -0.0000000  -0.0000000  -0.0000000  -0.0000000  -0.0000000  -0.0000000
 NQMom=    0.0000000   0.0000000   0.0000000   0.0000000   0.0000000   0.0000000   0.0000000   0.0000000   0.0000000   0.0000000
 NMagM=    0.0000000   0.0000000   0.0000000   0.0000000   0.0000000   2.7928460   2.7928460   2.7928460   2.7928460   2.7928460
 AtZNuc=   8.0000000   6.0000000   6.0000000   6.0000000   6.0000000   1.0000000   1.0000000   1.0000000   1.0000000   1.0000000

  Atom        11          12          13          14
 IAtWgt=           1           1           1           1
 AtmWgt=   1.0078250   1.0078250   1.0078250   1.0078250
 NucSpn=           1           1           1           1
 AtZEff=  -0.0000000  -0.0000000  -0.0000000  -0.0000000
 NQMom=    0.0000000   0.0000000   0.0000000   0.0000000
 NMagM=    2.7928460   2.7928460   2.7928460   2.7928460
 AtZNuc=   1.0000000   1.0000000   1.0000000   1.0000000
 Leave Link  101 at Tue Apr  9 01:13:16 2019, MaxMem=   671088640 cpu:               8.5 elap:               0.4
 (Enter /shared/centos7/gaussian/g16/l103.exe)

 GradGradGradGradGradGradGradGradGradGradGradGradGradGradGradGradGradGrad
 Berny optimization.
 Initialization pass.
                           ----------------------------
                           !    Initial Parameters    !
                           ! (Angstroms and Degrees)  !
 --------------------------                            --------------------------
 ! Name  Definition              Value          Derivative Info.                !
 --------------------------------------------------------------------------------
 ! R1    R(1,3)                  1.3826         calculate D2E/DX2 analytically  !
 ! R2    R(1,14)                 0.987          calculate D2E/DX2 analytically  !
 ! R3    R(2,3)                  1.5014         calculate D2E/DX2 analytically  !
 ! R4    R(2,5)                  1.5167         calculate D2E/DX2 analytically  !
 ! R5    R(2,6)                  1.1053         calculate D2E/DX2 analytically  !
 ! R6    R(2,7)                  1.1053         calculate D2E/DX2 analytically  !
 ! R7    R(3,8)                  1.111          calculate D2E/DX2 analytically  !
 ! R8    R(3,9)                  1.1194         calculate D2E/DX2 analytically  !
 ! R9    R(4,5)                  1.5254         calculate D2E/DX2 analytically  !
 ! R10   R(4,10)                 1.1026         calculate D2E/DX2 analytically  !
 ! R11   R(4,11)                 1.1131         calculate D2E/DX2 analytically  !
 ! R12   R(4,12)                 1.1099         calculate D2E/DX2 analytically  !
 ! R13   R(5,13)                 1.098          calculate D2E/DX2 analytically  !
 ! A1    A(3,1,14)             107.5195         calculate D2E/DX2 analytically  !
 ! A2    A(3,2,5)              114.001          calculate D2E/DX2 analytically  !
 ! A3    A(3,2,6)              108.5422         calculate D2E/DX2 analytically  !
 ! A4    A(3,2,7)              108.2142         calculate D2E/DX2 analytically  !
 ! A5    A(5,2,6)              109.7184         calculate D2E/DX2 analytically  !
 ! A6    A(5,2,7)              108.709          calculate D2E/DX2 analytically  !
 ! A7    A(6,2,7)              107.4493         calculate D2E/DX2 analytically  !
 ! A8    A(1,3,2)              113.949          calculate D2E/DX2 analytically  !
 ! A9    A(1,3,8)              107.4618         calculate D2E/DX2 analytically  !
 ! A10   A(1,3,9)              110.4133         calculate D2E/DX2 analytically  !
 ! A11   A(2,3,8)              108.9373         calculate D2E/DX2 analytically  !
 ! A12   A(2,3,9)              109.3785         calculate D2E/DX2 analytically  !
 ! A13   A(8,3,9)              106.4015         calculate D2E/DX2 analytically  !
 ! A14   A(5,4,10)             110.9424         calculate D2E/DX2 analytically  !
 ! A15   A(5,4,11)             111.8292         calculate D2E/DX2 analytically  !
 ! A16   A(5,4,12)             110.1936         calculate D2E/DX2 analytically  !
 ! A17   A(10,4,11)            107.1344         calculate D2E/DX2 analytically  !
 ! A18   A(10,4,12)            107.7079         calculate D2E/DX2 analytically  !
 ! A19   A(11,4,12)            108.8897         calculate D2E/DX2 analytically  !
 ! A20   A(2,5,4)              120.9444         calculate D2E/DX2 analytically  !
 ! A21   A(2,5,13)             116.9336         calculate D2E/DX2 analytically  !
 ! A22   A(4,5,13)             116.0999         calculate D2E/DX2 analytically  !
 ! D1    D(14,1,3,2)            40.4246         calculate D2E/DX2 analytically  !
 ! D2    D(14,1,3,8)           161.2203         calculate D2E/DX2 analytically  !
 ! D3    D(14,1,3,9)           -83.1273         calculate D2E/DX2 analytically  !
 ! D4    D(5,2,3,1)            -61.5162         calculate D2E/DX2 analytically  !
 ! D5    D(5,2,3,8)            178.5156         calculate D2E/DX2 analytically  !
 ! D6    D(5,2,3,9)             62.5945         calculate D2E/DX2 analytically  !
 ! D7    D(6,2,3,1)             61.0923         calculate D2E/DX2 analytically  !
 ! D8    D(6,2,3,8)            -58.8759         calculate D2E/DX2 analytically  !
 ! D9    D(6,2,3,9)           -174.797          calculate D2E/DX2 analytically  !
 ! D10   D(7,2,3,1)            177.4092         calculate D2E/DX2 analytically  !
 ! D11   D(7,2,3,8)             57.441          calculate D2E/DX2 analytically  !
 ! D12   D(7,2,3,9)            -58.4801         calculate D2E/DX2 analytically  !
 ! D13   D(3,2,5,4)             68.8608         calculate D2E/DX2 analytically  !
 ! D14   D(3,2,5,13)           -82.7768         calculate D2E/DX2 analytically  !
 ! D15   D(6,2,5,4)            -53.102          calculate D2E/DX2 analytically  !
 ! D16   D(6,2,5,13)           155.2603         calculate D2E/DX2 analytically  !
 ! D17   D(7,2,5,4)           -170.3402         calculate D2E/DX2 analytically  !
 ! D18   D(7,2,5,13)            38.0221         calculate D2E/DX2 analytically  !
 ! D19   D(10,4,5,2)           -72.3501         calculate D2E/DX2 analytically  !
 ! D20   D(10,4,5,13)           79.511          calculate D2E/DX2 analytically  !
 ! D21   D(11,4,5,2)            47.1956         calculate D2E/DX2 analytically  !
 ! D22   D(11,4,5,13)         -160.9432         calculate D2E/DX2 analytically  !
 ! D23   D(12,4,5,2)           168.4557         calculate D2E/DX2 analytically  !
 ! D24   D(12,4,5,13)          -39.6831         calculate D2E/DX2 analytically  !
 --------------------------------------------------------------------------------
 Trust Radius=3.00D-01 FncErr=1.00D-07 GrdErr=1.00D-06 EigMax=2.50D+02 EigMin=1.00D-04
 Number of steps in this run=    100 maximum allowed number of steps=    100.
 GradGradGradGradGradGradGradGradGradGradGradGradGradGradGradGradGradGrad

 Leave Link  103 at Tue Apr  9 01:13:16 2019, MaxMem=   671088640 cpu:               0.2 elap:               0.0
 (Enter /shared/centos7/gaussian/g16/l202.exe)
                          Input orientation:                          
 ---------------------------------------------------------------------
 Center     Atomic      Atomic             Coordinates (Angstroms)
 Number     Number       Type             X           Y           Z
 ---------------------------------------------------------------------
      1          8           0        1.250442   -1.060110    0.520070
      2          6           0        2.596378    0.408330   -0.852180
      3          6           0        1.232842   -0.071207   -0.446005
      4          6           0        3.912539    0.182727    1.433326
      5          6           0        3.392877    1.032191    0.277794
      6          1           0        3.156773   -0.444429   -1.276944
      7          1           0        2.473992    1.157592   -1.655452
      8          1           0        0.715884   -0.485579   -1.337868
      9          1           0        0.620024    0.799978   -0.101819
     10          1           0        3.088192   -0.125965    2.097392
     11          1           0        4.409189   -0.746224    1.073483
     12          1           0        4.636079    0.764569    2.041429
     13          1           0        3.189234    2.086529    0.506790
     14          1           0        1.950484   -0.823749    1.174480
 ---------------------------------------------------------------------
                    Distance matrix (angstroms):
                    1          2          3          4          5
     1  O    0.000000
     2  C    2.418870   0.000000
     3  C    1.382585   1.501387   0.000000
     4  C    3.076595   2.647020   3.282856   0.000000
     5  C    3.004405   1.516725   2.531230   1.525415   0.000000
     6  H    2.691174   1.105289   2.128676   2.882719   2.157165
     7  H    3.338888   1.105268   2.124420   3.544055   2.144182
     8  H    2.016872   2.138042   1.111021   4.283077   3.475670
     9  H    2.060121   2.149978   1.119363   3.684877   2.808335
    10  H    2.595746   3.037651   3.148681   1.102643   2.178324
    11  H    3.222184   2.885733   3.585202   1.113148   2.197446
    12  H    4.136003   3.558125   4.297426   1.109882   2.174299
    13  H    3.696002   2.239337   3.064492   2.237432   1.097970
    14  H    0.987004   2.458160   1.925436   2.220283   2.515762
                    6          7          8          9         10
     6  H    0.000000
     7  H    1.782114   0.000000
     8  H    2.441995   2.427306   0.000000
     9  H    3.060157   2.445171   1.785962   0.000000
    10  H    3.390024   4.013552   4.190248   3.433038   0.000000
    11  H    2.680323   3.849232   4.418489   4.257915   1.782735
    12  H    3.829049   4.300699   5.324513   4.552302   1.786655
    13  H    3.096532   2.459631   4.016959   2.937083   2.726784
    14  H    2.758350   3.494036   2.819661   2.456735   1.622668
                   11         12         13         14
    11  H    0.000000
    12  H    1.808562   0.000000
    13  H    3.135908   2.489187   0.000000
    14  H    2.461999   3.238329   3.232651   0.000000
 Stoichiometry    C4H9O(2)
 Framework group  C1[X(C4H9O)]
 Deg. of freedom    36
 Full point group                 C1      NOp   1
 Largest Abelian subgroup         C1      NOp   1
 Largest concise Abelian subgroup C1      NOp   1
                         Standard orientation:                         
 ---------------------------------------------------------------------
 Center     Atomic      Atomic             Coordinates (Angstroms)
 Number     Number       Type             X           Y           Z
 ---------------------------------------------------------------------
      1          8           0        1.244257   -1.138993    0.044337
      2          6           0        0.257179    1.048302    0.348221
      3          6           0        1.378205    0.214848   -0.202067
      4          6           0       -1.786648   -0.611723    0.076552
      5          6           0       -1.102761    0.715680   -0.235201
      6          1           0        0.232597    0.923490    1.446166
      7          1           0        0.482013    2.110306    0.140336
      8          1           0        2.333230    0.544891    0.259850
      9          1           0        1.476705    0.403813   -1.300958
     10          1           0       -1.286577   -1.444726   -0.444846
     11          1           0       -1.762404   -0.844269    1.164869
     12          1           0       -2.843291   -0.587164   -0.262182
     13          1           0       -1.355679    1.174457   -1.200134
     14          1           0        0.293496   -1.371497   -0.082828
 ---------------------------------------------------------------------
 Rotational constants (GHZ):           7.5942866           3.7637796           2.7858006
 Leave Link  202 at Tue Apr  9 01:13:16 2019, MaxMem=   671088640 cpu:               0.2 elap:               0.0
 (Enter /shared/centos7/gaussian/g16/l301.exe)
 Standard basis: 6-311+G(2df,2p) (5D, 7F)
 Ernie: Thresh=  0.10000D-02 Tol=  0.10000D-05 Strict=F.
 There are   276 symmetry adapted cartesian basis functions of A   symmetry.
 There are   251 symmetry adapted basis functions of A   symmetry.
   251 basis functions,   359 primitive gaussians,   276 cartesian basis functions
    21 alpha electrons       20 beta electrons
       nuclear repulsion energy       184.0673139496 Hartrees.
 IExCor= 4336 DFT=T Ex+Corr=M062X ExCW=0 ScaHFX=  0.540000
 ScaDFX=  1.000000  1.000000  1.000000  1.000000 ScalE2=  1.000000  1.000000
 IRadAn=      5 IRanWt=     -1 IRanGd=            0 ICorTp=0 IEmpDi=  4
 NAtoms=   14 NActive=   14 NUniq=   14 SFac= 1.00D+00 NAtFMM=   60 NAOKFM=F Big=F
 Integral buffers will be    131072 words long.
 Raffenetti 2 integral format.
 Two-electron integral symmetry is turned on.
 Leave Link  301 at Tue Apr  9 01:13:16 2019, MaxMem=   671088640 cpu:               1.1 elap:               0.1
 (Enter /shared/centos7/gaussian/g16/l302.exe)
 NPDir=0 NMtPBC=     1 NCelOv=     1 NCel=       1 NClECP=     1 NCelD=      1
         NCelK=      1 NCelE2=     1 NClLst=     1 CellRange=     0.0.
 One-electron integrals computed using PRISM.
 One-electron integral symmetry used in STVInt
 NBasis=   251 RedAO= T EigKep=  5.97D-05  NBF=   251
 NBsUse=   251 1.00D-06 EigRej= -1.00D+00 NBFU=   251
 Precomputing XC quadrature grid using
 IXCGrd= 4 IRadAn=           5 IRanWt=          -1 IRanGd=           0 AccXCQ= 0.00D+00.
 Generated NRdTot=       0 NPtTot=           0 NUsed=           0 NTot=          32
 NSgBfM=   276   276   276   276   276 MxSgAt=    14 MxSgA2=    14.
 Leave Link  302 at Tue Apr  9 01:13:17 2019, MaxMem=   671088640 cpu:               5.1 elap:               0.3
 (Enter /shared/centos7/gaussian/g16/l303.exe)
 DipDrv:  MaxL=1.
 Leave Link  303 at Tue Apr  9 01:13:17 2019, MaxMem=   671088640 cpu:               0.8 elap:               0.1
 (Enter /shared/centos7/gaussian/g16/l401.exe)
 ExpMin= 4.38D-02 ExpMax= 8.59D+03 ExpMxC= 1.30D+03 IAcc=3 IRadAn=         5 AccDes= 0.00D+00
 Harris functional with IExCor= 1009 and IRadAn=       5 diagonalized for initial guess.
 HarFok:  IExCor= 1009 AccDes= 0.00D+00 IRadAn=         5 IDoV= 1 UseB2=F ITyADJ=14
 ICtDFT=  3500011 ScaDFX=  1.000000  1.000000  1.000000  1.000000
 FoFCou: FMM=F IPFlag=           0 FMFlag=      100000 FMFlg1=           0
         NFxFlg=           0 DoJE=T BraDBF=F KetDBF=T FulRan=T
         wScrn=  0.000000 ICntrl=       500 IOpCl=  0 I1Cent=   200000004 NGrid=           0
         NMat0=    1 NMatS0=      1 NMatT0=    0 NMatD0=    1 NMtDS0=    0 NMtDT0=    0
 Petite list used in FoFCou.
 Harris En= -232.877538971090    
 JPrj=0 DoOrth=F DoCkMO=F.
 Initial guess <Sx>= 0.0000 <Sy>= 0.0000 <Sz>= 0.5000 <S**2>= 0.7500 S= 0.5000
 Leave Link  401 at Tue Apr  9 01:13:18 2019, MaxMem=   671088640 cpu:              20.9 elap:               1.1
 (Enter /shared/centos7/gaussian/g16/l502.exe)
 Integral symmetry usage will be decided dynamically.
 UHF open shell SCF:
 Using DIIS extrapolation, IDIIS=  1040.
 NGot=   671088640 LenX=   670928170 LenY=   670851553
 Requested convergence on RMS density matrix=1.00D-08 within 128 cycles.
 Requested convergence on MAX density matrix=1.00D-06.
 Requested convergence on             energy=1.00D-06.
 No special actions if energy rises.
 Fock matrices will be formed incrementally for  20 cycles.

 Cycle   1  Pass 1  IDiag  1:
 FoFJK:  IHMeth= 1 ICntrl=       0 DoSepK=F KAlg= 0 I1Cent=           0 FoldK=F
 IRaf= 990000000 NMat=       1 IRICut=       1 DoRegI=T DoRafI=F ISym2E= 0 IDoP0=0 IntGTp=1.
 FoFCou: FMM=F IPFlag=           0 FMFlag=      100000 FMFlg1=           0
         NFxFlg=           0 DoJE=F BraDBF=F KetDBF=F FulRan=T
         wScrn=  0.000000 ICntrl=         0 IOpCl=  1 I1Cent=           0 NGrid=           0
         NMat0=    1 NMatS0=      1 NMatT0=    0 NMatD0=    1 NMtDS0=    0 NMtDT0=    0
 Symmetry not used in FoFCou.
 E= -232.777331995642    
 DIIS: error= 1.99D-02 at cycle   1 NSaved=   1.
 NSaved= 1 IEnMin= 1 EnMin= -232.777331995642     IErMin= 1 ErrMin= 1.99D-02
 ErrMax= 1.99D-02  0.00D+00 EMaxC= 1.00D-01 BMatC= 8.81D-01 BMatP= 8.81D-01
 IDIUse=3 WtCom= 8.01D-01 WtEn= 1.99D-01
 Coeff-Com:  0.100D+01
 Coeff-En:   0.100D+01
 Coeff:      0.100D+01
 Gap=     0.250 Goal=   None    Shift=    0.000
 Gap=     0.308 Goal=   None    Shift=    0.000
 GapD=    0.250 DampG=1.000 DampE=0.500 DampFc=0.5000 IDamp=-1.
 Damping current iteration by 5.00D-01
 RMSDP=3.67D-03 MaxDP=2.47D-01              OVMax= 1.38D-01

 Cycle   2  Pass 1  IDiag  1:
 RMSU=  1.83D-03    CP:  9.90D-01
 E= -232.868337092270     Delta-E=       -0.091005096629 Rises=F Damp=T
 DIIS: error= 7.52D-03 at cycle   2 NSaved=   2.
 NSaved= 2 IEnMin= 2 EnMin= -232.868337092270     IErMin= 2 ErrMin= 7.52D-03
 ErrMax= 7.52D-03  0.00D+00 EMaxC= 1.00D-01 BMatC= 5.70D-02 BMatP= 8.81D-01
 IDIUse=3 WtCom= 9.25D-01 WtEn= 7.52D-02
 Coeff-Com: -0.829D-01 0.108D+01
 Coeff-En:   0.000D+00 0.100D+01
 Coeff:     -0.767D-01 0.108D+01
 Gap=     0.275 Goal=   None    Shift=    0.000
 Gap=     0.356 Goal=   None    Shift=    0.000
 RMSDP=1.20D-03 MaxDP=1.04D-01 DE=-9.10D-02 OVMax= 8.09D-02

 Cycle   3  Pass 1  IDiag  1:
 RMSU=  1.15D-03    CP:  9.79D-01  8.16D-01
 E= -232.956479765735     Delta-E=       -0.088142673465 Rises=F Damp=F
 DIIS: error= 2.62D-03 at cycle   3 NSaved=   3.
 NSaved= 3 IEnMin= 3 EnMin= -232.956479765735     IErMin= 3 ErrMin= 2.62D-03
 ErrMax= 2.62D-03  0.00D+00 EMaxC= 1.00D-01 BMatC= 1.30D-02 BMatP= 5.70D-02
 IDIUse=3 WtCom= 9.74D-01 WtEn= 2.62D-02
 Coeff-Com: -0.759D-01 0.317D+00 0.759D+00
 Coeff-En:   0.000D+00 0.000D+00 0.100D+01
 Coeff:     -0.739D-01 0.309D+00 0.765D+00
 Gap=     0.275 Goal=   None    Shift=    0.000
 Gap=     0.310 Goal=   None    Shift=    0.000
 RMSDP=2.64D-04 MaxDP=1.93D-02 DE=-8.81D-02 OVMax= 1.47D-02

 Cycle   4  Pass 1  IDiag  1:
 RMSU=  2.17D-04    CP:  9.79D-01  8.98D-01  1.01D+00
 E= -232.958485772397     Delta-E=       -0.002006006662 Rises=F Damp=F
 DIIS: error= 1.11D-03 at cycle   4 NSaved=   4.
 NSaved= 4 IEnMin= 4 EnMin= -232.958485772397     IErMin= 4 ErrMin= 1.11D-03
 ErrMax= 1.11D-03  0.00D+00 EMaxC= 1.00D-01 BMatC= 2.67D-03 BMatP= 1.30D-02
 IDIUse=3 WtCom= 9.89D-01 WtEn= 1.11D-02
 Coeff-Com: -0.266D-01 0.621D-01 0.349D+00 0.616D+00
 Coeff-En:   0.000D+00 0.000D+00 0.227D-01 0.977D+00
 Coeff:     -0.263D-01 0.614D-01 0.345D+00 0.620D+00
 Gap=     0.272 Goal=   None    Shift=    0.000
 Gap=     0.317 Goal=   None    Shift=    0.000
 RMSDP=1.10D-04 MaxDP=6.82D-03 DE=-2.01D-03 OVMax= 5.23D-03

 Cycle   5  Pass 1  IDiag  1:
 RMSU=  7.69D-05    CP:  9.77D-01  8.71D-01  1.04D+00  7.91D-01
 E= -232.959021461891     Delta-E=       -0.000535689494 Rises=F Damp=F
 DIIS: error= 3.14D-04 at cycle   5 NSaved=   5.
 NSaved= 5 IEnMin= 5 EnMin= -232.959021461891     IErMin= 5 ErrMin= 3.14D-04
 ErrMax= 3.14D-04  0.00D+00 EMaxC= 1.00D-01 BMatC= 1.48D-04 BMatP= 2.67D-03
 IDIUse=3 WtCom= 9.97D-01 WtEn= 3.14D-03
 Coeff-Com: -0.168D-02-0.732D-02 0.369D-01 0.190D+00 0.782D+00
 Coeff-En:   0.000D+00 0.000D+00 0.000D+00 0.000D+00 0.100D+01
 Coeff:     -0.168D-02-0.730D-02 0.368D-01 0.189D+00 0.783D+00
 Gap=     0.274 Goal=   None    Shift=    0.000
 Gap=     0.317 Goal=   None    Shift=    0.000
 RMSDP=4.64D-05 MaxDP=3.71D-03 DE=-5.36D-04 OVMax= 2.17D-03

 Cycle   6  Pass 1  IDiag  1:
 RMSU=  3.48D-05    CP:  9.78D-01  8.74D-01  1.06D+00  8.89D-01  9.28D-01
 E= -232.959070977289     Delta-E=       -0.000049515398 Rises=F Damp=F
 DIIS: error= 1.32D-04 at cycle   6 NSaved=   6.
 NSaved= 6 IEnMin= 6 EnMin= -232.959070977289     IErMin= 6 ErrMin= 1.32D-04
 ErrMax= 1.32D-04  0.00D+00 EMaxC= 1.00D-01 BMatC= 1.69D-05 BMatP= 1.48D-04
 IDIUse=3 WtCom= 9.99D-01 WtEn= 1.32D-03
 Coeff-Com:  0.473D-02-0.115D-01-0.624D-01-0.104D+00 0.313D-01 0.114D+01
 Coeff-En:   0.000D+00 0.000D+00 0.000D+00 0.000D+00 0.000D+00 0.100D+01
 Coeff:      0.472D-02-0.114D-01-0.623D-01-0.104D+00 0.312D-01 0.114D+01
 Gap=     0.275 Goal=   None    Shift=    0.000
 Gap=     0.317 Goal=   None    Shift=    0.000
 RMSDP=2.26D-05 MaxDP=1.07D-03 DE=-4.95D-05 OVMax= 1.67D-03

 Cycle   7  Pass 1  IDiag  1:
 RMSU=  1.26D-05    CP:  9.78D-01  8.72D-01  1.06D+00  9.31D-01  1.12D+00
                    CP:  1.15D+00
 E= -232.959082232954     Delta-E=       -0.000011255665 Rises=F Damp=F
 DIIS: error= 4.51D-05 at cycle   7 NSaved=   7.
 NSaved= 7 IEnMin= 7 EnMin= -232.959082232954     IErMin= 7 ErrMin= 4.51D-05
 ErrMax= 4.51D-05  0.00D+00 EMaxC= 1.00D-01 BMatC= 2.01D-06 BMatP= 1.69D-05
 IDIUse=1 WtCom= 1.00D+00 WtEn= 0.00D+00
 Coeff-Com:  0.123D-02-0.212D-02-0.194D-01-0.474D-01-0.700D-01 0.308D+00
 Coeff-Com:  0.830D+00
 Coeff:      0.123D-02-0.212D-02-0.194D-01-0.474D-01-0.700D-01 0.308D+00
 Coeff:      0.830D+00
 Gap=     0.275 Goal=   None    Shift=    0.000
 Gap=     0.317 Goal=   None    Shift=    0.000
 RMSDP=4.77D-06 MaxDP=2.19D-04 DE=-1.13D-05 OVMax= 4.10D-04

 Cycle   8  Pass 1  IDiag  1:
 RMSU=  3.32D-06    CP:  9.78D-01  8.71D-01  1.06D+00  9.33D-01  1.13D+00
                    CP:  1.21D+00  1.19D+00
 E= -232.959083063467     Delta-E=       -0.000000830513 Rises=F Damp=F
 DIIS: error= 1.38D-05 at cycle   8 NSaved=   8.
 NSaved= 8 IEnMin= 8 EnMin= -232.959083063467     IErMin= 8 ErrMin= 1.38D-05
 ErrMax= 1.38D-05  0.00D+00 EMaxC= 1.00D-01 BMatC= 2.82D-07 BMatP= 2.01D-06
 IDIUse=1 WtCom= 1.00D+00 WtEn= 0.00D+00
 Coeff-Com: -0.203D-03 0.668D-03 0.121D-02-0.261D-02-0.217D-01-0.390D-01
 Coeff-Com:  0.254D+00 0.807D+00
 Coeff:     -0.203D-03 0.668D-03 0.121D-02-0.261D-02-0.217D-01-0.390D-01
 Coeff:      0.254D+00 0.807D+00
 Gap=     0.275 Goal=   None    Shift=    0.000
 Gap=     0.317 Goal=   None    Shift=    0.000
 RMSDP=2.28D-06 MaxDP=1.04D-04 DE=-8.31D-07 OVMax= 1.16D-04

 Cycle   9  Pass 1  IDiag  1:
 RMSU=  1.24D-06    CP:  9.78D-01  8.72D-01  1.06D+00  9.32D-01  1.12D+00
                    CP:  1.21D+00  1.31D+00  1.11D+00
 E= -232.959083161630     Delta-E=       -0.000000098162 Rises=F Damp=F
 DIIS: error= 3.88D-06 at cycle   9 NSaved=   9.
 NSaved= 9 IEnMin= 9 EnMin= -232.959083161630     IErMin= 9 ErrMin= 3.88D-06
 ErrMax= 3.88D-06  0.00D+00 EMaxC= 1.00D-01 BMatC= 2.27D-08 BMatP= 2.82D-07
 IDIUse=1 WtCom= 1.00D+00 WtEn= 0.00D+00
 Coeff-Com: -0.225D-03 0.467D-03 0.299D-02 0.612D-02 0.610D-02-0.530D-01
 Coeff-Com: -0.629D-01 0.151D+00 0.949D+00
 Coeff:     -0.225D-03 0.467D-03 0.299D-02 0.612D-02 0.610D-02-0.530D-01
 Coeff:     -0.629D-01 0.151D+00 0.949D+00
 Gap=     0.275 Goal=   None    Shift=    0.000
 Gap=     0.317 Goal=   None    Shift=    0.000
 RMSDP=1.00D-06 MaxDP=5.39D-05 DE=-9.82D-08 OVMax= 5.30D-05

 Cycle  10  Pass 1  IDiag  1:
 RMSU=  4.46D-07    CP:  9.78D-01  8.72D-01  1.06D+00  9.32D-01  1.12D+00
                    CP:  1.21D+00  1.34D+00  1.24D+00  1.13D+00
 E= -232.959083172270     Delta-E=       -0.000000010640 Rises=F Damp=F
 DIIS: error= 1.31D-06 at cycle  10 NSaved=  10.
 NSaved=10 IEnMin=10 EnMin= -232.959083172270     IErMin=10 ErrMin= 1.31D-06
 ErrMax= 1.31D-06  0.00D+00 EMaxC= 1.00D-01 BMatC= 1.29D-09 BMatP= 2.27D-08
 IDIUse=1 WtCom= 1.00D+00 WtEn= 0.00D+00
 Coeff-Com:  0.948D-06-0.909D-05 0.171D-03 0.661D-03 0.174D-02-0.253D-02
 Coeff-Com: -0.205D-01-0.331D-01 0.994D-01 0.954D+00
 Coeff:      0.948D-06-0.909D-05 0.171D-03 0.661D-03 0.174D-02-0.253D-02
 Coeff:     -0.205D-01-0.331D-01 0.994D-01 0.954D+00
 Gap=     0.275 Goal=   None    Shift=    0.000
 Gap=     0.317 Goal=   None    Shift=    0.000
 RMSDP=2.35D-07 MaxDP=8.86D-06 DE=-1.06D-08 OVMax= 1.44D-05

 Cycle  11  Pass 1  IDiag  1:
 RMSU=  1.19D-07    CP:  9.78D-01  8.72D-01  1.06D+00  9.32D-01  1.12D+00
                    CP:  1.21D+00  1.35D+00  1.25D+00  1.20D+00  1.33D+00
 E= -232.959083172927     Delta-E=       -0.000000000658 Rises=F Damp=F
 DIIS: error= 4.42D-07 at cycle  11 NSaved=  11.
 NSaved=11 IEnMin=11 EnMin= -232.959083172927     IErMin=11 ErrMin= 4.42D-07
 ErrMax= 4.42D-07  0.00D+00 EMaxC= 1.00D-01 BMatC= 3.30D-10 BMatP= 1.29D-09
 IDIUse=1 WtCom= 1.00D+00 WtEn= 0.00D+00
 Coeff-Com:  0.281D-04-0.607D-04-0.292D-03-0.469D-03-0.414D-04 0.539D-02
 Coeff-Com: -0.320D-03-0.301D-01-0.779D-01 0.332D+00 0.772D+00
 Coeff:      0.281D-04-0.607D-04-0.292D-03-0.469D-03-0.414D-04 0.539D-02
 Coeff:     -0.320D-03-0.301D-01-0.779D-01 0.332D+00 0.772D+00
 Gap=     0.275 Goal=   None    Shift=    0.000
 Gap=     0.317 Goal=   None    Shift=    0.000
 RMSDP=1.00D-07 MaxDP=4.60D-06 DE=-6.58D-10 OVMax= 5.19D-06

 Cycle  12  Pass 1  IDiag  1:
 RMSU=  4.13D-08    CP:  9.78D-01  8.72D-01  1.06D+00  9.32D-01  1.12D+00
                    CP:  1.21D+00  1.35D+00  1.25D+00  1.22D+00  1.50D+00
                    CP:  1.22D+00
 E= -232.959083173050     Delta-E=       -0.000000000122 Rises=F Damp=F
 DIIS: error= 1.38D-07 at cycle  12 NSaved=  12.
 NSaved=12 IEnMin=12 EnMin= -232.959083173050     IErMin=12 ErrMin= 1.38D-07
 ErrMax= 1.38D-07  0.00D+00 EMaxC= 1.00D-01 BMatC= 2.19D-11 BMatP= 3.30D-10
 IDIUse=1 WtCom= 1.00D+00 WtEn= 0.00D+00
 Coeff-Com:  0.222D-05-0.504D-05-0.518D-04-0.123D-03-0.201D-03 0.850D-03
 Coeff-Com:  0.217D-02 0.102D-02-0.195D-01-0.838D-01 0.994D-01 0.100D+01
 Coeff:      0.222D-05-0.504D-05-0.518D-04-0.123D-03-0.201D-03 0.850D-03
 Coeff:      0.217D-02 0.102D-02-0.195D-01-0.838D-01 0.994D-01 0.100D+01
 Gap=     0.275 Goal=   None    Shift=    0.000
 Gap=     0.317 Goal=   None    Shift=    0.000
 RMSDP=5.13D-08 MaxDP=3.05D-06 DE=-1.22D-10 OVMax= 2.02D-06

 Cycle  13  Pass 1  IDiag  1:
 RMSU=  1.41D-08    CP:  9.78D-01  8.72D-01  1.06D+00  9.32D-01  1.12D+00
                    CP:  1.21D+00  1.35D+00  1.25D+00  1.22D+00  1.57D+00
                    CP:  1.43D+00  1.30D+00
 E= -232.959083173065     Delta-E=       -0.000000000015 Rises=F Damp=F
 DIIS: error= 3.62D-08 at cycle  13 NSaved=  13.
 NSaved=13 IEnMin=13 EnMin= -232.959083173065     IErMin=13 ErrMin= 3.62D-08
 ErrMax= 3.62D-08  0.00D+00 EMaxC= 1.00D-01 BMatC= 1.53D-12 BMatP= 2.19D-11
 IDIUse=1 WtCom= 1.00D+00 WtEn= 0.00D+00
 Coeff-Com: -0.210D-05 0.436D-05 0.170D-04 0.252D-04-0.851D-05-0.310D-03
 Coeff-Com:  0.173D-03 0.228D-02 0.435D-02-0.322D-01-0.537D-01 0.607D-01
 Coeff-Com:  0.102D+01
 Coeff:     -0.210D-05 0.436D-05 0.170D-04 0.252D-04-0.851D-05-0.310D-03
 Coeff:      0.173D-03 0.228D-02 0.435D-02-0.322D-01-0.537D-01 0.607D-01
 Coeff:      0.102D+01
 Gap=     0.275 Goal=   None    Shift=    0.000
 Gap=     0.317 Goal=   None    Shift=    0.000
 RMSDP=1.21D-08 MaxDP=6.50D-07 DE=-1.51D-11 OVMax= 6.18D-07

 Cycle  14  Pass 1  IDiag  1:
 RMSU=  3.53D-09    CP:  9.78D-01  8.72D-01  1.06D+00  9.32D-01  1.12D+00
                    CP:  1.21D+00  1.35D+00  1.25D+00  1.22D+00  1.58D+00
                    CP:  1.47D+00  1.41D+00  1.22D+00
 E= -232.959083173066     Delta-E=       -0.000000000001 Rises=F Damp=F
 DIIS: error= 1.61D-08 at cycle  14 NSaved=  14.
 NSaved=14 IEnMin=14 EnMin= -232.959083173066     IErMin=14 ErrMin= 1.61D-08
 ErrMax= 1.61D-08  0.00D+00 EMaxC= 1.00D-01 BMatC= 2.83D-13 BMatP= 1.53D-12
 IDIUse=1 WtCom= 1.00D+00 WtEn= 0.00D+00
 Coeff-Com: -0.651D-06 0.144D-05 0.849D-05 0.159D-04 0.147D-04-0.150D-03
 Coeff-Com: -0.149D-03 0.404D-03 0.285D-02 0.253D-03-0.209D-01-0.812D-01
 Coeff-Com:  0.262D+00 0.837D+00
 Coeff:     -0.651D-06 0.144D-05 0.849D-05 0.159D-04 0.147D-04-0.150D-03
 Coeff:     -0.149D-03 0.404D-03 0.285D-02 0.253D-03-0.209D-01-0.812D-01
 Coeff:      0.262D+00 0.837D+00
 Gap=     0.275 Goal=   None    Shift=    0.000
 Gap=     0.317 Goal=   None    Shift=    0.000
 RMSDP=3.06D-09 MaxDP=1.67D-07 DE=-1.48D-12 OVMax= 1.59D-07

 SCF Done:  E(UM062X) =  -232.959083173     A.U. after   14 cycles
            NFock= 14  Conv=0.31D-08     -V/T= 2.0046
 <Sx>= 0.0000 <Sy>= 0.0000 <Sz>= 0.5000 <S**2>= 0.7554 S= 0.5027
 <L.S>= 0.000000000000E+00
 KE= 2.319003544712D+02 PE=-9.108650481194D+02 EE= 2.619382965254D+02
 Annihilation of the first spin contaminant:
 S**2 before annihilation     0.7554,   after     0.7500
 Leave Link  502 at Tue Apr  9 01:14:03 2019, MaxMem=   671088640 cpu:             899.5 elap:              45.0
 (Enter /shared/centos7/gaussian/g16/l801.exe)
 DoSCS=F DFT=T ScalE2(SS,OS)=  1.000000  1.000000
 Range of M.O.s used for correlation:     1   251
 NBasis=   251 NAE=    21 NBE=    20 NFC=     0 NFV=     0
 NROrb=    251 NOA=    21 NOB=    20 NVA=   230 NVB=   231

 **** Warning!!: The largest alpha MO coefficient is  0.35578531D+02


 **** Warning!!: The largest beta MO coefficient is  0.35701430D+02

 Leave Link  801 at Tue Apr  9 01:14:03 2019, MaxMem=   671088640 cpu:               0.4 elap:               0.0
 (Enter /shared/centos7/gaussian/g16/l1101.exe)
 Using compressed storage, NAtomX=    14.
 Will process     15 centers per pass.
 Leave Link 1101 at Tue Apr  9 01:14:03 2019, MaxMem=   671088640 cpu:               5.2 elap:               0.3
 (Enter /shared/centos7/gaussian/g16/l1102.exe)
 Symmetrizing basis deriv contribution to polar:
 IMax=3 JMax=2 DiffMx= 0.00D+00
 Leave Link 1102 at Tue Apr  9 01:14:03 2019, MaxMem=   671088640 cpu:               0.5 elap:               0.1
 (Enter /shared/centos7/gaussian/g16/l1110.exe)
 Forming Gx(P) for the SCF density, NAtomX=    14.
 Integral derivatives from FoFJK, PRISM(SPDF).
 Do as many integral derivatives as possible in FoFJK.
 G2DrvN: MDV=     671087496.
 G2DrvN: will do    15 centers at a time, making    1 passes.
 Calling FoFCou, ICntrl=  3107 FMM=F I1Cent=   0 AccDes= 0.00D+00.
 FoFJK:  IHMeth= 1 ICntrl=    3107 DoSepK=F KAlg= 0 I1Cent=           0 FoldK=F
 IRaf=         0 NMat=       1 IRICut=       1 DoRegI=T DoRafI=F ISym2E= 0 IDoP0=0 IntGTp=1.
 FoFCou: FMM=F IPFlag=           0 FMFlag=      100000 FMFlg1=           0
         NFxFlg=           0 DoJE=F BraDBF=F KetDBF=F FulRan=T
         wScrn=  0.000000 ICntrl=      3107 IOpCl=  1 I1Cent=           0 NGrid=           0
         NMat0=    1 NMatS0=      1 NMatT0=    0 NMatD0=    1 NMtDS0=    0 NMtDT0=    0
 Symmetry not used in FoFCou.
 End of G2Drv F.D. properties file   721 does not exist.
 End of G2Drv F.D. properties file   722 does not exist.
 End of G2Drv F.D. properties file   788 does not exist.
 Leave Link 1110 at Tue Apr  9 01:15:32 2019, MaxMem=   671088640 cpu:            1768.0 elap:              88.4
 (Enter /shared/centos7/gaussian/g16/l1002.exe)
 Minotr:  UHF open shell wavefunction.
          IDoAtm=11111111111111
          Direct CPHF calculation.
          Differentiating once with respect to nuclear coordinates.
          Requested convergence is 1.0D-08 RMS, and 1.0D-07 maximum.
          Secondary convergence is 1.0D-12 RMS, and 1.0D-12 maximum.
          NewPWx=T KeepS1=F KeepF1=F KeepIn=T MapXYZ=F SortEE=F KeepMc=T.
         4243 words used for storage of precomputed grid.
 Two-electron integrals replicated using symmetry.
          MDV=     671088640 using IRadAn=       1.
          Solving linear equations simultaneously, MaxMat=     380.
 FoF2E skips out because all densities are zero.
 CalDSu exits because no D1Ps are significant.
 FoFJK:  IHMeth= 1 ICntrl=       0 DoSepK=F KAlg= 0 I1Cent=           0 FoldK=F
 IRaf= 980000000 NMat=      42 IRICut=     105 DoRegI=T DoRafI=T ISym2E= 2 IDoP0=3 IntGTp=3.
 FoFCou: FMM=F IPFlag=           0 FMFlag=      100000 FMFlg1=           0
         NFxFlg=           0 DoJE=F BraDBF=F KetDBF=F FulRan=T
         wScrn=  0.000000 ICntrl=         0 IOpCl=  1 I1Cent=           0 NGrid=           0
         NMat0=   42 NMatS0=     42 NMatT0=    0 NMatD0=   42 NMtDS0=    0 NMtDT0=    0
 Integrals replicated using symmetry in FoFCou.
 Raff kept on since  96.99% of shell-pairs survive, threshold=   0.20 IRatSp=97.
          There are    45 degrees of freedom in the 1st order CPHF.  IDoFFX=6 NUNeed=     0.
     39 vectors produced by pass  0 Test12= 2.10D-14 2.22D-09 XBig12= 1.41D-01 1.02D-01.
 AX will form    39 AO Fock derivatives at one time.
     39 vectors produced by pass  1 Test12= 2.10D-14 2.22D-09 XBig12= 1.24D-02 1.30D-02.
     39 vectors produced by pass  2 Test12= 2.10D-14 2.22D-09 XBig12= 4.31D-04 3.25D-03.
     39 vectors produced by pass  3 Test12= 2.10D-14 2.22D-09 XBig12= 6.01D-06 3.05D-04.
     39 vectors produced by pass  4 Test12= 2.10D-14 2.22D-09 XBig12= 5.94D-08 2.79D-05.
     39 vectors produced by pass  5 Test12= 2.10D-14 2.22D-09 XBig12= 5.77D-10 3.13D-06.
     39 vectors produced by pass  6 Test12= 2.10D-14 2.22D-09 XBig12= 4.19D-12 1.65D-07.
     15 vectors produced by pass  7 Test12= 2.10D-14 2.22D-09 XBig12= 3.02D-14 1.81D-08.
 InvSVY:  IOpt=1 It=  1 EMax= 1.78D-15
 Solved reduced A of dimension   288 with    39 vectors.
 End of Minotr F.D. properties file   721 does not exist.
 End of Minotr F.D. properties file   722 does not exist.
 End of Minotr F.D. properties file   788 does not exist.
 Leave Link 1002 at Tue Apr  9 01:17:52 2019, MaxMem=   671088640 cpu:            2804.7 elap:             140.3
 (Enter /shared/centos7/gaussian/g16/l601.exe)
 Copying SCF densities to generalized density rwf, IOpCl= 1 IROHF=0.

 **********************************************************************

            Population analysis using the SCF density.

 **********************************************************************

 Orbital symmetries:
 Alpha Orbitals:
       Occupied  (A) (A) (A) (A) (A) (A) (A) (A) (A) (A) (A) (A)
                 (A) (A) (A) (A) (A) (A) (A) (A) (A)
       Virtual   (A) (A) (A) (A) (A) (A) (A) (A) (A) (A) (A) (A)
                 (A) (A) (A) (A) (A) (A) (A) (A) (A) (A) (A) (A)
                 (A) (A) (A) (A) (A) (A) (A) (A) (A) (A) (A) (A)
                 (A) (A) (A) (A) (A) (A) (A) (A) (A) (A) (A) (A)
                 (A) (A) (A) (A) (A) (A) (A) (A) (A) (A) (A) (A)
                 (A) (A) (A) (A) (A) (A) (A) (A) (A) (A) (A) (A)
                 (A) (A) (A) (A) (A) (A) (A) (A) (A) (A) (A) (A)
                 (A) (A) (A) (A) (A) (A) (A) (A) (A) (A) (A) (A)
                 (A) (A) (A) (A) (A) (A) (A) (A) (A) (A) (A) (A)
                 (A) (A) (A) (A) (A) (A) (A) (A) (A) (A) (A) (A)
                 (A) (A) (A) (A) (A) (A) (A) (A) (A) (A) (A) (A)
                 (A) (A) (A) (A) (A) (A) (A) (A) (A) (A) (A) (A)
                 (A) (A) (A) (A) (A) (A) (A) (A) (A) (A) (A) (A)
                 (A) (A) (A) (A) (A) (A) (A) (A) (A) (A) (A) (A)
                 (A) (A) (A) (A) (A) (A) (A) (A) (A) (A) (A) (A)
                 (A) (A) (A) (A) (A) (A) (A) (A) (A) (A) (A) (A)
                 (A) (A) (A) (A) (A) (A) (A) (A) (A) (A) (A) (A)
                 (A) (A) (A) (A) (A) (A) (A) (A) (A) (A) (A) (A)
                 (A) (A) (A) (A) (A) (A) (A) (A) (A) (A) (A) (A)
                 (A) (A)
 Beta  Orbitals:
       Occupied  (A) (A) (A) (A) (A) (A) (A) (A) (A) (A) (A) (A)
                 (A) (A) (A) (A) (A) (A) (A) (A)
       Virtual   (A) (A) (A) (A) (A) (A) (A) (A) (A) (A) (A) (A)
                 (A) (A) (A) (A) (A) (A) (A) (A) (A) (A) (A) (A)
                 (A) (A) (A) (A) (A) (A) (A) (A) (A) (A) (A) (A)
                 (A) (A) (A) (A) (A) (A) (A) (A) (A) (A) (A) (A)
                 (A) (A) (A) (A) (A) (A) (A) (A) (A) (A) (A) (A)
                 (A) (A) (A) (A) (A) (A) (A) (A) (A) (A) (A) (A)
                 (A) (A) (A) (A) (A) (A) (A) (A) (A) (A) (A) (A)
                 (A) (A) (A) (A) (A) (A) (A) (A) (A) (A) (A) (A)
                 (A) (A) (A) (A) (A) (A) (A) (A) (A) (A) (A) (A)
                 (A) (A) (A) (A) (A) (A) (A) (A) (A) (A) (A) (A)
                 (A) (A) (A) (A) (A) (A) (A) (A) (A) (A) (A) (A)
                 (A) (A) (A) (A) (A) (A) (A) (A) (A) (A) (A) (A)
                 (A) (A) (A) (A) (A) (A) (A) (A) (A) (A) (A) (A)
                 (A) (A) (A) (A) (A) (A) (A) (A) (A) (A) (A) (A)
                 (A) (A) (A) (A) (A) (A) (A) (A) (A) (A) (A) (A)
                 (A) (A) (A) (A) (A) (A) (A) (A) (A) (A) (A) (A)
                 (A) (A) (A) (A) (A) (A) (A) (A) (A) (A) (A) (A)
                 (A) (A) (A) (A) (A) (A) (A) (A) (A) (A) (A) (A)
                 (A) (A) (A) (A) (A) (A) (A) (A) (A) (A) (A) (A)
                 (A) (A) (A)
 The electronic state is 2-A.
 Alpha  occ. eigenvalues --  -19.61834 -10.58156 -10.55923 -10.55254 -10.54091
 Alpha  occ. eigenvalues --   -1.15006  -0.89832  -0.82980  -0.72751  -0.66019
 Alpha  occ. eigenvalues --   -0.58651  -0.54823  -0.51967  -0.50118  -0.49030
 Alpha  occ. eigenvalues --   -0.46351  -0.43139  -0.41548  -0.39387  -0.34500
 Alpha  occ. eigenvalues --   -0.26072
 Alpha virt. eigenvalues --    0.01407   0.02634   0.03473   0.04077   0.05824
 Alpha virt. eigenvalues --    0.06333   0.06737   0.07124   0.08126   0.10365
 Alpha virt. eigenvalues --    0.10631   0.11443   0.12131   0.12626   0.15293
 Alpha virt. eigenvalues --    0.16155   0.17851   0.18848   0.20569   0.22143
 Alpha virt. eigenvalues --    0.22846   0.23842   0.24816   0.25041   0.25726
 Alpha virt. eigenvalues --    0.26427   0.28712   0.29828   0.30245   0.30882
 Alpha virt. eigenvalues --    0.32104   0.34110   0.37242   0.41771   0.43400
 Alpha virt. eigenvalues --    0.44941   0.46445   0.48747   0.50286   0.51317
 Alpha virt. eigenvalues --    0.52197   0.53858   0.55790   0.57013   0.57972
 Alpha virt. eigenvalues --    0.58725   0.59858   0.60826   0.61980   0.63267
 Alpha virt. eigenvalues --    0.63978   0.65084   0.66397   0.68143   0.68841
 Alpha virt. eigenvalues --    0.71217   0.72151   0.73743   0.78640   0.81962
 Alpha virt. eigenvalues --    0.82925   0.86146   0.88365   0.90759   0.93728
 Alpha virt. eigenvalues --    0.96183   0.98825   1.01717   1.03031   1.05716
 Alpha virt. eigenvalues --    1.06367   1.08219   1.10623   1.12163   1.14084
 Alpha virt. eigenvalues --    1.15896   1.17374   1.17765   1.19057   1.21800
 Alpha virt. eigenvalues --    1.22519   1.25503   1.25754   1.28163   1.29053
 Alpha virt. eigenvalues --    1.32508   1.32663   1.35595   1.37223   1.38686
 Alpha virt. eigenvalues --    1.39606   1.42635   1.44356   1.44565   1.44998
 Alpha virt. eigenvalues --    1.47411   1.47559   1.50162   1.52102   1.54711
 Alpha virt. eigenvalues --    1.56260   1.57911   1.59566   1.61109   1.64700
 Alpha virt. eigenvalues --    1.65951   1.70900   1.80780   1.93902   2.00120
 Alpha virt. eigenvalues --    2.12538   2.17012   2.30442   2.35392   2.42087
 Alpha virt. eigenvalues --    2.48273   2.53053   2.55019   2.56162   2.58650
 Alpha virt. eigenvalues --    2.64894   2.67530   2.70679   2.76881   2.79364
 Alpha virt. eigenvalues --    2.81927   2.85671   2.87588   2.89478   2.90414
 Alpha virt. eigenvalues --    2.95474   2.97415   2.98103   3.02125   3.02917
 Alpha virt. eigenvalues --    3.07069   3.09884   3.13824   3.14561   3.16663
 Alpha virt. eigenvalues --    3.19464   3.21018   3.24527   3.25666   3.27961
 Alpha virt. eigenvalues --    3.29781   3.31946   3.34630   3.37823   3.40380
 Alpha virt. eigenvalues --    3.41821   3.44538   3.49402   3.51836   3.53238
 Alpha virt. eigenvalues --    3.57381   3.58448   3.59567   3.61143   3.61702
 Alpha virt. eigenvalues --    3.66807   3.70321   3.74764   3.76705   3.77500
 Alpha virt. eigenvalues --    3.78893   3.83095   3.84651   3.86161   3.89874
 Alpha virt. eigenvalues --    3.92303   3.95058   3.96013   4.00670   4.03465
 Alpha virt. eigenvalues --    4.05585   4.07281   4.12391   4.14269   4.16311
 Alpha virt. eigenvalues --    4.19087   4.21260   4.22390   4.23848   4.27349
 Alpha virt. eigenvalues --    4.28852   4.31319   4.32737   4.38632   4.39234
 Alpha virt. eigenvalues --    4.40977   4.44314   4.45816   4.49440   4.51333
 Alpha virt. eigenvalues --    4.53050   4.58244   4.60528   4.69095   4.72360
 Alpha virt. eigenvalues --    4.81896   4.97314   5.13652   5.22168   5.26636
 Alpha virt. eigenvalues --    5.30364   5.38236   5.40012   5.43919   5.44871
 Alpha virt. eigenvalues --    5.50087   5.53137   5.56410   5.57624   5.61712
 Alpha virt. eigenvalues --    5.63542   5.91768   6.01750   6.59989   7.02460
 Alpha virt. eigenvalues --    7.11196   7.25416   7.26665   7.53005   7.67329
 Alpha virt. eigenvalues --   24.14541  24.29262  24.37101  24.51424  50.14915
  Beta  occ. eigenvalues --  -19.61836 -10.58067 -10.55314 -10.55177 -10.54146
  Beta  occ. eigenvalues --   -1.14975  -0.88208  -0.82409  -0.71985  -0.64008
  Beta  occ. eigenvalues --   -0.58125  -0.54300  -0.51482  -0.49389  -0.47944
  Beta  occ. eigenvalues --   -0.45920  -0.42434  -0.41088  -0.38583  -0.34347
  Beta virt. eigenvalues --   -0.02602   0.01131   0.02640   0.03332   0.04273
  Beta virt. eigenvalues --    0.05759   0.06330   0.06710   0.07002   0.08303
  Beta virt. eigenvalues --    0.10283   0.10470   0.11044   0.11783   0.13065
  Beta virt. eigenvalues --    0.15414   0.16429   0.17203   0.18898   0.20893
  Beta virt. eigenvalues --    0.22362   0.22932   0.24369   0.24899   0.25552
  Beta virt. eigenvalues --    0.25989   0.26443   0.28825   0.29893   0.30448
  Beta virt. eigenvalues --    0.31446   0.32271   0.34142   0.37424   0.42089
  Beta virt. eigenvalues --    0.43529   0.45201   0.46860   0.49196   0.50550
  Beta virt. eigenvalues --    0.51754   0.52061   0.54502   0.55852   0.57059
  Beta virt. eigenvalues --    0.57797   0.59343   0.60008   0.61540   0.62240
  Beta virt. eigenvalues --    0.63413   0.64423   0.65450   0.66449   0.67766
  Beta virt. eigenvalues --    0.68985   0.70965   0.72572   0.74127   0.78413
  Beta virt. eigenvalues --    0.81808   0.82645   0.86039   0.88492   0.90532
  Beta virt. eigenvalues --    0.93663   0.95983   0.98764   1.01700   1.03251
  Beta virt. eigenvalues --    1.05661   1.06531   1.08348   1.11174   1.12233
  Beta virt. eigenvalues --    1.13984   1.15846   1.17270   1.17721   1.19035
  Beta virt. eigenvalues --    1.21949   1.22550   1.24995   1.26170   1.28241
  Beta virt. eigenvalues --    1.29477   1.32594   1.33444   1.35720   1.37501
  Beta virt. eigenvalues --    1.39020   1.39900   1.43046   1.44394   1.44639
  Beta virt. eigenvalues --    1.45242   1.47406   1.47523   1.50666   1.52202
  Beta virt. eigenvalues --    1.55059   1.56345   1.57813   1.59511   1.61026
  Beta virt. eigenvalues --    1.64828   1.66349   1.71300   1.80983   1.94032
  Beta virt. eigenvalues --    2.00227   2.12671   2.17240   2.30577   2.35867
  Beta virt. eigenvalues --    2.42536   2.48729   2.53349   2.55719   2.56942
  Beta virt. eigenvalues --    2.59242   2.65469   2.68380   2.72941   2.79281
  Beta virt. eigenvalues --    2.81262   2.84828   2.88135   2.88981   2.90976
  Beta virt. eigenvalues --    2.92579   2.95798   2.98617   3.00543   3.03333
  Beta virt. eigenvalues --    3.04074   3.07877   3.11453   3.14493   3.15729
  Beta virt. eigenvalues --    3.17947   3.20188   3.21224   3.24952   3.26778
  Beta virt. eigenvalues --    3.28605   3.31500   3.33413   3.35380   3.40179
  Beta virt. eigenvalues --    3.41915   3.43517   3.46376   3.51433   3.54464
  Beta virt. eigenvalues --    3.56255   3.57762   3.59082   3.61260   3.61374
  Beta virt. eigenvalues --    3.63878   3.67495   3.71044   3.75102   3.77192
  Beta virt. eigenvalues --    3.79007   3.80072   3.83468   3.85314   3.86745
  Beta virt. eigenvalues --    3.90318   3.93805   3.96514   3.97122   4.01851
  Beta virt. eigenvalues --    4.04422   4.06114   4.08763   4.12739   4.15161
  Beta virt. eigenvalues --    4.17414   4.19420   4.21865   4.24047   4.24626
  Beta virt. eigenvalues --    4.27598   4.29613   4.32936   4.33301   4.39104
  Beta virt. eigenvalues --    4.39890   4.41210   4.45195   4.47194   4.49977
  Beta virt. eigenvalues --    4.51548   4.54373   4.59534   4.61082   4.71359
  Beta virt. eigenvalues --    4.74316   4.84983   4.99892   5.14571   5.22304
  Beta virt. eigenvalues --    5.27866   5.30440   5.39767   5.42107   5.43905
  Beta virt. eigenvalues --    5.47558   5.50320   5.53520   5.56364   5.57687
  Beta virt. eigenvalues --    5.61590   5.63436   5.91814   6.01787   6.60054
  Beta virt. eigenvalues --    7.02460   7.11202   7.25428   7.26679   7.53009
  Beta virt. eigenvalues --    7.67324  24.15535  24.29303  24.37598  24.51489
  Beta virt. eigenvalues --   50.14919
          Condensed to atoms (all electrons):
               1          2          3          4          5          6
     1  O    8.073954   0.020135   0.124816  -0.009885  -0.031395  -0.009410
     2  C    0.020135   5.513599   0.079297  -0.046253  -0.105495   0.478379
     3  C    0.124816   0.079297   5.174727   0.066951   0.037497  -0.064215
     4  C   -0.009885  -0.046253   0.066951   5.128157   0.183249  -0.013657
     5  C   -0.031395  -0.105495   0.037497   0.183249   5.806755  -0.046134
     6  H   -0.009410   0.478379  -0.064215  -0.013657  -0.046134   0.495392
     7  H    0.008375   0.434884  -0.045896   0.006908  -0.034546  -0.022471
     8  H   -0.061398  -0.076828   0.455885  -0.005394   0.035227  -0.006391
     9  H   -0.054195   0.046421   0.397704   0.000834  -0.051382   0.004777
    10  H   -0.012786  -0.029076   0.015510   0.395127  -0.037994   0.000199
    11  H    0.000322   0.007212  -0.006416   0.412177  -0.044060   0.000637
    12  H    0.000159   0.018679  -0.001488   0.412342  -0.047841  -0.000153
    13  H   -0.001051  -0.006407  -0.007307  -0.035530   0.409309   0.003511
    14  H    0.282186  -0.023277  -0.015472  -0.001921   0.019411  -0.000326
               7          8          9         10         11         12
     1  O    0.008375  -0.061398  -0.054195  -0.012786   0.000322   0.000159
     2  C    0.434884  -0.076828   0.046421  -0.029076   0.007212   0.018679
     3  C   -0.045896   0.455885   0.397704   0.015510  -0.006416  -0.001488
     4  C    0.006908  -0.005394   0.000834   0.395127   0.412177   0.412342
     5  C   -0.034546   0.035227  -0.051382  -0.037994  -0.044060  -0.047841
     6  H   -0.022471  -0.006391   0.004777   0.000199   0.000637  -0.000153
     7  H    0.520617  -0.002914  -0.005749  -0.000266   0.000131  -0.000116
     8  H   -0.002914   0.562954  -0.041571  -0.000224   0.000043   0.000046
     9  H   -0.005749  -0.041571   0.577322   0.000013  -0.000141  -0.000030
    10  H   -0.000266  -0.000224   0.000013   0.616195  -0.038845  -0.034175
    11  H    0.000131   0.000043  -0.000141  -0.038845   0.519285  -0.015461
    12  H   -0.000116   0.000046  -0.000030  -0.034175  -0.015461   0.523948
    13  H   -0.008897  -0.000302   0.000394   0.000333   0.003530  -0.006232
    14  H   -0.000504   0.009420  -0.004019   0.012461  -0.004323   0.002216
              13         14
     1  O   -0.001051   0.282186
     2  C   -0.006407  -0.023277
     3  C   -0.007307  -0.015472
     4  C   -0.035530  -0.001921
     5  C    0.409309   0.019411
     6  H    0.003511  -0.000326
     7  H   -0.008897  -0.000504
     8  H   -0.000302   0.009420
     9  H    0.000394  -0.004019
    10  H    0.000333   0.012461
    11  H    0.003530  -0.004323
    12  H   -0.006232   0.002216
    13  H    0.475684  -0.000350
    14  H   -0.000350   0.478341
          Atomic-Atomic Spin Densities.
               1          2          3          4          5          6
     1  O    0.003084   0.006681  -0.008962   0.000081  -0.003506   0.001404
     2  C    0.006681  -0.016670  -0.022469   0.019645  -0.066180   0.018837
     3  C   -0.008962  -0.022469   0.131699   0.002741  -0.042344  -0.011352
     4  C    0.000081   0.019645   0.002741  -0.046574  -0.062659   0.003698
     5  C   -0.003506  -0.066180  -0.042344  -0.062659   1.283832  -0.020878
     6  H    0.001404   0.018837  -0.011352   0.003698  -0.020878   0.016392
     7  H    0.000079   0.011970  -0.007721  -0.000112  -0.011450   0.003294
     8  H   -0.000240   0.004534  -0.009249  -0.001749   0.005454   0.001084
     9  H    0.001317   0.000922   0.002884   0.003730  -0.009712  -0.000007
    10  H   -0.001949  -0.007706   0.008344   0.024406  -0.044592  -0.000793
    11  H    0.000965   0.007846  -0.002757   0.004750  -0.014290   0.001078
    12  H    0.000111   0.002067  -0.000149   0.007693  -0.012343   0.000162
    13  H    0.000343   0.011937  -0.005293   0.002546  -0.008022  -0.000153
    14  H   -0.002375   0.000328   0.000863   0.000935   0.003955  -0.000037
               7          8          9         10         11         12
     1  O    0.000079  -0.000240   0.001317  -0.001949   0.000965   0.000111
     2  C    0.011970   0.004534   0.000922  -0.007706   0.007846   0.002067
     3  C   -0.007721  -0.009249   0.002884   0.008344  -0.002757  -0.000149
     4  C   -0.000112  -0.001749   0.003730   0.024406   0.004750   0.007693
     5  C   -0.011450   0.005454  -0.009712  -0.044592  -0.014290  -0.012343
     6  H    0.003294   0.001084  -0.000007  -0.000793   0.001078   0.000162
     7  H    0.008040   0.000794   0.000021  -0.000280   0.000168   0.000062
     8  H    0.000794   0.004326   0.000530  -0.000250   0.000071   0.000010
     9  H    0.000021   0.000530  -0.007169   0.000315  -0.000026  -0.000020
    10  H   -0.000280  -0.000250   0.000315   0.093555  -0.012922  -0.010219
    11  H    0.000168   0.000071  -0.000026  -0.012922   0.025196   0.004589
    12  H    0.000062   0.000010  -0.000020  -0.010219   0.004589   0.015276
    13  H    0.000581   0.000026   0.000103  -0.000421  -0.000231   0.000756
    14  H    0.000075   0.000110  -0.000401  -0.002185   0.000156   0.000182
              13         14
     1  O    0.000343  -0.002375
     2  C    0.011937   0.000328
     3  C   -0.005293   0.000863
     4  C    0.002546   0.000935
     5  C   -0.008022   0.003955
     6  H   -0.000153  -0.000037
     7  H    0.000581   0.000075
     8  H    0.000026   0.000110
     9  H    0.000103  -0.000401
    10  H   -0.000421  -0.002185
    11  H   -0.000231   0.000156
    12  H    0.000756   0.000182
    13  H   -0.051169  -0.000104
    14  H   -0.000104   0.001924
 Mulliken charges and spin densities:
               1          2
     1  O   -0.329827  -0.002965
     2  C   -0.311270  -0.028257
     3  C   -0.211592   0.036235
     4  C   -0.493105  -0.040870
     5  C   -0.092600   0.997264
     6  H    0.179862   0.012729
     7  H    0.150445   0.005521
     8  H    0.131446   0.005452
     9  H    0.129623  -0.007514
    10  H    0.113529   0.045304
    11  H    0.165910   0.014595
    12  H    0.148106   0.008179
    13  H    0.173316  -0.049099
    14  H    0.246156   0.003427
 Sum of Mulliken charges =  -0.00000   1.00000
 Mulliken charges and spin densities with hydrogens summed into heavy atoms:
               1          2
     1  O   -0.083671   0.000461
     2  C    0.019036  -0.010007
     3  C    0.049478   0.034173
     4  C   -0.065560   0.027207
     5  C    0.080716   0.948165
 APT charges:
               1
     1  O   -0.455023
     2  C   -0.955261
     3  C   -0.686491
     4  C   -1.166094
     5  C   -0.247270
     6  H    0.357879
     7  H    0.458045
     8  H    0.479145
     9  H    0.351240
    10  H    0.209659
    11  H    0.337569
    12  H    0.552163
    13  H    0.443600
    14  H    0.320837
 Sum of APT charges =  -0.00000
 APT charges with hydrogens summed into heavy atoms:
               1
     1  O   -0.134186
     2  C   -0.139336
     3  C    0.143894
     4  C   -0.066703
     5  C    0.196331
 Electronic spatial extent (au):  <R**2>=            491.1097
 Charge=             -0.0000 electrons
 Dipole moment (field-independent basis, Debye):
    X=             -1.4466    Y=              0.9157    Z=             -0.4044  Tot=              1.7591
 Quadrupole moment (field-independent basis, Debye-Ang):
   XX=            -34.3500   YY=            -34.4672   ZZ=            -32.9144
   XY=              4.7626   XZ=              0.3062   YZ=             -0.0413
 Traceless Quadrupole moment (field-independent basis, Debye-Ang):
   XX=             -0.4395   YY=             -0.5567   ZZ=              0.9961
   XY=              4.7626   XZ=              0.3062   YZ=             -0.0413
 Octapole moment (field-independent basis, Debye-Ang**2):
  XXX=              2.4894  YYY=             -3.5514  ZZZ=              0.7550  XYY=             -1.1930
  XXY=              2.0578  XXZ=             -1.0314  XZZ=              0.8000  YZZ=             -0.8539
  YYZ=             -1.5602  XYZ=              1.4666
 Hexadecapole moment (field-independent basis, Debye-Ang**3):
 XXXX=           -380.4907 YYYY=           -197.5536 ZZZZ=            -72.1718 XXXY=              8.9200
 XXXZ=              6.4945 YYYX=              5.7544 YYYZ=             -0.9696 ZZZX=             -0.7912
 ZZZY=             -1.3254 XXYY=           -110.6200 XXZZ=            -77.5253 YYZZ=            -46.3861
 XXYZ=             -0.8785 YYXZ=              1.3082 ZZXY=             -0.6980
 N-N= 1.840673139496D+02 E-N=-9.108650482646D+02  KE= 2.319003544712D+02
  Exact polarizability:   0.000   0.000   0.000   0.000   0.000   0.000
 Approx polarizability:  64.988   1.856  62.460   1.135  -1.464  59.927
                          Isotropic Fermi Contact Couplings
        Atom                 a.u.       MegaHertz       Gauss      10(-4) cm-1
     1  O(17)             -0.00002       0.01292       0.00461       0.00431
     2  C(13)             -0.02863     -32.18837     -11.48561     -10.73688
     3  C(13)              0.06346      71.34429      25.45742      23.79789
     4  C(13)             -0.02922     -32.84334     -11.71932     -10.95536
     5  C(13)              0.22856     256.93957      91.68243      85.70582
     6  H(1)               0.00702      31.35985      11.18998      10.46052
     7  H(1)               0.00397      17.72924       6.32623       5.91384
     8  H(1)               0.00250      11.17484       3.98746       3.72753
     9  H(1)              -0.00069      -3.08825      -1.10197      -1.03013
    10  H(1)               0.02613     116.80499      41.67893      38.96195
    11  H(1)               0.00657      29.37641      10.48223       9.79892
    12  H(1)               0.00511      22.82869       8.14585       7.61483
    13  H(1)              -0.01356     -60.60132     -21.62406     -20.21443
    14  H(1)              -0.00013      -0.57730      -0.20600      -0.19257
 --------------------------------------------------------
       Center         ----  Spin Dipole Couplings  ----
                      3XX-RR        3YY-RR        3ZZ-RR
 --------------------------------------------------------
     1   Atom        0.003643     -0.000664     -0.002979
     2   Atom        0.015976     -0.007518     -0.008458
     3   Atom        0.040936     -0.010954     -0.029982
     4   Atom       -0.006621      0.014494     -0.007873
     5   Atom       -0.030831      0.012491      0.018340
     6   Atom        0.004438     -0.008779      0.004341
     7   Atom        0.009072     -0.000490     -0.008581
     8   Atom        0.008157     -0.004202     -0.003954
     9   Atom        0.006914     -0.008635      0.001721
    10   Atom       -0.007123      0.015486     -0.008363
    11   Atom       -0.006321      0.007247     -0.000926
    12   Atom        0.005715      0.003032     -0.008746
    13   Atom       -0.040159     -0.020756      0.060914
    14   Atom        0.000417      0.008001     -0.008418
 --------------------------------------------------------
                        XY            XZ            YZ
 --------------------------------------------------------
     1   Atom       -0.006430     -0.001961      0.002595
     2   Atom       -0.008050     -0.001916      0.004352
     3   Atom       -0.044538     -0.016870      0.011128
     4   Atom       -0.001359     -0.003806      0.003138
     5   Atom       -0.529894     -0.527726      0.547365
     6   Atom        0.000498      0.014441      0.001231
     7   Atom        0.013181      0.002611      0.003322
     8   Atom        0.000581      0.002937      0.001241
     9   Atom       -0.001289     -0.007664      0.000932
    10   Atom        0.003078     -0.001304      0.001438
    11   Atom        0.004706     -0.004252     -0.011871
    12   Atom        0.013753      0.000368      0.001620
    13   Atom       -0.035043      0.008861     -0.031348
    14   Atom       -0.008588      0.002319     -0.002060
 --------------------------------------------------------


 ---------------------------------------------------------------------------------
              Anisotropic Spin Dipole Couplings in Principal Axis System
 ---------------------------------------------------------------------------------

       Atom             a.u.   MegaHertz   Gauss  10(-4) cm-1        Axes

              Baa    -0.0057     0.415     0.148     0.138  0.4520  0.7874 -0.4192
     1 O(17)  Bbb    -0.0033     0.242     0.086     0.081  0.4402  0.2118  0.8726
              Bcc     0.0091    -0.657    -0.234    -0.219  0.7758 -0.5790 -0.2508
 
              Baa    -0.0130    -1.749    -0.624    -0.583  0.1652  0.7482 -0.6426
     2 C(13)  Bbb    -0.0058    -0.778    -0.278    -0.260  0.2840  0.5878  0.7575
              Bcc     0.0188     2.527     0.902     0.843  0.9445 -0.3076 -0.1154
 
              Baa    -0.0370    -4.971    -1.774    -1.658  0.4001  0.8396 -0.3674
     3 C(13)  Bbb    -0.0335    -4.500    -1.606    -1.501  0.3454  0.2332  0.9090
              Bcc     0.0706     9.471     3.380     3.159  0.8489 -0.4906 -0.1967
 
              Baa    -0.0112    -1.503    -0.536    -0.501  0.6273 -0.0617  0.7763
     4 C(13)  Bbb    -0.0039    -0.522    -0.186    -0.174  0.7738  0.1617 -0.6124
              Bcc     0.0151     2.025     0.723     0.675 -0.0878  0.9849  0.1492
 
              Baa    -0.5397   -72.424   -25.843   -24.158  0.7744  0.6204  0.1238
     5 C(13)  Bbb    -0.5309   -71.236   -25.419   -23.762  0.2911 -0.5231  0.8010
              Bcc     1.0706   143.660    51.262    47.920 -0.5617  0.5843  0.5857
 
              Baa    -0.0102    -5.465    -1.950    -1.823 -0.6521 -0.3456  0.6748
     6 H(1)   Bbb    -0.0086    -4.610    -1.645    -1.538 -0.2737  0.9374  0.2156
              Bcc     0.0189    10.076     3.595     3.361  0.7071  0.0441  0.7058
 
              Baa    -0.0107    -5.706    -2.036    -1.903 -0.3786  0.6899 -0.6170
     7 H(1)   Bbb    -0.0082    -4.383    -1.564    -1.462 -0.4542  0.4424  0.7733
              Bcc     0.0189    10.089     3.600     3.365  0.8065  0.5730  0.1458
 
              Baa    -0.0055    -2.954    -1.054    -0.985 -0.1345 -0.6429  0.7540
     8 H(1)   Bbb    -0.0034    -1.787    -0.638    -0.596 -0.1957  0.7632  0.6158
              Bcc     0.0089     4.741     1.692     1.581  0.9714  0.0648  0.2284
 
              Baa    -0.0088    -4.671    -1.667    -1.558  0.0601  0.9972 -0.0448
     9 H(1)   Bbb    -0.0038    -2.014    -0.719    -0.672  0.5829  0.0013  0.8126
              Bcc     0.0125     6.685     2.385     2.230  0.8104 -0.0749 -0.5811
 
              Baa    -0.0095    -5.083    -1.814    -1.696  0.5858 -0.1182  0.8018
    10 H(1)   Bbb    -0.0064    -3.433    -1.225    -1.145  0.8001 -0.0733 -0.5954
              Bcc     0.0160     8.517     3.039     2.841  0.1291  0.9903  0.0516
 
              Baa    -0.0097    -5.169    -1.845    -1.724  0.3728  0.4609  0.8054
    11 H(1)   Bbb    -0.0077    -4.110    -1.466    -1.371  0.8916 -0.4183 -0.1733
              Bcc     0.0174     9.279     3.311     3.095  0.2570  0.7827 -0.5669
 
              Baa    -0.0101    -5.406    -1.929    -1.803 -0.5239  0.6193 -0.5848
    12 H(1)   Bbb    -0.0081    -4.337    -1.547    -1.447 -0.4244  0.4055  0.8096
              Bcc     0.0183     9.743     3.476     3.250  0.7385  0.6723  0.0504
 
              Baa    -0.0680   -36.303   -12.954   -12.109  0.7658  0.6350  0.1017
    13 H(1)   Bbb    -0.0071    -3.811    -1.360    -1.271 -0.6171  0.6811  0.3941
              Bcc     0.0752    40.113    14.313    13.380  0.1809 -0.3646  0.9134
 
              Baa    -0.0090    -4.797    -1.712    -1.600 -0.2446 -0.0061  0.9696
    14 H(1)   Bbb    -0.0050    -2.672    -0.953    -0.891  0.8014  0.5617  0.2057
              Bcc     0.0140     7.468     2.665     2.491 -0.5458  0.8273 -0.1325
 

 ---------------------------------------------------------------------------------

 No NMR shielding tensors so no spin-rotation constants.
 Leave Link  601 at Tue Apr  9 01:17:53 2019, MaxMem=   671088640 cpu:               9.3 elap:               0.5
 (Enter /shared/centos7/gaussian/g16/l701.exe)
 SCFChk:  SCF convergence  3.06D-09 required  1.00D-08
 ... and contract with generalized density number  0.
 Compute integral second derivatives.
 Entering OneElI...
 Calculate overlap and kinetic energy integrals
    NBasis = 276  MinDer = 2  MaxDer = 2
 Requested accuracy = 0.1000D-12
 PrmmSu-InSpLW:  IPartL=    0 NPrtUS=   20 NPrtUL=    1 DoSpLW=F IThBeg=    0 IThEnd=   19 NThAct=   20.
 PrsmSu:  NPrtUS=  20 ThrOK=T IAlg=1 NPAlg=1 LenDen=           0 ISkipM=0 DoSpLW=F IThBeg=    0 IThEnd=   19.
 Prism:   IPart=     0 DynPar=F LinDyn=F Incr=           1.
 PRISM was handed    33456537 working-precision words and  3654 shell-pairs
 PRISM was handed    33456537 working-precision words and  3654 shell-pairs
 PRISM was handed    33456537 working-precision words and  3654 shell-pairs
 PRISM was handed    33456537 working-precision words and  3654 shell-pairs
 PRISM was handed    33456537 working-precision words and  3654 shell-pairs
 PRISM was handed    33456537 working-precision words and  3654 shell-pairs
 PRISM was handed    33456537 working-precision words and  3654 shell-pairs
 PRISM was handed    33456537 working-precision words and  3654 shell-pairs
 PRISM was handed    33456537 working-precision words and  3654 shell-pairs
 PRISM was handed    33456537 working-precision words and  3654 shell-pairs
 PRISM was handed    33456537 working-precision words and  3654 shell-pairs
 PRISM was handed    33456537 working-precision words and  3654 shell-pairs
 PRISM was handed    33456537 working-precision words and  3654 shell-pairs
 PRISM was handed    33456537 working-precision words and  3654 shell-pairs
 PRISM was handed    33456537 working-precision words and  3654 shell-pairs
 PRISM was handed    33456537 working-precision words and  3654 shell-pairs
 PRISM was handed    33456537 working-precision words and  3654 shell-pairs
 PRISM was handed    33456537 working-precision words and  3654 shell-pairs
 PRISM was handed    33456537 working-precision words and  3654 shell-pairs
 PRISM was handed    33456537 working-precision words and  3654 shell-pairs
 IPart=  4 NShTot=         200 NBatch=          44 AvBLen=         4.5
 IPart=  1 NShTot=         212 NBatch=          53 AvBLen=         4.0
 IPart=  3 NShTot=         205 NBatch=          47 AvBLen=         4.4
 IPart=  9 NShTot=         183 NBatch=          35 AvBLen=         5.2
 IPart=  2 NShTot=         207 NBatch=          49 AvBLen=         4.2
 IPart=  0 NShTot=         216 NBatch=          56 AvBLen=         3.9
 IPart=  5 NShTot=         193 NBatch=          40 AvBLen=         4.8
 IPart= 11 NShTot=         171 NBatch=          32 AvBLen=         5.3
 IPart=  7 NShTot=         188 NBatch=          38 AvBLen=         4.9
 IPart= 10 NShTot=         175 NBatch=          35 AvBLen=         5.0
 IPart= 13 NShTot=         170 NBatch=          32 AvBLen=         5.3
 IPart= 14 NShTot=         170 NBatch=          32 AvBLen=         5.3
 IPart=  8 NShTot=         186 NBatch=          37 AvBLen=         5.0
 IPart= 12 NShTot=         170 NBatch=          32 AvBLen=         5.3
 IPart= 15 NShTot=         165 NBatch=          30 AvBLen=         5.5
 IPart= 19 NShTot=         163 NBatch=          29 AvBLen=         5.6
 IPart= 17 NShTot=         163 NBatch=          29 AvBLen=         5.6
 IPart=  6 NShTot=         191 NBatch=          38 AvBLen=         5.0
 IPart= 16 NShTot=         163 NBatch=          29 AvBLen=         5.6
 IPart= 18 NShTot=         163 NBatch=          29 AvBLen=         5.6
 PrSmSu:  NxtVal=             21.
 Entering OneElI...
 Calculate potential energy integrals
    NBasis = 276  MinDer = 2  MaxDer = 2
 Requested accuracy = 0.1000D-12
 PrmmSu-InSpLW:  IPartL=    0 NPrtUS=   20 NPrtUL=    1 DoSpLW=F IThBeg=    0 IThEnd=   19 NThAct=   20.
 PrsmSu:  NPrtUS=  20 ThrOK=T IAlg=1 NPAlg=1 LenDen=           0 ISkipM=0 DoSpLW=F IThBeg=    0 IThEnd=   19.
 Prism:   IPart=     0 DynPar=F LinDyn=F Incr=          24.
 PRISM was handed    33468921 working-precision words and  3521 shell-pairs
 PRISM was handed    33468921 working-precision words and  3521 shell-pairs
 PRISM was handed    33468921 working-precision words and  3521 shell-pairs
 PRISM was handed    33468921 working-precision words and  3521 shell-pairs
 PRISM was handed    33468921 working-precision words and  3521 shell-pairs
 PRISM was handed    33468921 working-precision words and  3521 shell-pairs
 PRISM was handed    33468921 working-precision words and  3521 shell-pairs
 PRISM was handed    33468921 working-precision words and  3521 shell-pairs
 PRISM was handed    33468921 working-precision words and  3521 shell-pairs
 PRISM was handed    33468921 working-precision words and  3521 shell-pairs
 PRISM was handed    33468921 working-precision words and  3521 shell-pairs
 PRISM was handed    33468921 working-precision words and  3521 shell-pairs
 PRISM was handed    33468921 working-precision words and  3521 shell-pairs
 PRISM was handed    33468921 working-precision words and  3521 shell-pairs
 PRISM was handed    33468921 working-precision words and  3521 shell-pairs
 PRISM was handed    33468921 working-precision words and  3521 shell-pairs
 PRISM was handed    33468921 working-precision words and  3521 shell-pairs
 PRISM was handed    33468921 working-precision words and  3521 shell-pairs
 PRISM was handed    33468921 working-precision words and  3521 shell-pairs
 PRISM was handed    33468921 working-precision words and  3521 shell-pairs
 IPart=  4 NShTot=        2632 NBatch=         188 AvBLen=        14.0
 IPart=  3 NShTot=        2688 NBatch=         192 AvBLen=        14.0
 IPart=  2 NShTot=        2814 NBatch=         201 AvBLen=        14.0
 IPart=  1 NShTot=        2884 NBatch=         206 AvBLen=        14.0
 IPart= 15 NShTot=        2282 NBatch=         163 AvBLen=        14.0
 IPart=  9 NShTot=        2436 NBatch=         174 AvBLen=        14.0
 IPart=  8 NShTot=        2464 NBatch=         176 AvBLen=        14.0
 IPart=  5 NShTot=        2562 NBatch=         183 AvBLen=        14.0
 IPart= 12 NShTot=        2352 NBatch=         168 AvBLen=        14.0
 IPart=  7 NShTot=        2478 NBatch=         177 AvBLen=        14.0
 IPart=  6 NShTot=        2534 NBatch=         181 AvBLen=        14.0
 IPart= 10 NShTot=        2380 NBatch=         170 AvBLen=        14.0
 IPart= 17 NShTot=        2198 NBatch=         157 AvBLen=        14.0
 IPart= 16 NShTot=        2212 NBatch=         158 AvBLen=        14.0
 IPart=  0 NShTot=        2954 NBatch=         211 AvBLen=        14.0
 IPart= 19 NShTot=        2184 NBatch=         156 AvBLen=        14.0
 IPart= 13 NShTot=        2352 NBatch=         168 AvBLen=        14.0
 IPart= 11 NShTot=        2366 NBatch=         169 AvBLen=        14.0
 IPart= 14 NShTot=        2324 NBatch=         166 AvBLen=        14.0
 IPart= 18 NShTot=        2198 NBatch=         157 AvBLen=        14.0
 PrSmSu:  NxtVal=            481.
 Polarizability after L701:
                1             2             3 
      1  0.000000D+00
      2  0.000000D+00  0.000000D+00
      3  0.000000D+00  0.000000D+00  0.000000D+00
 Dipole Derivatives after L701:
                 1             2             3             4             5 
      1  -0.325692D+00  0.404521D+00 -0.136262D+00 -0.334388D+00 -0.115490D+00
      2  -0.462332D+00 -0.664720D+00  0.243632D-01 -0.153836D+00 -0.134433D+01
      3  -0.357121D-01 -0.562842D-01 -0.374656D+00 -0.800845D-01  0.107417D+00
                 6             7             8             9            10 
      1  -0.167769D+00 -0.127281D+01 -0.806202D+00  0.416719D+00 -0.146623D+01
      2  -0.287942D+00 -0.352031D+00 -0.176864D+00  0.687340D-01 -0.986294D-02
      3  -0.118706D+01 -0.366195D-01  0.839797D-01 -0.609800D+00  0.218537D-02
                11            12            13            14            15 
      1  -0.644098D+00  0.263679D+00 -0.490453D-01  0.393774D+00 -0.747072D+00
      2  -0.103191D+01  0.247001D-01  0.235585D+00 -0.168158D+00  0.521645D+00
      3  -0.238651D-01 -0.100014D+01 -0.121845D+00  0.187902D+00 -0.524605D+00
                16            17            18            19            20 
      1   0.190383D+00 -0.269513D-01  0.874035D-01  0.199026D+00  0.195009D+00
      2  -0.233147D-02  0.108599D+00  0.412184D+00  0.185781D+00  0.104814D+01
      3  -0.815230D-03 -0.874405D-01  0.774655D+00  0.197248D-01  0.614002D-01
                21            22            23            24            25 
      1  -0.418937D-01  0.997131D+00  0.313368D+00  0.436628D+00  0.204356D+00
      2  -0.209009D+00  0.175501D+00  0.242244D+00  0.658839D-01  0.151150D-01
      3   0.126974D+00  0.963005D-01  0.529020D-02  0.198061D+00 -0.440599D-01
                26            27            28            29            30 
      1   0.127011D+00 -0.595745D+00 -0.103492D+00  0.344975D+00  0.178518D+00
      2   0.206457D+00 -0.117034D+00 -0.263133D+00  0.519721D+00  0.251589D+00
      3  -0.632674D-01  0.642907D+00 -0.104270D+00  0.137411D+00  0.212750D+00
                31            32            33            34            35 
      1   0.102750D+00  0.188039D+00 -0.744852D+00  0.136127D+01 -0.624573D-01
      2  -0.158508D-01  0.243275D+00 -0.333412D+00  0.245026D+00  0.139665D+00
      3   0.166719D-01 -0.994462D-01  0.666682D+00  0.114983D+00 -0.144307D-01
                36            37            38            39            40 
      1   0.433465D+00  0.303138D+00 -0.247626D+00  0.611997D+00  0.193610D+00
      2   0.812766D-01 -0.905591D-01  0.393095D+00 -0.511813D+00  0.492929D+00
      3   0.155555D+00  0.144166D+00 -0.245784D+00  0.634568D+00  0.293751D-01
                41            42 
      1  -0.638721D-01  0.518476D-02
      2   0.484793D+00  0.883484D-02
      3   0.711771D-02  0.284108D+00
 Hessian after L701:
                1             2             3             4             5 
      1  0.741948D+01
      2 -0.116697D+01  0.504136D+01
      3 -0.247123D+00  0.718474D+00  0.129841D+02
      4 -0.756656D-01 -0.592247D+00  0.931776D-01  0.117025D+02
      5 -0.585653D+00  0.512558D+00 -0.692979D-01  0.931526D+00  0.129989D+02
      6  0.110534D+00 -0.118393D+00 -0.460788D+00 -0.284478D+00 -0.373827D+00
      7 -0.689177D+01  0.962837D+00 -0.211947D+00 -0.312456D+01 -0.200059D+01
      8  0.907386D+00 -0.812627D-01 -0.925399D+00 -0.204990D+01 -0.388967D+01
      9 -0.233212D+00 -0.897307D+00 -0.700457D+01 -0.109687D+01  0.907058D+00
     10  0.488777D+00 -0.861078D-01  0.449469D-01  0.536546D-01  0.106888D+00
     11 -0.258878D+00 -0.237619D+00 -0.780791D-02  0.129666D+00  0.353672D-02
     12  0.314193D-01 -0.143256D-01 -0.263024D+00  0.191957D-01  0.107117D-02
     13  0.182449D+00 -0.217973D+00 -0.126255D+00 -0.117820D+01  0.830374D+00
     14 -0.295390D+00 -0.341011D-01  0.112345D+00  0.877449D+00 -0.459247D+01
     15 -0.123119D+00  0.110942D+00 -0.208428D+00  0.144370D+01  0.287054D+00
     16 -0.454253D-02 -0.778362D-02 -0.167840D-01 -0.386612D+01  0.579040D-02
     17 -0.173253D-01 -0.141775D-01  0.164773D-01  0.443481D-02 -0.385106D+01
     18 -0.560857D-01  0.529078D-01  0.390568D-01 -0.342683D-01 -0.264656D+00
     19 -0.547670D-01 -0.192014D-01  0.184314D-02 -0.358005D+01  0.557326D+00
     20 -0.600843D-01  0.183835D+00  0.370066D-02  0.577701D+00 -0.120511D+01
     21  0.360500D-02 -0.562887D-02 -0.514279D-01 -0.887638D-01 -0.395390D+00
     22  0.194089D+00 -0.253751D-01  0.138773D+00 -0.811757D-01  0.411656D-01
     23 -0.387130D-01 -0.161659D+00  0.117418D+00  0.497244D-01  0.102356D+00
     24  0.121674D+00  0.131364D+00  0.140973D+00  0.145722D-01  0.158014D-01
     25  0.711033D-01 -0.419421D-01 -0.239088D-01  0.326051D-02  0.230860D-01
     26 -0.205815D-01 -0.183747D+00 -0.480963D-01  0.295005D-01 -0.535082D-01
     27 -0.785111D-02 -0.534348D-01  0.451107D+00 -0.455452D-01 -0.429647D-01
     28  0.421195D-01  0.140613D-01 -0.179145D-01  0.126889D-01 -0.967923D-02
     29  0.637205D-01 -0.152407D-01  0.450834D-02  0.714076D-02  0.126551D-01
     30  0.314136D-01  0.115558D-01 -0.320486D-01  0.105979D-02  0.638015D-03
     31  0.465430D-01 -0.138939D-02 -0.389106D-01  0.172785D-01  0.467485D-01
     32  0.881908D-02 -0.301983D-01 -0.855087D-03  0.542521D-01  0.403742D-02
     33 -0.959926D-01 -0.119974D-03  0.765034D-02 -0.485856D-01 -0.365112D-01
     34  0.696190D-01 -0.238210D-02  0.683160D-02  0.103822D+00  0.700428D-01
     35 -0.614759D-02 -0.138205D-01 -0.913067D-03  0.587222D-01 -0.174774D-01
     36  0.178693D-01  0.246206D-03 -0.143810D-01  0.347773D-01  0.177737D-01
     37  0.181424D-01 -0.222908D-01  0.123329D-01 -0.464621D-02 -0.291683D-01
     38 -0.418208D-01  0.928189D-02 -0.146652D-01 -0.334350D-01  0.335295D-01
     39  0.449983D-01 -0.238480D-01 -0.301799D-02  0.211230D-02 -0.575813D-01
     40 -0.150558D+01  0.120677D+01  0.384939D+00  0.171665D-01  0.121447D-01
     41  0.151164D+01 -0.497521D+01  0.941117D-01 -0.445345D-01 -0.582507D-01
     42  0.401870D+00  0.875682D-01 -0.558523D+01 -0.100893D-01  0.108309D-01
                6             7             8             9            10 
[...]
 ! A21   A(2,5,13)             117.4265         -DE/DX =    0.0                 !
 ! A22   A(4,5,13)             118.6654         -DE/DX =    0.0                 !
 ! D1    D(14,1,3,2)            50.6641         -DE/DX =    0.0                 !
 ! D2    D(14,1,3,8)           171.4627         -DE/DX =    0.0                 !
 ! D3    D(14,1,3,9)           -71.9001         -DE/DX =    0.0                 !
 ! D4    D(5,2,3,1)            -64.2446         -DE/DX =    0.0                 !
 ! D5    D(5,2,3,8)            177.5077         -DE/DX =    0.0                 !
 ! D6    D(5,2,3,9)             58.9725         -DE/DX =    0.0                 !
 ! D7    D(6,2,3,1)             57.8952         -DE/DX =    0.0                 !
 ! D8    D(6,2,3,8)            -60.3525         -DE/DX =    0.0                 !
 ! D9    D(6,2,3,9)           -178.8877         -DE/DX =    0.0                 !
 ! D10   D(7,2,3,1)            173.4475         -DE/DX =    0.0                 !
 ! D11   D(7,2,3,8)             55.1998         -DE/DX =    0.0                 !
 ! D12   D(7,2,3,9)            -63.3354         -DE/DX =    0.0                 !
 ! D13   D(3,2,5,4)            152.643          -DE/DX =    0.0                 !
 ! D14   D(3,2,5,13)           -45.6851         -DE/DX =    0.0                 !
 ! D15   D(6,2,5,4)             31.0692         -DE/DX =    0.0                 !
 ! D16   D(6,2,5,13)          -167.2589         -DE/DX =    0.0                 !
 ! D17   D(7,2,5,4)            -86.3472         -DE/DX =    0.0                 !
 ! D18   D(7,2,5,13)            75.3247         -DE/DX =    0.0                 !
 ! D19   D(10,4,5,2)          -168.3895         -DE/DX =    0.0                 !
 ! D20   D(10,4,5,13)           30.1587         -DE/DX =    0.0                 !
 ! D21   D(11,4,5,2)           -46.9486         -DE/DX =    0.0                 !
 ! D22   D(11,4,5,13)          151.5995         -DE/DX =    0.0                 !
 ! D23   D(12,4,5,2)            71.5601         -DE/DX =    0.0                 !
 ! D24   D(12,4,5,13)          -89.8918         -DE/DX =    0.0                 !
 --------------------------------------------------------------------------------
 GradGradGradGradGradGradGradGradGradGradGradGradGradGradGradGradGradGrad

 Leave Link  103 at Tue Apr  9 01:48:17 2019, MaxMem=   671088640 cpu:               0.5 elap:               0.1
 (Enter /shared/centos7/gaussian/g16/l9999.exe)

 ----------------------------------------------------------------------

 Electric dipole moment (input orientation):
 (Debye = 10**-18 statcoulomb cm , SI units = C m)
                  (au)            (Debye)         (10**-30 SI)
   Tot        0.840912D+00      0.213738D+01      0.712955D+01
   x          0.595702D+00      0.151412D+01      0.505057D+01
   y          0.582524D+00      0.148063D+01      0.493884D+01
   z          0.113747D+00      0.289115D+00      0.964385D+00

 Dipole polarizability, Alpha (input orientation).
 (esu units = cm**3 , SI units = C**2 m**2 J**-1)
 Alpha(0;0):
               (au)            (10**-24 esu)      (10**-40 SI)
   iso        0.545918D+02      0.808967D+01      0.900097D+01
   aniso      0.129947D+02      0.192561D+01      0.214253D+01
   xx         0.593140D+02      0.878942D+01      0.977955D+01
   yx         0.200719D+01      0.297434D+00      0.330940D+00
   yy         0.491129D+02      0.727779D+01      0.809763D+01
   zx         0.506744D+01      0.750917D+00      0.835508D+00
   zy         0.367019D+00      0.543866D-01      0.605132D-01
   zz         0.553485D+02      0.820181D+01      0.912574D+01

 ----------------------------------------------------------------------

 Dipole orientation:
     8          1.37423404         -1.78307084         -0.46864528
     6          3.36914295         -1.18288666          3.63845693
     6          2.18686543          0.03264324          1.31036682
     6          2.33265710         -4.90998741          6.65343897
     6          1.51250000         -2.72745511          5.08702210
     1          4.96260903         -2.35888287          3.04986062
     1          4.15650777          0.32413821          4.83369752
     1          3.56166619          1.21394498          0.33640237
     1          0.60944721          1.24568890          1.88918905
     1          0.74037637         -6.05724622          7.27162817
     1          3.64358067         -6.11742106          5.61302265
     1          3.33642952         -4.28880325          8.36013085
     1         -0.33150429         -1.90418523          5.43668263
     1          0.35342501         -3.00785610          0.40217223

 Electric dipole moment (dipole orientation):
 (Debye = 10**-18 statcoulomb cm , SI units = C m)
                  (au)            (Debye)         (10**-30 SI)
   Tot        0.840912D+00      0.213738D+01      0.712955D+01
   x          0.000000D+00      0.000000D+00      0.000000D+00
   y          0.000000D+00      0.000000D+00      0.000000D+00
   z          0.840912D+00      0.213738D+01      0.712955D+01

 Dipole polarizability, Alpha (dipole orientation).
 (esu units = cm**3 , SI units = C**2 m**2 J**-1)
 Alpha(0;0):
               (au)            (10**-24 esu)      (10**-40 SI)
   iso        0.545918D+02      0.808967D+01      0.900097D+01
   aniso      0.129947D+02      0.192561D+01      0.214253D+01
   xx         0.506686D+02      0.750831D+01      0.835412D+01
   yx         0.117410D+01      0.173983D+00      0.193583D+00
   yy         0.557507D+02      0.826140D+01      0.919205D+01
   zx         0.123364D+01      0.182807D+00      0.203400D+00
   zy        -0.641863D+01     -0.951143D+00     -0.105829D+01
   zz         0.573561D+02      0.849930D+01      0.945674D+01

 ----------------------------------------------------------------------

 Test job not archived.
 1\1\GINC-C0212\Freq\UM062X\6-311+G(2df,2p)\C4H9O1(2)\UNDERKOFFLER.C\09
 -Apr-2019\0\\#P Geom=AllCheck Guess=TCheck SCRF=Check Test GenChk UM06
 2X/6-311+G(2df,2p) Freq\\Gaussian input prepared by ASE\\0,2\O,0.63793
 97548,-1.0308591882,0.1049284795\C,2.6292966003,0.2017422938,-0.568929
 2907\C,1.1294452384,-0.0099052098,-0.7379584998\C,4.3060284493,0.40543
 73737,1.4016951234\C,2.977431141,0.6855843329,0.7969583456\H,3.1481379
 426,-0.7377768877,-0.7773093161\H,2.9651141205,0.920175751,-1.33097261
 79\H,0.9000486783,-0.3205289591,-1.7560817828\H,0.6032034582,0.9336786
 566,-0.5498753987\H,4.330055525,0.645789025,2.4633992898\H,4.579263758
 1,-0.6446831011,1.2784146126\H,5.1000984879,0.9912348114,0.9198650269\
 H,2.375729182,1.4870674369,1.2114555334\H,0.9431362211,-0.8523033169,0
 .9989080781\\Version=EM64L-G16RevA.03\State=2-A\HF=-232.9696403\S2=0.7
 55096\S2-1=0.\S2A=0.750021\RMSD=2.849e-09\RMSF=1.605e-07\ZeroPoint=0.1
 235637\Thermal=0.1304954\Dipole=0.5957017,0.582524,0.1137467\DipoleDer
 iv=-0.6785871,-0.1247918,0.1202619,-0.1460909,-0.6768469,0.2202997,0.1
 726633,0.2628967,-0.5353362,-0.1107707,-0.0133379,-0.0159947,0.0451112
 ,0.1077397,0.0231509,-0.0766209,-0.0511081,0.0355341,0.4740845,0.11757
 6,-0.0584131,0.1072973,0.575537,-0.1925905,-0.1309123,-0.2096166,0.416
 1598,-0.0106971,0.033933,-0.0793783,-0.0021045,0.0674731,-0.0444807,-0
 .0261563,-0.0313687,0.0424303,0.036101,-0.1571782,0.140831,-0.1634867,
 -0.0808973,0.1029769,0.1604148,0.1456792,0.0451489,-0.0174679,0.062854
 6,0.0040814,0.0819443,-0.0689686,-0.0514159,-0.0131219,-0.0189917,0.03
 86928,0.019193,-0.0450881,0.0298247,-0.0644308,-0.0160436,0.0960121,0.
 0063216,0.063763,-0.0982152,0.008094,-0.0189372,-0.047887,-0.0484688,0
 .0249839,-0.0621911,-0.0438736,-0.013136,-0.1214615,-0.040495,0.068139
 4,0.0097034,0.072026,-0.1748699,0.028116,0.0513696,-0.0322384,0.017258
 2,0.031371,0.0041048,-0.0038872,0.0092659,0.0676345,-0.0378842,-0.0551
 36,-0.0397868,-0.1187691,0.0344066,0.0163476,-0.0155211,0.0718481,-0.0
 968848,-0.0089954,-0.0086884,-0.0415456,0.0531649,-0.0892251,-0.05829,
 0.0033877,-0.0782337,0.023219,0.0510624,0.0603012,0.0571815,0.0181076,
 -0.0181097,0.0991412,-0.0243893,0.1066592,-0.0049828,-0.0730791,-0.043
 706,-0.0590353,0.008093,0.3621026,0.0155266,-0.0626193,0.0086635,0.252
 9067,-0.0509812,-0.0528552,-0.0326932,0.1991926\Polar=59.3139715,2.007
 1862,49.112934,5.06744,0.3670188,55.3485285\Quadrupole=-1.6025226,-0.9
 505191,2.5530417,-2.3118245,-0.2492411,-0.4522532\PG=C01 [X(C4H9O1)]\N
 Imag=0\\0.16474759,0.13272711,0.26219726,0.10630901,-0.02898605,0.6258
 3871,-0.01610834,-0.01132816,0.00695146,0.48586635,-0.03587123,-0.0121
 9371,0.00697687,-0.04254849,0.56004265,0.02792550,0.01185590,-0.001860
 63,-0.01560292,-0.00133775,0.49909856,-0.08921619,-0.05592426,0.038103
 20,-0.18785883,0.00061754,-0.01883471,0.48307622,-0.04551719,-0.172676
 86,0.08788574,-0.00638415,-0.08014683,-0.00724416,-0.03408125,0.552073
 17,0.01030900,0.05266200,-0.14949221,-0.01574397,-0.00734763,-0.080897
 65,0.02898473,0.04882478,0.61420236,0.00010653,0.00007789,-0.00030723,
 -0.00186282,0.00026944,-0.00344171,-0.00010308,0.00019345,0.00016893,0
 .47580296,-0.00030574,-0.00025668,-0.00017246,-0.00804748,0.00304496,-
 0.00248994,-0.00033995,-0.00082941,-0.00266721,-0.01376263,0.53247236,
 0.00019147,-0.00016295,0.00143461,-0.03084447,0.00194355,-0.00792051,0
 .00176065,-0.00000998,-0.00613954,-0.00208468,0.03072602,0.55935830,0.
 00096222,0.00069988,-0.00240953,-0.08394959,0.00410992,-0.03552243,-0.
 01364693,-0.01194415,-0.03558656,-0.19956615,0.03959003,-0.06373460,0.
 46749699,-0.00046650,0.00067398,-0.00328972,0.00760938,-0.08253372,-0.
 05693035,-0.00546610,-0.00290424,0.00076631,0.04276426,-0.07011329,-0.
 00236347,-0.17995041,0.33885647,0.00314802,0.00171741,-0.00046135,-0.0
 2974829,-0.05510708,-0.19673500,-0.01411553,-0.00334653,-0.00890579,-0
 .06374587,-0.00230284,-0.10359022,0.07858756,0.16527259,0.43201471,0.0
 0455845,-0.00102415,-0.00045564,-0.10460668,0.10301165,0.02150256,-0.0
 1846962,0.03111498,0.00493600,0.00047089,-0.00130580,0.00011676,0.0034
 8010,-0.00559884,-0.00012942,0.11446304,0.00030829,0.00180004,-0.00080
 252,0.10520120,-0.24053322,-0.04242662,-0.00270510,0.00337872,0.001769
 63,0.00021150,0.00070816,0.00102185,0.00574906,-0.00873745,-0.00340613
 ,-0.11592811,0.26010688,0.00022122,-0.00039400,-0.00026390,0.02061892,
 -0.04159303,-0.05500664,-0.00208855,0.00485011,0.00015898,0.00114173,-
 0.00039782,0.00146539,0.01614978,-0.02742078,-0.00987098,-0.02198408,0
 .04756737,0.06366302,-0.00899497,-0.00283668,0.00101522,-0.06664090,-0
 .04615346,0.04755311,-0.00653779,-0.02267242,0.02327727,-0.00008424,-0
 .00039719,0.00081961,0.00296131,0.00577486,-0.00546040,0.00487455,0.00
 997963,-0.01082668,0.07228071,-0.00285643,0.00083354,0.00071034,-0.048
 40309,-0.15055937,0.10449985,0.00108559,-0.00438703,0.00345075,0.00007
 400,0.00000018,0.00066958,0.00407965,0.00956812,-0.00622691,-0.0088717
 0,-0.01871271,0.01875304,0.05564008,0.16397423,-0.00136527,-0.00089592
 ,0.00169531,0.05458834,0.11657726,-0.15424004,-0.00029761,-0.00142043,
 0.00168892,0.00049387,-0.00065174,0.00054069,0.00568510,0.01317924,-0.
 02927817,-0.00192426,-0.00304769,0.00388956,-0.05516625,-0.12192029,0.
 17563077,0.00368192,0.00030454,0.01543063,-0.00752995,-0.01230375,-0.0
 3102655,-0.06254173,-0.01495588,-0.05540065,0.00020138,-0.00084330,-0.
 00166087,-0.00625133,0.00110802,0.00081708,0.00130729,0.00070670,0.000
 10412,0.00137470,-0.00003510,0.00054050,0.06664889,0.00417883,0.004393
 59,0.03415664,0.00107098,-0.00106561,-0.00273529,-0.01676165,-0.077791
 49,-0.08716426,0.00003907,-0.00005902,-0.00010942,-0.00161236,0.001029
 86,-0.00037663,-0.00023759,0.00040740,0.00054688,-0.00021064,-0.000124
 66,-0.00015233,0.02179536,0.08364259,-0.00211503,0.00275813,-0.0276996
 1,-0.00048710,-0.00133065,-0.00048876,-0.05212986,-0.07631610,-0.27603
 120,0.00013164,-0.00013214,0.00014781,-0.00024651,0.00006422,0.0009020
 2,-0.00014196,0.00030158,0.00001670,-0.00062062,-0.00026821,0.00033069
 ,0.05434021,0.07565468,0.30810193,0.00900597,-0.01608422,-0.00017619,-
 0.01965422,0.02877670,0.00672136,-0.11115798,0.10405372,0.02332367,0.0
 0011653,-0.00013080,-0.00046861,0.00170376,0.00093103,0.00214293,-0.00
 619764,-0.00149612,-0.00108985,0.00093498,-0.00033174,0.00035858,0.004
 44369,-0.00604123,-0.00147725,0.12055281,0.00238160,-0.03200836,0.0109
 3674,-0.00165454,0.00478113,-0.00085830,0.10351116,-0.22077298,-0.0453
 1031,-0.00013310,0.00029671,0.00014910,-0.00049899,0.00064621,0.000046
 89,-0.00160020,0.00099638,-0.00059587,0.00135743,0.00028280,0.00001787
 ,0.00590798,-0.00745136,-0.00374479,-0.10920495,0.25369198,-0.00652773
 ,0.02943353,0.00118553,-0.00341665,0.00188261,0.00158662,0.02388418,-0
 .04852761,-0.06596050,-0.00001342,0.00000532,-0.00003059,-0.00049892,0
 .00137259,0.00076610,-0.00065134,0.00045846,0.00077477,0.00008765,-0.0
 0011902,0.00001264,0.01553267,-0.02492388,-0.00465454,-0.02785166,0.03
 975799,0.06516100,-0.00013261,-0.00018135,0.00030473,-0.00481695,0.002
 03440,-0.00078538,0.00044272,-0.00012041,-0.00164250,-0.04489519,0.002
 44867,-0.00204543,-0.00137221,-0.01007462,-0.03136058,-0.00001682,-0.0
 0005901,0.00026057,-0.00009199,0.00006919,-0.00043228,-0.00050620,-0.0
 0009189,0.00001021,-0.00003474,0.00006405,0.00002532,0.05151216,0.0000
 2158,-0.00003022,0.00006873,0.00129482,0.00045410,-0.00059875,-0.00007
 996,0.00056035,0.00027184,0.00210645,-0.06209370,-0.05912086,-0.001129
 23,0.00083584,0.00636145,-0.00010200,0.00042217,0.00034078,-0.00030490
 ,0.00002598,-0.00034369,0.00013497,-0.00000236,0.00001351,-0.00008308,
 -0.00006068,-0.00002292,-0.00052762,0.06094121,-0.00025903,-0.00024207
 ,0.00025849,-0.00224346,0.00124855,0.00077987,0.00064964,0.00010916,-0
 .00081995,-0.00354501,-0.05931718,-0.30441258,-0.00013684,-0.00356339,
 -0.01062919,0.00005063,0.00017523,0.00025699,0.00006405,0.00004909,-0.
 00011135,-0.00026393,-0.00004271,0.00000195,-0.00009596,0.00003309,0.0
 0000723,0.00491473,0.06504804,0.32979901,0.00012552,-0.00032657,0.0000
 6833,0.00079819,0.00034267,0.00163723,-0.00002617,0.00006933,0.0000363
 8,-0.05556098,0.06192602,0.00522414,-0.01377491,0.02903723,0.00505809,
 0.00034509,-0.00067642,-0.00068736,0.00021009,-0.00021330,0.00001728,0
 .00002954,-0.00008175,-0.00000403,0.00020187,-0.00014081,0.00001085,-0
 .00145817,-0.00073004,0.00038595,0.06764737,0.00011928,0.00006889,0.00
 016221,-0.00042258,0.00067727,-0.00063505,-0.00017299,0.00046931,0.000
 02907,0.06030701,-0.29014749,-0.03108813,0.00478460,-0.00368310,-0.001
 12420,0.00023165,0.00029194,0.00076394,-0.00011165,-0.00008855,0.00005
 459,0.00007143,0.00004047,0.00002238,-0.00019923,-0.00007172,-0.000067
 32,0.00046069,-0.00482962,-0.00031913,-0.06796019,0.31599742,0.0000189
 9,0.00005720,-0.00019483,0.00024423,0.00173007,0.00065179,-0.00025573,
 -0.00024222,0.00017402,0.00447853,-0.02953757,-0.05317072,-0.00185890,
 0.01098641,0.00286502,0.00002854,-0.00045196,-0.00015825,-0.00005876,-
 0.00016457,-0.00010699,0.00004134,-0.00001308,-0.00002058,0.00011987,-
 0.00007336,-0.00005048,0.00725764,-0.03044016,-0.00144857,-0.00573207,
 0.03291279,0.05029477,-0.00015788,-0.00012593,-0.00040381,0.00148743,0
 .00136616,0.00026225,-0.00028058,-0.00010275,-0.00003003,-0.16527692,-
 0.10057922,0.08393321,-0.02931887,-0.01029208,0.00729811,-0.00015754,-
 0.00020735,-0.00014438,-0.00042322,-0.00020722,-0.00120929,-0.00005534
 ,-0.00008675,-0.00007770,0.00012502,-0.00000008,0.00003473,0.00017236,
 0.00014315,0.00053508,0.00549565,0.00333611,-0.00289506,0.18859349,0.0
 0004693,0.00008445,0.00003601,-0.00015582,0.00047487,-0.00049835,-0.00
 002167,-0.00007759,-0.00011206,-0.09220868,-0.11458155,0.06071981,0.00
 400390,0.00571565,-0.00505338,-0.00007653,-0.00018109,0.00013779,-0.00
 022767,-0.00015890,0.00001323,-0.00003539,-0.00000323,-0.00000542,0.00
 003762,0.00001639,0.00001575,0.00601952,0.00376008,-0.00332573,-0.0228
 0997,-0.01850308,0.01502607,0.10585193,0.12456604,-0.00004395,-0.00002
 837,-0.00021629,0.00122822,0.00073189,0.00029342,-0.00012850,-0.000062
 81,0.00023370,0.07434055,0.05867770,-0.09392338,-0.00917558,-0.0080488
 0,0.00750011,-0.00002248,-0.00013203,0.00000459,0.00005871,0.00018062,
 -0.00027688,0.00004341,-0.00001759,-0.00000583,0.00008397,-0.00001073,
 -0.00001090,0.02265323,0.01809640,-0.01445795,-0.00286294,-0.00219817,
 0.00138740,-0.08641437,-0.06748845,0.09950976,-0.00008318,0.00012996,0
 .00031765,0.00434058,-0.00385801,-0.00293760,0.00189374,-0.00116685,0.
 00014577,-0.00903686,0.02154596,0.00911200,-0.12891674,0.12432425,0.04
 837558,0.00040336,-0.00116529,-0.00190052,0.00022507,-0.00010996,-0.00
 059495,0.00003519,0.00015672,0.00006709,0.00005749,0.00050095,0.000121
 74,0.00114563,-0.00069246,-0.00014174,-0.00387149,-0.00033541,-0.00150
 114,-0.00054097,-0.00043552,0.00016621,0.13443500,-0.00062298,-0.00009
 553,0.00086519,0.00432228,-0.00342838,-0.00108647,0.00171292,0.0005466
 4,-0.00019478,0.00001754,0.00138490,-0.00179677,0.13244743,-0.18964025
 ,-0.09670990,0.00014463,0.00022079,-0.00216705,0.00009832,-0.00040441,
 -0.00107518,-0.00023307,0.00020589,0.00015788,-0.00073369,0.00006262,-
 0.00012608,-0.00002375,0.00001667,0.00011636,0.00122635,-0.00005790,0.
 00017794,0.00049999,-0.00104496,0.00018825,-0.13872412,0.19325607,-0.0
 0051261,0.00009386,0.00007032,0.01502179,-0.02283598,-0.00704105,0.001
 87887,-0.00021535,0.00110217,-0.00756061,0.00821906,0.00636704,0.04779
 565,-0.09030019,-0.08529530,-0.00174917,-0.00108941,-0.00466101,0.0001
 8368,0.00075017,0.00049137,-0.00004875,0.00046154,0.00009544,-0.000986
 81,0.00060516,0.00008324,0.00095896,0.00040200,0.00091463,-0.00317843,
 0.00151109,-0.00029702,-0.00092447,0.00052424,-0.00002248,-0.05108422,
 0.10201197,0.08812109,-0.06849504,-0.04610806,-0.16474783,0.00053573,0
 .00020648,0.00254930,0.00442622,0.00151356,0.01722194,-0.00031205,0.00
 020143,-0.00031917,0.00019235,0.00029951,-0.00086728,-0.00045448,0.000
 08101,0.00022507,-0.00008832,0.00008003,-0.00069377,-0.00083807,-0.002
 11710,0.00275091,-0.00009755,-0.00049051,-0.00073742,0.00005201,-0.000
 05166,0.00008588,-0.00016160,-0.00010872,0.00011252,0.00033735,0.00001
 135,0.00007352,-0.00008682,-0.00013185,0.00020613,0.06499027,-0.054143
 55,-0.05279038,-0.10854772,-0.00055435,0.00098586,0.00048527,0.0086257
 2,0.00255824,0.03502186,0.00004382,0.00017388,-0.00057833,-0.00032933,
 0.00028591,0.00025525,0.00024201,-0.00016799,-0.00039134,0.00006427,-0
 .00024924,-0.00033491,-0.00162250,-0.00322207,0.00282493,0.00050600,-0
 .00040910,0.00086058,-0.00001788,0.00000019,0.00003068,0.00033744,-0.0
 0016385,0.00003244,0.00040405,-0.00006708,0.00011209,-0.00017023,-0.00
 102215,-0.00013816,0.04661453,0.05408779,-0.13729959,-0.06786867,-0.45
 029416,-0.00056610,-0.00153868,0.00178000,-0.00741078,-0.00428460,-0.0
 2931330,-0.00005672,0.00004078,-0.00012630,0.00095177,0.00027533,0.000
 71803,0.00042386,0.00006225,-0.00026922,-0.00092660,-0.00036445,-0.000
 26653,0.00155079,0.00471545,-0.00069603,-0.00060406,-0.00095349,0.0011
 2988,-0.00011921,-0.00007636,-0.00013857,0.00002660,-0.00002407,0.0000
 7443,0.00003571,0.00001049,-0.00001526,-0.00014586,-0.00036135,0.00007
 153,0.14414019,0.07036735,0.47734550\\-0.00000021,0.00000032,0.0000000
 2,0.00000005,-0.00000008,0.,-0.00000002,0.00000012,0.,0.00000001,-0.00
 000011,0.00000003,0.00000007,0.,-0.00000004,-0.00000010,-0.00000022,0.
 00000013,0.00000022,-0.00000022,-0.00000008,0.00000002,0.00000009,-0.0
 0000005,0.00000018,0.00000028,-0.00000019,-0.00000004,-0.00000006,0.00
 000004,-0.00000021,-0.00000025,0.00000019,0.00000010,-0.00000038,0.000
 00005,0.00000014,0.00000011,-0.00000012,-0.00000022,0.00000039,0.00000
 001\\\@


 TWO ROADS DIVERGED IN A WOOD, AND I--
 I TOOK THE ONE LESS TRAVELED BY,
 AND THAT HAS MADE ALL THE DIFFERENCE.

                       -- ROBERT FROST
 Job cpu time:       0 days  1 hours 44 minutes 31.3 seconds.
 Elapsed time:       0 days  0 hours  5 minutes 14.0 seconds.
 File lengths (MBytes):  RWF=   1376 Int=      0 D2E=      0 Chk=     32 Scr=     32
 Normal termination of Gaussian 16 at Tue Apr  9 01:48:17 2019.
