 Entering Gaussian System, Link 0=g16
 Input=DBQZVPSKYUCKNT-UHFFFAOYSA-N_GeoFreq_a1.com
 Output=DBQZVPSKYUCKNT-UHFFFAOYSA-N_GeoFreq_a1.log
 Initial command:
 /shared/centos7/gaussian/g16/l1.exe "/scratch/underkoffler.c/gaussian_scratch/Gau-35072.inp" -scrdir="/scratch/underkoffler.c/gaussian_scratch/"
 Entering Link 1 = /shared/centos7/gaussian/g16/l1.exe PID=     35073.
  
 Copyright (c) 1988,1990,1992,1993,1995,1998,2003,2009,2016,
            Gaussian, Inc.  All Rights Reserved.
  
 This is part of the Gaussian(R) 16 program.  It is based on
 the Gaussian(R) 09 system (copyright 2009, Gaussian, Inc.),
 the Gaussian(R) 03 system (copyright 2003, Gaussian, Inc.),
 the Gaussian(R) 98 system (copyright 1998, Gaussian, Inc.),
 the Gaussian(R) 94 system (copyright 1995, Gaussian, Inc.),
 the Gaussian 92(TM) system (copyright 1992, Gaussian, Inc.),
 the Gaussian 90(TM) system (copyright 1990, Gaussian, Inc.),
 the Gaussian 88(TM) system (copyright 1988, Gaussian, Inc.),
 the Gaussian 86(TM) system (copyright 1986, Carnegie Mellon
 University), and the Gaussian 82(TM) system (copyright 1983,
 Carnegie Mellon University). Gaussian is a federally registered
 trademark of Gaussian, Inc.
  
 This software contains proprietary and confidential information,
 including trade secrets, belonging to Gaussian, Inc.
  
 This software is provided under written license and may be
 used, copied, transmitted, or stored only in accord with that
 written license.
  
 The following legend is applicable only to US Government
 contracts under FAR:
  
                    RESTRICTED RIGHTS LEGEND
  
 Use, reproduction and disclosure by the US Government is
 subject to restrictions as set forth in subparagraphs (a)
 and (c) of the Commercial Computer Software - Restricted
 Rights clause in FAR 52.227-19.
  
 Gaussian, Inc.
 340 Quinnipiac St., Bldg. 40, Wallingford CT 06492
  
  
 ---------------------------------------------------------------
 Warning -- This program may not be used in any manner that
 competes with the business of Gaussian, Inc. or will provide
 assistance to any competitor of Gaussian, Inc.  The licensee
 of this program is prohibited from giving any competitor of
 Gaussian, Inc. access to this program.  By using this program,
 the user acknowledges that Gaussian, Inc. is engaged in the
 business of creating and licensing software in the field of
 computational chemistry and represents and warrants to the
 licensee that it is not a competitor of Gaussian, Inc. and that
 it will not use this program in any manner prohibited above.
 ---------------------------------------------------------------
  

 Cite this work as:
 Gaussian 16, Revision A.03,
 M. J. Frisch, G. W. Trucks, H. B. Schlegel, G. E. Scuseria, 
 M. A. Robb, J. R. Cheeseman, G. Scalmani, V. Barone, 
 G. A. Petersson, H. Nakatsuji, X. Li, M. Caricato, A. V. Marenich, 
 J. Bloino, B. G. Janesko, R. Gomperts, B. Mennucci, H. P. Hratchian, 
 J. V. Ortiz, A. F. Izmaylov, J. L. Sonnenberg, D. Williams-Young, 
 F. Ding, F. Lipparini, F. Egidi, J. Goings, B. Peng, A. Petrone, 
 T. Henderson, D. Ranasinghe, V. G. Zakrzewski, J. Gao, N. Rega, 
 G. Zheng, W. Liang, M. Hada, M. Ehara, K. Toyota, R. Fukuda, 
 J. Hasegawa, M. Ishida, T. Nakajima, Y. Honda, O. Kitao, H. Nakai, 
 T. Vreven, K. Throssell, J. A. Montgomery, Jr., J. E. Peralta, 
 F. Ogliaro, M. J. Bearpark, J. J. Heyd, E. N. Brothers, K. N. Kudin, 
 V. N. Staroverov, T. A. Keith, R. Kobayashi, J. Normand, 
 K. Raghavachari, A. P. Rendell, J. C. Burant, S. S. Iyengar, 
 J. Tomasi, M. Cossi, J. M. Millam, M. Klene, C. Adamo, R. Cammi, 
 J. W. Ochterski, R. L. Martin, K. Morokuma, O. Farkas, 
 J. B. Foresman, and D. J. Fox, Gaussian, Inc., Wallingford CT, 2016.
 
 ******************************************
 Gaussian 16:  EM64L-G16RevA.03 25-Dec-2016
                11-Mar-2019 
 ******************************************
 %nprocshared=20
 Will use up to   20 processors via shared memory.
 %mem=5GB
 ----------------------------------------------------------------------
 #p m062x/6-311+g(2df,2p) opt=(calcfc,verytight,gdiis,maxcycles=900) fr
 eq iop(7/33=1,2/16=3)
 ----------------------------------------------------------------------

 Warning!  Use of Opt=GDIIS is deprecated since it is seldom a good choice.

 1/6=900,7=1,10=4,18=20,19=11,26=3,38=1/1,3;
 2/9=110,12=2,16=3,17=6,18=5,40=1/2;
 3/5=4,6=6,7=214,11=2,25=1,30=1,71=2,74=-55,140=1/1,2,3;
 4//1;
 5/5=2,38=5/2;
 8/6=4,10=90,11=11/1;
 11/6=1,8=1,9=11,15=111,16=1/1,2,10;
 10/6=1,13=1/2;
 6/7=2,8=2,9=2,10=2,28=1/1;
 7/10=1,18=20,25=1,33=1/1,2,3,16;
 1/6=900,7=1,10=4,18=20,19=11,26=3/3(2);
 2/9=110,16=3/2;
 99//99;
 2/9=110,16=3/2;
 3/5=4,6=6,7=214,11=2,25=1,30=1,71=1,74=-55/1,2,3;
 4/5=5,16=3,69=1/1;
 5/5=2,38=5/2;
 7/33=1/1,2,3,16;
 1/6=900,7=1,18=20,19=11,26=3/3(-5);
 2/9=110,16=3/2;
 6/7=2,8=2,9=2,10=2,19=2,28=1/1;
 99/9=1/99;
 Leave Link    1 at Mon Mar 11 15:40:20 2019, MaxMem=   671088640 cpu:              16.8 elap:               0.9
 (Enter /shared/centos7/gaussian/g16/l101.exe)
 ------------------------------
 Gaussian input prepared by ASE
 ------------------------------
 Symbolic Z-matrix:
 Charge =  0 Multiplicity = 2
 O                    -1.82185  -0.87134   0.20087 
 C                    -0.04853   0.79943   0.24821 
 C                    -1.4708    0.4457   -0.16896 
 C                     2.30047  -0.29839   0.14684 
 C                     0.96694  -0.03476  -0.45433 
 H                     0.04811   0.67544   1.33027 
 H                     0.1177    1.86673   0.04054 
 H                    -2.18756   1.10035   0.32437 
 H                    -1.58023   0.58565  -1.25114 
 H                     2.84279  -1.07635  -0.38808 
 H                     2.93163   0.60015   0.13782 
 H                     2.20657  -0.5988    1.19262 
 H                     0.83512  -0.19211  -1.51924 
 H                    -1.12787  -1.46226  -0.1047 
 
 ITRead=  0  0  0  0  0  0  0  0  0  0  0  0  0  0
 MicOpt= -1 -1 -1 -1 -1 -1 -1 -1 -1 -1 -1 -1 -1 -1
 NAtoms=     14 NQM=       14 NQMF=       0 NMMI=      0 NMMIF=      0
                NMic=       0 NMicF=      0.
                    Isotopes and Nuclear Properties:
 (Nuclear quadrupole moments (NQMom) in fm**2, nuclear magnetic moments (NMagM)
  in nuclear magnetons)

  Atom         1           2           3           4           5           6           7           8           9          10
 IAtWgt=          16          12          12          12          12           1           1           1           1           1
 AtmWgt=  15.9949146  12.0000000  12.0000000  12.0000000  12.0000000   1.0078250   1.0078250   1.0078250   1.0078250   1.0078250
 NucSpn=           0           0           0           0           0           1           1           1           1           1
 AtZEff=  -0.0000000  -0.0000000  -0.0000000  -0.0000000  -0.0000000  -0.0000000  -0.0000000  -0.0000000  -0.0000000  -0.0000000
 NQMom=    0.0000000   0.0000000   0.0000000   0.0000000   0.0000000   0.0000000   0.0000000   0.0000000   0.0000000   0.0000000
 NMagM=    0.0000000   0.0000000   0.0000000   0.0000000   0.0000000   2.7928460   2.7928460   2.7928460   2.7928460   2.7928460
 AtZNuc=   8.0000000   6.0000000   6.0000000   6.0000000   6.0000000   1.0000000   1.0000000   1.0000000   1.0000000   1.0000000

  Atom        11          12          13          14
 IAtWgt=           1           1           1           1
 AtmWgt=   1.0078250   1.0078250   1.0078250   1.0078250
 NucSpn=           1           1           1           1
 AtZEff=  -0.0000000  -0.0000000  -0.0000000  -0.0000000
 NQMom=    0.0000000   0.0000000   0.0000000   0.0000000
 NMagM=    2.7928460   2.7928460   2.7928460   2.7928460
 AtZNuc=   1.0000000   1.0000000   1.0000000   1.0000000
 Leave Link  101 at Mon Mar 11 15:40:21 2019, MaxMem=   671088640 cpu:               5.4 elap:               0.3
 (Enter /shared/centos7/gaussian/g16/l103.exe)

 GradGradGradGradGradGradGradGradGradGradGradGradGradGradGradGradGradGrad
 Berny optimization.
 Initialization pass.
                           ----------------------------
                           !    Initial Parameters    !
                           ! (Angstroms and Degrees)  !
 --------------------------                            --------------------------
 ! Name  Definition              Value          Derivative Info.                !
 --------------------------------------------------------------------------------
 ! R1    R(1,3)                  1.4123         calculate D2E/DX2 analytically  !
 ! R2    R(1,14)                 0.9613         calculate D2E/DX2 analytically  !
 ! R3    R(2,3)                  1.5238         calculate D2E/DX2 analytically  !
 ! R4    R(2,5)                  1.4902         calculate D2E/DX2 analytically  !
 ! R5    R(2,6)                  1.0934         calculate D2E/DX2 analytically  !
 ! R6    R(2,7)                  1.1            calculate D2E/DX2 analytically  !
 ! R7    R(3,8)                  1.0889         calculate D2E/DX2 analytically  !
 ! R8    R(3,9)                  1.0967         calculate D2E/DX2 analytically  !
 ! R9    R(4,5)                  1.4863         calculate D2E/DX2 analytically  !
 ! R10   R(4,10)                 1.0888         calculate D2E/DX2 analytically  !
 ! R11   R(4,11)                 1.0981         calculate D2E/DX2 analytically  !
 ! R12   R(4,12)                 1.0921         calculate D2E/DX2 analytically  !
 ! R13   R(5,13)                 1.0845         calculate D2E/DX2 analytically  !
 ! A1    A(3,1,14)             108.0929         calculate D2E/DX2 analytically  !
 ! A2    A(3,2,5)              112.1496         calculate D2E/DX2 analytically  !
 ! A3    A(3,2,6)              109.0924         calculate D2E/DX2 analytically  !
 ! A4    A(3,2,7)              108.337          calculate D2E/DX2 analytically  !
 ! A5    A(5,2,6)              110.0503         calculate D2E/DX2 analytically  !
 ! A6    A(5,2,7)              110.5601         calculate D2E/DX2 analytically  !
 ! A7    A(6,2,7)              106.4694         calculate D2E/DX2 analytically  !
 ! A8    A(1,3,2)              112.1344         calculate D2E/DX2 analytically  !
 ! A9    A(1,3,8)              106.1645         calculate D2E/DX2 analytically  !
 ! A10   A(1,3,9)              110.647          calculate D2E/DX2 analytically  !
 ! A11   A(2,3,8)              110.5363         calculate D2E/DX2 analytically  !
 ! A12   A(2,3,9)              109.491          calculate D2E/DX2 analytically  !
 ! A13   A(8,3,9)              107.7383         calculate D2E/DX2 analytically  !
 ! A14   A(5,4,10)             112.0185         calculate D2E/DX2 analytically  !
 ! A15   A(5,4,11)             111.545          calculate D2E/DX2 analytically  !
 ! A16   A(5,4,12)             111.0357         calculate D2E/DX2 analytically  !
 ! A17   A(10,4,11)            107.1182         calculate D2E/DX2 analytically  !
 ! A18   A(10,4,12)            108.4646         calculate D2E/DX2 analytically  !
 ! A19   A(11,4,12)            106.4018         calculate D2E/DX2 analytically  !
 ! A20   A(2,5,4)              121.3318         calculate D2E/DX2 analytically  !
 ! A21   A(2,5,13)             117.4721         calculate D2E/DX2 analytically  !
 ! A22   A(4,5,13)             118.7159         calculate D2E/DX2 analytically  !
 ! D1    D(14,1,3,2)           -50.4138         calculate D2E/DX2 analytically  !
 ! D2    D(14,1,3,8)          -171.2242         calculate D2E/DX2 analytically  !
 ! D3    D(14,1,3,9)            72.1473         calculate D2E/DX2 analytically  !
 ! D4    D(5,2,3,1)             64.3593         calculate D2E/DX2 analytically  !
 ! D5    D(5,2,3,8)           -177.391          calculate D2E/DX2 analytically  !
 ! D6    D(5,2,3,9)            -58.855          calculate D2E/DX2 analytically  !
 ! D7    D(6,2,3,1)            -57.8226         calculate D2E/DX2 analytically  !
 ! D8    D(6,2,3,8)             60.4271         calculate D2E/DX2 analytically  !
 ! D9    D(6,2,3,9)            178.9631         calculate D2E/DX2 analytically  !
 ! D10   D(7,2,3,1)           -173.3394         calculate D2E/DX2 analytically  !
 ! D11   D(7,2,3,8)            -55.0897         calculate D2E/DX2 analytically  !
 ! D12   D(7,2,3,9)             63.4463         calculate D2E/DX2 analytically  !
 ! D13   D(3,2,5,4)           -153.9744         calculate D2E/DX2 analytically  !
 ! D14   D(3,2,5,13)            44.1255         calculate D2E/DX2 analytically  !
 ! D15   D(6,2,5,4)            -32.3394         calculate D2E/DX2 analytically  !
 ! D16   D(6,2,5,13)           165.7605         calculate D2E/DX2 analytically  !
 ! D17   D(7,2,5,4)             84.9972         calculate D2E/DX2 analytically  !
 ! D18   D(7,2,5,13)           -76.9028         calculate D2E/DX2 analytically  !
 ! D19   D(10,4,5,2)           168.5372         calculate D2E/DX2 analytically  !
 ! D20   D(10,4,5,13)          -29.7812         calculate D2E/DX2 analytically  !
 ! D21   D(11,4,5,2)           -71.3955         calculate D2E/DX2 analytically  !
 ! D22   D(11,4,5,13)           90.2861         calculate D2E/DX2 analytically  !
 ! D23   D(12,4,5,2)            47.1005         calculate D2E/DX2 analytically  !
 ! D24   D(12,4,5,13)         -151.2178         calculate D2E/DX2 analytically  !
 --------------------------------------------------------------------------------
 Trust Radius=3.00D-01 FncErr=1.00D-07 GrdErr=1.00D-06 EigMax=2.50D+02 EigMin=1.00D-04
 Number of steps in this run=    100 maximum allowed number of steps=    100.
 GradGradGradGradGradGradGradGradGradGradGradGradGradGradGradGradGradGrad

 Leave Link  103 at Mon Mar 11 15:40:21 2019, MaxMem=   671088640 cpu:               0.2 elap:               0.0
 (Enter /shared/centos7/gaussian/g16/l202.exe)
                          Input orientation:                          
 ---------------------------------------------------------------------
 Center     Atomic      Atomic             Coordinates (Angstroms)
 Number     Number       Type             X           Y           Z
 ---------------------------------------------------------------------
      1          8           0       -1.821845   -0.871336    0.200873
      2          6           0       -0.048528    0.799425    0.248210
      3          6           0       -1.470801    0.445704   -0.168958
      4          6           0        2.300469   -0.298385    0.146836
      5          6           0        0.966941   -0.034763   -0.454326
      6          1           0        0.048111    0.675440    1.330272
      7          1           0        0.117700    1.866733    0.040543
      8          1           0       -2.187561    1.100346    0.324368
      9          1           0       -1.580227    0.585654   -1.251140
     10          1           0        2.842787   -1.076352   -0.388079
     11          1           0        2.931629    0.600153    0.137815
     12          1           0        2.206573   -0.598804    1.192617
     13          1           0        0.835120   -0.192112   -1.519244
     14          1           0       -1.127865   -1.462263   -0.104700
 ---------------------------------------------------------------------
                    Distance matrix (angstroms):
                    1          2          3          4          5
     1  O    0.000000
     2  C    2.436870   0.000000
     3  C    1.412304   1.523814   0.000000
     4  C    4.162291   2.594851   3.856925   0.000000
     5  C    2.984371   1.490169   2.500974   1.486334   0.000000
     6  H    2.676713   1.093421   2.146523   2.724330   2.129185
     7  H    3.359250   1.099956   2.141623   3.076283   2.140512
     8  H    2.009112   2.161438   1.088885   4.704294   3.441761
     9  H    2.071121   2.154031   1.096667   4.218491   2.740054
    10  H    4.706133   3.504726   4.579488   1.088795   2.146647
    11  H    4.976422   2.988851   4.415807   1.098096   2.147964
    12  H    4.157641   2.816457   4.058074   1.092120   2.137113
    13  H    3.237223   2.210853   2.747245   2.221343   1.084521
    14  H    0.961342   2.530760   1.939606   3.629236   2.558946
                    6          7          8          9         10
     6  H    0.000000
     7  H    1.757106   0.000000
     8  H    2.488095   2.445840   0.000000
     9  H    3.053397   2.488486   1.765216   0.000000
    10  H    3.719102   4.033803   5.527205   4.803144   0.000000
    11  H    3.121265   3.087375   5.146951   4.720832   1.759297
    12  H    2.510300   3.430676   4.790551   4.659908   1.769582
    13  H    3.080872   2.680759   3.769079   2.551608   2.468226
    14  H    2.830519   3.557350   2.806068   2.390172   3.999413
                   11         12         13         14
    11  H    0.000000
    12  H    1.753799   0.000000
    13  H    2.787271   3.066019   0.000000
    14  H    4.559810   3.680634   2.732678   0.000000
 Stoichiometry    C4H9O(2)
 Framework group  C1[X(C4H9O)]
 Deg. of freedom    36
 Full point group                 C1      NOp   1
 Largest Abelian subgroup         C1      NOp   1
 Largest concise Abelian subgroup C1      NOp   1
                         Standard orientation:                         
 ---------------------------------------------------------------------
 Center     Atomic      Atomic             Coordinates (Angstroms)
 Number     Number       Type             X           Y           Z
 ---------------------------------------------------------------------
      1          8           0        1.821845   -0.871336   -0.200873
      2          6           0        0.048528    0.799425   -0.248210
      3          6           0        1.470801    0.445704    0.168958
      4          6           0       -2.300469   -0.298385   -0.146836
      5          6           0       -0.966941   -0.034763    0.454326
      6          1           0       -0.048111    0.675440   -1.330272
      7          1           0       -0.117700    1.866733   -0.040543
      8          1           0        2.187561    1.100346   -0.324368
      9          1           0        1.580227    0.585654    1.251140
     10          1           0       -2.842787   -1.076352    0.388079
     11          1           0       -2.931629    0.600153   -0.137815
     12          1           0       -2.206573   -0.598804   -1.192617
     13          1           0       -0.835120   -0.192112    1.519244
     14          1           0        1.127865   -1.462263    0.104700
 ---------------------------------------------------------------------
 Rotational constants (GHZ):          11.3293782           2.5707622           2.3229764
 Leave Link  202 at Mon Mar 11 15:40:21 2019, MaxMem=   671088640 cpu:               0.2 elap:               0.0
 (Enter /shared/centos7/gaussian/g16/l301.exe)
 Standard basis: 6-311+G(2df,2p) (5D, 7F)
 Ernie: Thresh=  0.10000D-02 Tol=  0.10000D-05 Strict=F.
 There are   276 symmetry adapted cartesian basis functions of A   symmetry.
 There are   251 symmetry adapted basis functions of A   symmetry.
   251 basis functions,   359 primitive gaussians,   276 cartesian basis functions
    21 alpha electrons       20 beta electrons
       nuclear repulsion energy       179.6541282929 Hartrees.
 IExCor= 4336 DFT=T Ex+Corr=M062X ExCW=0 ScaHFX=  0.540000
 ScaDFX=  1.000000  1.000000  1.000000  1.000000 ScalE2=  1.000000  1.000000
 IRadAn=      5 IRanWt=     -1 IRanGd=            0 ICorTp=0 IEmpDi=  4
 NAtoms=   14 NActive=   14 NUniq=   14 SFac= 1.00D+00 NAtFMM=   60 NAOKFM=F Big=F
 Integral buffers will be    131072 words long.
 Raffenetti 2 integral format.
 Two-electron integral symmetry is turned on.
 Leave Link  301 at Mon Mar 11 15:40:21 2019, MaxMem=   671088640 cpu:               1.3 elap:               0.1
 (Enter /shared/centos7/gaussian/g16/l302.exe)
 NPDir=0 NMtPBC=     1 NCelOv=     1 NCel=       1 NClECP=     1 NCelD=      1
         NCelK=      1 NCelE2=     1 NClLst=     1 CellRange=     0.0.
 One-electron integrals computed using PRISM.
 One-electron integral symmetry used in STVInt
 NBasis=   251 RedAO= T EigKep=  4.01D-05  NBF=   251
 NBsUse=   251 1.00D-06 EigRej= -1.00D+00 NBFU=   251
 Precomputing XC quadrature grid using
 IXCGrd= 4 IRadAn=           5 IRanWt=          -1 IRanGd=           0 AccXCQ= 0.00D+00.
 Generated NRdTot=       0 NPtTot=           0 NUsed=           0 NTot=          32
 NSgBfM=   276   276   276   276   276 MxSgAt=    14 MxSgA2=    14.
 Leave Link  302 at Mon Mar 11 15:40:21 2019, MaxMem=   671088640 cpu:               8.5 elap:               0.4
 (Enter /shared/centos7/gaussian/g16/l303.exe)
 DipDrv:  MaxL=1.
 Leave Link  303 at Mon Mar 11 15:40:21 2019, MaxMem=   671088640 cpu:               0.7 elap:               0.1
 (Enter /shared/centos7/gaussian/g16/l401.exe)
 ExpMin= 4.38D-02 ExpMax= 8.59D+03 ExpMxC= 1.30D+03 IAcc=3 IRadAn=         5 AccDes= 0.00D+00
 Harris functional with IExCor= 1009 and IRadAn=       5 diagonalized for initial guess.
 HarFok:  IExCor= 1009 AccDes= 0.00D+00 IRadAn=         5 IDoV= 1 UseB2=F ITyADJ=14
 ICtDFT=  3500011 ScaDFX=  1.000000  1.000000  1.000000  1.000000
 FoFCou: FMM=F IPFlag=           0 FMFlag=      100000 FMFlg1=           0
         NFxFlg=           0 DoJE=T BraDBF=F KetDBF=T FulRan=T
         wScrn=  0.000000 ICntrl=       500 IOpCl=  0 I1Cent=   200000004 NGrid=           0
         NMat0=    1 NMatS0=      1 NMatT0=    0 NMatD0=    1 NMtDS0=    0 NMtDT0=    0
 Petite list used in FoFCou.
 Harris En= -232.903223761781    
 JPrj=0 DoOrth=F DoCkMO=F.
 Initial guess <Sx>= 0.0000 <Sy>= 0.0000 <Sz>= 0.5000 <S**2>= 0.7500 S= 0.5000
 Leave Link  401 at Mon Mar 11 15:40:23 2019, MaxMem=   671088640 cpu:              25.1 elap:               1.3
 (Enter /shared/centos7/gaussian/g16/l502.exe)
 Integral symmetry usage will be decided dynamically.
 UHF open shell SCF:
 Using DIIS extrapolation, IDIIS=  1040.
 NGot=   671088640 LenX=   670928170 LenY=   670851553
 Requested convergence on RMS density matrix=1.00D-08 within 128 cycles.
 Requested convergence on MAX density matrix=1.00D-06.
 Requested convergence on             energy=1.00D-06.
 No special actions if energy rises.
 Fock matrices will be formed incrementally for  20 cycles.

 Cycle   1  Pass 1  IDiag  1:
 FoFJK:  IHMeth= 1 ICntrl=       0 DoSepK=F KAlg= 0 I1Cent=           0 FoldK=F
 IRaf= 970000000 NMat=       1 IRICut=       1 DoRegI=T DoRafI=F ISym2E= 0 IDoP0=0 IntGTp=1.
 FoFCou: FMM=F IPFlag=           0 FMFlag=      100000 FMFlg1=           0
         NFxFlg=           0 DoJE=F BraDBF=F KetDBF=F FulRan=T
         wScrn=  0.000000 ICntrl=         0 IOpCl=  1 I1Cent=           0 NGrid=           0
         NMat0=    1 NMatS0=      1 NMatT0=    0 NMatD0=    1 NMtDS0=    0 NMtDT0=    0
 Symmetry not used in FoFCou.
 E= -232.773358427086    
 DIIS: error= 2.21D-02 at cycle   1 NSaved=   1.
 NSaved= 1 IEnMin= 1 EnMin= -232.773358427086     IErMin= 1 ErrMin= 2.21D-02
 ErrMax= 2.21D-02  0.00D+00 EMaxC= 1.00D-01 BMatC= 9.41D-01 BMatP= 9.41D-01
 IDIUse=3 WtCom= 7.79D-01 WtEn= 2.21D-01
 Coeff-Com:  0.100D+01
 Coeff-En:   0.100D+01
 Coeff:      0.100D+01
 Gap=     0.230 Goal=   None    Shift=    0.000
 Gap=     0.314 Goal=   None    Shift=    0.000
 GapD=    0.230 DampG=1.000 DampE=0.500 DampFc=0.5000 IDamp=-1.
 Damping current iteration by 5.00D-01
 RMSDP=3.99D-03 MaxDP=2.48D-01              OVMax= 1.48D-01

 Cycle   2  Pass 1  IDiag  1:
 RMSU=  1.99D-03    CP:  9.88D-01
 E= -232.872193193793     Delta-E=       -0.098834766706 Rises=F Damp=T
 DIIS: error= 4.97D-03 at cycle   2 NSaved=   2.
 NSaved= 2 IEnMin= 2 EnMin= -232.872193193793     IErMin= 2 ErrMin= 4.97D-03
 ErrMax= 4.97D-03  0.00D+00 EMaxC= 1.00D-01 BMatC= 5.78D-02 BMatP= 9.41D-01
 IDIUse=3 WtCom= 9.50D-01 WtEn= 4.97D-02
 Coeff-Com: -0.837D-01 0.108D+01
 Coeff-En:   0.000D+00 0.100D+01
 Coeff:     -0.795D-01 0.108D+01
 Gap=     0.269 Goal=   None    Shift=    0.000
 Gap=     0.351 Goal=   None    Shift=    0.000
 RMSDP=1.25D-03 MaxDP=7.46D-02 DE=-9.88D-02 OVMax= 8.16D-02

 Cycle   3  Pass 1  IDiag  1:
 RMSU=  1.25D-03    CP:  9.79D-01  9.53D-01
 E= -232.966981108882     Delta-E=       -0.094787915090 Rises=F Damp=F
 DIIS: error= 3.68D-03 at cycle   3 NSaved=   3.
 NSaved= 3 IEnMin= 3 EnMin= -232.966981108882     IErMin= 3 ErrMin= 3.68D-03
 ErrMax= 3.68D-03  0.00D+00 EMaxC= 1.00D-01 BMatC= 1.41D-02 BMatP= 5.78D-02
 IDIUse=3 WtCom= 9.63D-01 WtEn= 3.68D-02
 Coeff-Com: -0.745D-01 0.326D+00 0.748D+00
 Coeff-En:   0.000D+00 0.000D+00 0.100D+01
 Coeff:     -0.717D-01 0.314D+00 0.757D+00
 Gap=     0.269 Goal=   None    Shift=    0.000
 Gap=     0.317 Goal=   None    Shift=    0.000
 RMSDP=2.87D-04 MaxDP=2.26D-02 DE=-9.48D-02 OVMax= 1.53D-02

 Cycle   4  Pass 1  IDiag  1:
 RMSU=  2.23D-04    CP:  9.81D-01  1.04D+00  9.72D-01
 E= -232.968936413371     Delta-E=       -0.001955304489 Rises=F Damp=F
 DIIS: error= 1.65D-03 at cycle   4 NSaved=   4.
 NSaved= 4 IEnMin= 4 EnMin= -232.968936413371     IErMin= 4 ErrMin= 1.65D-03
 ErrMax= 1.65D-03  0.00D+00 EMaxC= 1.00D-01 BMatC= 3.38D-03 BMatP= 1.41D-02
 IDIUse=3 WtCom= 9.83D-01 WtEn= 1.65D-02
 Coeff-Com: -0.262D-01 0.613D-01 0.365D+00 0.600D+00
 Coeff-En:   0.000D+00 0.000D+00 0.105D+00 0.895D+00
 Coeff:     -0.258D-01 0.603D-01 0.361D+00 0.605D+00
 Gap=     0.267 Goal=   None    Shift=    0.000
 Gap=     0.323 Goal=   None    Shift=    0.000
 RMSDP=1.31D-04 MaxDP=1.10D-02 DE=-1.96D-03 OVMax= 5.51D-03

 Cycle   5  Pass 1  IDiag  1:
 RMSU=  7.35D-05    CP:  9.79D-01  1.02D+00  1.02D+00  6.45D-01
 E= -232.969592384894     Delta-E=       -0.000655971523 Rises=F Damp=F
 DIIS: error= 2.58D-04 at cycle   5 NSaved=   5.
 NSaved= 5 IEnMin= 5 EnMin= -232.969592384894     IErMin= 5 ErrMin= 2.58D-04
 ErrMax= 2.58D-04  0.00D+00 EMaxC= 1.00D-01 BMatC= 9.90D-05 BMatP= 3.38D-03
 IDIUse=3 WtCom= 9.97D-01 WtEn= 2.58D-03
 Coeff-Com: -0.192D-03-0.900D-02 0.225D-01 0.133D+00 0.853D+00
 Coeff-En:   0.000D+00 0.000D+00 0.000D+00 0.000D+00 0.100D+01
 Coeff:     -0.192D-03-0.898D-02 0.225D-01 0.133D+00 0.854D+00
 Gap=     0.269 Goal=   None    Shift=    0.000
 Gap=     0.322 Goal=   None    Shift=    0.000
 RMSDP=4.53D-05 MaxDP=3.67D-03 DE=-6.56D-04 OVMax= 2.61D-03

 Cycle   6  Pass 1  IDiag  1:
 RMSU=  3.10D-05    CP:  9.80D-01  1.03D+00  1.03D+00  7.51D-01  1.09D+00
 E= -232.969628806655     Delta-E=       -0.000036421761 Rises=F Damp=F
 DIIS: error= 1.28D-04 at cycle   6 NSaved=   6.
 NSaved= 6 IEnMin= 6 EnMin= -232.969628806655     IErMin= 6 ErrMin= 1.28D-04
 ErrMax= 1.28D-04  0.00D+00 EMaxC= 1.00D-01 BMatC= 1.29D-05 BMatP= 9.90D-05
 IDIUse=3 WtCom= 9.99D-01 WtEn= 1.28D-03
 Coeff-Com:  0.375D-02-0.976D-02-0.490D-01-0.724D-01 0.807D-01 0.105D+01
 Coeff-En:   0.000D+00 0.000D+00 0.000D+00 0.000D+00 0.000D+00 0.100D+01
 Coeff:      0.374D-02-0.975D-02-0.489D-01-0.724D-01 0.806D-01 0.105D+01
 Gap=     0.269 Goal=   None    Shift=    0.000
 Gap=     0.323 Goal=   None    Shift=    0.000
 RMSDP=1.59D-05 MaxDP=9.90D-04 DE=-3.64D-05 OVMax= 1.31D-03

 Cycle   7  Pass 1  IDiag  1:
 RMSU=  1.13D-05    CP:  9.80D-01  1.02D+00  1.03D+00  7.56D-01  1.21D+00
                    CP:  1.10D+00
 E= -232.969636368277     Delta-E=       -0.000007561622 Rises=F Damp=F
 DIIS: error= 5.41D-05 at cycle   7 NSaved=   7.
 NSaved= 7 IEnMin= 7 EnMin= -232.969636368277     IErMin= 7 ErrMin= 5.41D-05
 ErrMax= 5.41D-05  0.00D+00 EMaxC= 1.00D-01 BMatC= 2.83D-06 BMatP= 1.29D-05
 IDIUse=1 WtCom= 1.00D+00 WtEn= 0.00D+00
 Coeff-Com:  0.122D-02-0.210D-02-0.201D-01-0.451D-01-0.929D-01 0.382D+00
 Coeff-Com:  0.777D+00
 Coeff:      0.122D-02-0.210D-02-0.201D-01-0.451D-01-0.929D-01 0.382D+00
 Coeff:      0.777D+00
 Gap=     0.269 Goal=   None    Shift=    0.000
 Gap=     0.323 Goal=   None    Shift=    0.000
 RMSDP=6.29D-06 MaxDP=3.11D-04 DE=-7.56D-06 OVMax= 6.08D-04

 Cycle   8  Pass 1  IDiag  1:
 RMSU=  3.87D-06    CP:  9.80D-01  1.02D+00  1.04D+00  7.65D-01  1.22D+00
                    CP:  1.22D+00  1.19D+00
 E= -232.969637401543     Delta-E=       -0.000001033266 Rises=F Damp=F
 DIIS: error= 1.33D-05 at cycle   8 NSaved=   8.
 NSaved= 8 IEnMin= 8 EnMin= -232.969637401543     IErMin= 8 ErrMin= 1.33D-05
 ErrMax= 1.33D-05  0.00D+00 EMaxC= 1.00D-01 BMatC= 1.55D-07 BMatP= 2.83D-06
 IDIUse=1 WtCom= 1.00D+00 WtEn= 0.00D+00
 Coeff-Com: -0.246D-03 0.706D-03 0.193D-02-0.339D-03-0.219D-01-0.423D-01
 Coeff-Com:  0.127D+00 0.936D+00
 Coeff:     -0.246D-03 0.706D-03 0.193D-02-0.339D-03-0.219D-01-0.423D-01
 Coeff:      0.127D+00 0.936D+00
 Gap=     0.269 Goal=   None    Shift=    0.000
 Gap=     0.323 Goal=   None    Shift=    0.000
 RMSDP=2.39D-06 MaxDP=1.62D-04 DE=-1.03D-06 OVMax= 1.19D-04

 Cycle   9  Pass 1  IDiag  1:
 RMSU=  1.36D-06    CP:  9.80D-01  1.02D+00  1.03D+00  7.64D-01  1.22D+00
                    CP:  1.23D+00  1.31D+00  1.23D+00
 E= -232.969637467538     Delta-E=       -0.000000065995 Rises=F Damp=F
 DIIS: error= 4.77D-06 at cycle   9 NSaved=   9.
 NSaved= 9 IEnMin= 9 EnMin= -232.969637467538     IErMin= 9 ErrMin= 4.77D-06
 ErrMax= 4.77D-06  0.00D+00 EMaxC= 1.00D-01 BMatC= 1.31D-08 BMatP= 1.55D-07
 IDIUse=1 WtCom= 1.00D+00 WtEn= 0.00D+00
 Coeff-Com: -0.176D-03 0.371D-03 0.240D-02 0.454D-02 0.589D-02-0.473D-01
 Coeff-Com: -0.558D-01 0.162D+00 0.928D+00
 Coeff:     -0.176D-03 0.371D-03 0.240D-02 0.454D-02 0.589D-02-0.473D-01
 Coeff:     -0.558D-01 0.162D+00 0.928D+00
 Gap=     0.269 Goal=   None    Shift=    0.000
 Gap=     0.323 Goal=   None    Shift=    0.000
 RMSDP=1.20D-06 MaxDP=1.37D-04 DE=-6.60D-08 OVMax= 5.08D-05

 Cycle  10  Pass 1  IDiag  1:
 RMSU=  4.66D-07    CP:  9.80D-01  1.02D+00  1.03D+00  7.63D-01  1.21D+00
                    CP:  1.22D+00  1.36D+00  1.37D+00  1.08D+00
 E= -232.969637473923     Delta-E=       -0.000000006384 Rises=F Damp=F
 DIIS: error= 8.90D-07 at cycle  10 NSaved=  10.
 NSaved=10 IEnMin=10 EnMin= -232.969637473923     IErMin=10 ErrMin= 8.90D-07
 ErrMax= 8.90D-07  0.00D+00 EMaxC= 1.00D-01 BMatC= 9.57D-10 BMatP= 1.31D-08
 IDIUse=1 WtCom= 1.00D+00 WtEn= 0.00D+00
 Coeff-Com:  0.419D-05-0.133D-04 0.115D-03 0.466D-03 0.190D-02-0.242D-02
 Coeff-Com: -0.126D-01-0.511D-01 0.107D+00 0.956D+00
 Coeff:      0.419D-05-0.133D-04 0.115D-03 0.466D-03 0.190D-02-0.242D-02
 Coeff:     -0.126D-01-0.511D-01 0.107D+00 0.956D+00
 Gap=     0.269 Goal=   None    Shift=    0.000
 Gap=     0.323 Goal=   None    Shift=    0.000
 RMSDP=1.92D-07 MaxDP=1.07D-05 DE=-6.38D-09 OVMax= 1.51D-05

 Cycle  11  Pass 1  IDiag  1:
 RMSU=  1.11D-07    CP:  9.80D-01  1.02D+00  1.03D+00  7.63D-01  1.21D+00
                    CP:  1.22D+00  1.37D+00  1.39D+00  1.15D+00  1.13D+00
 E= -232.969637474380     Delta-E=       -0.000000000457 Rises=F Damp=F
 DIIS: error= 2.93D-07 at cycle  11 NSaved=  11.
 NSaved=11 IEnMin=11 EnMin= -232.969637474380     IErMin=11 ErrMin= 2.93D-07
 ErrMax= 2.93D-07  0.00D+00 EMaxC= 1.00D-01 BMatC= 1.48D-10 BMatP= 9.57D-10
 IDIUse=1 WtCom= 1.00D+00 WtEn= 0.00D+00
 Coeff-Com:  0.183D-04-0.397D-04-0.193D-03-0.276D-03 0.613D-04 0.359D-02
 Coeff-Com:  0.162D-02-0.304D-01-0.533D-01 0.270D+00 0.809D+00
 Coeff:      0.183D-04-0.397D-04-0.193D-03-0.276D-03 0.613D-04 0.359D-02
 Coeff:      0.162D-02-0.304D-01-0.533D-01 0.270D+00 0.809D+00
 Gap=     0.269 Goal=   None    Shift=    0.000
 Gap=     0.323 Goal=   None    Shift=    0.000
 RMSDP=5.35D-08 MaxDP=2.36D-06 DE=-4.57D-10 OVMax= 3.90D-06

 Cycle  12  Pass 1  IDiag  1:
 RMSU=  3.10D-08    CP:  9.80D-01  1.02D+00  1.03D+00  7.63D-01  1.21D+00
                    CP:  1.22D+00  1.37D+00  1.39D+00  1.16D+00  1.19D+00
                    CP:  1.26D+00
 E= -232.969637474433     Delta-E=       -0.000000000053 Rises=F Damp=F
 DIIS: error= 1.60D-07 at cycle  12 NSaved=  12.
 NSaved=12 IEnMin=12 EnMin= -232.969637474433     IErMin=12 ErrMin= 1.60D-07
 ErrMax= 1.60D-07  0.00D+00 EMaxC= 1.00D-01 BMatC= 1.68D-11 BMatP= 1.48D-10
 IDIUse=1 WtCom= 1.00D+00 WtEn= 0.00D+00
 Coeff-Com:  0.329D-05-0.724D-05-0.610D-04-0.121D-03-0.220D-03 0.111D-02
 Coeff-Com:  0.201D-02-0.378D-03-0.257D-01-0.543D-01 0.198D+00 0.880D+00
 Coeff:      0.329D-05-0.724D-05-0.610D-04-0.121D-03-0.220D-03 0.111D-02
 Coeff:      0.201D-02-0.378D-03-0.257D-01-0.543D-01 0.198D+00 0.880D+00
 Gap=     0.269 Goal=   None    Shift=    0.000
 Gap=     0.323 Goal=   None    Shift=    0.000
 RMSDP=2.79D-08 MaxDP=2.27D-06 DE=-5.26D-11 OVMax= 1.53D-06

 Cycle  13  Pass 1  IDiag  1:
 RMSU=  1.27D-08    CP:  9.80D-01  1.02D+00  1.03D+00  7.63D-01  1.21D+00
                    CP:  1.22D+00  1.37D+00  1.39D+00  1.16D+00  1.19D+00
                    CP:  1.40D+00  1.20D+00
 E= -232.969637474442     Delta-E=       -0.000000000009 Rises=F Damp=F
 DIIS: error= 2.77D-08 at cycle  13 NSaved=  13.
 NSaved=13 IEnMin=13 EnMin= -232.969637474442     IErMin=13 ErrMin= 2.77D-08
 ErrMax= 2.77D-08  0.00D+00 EMaxC= 1.00D-01 BMatC= 1.17D-12 BMatP= 1.68D-11
 IDIUse=1 WtCom= 1.00D+00 WtEn= 0.00D+00
 Coeff-Com: -0.166D-05 0.341D-05 0.125D-04 0.166D-04-0.159D-04-0.239D-03
 Coeff-Com: -0.203D-04 0.281D-02 0.220D-02-0.329D-01-0.620D-01 0.988D-01
 Coeff-Com:  0.991D+00
 Coeff:     -0.166D-05 0.341D-05 0.125D-04 0.166D-04-0.159D-04-0.239D-03
 Coeff:     -0.203D-04 0.281D-02 0.220D-02-0.329D-01-0.620D-01 0.988D-01
 Coeff:      0.991D+00
 Gap=     0.269 Goal=   None    Shift=    0.000
 Gap=     0.323 Goal=   None    Shift=    0.000
 RMSDP=1.50D-08 MaxDP=1.93D-06 DE=-8.92D-12 OVMax= 6.55D-07

 Cycle  14  Pass 1  IDiag  1:
 RMSU=  3.41D-09    CP:  9.80D-01  1.02D+00  1.03D+00  7.63D-01  1.21D+00
                    CP:  1.22D+00  1.37D+00  1.39D+00  1.15D+00  1.18D+00
                    CP:  1.45D+00  1.34D+00  1.29D+00
 E= -232.969637474441     Delta-E=        0.000000000001 Rises=F Damp=F
 DIIS: error= 8.92D-09 at cycle  14 NSaved=  14.
 NSaved=14 IEnMin=13 EnMin= -232.969637474442     IErMin=14 ErrMin= 8.92D-09
 ErrMax= 8.92D-09  0.00D+00 EMaxC= 1.00D-01 BMatC= 7.46D-14 BMatP= 1.17D-12
 IDIUse=1 WtCom= 1.00D+00 WtEn= 0.00D+00
 Coeff-Com: -0.935D-07 0.271D-06 0.300D-05 0.553D-05 0.101D-04-0.515D-04
 Coeff-Com: -0.112D-03-0.116D-04 0.152D-02 0.432D-02-0.104D-01-0.643D-01
 Coeff-Com: -0.430D-01 0.111D+01
 Coeff:     -0.935D-07 0.271D-06 0.300D-05 0.553D-05 0.101D-04-0.515D-04
 Coeff:     -0.112D-03-0.116D-04 0.152D-02 0.432D-02-0.104D-01-0.643D-01
 Coeff:     -0.430D-01 0.111D+01
 Gap=     0.269 Goal=   None    Shift=    0.000
 Gap=     0.323 Goal=   None    Shift=    0.000
 RMSDP=4.44D-09 MaxDP=5.65D-07 DE= 1.19D-12 OVMax= 1.66D-07

 SCF Done:  E(UM062X) =  -232.969637474     A.U. after   14 cycles
            NFock= 14  Conv=0.44D-08     -V/T= 2.0039
 <Sx>= 0.0000 <Sy>= 0.0000 <Sz>= 0.5000 <S**2>= 0.7551 S= 0.5025
 <L.S>= 0.000000000000E+00
 KE= 2.320722045999D+02 PE=-9.023219184616D+02 EE= 2.576259480943D+02
 Annihilation of the first spin contaminant:
 S**2 before annihilation     0.7551,   after     0.7500
 Leave Link  502 at Mon Mar 11 15:41:34 2019, MaxMem=   671088640 cpu:            1428.6 elap:              71.5
 (Enter /shared/centos7/gaussian/g16/l801.exe)
 DoSCS=F DFT=T ScalE2(SS,OS)=  1.000000  1.000000
 Range of M.O.s used for correlation:     1   251
 NBasis=   251 NAE=    21 NBE=    20 NFC=     0 NFV=     0
 NROrb=    251 NOA=    21 NOB=    20 NVA=   230 NVB=   231

 **** Warning!!: The largest alpha MO coefficient is  0.47129766D+02


 **** Warning!!: The largest beta MO coefficient is  0.49307514D+02

 Leave Link  801 at Mon Mar 11 15:41:34 2019, MaxMem=   671088640 cpu:               0.5 elap:               0.0
 (Enter /shared/centos7/gaussian/g16/l1101.exe)
 Using compressed storage, NAtomX=    14.
 Will process     15 centers per pass.
 Leave Link 1101 at Mon Mar 11 15:41:35 2019, MaxMem=   671088640 cpu:               9.5 elap:               0.5
 (Enter /shared/centos7/gaussian/g16/l1102.exe)
 Symmetrizing basis deriv contribution to polar:
 IMax=3 JMax=2 DiffMx= 0.00D+00
 Leave Link 1102 at Mon Mar 11 15:41:35 2019, MaxMem=   671088640 cpu:               1.2 elap:               0.1
 (Enter /shared/centos7/gaussian/g16/l1110.exe)
 Forming Gx(P) for the SCF density, NAtomX=    14.
 Integral derivatives from FoFJK, PRISM(SPDF).
 Do as many integral derivatives as possible in FoFJK.
 G2DrvN: MDV=     671087496.
 G2DrvN: will do    15 centers at a time, making    1 passes.
 Calling FoFCou, ICntrl=  3107 FMM=F I1Cent=   0 AccDes= 0.00D+00.
 FoFJK:  IHMeth= 1 ICntrl=    3107 DoSepK=F KAlg= 0 I1Cent=           0 FoldK=F
 IRaf=         0 NMat=       1 IRICut=       1 DoRegI=T DoRafI=F ISym2E= 0 IDoP0=0 IntGTp=1.
 FoFCou: FMM=F IPFlag=           0 FMFlag=      100000 FMFlg1=           0
         NFxFlg=           0 DoJE=F BraDBF=F KetDBF=F FulRan=T
         wScrn=  0.000000 ICntrl=      3107 IOpCl=  1 I1Cent=           0 NGrid=           0
         NMat0=    1 NMatS0=      1 NMatT0=    0 NMatD0=    1 NMtDS0=    0 NMtDT0=    0
 Symmetry not used in FoFCou.
 End of G2Drv F.D. properties file   721 does not exist.
 End of G2Drv F.D. properties file   722 does not exist.
 End of G2Drv F.D. properties file   788 does not exist.
 Leave Link 1110 at Mon Mar 11 15:43:56 2019, MaxMem=   671088640 cpu:            2811.5 elap:             140.6
 (Enter /shared/centos7/gaussian/g16/l1002.exe)
 Minotr:  UHF open shell wavefunction.
          IDoAtm=11111111111111
          Direct CPHF calculation.
          Differentiating once with respect to nuclear coordinates.
          Requested convergence is 1.0D-08 RMS, and 1.0D-07 maximum.
          Secondary convergence is 1.0D-12 RMS, and 1.0D-12 maximum.
          NewPWx=T KeepS1=F KeepF1=F KeepIn=T MapXYZ=F SortEE=F KeepMc=T.
         4264 words used for storage of precomputed grid.
 Two-electron integrals replicated using symmetry.
          MDV=     671088640 using IRadAn=       1.
          Solving linear equations simultaneously, MaxMat=     380.
 FoF2E skips out because all densities are zero.
 CalDSu exits because no D1Ps are significant.
 FoFJK:  IHMeth= 1 ICntrl=       0 DoSepK=F KAlg= 0 I1Cent=           0 FoldK=F
 IRaf= 970000000 NMat=      42 IRICut=     105 DoRegI=T DoRafI=T ISym2E= 2 IDoP0=3 IntGTp=3.
 FoFCou: FMM=F IPFlag=           0 FMFlag=      100000 FMFlg1=           0
         NFxFlg=           0 DoJE=F BraDBF=F KetDBF=F FulRan=T
         wScrn=  0.000000 ICntrl=         0 IOpCl=  1 I1Cent=           0 NGrid=           0
         NMat0=   42 NMatS0=     42 NMatT0=    0 NMatD0=   42 NMtDS0=    0 NMtDT0=    0
 Integrals replicated using symmetry in FoFCou.
 Raff kept on since  95.46% of shell-pairs survive, threshold=   0.20 IRatSp=95.
          There are    45 degrees of freedom in the 1st order CPHF.  IDoFFX=6 NUNeed=     0.
     39 vectors produced by pass  0 Test12= 2.10D-14 2.22D-09 XBig12= 1.46D-01 9.13D-02.
 AX will form    39 AO Fock derivatives at one time.
     39 vectors produced by pass  1 Test12= 2.10D-14 2.22D-09 XBig12= 9.66D-03 1.21D-02.
     39 vectors produced by pass  2 Test12= 2.10D-14 2.22D-09 XBig12= 4.89D-04 3.04D-03.
     39 vectors produced by pass  3 Test12= 2.10D-14 2.22D-09 XBig12= 8.91D-06 3.47D-04.
     39 vectors produced by pass  4 Test12= 2.10D-14 2.22D-09 XBig12= 1.01D-07 3.32D-05.
     39 vectors produced by pass  5 Test12= 2.10D-14 2.22D-09 XBig12= 1.03D-09 3.91D-06.
     39 vectors produced by pass  6 Test12= 2.10D-14 2.22D-09 XBig12= 7.82D-12 2.48D-07.
     15 vectors produced by pass  7 Test12= 2.10D-14 2.22D-09 XBig12= 6.05D-14 2.37D-08.
 InvSVY:  IOpt=1 It=  1 EMax= 2.11D-15
 Solved reduced A of dimension   288 with    39 vectors.
 End of Minotr F.D. properties file   721 does not exist.
 End of Minotr F.D. properties file   722 does not exist.
 End of Minotr F.D. properties file   788 does not exist.
 Leave Link 1002 at Mon Mar 11 15:47:39 2019, MaxMem=   671088640 cpu:            4456.5 elap:             222.9
 (Enter /shared/centos7/gaussian/g16/l601.exe)
 Copying SCF densities to generalized density rwf, IOpCl= 1 IROHF=0.

 **********************************************************************

            Population analysis using the SCF density.

 **********************************************************************

 Orbital symmetries:
 Alpha Orbitals:
       Occupied  (A) (A) (A) (A) (A) (A) (A) (A) (A) (A) (A) (A)
                 (A) (A) (A) (A) (A) (A) (A) (A) (A)
       Virtual   (A) (A) (A) (A) (A) (A) (A) (A) (A) (A) (A) (A)
                 (A) (A) (A) (A) (A) (A) (A) (A) (A) (A) (A) (A)
                 (A) (A) (A) (A) (A) (A) (A) (A) (A) (A) (A) (A)
                 (A) (A) (A) (A) (A) (A) (A) (A) (A) (A) (A) (A)
                 (A) (A) (A) (A) (A) (A) (A) (A) (A) (A) (A) (A)
                 (A) (A) (A) (A) (A) (A) (A) (A) (A) (A) (A) (A)
                 (A) (A) (A) (A) (A) (A) (A) (A) (A) (A) (A) (A)
                 (A) (A) (A) (A) (A) (A) (A) (A) (A) (A) (A) (A)
                 (A) (A) (A) (A) (A) (A) (A) (A) (A) (A) (A) (A)
                 (A) (A) (A) (A) (A) (A) (A) (A) (A) (A) (A) (A)
                 (A) (A) (A) (A) (A) (A) (A) (A) (A) (A) (A) (A)
                 (A) (A) (A) (A) (A) (A) (A) (A) (A) (A) (A) (A)
                 (A) (A) (A) (A) (A) (A) (A) (A) (A) (A) (A) (A)
                 (A) (A) (A) (A) (A) (A) (A) (A) (A) (A) (A) (A)
                 (A) (A) (A) (A) (A) (A) (A) (A) (A) (A) (A) (A)
                 (A) (A) (A) (A) (A) (A) (A) (A) (A) (A) (A) (A)
                 (A) (A) (A) (A) (A) (A) (A) (A) (A) (A) (A) (A)
                 (A) (A) (A) (A) (A) (A) (A) (A) (A) (A) (A) (A)
                 (A) (A) (A) (A) (A) (A) (A) (A) (A) (A) (A) (A)
                 (A) (A)
 Beta  Orbitals:
       Occupied  (A) (A) (A) (A) (A) (A) (A) (A) (A) (A) (A) (A)
                 (A) (A) (A) (A) (A) (A) (A) (A)
       Virtual   (A) (A) (A) (A) (A) (A) (A) (A) (A) (A) (A) (A)
                 (A) (A) (A) (A) (A) (A) (A) (A) (A) (A) (A) (A)
                 (A) (A) (A) (A) (A) (A) (A) (A) (A) (A) (A) (A)
                 (A) (A) (A) (A) (A) (A) (A) (A) (A) (A) (A) (A)
                 (A) (A) (A) (A) (A) (A) (A) (A) (A) (A) (A) (A)
                 (A) (A) (A) (A) (A) (A) (A) (A) (A) (A) (A) (A)
                 (A) (A) (A) (A) (A) (A) (A) (A) (A) (A) (A) (A)
                 (A) (A) (A) (A) (A) (A) (A) (A) (A) (A) (A) (A)
                 (A) (A) (A) (A) (A) (A) (A) (A) (A) (A) (A) (A)
                 (A) (A) (A) (A) (A) (A) (A) (A) (A) (A) (A) (A)
                 (A) (A) (A) (A) (A) (A) (A) (A) (A) (A) (A) (A)
                 (A) (A) (A) (A) (A) (A) (A) (A) (A) (A) (A) (A)
                 (A) (A) (A) (A) (A) (A) (A) (A) (A) (A) (A) (A)
                 (A) (A) (A) (A) (A) (A) (A) (A) (A) (A) (A) (A)
                 (A) (A) (A) (A) (A) (A) (A) (A) (A) (A) (A) (A)
                 (A) (A) (A) (A) (A) (A) (A) (A) (A) (A) (A) (A)
                 (A) (A) (A) (A) (A) (A) (A) (A) (A) (A) (A) (A)
                 (A) (A) (A) (A) (A) (A) (A) (A) (A) (A) (A) (A)
                 (A) (A) (A) (A) (A) (A) (A) (A) (A) (A) (A) (A)
                 (A) (A) (A)
 The electronic state is 2-A.
 Alpha  occ. eigenvalues --  -19.61546 -10.57962 -10.55034 -10.53777 -10.53435
 Alpha  occ. eigenvalues --   -1.14193  -0.90315  -0.82566  -0.73141  -0.65902
 Alpha  occ. eigenvalues --   -0.58327  -0.53822  -0.52522  -0.50505  -0.47836
 Alpha  occ. eigenvalues --   -0.46560  -0.43045  -0.42081  -0.39168  -0.34772
 Alpha  occ. eigenvalues --   -0.25263
 Alpha virt. eigenvalues --    0.01628   0.02776   0.03137   0.04217   0.05535
 Alpha virt. eigenvalues --    0.06237   0.06631   0.07458   0.08444   0.09386
 Alpha virt. eigenvalues --    0.10167   0.11881   0.13276   0.13805   0.16334
 Alpha virt. eigenvalues --    0.17219   0.18882   0.20001   0.20229   0.21625
 Alpha virt. eigenvalues --    0.21908   0.23451   0.24132   0.25437   0.26417
 Alpha virt. eigenvalues --    0.27702   0.27768   0.29070   0.29571   0.30224
 Alpha virt. eigenvalues --    0.31674   0.32944   0.37622   0.41553   0.43819
 Alpha virt. eigenvalues --    0.44120   0.46312   0.48566   0.51306   0.53201
 Alpha virt. eigenvalues --    0.53827   0.54997   0.56559   0.57385   0.58082
 Alpha virt. eigenvalues --    0.59050   0.59566   0.61143   0.62506   0.62940
 Alpha virt. eigenvalues --    0.64602   0.65680   0.67519   0.68473   0.68581
 Alpha virt. eigenvalues --    0.69421   0.69976   0.72979   0.78257   0.82480
 Alpha virt. eigenvalues --    0.83528   0.86792   0.89110   0.91792   0.92979
 Alpha virt. eigenvalues --    0.93891   0.97625   0.99374   1.03568   1.04568
 Alpha virt. eigenvalues --    1.05980   1.07095   1.08639   1.11725   1.14471
 Alpha virt. eigenvalues --    1.15688   1.16848   1.18723   1.20589   1.21468
 Alpha virt. eigenvalues --    1.22471   1.24498   1.26144   1.28815   1.30740
 Alpha virt. eigenvalues --    1.31681   1.32056   1.33398   1.36266   1.39554
 Alpha virt. eigenvalues --    1.40539   1.42608   1.44188   1.45151   1.46302
 Alpha virt. eigenvalues --    1.47591   1.50136   1.50727   1.52079   1.53748
 Alpha virt. eigenvalues --    1.54761   1.58620   1.58970   1.60864   1.61990
 Alpha virt. eigenvalues --    1.64583   1.72436   1.77004   1.79049   1.93700
 Alpha virt. eigenvalues --    2.09818   2.18647   2.29727   2.31403   2.37276
 Alpha virt. eigenvalues --    2.43287   2.49243   2.50365   2.54201   2.60045
 Alpha virt. eigenvalues --    2.60904   2.66169   2.72953   2.76686   2.77382
 Alpha virt. eigenvalues --    2.81355   2.84637   2.86878   2.90775   2.92369
 Alpha virt. eigenvalues --    2.94355   2.95534   2.98592   3.01855   3.06090
 Alpha virt. eigenvalues --    3.08849   3.11093   3.13916   3.14382   3.17168
 Alpha virt. eigenvalues --    3.17948   3.20402   3.24328   3.24945   3.28657
 Alpha virt. eigenvalues --    3.29756   3.33206   3.36323   3.37188   3.39802
 Alpha virt. eigenvalues --    3.40792   3.44149   3.48673   3.51016   3.53549
 Alpha virt. eigenvalues --    3.55247   3.56525   3.59443   3.61949   3.63726
 Alpha virt. eigenvalues --    3.64548   3.69797   3.71411   3.74211   3.75773
 Alpha virt. eigenvalues --    3.77986   3.84221   3.87430   3.88830   3.91045
 Alpha virt. eigenvalues --    3.96034   3.97058   4.00107   4.01778   4.05119
 Alpha virt. eigenvalues --    4.06477   4.10455   4.11668   4.13450   4.18553
 Alpha virt. eigenvalues --    4.20688   4.21675   4.23823   4.25851   4.27860
 Alpha virt. eigenvalues --    4.30113   4.33297   4.35620   4.36093   4.38849
 Alpha virt. eigenvalues --    4.41183   4.46211   4.47341   4.48826   4.52610
 Alpha virt. eigenvalues --    4.53799   4.61488   4.66414   4.68894   4.71967
 Alpha virt. eigenvalues --    4.97188   5.02796   5.17287   5.22297   5.26280
 Alpha virt. eigenvalues --    5.28038   5.39890   5.44627   5.47840   5.50483
 Alpha virt. eigenvalues --    5.55331   5.57968   5.60051   5.60840   5.62653
 Alpha virt. eigenvalues --    5.64655   5.85752   5.96161   6.51773   6.99161
 Alpha virt. eigenvalues --    7.20088   7.23593   7.27297   7.51308   7.63852
 Alpha virt. eigenvalues --   24.17089  24.38380  24.44458  24.52749  50.15480
  Beta  occ. eigenvalues --  -19.61526 -10.57934 -10.54361 -10.53838 -10.53494
  Beta  occ. eigenvalues --   -1.14118  -0.88647  -0.82033  -0.72536  -0.63885
  Beta  occ. eigenvalues --   -0.58050  -0.52718  -0.51878  -0.49448  -0.46840
  Beta  occ. eigenvalues --   -0.46056  -0.42394  -0.41604  -0.38877  -0.34653
  Beta virt. eigenvalues --   -0.02314   0.01479   0.02612   0.02985   0.04086
  Beta virt. eigenvalues --    0.05491   0.06261   0.06621   0.07398   0.08187
  Beta virt. eigenvalues --    0.09277   0.10073   0.11557   0.13023   0.13630
  Beta virt. eigenvalues --    0.15754   0.17159   0.18939   0.20247   0.20386
  Beta virt. eigenvalues --    0.21789   0.21927   0.23676   0.24591   0.25526
  Beta virt. eigenvalues --    0.26653   0.27514   0.27813   0.29240   0.29556
  Beta virt. eigenvalues --    0.30399   0.32509   0.33242   0.37625   0.41831
  Beta virt. eigenvalues --    0.43976   0.44182   0.46409   0.49163   0.51550
  Beta virt. eigenvalues --    0.54133   0.54377   0.54971   0.57037   0.57858
  Beta virt. eigenvalues --    0.58542   0.58964   0.59855   0.61742   0.62485
  Beta virt. eigenvalues --    0.63317   0.65286   0.66110   0.67605   0.68616
  Beta virt. eigenvalues --    0.69034   0.69415   0.70444   0.73265   0.77893
  Beta virt. eigenvalues --    0.82457   0.83483   0.86762   0.89018   0.91865
  Beta virt. eigenvalues --    0.92916   0.93447   0.98025   0.99456   1.03981
  Beta virt. eigenvalues --    1.04931   1.06041   1.07094   1.09234   1.11840
  Beta virt. eigenvalues --    1.14297   1.15728   1.16757   1.18971   1.20713
  Beta virt. eigenvalues --    1.21495   1.22795   1.24657   1.26473   1.28701
  Beta virt. eigenvalues --    1.31101   1.31530   1.32787   1.34249   1.36681
  Beta virt. eigenvalues --    1.39684   1.40778   1.42845   1.43783   1.45249
  Beta virt. eigenvalues --    1.46334   1.47694   1.50317   1.50862   1.51997
  Beta virt. eigenvalues --    1.54194   1.55077   1.58542   1.59160   1.60678
  Beta virt. eigenvalues --    1.62076   1.65211   1.72938   1.77549   1.79279
  Beta virt. eigenvalues --    1.93824   2.09932   2.18851   2.29817   2.31497
  Beta virt. eigenvalues --    2.38059   2.43914   2.49444   2.50942   2.54903
  Beta virt. eigenvalues --    2.61034   2.61652   2.66834   2.74833   2.77873
  Beta virt. eigenvalues --    2.79734   2.84934   2.87621   2.88387   2.92445
  Beta virt. eigenvalues --    2.94212   2.95588   2.96655   3.00562   3.03071
  Beta virt. eigenvalues --    3.07754   3.10856   3.11663   3.14955   3.16286
  Beta virt. eigenvalues --    3.17723   3.18634   3.20810   3.24603   3.25914
  Beta virt. eigenvalues --    3.29638   3.30702   3.34776   3.37761   3.38805
  Beta virt. eigenvalues --    3.41025   3.44779   3.45939   3.49750   3.52271
  Beta virt. eigenvalues --    3.54929   3.55685   3.57487   3.61448   3.63415
  Beta virt. eigenvalues --    3.64197   3.67980   3.70095   3.72347   3.74520
  Beta virt. eigenvalues --    3.76638   3.78367   3.84823   3.87617   3.88897
  Beta virt. eigenvalues --    3.92008   3.96523   3.97326   4.00906   4.03026
  Beta virt. eigenvalues --    4.06340   4.07720   4.11328   4.12727   4.14504
  Beta virt. eigenvalues --    4.18926   4.21610   4.22801   4.24164   4.26490
  Beta virt. eigenvalues --    4.28725   4.31367   4.33894   4.35976   4.37302
  Beta virt. eigenvalues --    4.38993   4.41779   4.46688   4.49197   4.50701
  Beta virt. eigenvalues --    4.53088   4.54872   4.62799   4.68580   4.69880
  Beta virt. eigenvalues --    4.74714   4.99892   5.06032   5.17893   5.22376
  Beta virt. eigenvalues --    5.26687   5.29032   5.39940   5.44528   5.50895
  Beta virt. eigenvalues --    5.54058   5.55632   5.57995   5.60103   5.61134
  Beta virt. eigenvalues --    5.62850   5.64578   5.85799   5.96301   6.51796
  Beta virt. eigenvalues --    6.99289   7.20147   7.23640   7.27389   7.51399
  Beta virt. eigenvalues --    7.63965  24.17932  24.38447  24.44623  24.53283
  Beta virt. eigenvalues --   50.15453
          Condensed to atoms (all electrons):
               1          2          3          4          5          6
     1  O    8.078916   0.023241   0.146017  -0.007039  -0.044983  -0.013433
     2  C    0.023241   5.615306   0.153697   0.064970  -0.281153   0.486813
     3  C    0.146017   0.153697   5.055655  -0.035593   0.100367  -0.041692
     4  C   -0.007039   0.064970  -0.035593   5.182729   0.032840   0.030318
     5  C   -0.044983  -0.281153   0.100367   0.032840   6.155462  -0.116998
     6  H   -0.013433   0.486813  -0.041692   0.030318  -0.116998   0.505652
     7  H    0.008004   0.395082  -0.039651  -0.015867  -0.003615  -0.034798
     8  H   -0.052562  -0.087308   0.467905  -0.000979   0.032501  -0.005024
     9  H   -0.047333   0.051261   0.384829   0.006582  -0.059075   0.004585
    10  H    0.000045   0.018570   0.001807   0.405984  -0.047412   0.000233
    11  H    0.000069  -0.025451  -0.002111   0.396063  -0.004472  -0.001564
    12  H   -0.000702  -0.007185   0.002393   0.434546  -0.068709   0.002843
    13  H    0.000272  -0.007028  -0.011886  -0.001456   0.364279   0.003765
    14  H    0.255041  -0.067625   0.006059  -0.015582   0.066049  -0.000575
               7          8          9         10         11         12
     1  O    0.008004  -0.052562  -0.047333   0.000045   0.000069  -0.000702
     2  C    0.395082  -0.087308   0.051261   0.018570  -0.025451  -0.007185
     3  C   -0.039651   0.467905   0.384829   0.001807  -0.002111   0.002393
     4  C   -0.015867  -0.000979   0.006582   0.405984   0.396063   0.434546
     5  C   -0.003615   0.032501  -0.059075  -0.047412  -0.004472  -0.068709
     6  H   -0.034798  -0.005024   0.004585   0.000233  -0.001564   0.002843
     7  H    0.546998  -0.002569  -0.005648  -0.000407   0.001895  -0.000132
     8  H   -0.002569   0.534802  -0.034596   0.000014  -0.000010   0.000010
     9  H   -0.005648  -0.034596   0.562379  -0.000004  -0.000034  -0.000059
    10  H   -0.000407   0.000014  -0.000004   0.543318  -0.028188  -0.021527
    11  H    0.001895  -0.000010  -0.000034  -0.028188   0.567349  -0.040580
    12  H   -0.000132   0.000010  -0.000059  -0.021527  -0.040580   0.551989
    13  H   -0.001838  -0.000197   0.002787  -0.006564  -0.000920   0.004854
    14  H    0.000369   0.007981  -0.005702   0.000102  -0.000058   0.000128
              13         14
     1  O    0.000272   0.255041
     2  C   -0.007028  -0.067625
     3  C   -0.011886   0.006059
     4  C   -0.001456  -0.015582
     5  C    0.364279   0.066049
     6  H    0.003765  -0.000575
     7  H   -0.001838   0.000369
     8  H   -0.000197   0.007981
     9  H    0.002787  -0.005702
    10  H   -0.006564   0.000102
    11  H   -0.000920  -0.000058
    12  H    0.004854   0.000128
    13  H    0.464390  -0.000954
    14  H   -0.000954   0.502401
          Atomic-Atomic Spin Densities.
               1          2          3          4          5          6
     1  O    0.009559  -0.000141  -0.007983   0.000890  -0.001940  -0.001731
     2  C   -0.000141   0.010138   0.015353   0.045433  -0.180434   0.018515
     3  C   -0.007983   0.015353   0.040822  -0.001317  -0.029641   0.006821
     4  C    0.000890   0.045433  -0.001317  -0.002473  -0.161133   0.009578
     5  C   -0.001940  -0.180434  -0.029641  -0.161133   1.551112  -0.037298
     6  H   -0.001731   0.018515   0.006821   0.009578  -0.037298   0.018360
     7  H    0.001331   0.000623  -0.010436  -0.004459  -0.003786  -0.009807
     8  H    0.000558   0.000755   0.000040   0.000172  -0.001006   0.000114
     9  H   -0.000995   0.002032   0.001637   0.000860  -0.004985   0.000284
    10  H    0.000003   0.005651   0.001343   0.011250  -0.022746   0.000237
    11  H    0.000064  -0.012120  -0.004015   0.006987   0.001155  -0.001907
    12  H   -0.000018   0.013021   0.003547   0.027339  -0.051997   0.002862
    13  H    0.000346   0.017171   0.000591   0.013429  -0.035993   0.000414
    14  H    0.009257   0.005265   0.002144   0.001321  -0.001639  -0.000553
               7          8          9         10         11         12
     1  O    0.001331   0.000558  -0.000995   0.000003   0.000064  -0.000018
     2  C    0.000623   0.000755   0.002032   0.005651  -0.012120   0.013021
     3  C   -0.010436   0.000040   0.001637   0.001343  -0.004015   0.003547
     4  C   -0.004459   0.000172   0.000860   0.011250   0.006987   0.027339
     5  C   -0.003786  -0.001006  -0.004985  -0.022746   0.001155  -0.051997
     6  H   -0.009807   0.000114   0.000284   0.000237  -0.001907   0.002862
     7  H    0.073503   0.000108  -0.001445  -0.000300   0.003661  -0.001304
     8  H    0.000108  -0.002529   0.000818   0.000000  -0.000001   0.000007
     9  H   -0.001445   0.000818  -0.003026   0.000006  -0.000028   0.000021
    10  H   -0.000300   0.000000   0.000006   0.014039  -0.007903   0.004908
    11  H    0.003661  -0.000001  -0.000028  -0.007903   0.082410  -0.014452
    12  H   -0.001304   0.000007   0.000021   0.004908  -0.014452   0.035787
    13  H   -0.001965   0.000039   0.000257   0.001657  -0.002248   0.000574
    14  H    0.000349  -0.000599   0.000045  -0.000037   0.000055  -0.000114
              13         14
     1  O    0.000346   0.009257
     2  C    0.017171   0.005265
     3  C    0.000591   0.002144
     4  C    0.013429   0.001321
     5  C   -0.035993  -0.001639
     6  H    0.000414  -0.000553
     7  H   -0.001965   0.000349
     8  H    0.000039  -0.000599
     9  H    0.000257   0.000045
    10  H    0.001657  -0.000037
    11  H   -0.002248   0.000055
    12  H    0.000574  -0.000114
    13  H   -0.054934  -0.000235
    14  H   -0.000235  -0.017149
 Mulliken charges and spin densities:
               1          2
     1  O   -0.345553   0.009202
     2  C   -0.333190  -0.058738
     3  C   -0.187797   0.018907
     4  C   -0.477516  -0.052125
     5  C   -0.125083   1.019670
     6  H    0.179875   0.005890
     7  H    0.152176   0.046071
     8  H    0.140029  -0.001522
     9  H    0.140025  -0.004520
    10  H    0.134029   0.008107
    11  H    0.138010   0.051657
    12  H    0.142131   0.020183
    13  H    0.190497  -0.060894
    14  H    0.252367  -0.001889
 Sum of Mulliken charges =  -0.00000   1.00000
 Mulliken charges and spin densities with hydrogens summed into heavy atoms:
               1          2
     1  O   -0.093186   0.007313
     2  C   -0.001139  -0.006778
     3  C    0.092256   0.012865
     4  C   -0.063345   0.027822
     5  C    0.065414   0.958777
 APT charges:
               1
     1  O   -0.554814
     2  C   -0.805810
     3  C   -0.656282
     4  C   -1.314689
     5  C   -0.219339
     6  H    0.355583
     7  H    0.391609
     8  H    0.488155
     9  H    0.352548
    10  H    0.482966
    11  H    0.430484
    12  H    0.300548
    13  H    0.374750
    14  H    0.374292
 Sum of APT charges =  -0.00000
 APT charges with hydrogens summed into heavy atoms:
               1
     1  O   -0.180523
     2  C   -0.058618
     3  C    0.184421
     4  C   -0.100691
     5  C    0.155411
 Electronic spatial extent (au):  <R**2>=            570.0155
 Charge=             -0.0000 electrons
 Dipole moment (field-independent basis, Debye):
    X=             -1.8405    Y=              0.8484    Z=              0.6819  Tot=              2.1382
 Quadrupole moment (field-independent basis, Debye-Ang):
   XX=            -36.7845   YY=            -31.9436   ZZ=            -32.7395
   XY=              3.1411   XZ=              1.2022   YZ=             -1.0981
 Traceless Quadrupole moment (field-independent basis, Debye-Ang):
   XX=             -2.9619   YY=              1.8789   ZZ=              1.0830
   XY=              3.1411   XZ=              1.2022   YZ=             -1.0981
 Octapole moment (field-independent basis, Debye-Ang**2):
  XXX=             -5.3369  YYY=             -5.3078  ZZZ=             -0.1761  XYY=              1.7569
  XXY=              6.6234  XXZ=              1.5598  XZZ=              1.7463  YZZ=             -1.1588
  YYZ=              0.6481  XYZ=             -1.3050
 Hexadecapole moment (field-independent basis, Debye-Ang**3):
 XXXX=           -572.3508 YYYY=           -122.9130 ZZZZ=            -76.7739 XXXY=             15.4794
 XXXZ=             -1.3976 YYYX=             -7.5822 YYYZ=             -0.5124 ZZZX=              1.0397
 ZZZY=             -0.4148 XXYY=           -115.5168 XXZZ=           -106.7914 YYZZ=            -37.0537
 XXYZ=             -4.5068 YYXZ=             -0.3487 ZZXY=              1.1785
 N-N= 1.796541282929D+02 E-N=-9.023219184789D+02  KE= 2.320722045999D+02
  Exact polarizability:   0.000   0.000   0.000   0.000   0.000   0.000
 Approx polarizability:  62.439   1.041  61.525   0.134  -0.562  59.264
                          Isotropic Fermi Contact Couplings
        Atom                 a.u.       MegaHertz       Gauss      10(-4) cm-1
     1  O(17)              0.00087      -0.52701      -0.18805      -0.17579
     2  C(13)             -0.03111     -34.97202     -12.47889     -11.66541
     3  C(13)              0.02044      22.97947       8.19964       7.66512
     4  C(13)             -0.03086     -34.69073     -12.37851     -11.57158
     5  C(13)              0.17436     196.01623      69.94347      65.38398
     6  H(1)               0.00467      20.86387       7.44475       6.95944
     7  H(1)               0.02621     117.17422      41.81068      39.08511
     8  H(1)              -0.00059      -2.63077      -0.93873      -0.87753
     9  H(1)              -0.00039      -1.75429      -0.62597      -0.58517
    10  H(1)               0.00383      17.11739       6.10791       5.70975
    11  H(1)               0.02876     128.55820      45.87276      42.88240
    12  H(1)               0.01047      46.78756      16.69497      15.60665
    13  H(1)              -0.01418     -63.38076     -22.61583     -21.14155
    14  H(1)              -0.00145      -6.46828      -2.30804      -2.15758
 --------------------------------------------------------
       Center         ----  Spin Dipole Couplings  ----
                      3XX-RR        3YY-RR        3ZZ-RR
 --------------------------------------------------------
     1   Atom        0.014097     -0.004530     -0.009568
     2   Atom       -0.004198      0.011976     -0.007778
     3   Atom        0.024972     -0.011586     -0.013386
     4   Atom        0.008711      0.000782     -0.009493
     5   Atom       -0.288451      0.697521     -0.409070
     6   Atom       -0.004113     -0.003600      0.007713
     7   Atom       -0.002956      0.010211     -0.007255
     8   Atom        0.005451     -0.001541     -0.003909
     9   Atom        0.007650     -0.004274     -0.003376
    10   Atom        0.013258     -0.004255     -0.009003
    11   Atom        0.012461     -0.005213     -0.007248
    12   Atom        0.001669     -0.007848      0.006180
    13   Atom       -0.056691     -0.015020      0.071711
    14   Atom        0.018436     -0.004917     -0.013519
 --------------------------------------------------------
                        XY            XZ            YZ
 --------------------------------------------------------
     1   Atom        0.029000     -0.029264     -0.023135
     2   Atom        0.006760     -0.005159     -0.002940
     3   Atom        0.000969      0.006634     -0.002240
     4   Atom       -0.007207      0.005342      0.003480
     5   Atom       -0.555614     -0.172777      0.382943
     6   Atom        0.003776     -0.009479     -0.009416
     7   Atom        0.008774     -0.004372     -0.005482
     8   Atom        0.003387     -0.002115     -0.000962
     9   Atom        0.003967      0.005386      0.001783
    10   Atom        0.009433      0.000462      0.001160
    11   Atom       -0.005931      0.007261     -0.001387
    12   Atom        0.003325      0.013056      0.003291
    13   Atom       -0.026661      0.010561     -0.006761
    14   Atom       -0.008973     -0.005498      0.000706
 --------------------------------------------------------


 ---------------------------------------------------------------------------------
              Anisotropic Spin Dipole Couplings in Principal Axis System
 ---------------------------------------------------------------------------------

       Atom             a.u.   MegaHertz   Gauss  10(-4) cm-1        Axes

              Baa    -0.0310     2.240     0.799     0.747  0.2483  0.4693  0.8474
     1 O(17)  Bbb    -0.0254     1.836     0.655     0.613 -0.6716  0.7138 -0.1986
              Bcc     0.0563    -4.076    -1.455    -1.360  0.6981  0.5198 -0.4925
 
              Baa    -0.0116    -1.553    -0.554    -0.518  0.6199 -0.0805  0.7806
     2 C(13)  Bbb    -0.0038    -0.506    -0.180    -0.169  0.6937 -0.4086 -0.5931
              Bcc     0.0153     2.059     0.735     0.687  0.3667  0.9091 -0.1975
 
              Baa    -0.0158    -2.124    -0.758    -0.708 -0.1513  0.4885  0.8594
     3 C(13)  Bbb    -0.0103    -1.378    -0.492    -0.460  0.0671  0.8725 -0.4841
              Bcc     0.0261     3.502     1.250     1.168  0.9862  0.0156  0.1648
 
              Baa    -0.0132    -1.767    -0.631    -0.589 -0.3373 -0.3882  0.8577
     4 C(13)  Bbb    -0.0002    -0.025    -0.009    -0.008  0.3466  0.7959  0.4965
              Bcc     0.0134     1.792     0.639     0.598  0.8753 -0.4647  0.1339
 
              Baa    -0.5383   -72.233   -25.775   -24.094  0.9168  0.3958  0.0528
     5 C(13)  Bbb    -0.5286   -70.936   -25.312   -23.662  0.0621 -0.2718  0.9603
              Bcc     1.0669   143.169    51.086    47.756 -0.3945  0.8772  0.2738
 
              Baa    -0.0101    -5.401    -1.927    -1.802  0.6290  0.4978  0.5971
     6 H(1)   Bbb    -0.0076    -4.061    -1.449    -1.355 -0.6536  0.7545  0.0593
              Bcc     0.0177     9.462     3.376     3.156 -0.4210 -0.4276  0.8000
 
              Baa    -0.0100    -5.324    -1.900    -1.776  0.5271  0.0017  0.8498
     7 H(1)   Bbb    -0.0066    -3.521    -1.257    -1.175  0.7242 -0.5241 -0.4482
              Bcc     0.0166     8.845     3.156     2.950  0.4446  0.8517 -0.2775
 
              Baa    -0.0044    -2.345    -0.837    -0.782  0.1633  0.1355  0.9772
     8 H(1)   Bbb    -0.0029    -1.551    -0.553    -0.517 -0.3884  0.9194 -0.0626
              Bcc     0.0073     3.896     1.390     1.300  0.9069  0.3694 -0.2027
 
              Baa    -0.0057    -3.036    -1.083    -1.013 -0.1382 -0.6025  0.7861
     9 H(1)   Bbb    -0.0054    -2.874    -1.025    -0.959 -0.4343  0.7502  0.4986
              Bcc     0.0111     5.909     2.109     1.971  0.8901  0.2725  0.3654
 
              Baa    -0.0096    -5.143    -1.835    -1.716  0.2025 -0.5318  0.8223
    10 H(1)   Bbb    -0.0078    -4.142    -1.478    -1.382 -0.3473  0.7461  0.5681
              Bcc     0.0174     9.285     3.313     3.097  0.9156  0.4006  0.0336
 
              Baa    -0.0097    -5.190    -1.852    -1.731 -0.3480 -0.1742  0.9212
    11 H(1)   Bbb    -0.0068    -3.634    -1.297    -1.212  0.1961  0.9473  0.2532
              Bcc     0.0165     8.825     3.149     2.944  0.9168 -0.2688  0.2955
 
              Baa    -0.0095    -5.086    -1.815    -1.696  0.7349 -0.4361 -0.5194
    12 H(1)   Bbb    -0.0085    -4.525    -1.615    -1.510  0.2355  0.8822 -0.4077
              Bcc     0.0180     9.611     3.429     3.206  0.6360  0.1773  0.7510
 
              Baa    -0.0700   -37.347   -13.326   -12.458  0.9010  0.4312 -0.0466
    13 H(1)   Bbb    -0.0035    -1.883    -0.672    -0.628 -0.4216  0.8960  0.1397
              Bcc     0.0735    39.230    13.998    13.086  0.1020 -0.1062  0.9891
 
              Baa    -0.0145    -7.749    -2.765    -2.585  0.1920  0.1077  0.9755
    14 H(1)   Bbb    -0.0078    -4.155    -1.482    -1.386  0.2891  0.9436 -0.1611
              Bcc     0.0223    11.904     4.248     3.971  0.9378 -0.3130 -0.1501
 

 ---------------------------------------------------------------------------------

 No NMR shielding tensors so no spin-rotation constants.
 Leave Link  601 at Mon Mar 11 15:47:39 2019, MaxMem=   671088640 cpu:              12.7 elap:               0.7
 (Enter /shared/centos7/gaussian/g16/l701.exe)
 SCFChk:  SCF convergence  4.44D-09 required  1.00D-08
 ... and contract with generalized density number  0.
 Compute integral second derivatives.
 Entering OneElI...
 Calculate overlap and kinetic energy integrals
    NBasis = 276  MinDer = 2  MaxDer = 2
 Requested accuracy = 0.1000D-12
 PrmmSu-InSpLW:  IPartL=    0 NPrtUS=   20 NPrtUL=    1 DoSpLW=F IThBeg=    0 IThEnd=   19 NThAct=   20.
 PrsmSu:  NPrtUS=  20 ThrOK=T IAlg=1 NPAlg=1 LenDen=           0 ISkipM=0 DoSpLW=F IThBeg=    0 IThEnd=   19.
 Prism:   IPart=     0 DynPar=F LinDyn=F Incr=           1.
 PRISM was handed    33457735 working-precision words and  3647 shell-pairs
 PRISM was handed    33457735 working-precision words and  3647 shell-pairs
 PRISM was handed    33457735 working-precision words and  3647 shell-pairs
 PRISM was handed    33457735 working-precision words and  3647 shell-pairs
 PRISM was handed    33457735 working-precision words and  3647 shell-pairs
 PRISM was handed    33457735 working-precision words and  3647 shell-pairs
 PRISM was handed    33457735 working-precision words and  3647 shell-pairs
 PRISM was handed    33457735 working-precision words and  3647 shell-pairs
 PRISM was handed    33457735 working-precision words and  3647 shell-pairs
 PRISM was handed    33457735 working-precision words and  3647 shell-pairs
 PRISM was handed    33457735 working-precision words and  3647 shell-pairs
 PRISM was handed    33457735 working-precision words and  3647 shell-pairs
 PRISM was handed    33457735 working-precision words and  3647 shell-pairs
 PRISM was handed    33457735 working-precision words and  3647 shell-pairs
 PRISM was handed    33457735 working-precision words and  3647 shell-pairs
 PRISM was handed    33457735 working-precision words and  3647 shell-pairs
 PRISM was handed    33457735 working-precision words and  3647 shell-pairs
 PRISM was handed    33457735 working-precision words and  3647 shell-pairs
 PRISM was handed    33457735 working-precision words and  3647 shell-pairs
 PRISM was handed    33457735 working-precision words and  3647 shell-pairs
 IPart= 19 NShTot=         162 NBatch=          28 AvBLen=         5.8
 IPart=  4 NShTot=         198 NBatch=          45 AvBLen=         4.4
 IPart=  2 NShTot=         204 NBatch=          49 AvBLen=         4.2
 IPart=  7 NShTot=         186 NBatch=          36 AvBLen=         5.2
 IPart=  1 NShTot=         214 NBatch=          54 AvBLen=         4.0
 IPart=  3 NShTot=         202 NBatch=          47 AvBLen=         4.3
 IPart=  5 NShTot=         189 NBatch=          38 AvBLen=         5.0
 IPart=  6 NShTot=         188 NBatch=          38 AvBLen=         4.9
 IPart= 10 NShTot=         177 NBatch=          34 AvBLen=         5.2
 IPart=  0 NShTot=         220 NBatch=          59 AvBLen=         3.7
 IPart=  8 NShTot=         184 NBatch=          35 AvBLen=         5.3
 IPart= 12 NShTot=         172 NBatch=          31 AvBLen=         5.5
 IPart=  9 NShTot=         180 NBatch=          34 AvBLen=         5.3
 IPart= 14 NShTot=         170 NBatch=          31 AvBLen=         5.5
 IPart= 11 NShTot=         175 NBatch=          33 AvBLen=         5.3
 IPart= 13 NShTot=         171 NBatch=          31 AvBLen=         5.5
 IPart= 18 NShTot=         163 NBatch=          28 AvBLen=         5.8
 IPart= 16 NShTot=         164 NBatch=          28 AvBLen=         5.9
 IPart= 17 NShTot=         163 NBatch=          28 AvBLen=         5.8
 IPart= 15 NShTot=         165 NBatch=          29 AvBLen=         5.7
 PrSmSu:  NxtVal=             21.
 Entering OneElI...
 Calculate potential energy integrals
    NBasis = 276  MinDer = 2  MaxDer = 2
 Requested accuracy = 0.1000D-12
 PrmmSu-InSpLW:  IPartL=    0 NPrtUS=   20 NPrtUL=    1 DoSpLW=F IThBeg=    0 IThEnd=   19 NThAct=   20.
 PrsmSu:  NPrtUS=  20 ThrOK=T IAlg=1 NPAlg=1 LenDen=           0 ISkipM=0 DoSpLW=F IThBeg=    0 IThEnd=   19.
 Prism:   IPart=     0 DynPar=F LinDyn=F Incr=          24.
 PRISM was handed    33470145 working-precision words and  3461 shell-pairs
 PRISM was handed    33470145 working-precision words and  3461 shell-pairs
 PRISM was handed    33470145 working-precision words and  3461 shell-pairs
 PRISM was handed    33470145 working-precision words and  3461 shell-pairs
 PRISM was handed    33470145 working-precision words and  3461 shell-pairs
 PRISM was handed    33470145 working-precision words and  3461 shell-pairs
 PRISM was handed    33470145 working-precision words and  3461 shell-pairs
 PRISM was handed    33470145 working-precision words and  3461 shell-pairs
 PRISM was handed    33470145 working-precision words and  3461 shell-pairs
 PRISM was handed    33470145 working-precision words and  3461 shell-pairs
 PRISM was handed    33470145 working-precision words and  3461 shell-pairs
 PRISM was handed    33470145 working-precision words and  3461 shell-pairs
 PRISM was handed    33470145 working-precision words and  3461 shell-pairs
 PRISM was handed    33470145 working-precision words and  3461 shell-pairs
 PRISM was handed    33470145 working-precision words and  3461 shell-pairs
 PRISM was handed    33470145 working-precision words and  3461 shell-pairs
 PRISM was handed    33470145 working-precision words and  3461 shell-pairs
 PRISM was handed    33470145 working-precision words and  3461 shell-pairs
 PRISM was handed    33470145 working-precision words and  3461 shell-pairs
 PRISM was handed    33470145 working-precision words and  3461 shell-pairs
 IPart=  3 NShTot=        2646 NBatch=         189 AvBLen=        14.0
 IPart=  4 NShTot=        2604 NBatch=         186 AvBLen=        14.0
 IPart= 19 NShTot=        2142 NBatch=         153 AvBLen=        14.0
 IPart= 10 NShTot=        2352 NBatch=         168 AvBLen=        14.0
 IPart=  6 NShTot=        2520 NBatch=         180 AvBLen=        14.0
 IPart= 14 NShTot=        2240 NBatch=         160 AvBLen=        14.0
 IPart=  5 NShTot=        2534 NBatch=         181 AvBLen=        14.0
 IPart= 12 NShTot=        2338 NBatch=         167 AvBLen=        14.0
 IPart=  9 NShTot=        2422 NBatch=         173 AvBLen=        14.0
 IPart= 13 NShTot=        2254 NBatch=         161 AvBLen=        14.0
 IPart=  1 NShTot=        2814 NBatch=         201 AvBLen=        14.0
 IPart=  0 NShTot=        2884 NBatch=         206 AvBLen=        14.0
 IPart=  2 NShTot=        2716 NBatch=         194 AvBLen=        14.0
 IPart= 16 NShTot=        2198 NBatch=         157 AvBLen=        14.0
 IPart= 11 NShTot=        2352 NBatch=         168 AvBLen=        14.0
 IPart=  8 NShTot=        2450 NBatch=         175 AvBLen=        14.0
 IPart= 17 NShTot=        2156 NBatch=         154 AvBLen=        14.0
 IPart=  7 NShTot=        2478 NBatch=         177 AvBLen=        14.0
 IPart= 15 NShTot=        2198 NBatch=         157 AvBLen=        14.0
 IPart= 18 NShTot=        2156 NBatch=         154 AvBLen=        14.0
 PrSmSu:  NxtVal=            481.
 Polarizability after L701:
                1             2             3 
      1  0.000000D+00
      2  0.000000D+00  0.000000D+00
      3  0.000000D+00  0.000000D+00  0.000000D+00
 Dipole Derivatives after L701:
                 1             2             3             4             5 
      1  -0.366787D+00  0.580013D+00  0.961290D-01 -0.266096D+00  0.123674D+00
      2  -0.394179D+00 -0.861744D+00  0.148945D+00  0.190505D+00 -0.106219D+01
      3   0.702916D-01  0.672606D-01 -0.435911D+00  0.124580D+00 -0.135052D+00
                 6             7             8             9            10 
      1   0.158580D+00 -0.759131D+00 -0.101492D+01 -0.449402D+00 -0.185847D+01
      2   0.107795D+00 -0.425175D+00 -0.549609D+00 -0.104072D-01 -0.139513D+00
      3  -0.108914D+01  0.145820D-01  0.116593D-01 -0.660105D+00  0.313550D-01
                11            12            13            14            15 
      1  -0.100538D+00 -0.387622D+00  0.880867D-01 -0.183781D+00  0.419188D+00
      2  -0.986997D+00 -0.493923D-01  0.123288D+00 -0.157822D+00  0.119191D+00
      3  -0.614245D-02 -0.109860D+01 -0.100247D+00  0.241541D+00 -0.588281D+00
                16            17            18            19            20 
      1   0.174403D+00 -0.164159D-03  0.246503D-01  0.158420D+00 -0.452434D-01
      2  -0.140102D-01  0.167024D+00 -0.278217D+00 -0.125533D+00  0.874914D+00
      3   0.252616D-01  0.694525D-01  0.725322D+00 -0.104588D-01 -0.944808D-02
                21            22            23            24            25 
      1  -0.229875D-01  0.795438D+00  0.594134D+00 -0.475940D+00  0.202125D+00
      2   0.175319D+00  0.299045D+00  0.450709D+00 -0.202927D+00 -0.194886D-03
      3   0.141492D+00 -0.106490D+00 -0.639682D-01  0.218317D+00  0.493178D-01
                26            27            28            29            30 
      1   0.979902D-01  0.682118D+00  0.763132D+00  0.874647D+00 -0.606325D+00
      2   0.213569D+00  0.205406D+00  0.246022D+00  0.468685D+00 -0.261468D+00
      3   0.456759D-01  0.641951D+00 -0.818076D-01 -0.149369D+00  0.217080D+00
                31            32            33            34            35 
      1   0.797414D+00 -0.955166D+00  0.398361D-01  0.862486D-01  0.196229D+00
      2  -0.146778D+00  0.363708D+00  0.219979D-01 -0.374797D-01  0.185034D+00
      3   0.311646D-01 -0.159198D-01  0.130330D+00 -0.574826D-01  0.142587D+00
                36            37            38            39            40 
      1   0.854030D+00  0.122760D+00  0.124248D+00 -0.396571D+00  0.624622D-01
      2   0.261151D+00  0.164987D-01  0.156554D+00 -0.761395D-01  0.407506D+00
      3   0.630362D+00  0.795426D-01 -0.160837D+00  0.844937D+00 -0.696093D-01
                41            42 
      1  -0.291127D+00  0.643170D-01
      2   0.738170D+00 -0.161255D+00
      3  -0.374397D-01  0.322242D+00
 Hessian after L701:
                1             2             3             4             5 
      1  0.833583D+01
      2  0.204327D+00  0.386485D+01
      3  0.140207D+01 -0.650266D+00  0.116736D+02
      4  0.405561D+00 -0.615437D+00 -0.172008D+00  0.110226D+02
      5 -0.593393D+00  0.711616D-01  0.893078D-01  0.150871D+00  0.139332D+02
      6 -0.220686D+00  0.145283D+00 -0.354565D+00  0.353143D+00  0.614334D+00
      7 -0.622592D+01 -0.145954D+01 -0.293490D+00 -0.152587D+01 -0.111272D+01
      8 -0.148898D+01 -0.176946D+00  0.143171D+01 -0.119008D+01 -0.504732D+01
      9 -0.267712D+00  0.139154D+01 -0.636731D+01  0.104817D+01 -0.331533D+00
     10  0.129108D+00 -0.268059D-02  0.130411D-01  0.109783D+00  0.956420D-01
     11 -0.473891D-01 -0.930088D-01  0.296654D-03  0.199454D+00 -0.124598D+00
     12 -0.130994D-01 -0.208274D-02 -0.977376D-01 -0.805590D-01 -0.638274D-01
     13  0.413972D+00 -0.772814D-01 -0.456438D-01 -0.249677D+01  0.166368D+01
     14 -0.219642D+00 -0.199026D+00  0.108598D-01  0.161206D+01 -0.368817D+01
     15  0.146255D-01 -0.273726D-01 -0.264604D+00 -0.135002D+01 -0.972647D+00
     16  0.152863D-01  0.955413D-03  0.253344D-01 -0.399871D+01  0.175372D-01
     17 -0.314013D-02 -0.199697D-01 -0.715592D-02  0.936675D-02 -0.394926D+01
     18  0.705718D-01 -0.279302D-01  0.351895D-01  0.214179D+00  0.181966D+00
     19  0.695654D-02 -0.845296D-01 -0.921595D-02 -0.358867D+01 -0.355194D+00
     20 -0.120237D+00  0.105836D+00  0.160876D-01 -0.348951D+00 -0.121780D+01
     21 -0.113661D-01  0.142586D-01 -0.473326D-01 -0.558162D-01  0.400021D+00
     22  0.123554D+00  0.108190D+00 -0.676458D-01 -0.932220D-01 -0.356653D-01
     23  0.773469D-01 -0.908019D-01 -0.142036D+00 -0.348120D-01  0.125286D+00
     24 -0.565476D-01 -0.172908D+00  0.949319D-01  0.132041D-01 -0.189463D-01
     25  0.298761D-01  0.607128D-01  0.496698D-01 -0.228276D-01  0.452936D-01
     26  0.810364D-01 -0.132439D+00  0.412380D-01  0.423985D-01 -0.212444D-01
     27  0.396370D-01  0.596242D-01  0.419810D+00  0.319112D-03  0.606991D-01
     28  0.371593D-01  0.922513D-02 -0.615246D-02  0.818382D-01  0.788835D-01
     29  0.196131D-01 -0.443895D-02 -0.317062D-02  0.981426D-01  0.867818D-02
     30 -0.175785D-01 -0.499596D-02 -0.778091D-02 -0.431073D-01 -0.227972D-01
     31  0.292097D-01 -0.548193D-02 -0.121021D-02  0.383825D-01  0.332815D-02
     32 -0.248099D-01 -0.681265D-02  0.160820D-02 -0.796165D-02  0.103886D-01
     33  0.740475D-03  0.684284D-03 -0.874816D-02 -0.427628D-02  0.378291D-03
     34  0.180564D-01  0.510248D-03  0.833306D-02  0.197068D-01  0.350426D-02
     35  0.348971D-02 -0.130861D-01  0.131852D-02  0.263008D-01 -0.179295D-01
     36  0.400124D-01  0.617450D-02 -0.516013D-02  0.438715D-01  0.682064D-02
     37  0.211808D-01 -0.896739D-02 -0.396658D-01 -0.372342D-02 -0.467210D-01
     38 -0.822705D-02 -0.285032D-01  0.675745D-02 -0.167106D-01 -0.135993D-01
     39 -0.918405D-01  0.731623D-02  0.310247D-01  0.278056D-01  0.669215D-01
     40 -0.333982D+01  0.187000D+01 -0.863418D+00  0.518952D-01  0.849522D-01
     41  0.212001D+01 -0.327681D+01 -0.796555D+00  0.753588D-01 -0.687457D-01
     42 -0.888829D+00 -0.739326D+00 -0.510128D+01  0.509757D-02 -0.106970D-01
                6             7             8             9            10 
[...]
 ! A21   A(2,5,13)             117.4266         -DE/DX =    0.0                 !
 ! A22   A(4,5,13)             118.6654         -DE/DX =    0.0                 !
 ! D1    D(14,1,3,2)           -50.6641         -DE/DX =    0.0                 !
 ! D2    D(14,1,3,8)          -171.4627         -DE/DX =    0.0                 !
 ! D3    D(14,1,3,9)            71.9002         -DE/DX =    0.0                 !
 ! D4    D(5,2,3,1)             64.2446         -DE/DX =    0.0                 !
 ! D5    D(5,2,3,8)           -177.5077         -DE/DX =    0.0                 !
 ! D6    D(5,2,3,9)            -58.9725         -DE/DX =    0.0                 !
 ! D7    D(6,2,3,1)            -57.8953         -DE/DX =    0.0                 !
 ! D8    D(6,2,3,8)             60.3524         -DE/DX =    0.0                 !
 ! D9    D(6,2,3,9)            178.8877         -DE/DX =    0.0                 !
 ! D10   D(7,2,3,1)           -173.4475         -DE/DX =    0.0                 !
 ! D11   D(7,2,3,8)            -55.1998         -DE/DX =    0.0                 !
 ! D12   D(7,2,3,9)             63.3354         -DE/DX =    0.0                 !
 ! D13   D(3,2,5,4)           -152.6431         -DE/DX =    0.0                 !
 ! D14   D(3,2,5,13)            45.685          -DE/DX =    0.0                 !
 ! D15   D(6,2,5,4)            -31.0693         -DE/DX =    0.0                 !
 ! D16   D(6,2,5,13)           167.2588         -DE/DX =    0.0                 !
 ! D17   D(7,2,5,4)             86.3472         -DE/DX =    0.0                 !
 ! D18   D(7,2,5,13)           -75.3248         -DE/DX =    0.0                 !
 ! D19   D(10,4,5,2)           168.3898         -DE/DX =    0.0                 !
 ! D20   D(10,4,5,13)          -30.1583         -DE/DX =    0.0                 !
 ! D21   D(11,4,5,2)           -71.5598         -DE/DX =    0.0                 !
 ! D22   D(11,4,5,13)           89.8922         -DE/DX =    0.0                 !
 ! D23   D(12,4,5,2)            46.9489         -DE/DX =    0.0                 !
 ! D24   D(12,4,5,13)         -151.5991         -DE/DX =    0.0                 !
 --------------------------------------------------------------------------------
 GradGradGradGradGradGradGradGradGradGradGradGradGradGradGradGradGradGrad

 Leave Link  103 at Mon Mar 11 16:03:06 2019, MaxMem=   671088640 cpu:               0.6 elap:               0.1
 (Enter /shared/centos7/gaussian/g16/l9999.exe)

 ----------------------------------------------------------------------

 Electric dipole moment (input orientation):
 (Debye = 10**-18 statcoulomb cm , SI units = C m)
                  (au)            (Debye)         (10**-30 SI)
   Tot        0.840913D+00      0.213739D+01      0.712955D+01
   x          0.720768D+00      0.183201D+01      0.611093D+01
   y          0.336198D+00      0.854529D+00      0.285040D+01
   z         -0.273127D+00     -0.694221D+00     -0.231567D+01

 Dipole polarizability, Alpha (input orientation).
 (esu units = cm**3 , SI units = C**2 m**2 J**-1)
 Alpha(0;0):
               (au)            (10**-24 esu)      (10**-40 SI)
   iso        0.545918D+02      0.808967D+01      0.900097D+01
   aniso      0.129947D+02      0.192561D+01      0.214253D+01
   xx         0.625961D+02      0.927579D+01      0.103207D+02
   yx        -0.200935D+01     -0.297754D+00     -0.331296D+00
   yy         0.521962D+02      0.773468D+01      0.860599D+01
   zx         0.101730D+01      0.150748D+00      0.167729D+00
   zy         0.762809D+00      0.113037D+00      0.125770D+00
   zz         0.489831D+02      0.725854D+01      0.807622D+01

 ----------------------------------------------------------------------

 Dipole orientation:
     8         -0.75602180          0.40992655         -3.72496558
     6         -0.04163703         -1.54699512          0.38213606
     6         -1.72315911         -1.32841617         -1.94595444
     6          2.32194013          1.51555783          3.39709638
     6          0.08300470          0.86490783          1.83070259
     1          1.85453629         -2.11850783         -0.20646079
     1         -0.77672980         -3.08019743          1.57737511
     1         -1.84555014         -3.13688804         -2.91991937
     1         -3.63938648         -0.79194580         -1.36713213
     1          2.28679773          3.47778659          4.01527298
     1          2.42582325          0.33971275          5.10379584
     1          4.07403231          1.18911628          2.35666809
     1         -1.68080670          1.84830966          2.18038506
     1         -0.38676881          1.96099115         -2.85414759

 Electric dipole moment (dipole orientation):
 (Debye = 10**-18 statcoulomb cm , SI units = C m)
                  (au)            (Debye)         (10**-30 SI)
   Tot        0.840913D+00      0.213739D+01      0.712955D+01
   x          0.000000D+00      0.000000D+00      0.000000D+00
   y          0.000000D+00      0.000000D+00      0.000000D+00
   z          0.840913D+00      0.213739D+01      0.712955D+01

 Dipole polarizability, Alpha (dipole orientation).
 (esu units = cm**3 , SI units = C**2 m**2 J**-1)
 Alpha(0;0):
               (au)            (10**-24 esu)      (10**-40 SI)
   iso        0.545918D+02      0.808967D+01      0.900097D+01
   aniso      0.129947D+02      0.192561D+01      0.214253D+01
   xx         0.528009D+02      0.782429D+01      0.870569D+01
   yx         0.276922D+01      0.410356D+00      0.456583D+00
   yy         0.536185D+02      0.794544D+01      0.884049D+01
   zx         0.587861D+01      0.871120D+00      0.969251D+00
   zy         0.285705D+01      0.423371D+00      0.471064D+00
   zz         0.573561D+02      0.849929D+01      0.945674D+01

 ----------------------------------------------------------------------

 Test job not archived.
 1\1\GINC-C0059\Freq\UM062X\6-311+G(2df,2p)\C4H9O1(2)\UNDERKOFFLER.C\11
 -Mar-2019\0\\#P Geom=AllCheck Guess=TCheck SCRF=Check Test GenChk UM06
 2X/6-311+G(2df,2p) Freq\\Gaussian input prepared by ASE\\0,2\O,-1.8116
 393063,-0.8753414216,0.2105965258\C,-0.0482412562,0.8064100588,0.24272
 53708\C,-1.4706510376,0.4423214663,-0.1660656692\C,2.2956100363,-0.304
 3536593,0.1486462589\C,0.9683091584,-0.0265161061,-0.4599902523\H,0.05
 3530862,0.6882775883,1.3248537627\H,0.1107424196,1.8733465977,0.028247
 8477\H,-2.1888075699,1.0945540217,0.3284328917\H,-1.5863803961,0.57743
 72519,-1.2481962465\H,2.8363030975,-1.0818433685,-0.3886831047\H,2.933
 2584342,0.5896621407,0.1511919911\H,2.1920263589,-0.6123953598,1.19123
 39921\H,0.8457523462,-0.168711917,-1.5281608918\H,-1.1173101469,-1.463
 4072932,-0.0997454761\\Version=EM64L-G16RevA.03\State=2-A\HF=-232.9696
 403\S2=0.755096\S2-1=0.\S2A=0.750021\RMSD=5.938e-09\RMSF=1.639e-07\Zer
 oPoint=0.1235637\Thermal=0.1304954\Dipole=0.7207681,0.3361976,-0.27312
 75\DipoleDeriv=-0.5514059,-0.1779176,-0.0631255,-0.247265,-0.8665762,0
 .1190806,-0.0578319,0.1057776,-0.472788,-0.0976872,-0.0399677,-0.04878
 4,0.0619408,0.0763784,-0.0440069,-0.0902224,-0.0215659,0.0538109,0.407
 0617,0.1185049,-0.0030945,0.1835922,0.6836545,-0.1288779,0.0345193,-0.
 1295692,0.3750648,-0.0354551,0.0627158,-0.0175693,0.0005126,0.1017541,
 -0.0233357,-0.0082587,-0.0047,0.0329065,0.0938773,-0.1713334,0.0490331
 ,-0.2081813,-0.1893816,0.0695776,0.0569137,0.0408206,0.095858,0.011455
 9,0.0079531,-0.0242191,0.0147795,0.0592776,0.0359269,-0.0235159,-0.004
 8727,-0.118477,0.0013141,-0.0152074,0.0109599,0.0121359,-0.1564112,0.0
 051492,0.0293742,0.0348105,0.0600317,-0.0728581,0.0791175,0.0378525,0.
 0451349,-0.0384206,-0.027259,0.0742621,-0.0557923,0.0228948,0.0150703,
 -0.0191865,-0.0024037,-0.0272183,-0.0229871,0.0203805,-0.0414244,0.082
 0791,-0.1901895,-0.0211382,0.0583204,0.0193431,0.1040293,-0.0220397,-0
 .0567479,0.0382117,-0.0712874,0.0234145,-0.0571481,-0.0494544,-0.02260
 96,-0.1065474,-0.0629057,-0.0057353,-0.0304875,0.0130431,0.0721553,0.0
 33977,-0.0073942,0.0426241,0.0188124,0.0560107,0.0432394,-0.0162135,0.
 0493915,-0.0993007,-0.0045276,0.05741,-0.039651,0.0701286,0.0965682,-0
 .0126125,-0.0332171,-0.0331972,-0.1070408,0.2774639,0.0964394,0.061643
 9,0.0781457,0.2850787,0.005221,0.0678904,-0.0049377,0.2516595\Polar=62
 .5961395,-2.0093454,52.1962186,1.0172951,0.7628091,48.9830809\Quadrupo
 le=-2.1679699,1.3772457,0.7907241,-2.3459303,0.9096097,0.8149357\PG=C0
 1 [X(C4H9O1)]\NImag=0\\0.39048540,-0.15525538,0.52088741,-0.16472323,0
 .02005287,0.14141100,-0.00923066,-0.01288218,-0.00056181,0.46199201,-0
 .04063185,-0.02646136,-0.00545490,-0.00599305,0.50866983,0.01174956,0.
 00656419,0.00552934,0.00916978,-0.01774995,0.57434558,-0.09603169,-0.0
 5072636,0.02732051,-0.17606710,-0.01318182,-0.03514706,0.52899652,-0.0
 0882547,-0.22882295,0.03703712,-0.01801838,-0.07575764,-0.01096079,-0.
 07398312,0.53107259,0.02182314,0.05535708,-0.08653087,-0.03070203,-0.0
 0703196,-0.09707794,-0.03805952,0.02438762,0.58928244,0.00018755,-0.00
 026399,0.00000170,-0.01714500,0.00217848,-0.00659160,-0.00089826,0.002
 83312,0.00134143,0.49449140,-0.00081324,0.00110200,0.00029535,0.020686
 13,0.00199085,0.00796412,0.00017979,-0.00396806,-0.00173840,-0.0292218
 5,0.52086603,0.00009681,0.00058732,-0.00000509,0.01432382,0.00023464,0
 .00841596,0.00177782,-0.00336587,-0.00220575,-0.02986354,0.01935231,0.
 55227625,0.00082370,0.00393705,0.00062414,-0.13890619,0.06760361,0.042
 68815,-0.03470277,0.01784515,0.01342741,-0.20058281,0.03964363,-0.0596
 8109,0.46344751,-0.00327239,0.00036193,0.00026230,0.06309048,-0.103617
 30,-0.04762622,0.00360489,0.00225972,0.00451365,0.04065842,-0.06202685
 ,0.00249265,-0.14178713,0.20400233,0.00039744,-0.00203804,-0.00001077,
 0.03755860,-0.04912125,-0.12069473,-0.00310196,0.01113703,0.00698605,-
 0.06233602,0.00107851,-0.11066002,0.06236384,0.10350345,0.57091837,0.0
 0307564,0.00146995,0.00246626,-0.05098121,0.00214439,-0.02169561,-0.00
 493748,0.00497678,-0.03420946,0.00095073,-0.00110004,0.00101036,0.0024
 7327,-0.00120777,0.02260060,0.05640241,0.00115713,0.00096782,-0.000146
 31,0.00324399,-0.04907734,0.03134466,-0.00140624,-0.00018770,-0.007615
 00,-0.00086357,0.00055810,-0.00033759,-0.00096662,-0.00025582,-0.02126
 704,-0.00624266,0.05326372,0.00114032,-0.00088417,0.00205114,-0.022905
 59,0.02944817,-0.30008835,-0.00159480,0.00229321,-0.00980677,-0.001130
 80,0.00051560,0.00113561,-0.00105262,-0.00099477,-0.01734578,0.0250349
 9,-0.03061893,0.32856707,-0.00779373,-0.00520044,-0.00229202,-0.047665
 67,-0.03008327,0.00471592,-0.00122772,-0.02969167,0.00859878,0.0004471
 4,-0.00118913,0.00022799,0.00075315,0.02375632,-0.00239046,0.00033112,
 0.00342968,-0.00061046,0.05502006,-0.00251171,0.00015150,-0.00116610,-
 0.04191791,-0.26871244,0.05304162,-0.00000705,-0.00902214,0.00335549,-
 0.00019559,0.00002877,-0.00057098,0.00549768,-0.02007388,-0.00319126,-
 0.00086779,-0.00395335,0.00155517,0.03811259,0.30010761,-0.00161025,-0
 .00042246,0.00117611,0.00664437,0.04551564,-0.05506233,-0.00184361,-0.
 00904324,0.00101389,-0.00037844,0.00027708,-0.00001940,-0.00083699,-0.
 01614911,0.00257204,0.00522456,0.03083626,-0.00632630,-0.00924542,-0.0
 5280283,0.05675817,0.00825613,-0.00691383,-0.00426062,-0.02049588,0.01
 629689,0.01591898,-0.16898206,0.10701293,0.08332923,-0.00060891,0.0008
 7395,0.00123109,-0.00434398,-0.00186363,-0.00392553,0.00119917,0.00045
 859,-0.00036736,0.00093566,-0.00032538,0.00033601,0.18013555,0.0225845
 5,-0.03539835,-0.01189828,-0.00571256,0.00627581,0.00483027,0.09902325
 ,-0.13308324,-0.06985382,-0.00034123,0.00045161,0.00031048,-0.00203932
 ,0.00032588,-0.00133961,0.00046434,-0.00006725,-0.00003734,0.00064636,
 0.00046214,0.00027438,-0.11024097,0.16344123,-0.00795402,0.00871559,0.
 00751815,-0.00912437,0.00621904,0.00513572,0.08629226,-0.07753672,-0.1
 1429909,-0.00034956,0.00044095,0.00044747,-0.00101857,-0.00084488,-0.0
 0030132,0.00047616,0.00051117,0.00059947,0.00099034,0.00013287,0.00018
 293,-0.09004131,0.07681891,0.11481657,0.00354503,-0.00590939,0.0097397
 0,-0.00623787,0.00206852,-0.03278502,-0.05580604,0.00569162,-0.0252383
 8,-0.00011880,0.00031950,0.00017216,0.00232686,-0.00081444,-0.00155222
 ,-0.00577100,-0.00138081,-0.00164995,0.00111121,-0.00005905,0.00063472
 ,0.00370065,-0.00138662,0.02166783,0.05772886,-0.00247363,-0.02131653,
 0.03970491,-0.00044256,0.00295898,-0.00855765,0.00642021,-0.05052849,0
 .01344774,-0.00000353,0.00006768,-0.00007938,0.00038115,-0.00006774,0.
 00080292,-0.00223584,0.00036783,-0.00012615,0.00077683,0.00020550,0.00
 019677,-0.00278046,0.00337409,-0.01792588,0.00084500,0.06389891,0.0021
 4807,0.01413102,-0.00404534,-0.00167855,-0.00065616,-0.01000759,-0.025
 91692,0.01660502,-0.29155698,-0.00007593,0.00016958,0.00043377,0.00123
 867,-0.00044736,0.00085695,-0.00147808,-0.00087055,0.00097667,-0.00070
 159,-0.00048221,-0.00008627,-0.00205844,-0.00015523,-0.01473695,0.0285
 2512,-0.02894368,0.31777805,-0.00009423,-0.00051448,0.00000488,-0.0036
 5912,0.00024764,-0.00390609,-0.00014872,0.00164514,0.00074210,-0.10853
 760,0.09554929,0.06508186,-0.01682708,0.02011927,0.01744543,0.00020315
 ,-0.00030157,-0.00026512,-0.00031235,0.00043721,0.00003519,-0.00046251
 ,-0.00019625,-0.00014097,-0.00005832,-0.00001679,-0.00009070,0.1217624
 7,0.00015992,0.00020457,-0.00000284,0.00044590,0.00115671,0.00112155,-
 0.00020497,-0.00037610,-0.00043259,0.09678667,-0.18503032,-0.09635699,
 0.00094479,-0.00275282,-0.00197503,-0.00006762,-0.00002128,-0.00007115
 ,-0.00027106,0.00008948,-0.00002600,0.00013270,0.00003845,0.00005228,0
 .00001371,-0.00000061,0.00004983,-0.10457348,0.19824280,0.00001022,0.0
 0002443,-0.00001467,-0.00210373,-0.00055107,-0.00108058,-0.00039808,0.
 00031507,0.00070794,0.06601157,-0.09645005,-0.11783330,-0.00726576,0.0
 1125877,0.00841433,-0.00017670,0.00003267,0.00048047,0.00022776,-0.000
 06900,0.00004548,-0.00022062,-0.00007111,-0.00008253,0.00010482,0.0000
 3150,-0.00002927,-0.07026360,0.10684146,0.12224694,-0.00033340,0.00027
 930,0.00016145,0.00205465,0.00104927,-0.00068045,-0.00027937,-0.000182
 50,-0.00002859,-0.12140715,-0.12099595,0.00431506,-0.02366745,-0.01948
 606,-0.00559976,-0.00025712,-0.00010551,0.00019636,-0.00088068,0.00079
 928,0.00032581,-0.00008642,0.00001074,0.00007658,0.00014523,0.00001692
 ,0.00005647,0.00948195,0.01284422,-0.00042715,0.13774096,0.00005958,-0
 .00005752,-0.00004642,-0.00078658,0.00014000,-0.00014755,-0.00009421,0
 .00021778,0.00010217,-0.10931279,-0.21098311,0.00288326,0.00033297,0.0
 0914114,-0.00273529,-0.00005027,-0.00004702,-0.00000767,-0.00034827,-0
 .00012871,0.00015158,-0.00006950,-0.00000749,-0.00001437,-0.00000102,-
 0.00001946,-0.00003072,-0.01307070,-0.01978287,0.00089386,0.12903469,0
 .23064595,-0.00016857,0.00003315,0.00010118,0.00049077,-0.00029281,0.0
 0006096,-0.00003795,-0.00000181,-0.00006287,0.00114315,-0.00155507,-0.
 04139143,-0.01084103,-0.01076426,-0.00157679,-0.00004394,0.00020205,-0
 .00002988,-0.00019872,0.00036173,0.00015038,-0.00002616,0.00000714,0.0
 0002951,-0.00000534,-0.00001062,0.00000473,-0.00979288,-0.01405112,-0.
 00022464,0.00123788,-0.00170640,0.04428227,0.00007174,-0.00008638,0.00
 025813,0.00156534,-0.00052923,-0.00123201,-0.00008279,-0.00010584,-0.0
 0018450,-0.04733912,-0.00327270,0.02840693,0.00029876,0.00575722,-0.03
 079749,-0.00006216,0.00015978,0.00089390,0.00002536,-0.00008126,0.0002
 9366,0.00003359,-0.00000784,0.00008364,0.00008723,-0.00000742,0.000228
 42,-0.00254000,-0.00608307,0.01359639,-0.00224128,-0.00517628,0.018092
 92,0.05444870,0.00014505,-0.00024640,0.00003639,-0.00061583,-0.0002019
 9,0.00093746,0.00017792,0.00034311,-0.00027645,-0.00383380,-0.06731889
 ,0.07161940,-0.00147464,-0.00009465,0.00310145,0.00037171,-0.00005094,
 -0.00030168,0.00010972,-0.00006801,-0.00004894,0.00001885,-0.00001726,
 -0.00001229,-0.00011575,-0.00005429,-0.00005572,0.00140595,0.00805145,
 -0.02267612,-0.00402959,-0.00872157,0.02646617,0.00790786,0.06836332,-
 0.00012363,-0.00007742,0.00017425,0.00070295,-0.00115265,0.00076389,0.
 00008127,-0.00001858,0.00035686,0.03053994,0.07077315,-0.28422158,-0.0
 0384105,0.00116231,-0.01479709,-0.00053476,0.00055245,0.00059188,0.000
 18347,0.00007567,0.00005722,-0.00007622,-0.00003495,0.00003311,0.00022
 554,0.00000421,0.00004673,0.00120367,0.00464145,-0.01324780,0.00075002
 ,0.00042386,-0.00065714,-0.02746603,-0.07860374,0.31112785,-0.00013177
 ,-0.00052224,-0.00047903,0.00345264,0.00151666,0.01859165,0.00247581,-
 0.00010763,0.00186603,0.00094650,-0.00110368,-0.02693594,-0.05147467,0
 .01079055,-0.03060703,-0.00250409,0.00281002,0.00240648,0.00003476,0.0
 0063746,0.00022365,0.00012002,0.00004584,-0.00039700,-0.00025527,0.000
 08226,-0.00087663,0.00121310,-0.00006952,0.00085205,-0.00066477,-0.000
 55543,-0.00000329,-0.00425287,0.00012729,-0.00171043,0.05127491,0.0002
 6352,-0.00036874,-0.00001302,-0.00165774,0.00120665,-0.01958089,-0.000
 62469,0.00080568,0.00010197,0.00167296,0.00401056,0.00324251,0.0111742
 8,-0.02755780,-0.03781970,0.00264658,-0.00125578,-0.00066872,-0.000733
 07,0.00049943,0.00104526,-0.00011313,-0.00014115,0.00018373,0.00030285
 ,0.00005913,0.00053933,-0.00090277,0.00025847,0.00046672,0.00052442,-0
 .00037634,0.00120175,0.00147828,0.00001673,0.00213835,-0.01358428,0.02
 287490,0.00033043,0.00074758,0.00039212,-0.00255139,0.00055360,-0.0107
 8822,-0.00137094,-0.00064062,0.00026106,0.00167145,-0.00071692,-0.0062
 4207,-0.03544283,-0.04697807,-0.32481996,0.00152528,-0.00211671,-0.000
 27696,0.00018459,-0.00040450,-0.00022206,0.00006811,0.00005736,0.00035
 766,0.00087730,0.00013560,0.00039948,-0.00014397,0.00023439,0.00060535
 ,-0.00019551,0.00021446,-0.00056722,-0.00188737,-0.00013609,0.00000976
 ,0.03660772,0.04884639,0.34166246,-0.29282971,0.23258839,0.13173995,0.
 00132405,-0.00268625,-0.00079620,0.00769167,-0.00909011,-0.00270566,-0
 .00038568,0.00044430,-0.00016333,0.00038169,0.00065427,-0.00005543,-0.
 00012242,0.00000778,-0.00009538,-0.00077832,0.00048154,0.00019673,0.00
 059901,-0.00285028,-0.00056101,-0.00039779,-0.00056214,0.00068009,-0.0
 0002072,-0.00005819,0.00005282,0.00039484,0.00003781,0.00015316,-0.000
 01251,-0.00019472,0.00006526,-0.00023430,-0.00044722,0.00032712,0.2843
 9017,0.18941393,-0.21100338,-0.07866108,0.00056030,0.00142923,-0.00118
 081,0.03082241,-0.03295257,-0.01431751,-0.00009331,0.00025163,-0.00001
 175,-0.00109260,0.00035586,-0.00013616,-0.00030176,-0.00024100,-0.0001
 0156,0.00068540,0.00041409,0.00019560,-0.00248702,-0.00565447,0.003259
 62,0.00042588,0.00105501,0.00014683,0.00017156,-0.00007793,-0.00004713
 ,0.00024078,-0.00002078,0.00011010,0.00004688,-0.00000059,0.00011589,-
 0.00006730,-0.00003174,0.00020351,-0.21832517,0.24647665,0.13688370,-0
 .10279116,-0.06774654,0.00073720,0.00003965,0.00054830,-0.00800102,0.0
 0979254,0.00293204,0.00001667,-0.00040620,-0.00013041,-0.00036229,0.00
 061152,0.00045872,-0.00019966,-0.00050713,-0.00052826,0.00030982,0.000
 16433,-0.00023986,0.00009282,0.00109179,0.00029929,-0.00071627,0.00131
 971,-0.00003398,0.00009018,-0.00002526,0.00001227,-0.00018818,0.000019
 23,-0.00011907,-0.00028659,-0.00004982,-0.00023793,0.00046176,0.000316
 33,-0.00077139,-0.12883813,0.09042446,0.06555682\\-0.00000009,0.000000
 10,-0.00000036,0.00000003,-0.00000005,0.00000011,-0.00000001,-0.000000
 08,-0.00000009,-0.00000005,-0.00000014,0.00000011,0.00000004,0.0000000
 3,0.00000003,-0.00000009,-0.00000022,0.00000010,0.00000010,0.00000004,
 0.00000029,0.00000003,0.00000010,-0.00000006,0.00000016,0.00000036,-0.
 00000011,-0.00000003,-0.00000008,0.00000003,0.00000002,-0.00000017,0.0
 0000032,-0.00000015,-0.00000032,0.00000006,0.00000013,0.00000027,0.,-0
 .00000008,0.00000015,-0.00000042\\\@


     "IF I COULD JUST GET IT ON PAPER"
 LIFE AND INK, THEY RUN OUT AT THE SAME TIME,
 OR SO SAID MY OLD FRIEND THE SQUID.
     -- JIMMY BUFFETT, 1981
 Job cpu time:       0 days  3 hours  2 minutes 32.3 seconds.
 Elapsed time:       0 days  0 hours  9 minutes  8.3 seconds.
 File lengths (MBytes):  RWF=   1376 Int=      0 D2E=      0 Chk=     32 Scr=     32
 Normal termination of Gaussian 16 at Mon Mar 11 16:03:06 2019.
