 Entering Gaussian System, Link 0=g16
 Input=DBQZVPSKYUCKNT-UHFFFAOYSA-N_36by10.0_tor02_a1_F.com
 Output=DBQZVPSKYUCKNT-UHFFFAOYSA-N_36by10.0_tor02_a1_F.log
 Initial command:
 /shared/centos7/gaussian/g16/l1.exe "/scratch/underkoffler.c/gaussian_scratch/Gau-30241.inp" -scrdir="/scratch/underkoffler.c/gaussian_scratch/"
 Entering Link 1 = /shared/centos7/gaussian/g16/l1.exe PID=     30242.
  
 Copyright (c) 1988,1990,1992,1993,1995,1998,2003,2009,2016,
            Gaussian, Inc.  All Rights Reserved.
  
 This is part of the Gaussian(R) 16 program.  It is based on
 the Gaussian(R) 09 system (copyright 2009, Gaussian, Inc.),
 the Gaussian(R) 03 system (copyright 2003, Gaussian, Inc.),
 the Gaussian(R) 98 system (copyright 1998, Gaussian, Inc.),
 the Gaussian(R) 94 system (copyright 1995, Gaussian, Inc.),
 the Gaussian 92(TM) system (copyright 1992, Gaussian, Inc.),
 the Gaussian 90(TM) system (copyright 1990, Gaussian, Inc.),
 the Gaussian 88(TM) system (copyright 1988, Gaussian, Inc.),
 the Gaussian 86(TM) system (copyright 1986, Carnegie Mellon
 University), and the Gaussian 82(TM) system (copyright 1983,
 Carnegie Mellon University). Gaussian is a federally registered
 trademark of Gaussian, Inc.
  
 This software contains proprietary and confidential information,
 including trade secrets, belonging to Gaussian, Inc.
  
 This software is provided under written license and may be
 used, copied, transmitted, or stored only in accord with that
 written license.
  
 The following legend is applicable only to US Government
 contracts under FAR:
  
                    RESTRICTED RIGHTS LEGEND
  
 Use, reproduction and disclosure by the US Government is
 subject to restrictions as set forth in subparagraphs (a)
 and (c) of the Commercial Computer Software - Restricted
 Rights clause in FAR 52.227-19.
  
 Gaussian, Inc.
 340 Quinnipiac St., Bldg. 40, Wallingford CT 06492
  
  
 ---------------------------------------------------------------
 Warning -- This program may not be used in any manner that
 competes with the business of Gaussian, Inc. or will provide
 assistance to any competitor of Gaussian, Inc.  The licensee
 of this program is prohibited from giving any competitor of
 Gaussian, Inc. access to this program.  By using this program,
 the user acknowledges that Gaussian, Inc. is engaged in the
 business of creating and licensing software in the field of
 computational chemistry and represents and warrants to the
 licensee that it is not a competitor of Gaussian, Inc. and that
 it will not use this program in any manner prohibited above.
 ---------------------------------------------------------------
  

 Cite this work as:
 Gaussian 16, Revision A.03,
 M. J. Frisch, G. W. Trucks, H. B. Schlegel, G. E. Scuseria, 
 M. A. Robb, J. R. Cheeseman, G. Scalmani, V. Barone, 
 G. A. Petersson, H. Nakatsuji, X. Li, M. Caricato, A. V. Marenich, 
 J. Bloino, B. G. Janesko, R. Gomperts, B. Mennucci, H. P. Hratchian, 
 J. V. Ortiz, A. F. Izmaylov, J. L. Sonnenberg, D. Williams-Young, 
 F. Ding, F. Lipparini, F. Egidi, J. Goings, B. Peng, A. Petrone, 
 T. Henderson, D. Ranasinghe, V. G. Zakrzewski, J. Gao, N. Rega, 
 G. Zheng, W. Liang, M. Hada, M. Ehara, K. Toyota, R. Fukuda, 
 J. Hasegawa, M. Ishida, T. Nakajima, Y. Honda, O. Kitao, H. Nakai, 
 T. Vreven, K. Throssell, J. A. Montgomery, Jr., J. E. Peralta, 
 F. Ogliaro, M. J. Bearpark, J. J. Heyd, E. N. Brothers, K. N. Kudin, 
 V. N. Staroverov, T. A. Keith, R. Kobayashi, J. Normand, 
 K. Raghavachari, A. P. Rendell, J. C. Burant, S. S. Iyengar, 
 J. Tomasi, M. Cossi, J. M. Millam, M. Klene, C. Adamo, R. Cammi, 
 J. W. Ochterski, R. L. Martin, K. Morokuma, O. Farkas, 
 J. B. Foresman, and D. J. Fox, Gaussian, Inc., Wallingford CT, 2016.
 
 ******************************************
 Gaussian 16:  EM64L-G16RevA.03 25-Dec-2016
                12-Apr-2019 
 ******************************************
 %nprocshared=20
 Will use up to   20 processors via shared memory.
 %mem=5GB
 ----------------------------------------------
 #p m062x/6-311+g(2df,2p) Opt=(CalcFC,ModRedun)
 ----------------------------------------------
 1/10=4,18=120,19=15,26=3,38=1/1,3;
 2/9=110,12=2,17=6,18=5,40=1/2;
 3/5=4,6=6,7=214,11=2,25=1,30=1,71=2,74=-55,140=1/1,2,3;
 4//1;
 5/5=2,38=5/2;
 8/6=4,10=90,11=11/1;
 11/6=1,8=1,9=11,15=111,16=1/1,2,10;
 10/6=1,13=1/2;
 6/7=2,8=2,9=2,10=2,28=1/1;
 7/10=1,18=20,25=1/1,2,3,16;
 1/10=4,18=20,19=15,26=3/3(2);
 2/9=110/2;
 99//99;
 2/9=110/2;
 3/5=4,6=6,7=214,11=2,25=1,30=1,71=1,74=-55/1,2,3;
 4/5=5,16=3,69=1/1;
 5/5=2,38=5/2;
 7//1,2,3,16;
 1/18=20,19=15,26=3/3(-5);
 2/9=110/2;
 6/7=2,8=2,9=2,10=2,19=2,28=1/1;
 99/9=1/99;
 Leave Link    1 at Fri Apr 12 19:20:20 2019, MaxMem=   671088640 cpu:              27.6 elap:               1.5
 (Enter /shared/centos7/gaussian/g16/l101.exe)
 ----------------------------------------
 Gaussian Input Prepared from Scan Object
 ----------------------------------------
 Symbolic Z-matrix:
 Charge =  0 Multiplicity = 2
 O                    -1.81164  -0.87534   0.2106 
 C                    -0.04824   0.80641   0.24273 
 C                    -1.47065   0.44232  -0.16607 
 C                     2.29561  -0.30435   0.14865 
 C                     0.96831  -0.02652  -0.45999 
 H                     0.05353   0.68828   1.32485 
 H                     0.11074   1.87335   0.02825 
 H                    -2.18881   1.09455   0.32843 
 H                    -1.58638   0.57744  -1.2482 
 H                     2.8363   -1.08184  -0.38868 
 H                     2.93326   0.58966   0.15119 
 H                     2.19203  -0.6124    1.19123 
 H                     0.84575  -0.16871  -1.52816 
 H                    -1.11731  -1.46341  -0.09975 
 
 The following ModRedundant input section has been read:
 B       4      12 B                                                           
 B       5      13 B                                                           
 B       4      11 B                                                           
 B       3       8 B                                                           
 B       3       9 B                                                           
 B       2       3 B                                                           
 B       4       5 B                                                           
 B       2       5 B                                                           
 B       2       7 B                                                           
 B       4      10 B                                                           
 B       2       6 B                                                           
 B       1      14 B                                                           
 B       1       3 B                                                           
 D      14       1       3       9 S  36 10.000                                
 D       5       2       3       9 F                                           
 D       7       2       5      13 F                                           
 D      12       4       5      13 F                                           
 
 ITRead=  0  0  0  0  0  0  0  0  0  0  0  0  0  0
 MicOpt= -1 -1 -1 -1 -1 -1 -1 -1 -1 -1 -1 -1 -1 -1
 NAtoms=     14 NQM=       14 NQMF=       0 NMMI=      0 NMMIF=      0
                NMic=       0 NMicF=      0.
                    Isotopes and Nuclear Properties:
 (Nuclear quadrupole moments (NQMom) in fm**2, nuclear magnetic moments (NMagM)
  in nuclear magnetons)

  Atom         1           2           3           4           5           6           7           8           9          10
 IAtWgt=          16          12          12          12          12           1           1           1           1           1
 AtmWgt=  15.9949146  12.0000000  12.0000000  12.0000000  12.0000000   1.0078250   1.0078250   1.0078250   1.0078250   1.0078250
 NucSpn=           0           0           0           0           0           1           1           1           1           1
 AtZEff=  -0.0000000  -0.0000000  -0.0000000  -0.0000000  -0.0000000  -0.0000000  -0.0000000  -0.0000000  -0.0000000  -0.0000000
 NQMom=    0.0000000   0.0000000   0.0000000   0.0000000   0.0000000   0.0000000   0.0000000   0.0000000   0.0000000   0.0000000
 NMagM=    0.0000000   0.0000000   0.0000000   0.0000000   0.0000000   2.7928460   2.7928460   2.7928460   2.7928460   2.7928460
 AtZNuc=   8.0000000   6.0000000   6.0000000   6.0000000   6.0000000   1.0000000   1.0000000   1.0000000   1.0000000   1.0000000

  Atom        11          12          13          14
 IAtWgt=           1           1           1           1
 AtmWgt=   1.0078250   1.0078250   1.0078250   1.0078250
 NucSpn=           1           1           1           1
 AtZEff=  -0.0000000  -0.0000000  -0.0000000  -0.0000000
 NQMom=    0.0000000   0.0000000   0.0000000   0.0000000
 NMagM=    2.7928460   2.7928460   2.7928460   2.7928460
 AtZNuc=   1.0000000   1.0000000   1.0000000   1.0000000
 Leave Link  101 at Fri Apr 12 19:20:20 2019, MaxMem=   671088640 cpu:               7.6 elap:               0.4
 (Enter /shared/centos7/gaussian/g16/l103.exe)

 GradGradGradGradGradGradGradGradGradGradGradGradGradGradGradGradGradGrad
 Berny optimization.
 Initialization pass.
                           ----------------------------
                           !    Initial Parameters    !
                           ! (Angstroms and Degrees)  !
 --------------------------                            --------------------------
 ! Name  Definition              Value          Derivative Info.                !
 --------------------------------------------------------------------------------
 ! R1    R(1,3)                  1.4122         calculate D2E/DX2 analytically  !
 ! R2    R(1,14)                 0.9614         calculate D2E/DX2 analytically  !
 ! R3    R(2,3)                  1.5241         calculate D2E/DX2 analytically  !
 ! R4    R(2,5)                  1.4903         calculate D2E/DX2 analytically  !
 ! R5    R(2,6)                  1.0933         calculate D2E/DX2 analytically  !
 ! R6    R(2,7)                  1.0998         calculate D2E/DX2 analytically  !
 ! R7    R(3,8)                  1.0889         calculate D2E/DX2 analytically  !
 ! R8    R(3,9)                  1.0967         calculate D2E/DX2 analytically  !
 ! R9    R(4,5)                  1.4864         calculate D2E/DX2 analytically  !
 ! R10   R(4,10)                 1.0888         calculate D2E/DX2 analytically  !
 ! R11   R(4,11)                 1.0981         calculate D2E/DX2 analytically  !
 ! R12   R(4,12)                 1.0921         calculate D2E/DX2 analytically  !
 ! R13   R(5,13)                 1.0845         calculate D2E/DX2 analytically  !
 ! A1    A(3,1,14)             108.0745         calculate D2E/DX2 analytically  !
 ! A2    A(3,2,5)              112.1241         calculate D2E/DX2 analytically  !
 ! A3    A(3,2,6)              109.0587         calculate D2E/DX2 analytically  !
 ! A4    A(3,2,7)              108.3211         calculate D2E/DX2 analytically  !
 ! A5    A(5,2,6)              110.0491         calculate D2E/DX2 analytically  !
 ! A6    A(5,2,7)              110.5872         calculate D2E/DX2 analytically  !
 ! A7    A(6,2,7)              106.5217         calculate D2E/DX2 analytically  !
 ! A8    A(1,3,2)              112.1291         calculate D2E/DX2 analytically  !
 ! A9    A(1,3,8)              106.1713         calculate D2E/DX2 analytically  !
 ! A10   A(1,3,9)              110.65           calculate D2E/DX2 analytically  !
 ! A11   A(2,3,8)              110.5256         calculate D2E/DX2 analytically  !
 ! A12   A(2,3,9)              109.4946         calculate D2E/DX2 analytically  !
 ! A13   A(8,3,9)              107.7411         calculate D2E/DX2 analytically  !
 ! A14   A(5,4,10)             112.0139         calculate D2E/DX2 analytically  !
 ! A15   A(5,4,11)             111.5488         calculate D2E/DX2 analytically  !
 ! A16   A(5,4,12)             111.0355         calculate D2E/DX2 analytically  !
 ! A17   A(10,4,11)            107.1054         calculate D2E/DX2 analytically  !
 ! A18   A(10,4,12)            108.4705         calculate D2E/DX2 analytically  !
 ! A19   A(11,4,12)            106.41           calculate D2E/DX2 analytically  !
 ! A20   A(2,5,4)              121.3659         calculate D2E/DX2 analytically  !
 ! A21   A(2,5,13)             117.4265         calculate D2E/DX2 analytically  !
 ! A22   A(4,5,13)             118.6654         calculate D2E/DX2 analytically  !
 ! D1    D(14,1,3,2)           -50.6641         calculate D2E/DX2 analytically  !
 ! D2    D(14,1,3,8)          -171.4627         calculate D2E/DX2 analytically  !
 ! D3    D(14,1,3,9)            71.9001         Scan                            !
 ! D4    D(5,2,3,1)             64.2446         calculate D2E/DX2 analytically  !
 ! D5    D(5,2,3,8)           -177.5077         calculate D2E/DX2 analytically  !
 ! D6    D(5,2,3,9)            -58.9725         frozen, calculate D2E/DX2 analyt!
 ! D7    D(6,2,3,1)            -57.8952         calculate D2E/DX2 analytically  !
 ! D8    D(6,2,3,8)             60.3525         calculate D2E/DX2 analytically  !
 ! D9    D(6,2,3,9)            178.8877         calculate D2E/DX2 analytically  !
 ! D10   D(7,2,3,1)           -173.4474         calculate D2E/DX2 analytically  !
 ! D11   D(7,2,3,8)            -55.1997         calculate D2E/DX2 analytically  !
 ! D12   D(7,2,3,9)             63.3355         calculate D2E/DX2 analytically  !
 ! D13   D(3,2,5,4)           -152.643          calculate D2E/DX2 analytically  !
 ! D14   D(3,2,5,13)            45.6851         calculate D2E/DX2 analytically  !
 ! D15   D(6,2,5,4)            -31.0692         calculate D2E/DX2 analytically  !
 ! D16   D(6,2,5,13)           167.2589         calculate D2E/DX2 analytically  !
 ! D17   D(7,2,5,4)             86.3472         calculate D2E/DX2 analytically  !
 ! D18   D(7,2,5,13)           -75.3246         frozen, calculate D2E/DX2 analyt!
 ! D19   D(10,4,5,2)           168.3893         calculate D2E/DX2 analytically  !
 ! D20   D(10,4,5,13)          -30.1589         calculate D2E/DX2 analytically  !
 ! D21   D(11,4,5,2)           -71.5603         calculate D2E/DX2 analytically  !
 ! D22   D(11,4,5,13)           89.8916         calculate D2E/DX2 analytically  !
 ! D23   D(12,4,5,2)            46.9485         calculate D2E/DX2 analytically  !
 ! D24   D(12,4,5,13)         -151.5997         frozen, calculate D2E/DX2 analyt!
 --------------------------------------------------------------------------------
 Trust Radius=3.00D-01 FncErr=1.00D-07 GrdErr=1.00D-06 EigMax=2.50D+02 EigMin=1.00D-04
 Number of optimizations in scan=  37
 Number of steps in this run=     69 maximum allowed number of steps=    100.
 GradGradGradGradGradGradGradGradGradGradGradGradGradGradGradGradGradGrad

 Leave Link  103 at Fri Apr 12 19:20:20 2019, MaxMem=   671088640 cpu:               0.2 elap:               0.0
 (Enter /shared/centos7/gaussian/g16/l202.exe)
                          Input orientation:                          
 ---------------------------------------------------------------------
 Center     Atomic      Atomic             Coordinates (Angstroms)
 Number     Number       Type             X           Y           Z
 ---------------------------------------------------------------------
      1          8           0       -1.811639   -0.875341    0.210597
      2          6           0       -0.048241    0.806410    0.242725
      3          6           0       -1.470651    0.442321   -0.166066
      4          6           0        2.295610   -0.304354    0.148646
      5          6           0        0.968309   -0.026516   -0.459990
      6          1           0        0.053531    0.688278    1.324854
      7          1           0        0.110742    1.873347    0.028248
      8          1           0       -2.188808    1.094554    0.328433
      9          1           0       -1.586380    0.577437   -1.248196
     10          1           0        2.836303   -1.081843   -0.388683
     11          1           0        2.933258    0.589662    0.151192
     12          1           0        2.192026   -0.612395    1.191234
     13          1           0        0.845752   -0.168712   -1.528161
     14          1           0       -1.117310   -1.463407   -0.099745
 ---------------------------------------------------------------------
                    Distance matrix (angstroms):
                    1          2          3          4          5
     1  O    0.000000
     2  C    2.436984   0.000000
     3  C    1.412226   1.524113   0.000000
     4  C    4.147211   2.595436   3.852439   0.000000
     5  C    2.983003   1.490285   2.500945   1.486392   0.000000
     6  H    2.676814   1.093304   2.146268   2.719504   2.129182
     7  H    3.359180   1.099832   2.141587   3.087154   2.140859
     8  H    2.009136   2.161573   1.088892   4.700986   3.441772
     9  H    2.071083   2.154332   1.096657   4.218836   2.740888
    10  H    4.690964   3.504964   4.574111   1.088835   2.146672
    11  H    4.966268   2.990769   4.417780   1.098119   2.148079
    12  H    4.130391   2.816288   4.045973   1.092066   2.137120
    13  H    3.253357   2.210458   2.755792   2.220849   1.084541
    14  H    0.961367   2.532245   1.939343   3.612911   2.558171
                    6          7          8          9         10
     6  H    0.000000
     7  H    1.757512   0.000000
     8  H    2.487166   2.446336   0.000000
     9  H    3.053225   2.487753   1.765244   0.000000
    10  H    3.716633   4.041740   5.522925   4.801261   0.000000
    11  H    3.111276   3.103153   5.149941   4.731339   1.759203
    12  H    2.506545   3.444299   4.780147   4.652191   1.769636
    13  H    3.082489   2.670702   3.775094   2.559373   2.468706
    14  H    2.833743   3.557868   2.806173   2.388307   3.982478
                   11         12         13         14
    11  H    0.000000
    12  H    1.753868   0.000000
    13  H    2.784428   3.066662   0.000000
    14  H    4.548095   3.652747   2.751403   0.000000
 Stoichiometry    C4H9O(2)
 Framework group  C1[X(C4H9O)]
 Deg. of freedom    36
 Full point group                 C1      NOp   1
 Largest Abelian subgroup         C1      NOp   1
 Largest concise Abelian subgroup C1      NOp   1
                         Standard orientation:                         
 ---------------------------------------------------------------------
 Center     Atomic      Atomic             Coordinates (Angstroms)
 Number     Number       Type             X           Y           Z
 ---------------------------------------------------------------------
      1          8           0        1.812852   -0.879081   -0.195069
      2          6           0        0.050536    0.803141   -0.252206
      3          6           0        1.471986    0.443558    0.163845
      4          6           0       -2.294155   -0.304940   -0.147954
      5          6           0       -0.967783   -0.020001    0.459422
      6          1           0       -0.049361    0.671033   -1.332892
      7          1           0       -0.108186    1.872864   -0.051880
      8          1           0        2.191427    1.088899   -0.337778
      9          1           0        1.585851    0.592640    1.244339
     10          1           0       -2.836286   -1.075075    0.398442
     11          1           0       -2.931255    0.589340   -0.163254
     12          1           0       -2.188883   -0.626547   -1.186268
     13          1           0       -0.847234   -0.148393    1.529568
     14          1           0        1.117609   -1.462664    0.121624
 ---------------------------------------------------------------------
 Rotational constants (GHZ):          11.2368818           2.5815758           2.3292604
 Leave Link  202 at Fri Apr 12 19:20:20 2019, MaxMem=   671088640 cpu:               0.3 elap:               0.0
 (Enter /shared/centos7/gaussian/g16/l301.exe)
 Standard basis: 6-311+G(2df,2p) (5D, 7F)
 Ernie: Thresh=  0.10000D-02 Tol=  0.10000D-05 Strict=F.
 There are   276 symmetry adapted cartesian basis functions of A   symmetry.
 There are   251 symmetry adapted basis functions of A   symmetry.
   251 basis functions,   359 primitive gaussians,   276 cartesian basis functions
    21 alpha electrons       20 beta electrons
       nuclear repulsion energy       179.6872555389 Hartrees.
 IExCor= 4336 DFT=T Ex+Corr=M062X ExCW=0 ScaHFX=  0.540000
 ScaDFX=  1.000000  1.000000  1.000000  1.000000 ScalE2=  1.000000  1.000000
 IRadAn=      5 IRanWt=     -1 IRanGd=            0 ICorTp=0 IEmpDi=  4
 NAtoms=   14 NActive=   14 NUniq=   14 SFac= 1.00D+00 NAtFMM=   60 NAOKFM=F Big=F
 Integral buffers will be    131072 words long.
 Raffenetti 2 integral format.
 Two-electron integral symmetry is turned on.
 Leave Link  301 at Fri Apr 12 19:20:21 2019, MaxMem=   671088640 cpu:               1.4 elap:               0.1
 (Enter /shared/centos7/gaussian/g16/l302.exe)
 NPDir=0 NMtPBC=     1 NCelOv=     1 NCel=       1 NClECP=     1 NCelD=      1
         NCelK=      1 NCelE2=     1 NClLst=     1 CellRange=     0.0.
 One-electron integrals computed using PRISM.
 One-electron integral symmetry used in STVInt
 NBasis=   251 RedAO= T EigKep=  4.14D-05  NBF=   251
 NBsUse=   251 1.00D-06 EigRej= -1.00D+00 NBFU=   251
 Precomputing XC quadrature grid using
 IXCGrd= 4 IRadAn=           5 IRanWt=          -1 IRanGd=           0 AccXCQ= 0.00D+00.
 Generated NRdTot=       0 NPtTot=           0 NUsed=           0 NTot=          32
 NSgBfM=   276   276   276   276   276 MxSgAt=    14 MxSgA2=    14.
 Leave Link  302 at Fri Apr 12 19:20:21 2019, MaxMem=   671088640 cpu:               8.0 elap:               0.4
 (Enter /shared/centos7/gaussian/g16/l303.exe)
 DipDrv:  MaxL=1.
 Leave Link  303 at Fri Apr 12 19:20:21 2019, MaxMem=   671088640 cpu:               0.6 elap:               0.1
 (Enter /shared/centos7/gaussian/g16/l401.exe)
 ExpMin= 4.38D-02 ExpMax= 8.59D+03 ExpMxC= 1.30D+03 IAcc=3 IRadAn=         5 AccDes= 0.00D+00
 Harris functional with IExCor= 1009 and IRadAn=       5 diagonalized for initial guess.
 HarFok:  IExCor= 1009 AccDes= 0.00D+00 IRadAn=         5 IDoV= 1 UseB2=F ITyADJ=14
 ICtDFT=  3500011 ScaDFX=  1.000000  1.000000  1.000000  1.000000
 FoFCou: FMM=F IPFlag=           0 FMFlag=      100000 FMFlg1=           0
         NFxFlg=           0 DoJE=T BraDBF=F KetDBF=T FulRan=T
         wScrn=  0.000000 ICntrl=       500 IOpCl=  0 I1Cent=   200000004 NGrid=           0
         NMat0=    1 NMatS0=      1 NMatT0=    0 NMatD0=    1 NMtDS0=    0 NMtDT0=    0
 Petite list used in FoFCou.
 Harris En= -232.903228359761    
 JPrj=0 DoOrth=F DoCkMO=F.
 Initial guess <Sx>= 0.0000 <Sy>= 0.0000 <Sz>= 0.5000 <S**2>= 0.7500 S= 0.5000
 Leave Link  401 at Fri Apr 12 19:20:23 2019, MaxMem=   671088640 cpu:              32.1 elap:               1.6
 (Enter /shared/centos7/gaussian/g16/l502.exe)
 Integral symmetry usage will be decided dynamically.
 UHF open shell SCF:
 Using DIIS extrapolation, IDIIS=  1040.
 NGot=   671088640 LenX=   670928170 LenY=   670851553
 Requested convergence on RMS density matrix=1.00D-08 within 128 cycles.
 Requested convergence on MAX density matrix=1.00D-06.
 Requested convergence on             energy=1.00D-06.
 No special actions if energy rises.
 Fock matrices will be formed incrementally for  20 cycles.

 Cycle   1  Pass 1  IDiag  1:
 FoFJK:  IHMeth= 1 ICntrl=       0 DoSepK=F KAlg= 0 I1Cent=           0 FoldK=F
 IRaf= 970000000 NMat=       1 IRICut=       1 DoRegI=T DoRafI=F ISym2E= 0 IDoP0=0 IntGTp=1.
 FoFCou: FMM=F IPFlag=           0 FMFlag=      100000 FMFlg1=           0
         NFxFlg=           0 DoJE=F BraDBF=F KetDBF=F FulRan=T
         wScrn=  0.000000 ICntrl=         0 IOpCl=  1 I1Cent=           0 NGrid=           0
         NMat0=    1 NMatS0=      1 NMatT0=    0 NMatD0=    1 NMtDS0=    0 NMtDT0=    0
 Symmetry not used in FoFCou.
 E= -232.773380117918    
 DIIS: error= 2.21D-02 at cycle   1 NSaved=   1.
 NSaved= 1 IEnMin= 1 EnMin= -232.773380117918     IErMin= 1 ErrMin= 2.21D-02
 ErrMax= 2.21D-02  0.00D+00 EMaxC= 1.00D-01 BMatC= 9.41D-01 BMatP= 9.41D-01
 IDIUse=3 WtCom= 7.79D-01 WtEn= 2.21D-01
 Coeff-Com:  0.100D+01
 Coeff-En:   0.100D+01
 Coeff:      0.100D+01
 Gap=     0.229 Goal=   None    Shift=    0.000
 Gap=     0.313 Goal=   None    Shift=    0.000
 GapD=    0.229 DampG=1.000 DampE=0.500 DampFc=0.5000 IDamp=-1.
 Damping current iteration by 5.00D-01
 RMSDP=3.99D-03 MaxDP=2.49D-01              OVMax= 1.49D-01

 Cycle   2  Pass 1  IDiag  1:
 RMSU=  1.99D-03    CP:  9.89D-01
 E= -232.872195892944     Delta-E=       -0.098815775026 Rises=F Damp=T
 DIIS: error= 4.96D-03 at cycle   2 NSaved=   2.
 NSaved= 2 IEnMin= 2 EnMin= -232.872195892944     IErMin= 2 ErrMin= 4.96D-03
 ErrMax= 4.96D-03  0.00D+00 EMaxC= 1.00D-01 BMatC= 5.78D-02 BMatP= 9.41D-01
 IDIUse=3 WtCom= 9.50D-01 WtEn= 4.96D-02
 Coeff-Com: -0.836D-01 0.108D+01
 Coeff-En:   0.000D+00 0.100D+01
 Coeff:     -0.795D-01 0.108D+01
 Gap=     0.269 Goal=   None    Shift=    0.000
 Gap=     0.351 Goal=   None    Shift=    0.000
 RMSDP=1.25D-03 MaxDP=7.52D-02 DE=-9.88D-02 OVMax= 8.17D-02

 Cycle   3  Pass 1  IDiag  1:
 RMSU=  1.24D-03    CP:  9.80D-01  9.48D-01
 E= -232.966978508366     Delta-E=       -0.094782615422 Rises=F Damp=F
 DIIS: error= 3.65D-03 at cycle   3 NSaved=   3.
 NSaved= 3 IEnMin= 3 EnMin= -232.966978508366     IErMin= 3 ErrMin= 3.65D-03
 ErrMax= 3.65D-03  0.00D+00 EMaxC= 1.00D-01 BMatC= 1.41D-02 BMatP= 5.78D-02
 IDIUse=3 WtCom= 9.64D-01 WtEn= 3.65D-02
 Coeff-Com: -0.745D-01 0.326D+00 0.748D+00
 Coeff-En:   0.000D+00 0.000D+00 0.100D+01
 Coeff:     -0.718D-01 0.315D+00 0.757D+00
 Gap=     0.269 Goal=   None    Shift=    0.000
 Gap=     0.317 Goal=   None    Shift=    0.000
 RMSDP=2.87D-04 MaxDP=2.25D-02 DE=-9.48D-02 OVMax= 1.54D-02

 Cycle   4  Pass 1  IDiag  1:
 RMSU=  2.22D-04    CP:  9.82D-01  1.04D+00  9.71D-01
 E= -232.968939547022     Delta-E=       -0.001961038655 Rises=F Damp=F
 DIIS: error= 1.63D-03 at cycle   4 NSaved=   4.
 NSaved= 4 IEnMin= 4 EnMin= -232.968939547022     IErMin= 4 ErrMin= 1.63D-03
 ErrMax= 1.63D-03  0.00D+00 EMaxC= 1.00D-01 BMatC= 3.37D-03 BMatP= 1.41D-02
 IDIUse=3 WtCom= 9.84D-01 WtEn= 1.63D-02
 Coeff-Com: -0.262D-01 0.614D-01 0.365D+00 0.600D+00
 Coeff-En:   0.000D+00 0.000D+00 0.104D+00 0.896D+00
 Coeff:     -0.258D-01 0.604D-01 0.360D+00 0.605D+00
 Gap=     0.267 Goal=   None    Shift=    0.000
 Gap=     0.323 Goal=   None    Shift=    0.000
 RMSDP=1.30D-04 MaxDP=1.08D-02 DE=-1.96D-03 OVMax= 5.53D-03

 Cycle   5  Pass 1  IDiag  1:
 RMSU=  7.33D-05    CP:  9.80D-01  1.02D+00  1.02D+00  6.47D-01
 E= -232.969594952287     Delta-E=       -0.000655405265 Rises=F Damp=F
 DIIS: error= 2.56D-04 at cycle   5 NSaved=   5.
 NSaved= 5 IEnMin= 5 EnMin= -232.969594952287     IErMin= 5 ErrMin= 2.56D-04
 ErrMax= 2.56D-04  0.00D+00 EMaxC= 1.00D-01 BMatC= 9.96D-05 BMatP= 3.37D-03
 IDIUse=3 WtCom= 9.97D-01 WtEn= 2.56D-03
 Coeff-Com: -0.220D-03-0.896D-02 0.228D-01 0.134D+00 0.852D+00
 Coeff-En:   0.000D+00 0.000D+00 0.000D+00 0.000D+00 0.100D+01
 Coeff:     -0.220D-03-0.893D-02 0.228D-01 0.134D+00 0.853D+00
 Gap=     0.269 Goal=   None    Shift=    0.000
 Gap=     0.322 Goal=   None    Shift=    0.000
 RMSDP=4.49D-05 MaxDP=3.59D-03 DE=-6.55D-04 OVMax= 2.61D-03

 Cycle   6  Pass 1  IDiag  1:
 RMSU=  3.09D-05    CP:  9.80D-01  1.02D+00  1.03D+00  7.53D-01  1.09D+00
 E= -232.969631592717     Delta-E=       -0.000036640430 Rises=F Damp=F
 DIIS: error= 1.27D-04 at cycle   6 NSaved=   6.
 NSaved= 6 IEnMin= 6 EnMin= -232.969631592717     IErMin= 6 ErrMin= 1.27D-04
 ErrMax= 1.27D-04  0.00D+00 EMaxC= 1.00D-01 BMatC= 1.30D-05 BMatP= 9.96D-05
 IDIUse=3 WtCom= 9.99D-01 WtEn= 1.27D-03
 Coeff-Com:  0.376D-02-0.978D-02-0.491D-01-0.729D-01 0.798D-01 0.105D+01
 Coeff-En:   0.000D+00 0.000D+00 0.000D+00 0.000D+00 0.000D+00 0.100D+01
 Coeff:      0.376D-02-0.977D-02-0.490D-01-0.728D-01 0.797D-01 0.105D+01
 Gap=     0.269 Goal=   None    Shift=    0.000
 Gap=     0.323 Goal=   None    Shift=    0.000
 RMSDP=1.60D-05 MaxDP=9.91D-04 DE=-3.66D-05 OVMax= 1.29D-03

 Cycle   7  Pass 1  IDiag  1:
 RMSU=  1.13D-05    CP:  9.80D-01  1.02D+00  1.03D+00  7.59D-01  1.21D+00
                    CP:  1.11D+00
 E= -232.969639224881     Delta-E=       -0.000007632164 Rises=F Damp=F
 DIIS: error= 5.45D-05 at cycle   7 NSaved=   7.
 NSaved= 7 IEnMin= 7 EnMin= -232.969639224881     IErMin= 7 ErrMin= 5.45D-05
 ErrMax= 5.45D-05  0.00D+00 EMaxC= 1.00D-01 BMatC= 2.82D-06 BMatP= 1.30D-05
 IDIUse=1 WtCom= 1.00D+00 WtEn= 0.00D+00
 Coeff-Com:  0.122D-02-0.211D-02-0.201D-01-0.452D-01-0.928D-01 0.381D+00
 Coeff-Com:  0.778D+00
 Coeff:      0.122D-02-0.211D-02-0.201D-01-0.452D-01-0.928D-01 0.381D+00
 Coeff:      0.778D+00
 Gap=     0.269 Goal=   None    Shift=    0.000
 Gap=     0.323 Goal=   None    Shift=    0.000
 RMSDP=6.34D-06 MaxDP=3.10D-04 DE=-7.63D-06 OVMax= 6.09D-04

 Cycle   8  Pass 1  IDiag  1:
 RMSU=  3.88D-06    CP:  9.80D-01  1.02D+00  1.04D+00  7.68D-01  1.23D+00
                    CP:  1.23D+00  1.19D+00
 E= -232.969640259070     Delta-E=       -0.000001034189 Rises=F Damp=F
 DIIS: error= 1.35D-05 at cycle   8 NSaved=   8.
 NSaved= 8 IEnMin= 8 EnMin= -232.969640259070     IErMin= 8 ErrMin= 1.35D-05
 ErrMax= 1.35D-05  0.00D+00 EMaxC= 1.00D-01 BMatC= 1.57D-07 BMatP= 2.82D-06
 IDIUse=1 WtCom= 1.00D+00 WtEn= 0.00D+00
 Coeff-Com: -0.245D-03 0.705D-03 0.189D-02-0.432D-03-0.222D-01-0.416D-01
 Coeff-Com:  0.129D+00 0.933D+00
 Coeff:     -0.245D-03 0.705D-03 0.189D-02-0.432D-03-0.222D-01-0.416D-01
 Coeff:      0.129D+00 0.933D+00
 Gap=     0.269 Goal=   None    Shift=    0.000
 Gap=     0.323 Goal=   None    Shift=    0.000
 RMSDP=2.36D-06 MaxDP=1.59D-04 DE=-1.03D-06 OVMax= 1.19D-04

 Cycle   9  Pass 1  IDiag  1:
 RMSU=  1.36D-06    CP:  9.80D-01  1.02D+00  1.03D+00  7.66D-01  1.22D+00
                    CP:  1.24D+00  1.31D+00  1.23D+00
 E= -232.969640325754     Delta-E=       -0.000000066684 Rises=F Damp=F
 DIIS: error= 4.82D-06 at cycle   9 NSaved=   9.
 NSaved= 9 IEnMin= 9 EnMin= -232.969640325754     IErMin= 9 ErrMin= 4.82D-06
 ErrMax= 4.82D-06  0.00D+00 EMaxC= 1.00D-01 BMatC= 1.32D-08 BMatP= 1.57D-07
 IDIUse=1 WtCom= 1.00D+00 WtEn= 0.00D+00
 Coeff-Com: -0.177D-03 0.373D-03 0.241D-02 0.456D-02 0.588D-02-0.473D-01
 Coeff-Com: -0.560D-01 0.161D+00 0.929D+00
 Coeff:     -0.177D-03 0.373D-03 0.241D-02 0.456D-02 0.588D-02-0.473D-01
 Coeff:     -0.560D-01 0.161D+00 0.929D+00
 Gap=     0.269 Goal=   None    Shift=    0.000
 Gap=     0.323 Goal=   None    Shift=    0.000
 RMSDP=1.20D-06 MaxDP=1.37D-04 DE=-6.67D-08 OVMax= 5.13D-05

 Cycle  10  Pass 1  IDiag  1:
 RMSU=  4.65D-07    CP:  9.80D-01  1.02D+00  1.03D+00  7.66D-01  1.22D+00
                    CP:  1.23D+00  1.37D+00  1.37D+00  1.08D+00
 E= -232.969640332219     Delta-E=       -0.000000006464 Rises=F Damp=F
 DIIS: error= 8.81D-07 at cycle  10 NSaved=  10.
 NSaved=10 IEnMin=10 EnMin= -232.969640332219     IErMin=10 ErrMin= 8.81D-07
 ErrMax= 8.81D-07  0.00D+00 EMaxC= 1.00D-01 BMatC= 9.61D-10 BMatP= 1.32D-08
 IDIUse=1 WtCom= 1.00D+00 WtEn= 0.00D+00
 Coeff-Com:  0.403D-05-0.130D-04 0.117D-03 0.471D-03 0.190D-02-0.244D-02
 Coeff-Com: -0.127D-01-0.508D-01 0.107D+00 0.957D+00
 Coeff:      0.403D-05-0.130D-04 0.117D-03 0.471D-03 0.190D-02-0.244D-02
 Coeff:     -0.127D-01-0.508D-01 0.107D+00 0.957D+00
 Gap=     0.269 Goal=   None    Shift=    0.000
 Gap=     0.323 Goal=   None    Shift=    0.000
 RMSDP=1.92D-07 MaxDP=1.11D-05 DE=-6.46D-09 OVMax= 1.52D-05

 Cycle  11  Pass 1  IDiag  1:
 RMSU=  1.10D-07    CP:  9.80D-01  1.02D+00  1.03D+00  7.66D-01  1.22D+00
                    CP:  1.23D+00  1.37D+00  1.38D+00  1.15D+00  1.13D+00
 E= -232.969640332683     Delta-E=       -0.000000000465 Rises=F Damp=F
 DIIS: error= 3.01D-07 at cycle  11 NSaved=  11.
 NSaved=11 IEnMin=11 EnMin= -232.969640332683     IErMin=11 ErrMin= 3.01D-07
 ErrMax= 3.01D-07  0.00D+00 EMaxC= 1.00D-01 BMatC= 1.50D-10 BMatP= 9.61D-10
 IDIUse=1 WtCom= 1.00D+00 WtEn= 0.00D+00
 Coeff-Com:  0.183D-04-0.398D-04-0.193D-03-0.276D-03 0.650D-04 0.359D-02
 Coeff-Com:  0.160D-02-0.303D-01-0.535D-01 0.271D+00 0.808D+00
 Coeff:      0.183D-04-0.398D-04-0.193D-03-0.276D-03 0.650D-04 0.359D-02
 Coeff:      0.160D-02-0.303D-01-0.535D-01 0.271D+00 0.808D+00
 Gap=     0.269 Goal=   None    Shift=    0.000
 Gap=     0.323 Goal=   None    Shift=    0.000
 RMSDP=5.33D-08 MaxDP=2.49D-06 DE=-4.65D-10 OVMax= 3.92D-06

 Cycle  12  Pass 1  IDiag  1:
 RMSU=  3.10D-08    CP:  9.80D-01  1.02D+00  1.03D+00  7.66D-01  1.22D+00
                    CP:  1.23D+00  1.37D+00  1.38D+00  1.16D+00  1.18D+00
                    CP:  1.26D+00
 E= -232.969640332735     Delta-E=       -0.000000000052 Rises=F Damp=F
 DIIS: error= 1.59D-07 at cycle  12 NSaved=  12.
 NSaved=12 IEnMin=12 EnMin= -232.969640332735     IErMin=12 ErrMin= 1.59D-07
 ErrMax= 1.59D-07  0.00D+00 EMaxC= 1.00D-01 BMatC= 1.69D-11 BMatP= 1.50D-10
 IDIUse=1 WtCom= 1.00D+00 WtEn= 0.00D+00
 Coeff-Com:  0.330D-05-0.726D-05-0.611D-04-0.122D-03-0.220D-03 0.111D-02
 Coeff-Com:  0.202D-02-0.353D-03-0.256D-01-0.545D-01 0.197D+00 0.881D+00
 Coeff:      0.330D-05-0.726D-05-0.611D-04-0.122D-03-0.220D-03 0.111D-02
 Coeff:      0.202D-02-0.353D-03-0.256D-01-0.545D-01 0.197D+00 0.881D+00
 Gap=     0.269 Goal=   None    Shift=    0.000
 Gap=     0.323 Goal=   None    Shift=    0.000
 RMSDP=2.78D-08 MaxDP=2.25D-06 DE=-5.17D-11 OVMax= 1.54D-06

 Cycle  13  Pass 1  IDiag  1:
 RMSU=  1.28D-08    CP:  9.80D-01  1.02D+00  1.03D+00  7.66D-01  1.22D+00
                    CP:  1.23D+00  1.37D+00  1.38D+00  1.16D+00  1.19D+00
                    CP:  1.40D+00  1.20D+00
 E= -232.969640332743     Delta-E=       -0.000000000008 Rises=F Damp=F
 DIIS: error= 2.77D-08 at cycle  13 NSaved=  13.
 NSaved=13 IEnMin=13 EnMin= -232.969640332743     IErMin=13 ErrMin= 2.77D-08
 ErrMax= 2.77D-08  0.00D+00 EMaxC= 1.00D-01 BMatC= 1.17D-12 BMatP= 1.69D-11
 IDIUse=1 WtCom= 1.00D+00 WtEn= 0.00D+00
 Coeff-Com: -0.165D-05 0.340D-05 0.125D-04 0.166D-04-0.158D-04-0.238D-03
 Coeff-Com: -0.190D-04 0.278D-02 0.222D-02-0.328D-01-0.616D-01 0.974D-01
 Coeff-Com:  0.992D+00
 Coeff:     -0.165D-05 0.340D-05 0.125D-04 0.166D-04-0.158D-04-0.238D-03
 Coeff:     -0.190D-04 0.278D-02 0.222D-02-0.328D-01-0.616D-01 0.974D-01
 Coeff:      0.992D+00
 Gap=     0.269 Goal=   None    Shift=    0.000
 Gap=     0.323 Goal=   None    Shift=    0.000
 RMSDP=1.50D-08 MaxDP=1.94D-06 DE=-8.36D-12 OVMax= 6.57D-07

 Cycle  14  Pass 1  IDiag  1:
 RMSU=  3.44D-09    CP:  9.80D-01  1.02D+00  1.03D+00  7.66D-01  1.22D+00
                    CP:  1.23D+00  1.37D+00  1.38D+00  1.16D+00  1.18D+00
                    CP:  1.45D+00  1.34D+00  1.30D+00
 E= -232.969640332745     Delta-E=       -0.000000000002 Rises=F Damp=F
 DIIS: error= 8.73D-09 at cycle  14 NSaved=  14.
 NSaved=14 IEnMin=14 EnMin= -232.969640332745     IErMin=14 ErrMin= 8.73D-09
 ErrMax= 8.73D-09  0.00D+00 EMaxC= 1.00D-01 BMatC= 7.38D-14 BMatP= 1.17D-12
 IDIUse=1 WtCom= 1.00D+00 WtEn= 0.00D+00
 Coeff-Com: -0.929D-07 0.270D-06 0.298D-05 0.550D-05 0.100D-04-0.509D-04
 Coeff-Com: -0.112D-03-0.130D-04 0.150D-02 0.432D-02-0.103D-01-0.640D-01
 Coeff-Com: -0.437D-01 0.111D+01
 Coeff:     -0.929D-07 0.270D-06 0.298D-05 0.550D-05 0.100D-04-0.509D-04
 Coeff:     -0.112D-03-0.130D-04 0.150D-02 0.432D-02-0.103D-01-0.640D-01
 Coeff:     -0.437D-01 0.111D+01
 Gap=     0.269 Goal=   None    Shift=    0.000
 Gap=     0.323 Goal=   None    Shift=    0.000
 RMSDP=4.45D-09 MaxDP=5.70D-07 DE=-1.71D-12 OVMax= 1.67D-07

 SCF Done:  E(UM062X) =  -232.969640333     A.U. after   14 cycles
            NFock= 14  Conv=0.45D-08     -V/T= 2.0039
 <Sx>= 0.0000 <Sy>= 0.0000 <Sz>= 0.5000 <S**2>= 0.7551 S= 0.5025
 <L.S>= 0.000000000000E+00
 KE= 2.320721609042D+02 PE=-9.023895249163D+02 EE= 2.576604681405D+02
 Annihilation of the first spin contaminant:
 S**2 before annihilation     0.7551,   after     0.7500
 Leave Link  502 at Fri Apr 12 19:21:49 2019, MaxMem=   671088640 cpu:            1724.2 elap:              86.3
 (Enter /shared/centos7/gaussian/g16/l801.exe)
 DoSCS=F DFT=T ScalE2(SS,OS)=  1.000000  1.000000
 Range of M.O.s used for correlation:     1   251
 NBasis=   251 NAE=    21 NBE=    20 NFC=     0 NFV=     0
 NROrb=    251 NOA=    21 NOB=    20 NVA=   230 NVB=   231

 **** Warning!!: The largest alpha MO coefficient is  0.47421375D+02


 **** Warning!!: The largest beta MO coefficient is  0.49438114D+02

 Leave Link  801 at Fri Apr 12 19:21:49 2019, MaxMem=   671088640 cpu:               0.6 elap:               0.1
 (Enter /shared/centos7/gaussian/g16/l1101.exe)
 Using compressed storage, NAtomX=    14.
 Will process     15 centers per pass.
 Leave Link 1101 at Fri Apr 12 19:21:50 2019, MaxMem=   671088640 cpu:               8.8 elap:               0.5
 (Enter /shared/centos7/gaussian/g16/l1102.exe)
 Symmetrizing basis deriv contribution to polar:
 IMax=3 JMax=2 DiffMx= 0.00D+00
 Leave Link 1102 at Fri Apr 12 19:21:50 2019, MaxMem=   671088640 cpu:               0.9 elap:               0.1
 (Enter /shared/centos7/gaussian/g16/l1110.exe)
 Forming Gx(P) for the SCF density, NAtomX=    14.
 Integral derivatives from FoFJK, PRISM(SPDF).
 Do as many integral derivatives as possible in FoFJK.
 G2DrvN: MDV=     671087496.
 G2DrvN: will do    15 centers at a time, making    1 passes.
 Calling FoFCou, ICntrl=  3107 FMM=F I1Cent=   0 AccDes= 0.00D+00.
 FoFJK:  IHMeth= 1 ICntrl=    3107 DoSepK=F KAlg= 0 I1Cent=           0 FoldK=F
 IRaf=         0 NMat=       1 IRICut=       1 DoRegI=T DoRafI=F ISym2E= 0 IDoP0=0 IntGTp=1.
 FoFCou: FMM=F IPFlag=           0 FMFlag=      100000 FMFlg1=           0
         NFxFlg=           0 DoJE=F BraDBF=F KetDBF=F FulRan=T
         wScrn=  0.000000 ICntrl=      3107 IOpCl=  1 I1Cent=           0 NGrid=           0
         NMat0=    1 NMatS0=      1 NMatT0=    0 NMatD0=    1 NMtDS0=    0 NMtDT0=    0
 Symmetry not used in FoFCou.
 End of G2Drv F.D. properties file   721 does not exist.
 End of G2Drv F.D. properties file   722 does not exist.
 End of G2Drv F.D. properties file   788 does not exist.
 Leave Link 1110 at Fri Apr 12 19:24:34 2019, MaxMem=   671088640 cpu:            3283.9 elap:             164.3
 (Enter /shared/centos7/gaussian/g16/l1002.exe)
 Minotr:  UHF open shell wavefunction.
          IDoAtm=11111111111111
          Direct CPHF calculation.
          Differentiating once with respect to nuclear coordinates.
          Requested convergence is 1.0D-08 RMS, and 1.0D-07 maximum.
          Secondary convergence is 1.0D-12 RMS, and 1.0D-12 maximum.
          NewPWx=T KeepS1=F KeepF1=F KeepIn=T MapXYZ=F SortEE=F KeepMc=T.
         4264 words used for storage of precomputed grid.
 Two-electron integrals replicated using symmetry.
          MDV=     671088640 using IRadAn=       1.
          Solving linear equations simultaneously, MaxMat=     380.
 FoF2E skips out because all densities are zero.
 CalDSu exits because no D1Ps are significant.
 FoFJK:  IHMeth= 1 ICntrl=       0 DoSepK=F KAlg= 0 I1Cent=           0 FoldK=F
 IRaf= 970000000 NMat=      42 IRICut=     105 DoRegI=T DoRafI=T ISym2E= 2 IDoP0=3 IntGTp=3.
 FoFCou: FMM=F IPFlag=           0 FMFlag=      100000 FMFlg1=           0
         NFxFlg=           0 DoJE=F BraDBF=F KetDBF=F FulRan=T
         wScrn=  0.000000 ICntrl=         0 IOpCl=  1 I1Cent=           0 NGrid=           0
         NMat0=   42 NMatS0=     42 NMatT0=    0 NMatD0=   42 NMtDS0=    0 NMtDT0=    0
 Integrals replicated using symmetry in FoFCou.
 Raff kept on since  95.49% of shell-pairs survive, threshold=   0.20 IRatSp=95.
          There are    45 degrees of freedom in the 1st order CPHF.  IDoFFX=6 NUNeed=     0.
     39 vectors produced by pass  0 Test12= 2.10D-14 2.22D-09 XBig12= 1.46D-01 9.21D-02.
 AX will form    39 AO Fock derivatives at one time.
     39 vectors produced by pass  1 Test12= 2.10D-14 2.22D-09 XBig12= 9.66D-03 1.20D-02.
     39 vectors produced by pass  2 Test12= 2.10D-14 2.22D-09 XBig12= 4.90D-04 3.07D-03.
     39 vectors produced by pass  3 Test12= 2.10D-14 2.22D-09 XBig12= 9.03D-06 3.49D-04.
     39 vectors produced by pass  4 Test12= 2.10D-14 2.22D-09 XBig12= 1.03D-07 3.25D-05.
     39 vectors produced by pass  5 Test12= 2.10D-14 2.22D-09 XBig12= 1.05D-09 4.05D-06.
     39 vectors produced by pass  6 Test12= 2.10D-14 2.22D-09 XBig12= 7.87D-12 2.52D-07.
     15 vectors produced by pass  7 Test12= 2.10D-14 2.22D-09 XBig12= 5.96D-14 2.28D-08.
 InvSVY:  IOpt=1 It=  1 EMax= 1.67D-15
 Solved reduced A of dimension   288 with    39 vectors.
 End of Minotr F.D. properties file   721 does not exist.
 End of Minotr F.D. properties file   722 does not exist.
 End of Minotr F.D. properties file   788 does not exist.
 Leave Link 1002 at Fri Apr 12 19:29:02 2019, MaxMem=   671088640 cpu:            5354.2 elap:             267.8
 (Enter /shared/centos7/gaussian/g16/l601.exe)
 Copying SCF densities to generalized density rwf, IOpCl= 1 IROHF=0.

 **********************************************************************

            Population analysis using the SCF density.

 **********************************************************************

 Orbital symmetries:
 Alpha Orbitals:
       Occupied  (A) (A) (A) (A) (A) (A) (A) (A) (A) (A) (A) (A)
                 (A) (A) (A) (A) (A) (A) (A) (A) (A)
       Virtual   (A) (A) (A) (A) (A) (A) (A) (A) (A) (A) (A) (A)
                 (A) (A) (A) (A) (A) (A) (A) (A) (A) (A) (A) (A)
                 (A) (A) (A) (A) (A) (A) (A) (A) (A) (A) (A) (A)
                 (A) (A) (A) (A) (A) (A) (A) (A) (A) (A) (A) (A)
                 (A) (A) (A) (A) (A) (A) (A) (A) (A) (A) (A) (A)
                 (A) (A) (A) (A) (A) (A) (A) (A) (A) (A) (A) (A)
                 (A) (A) (A) (A) (A) (A) (A) (A) (A) (A) (A) (A)
                 (A) (A) (A) (A) (A) (A) (A) (A) (A) (A) (A) (A)
                 (A) (A) (A) (A) (A) (A) (A) (A) (A) (A) (A) (A)
                 (A) (A) (A) (A) (A) (A) (A) (A) (A) (A) (A) (A)
                 (A) (A) (A) (A) (A) (A) (A) (A) (A) (A) (A) (A)
                 (A) (A) (A) (A) (A) (A) (A) (A) (A) (A) (A) (A)
                 (A) (A) (A) (A) (A) (A) (A) (A) (A) (A) (A) (A)
                 (A) (A) (A) (A) (A) (A) (A) (A) (A) (A) (A) (A)
                 (A) (A) (A) (A) (A) (A) (A) (A) (A) (A) (A) (A)
                 (A) (A) (A) (A) (A) (A) (A) (A) (A) (A) (A) (A)
                 (A) (A) (A) (A) (A) (A) (A) (A) (A) (A) (A) (A)
                 (A) (A) (A) (A) (A) (A) (A) (A) (A) (A) (A) (A)
                 (A) (A) (A) (A) (A) (A) (A) (A) (A) (A) (A) (A)
                 (A) (A)
 Beta  Orbitals:
       Occupied  (A) (A) (A) (A) (A) (A) (A) (A) (A) (A) (A) (A)
                 (A) (A) (A) (A) (A) (A) (A) (A)
       Virtual   (A) (A) (A) (A) (A) (A) (A) (A) (A) (A) (A) (A)
                 (A) (A) (A) (A) (A) (A) (A) (A) (A) (A) (A) (A)
                 (A) (A) (A) (A) (A) (A) (A) (A) (A) (A) (A) (A)
                 (A) (A) (A) (A) (A) (A) (A) (A) (A) (A) (A) (A)
                 (A) (A) (A) (A) (A) (A) (A) (A) (A) (A) (A) (A)
                 (A) (A) (A) (A) (A) (A) (A) (A) (A) (A) (A) (A)
                 (A) (A) (A) (A) (A) (A) (A) (A) (A) (A) (A) (A)
                 (A) (A) (A) (A) (A) (A) (A) (A) (A) (A) (A) (A)
                 (A) (A) (A) (A) (A) (A) (A) (A) (A) (A) (A) (A)
                 (A) (A) (A) (A) (A) (A) (A) (A) (A) (A) (A) (A)
                 (A) (A) (A) (A) (A) (A) (A) (A) (A) (A) (A) (A)
                 (A) (A) (A) (A) (A) (A) (A) (A) (A) (A) (A) (A)
                 (A) (A) (A) (A) (A) (A) (A) (A) (A) (A) (A) (A)
                 (A) (A) (A) (A) (A) (A) (A) (A) (A) (A) (A) (A)
                 (A) (A) (A) (A) (A) (A) (A) (A) (A) (A) (A) (A)
                 (A) (A) (A) (A) (A) (A) (A) (A) (A) (A) (A) (A)
                 (A) (A) (A) (A) (A) (A) (A) (A) (A) (A) (A) (A)
                 (A) (A) (A) (A) (A) (A) (A) (A) (A) (A) (A) (A)
                 (A) (A) (A) (A) (A) (A) (A) (A) (A) (A) (A) (A)
                 (A) (A) (A)
 The electronic state is 2-A.
 Alpha  occ. eigenvalues --  -19.61543 -10.57962 -10.55036 -10.53771 -10.53434
 Alpha  occ. eigenvalues --   -1.14192  -0.90307  -0.82563  -0.73139  -0.65886
 Alpha  occ. eigenvalues --   -0.58329  -0.53850  -0.52486  -0.50507  -0.47842
 Alpha  occ. eigenvalues --   -0.46569  -0.42997  -0.42075  -0.39176  -0.34776
 Alpha  occ. eigenvalues --   -0.25272
 Alpha virt. eigenvalues --    0.01622   0.02772   0.03151   0.04213   0.05522
 Alpha virt. eigenvalues --    0.06250   0.06636   0.07416   0.08460   0.09411
 Alpha virt. eigenvalues --    0.10167   0.11866   0.13282   0.13748   0.16356
 Alpha virt. eigenvalues --    0.17136   0.18918   0.19990   0.20259   0.21579
 Alpha virt. eigenvalues --    0.21929   0.23431   0.24144   0.25444   0.26437
 Alpha virt. eigenvalues --    0.27700   0.27786   0.29046   0.29567   0.30247
 Alpha virt. eigenvalues --    0.31702   0.32978   0.37610   0.41521   0.43798
 Alpha virt. eigenvalues --    0.44101   0.46318   0.48521   0.51293   0.53224
 Alpha virt. eigenvalues --    0.53901   0.54965   0.56558   0.57348   0.58057
 Alpha virt. eigenvalues --    0.59042   0.59473   0.61142   0.62549   0.63070
 Alpha virt. eigenvalues --    0.64582   0.65631   0.67407   0.68460   0.68605
 Alpha virt. eigenvalues --    0.69470   0.70013   0.72939   0.78228   0.82358
 Alpha virt. eigenvalues --    0.83655   0.86714   0.89081   0.91661   0.92997
 Alpha virt. eigenvalues --    0.94035   0.97731   0.99385   1.03550   1.04591
 Alpha virt. eigenvalues --    1.06076   1.07104   1.08671   1.11774   1.14416
 Alpha virt. eigenvalues --    1.15704   1.16955   1.18580   1.20563   1.21561
 Alpha virt. eigenvalues --    1.22423   1.24546   1.26067   1.28899   1.30869
 Alpha virt. eigenvalues --    1.31811   1.32109   1.33471   1.36174   1.39345
 Alpha virt. eigenvalues --    1.40447   1.42565   1.44232   1.45080   1.46335
 Alpha virt. eigenvalues --    1.47562   1.50105   1.50649   1.51965   1.53731
 Alpha virt. eigenvalues --    1.54680   1.58640   1.58905   1.60821   1.62005
 Alpha virt. eigenvalues --    1.64498   1.72283   1.77119   1.79107   1.93820
 Alpha virt. eigenvalues --    2.09817   2.18619   2.29666   2.31387   2.37415
 Alpha virt. eigenvalues --    2.43373   2.49231   2.50144   2.54285   2.59856
 Alpha virt. eigenvalues --    2.60859   2.65922   2.72969   2.76476   2.77464
 Alpha virt. eigenvalues --    2.81367   2.84586   2.86898   2.90680   2.92373
 Alpha virt. eigenvalues --    2.94288   2.95673   2.98617   3.01817   3.06163
 Alpha virt. eigenvalues --    3.08687   3.10916   3.13975   3.14517   3.17191
 Alpha virt. eigenvalues --    3.17946   3.20333   3.24361   3.24978   3.28621
 Alpha virt. eigenvalues --    3.29695   3.33362   3.36486   3.37022   3.39720
 Alpha virt. eigenvalues --    3.40772   3.44181   3.48590   3.50812   3.53520
 Alpha virt. eigenvalues --    3.55248   3.56565   3.59460   3.62014   3.63850
 Alpha virt. eigenvalues --    3.64659   3.69877   3.71495   3.74234   3.75859
 Alpha virt. eigenvalues --    3.78053   3.84290   3.87438   3.88957   3.90925
 Alpha virt. eigenvalues --    3.95969   3.96794   4.00184   4.01735   4.05102
 Alpha virt. eigenvalues --    4.06403   4.10523   4.11526   4.13245   4.18573
 Alpha virt. eigenvalues --    4.20902   4.21686   4.23843   4.25949   4.27914
 Alpha virt. eigenvalues --    4.30052   4.33233   4.35444   4.36107   4.38846
 Alpha virt. eigenvalues --    4.41191   4.46224   4.47441   4.48984   4.52593
 Alpha virt. eigenvalues --    4.53855   4.61387   4.66196   4.68817   4.71858
 Alpha virt. eigenvalues --    4.96925   5.02891   5.17333   5.22344   5.26245
 Alpha virt. eigenvalues --    5.28060   5.39875   5.44627   5.47889   5.50287
 Alpha virt. eigenvalues --    5.55364   5.57980   5.60059   5.60880   5.62604
 Alpha virt. eigenvalues --    5.64680   5.85732   5.96132   6.51794   6.99221
 Alpha virt. eigenvalues --    7.20074   7.23602   7.27200   7.51256   7.63872
 Alpha virt. eigenvalues --   24.17133  24.38312  24.44472  24.52682  50.15488
  Beta  occ. eigenvalues --  -19.61523 -10.57932 -10.54362 -10.53831 -10.53494
  Beta  occ. eigenvalues --   -1.14115  -0.88638  -0.82028  -0.72531  -0.63872
  Beta  occ. eigenvalues --   -0.58051  -0.52742  -0.51829  -0.49476  -0.46826
  Beta  occ. eigenvalues --   -0.46074  -0.42352  -0.41602  -0.38880  -0.34650
  Beta virt. eigenvalues --   -0.02306   0.01486   0.02611   0.02992   0.04101
  Beta virt. eigenvalues --    0.05480   0.06273   0.06624   0.07368   0.08204
  Beta virt. eigenvalues --    0.09306   0.10077   0.11553   0.13039   0.13571
  Beta virt. eigenvalues --    0.15787   0.17092   0.18993   0.20248   0.20388
  Beta virt. eigenvalues --    0.21767   0.21932   0.23666   0.24601   0.25555
  Beta virt. eigenvalues --    0.26670   0.27606   0.27755   0.29229   0.29536
  Beta virt. eigenvalues --    0.30418   0.32544   0.33255   0.37609   0.41797
  Beta virt. eigenvalues --    0.43977   0.44153   0.46416   0.49102   0.51559
  Beta virt. eigenvalues --    0.54138   0.54370   0.55055   0.57070   0.57841
  Beta virt. eigenvalues --    0.58461   0.58958   0.59796   0.61728   0.62534
  Beta virt. eigenvalues --    0.63418   0.65305   0.66070   0.67528   0.68561
  Beta virt. eigenvalues --    0.69004   0.69498   0.70538   0.73221   0.77877
  Beta virt. eigenvalues --    0.82301   0.83640   0.86703   0.88994   0.91749
  Beta virt. eigenvalues --    0.92938   0.93606   0.98124   0.99484   1.03968
  Beta virt. eigenvalues --    1.04959   1.06120   1.07140   1.09241   1.11898
  Beta virt. eigenvalues --    1.14255   1.15747   1.16874   1.18814   1.20717
  Beta virt. eigenvalues --    1.21577   1.22746   1.24711   1.26370   1.28820
  Beta virt. eigenvalues --    1.31237   1.31655   1.32818   1.34325   1.36611
  Beta virt. eigenvalues --    1.39510   1.40640   1.42811   1.43843   1.45172
  Beta virt. eigenvalues --    1.46368   1.47660   1.50309   1.50781   1.51861
  Beta virt. eigenvalues --    1.54199   1.55018   1.58566   1.59088   1.60641
  Beta virt. eigenvalues --    1.62099   1.65129   1.72773   1.77645   1.79355
  Beta virt. eigenvalues --    1.93948   2.09929   2.18820   2.29752   2.31475
  Beta virt. eigenvalues --    2.38196   2.44012   2.49425   2.50744   2.54969
  Beta virt. eigenvalues --    2.60841   2.61598   2.66609   2.74840   2.77759
  Beta virt. eigenvalues --    2.79712   2.84941   2.87584   2.88360   2.92360
  Beta virt. eigenvalues --    2.94268   2.95498   2.96769   3.00687   3.03006
  Beta virt. eigenvalues --    3.07824   3.10695   3.11545   3.14952   3.16426
  Beta virt. eigenvalues --    3.17752   3.18610   3.20752   3.24634   3.25967
  Beta virt. eigenvalues --    3.29594   3.30693   3.34870   3.37613   3.38940
  Beta virt. eigenvalues --    3.40943   3.44747   3.46020   3.49675   3.52207
  Beta virt. eigenvalues --    3.54880   3.55634   3.57459   3.61525   3.63365
  Beta virt. eigenvalues --    3.64366   3.68075   3.70201   3.72475   3.74525
  Beta virt. eigenvalues --    3.76708   3.78456   3.84890   3.87639   3.89018
  Beta virt. eigenvalues --    3.91916   3.96445   3.97084   4.00990   4.02966
  Beta virt. eigenvalues --    4.06301   4.07668   4.11399   4.12604   4.14279
  Beta virt. eigenvalues --    4.18885   4.21683   4.22893   4.24209   4.26604
  Beta virt. eigenvalues --    4.28883   4.31325   4.33844   4.35981   4.37088
  Beta virt. eigenvalues --    4.38987   4.41786   4.46751   4.49310   4.50827
  Beta virt. eigenvalues --    4.53054   4.54953   4.62685   4.68317   4.69804
  Beta virt. eigenvalues --    4.74625   4.99617   5.06128   5.17935   5.22422
  Beta virt. eigenvalues --    5.26643   5.29071   5.39922   5.44512   5.50939
  Beta virt. eigenvalues --    5.53940   5.55661   5.58009   5.60107   5.61162
  Beta virt. eigenvalues --    5.62783   5.64600   5.85779   5.96275   6.51818
  Beta virt. eigenvalues --    6.99350   7.20135   7.23651   7.27294   7.51349
  Beta virt. eigenvalues --    7.63987  24.17977  24.38380  24.44638  24.53214
  Beta virt. eigenvalues --   50.15461
          Condensed to atoms (all electrons):
               1          2          3          4          5          6
     1  O    8.078958   0.023578   0.145813  -0.007184  -0.045159  -0.013353
     2  C    0.023578   5.607225   0.161920   0.061175  -0.277233   0.485747
     3  C    0.145813   0.161920   5.049564  -0.030283   0.090525  -0.041189
     4  C   -0.007184   0.061175  -0.030283   5.177254   0.034123   0.030445
     5  C   -0.045159  -0.277233   0.090525   0.034123   6.162556  -0.116348
     6  H   -0.013353   0.485747  -0.041189   0.030445  -0.116348   0.505247
     7  H    0.007957   0.396275  -0.041186  -0.015656  -0.002885  -0.034361
     8  H   -0.052573  -0.087182   0.467554  -0.001092   0.032818  -0.005085
     9  H   -0.047149   0.049777   0.386127   0.006519  -0.058723   0.004585
    10  H    0.000041   0.018605   0.001814   0.406412  -0.048003   0.000241
    11  H    0.000066  -0.024872  -0.002398   0.396015  -0.004327  -0.001599
    12  H   -0.000710  -0.007308   0.002461   0.435016  -0.068937   0.002749
    13  H    0.000242  -0.005750  -0.012183  -0.000861   0.362930   0.003774
    14  H    0.255010  -0.066675   0.004854  -0.016083   0.067140  -0.000541
               7          8          9         10         11         12
     1  O    0.007957  -0.052573  -0.047149   0.000041   0.000066  -0.000710
     2  C    0.396275  -0.087182   0.049777   0.018605  -0.024872  -0.007308
     3  C   -0.041186   0.467554   0.386127   0.001814  -0.002398   0.002461
     4  C   -0.015656  -0.001092   0.006519   0.406412   0.396015   0.435016
     5  C   -0.002885   0.032818  -0.058723  -0.048003  -0.004327  -0.068937
     6  H   -0.034361  -0.005085   0.004585   0.000241  -0.001599   0.002749
     7  H    0.546303  -0.002494  -0.005584  -0.000411   0.001805  -0.000100
     8  H   -0.002494   0.534848  -0.034534   0.000015  -0.000009   0.000010
     9  H   -0.005584  -0.034534   0.561957  -0.000005  -0.000031  -0.000061
    10  H   -0.000411   0.000015  -0.000005   0.543515  -0.028283  -0.021533
    11  H    0.001805  -0.000009  -0.000031  -0.028283   0.567094  -0.040443
    12  H   -0.000100   0.000010  -0.000061  -0.021533  -0.040443   0.551693
    13  H   -0.002134  -0.000208   0.002866  -0.006543  -0.001009   0.004850
    14  H    0.000354   0.008011  -0.005727   0.000106  -0.000058   0.000136
              13         14
     1  O    0.000242   0.255010
     2  C   -0.005750  -0.066675
     3  C   -0.012183   0.004854
     4  C   -0.000861  -0.016083
     5  C    0.362930   0.067140
     6  H    0.003774  -0.000541
     7  H   -0.002134   0.000354
     8  H   -0.000208   0.008011
     9  H    0.002866  -0.005727
    10  H   -0.006543   0.000106
    11  H   -0.001009  -0.000058
    12  H    0.004850   0.000136
    13  H    0.464902  -0.000965
    14  H   -0.000965   0.501995
          Atomic-Atomic Spin Densities.
               1          2          3          4          5          6
     1  O    0.009656   0.000169  -0.008070   0.000939  -0.002539  -0.001669
     2  C    0.000169   0.009150   0.016837   0.044413  -0.178586   0.017306
     3  C   -0.008070   0.016837   0.043294  -0.000489  -0.033872   0.006936
     4  C    0.000939   0.044413  -0.000489  -0.002775  -0.161446   0.009233
     5  C   -0.002539  -0.178586  -0.033872  -0.161446   1.553553  -0.035731
     6  H   -0.001669   0.017306   0.006936   0.009233  -0.035731   0.016954
     7  H    0.001284   0.001225  -0.011368  -0.004222  -0.003608  -0.009340
     8  H    0.000607   0.000507   0.000094   0.000140  -0.000796   0.000084
     9  H   -0.000999   0.002275   0.001384   0.000827  -0.004975   0.000259
    10  H    0.000007   0.005608   0.001456   0.011530  -0.023217   0.000234
    11  H    0.000060  -0.011890  -0.004281   0.007053   0.001266  -0.001877
    12  H   -0.000007   0.012618   0.003822   0.027162  -0.051676   0.002774
    13  H    0.000313   0.017176   0.000854   0.013389  -0.036101   0.000402
    14  H    0.009226   0.005157   0.002224   0.001271  -0.001386  -0.000539
               7          8          9         10         11         12
     1  O    0.001284   0.000607  -0.000999   0.000007   0.000060  -0.000007
     2  C    0.001225   0.000507   0.002275   0.005608  -0.011890   0.012618
     3  C   -0.011368   0.000094   0.001384   0.001456  -0.004281   0.003822
     4  C   -0.004222   0.000140   0.000827   0.011530   0.007053   0.027162
     5  C   -0.003608  -0.000796  -0.004975  -0.023217   0.001266  -0.051676
     6  H   -0.009340   0.000084   0.000259   0.000234  -0.001877   0.002774
     7  H    0.072514   0.000192  -0.001404  -0.000297   0.003544  -0.001254
     8  H    0.000192  -0.002563   0.000812   0.000000  -0.000000   0.000006
     9  H   -0.001404   0.000812  -0.003103   0.000006  -0.000026   0.000020
    10  H   -0.000297   0.000000   0.000006   0.014311  -0.008043   0.004981
    11  H    0.003544  -0.000000  -0.000026  -0.008043   0.082684  -0.014392
    12  H   -0.001254   0.000006   0.000020   0.004981  -0.014392   0.035494
    13  H   -0.001988   0.000037   0.000226   0.001688  -0.002268   0.000572
    14  H    0.000348  -0.000596   0.000058  -0.000040   0.000058  -0.000123
              13         14
     1  O    0.000313   0.009226
     2  C    0.017176   0.005157
     3  C    0.000854   0.002224
     4  C    0.013389   0.001271
     5  C   -0.036101  -0.001386
     6  H    0.000402  -0.000539
     7  H   -0.001988   0.000348
     8  H    0.000037  -0.000596
     9  H    0.000226   0.000058
    10  H    0.001688  -0.000040
    11  H   -0.002268   0.000058
    12  H    0.000572  -0.000123
    13  H   -0.054633  -0.000210
    14  H   -0.000210  -0.017218
 Mulliken charges and spin densities:
               1          2
     1  O   -0.345538   0.008978
     2  C   -0.335282  -0.058035
     3  C   -0.183394   0.018822
     4  C   -0.475802  -0.052975
     5  C   -0.128479   1.020886
     6  H    0.179689   0.005026
     7  H    0.152118   0.045623
     8  H    0.139920  -0.001475
     9  H    0.139984  -0.004640
    10  H    0.134028   0.008224
    11  H    0.138048   0.051888
    12  H    0.142176   0.019996
    13  H    0.190088  -0.060544
    14  H    0.252443  -0.001771
 Sum of Mulliken charges =  -0.00000   1.00000
 Mulliken charges and spin densities with hydrogens summed into heavy atoms:
               1          2
     1  O   -0.093095   0.007207
     2  C   -0.003475  -0.007387
     3  C    0.096510   0.012706
     4  C   -0.061550   0.027132
     5  C    0.061610   0.960342
 APT charges:
               1
     1  O   -0.554224
     2  C   -0.806288
     3  C   -0.656691
     4  C   -1.313859
     5  C   -0.222117
     6  H    0.355138
     7  H    0.392617
     8  H    0.488094
     9  H    0.353255
    10  H    0.482464
    11  H    0.431633
    12  H    0.298736
    13  H    0.377076
    14  H    0.374165
 Sum of APT charges =  -0.00000
 APT charges with hydrogens summed into heavy atoms:
               1
     1  O   -0.180059
     2  C   -0.058533
     3  C    0.184658
     4  C   -0.101026
     5  C    0.154959
 Electronic spatial extent (au):  <R**2>=            568.9738
 Charge=             -0.0000 electrons
 Dipole moment (field-independent basis, Debye):
    X=             -1.8327    Y=              0.8645    Z=              0.6798  Tot=              2.1374
 Quadrupole moment (field-independent basis, Debye-Ang):
   XX=            -36.7280   YY=            -31.9913   ZZ=            -32.7151
   XY=              3.1757   XZ=              1.1745   YZ=             -1.1009
 Traceless Quadrupole moment (field-independent basis, Debye-Ang):
   XX=             -2.9165   YY=              1.8202   ZZ=              1.0964
   XY=              3.1757   XZ=              1.1745   YZ=             -1.1009
 Octapole moment (field-independent basis, Debye-Ang**2):
  XXX=             -5.1520  YYY=             -5.3048  ZZZ=             -0.1123  XYY=              1.6447
  XXY=              6.6300  XXZ=              1.4894  XZZ=              1.7518  YZZ=             -1.1413
  YYZ=              0.6746  XYZ=             -1.3240
 Hexadecapole moment (field-independent basis, Debye-Ang**3):
 XXXX=           -569.4398 YYYY=           -123.6403 ZZZZ=            -76.9570 XXXY=             15.3046
 XXXZ=             -1.5576 YYYX=             -7.4320 YYYZ=             -0.6768 ZZZX=              0.8874
 ZZZY=             -0.2768 XXYY=           -115.5488 XXZZ=           -106.3349 YYZZ=            -37.2241
 XXYZ=             -4.5868 YYXZ=             -0.1639 ZZXY=              1.1723
 N-N= 1.796872555389D+02 E-N=-9.023895249362D+02  KE= 2.320721609042D+02
  Exact polarizability:   0.000   0.000   0.000   0.000   0.000   0.000
 Approx polarizability:  62.464   1.087  61.495   0.121  -0.560  59.309
                          Isotropic Fermi Contact Couplings
        Atom                 a.u.       MegaHertz       Gauss      10(-4) cm-1
     1  O(17)              0.00098      -0.59274      -0.21150      -0.19772
     2  C(13)             -0.03104     -34.89143     -12.45013     -11.63853
     3  C(13)              0.02195      24.67551       8.80484       8.23087
     4  C(13)             -0.03076     -34.58292     -12.34005     -11.53562
     5  C(13)              0.17473     196.43023      70.09119      65.52207
     6  H(1)               0.00421      18.83911       6.72226       6.28405
     7  H(1)               0.02605     116.44117      41.54910      38.84059
     8  H(1)              -0.00058      -2.57027      -0.91714      -0.85735
     9  H(1)              -0.00040      -1.79605      -0.64088      -0.59910
    10  H(1)               0.00391      17.46228       6.23098       5.82479
    11  H(1)               0.02887     129.03493      46.04287      43.04142
    12  H(1)               0.01037      46.34385      16.53664      15.45864
    13  H(1)              -0.01412     -63.11645     -22.52152     -21.05338
    14  H(1)              -0.00146      -6.53155      -2.33062      -2.17869
 --------------------------------------------------------
       Center         ----  Spin Dipole Couplings  ----
                      3XX-RR        3YY-RR        3ZZ-RR
 --------------------------------------------------------
     1   Atom        0.013681     -0.005202     -0.008479
     2   Atom       -0.004153      0.012010     -0.007857
     3   Atom        0.026222     -0.012174     -0.014049
     4   Atom        0.008743      0.000886     -0.009629
     5   Atom       -0.278490      0.709220     -0.430729
     6   Atom       -0.004135     -0.003759      0.007894
     7   Atom       -0.002903      0.010019     -0.007116
     8   Atom        0.005503     -0.001586     -0.003917
     9   Atom        0.007673     -0.004317     -0.003356
    10   Atom        0.013148     -0.004101     -0.009047
    11   Atom        0.012386     -0.005314     -0.007072
    12   Atom        0.001372     -0.007666      0.006294
    13   Atom       -0.056558     -0.015696      0.072253
    14   Atom        0.018377     -0.004814     -0.013562
 --------------------------------------------------------
                        XY            XZ            YZ
 --------------------------------------------------------
     1   Atom        0.028472     -0.030175     -0.023616
     2   Atom        0.006583     -0.005261     -0.003452
     3   Atom        0.000402      0.006789     -0.002414
     4   Atom       -0.007197      0.005654      0.003200
     5   Atom       -0.568990     -0.159132      0.347525
     6   Atom        0.003636     -0.009519     -0.009251
     7   Atom        0.008828     -0.004483     -0.005562
     8   Atom        0.003376     -0.002230     -0.001037
     9   Atom        0.004029      0.005417      0.001761
    10   Atom        0.009547      0.000440      0.001126
    11   Atom       -0.005669      0.007556     -0.001418
    12   Atom        0.003607      0.012928      0.003699
    13   Atom       -0.026497      0.009849     -0.004685
    14   Atom       -0.009246     -0.005632      0.000720
 --------------------------------------------------------


 ---------------------------------------------------------------------------------
              Anisotropic Spin Dipole Couplings in Principal Axis System
 ---------------------------------------------------------------------------------

       Atom             a.u.   MegaHertz   Gauss  10(-4) cm-1        Axes

              Baa    -0.0313     2.262     0.807     0.755  0.2658  0.4716  0.8408
     1 O(17)  Bbb    -0.0255     1.843     0.658     0.615 -0.6694  0.7179 -0.1911
              Bcc     0.0567    -4.105    -1.465    -1.369  0.6937  0.5121 -0.5065
 
              Baa    -0.0116    -1.561    -0.557    -0.521  0.6049 -0.0524  0.7946
     2 C(13)  Bbb    -0.0038    -0.514    -0.183    -0.171  0.7091 -0.4185 -0.5675
              Bcc     0.0155     2.075     0.740     0.692  0.3622  0.9067 -0.2160
 
              Baa    -0.0165    -2.219    -0.792    -0.740 -0.1412  0.4893  0.8606
     3 C(13)  Bbb    -0.0108    -1.449    -0.517    -0.483  0.0791  0.8721 -0.4829
              Bcc     0.0273     3.668     1.309     1.224  0.9868  0.0001  0.1619
 
              Baa    -0.0132    -1.778    -0.634    -0.593 -0.3431 -0.3702  0.8633
     4 C(13)  Bbb    -0.0003    -0.034    -0.012    -0.011  0.3423  0.8066  0.4819
              Bcc     0.0135     1.812     0.647     0.604  0.8747 -0.4608  0.1500
 
              Baa    -0.5381   -72.206   -25.765   -24.085  0.9140  0.4024  0.0520
     5 C(13)  Bbb    -0.5283   -70.891   -25.296   -23.647  0.0537 -0.2470  0.9675
              Bcc     1.0664   143.097    51.060    47.732 -0.4022  0.8815  0.2474
 
              Baa    -0.0101    -5.404    -1.928    -1.802  0.6390  0.4929  0.5905
     6 H(1)   Bbb    -0.0076    -4.032    -1.439    -1.345 -0.6439  0.7628  0.0600
              Bcc     0.0177     9.435     3.367     3.147 -0.4209 -0.4186  0.8048
 
              Baa    -0.0100    -5.315    -1.897    -1.773  0.5397 -0.0041  0.8418
     7 H(1)   Bbb    -0.0066    -3.524    -1.257    -1.176  0.7119 -0.5316 -0.4590
              Bcc     0.0166     8.840     3.154     2.949  0.4494  0.8470 -0.2840
 
              Baa    -0.0045    -2.381    -0.849    -0.794  0.1642  0.1583  0.9736
     8 H(1)   Bbb    -0.0029    -1.561    -0.557    -0.521 -0.3895  0.9172 -0.0834
              Bcc     0.0074     3.942     1.406     1.315  0.9063  0.3655 -0.2123
 
              Baa    -0.0057    -3.026    -1.080    -1.009 -0.0946 -0.6730  0.7336
     9 H(1)   Bbb    -0.0055    -2.918    -1.041    -0.973 -0.4468  0.6872  0.5728
              Bcc     0.0111     5.943     2.121     1.982  0.8896  0.2736  0.3657
 
              Baa    -0.0096    -5.140    -1.834    -1.715  0.1989 -0.5130  0.8350
    10 H(1)   Bbb    -0.0078    -4.153    -1.482    -1.385 -0.3563  0.7559  0.5493
              Bcc     0.0174     9.293     3.316     3.100  0.9130  0.4068  0.0325
 
              Baa    -0.0097    -5.198    -1.855    -1.734 -0.3555 -0.1601  0.9209
    11 H(1)   Bbb    -0.0068    -3.621    -1.292    -1.208  0.1879  0.9529  0.2381
              Bcc     0.0165     8.819     3.147     2.942  0.9156 -0.2577  0.3086
 
              Baa    -0.0095    -5.085    -1.815    -1.696  0.7445 -0.4350 -0.5065
    12 H(1)   Bbb    -0.0085    -4.532    -1.617    -1.512  0.2282  0.8787 -0.4193
              Bcc     0.0180     9.618     3.432     3.208  0.6275  0.1966  0.7534
 
              Baa    -0.0699   -37.301   -13.310   -12.442  0.8990  0.4353 -0.0479
    13 H(1)   Bbb    -0.0036    -1.933    -0.690    -0.645 -0.4283  0.8968  0.1110
              Bcc     0.0735    39.234    14.000    13.087  0.0913 -0.0792  0.9927
 
              Baa    -0.0146    -7.803    -2.784    -2.603  0.1985  0.1156  0.9733
    14 H(1)   Bbb    -0.0078    -4.185    -1.493    -1.396  0.2946  0.9401 -0.1718
              Bcc     0.0225    11.988     4.278     3.999  0.9348 -0.3208 -0.1525
 

 ---------------------------------------------------------------------------------

 No NMR shielding tensors so no spin-rotation constants.
 Leave Link  601 at Fri Apr 12 19:29:03 2019, MaxMem=   671088640 cpu:              13.7 elap:               0.7
 (Enter /shared/centos7/gaussian/g16/l701.exe)
 ... and contract with generalized density number  0.
 Compute integral second derivatives.
 Leave Link  701 at Fri Apr 12 19:29:03 2019, MaxMem=   671088640 cpu:               9.9 elap:               0.5
 (Enter /shared/centos7/gaussian/g16/l702.exe)
 L702 exits ... SP integral derivatives will be done elsewhere.
 Leave Link  702 at Fri Apr 12 19:29:03 2019, MaxMem=   671088640 cpu:               0.5 elap:               0.1
 (Enter /shared/centos7/gaussian/g16/l703.exe)
 Integral derivatives from FoFJK, PRISM(SPDF).
 Compute integral second derivatives, UseDBF=F ICtDFT=           0.
 Calling FoFJK, ICntrl=    100147 FMM=F ISym2X=0 I1Cent= 0 IOpClX= 1 NMat=1 NMatS=1 NMatT=0.
 FoFJK:  IHMeth= 1 ICntrl=  100147 DoSepK=F KAlg= 0 I1Cent=           0 FoldK=F
 IRaf=         0 NMat=       1 IRICut=       1 DoRegI=T DoRafI=F ISym2E= 0 IDoP0=0 IntGTp=1.
 FoFCou: FMM=F IPFlag=           0 FMFlag=      100000 FMFlg1=         800
         NFxFlg=           0 DoJE=F BraDBF=F KetDBF=F FulRan=T
         wScrn=  0.000000 ICntrl=    100147 IOpCl=  1 I1Cent=           0 NGrid=           0
         NMat0=    1 NMatS0=      1 NMatT0=    0 NMatD0=    1 NMtDS0=    0 NMtDT0=    0
 Symmetry not used in FoFCou.
 Leave Link  703 at Fri Apr 12 19:31:38 2019, MaxMem=   671088640 cpu:            3097.1 elap:             154.9
 (Enter /shared/centos7/gaussian/g16/l716.exe)
 Dipole        =-7.21053306D-01 3.40133992D-01 2.67438385D-01
 Polarizability= 0.00000000D+00 0.00000000D+00 0.00000000D+00
                 0.00000000D+00 0.00000000D+00 0.00000000D+00
 ***** Axes restored to original set *****
 -------------------------------------------------------------------
 Center     Atomic                   Forces (Hartrees/Bohr)
 Number     Number              X              Y              Z
 -------------------------------------------------------------------
      1        8           0.000000075   -0.000000081    0.000000365
      2        6          -0.000000029    0.000000037   -0.000000089
      3        6          -0.000000011   -0.000000044    0.000000109
      4        6           0.000000046    0.000000141   -0.000000112
      5        6          -0.000000026   -0.000000023   -0.000000035
      6        1           0.000000093    0.000000226   -0.000000092
      7        1          -0.000000094   -0.000000019   -0.000000298
      8        1          -0.000000022   -0.000000087    0.000000055
      9        1          -0.000000147   -0.000000339    0.000000092
     10        1           0.000000031    0.000000078   -0.000000025
     11        1          -0.000000012    0.000000178   -0.000000329
     12        1           0.000000151    0.000000320   -0.000000054
     13        1          -0.000000138   -0.000000273   -0.000000002
     14        1           0.000000084   -0.000000115    0.000000415
 -------------------------------------------------------------------
 Cartesian Forces:  Max     0.000000415 RMS     0.000000161
 FormGI is forming the generalized inverse of G from B-inverse, IUseBI=4.
 Leave Link  716 at Fri Apr 12 19:31:38 2019, MaxMem=   671088640 cpu:               0.7 elap:               0.1
 (Enter /shared/centos7/gaussian/g16/l103.exe)

 GradGradGradGradGradGradGradGradGradGradGradGradGradGradGradGradGradGrad
 Berny optimization.
 Red2BG is reusing G-inverse.
 Internal  Forces:  Max     0.000000028 RMS     0.000000009
 Search for a local minimum.
 Step number   1 out of a maximum of   69 on scan point     1 out of    37
 All quantities printed in internal units (Hartrees-Bohrs-Radians)
 RMS Force = .87689D-08 SwitMx=.10000D-02 MixMth= 2
 Mixed Optimization -- En-DIIS/RFO-DIIS
 Second derivative matrix not updated -- analytic derivatives used.
 ITU=  0
     Eigenvalues ---    0.00399   0.01562   0.02743   0.03604   0.04144
     Eigenvalues ---    0.05511   0.05625   0.06206   0.07750   0.09918
     Eigenvalues ---    0.10990   0.11964   0.12535   0.13282   0.13837
     Eigenvalues ---    0.16664   0.17024   0.20222   0.24387   0.28993
     Eigenvalues ---    0.30838   0.31419   0.32079   0.32740   0.33323
     Eigenvalues ---    0.34011   0.34110   0.34427   0.35175   0.35680
     Eigenvalues ---    0.40145   0.537931000.000001000.000001000.00000
     Eigenvalues --- 1000.000001000.000001000.000001000.000001000.00000
     Eigenvalues --- 1000.000001000.000001000.000001000.000001000.00000
     Eigenvalues --- 1000.000001000.000001000.000001000.000001000.00000
     Eigenvalues --- 1000.000001000.000001000.000001000.000001000.00000
     Eigenvalues --- 1000.000001000.000001000.000001000.00000
 RFO step:  Lambda= 0.00000000D+00 EMin= 3.98700315D-03
 Linear search not attempted -- first point.
 Iteration  1 RMS(Cart)=  0.00000057 RMS(Int)=  0.00000000
 Iteration  1 RMS(Cart)=  0.00000000 RMS(Int)=  0.00000000
 ITry= 1 IFail=0 DXMaxC= 1.67D-06 DCOld= 1.00D+10 DXMaxT= 3.00D-01 DXLimC= 3.00D+00 Rises=F
 Variable       Old X    -DE/DX   Delta X   Delta X   Delta X     New X
                                 (Linear)    (Quad)   (Total)
    R1        2.66872   0.00000   0.00000   0.00000   0.00000   2.66872
    R2        1.81672   0.00000   0.00000   0.00000   0.00000   1.81672
    R3        2.88016  -0.00000   0.00000  -0.00000  -0.00000   2.88016
    R4        2.81623   0.00000   0.00000   0.00000   0.00000   2.81623
    R5        2.06605  -0.00000   0.00000  -0.00000  -0.00000   2.06605
    R6        2.07838  -0.00000   0.00000  -0.00000  -0.00000   2.07838
    R7        2.05771  -0.00000   0.00000  -0.00000  -0.00000   2.05771
    R8        2.07238  -0.00000   0.00000  -0.00000  -0.00000   2.07238
    R9        2.80887   0.00000   0.00000   0.00000   0.00000   2.80887
   R10        2.05760  -0.00000   0.00000  -0.00000  -0.00000   2.05760
   R11        2.07514   0.00000   0.00000   0.00000   0.00000   2.07514
   R12        2.06371  -0.00000   0.00000  -0.00000  -0.00000   2.06371
   R13        2.04948   0.00000   0.00000   0.00000   0.00000   2.04948
    A1        1.88626   0.00000   0.00000   0.00000   0.00000   1.88626
    A2        1.95694   0.00000   0.00000  -0.00000  -0.00000   1.95694
    A3        1.90343   0.00000   0.00000   0.00000   0.00000   1.90343
    A4        1.89056  -0.00000   0.00000  -0.00000  -0.00000   1.89056
    A5        1.92072  -0.00000   0.00000   0.00000   0.00000   1.92072
    A6        1.93011   0.00000   0.00000  -0.00000  -0.00000   1.93011
    A7        1.85916   0.00000   0.00000   0.00000   0.00000   1.85916
    A8        1.95702  -0.00000   0.00000  -0.00000  -0.00000   1.95702
    A9        1.85304  -0.00000   0.00000  -0.00000  -0.00000   1.85304
   A10        1.93121  -0.00000   0.00000  -0.00000  -0.00000   1.93121
   A11        1.92904   0.00000   0.00000   0.00000   0.00000   1.92904
   A12        1.91104   0.00000   0.00000   0.00000   0.00000   1.91104
   A13        1.88044  -0.00000   0.00000   0.00000   0.00000   1.88044
   A14        1.95501  -0.00000   0.00000   0.00000   0.00000   1.95501
   A15        1.94689   0.00000   0.00000  -0.00000  -0.00000   1.94689
   A16        1.93794  -0.00000   0.00000  -0.00000  -0.00000   1.93794
   A17        1.86934   0.00000   0.00000   0.00000   0.00000   1.86934
   A18        1.89317   0.00000   0.00000   0.00000   0.00000   1.89317
   A19        1.85720   0.00000   0.00000  -0.00000  -0.00000   1.85720
   A20        2.11823  -0.00000   0.00000  -0.00000  -0.00000   2.11823
   A21        2.04948   0.00000   0.00000  -0.00000  -0.00000   2.04948
   A22        2.07110   0.00000   0.00000  -0.00000  -0.00000   2.07110
    D1       -0.88426   0.00000   0.00000   0.00000   0.00000  -0.88426
    D2       -2.99259  -0.00000   0.00000  -0.00000  -0.00000  -2.99259
    D3        1.25489   0.00000   0.00000   0.00000   0.00000   1.25489
    D4        1.12128  -0.00000   0.00000  -0.00000  -0.00000   1.12128
    D5       -3.09809  -0.00000   0.00000  -0.00000  -0.00000  -3.09809
    D6       -1.02926   0.00000   0.00000   0.00000  -0.00000  -1.02926
    D7       -1.01046  -0.00000   0.00000  -0.00000  -0.00000  -1.01046
    D8        1.05335  -0.00000   0.00000  -0.00000  -0.00000   1.05335
    D9        3.12218   0.00000   0.00000  -0.00000  -0.00000   3.12218
   D10       -3.02723  -0.00000   0.00000  -0.00000  -0.00000  -3.02723
   D11       -0.96342  -0.00000   0.00000  -0.00000  -0.00000  -0.96342
   D12        1.10541   0.00000   0.00000  -0.00000  -0.00000   1.10541
   D13       -2.66412  -0.00000   0.00000  -0.00000  -0.00000  -2.66412
   D14        0.79736  -0.00000   0.00000  -0.00000  -0.00000   0.79736
   D15       -0.54226  -0.00000   0.00000  -0.00000  -0.00000  -0.54226
   D16        2.91922  -0.00000   0.00000  -0.00000  -0.00000   2.91922
   D17        1.50704  -0.00000   0.00000  -0.00000  -0.00000   1.50704
   D18       -1.31466  -0.00000   0.00000   0.00000  -0.00000  -1.31466
   D19        2.93895   0.00000   0.00000   0.00000   0.00000   2.93895
   D20       -0.52637   0.00000   0.00000   0.00000   0.00000  -0.52637
   D21       -1.24896   0.00000   0.00000   0.00000   0.00000  -1.24896
   D22        1.56890   0.00000   0.00000   0.00000   0.00000   1.56890
   D23        0.81941   0.00000   0.00000   0.00000   0.00000   0.81941
   D24       -2.64591   0.00000   0.00000   0.00000   0.00000  -2.64591
         Item               Value     Threshold  Converged?
 Maximum Force            0.000000     0.000450     YES
 RMS     Force            0.000000     0.000300     YES
 Maximum Displacement     0.000002     0.001800     YES
 RMS     Displacement     0.000001     0.001200     YES
 Predicted change in Energy=-3.462161D-14
 Optimization completed.
    -- Stationary point found.
                           ----------------------------
                           !   Optimized Parameters   !
                           ! (Angstroms and Degrees)  !
 --------------------------                            --------------------------
 ! Name  Definition              Value          Derivative Info.                !
 --------------------------------------------------------------------------------
 ! R1    R(1,3)                  1.4122         -DE/DX =    0.0                 !
 ! R2    R(1,14)                 0.9614         -DE/DX =    0.0                 !
 ! R3    R(2,3)                  1.5241         -DE/DX =    0.0                 !
 ! R4    R(2,5)                  1.4903         -DE/DX =    0.0                 !
 ! R5    R(2,6)                  1.0933         -DE/DX =    0.0                 !
 ! R6    R(2,7)                  1.0998         -DE/DX =    0.0                 !
 ! R7    R(3,8)                  1.0889         -DE/DX =    0.0                 !
 ! R8    R(3,9)                  1.0967         -DE/DX =    0.0                 !
 ! R9    R(4,5)                  1.4864         -DE/DX =    0.0                 !
 ! R10   R(4,10)                 1.0888         -DE/DX =    0.0                 !
 ! R11   R(4,11)                 1.0981         -DE/DX =    0.0                 !
 ! R12   R(4,12)                 1.0921         -DE/DX =    0.0                 !
 ! R13   R(5,13)                 1.0845         -DE/DX =    0.0                 !
 ! A1    A(3,1,14)             108.0745         -DE/DX =    0.0                 !
 ! A2    A(3,2,5)              112.1241         -DE/DX =    0.0                 !
 ! A3    A(3,2,6)              109.0587         -DE/DX =    0.0                 !
 ! A4    A(3,2,7)              108.3211         -DE/DX =    0.0                 !
 ! A5    A(5,2,6)              110.0491         -DE/DX =    0.0                 !
 ! A6    A(5,2,7)              110.5872         -DE/DX =    0.0                 !
 ! A7    A(6,2,7)              106.5217         -DE/DX =    0.0                 !
 ! A8    A(1,3,2)              112.1291         -DE/DX =    0.0                 !
[...]
  Beta virt. eigenvalues --    3.07821   3.10688   3.11546   3.14955   3.16425
  Beta virt. eigenvalues --    3.17751   3.18610   3.20754   3.24634   3.25965
  Beta virt. eigenvalues --    3.29597   3.30692   3.34872   3.37615   3.38936
  Beta virt. eigenvalues --    3.40948   3.44749   3.46020   3.49678   3.52212
  Beta virt. eigenvalues --    3.54882   3.55639   3.57458   3.61524   3.63365
  Beta virt. eigenvalues --    3.64368   3.68068   3.70203   3.72470   3.74525
  Beta virt. eigenvalues --    3.76709   3.78453   3.84889   3.87638   3.89016
  Beta virt. eigenvalues --    3.91921   3.96448   3.97090   4.00991   4.02968
  Beta virt. eigenvalues --    4.06300   4.07670   4.11398   4.12602   4.14285
  Beta virt. eigenvalues --    4.18887   4.21679   4.22902   4.24207   4.26601
  Beta virt. eigenvalues --    4.28884   4.31326   4.33845   4.35980   4.37089
  Beta virt. eigenvalues --    4.38994   4.41785   4.46753   4.49313   4.50828
  Beta virt. eigenvalues --    4.53053   4.54946   4.62687   4.68326   4.69813
  Beta virt. eigenvalues --    4.74616   4.99610   5.06118   5.17932   5.22423
  Beta virt. eigenvalues --    5.26640   5.29071   5.39924   5.44517   5.50931
  Beta virt. eigenvalues --    5.53941   5.55663   5.58009   5.60104   5.61164
  Beta virt. eigenvalues --    5.62784   5.64600   5.85782   5.96284   6.51824
  Beta virt. eigenvalues --    6.99350   7.20130   7.23654   7.27293   7.51356
  Beta virt. eigenvalues --    7.63985  24.17975  24.38384  24.44641  24.53217
  Beta virt. eigenvalues --   50.15461
          Condensed to atoms (all electrons):
               1          2          3          4          5          6
     1  O    8.078957   0.023559   0.145813  -0.007191  -0.045143  -0.013356
     2  C    0.023559   5.607384   0.161669   0.061279  -0.277234   0.485789
     3  C    0.145813   0.161669   5.049746  -0.030458   0.090844  -0.041253
     4  C   -0.007191   0.061279  -0.030458   5.177469   0.034085   0.030465
     5  C   -0.045143  -0.277234   0.090844   0.034085   6.162164  -0.116345
     6  H   -0.013356   0.485789  -0.041253   0.030465  -0.116345   0.505243
     7  H    0.007960   0.396269  -0.041132  -0.015672  -0.002918  -0.034364
     8  H   -0.052570  -0.087192   0.467579  -0.001089   0.032803  -0.005085
     9  H   -0.047141   0.049832   0.386077   0.006517  -0.058733   0.004585
    10  H    0.000041   0.018612   0.001811   0.406406  -0.047990   0.000240
    11  H    0.000066  -0.024865  -0.002387   0.395989  -0.004336  -0.001600
    12  H   -0.000709  -0.007342   0.002456   0.434995  -0.068872   0.002748
    13  H    0.000241  -0.005741  -0.012209  -0.000851   0.362925   0.003775
    14  H    0.255023  -0.066720   0.004895  -0.016066   0.067116  -0.000541
               7          8          9         10         11         12
     1  O    0.007960  -0.052570  -0.047141   0.000041   0.000066  -0.000709
     2  C    0.396269  -0.087192   0.049832   0.018612  -0.024865  -0.007342
     3  C   -0.041132   0.467579   0.386077   0.001811  -0.002387   0.002456
     4  C   -0.015672  -0.001089   0.006517   0.406406   0.395989   0.434995
     5  C   -0.002918   0.032803  -0.058733  -0.047990  -0.004336  -0.068872
     6  H   -0.034364  -0.005085   0.004585   0.000240  -0.001600   0.002748
     7  H    0.546294  -0.002495  -0.005589  -0.000410   0.001808  -0.000100
     8  H   -0.002495   0.534849  -0.034541   0.000015  -0.000009   0.000010
     9  H   -0.005589  -0.034541   0.561971  -0.000005  -0.000031  -0.000061
    10  H   -0.000410   0.000015  -0.000005   0.543485  -0.028274  -0.021529
    11  H    0.001808  -0.000009  -0.000031  -0.028274   0.567117  -0.040451
    12  H   -0.000100   0.000010  -0.000061  -0.021529  -0.040451   0.551678
    13  H   -0.002135  -0.000208   0.002866  -0.006545  -0.001008   0.004850
    14  H    0.000354   0.008008  -0.005726   0.000106  -0.000058   0.000136
              13         14
     1  O    0.000241   0.255023
     2  C   -0.005741  -0.066720
     3  C   -0.012209   0.004895
     4  C   -0.000851  -0.016066
     5  C    0.362925   0.067116
     6  H    0.003775  -0.000541
     7  H   -0.002135   0.000354
     8  H   -0.000208   0.008008
     9  H    0.002866  -0.005726
    10  H   -0.006545   0.000106
    11  H   -0.001008  -0.000058
    12  H    0.004850   0.000136
    13  H    0.464921  -0.000966
    14  H   -0.000966   0.501985
          Atomic-Atomic Spin Densities.
               1          2          3          4          5          6
     1  O    0.009657   0.000158  -0.008065   0.000938  -0.002522  -0.001670
     2  C    0.000158   0.009131   0.016751   0.044419  -0.178497   0.017313
     3  C   -0.008065   0.016751   0.043222  -0.000522  -0.033700   0.006919
     4  C    0.000938   0.044419  -0.000522  -0.002751  -0.161401   0.009240
     5  C   -0.002522  -0.178497  -0.033700  -0.161401   1.553183  -0.035729
     6  H   -0.001670   0.017313   0.006919   0.009240  -0.035729   0.016972
     7  H    0.001285   0.001238  -0.011334  -0.004229  -0.003637  -0.009343
     8  H    0.000605   0.000515   0.000097   0.000141  -0.000807   0.000085
     9  H   -0.000999   0.002269   0.001382   0.000828  -0.004968   0.000259
    10  H    0.000007   0.005598   0.001451   0.011503  -0.023168   0.000234
    11  H    0.000061  -0.011886  -0.004273   0.007025   0.001277  -0.001878
    12  H   -0.000008   0.012625   0.003811   0.027192  -0.051701   0.002773
    13  H    0.000313   0.017180   0.000843   0.013401  -0.036111   0.000402
    14  H    0.009230   0.005172   0.002221   0.001276  -0.001407  -0.000539
               7          8          9         10         11         12
     1  O    0.001285   0.000605  -0.000999   0.000007   0.000061  -0.000008
     2  C    0.001238   0.000515   0.002269   0.005598  -0.011886   0.012625
     3  C   -0.011334   0.000097   0.001382   0.001451  -0.004273   0.003811
     4  C   -0.004229   0.000141   0.000828   0.011503   0.007025   0.027192
     5  C   -0.003637  -0.000807  -0.004968  -0.023168   0.001277  -0.051701
     6  H   -0.009343   0.000085   0.000259   0.000234  -0.001878   0.002773
     7  H    0.072509   0.000189  -0.001404  -0.000297   0.003548  -0.001255
     8  H    0.000189  -0.002562   0.000813   0.000000  -0.000000   0.000006
     9  H   -0.001404   0.000813  -0.003100   0.000006  -0.000026   0.000020
    10  H   -0.000297   0.000000   0.000006   0.014283  -0.008029   0.004973
    11  H    0.003548  -0.000000  -0.000026  -0.008029   0.082668  -0.014394
    12  H   -0.001255   0.000006   0.000020   0.004973  -0.014394   0.035512
    13  H   -0.001990   0.000037   0.000227   0.001687  -0.002269   0.000573
    14  H    0.000348  -0.000596   0.000059  -0.000040   0.000057  -0.000122
              13         14
     1  O    0.000313   0.009230
     2  C    0.017180   0.005172
     3  C    0.000843   0.002221
     4  C    0.013401   0.001276
     5  C   -0.036111  -0.001407
     6  H    0.000402  -0.000539
     7  H   -0.001990   0.000348
     8  H    0.000037  -0.000596
     9  H    0.000227   0.000059
    10  H    0.001687  -0.000040
    11  H   -0.002269   0.000057
    12  H    0.000573  -0.000122
    13  H   -0.054602  -0.000211
    14  H   -0.000211  -0.017223
 Mulliken charges and spin densities:
               1          2
     1  O   -0.345552   0.008988
     2  C   -0.335299  -0.058013
     3  C   -0.183452   0.018803
     4  C   -0.475877  -0.052940
     5  C   -0.128363   1.020813
     6  H    0.179698   0.005037
     7  H    0.152131   0.045628
     8  H    0.139925  -0.001477
     9  H    0.139978  -0.004635
    10  H    0.134037   0.008208
    11  H    0.138042   0.051881
    12  H    0.142193   0.020006
    13  H    0.190084  -0.060522
    14  H    0.252454  -0.001776
 Sum of Mulliken charges =  -0.00000   1.00000
 Mulliken charges and spin densities with hydrogens summed into heavy atoms:
               1          2
     1  O   -0.093098   0.007212
     2  C   -0.003470  -0.007349
     3  C    0.096451   0.012691
     4  C   -0.061605   0.027154
     5  C    0.061721   0.960291
 Electronic spatial extent (au):  <R**2>=            568.9947
 Charge=             -0.0000 electrons
 Dipole moment (field-independent basis, Debye):
    X=             -1.8329    Y=              0.8644    Z=              0.6801  Tot=              2.1376
 Quadrupole moment (field-independent basis, Debye-Ang):
   XX=            -36.7289   YY=            -31.9899   ZZ=            -32.7154
   XY=              3.1740   XZ=              1.1750   YZ=             -1.1004
 Traceless Quadrupole moment (field-independent basis, Debye-Ang):
   XX=             -2.9175   YY=              1.8215   ZZ=              1.0960
   XY=              3.1740   XZ=              1.1750   YZ=             -1.1004
 Octapole moment (field-independent basis, Debye-Ang**2):
  XXX=             -5.1574  YYY=             -5.3045  ZZZ=             -0.1130  XYY=              1.6496
  XXY=              6.6290  XXZ=              1.4921  XZZ=              1.7507  YZZ=             -1.1410
  YYZ=              0.6742  XYZ=             -1.3243
 Hexadecapole moment (field-independent basis, Debye-Ang**3):
 XXXX=           -569.5169 YYYY=           -123.6153 ZZZZ=            -76.9519 XXXY=             15.3104
 XXXZ=             -1.5552 YYYX=             -7.4416 YYYZ=             -0.6719 ZZZX=              0.8878
 ZZZY=             -0.2775 XXYY=           -115.5451 XXZZ=           -106.3435 YYZZ=            -37.2179
 XXYZ=             -4.5860 YYXZ=             -0.1658 ZZXY=              1.1728
 N-N= 1.796875048826D+02 E-N=-9.023900516664D+02  KE= 2.320721862976D+02
                          Isotropic Fermi Contact Couplings
        Atom                 a.u.       MegaHertz       Gauss      10(-4) cm-1
     1  O(17)              0.00097      -0.59050      -0.21071      -0.19697
     2  C(13)             -0.03102     -34.87656     -12.44482     -11.63357
     3  C(13)              0.02191      24.63665       8.79097       8.21790
     4  C(13)             -0.03075     -34.56866     -12.33496     -11.53086
     5  C(13)              0.17483     196.53924      70.13009      65.55843
     6  H(1)               0.00422      18.86341       6.73094       6.29216
     7  H(1)               0.02605     116.43835      41.54810      38.83965
     8  H(1)              -0.00058      -2.57218      -0.91782      -0.85799
     9  H(1)              -0.00040      -1.79483      -0.64044      -0.59869
    10  H(1)               0.00390      17.41914       6.21558       5.81040
    11  H(1)               0.02886     129.00399      46.03183      43.03110
    12  H(1)               0.01038      46.37972      16.54944      15.47061
    13  H(1)              -0.01411     -63.08132     -22.50898     -21.04166
    14  H(1)              -0.00146      -6.53169      -2.33067      -2.17874
 --------------------------------------------------------
       Center         ----  Spin Dipole Couplings  ----
                      3XX-RR        3YY-RR        3ZZ-RR
 --------------------------------------------------------
     1   Atom        0.013702     -0.005188     -0.008514
     2   Atom       -0.004157      0.012017     -0.007861
     3   Atom        0.026192     -0.012157     -0.014034
     4   Atom        0.008755      0.000872     -0.009627
     5   Atom       -0.278725      0.709124     -0.430399
     6   Atom       -0.004138     -0.003752      0.007890
     7   Atom       -0.002906      0.010025     -0.007119
     8   Atom        0.005501     -0.001584     -0.003917
     9   Atom        0.007671     -0.004314     -0.003357
    10   Atom        0.013160     -0.004111     -0.009049
    11   Atom        0.012379     -0.005305     -0.007074
    12   Atom        0.001381     -0.007673      0.006292
    13   Atom       -0.056563     -0.015689      0.072252
    14   Atom        0.018383     -0.004819     -0.013564
 --------------------------------------------------------
                        XY            XZ            YZ
 --------------------------------------------------------
     1   Atom        0.028497     -0.030161     -0.023610
     2   Atom        0.006602     -0.005258     -0.003450
     3   Atom        0.000421      0.006782     -0.002410
     4   Atom       -0.007206      0.005650      0.003201
     5   Atom       -0.568673     -0.159301      0.348056
     6   Atom        0.003641     -0.009517     -0.009258
     7   Atom        0.008823     -0.004478     -0.005557
     8   Atom        0.003378     -0.002227     -0.001036
     9   Atom        0.004031      0.005416      0.001763
    10   Atom        0.009537      0.000438      0.001125
    11   Atom       -0.005679      0.007550     -0.001423
    12   Atom        0.003601      0.012934      0.003691
    13   Atom       -0.026487      0.009847     -0.004697
    14   Atom       -0.009239     -0.005631      0.000717
 --------------------------------------------------------


 ---------------------------------------------------------------------------------
              Anisotropic Spin Dipole Couplings in Principal Axis System
 ---------------------------------------------------------------------------------

       Atom             a.u.   MegaHertz   Gauss  10(-4) cm-1        Axes

              Baa    -0.0313     2.262     0.807     0.755  0.2652  0.4716  0.8410
     1 O(17)  Bbb    -0.0255     1.843     0.658     0.615 -0.6695  0.7177 -0.1914
              Bcc     0.0567    -4.106    -1.465    -1.369  0.6939  0.5123 -0.5061
 
              Baa    -0.0116    -1.561    -0.557    -0.521  0.6052 -0.0531  0.7943
     2 C(13)  Bbb    -0.0038    -0.516    -0.184    -0.172  0.7087 -0.4186 -0.5679
              Bcc     0.0155     2.077     0.741     0.693  0.3626  0.9066 -0.2157
 
              Baa    -0.0165    -2.217    -0.791    -0.739 -0.1415  0.4892  0.8606
     3 C(13)  Bbb    -0.0108    -1.447    -0.516    -0.483  0.0786  0.8722 -0.4829
              Bcc     0.0273     3.664     1.307     1.222  0.9868  0.0006  0.1619
 
              Baa    -0.0132    -1.778    -0.634    -0.593 -0.3430 -0.3707  0.8631
     4 C(13)  Bbb    -0.0003    -0.036    -0.013    -0.012  0.3420  0.8065  0.4824
              Bcc     0.0135     1.814     0.647     0.605  0.8749 -0.4606  0.1499
 
              Baa    -0.5381   -72.202   -25.763   -24.084  0.9140  0.4023  0.0520
     5 C(13)  Bbb    -0.5283   -70.888   -25.295   -23.646  0.0538 -0.2474  0.9674
              Bcc     1.0663   143.090    51.058    47.730 -0.4020  0.8815  0.2478
 
              Baa    -0.0101    -5.404    -1.928    -1.803  0.6390  0.4928  0.5907
     6 H(1)   Bbb    -0.0076    -4.033    -1.439    -1.345 -0.6440  0.7627  0.0603
              Bcc     0.0177     9.437     3.367     3.148 -0.4208 -0.4189  0.8047
 
              Baa    -0.0100    -5.315    -1.896    -1.773  0.5395 -0.0041  0.8420
     7 H(1)   Bbb    -0.0066    -3.523    -1.257    -1.175  0.7121 -0.5313 -0.4589
              Bcc     0.0166     8.838     3.154     2.948  0.4492  0.8472 -0.2837
 
              Baa    -0.0045    -2.380    -0.849    -0.794  0.1643  0.1577  0.9737
     8 H(1)   Bbb    -0.0029    -1.561    -0.557    -0.521 -0.3896  0.9173 -0.0828
              Bcc     0.0074     3.941     1.406     1.314  0.9062  0.3657 -0.2121
 
              Baa    -0.0057    -3.026    -1.080    -1.009 -0.0968 -0.6694  0.7366
     9 H(1)   Bbb    -0.0055    -2.917    -1.041    -0.973 -0.4464  0.6906  0.5690
              Bcc     0.0111     5.942     2.120     1.982  0.8896  0.2738  0.3657
 
              Baa    -0.0096    -5.141    -1.834    -1.715  0.1985 -0.5128  0.8353
    10 H(1)   Bbb    -0.0078    -4.153    -1.482    -1.385 -0.3559  0.7564  0.5489
              Bcc     0.0174     9.293     3.316     3.100  0.9132  0.4062  0.0324
 
              Baa    -0.0097    -5.197    -1.855    -1.734 -0.3553 -0.1595  0.9210
    11 H(1)   Bbb    -0.0068    -3.620    -1.292    -1.207  0.1887  0.9528  0.2378
              Bcc     0.0165     8.817     3.146     2.941  0.9155 -0.2583  0.3085
 
              Baa    -0.0095    -5.086    -1.815    -1.696  0.7442 -0.4353 -0.5067
    12 H(1)   Bbb    -0.0085    -4.534    -1.618    -1.512  0.2285  0.8787 -0.4192
              Bcc     0.0180     9.620     3.433     3.209  0.6277  0.1961  0.7534
 
              Baa    -0.0699   -37.298   -13.309   -12.441  0.8991  0.4351 -0.0479
    13 H(1)   Bbb    -0.0036    -1.936    -0.691    -0.646 -0.4281  0.8969  0.1111
              Bcc     0.0735    39.234    14.000    13.087  0.0913 -0.0794  0.9927
 
              Baa    -0.0146    -7.804    -2.785    -2.603  0.1984  0.1157  0.9733
    14 H(1)   Bbb    -0.0078    -4.184    -1.493    -1.396  0.2943  0.9401 -0.1718
              Bcc     0.0225    11.988     4.278     3.999  0.9349 -0.3205 -0.1525
 

 ---------------------------------------------------------------------------------

 No NMR shielding tensors so no spin-rotation constants.
 Leave Link  601 at Fri Apr 12 21:45:30 2019, MaxMem=   671088640 cpu:              10.1 elap:               0.6
 (Enter /shared/centos7/gaussian/g16/l9999.exe)
 1\1\GINC-C0280\Scan\UM062X\6-311+G(2df,2p)\C4H9O1(2)\UNDERKOFFLER.C\12
 -Apr-2019\0\\#p m062x/6-311+g(2df,2p) Opt=(CalcFC,ModRedun)\\Gaussian 
 Input Prepared from Scan Object\\0,2\O,-1.8076987279,-0.8567405489,0.3
 07151824\C,-0.0248871333,0.8042970204,0.2745865134\C,-1.471999813,0.46
 44227879,-0.0618364405\C,2.296801918,-0.3293570341,0.0287605385\C,0.94
 11075527,-0.025468745,-0.4995564376\H,0.1349812608,0.6631735948,1.3468
 930059\H,0.1350153966,1.8735261801,0.0725467296\H,-2.1537720992,1.1144
 21724,0.4844125608\H,-1.645616235,0.6228816279,-1.1330142375\H,2.79799
 45242,-1.1012670393,-0.5530624376\H,2.9437883495,0.5578006002,0.013565
 9224\H,2.2475797685,-0.6575076188,1.0691987593\H,0.7580421742,-0.14461
 02985,-1.5618753011\H,-1.138833936,-1.4461322509,-0.0526839997\\Versio
 n=EM64L-G16RevA.03\State=2-A\HF=-232.9696403,-232.96946,-232.9689563,-
 232.9682537,-232.9675283,-232.9669498,-232.9666217,-232.9665427,-232.9
 666309,-232.9667687,-232.9668428,-232.9667739,-232.9665343,-232.966153
 2,-232.9657094,-232.9653105,-232.9650569,-232.965014,-232.9651984,-232
 .9655502,-232.9659702,-232.9663501,-232.9665991,-232.9666693,-232.9665
 596,-232.966316,-232.9660173,-232.9657651,-232.9656592,-232.9657736,-2
 32.9661387,-232.9667348,-232.9674863,-232.9682746,-232.9689765,-232.96
 94646,-232.9696403\S2=0.755096,0.755086,0.755084,0.75509,0.755104,0.75
 5123,0.755144,0.755167,0.755189,0.755208,0.755224,0.755237,0.755245,0.
 75525,0.755254,0.75526,0.755262,0.755268,0.755269,0.755276,0.755276,0.
 755279,0.755279,0.755278,0.755275,0.75527,0.755265,0.755255,0.755244,0
 .75523,0.755214,0.755197,0.755178,0.755156,0.755135,0.755113,0.755096\
 S2-1=0.,0.,0.,0.,0.,0.,0.,0.,0.,0.,0.,0.,0.,0.,0.,0.,0.,0.,0.,0.,0.,0.
 ,0.,0.,0.,0.,0.,0.,0.,0.,0.,0.,0.,0.,0.,0.,0.\S2A=0.750021,0.750021,0.
 750021,0.750021,0.750021,0.750021,0.750022,0.750022,0.750022,0.750022,
 0.750022,0.750022,0.750022,0.750022,0.750022,0.750022,0.750022,0.75002
 3,0.750023,0.750023,0.750023,0.750023,0.750023,0.750023,0.750023,0.750
 022,0.750022,0.750022,0.750022,0.750022,0.750022,0.750022,0.750022,0.7
 50022,0.750022,0.750021,0.750021\RMSD=4.451e-09,5.704e-09,5.564e-09,4.
 168e-09,3.914e-09,4.386e-09,3.932e-09,3.008e-09,2.265e-09,8.050e-09,3.
 836e-09,5.770e-09,3.007e-09,8.280e-09,3.408e-09,7.119e-09,4.591e-09,9.
 495e-09,4.169e-09,8.701e-09,2.900e-09,9.563e-09,8.781e-09,4.710e-09,8.
 172e-09,3.559e-09,4.586e-09,6.163e-09,3.852e-09,4.322e-09,3.839e-09,9.
 925e-09,7.835e-09,4.848e-09,4.537e-09,7.025e-09,3.159e-09\PG=C01 [X(C4
 H9O1)]\\@


 YOU KNOW YOU'RE A TEACHER WHEN YOU SAY 2, WRITE 3, AND MEAN 4.
 -- RONALD ANSTROM, HIGH SCHOOL TEACHER, UNDERWOOD, N.D. 1974
 Job cpu time:       2 days  0 hours  2 minutes 15.7 seconds.
 Elapsed time:       0 days  2 hours 24 minutes 55.9 seconds.
 File lengths (MBytes):  RWF=   1376 Int=      0 D2E=      0 Chk=     32 Scr=     32
 Normal termination of Gaussian 16 at Fri Apr 12 21:45:30 2019.
